# vtk DataFile Version 2.0
results/iter9.vtk, Created by Freefem++ 
ASCII
DATASET UNSTRUCTURED_GRID
POINTS 961 float
0 0 0
0.033333333 0 0
0.066666667 0 0
0.1 0 0
0.13333333 0 0
0.16666667 0 0
0.2 0 0
0.23333333 0 0
0.26666667 0 0
0.3 0 0
0.33333333 0 0
0.36666667 0 0
0.4 0 0
0.43333333 0 0
0.46666667 0 0
0.5 0 0
0.53333333 0 0
0.56666667 0 0
0.6 0 0
0.63333333 0 0
0.66666667 0 0
0.7 0 0
0.73333333 0 0
0.76666667 0 0
0.8 0 0
0.83333333 0 0
0.86666667 0 0
0.9 0 0
0.93333333 0 0
0.96666667 0 0
1 0 0
0 0.033333333 0
0.033333333 0.033333333 0
0.066666667 0.033333333 0
0.1 0.033333333 0
0.13333333 0.033333333 0
0.16666667 0.033333333 0
0.2 0.033333333 0
0.23333333 0.033333333 0
0.26666667 0.033333333 0
0.3 0.033333333 0
0.33333333 0.033333333 0
0.36666667 0.033333333 0
0.4 0.033333333 0
0.43333333 0.033333333 0
0.46666667 0.033333333 0
0.5 0.033333333 0
0.53333333 0.033333333 0
0.56666667 0.033333333 0
0.6 0.033333333 0
0.63333333 0.033333333 0
0.66666667 0.033333333 0
0.7 0.033333333 0
0.73333333 0.033333333 0
0.76666667 0.033333333 0
0.8 0.033333333 0
0.83333333 0.033333333 0
0.86666667 0.033333333 0
0.9 0.033333333 0
0.93333333 0.033333333 0
0.96666667 0.033333333 0
1 0.033333333 0
0 0.066666667 0
0.033333333 0.066666667 0
0.066666667 0.066666667 0
0.1 0.066666667 0
0.13333333 0.066666667 0
0.16666667 0.066666667 0
0.2 0.066666667 0
0.23333333 0.066666667 0
0.26666667 0.066666667 0
0.3 0.066666667 0
0.33333333 0.066666667 0
0.36666667 0.066666667 0
0.4 0.066666667 0
0.43333333 0.066666667 0
0.46666667 0.066666667 0
0.5 0.066666667 0
0.53333333 0.066666667 0
0.56666667 0.066666667 0
0.6 0.066666667 0
0.63333333 0.066666667 0
0.66666667 0.066666667 0
0.7 0.066666667 0
0.73333333 0.066666667 0
0.76666667 0.066666667 0
0.8 0.066666667 0
0.83333333 0.066666667 0
0.86666667 0.066666667 0
0.9 0.066666667 0
0.93333333 0.066666667 0
0.96666667 0.066666667 0
1 0.066666667 0
0 0.1 0
0.033333333 0.1 0
0.066666667 0.1 0
0.1 0.1 0
0.13333333 0.1 0
0.16666667 0.1 0
0.2 0.1 0
0.23333333 0.1 0
0.26666667 0.1 0
0.3 0.1 0
0.33333333 0.1 0
0.36666667 0.1 0
0.4 0.1 0
0.43333333 0.1 0
0.46666667 0.1 0
0.5 0.1 0
0.53333333 0.1 0
0.56666667 0.1 0
0.6 0.1 0
0.63333333 0.1 0
0.66666667 0.1 0
0.7 0.1 0
0.73333333 0.1 0
0.76666667 0.1 0
0.8 0.1 0
0.83333333 0.1 0
0.86666667 0.1 0
0.9 0.1 0
0.93333333 0.1 0
0.96666667 0.1 0
1 0.1 0
0 0.13333333 0
0.033333333 0.13333333 0
0.066666667 0.13333333 0
0.1 0.13333333 0
0.13333333 0.13333333 0
0.16666667 0.13333333 0
0.2 0.13333333 0
0.23333333 0.13333333 0
0.26666667 0.13333333 0
0.3 0.13333333 0
0.33333333 0.13333333 0
0.36666667 0.13333333 0
0.4 0.13333333 0
0.43333333 0.13333333 0
0.46666667 0.13333333 0
0.5 0.13333333 0
0.53333333 0.13333333 0
0.56666667 0.13333333 0
0.6 0.13333333 0
0.63333333 0.13333333 0
0.66666667 0.13333333 0
0.7 0.13333333 0
0.73333333 0.13333333 0
0.76666667 0.13333333 0
0.8 0.13333333 0
0.83333333 0.13333333 0
0.86666667 0.13333333 0
0.9 0.13333333 0
0.93333333 0.13333333 0
0.96666667 0.13333333 0
1 0.13333333 0
0 0.16666667 0
0.033333333 0.16666667 0
0.066666667 0.16666667 0
0.1 0.16666667 0
0.13333333 0.16666667 0
0.16666667 0.16666667 0
0.2 0.16666667 0
0.23333333 0.16666667 0
0.26666667 0.16666667 0
0.3 0.16666667 0
0.33333333 0.16666667 0
0.36666667 0.16666667 0
0.4 0.16666667 0
0.43333333 0.16666667 0
0.46666667 0.16666667 0
0.5 0.16666667 0
0.53333333 0.16666667 0
0.56666667 0.16666667 0
0.6 0.16666667 0
0.63333333 0.16666667 0
0.66666667 0.16666667 0
0.7 0.16666667 0
0.73333333 0.16666667 0
0.76666667 0.16666667 0
0.8 0.16666667 0
0.83333333 0.16666667 0
0.86666667 0.16666667 0
0.9 0.16666667 0
0.93333333 0.16666667 0
0.96666667 0.16666667 0
1 0.16666667 0
0 0.2 0
0.033333333 0.2 0
0.066666667 0.2 0
0.1 0.2 0
0.13333333 0.2 0
0.16666667 0.2 0
0.2 0.2 0
0.23333333 0.2 0
0.26666667 0.2 0
0.3 0.2 0
0.33333333 0.2 0
0.36666667 0.2 0
0.4 0.2 0
0.43333333 0.2 0
0.46666667 0.2 0
0.5 0.2 0
0.53333333 0.2 0
0.56666667 0.2 0
0.6 0.2 0
0.63333333 0.2 0
0.66666667 0.2 0
0.7 0.2 0
0.73333333 0.2 0
0.76666667 0.2 0
0.8 0.2 0
0.83333333 0.2 0
0.86666667 0.2 0
0.9 0.2 0
0.93333333 0.2 0
0.96666667 0.2 0
1 0.2 0
0 0.23333333 0
0.033333333 0.23333333 0
0.066666667 0.23333333 0
0.1 0.23333333 0
0.13333333 0.23333333 0
0.16666667 0.23333333 0
0.2 0.23333333 0
0.23333333 0.23333333 0
0.26666667 0.23333333 0
0.3 0.23333333 0
0.33333333 0.23333333 0
0.36666667 0.23333333 0
0.4 0.23333333 0
0.43333333 0.23333333 0
0.46666667 0.23333333 0
0.5 0.23333333 0
0.53333333 0.23333333 0
0.56666667 0.23333333 0
0.6 0.23333333 0
0.63333333 0.23333333 0
0.66666667 0.23333333 0
0.7 0.23333333 0
0.73333333 0.23333333 0
0.76666667 0.23333333 0
0.8 0.23333333 0
0.83333333 0.23333333 0
0.86666667 0.23333333 0
0.9 0.23333333 0
0.93333333 0.23333333 0
0.96666667 0.23333333 0
1 0.23333333 0
0 0.26666667 0
0.033333333 0.26666667 0
0.066666667 0.26666667 0
0.1 0.26666667 0
0.13333333 0.26666667 0
0.16666667 0.26666667 0
0.2 0.26666667 0
0.23333333 0.26666667 0
0.26666667 0.26666667 0
0.3 0.26666667 0
0.33333333 0.26666667 0
0.36666667 0.26666667 0
0.4 0.26666667 0
0.43333333 0.26666667 0
0.46666667 0.26666667 0
0.5 0.26666667 0
0.53333333 0.26666667 0
0.56666667 0.26666667 0
0.6 0.26666667 0
0.63333333 0.26666667 0
0.66666667 0.26666667 0
0.7 0.26666667 0
0.73333333 0.26666667 0
0.76666667 0.26666667 0
0.8 0.26666667 0
0.83333333 0.26666667 0
0.86666667 0.26666667 0
0.9 0.26666667 0
0.93333333 0.26666667 0
0.96666667 0.26666667 0
1 0.26666667 0
0 0.3 0
0.033333333 0.3 0
0.066666667 0.3 0
0.1 0.3 0
0.13333333 0.3 0
0.16666667 0.3 0
0.2 0.3 0
0.23333333 0.3 0
0.26666667 0.3 0
0.3 0.3 0
0.33333333 0.3 0
0.36666667 0.3 0
0.4 0.3 0
0.43333333 0.3 0
0.46666667 0.3 0
0.5 0.3 0
0.53333333 0.3 0
0.56666667 0.3 0
0.6 0.3 0
0.63333333 0.3 0
0.66666667 0.3 0
0.7 0.3 0
0.73333333 0.3 0
0.76666667 0.3 0
0.8 0.3 0
0.83333333 0.3 0
0.86666667 0.3 0
0.9 0.3 0
0.93333333 0.3 0
0.96666667 0.3 0
1 0.3 0
0 0.33333333 0
0.033333333 0.33333333 0
0.066666667 0.33333333 0
0.1 0.33333333 0
0.13333333 0.33333333 0
0.16666667 0.33333333 0
0.2 0.33333333 0
0.23333333 0.33333333 0
0.26666667 0.33333333 0
0.3 0.33333333 0
0.33333333 0.33333333 0
0.36666667 0.33333333 0
0.4 0.33333333 0
0.43333333 0.33333333 0
0.46666667 0.33333333 0
0.5 0.33333333 0
0.53333333 0.33333333 0
0.56666667 0.33333333 0
0.6 0.33333333 0
0.63333333 0.33333333 0
0.66666667 0.33333333 0
0.7 0.33333333 0
0.73333333 0.33333333 0
0.76666667 0.33333333 0
0.8 0.33333333 0
0.83333333 0.33333333 0
0.86666667 0.33333333 0
0.9 0.33333333 0
0.93333333 0.33333333 0
0.96666667 0.33333333 0
1 0.33333333 0
0 0.36666667 0
0.033333333 0.36666667 0
0.066666667 0.36666667 0
0.1 0.36666667 0
0.13333333 0.36666667 0
0.16666667 0.36666667 0
0.2 0.36666667 0
0.23333333 0.36666667 0
0.26666667 0.36666667 0
0.3 0.36666667 0
0.33333333 0.36666667 0
0.36666667 0.36666667 0
0.4 0.36666667 0
0.43333333 0.36666667 0
0.46666667 0.36666667 0
0.5 0.36666667 0
0.53333333 0.36666667 0
0.56666667 0.36666667 0
0.6 0.36666667 0
0.63333333 0.36666667 0
0.66666667 0.36666667 0
0.7 0.36666667 0
0.73333333 0.36666667 0
0.76666667 0.36666667 0
0.8 0.36666667 0
0.83333333 0.36666667 0
0.86666667 0.36666667 0
0.9 0.36666667 0
0.93333333 0.36666667 0
0.96666667 0.36666667 0
1 0.36666667 0
0 0.4 0
0.033333333 0.4 0
0.066666667 0.4 0
0.1 0.4 0
0.13333333 0.4 0
0.16666667 0.4 0
0.2 0.4 0
0.23333333 0.4 0
0.26666667 0.4 0
0.3 0.4 0
0.33333333 0.4 0
0.36666667 0.4 0
0.4 0.4 0
0.43333333 0.4 0
0.46666667 0.4 0
0.5 0.4 0
0.53333333 0.4 0
0.56666667 0.4 0
0.6 0.4 0
0.63333333 0.4 0
0.66666667 0.4 0
0.7 0.4 0
0.73333333 0.4 0
0.76666667 0.4 0
0.8 0.4 0
0.83333333 0.4 0
0.86666667 0.4 0
0.9 0.4 0
0.93333333 0.4 0
0.96666667 0.4 0
1 0.4 0
0 0.43333333 0
0.033333333 0.43333333 0
0.066666667 0.43333333 0
0.1 0.43333333 0
0.13333333 0.43333333 0
0.16666667 0.43333333 0
0.2 0.43333333 0
0.23333333 0.43333333 0
0.26666667 0.43333333 0
0.3 0.43333333 0
0.33333333 0.43333333 0
0.36666667 0.43333333 0
0.4 0.43333333 0
0.43333333 0.43333333 0
0.46666667 0.43333333 0
0.5 0.43333333 0
0.53333333 0.43333333 0
0.56666667 0.43333333 0
0.6 0.43333333 0
0.63333333 0.43333333 0
0.66666667 0.43333333 0
0.7 0.43333333 0
0.73333333 0.43333333 0
0.76666667 0.43333333 0
0.8 0.43333333 0
0.83333333 0.43333333 0
0.86666667 0.43333333 0
0.9 0.43333333 0
0.93333333 0.43333333 0
0.96666667 0.43333333 0
1 0.43333333 0
0 0.46666667 0
0.033333333 0.46666667 0
0.066666667 0.46666667 0
0.1 0.46666667 0
0.13333333 0.46666667 0
0.16666667 0.46666667 0
0.2 0.46666667 0
0.23333333 0.46666667 0
0.26666667 0.46666667 0
0.3 0.46666667 0
0.33333333 0.46666667 0
0.36666667 0.46666667 0
0.4 0.46666667 0
0.43333333 0.46666667 0
0.46666667 0.46666667 0
0.5 0.46666667 0
0.53333333 0.46666667 0
0.56666667 0.46666667 0
0.6 0.46666667 0
0.63333333 0.46666667 0
0.66666667 0.46666667 0
0.7 0.46666667 0
0.73333333 0.46666667 0
0.76666667 0.46666667 0
0.8 0.46666667 0
0.83333333 0.46666667 0
0.86666667 0.46666667 0
0.9 0.46666667 0
0.93333333 0.46666667 0
0.96666667 0.46666667 0
1 0.46666667 0
0 0.5 0
0.033333333 0.5 0
0.066666667 0.5 0
0.1 0.5 0
0.13333333 0.5 0
0.16666667 0.5 0
0.2 0.5 0
0.23333333 0.5 0
0.26666667 0.5 0
0.3 0.5 0
0.33333333 0.5 0
0.36666667 0.5 0
0.4 0.5 0
0.43333333 0.5 0
0.46666667 0.5 0
0.5 0.5 0
0.53333333 0.5 0
0.56666667 0.5 0
0.6 0.5 0
0.63333333 0.5 0
0.66666667 0.5 0
0.7 0.5 0
0.73333333 0.5 0
0.76666667 0.5 0
0.8 0.5 0
0.83333333 0.5 0
0.86666667 0.5 0
0.9 0.5 0
0.93333333 0.5 0
0.96666667 0.5 0
1 0.5 0
0 0.53333333 0
0.033333333 0.53333333 0
0.066666667 0.53333333 0
0.1 0.53333333 0
0.13333333 0.53333333 0
0.16666667 0.53333333 0
0.2 0.53333333 0
0.23333333 0.53333333 0
0.26666667 0.53333333 0
0.3 0.53333333 0
0.33333333 0.53333333 0
0.36666667 0.53333333 0
0.4 0.53333333 0
0.43333333 0.53333333 0
0.46666667 0.53333333 0
0.5 0.53333333 0
0.53333333 0.53333333 0
0.56666667 0.53333333 0
0.6 0.53333333 0
0.63333333 0.53333333 0
0.66666667 0.53333333 0
0.7 0.53333333 0
0.73333333 0.53333333 0
0.76666667 0.53333333 0
0.8 0.53333333 0
[...]
CELL_DATA 1920
Scalars  Label int 1
LOOKUP_TABLE FreeFempp_table
0
0
0
0
0
0
0
0
0
0
0
0
0
0
0
0
0
0
0
0
0
0
0
0
0
0
0
0
0
0
0
0
0
0
0
0
0
0
0
0
0
0
0
0
0
0
0
0
0
0
0
0
0
0
0
0
0
0
0
0
0
0
0
0
0
0
0
0
0
0
0
0
0
0
0
0
0
0
0
0
0
0
0
0
0
0
0
0
0
0
0
0
0
0
0
0
0
0
0
0
0
0
0
0
0
0
0
0
0
0
0
0
0
0
0
0
0
0
0
0
0
0
0
0
0
0
0
0
0
0
0
0
0
0
0
0
0
0
0
0
0
0
0
0
0
0
0
0
0
0
0
0
0
0
0
0
0
0
0
0
0
0
0
0
0
0
0
0
0
0
0
0
0
0
0
0
0
0
0
0
0
0
0
0
0
0
0
0
0
0
0
0
0
0
0
0
0
0
0
0
0
0
0
0
0
0
0
0
0
0
0
0
0
0
0
0
0
0
0
0
0
0
0
0
0
0
0
0
0
0
0
0
0
0
0
0
0
0
0
0
0
0
0
0
0
0
0
0
0
0
0
0
0
0
0
0
0
0
0
0
0
0
0
0
0
0
0
0
0
0
0
0
0
0
0
0
0
0
0
0
0
0
0
0
0
0
0
0
0
0
0
0
0
0
0
0
0
0
0
0
0
0
0
0
0
0
0
0
0
0
0
0
0
0
0
0
0
0
0
0
0
0
0
0
0
0
0
0
0
0
0
0
0
0
0
0
0
0
0
0
0
0
0
0
0
0
0
0
0
0
0
0
0
0
0
0
0
0
0
0
0
0
0
0
0
0
0
0
0
0
0
0
0
0
0
0
0
0
0
0
0
0
0
0
0
0
0
0
0
0
0
0
0
0
0
0
0
0
0
0
0
0
0
0
0
0
0
0
0
0
0
0
0
0
0
0
0
0
0
0
0
0
0
0
0
0
0
0
0
0
0
0
0
0
0
0
0
0
0
0
0
0
0
0
0
0
0
0
0
0
0
0
0
0
0
0
0
0
0
0
0
0
0
0
0
0
0
0
0
0
0
0
0
0
0
0
0
0
0
0
0
0
0
0
0
0
0
0
0
0
0
0
0
0
0
0
0
0
0
0
0
0
0
0
0
0
0
0
0
0
0
0
0
0
0
0
0
0
0
0
0
0
0
0
0
0
0
0
0
0
0
0
0
0
0
0
0
0
0
0
0
0
0
0
0
0
0
0
0
0
0
0
0
0
0
0
0
0
0
0
0
0
0
0
0
0
0
0
0
0
0
0
0
0
0
0
0
0
0
0
0
0
0
0
0
0
0
0
0
0
0
0
0
0
0
0
0
0
0
0
0
0
0
0
0
0
0
0
0
0
0
0
0
0
0
0
0
0
0
0
0
0
0
0
0
0
0
0
0
0
0
0
0
0
0
0
0
0
0
0
0
0
0
0
0
0
0
0
0
0
0
0
0
0
0
0
0
0
0
0
0
0
0
0
0
0
0
0
0
0
0
0
0
0
0
0
0
0
0
0
0
0
0
0
0
0
0
0
0
0
0
0
0
0
0
0
0
0
0
0
0
0
0
0
0
0
0
0
0
0
0
0
0
0
0
0
0
0
0
0
0
0
0
0
0
0
0
0
0
0
0
0
0
0
0
0
0
0
0
0
0
0
0
0
0
0
0
0
0
0
0
0
0
0
0
0
0
0
0
0
0
0
0
0
0
0
0
0
0
0
0
0
0
0
0
0
0
0
0
0
0
0
0
0
0
0
0
0
0
0
0
0
0
0
0
0
0
0
0
0
0
0
0
0
0
0
0
0
0
0
0
0
0
0
0
0
0
0
0
0
0
0
0
0
0
0
0
0
0
0
0
0
0
0
0
0
0
0
0
0
0
0
0
0
0
0
0
0
0
0
0
0
0
0
0
0
0
0
0
0
0
0
0
0
0
0
0
0
0
0
0
0
0
0
0
0
0
0
0
0
0
0
0
0
0
0
0
0
0
0
0
0
0
0
0
0
0
0
0
0
0
0
0
0
0
0
0
0
0
0
0
0
0
0
0
0
0
0
0
0
0
0
0
0
0
0
0
0
0
0
0
0
0
0
0
0
0
0
0
0
0
0
0
0
0
0
0
0
0
0
0
0
0
0
0
0
0
0
0
0
0
0
0
0
0
0
0
0
0
0
0
0
0
0
0
0
0
0
0
0
0
0
0
0
0
0
0
0
0
0
0
0
0
0
0
0
0
0
0
0
0
0
0
0
0
0
0
0
0
0
0
0
0
0
0
0
0
0
0
0
0
0
0
0
0
0
0
0
0
0
0
0
0
0
0
0
0
0
0
0
0
0
0
0
0
0
0
0
0
0
0
0
0
0
0
0
0
0
0
0
0
0
0
0
0
0
0
0
0
0
0
0
0
0
0
0
0
0
0
0
0
0
0
0
0
0
0
0
0
0
0
0
0
0
0
0
0
0
0
0
0
0
0
0
0
0
0
0
0
0
0
0
0
0
0
0
0
0
0
0
0
0
0
0
0
0
0
0
0
0
0
0
0
0
0
0
0
0
0
0
0
0
0
0
0
0
0
0
0
0
0
0
0
0
0
0
0
0
0
0
0
0
0
0
0
0
0
0
0
0
0
0
0
0
0
0
0
0
0
0
0
0
0
0
0
0
0
0
0
0
0
0
0
0
0
0
0
0
0
0
0
0
0
0
0
0
0
0
0
0
0
0
0
0
0
0
0
0
0
0
0
0
0
0
0
0
0
0
0
0
0
0
0
0
0
0
0
0
0
0
0
0
0
0
0
0
0
0
0
0
0
0
0
0
0
0
0
0
0
0
0
0
0
0
0
0
0
0
0
0
0
0
0
0
0
0
0
0
0
0
0
0
0
0
0
0
0
0
0
0
0
0
0
0
0
0
0
0
0
0
0
0
0
0
0
0
0
0
0
0
0
0
0
0
0
0
0
0
0
0
0
0
0
0
0
0
0
0
0
0
0
0
0
0
0
0
0
0
0
0
0
0
0
0
0
0
0
0
0
0
0
0
0
0
0
0
0
0
0
0
0
0
0
0
0
0
0
0
0
0
0
0
0
0
0
0
0
0
0
0
0
0
0
0
0
0
0
0
0
0
0
0
0
0
0
0
0
0
0
0
0
0
0
0
0
0
0
0
0
0
0
0
0
0
0
0
0
0
0
0
0
0
0
0
0
0
0
0
0
0
0
0
0
0
0
0
0
0
0
0
0
0
0
0
0
0
0
0
0
0
0
0
0
0
0
0
0
0
0
0
0
0
0
0
0
0
0
0
0
0
0
0
0
0
0
0
0
0
0
0
0
0
0
0
0
0
0
0
0
0
0
0
0
0
0
0
0
0
0
0
0
0
0
0
0
0
0
0
0
0
0
0
0
0
0
0
0
0
0
0
0
0
0
0
0
0
0
0
0
0
0
0
0
0
0
0
0
0
0
0
0
0
0
0
0
0
0
0
0
0
0
0
0
0
0
0
0
0
0
0
0
0
0
0
0
0
0
0
0
0
0
0
0
0
0
0
0
0
0
0
0
0
0
0
0
0
0
0
0
0
0
0
0
0
0
0
0
0
0
0
0
0
0
0
0
0
0
0
0
0
0
0
0
0
0
0
0
0
0
0
0
0
0
0
0
0
0
0
0
0
0
0
0
0
0
0
0
0
0
0
0
0
0
0
0
0
0
0
0
0
0
0
0
0
0
0
0
0
0
0
0
0
0
0
0
0
0
0
0
0
0
0
0
0
0
0
0
0
0
0
0
0
0
0
0
0
0
0
0
0
0
0
0
0
0
0
0
0
0
0
0
0
0
0
0
0
0
0
0
0
0
0
0
0
0
0
0
0
0
0
0
0
0
0
0
0
0
0
0
0
0
0
0
0
0
0
0
0
0
0
0
0
0
0
0
0
0
0
0
0
0
0
0
0
0
0
0
0
0
0
0
0
0
0
0
0
0
0
0
0
0
0
0
0
0
0
0
0
0
0
0
0
0
0
0
0
0
0
0
0
0
0
0
0
0
0
0
0
0
0
1
1
1
1
1
1
1
1
1
1
1
1
1
1
1
1
1
1
1
1
1
1
1
1
1
1
1
1
1
1
2
2
2
2
2
2
2
2
2
2
2
2
2
2
2
2
2
2
2
2
2
2
2
2
2
2
2
2
2
2
3
3
3
3
3
3
3
3
3
3
3
3
3
3
3
3
3
3
3
3
3
3
3
3
3
3
3
3
3
3
4
4
4
4
4
4
4
4
4
4
4
4
4
4
4
4
4
4
4
4
4
4
4
4
4
4
4
4
4
4

LOOKUP_TABLE FreeFempp_table 5
1.00000000 0.00000000 0.00000000 1.00000000
1.00000000 1.00000000 0.00000000 1.00000000
1.00000000 0.00000000 1.00000000 1.00000000
0.00000000 1.00000000 0.00000000 1.00000000
0.00000000 1.00000000 1.00000000 1.00000000

POINT_DATA 961
FIELD FieldData 1
Density 1 961 float
6.18383698e-02 5.04094325e-02 4.34375703e-02 4.03810963e-02 3.99654545e-02 4.10147458e-02 4.28058691e-02 4.49429415e-02 4.71996963e-02 4.94593754e-02 5.16686812e-02 5.38066663e-02 5.58675341e-02 5.78632317e-02 5.98546118e-02 6.17863089e-02 6.31321892e-02 6.26905411e-02 5.96648529e-02 6.18731827e-02 8.79192948e-02 1.35768235e-01 1.83716148e-01 2.08719194e-01 2.03334719e-01 1.79758489e-01 1.53090373e-01 1.25973955e-01 8.11646730e-02 7.25193843e-02 1.08818382e-01 7.06356242e-02 5.11590280e-02 4.57798690e-02 4.05674130e-02 3.85694802e-02 3.86424065e-02 3.97381485e-02 4.13242690e-02 4.31354828e-02 4.50346619e-02 4.69516888e-02 4.88502830e-02 5.06938472e-02 5.24281524e-02 5.40224686e-02 5.53479530e-02 5.50779961e-02 4.84719798e-02 2.75770202e-02 1.27470344e-02 1.45530831e-02 1.15054473e-01 2.42582381e-01 3.20365161e-01 3.16424012e-01 2.61045784e-01 1.98138148e-01 1.46326274e-01 8.44387263e-02 5.50208390e-02 7.52025098e-02 9.00712535e-02 7.94937834e-02 1.01647668e-01 1.27506778e-01 1.46016002e-01 1.60281986e-01 1.72619522e-01 1.83737934e-01 1.93810582e-01 2.02786684e-01 2.10512057e-01 2.16786787e-01 2.21415907e-01 2.24290714e-01 2.25446463e-01 2.24814117e-01 2.21676692e-01 2.14068949e-01 1.97117448e-01 1.69454351e-01 1.54024854e-01 1.74674287e-01 2.18506426e-01 2.48866990e-01 2.42931187e-01 2.15892956e-01 1.86065450e-01 1.58821344e-01 1.17944755e-01 5.49166277e-02 6.37097806e-02 9.28458497e-02 8.39495808e-02 1.24093935e-01 1.55983686e-01 1.78682387e-01 1.98626727e-01 2.17294157e-01 2.34834030e-01 2.51086324e-01 2.65809059e-01 2.78740317e-01 2.89627552e-01 2.98245996e-01 3.04413140e-01 3.08001667e-01 3.08932126e-01 3.07104588e-01 3.02236527e-01 2.93603569e-01 2.80519813e-01 2.65888542e-01 2.58885592e-01 2.65828341e-01 2.74910837e-01 2.66237289e-01 2.38703191e-01 2.05474451e-01 1.74877420e-01 1.38757870e-01 5.63620776e-02 5.86144440e-02 9.68412310e-02 8.45434293e-02 1.36796117e-01 1.76119193e-01 2.05643505e-01 2.32804388e-01 2.58705586e-01 2.83238560e-01 3.06029022e-01 3.26673597e-01 3.44798118e-01 3.60074103e-01 3.72226149e-01 3.81037325e-01 3.86352092e-01 3.88073236e-01 3.86146218e-01 3.80529225e-01 3.71178508e-01 3.58231515e-01 3.42695892e-01 3.27034205e-01 3.13686281e-01 3.00758302e-01 2.81752110e-01 2.54417151e-01 2.22650811e-01 1.90541565e-01 1.52654216e-01 5.83003573e-02 5.83810359e-02 1.04927696e-01 9.04023573e-02 1.47931278e-01 1.95029840e-01 2.32160091e-01 2.66794354e-01 2.99960673e-01 3.31412166e-01 3.60631853e-01 3.87084484e-01 4.10287350e-01 4.29828167e-01 4.45369512e-01 4.56649840e-01 4.63483363e-01 4.65757400e-01 4.63427544e-01 4.56512541e-01 4.45105404e-01 4.29448634e-01 4.10116374e-01 3.88134092e-01 3.64605010e-01 3.39516312e-01 3.11201632e-01 2.78648585e-01 2.43100092e-01 2.06506565e-01 1.64402664e-01 6.05487265e-02 6.00056462e-02 1.18627295e-01 1.07593261e-01 1.61545590e-01 2.14254797e-01 2.58578211e-01 3.00268888e-01 3.40337455e-01 3.78381759e-01 4.13732618e-01 4.45721716e-01 4.73756671e-01 4.97340828e-01 5.16076684e-01 5.29663563e-01 5.37893176e-01 5.40643096e-01 5.37871122e-01 5.29614329e-01 5.15999556e-01 4.97278869e-01 4.73889530e-01 4.46477979e-01 4.15766865e-01 3.82189572e-01 3.45701218e-01 3.06358755e-01 2.64925569e-01 2.22444072e-01 1.75130740e-01 6.30294085e-02 6.24088570e-02 1.39273152e-01 1.43783838e-01 1.82869688e-01 2.35610932e-01 2.84943014e-01 3.32647383e-01 3.78969759e-01 4.23110813e-01 4.64160800e-01 5.01287520e-01 5.33780813e-01 5.61062694e-01 5.82687676e-01 5.98335445e-01 6.07797265e-01 6.10958040e-01 6.07781291e-01 5.98304272e-01 5.82649231e-01 5.61051011e-01 5.33890128e-01 5.01702547e-01 4.65126723e-01 4.24780607e-01 3.81200969e-01 3.34992826e-01 2.87004828e-01 2.38109499e-01 1.85247019e-01 6.56862333e-02 6.51711449e-02 1.67043477e-01 2.03838974e-01 2.15151712e-01 2.60960817e-01 3.11152905e-01 3.63273531e-01 4.15010154e-01 4.64640737e-01 5.10855556e-01 5.52608371e-01 5.89057982e-01 6.19551063e-01 6.43616498e-01 6.60952568e-01 6.71396196e-01 6.74878299e-01 6.71381891e-01 6.60925925e-01 6.43584967e-01 6.19535327e-01 5.89101970e-01 5.52779078e-01 5.11208475e-01 4.65126485e-01 4.15332556e-01 3.62721443e-01 3.08322161e-01 2.53132463e-01 1.94818720e-01 6.86067119e-02 6.80986494e-02 1.98916569e-01 2.82349765e-01 2.54352301e-01 2.89860338e-01 3.36415440e-01 3.91315758e-01 4.47626144e-01 5.02103627e-01 5.52879155e-01 5.98648429e-01 6.38426244e-01 6.71489239e-01 6.97371840e-01 7.15853572e-01 7.26901948e-01 7.30569899e-01 7.26890743e-01 7.15833068e-01 6.97347164e-01 6.71470761e-01 6.38428807e-01 5.98677933e-01 5.52891195e-01 5.01909375e-01 4.46700871e-01 3.88353825e-01 3.28081131e-01 2.67093927e-01 2.03716487e-01 7.19977841e-02 7.11043999e-02 2.25346982e-01 3.57214600e-01 2.86503524e-01 3.16534162e-01 3.58544230e-01 4.15676177e-01 4.76016134e-01 5.34746051e-01 5.89440167e-01 6.38539732e-01 6.80908382e-01 7.15750813e-01 7.42638350e-01 7.61520326e-01 7.72633851e-01 7.76290119e-01 7.72627532e-01 7.61509299e-01 7.42626071e-01 7.15741754e-01 6.80902541e-01 6.38514102e-01 5.89302003e-01 5.34225762e-01 4.74406272e-01 4.11095023e-01 3.45676780e-01 2.79585451e-01 2.11707070e-01 7.60322660e-02 7.42072240e-02 2.29366273e-01 3.93362969e-01 2.96291441e-01 3.31527889e-01 3.74623537e-01 4.35259998e-01 4.99521226e-01 5.61975956e-01 6.19923949e-01 6.71623409e-01 7.15784907e-01 7.51523137e-01 7.78464794e-01 7.96835899e-01 8.07330251e-01 8.10716331e-01 8.07329297e-01 7.96835482e-01 7.78467953e-01 7.51532316e-01 7.15795398e-01 6.71605051e-01 6.19775891e-01 5.61420262e-01 4.97823119e-01 4.30389583e-01 3.60654026e-01 2.90244341e-01 2.18484566e-01 8.10295418e-02 7.75383934e-02 1.99144810e-01 3.61261517e-01 2.82225400e-01 3.30666363e-01 3.83557647e-01 4.49623436e-01 5.17782271e-01 5.83399951e-01 6.43908203e-01 6.97479904e-01 7.42670059e-01 7.78469980e-01 8.04559588e-01 8.21509302e-01 8.30667019e-01 8.33503306e-01 8.30670536e-01 8.21518064e-01 8.04576933e-01 7.78499186e-01 7.42708445e-01 6.97504222e-01 6.43839478e-01 5.83018899e-01 5.16507089e-01 4.45852935e-01 3.72699618e-01 2.98790127e-01 2.23720446e-01 8.83547217e-02 8.15313533e-02 1.50094673e-01 2.70861179e-01 2.58353949e-01 3.21305513e-01 3.87404889e-01 4.59215850e-01 5.30748487e-01 5.98801672e-01 6.61144257e-01 7.15922654e-01 7.61538506e-01 7.96836913e-01 8.21507514e-01 8.36461067e-01 8.43760133e-01 8.45809579e-01 8.43766749e-01 8.36476207e-01 8.21535289e-01 7.96882629e-01 7.61605024e-01 7.16001391e-01 6.61193669e-01 5.98697782e-01 5.30160546e-01 4.57265019e-01 3.81720603e-01 3.05237293e-01 2.27761239e-01 1.03221610e-01 8.75430629e-02 1.11943215e-01 1.77649856e-01 2.40148932e-01 3.13890636e-01 3.88974100e-01 4.64717448e-01 5.38478315e-01 6.08065248e-01 6.71507359e-01 7.26938605e-01 7.72639334e-01 8.07326019e-01 8.30662191e-01 8.43757451e-01 8.49161625e-01 8.49393070e-01 8.49170029e-01 8.43776286e-01 8.30696344e-01 8.07383299e-01 7.72729456e-01 7.27069914e-01 6.71680093e-01 6.08257830e-01 5.38616121e-01 4.64597702e-01 3.88076603e-01 3.10884893e-01 2.33849481e-01 1.38908803e-01 9.94803607e-02 9.27404985e-02 1.20691016e-01 2.32282087e-01 3.10943782e-01 3.89074802e-01 4.66326207e-01 5.40953875e-01 6.11111403e-01 6.74941003e-01 7.30585814e-01 7.76286125e-01 8.10706973e-01 8.33494723e-01 8.45803499e-01 8.49389613e-01 8.49391699e-01 8.49398851e-01 8.45824242e-01 8.33532691e-01 8.10772538e-01 7.76396036e-01 7.30765522e-01 6.75232172e-01 6.11592531e-01 5.41797876e-01 4.67962712e-01 3.92624557e-01 3.19406152e-01 2.48220354e-01 2.12698951e-01 1.25749335e-01 8.41636583e-02 9.53995436e-02 2.29977235e-01 3.08998764e-01 3.86862397e-01 4.63817239e-01 5.38090944e-01 6.07890606e-01 6.71422124e-01 7.26893365e-01 7.72614181e-01 8.07312429e-01 8.30655575e-01 8.43754888e-01 8.49161267e-01 8.49393666e-01 8.49171042e-01 8.43777239e-01 8.30697179e-01 8.07386279e-01 7.72743464e-01 7.27119505e-01 6.71825647e-01 6.08646512e-01 5.39625585e-01 4.67282206e-01 3.95542622e-01 3.32702398e-01 2.73247987e-01 3.17473441e-01 1.72105074e-01 7.95691833e-02 8.48129317e-02 2.27854759e-01 3.05286378e-01 3.81540328e-01 4.56982940e-01 5.29853284e-01 5.98411500e-01 6.60955429e-01 7.15821624e-01 7.61481285e-01 7.96804905e-01 8.21491003e-01 8.36454034e-01 8.43758583e-01 8.45811069e-01 8.43769610e-01 8.36479247e-01 8.21538210e-01 7.96889305e-01 7.61631370e-01 7.16091514e-01 6.61456048e-01 5.99392951e-01 5.31943977e-01 4.61952418e-01 3.94748837e-01 3.43796283e-01 2.99093038e-01 3.97370785e-01 2.20742032e-01 7.62797073e-02 7.90027678e-02 2.24143445e-01 2.99207836e-01 3.72904539e-01 4.45816875e-01 5.16314924e-01 5.82766831e-01 6.43597960e-01 6.97309852e-01 7.42570937e-01 7.78412402e-01 8.04528356e-01 8.21494997e-01 8.30663443e-01 8.33506107e-01 8.30676734e-01 8.21525156e-01 8.04583907e-01 7.78509974e-01 7.42741823e-01 6.97614551e-01 6.44160271e-01 5.83862364e-01 5.18621922e-01 4.51212645e-01 3.87097746e-01 3.40509772e-01 3.06726426e-01 4.00427163e-01 2.39368573e-01 7.33917207e-02 7.46664330e-02 2.18978107e-01 2.90900141e-01 3.61078888e-01 4.30475682e-01 4.97662812e-01 5.61149716e-01 6.19500697e-01 6.71381056e-01 7.15638280e-01 7.51434863e-01 7.78415024e-01 7.96811998e-01 8.07323694e-01 8.10720921e-01 8.07340324e-01 7.96848893e-01 7.78480709e-01 7.51545966e-01 7.15825617e-01 6.71702981e-01 6.20072007e-01 5.62211275e-01 4.99765247e-01 4.35021251e-01 3.72066885e-01 3.20641160e-01 2.84667522e-01 3.32496583e-01 2.21193999e-01 7.05808848e-02 7.10789859e-02 2.12749913e-01 2.80661911e-01 3.46327871e-01 4.11226183e-01 4.74187076e-01 5.33866584e-01 5.88951588e-01 6.38241589e-01 6.80720091e-01 7.15633810e-01 7.42570400e-01 7.61486709e-01 7.72624314e-01 7.76296914e-01 7.72644579e-01 7.61530697e-01 7.42645860e-01 7.15755701e-01 6.80915356e-01 6.38558686e-01 5.89478850e-01 5.34770012e-01 4.75795299e-01 4.14246172e-01 3.52460384e-01 2.94427097e-01 2.43895218e-01 2.35330269e-01 1.84309825e-01 6.77074790e-02 6.81339577e-02 2.05832392e-01 2.68874854e-01 3.29000592e-01 3.88418019e-01 4.46275204e-01 5.01347482e-01 5.52402198e-01 5.98332942e-01 6.38217807e-01 6.71356201e-01 6.97293043e-01 7.15814054e-01 7.26890981e-01 7.30579436e-01 7.26914108e-01 7.15863228e-01 6.97374761e-01 6.71482682e-01 6.38409972e-01 5.98625481e-01 5.52850246e-01 5.02034009e-01 4.47315603e-01 3.89958680e-01 3.31200689e-01 2.71622241e-01 2.07894802e-01 1.51602983e-01 1.46682143e-01 6.46912232e-02 6.56753480e-02 1.98621094e-01 2.56003797e-01 3.09507281e-01 3.62468690e-01 4.14411575e-01 4.64152992e-01 5.10476410e-01 5.52331448e-01 5.88866770e-01 6.19426489e-01 6.43542111e-01 6.60915792e-01 6.71387970e-01 6.74891949e-01 6.71411872e-01 6.60965741e-01 6.43623173e-01 6.19547784e-01 5.89043260e-01 5.52585125e-01 5.10833383e-01 4.64627922e-01 4.14959937e-01 3.62883925e-01 3.09253216e-01 2.53792524e-01 1.88708246e-01 1.03224955e-01 1.17423549e-01 6.14478774e-02 6.34601265e-02 1.91592664e-01 2.42577344e-01 2.88282424e-01 3.33854407e-01 3.79186809e-01 4.22983408e-01 4.63966578e-01 5.01119435e-01 5.33658087e-01 5.60981750e-01 5.82640648e-01 5.98315775e-01 6.07800245e-01 6.10980570e-01 6.07821345e-01 5.98359466e-01 5.82710266e-01 5.61083555e-01 5.33802271e-01 5.01319885e-01 4.64232773e-01 4.23287690e-01 3.79372805e-01 3.33459079e-01 2.86352009e-01 2.37852961e-01 1.80991799e-01 8.62075239e-02 9.95580107e-02 5.78674860e-02 6.09072074e-02 1.85424849e-01 2.29109123e-01 2.65723139e-01 3.03121120e-01 3.41329247e-01 3.78695786e-01 4.13826734e-01 4.45749909e-01 4.73766625e-01 4.97348130e-01 5.16088367e-01 5.29684365e-01 5.37926495e-01 5.40692031e-01 5.37940741e-01 5.29713035e-01 5.16132176e-01 4.97409314e-01 4.73850757e-01 4.45867151e-01 4.13986266e-01 3.78866196e-01 3.41289222e-01 3.02118719e-01 2.62104601e-01 2.20999196e-01 1.74088717e-01 8.32444951e-02 9.15106460e-02 5.37783988e-02 5.71708679e-02 1.81178778e-01 2.15910405e-01 2.42145345e-01 2.70964146e-01 3.01774740e-01 3.32330525e-01 3.61168176e-01 3.87423098e-01 4.10510272e-01 4.29983795e-01 4.45491284e-01 4.56761599e-01 4.63601798e-01 4.65896219e-01 4.63605642e-01 4.56766963e-01 4.45493609e-01 4.29976821e-01 4.10488546e-01 3.87387633e-01 3.61135006e-01 3.32319200e-01 3.01632136e-01 2.69616604e-01 2.36454621e-01 2.01581091e-01 1.62653640e-01 8.20472240e-02 8.83737430e-02 4.94941510e-02 5.23949452e-02 1.80133849e-01 2.02777714e-01 2.17939734e-01 2.38444492e-01 2.61760205e-01 2.85126656e-01 3.07257503e-01 3.27491522e-01 3.45364928e-01 3.60501081e-01 3.72592270e-01 3.81399035e-01 3.86750549e-01 3.88543934e-01 3.86743128e-01 3.81377935e-01 3.72543603e-01 3.60401154e-01 3.45179349e-01 3.27181458e-01 3.06806386e-01 2.84608841e-01 2.61381298e-01 2.37532556e-01 2.10541040e-01 1.78172961e-01 1.45512775e-01 8.10740963e-02 8.66478905e-02 4.72720563e-02 4.66092862e-02 1.82058379e-01 1.89009950e-01 1.94213867e-01 2.07222909e-01 2.22777516e-01 2.38461256e-01 2.53535628e-01 2.67550290e-01 2.80096978e-01 2.90821344e-01 2.99439788e-01 3.05740207e-01 3.09575945e-01 3.10860187e-01 3.09561253e-01 3.05700123e-01 2.99348652e-01 2.90629297e-01 2.79716402e-01 2.66843051e-01 2.52325892e-01 2.36654267e-01 2.20799476e-01 2.06659064e-01 1.90709710e-01 1.47812635e-01 1.11879446e-01 8.02143216e-02 8.57486203e-02 6.04534075e-02 4.52704579e-02 1.80355564e-01 1.75366074e-01 1.73095793e-01 1.78775162e-01 1.85943887e-01 1.93704754e-01 2.01814964e-01 2.09802359e-01 2.17197359e-01 2.23637268e-01 2.28866175e-01 2.32710436e-01 2.35057756e-01 2.35843644e-01 2.35043824e-01 2.32669637e-01 2.28765011e-01 2.23403543e-01 2.16685399e-01 2.08736330e-01 1.99719205e-01 1.89891696e-01 1.79837555e-01 1.71667740e-01 1.72362521e-01 1.58388153e-01 4.73493151e-02 6.31850511e-02 8.46773386e-02 2.76214909e-02 1.19595014e-01 1.79397270e-01 1.66088253e-01 1.54012471e-01 1.51659220e-01 1.51455596e-01 1.52854338e-01 1.55313611e-01 1.58206820e-01 1.61085606e-01 1.63673937e-01 1.65807426e-01 1.67387590e-01 1.68355763e-01 1.68679476e-01 1.68345526e-01 1.67355865e-01 1.65723577e-01 1.63467109e-01 1.60599694e-01 1.57111362e-01 1.52940094e-01 1.47926107e-01 1.41708717e-01 1.33640155e-01 1.26388714e-01 1.38443127e-01 1.26097694e-01 6.91565573e-02 9.98458862e-02 6.16807602e-02 4.37500998e-02 2.23179936e-01 1.48186907e-01 1.38583899e-01 1.32940978e-01 1.30214095e-01 1.28938109e-01 1.28338173e-01 1.28057152e-01 1.27927899e-01 1.27869800e-01 1.27844185e-01 1.27833068e-01 1.27828375e-01 1.27826586e-01 1.27826169e-01 1.27826110e-01 1.27824828e-01 1.27818272e-01 1.27795905e-01 1.27731696e-01 1.27564415e-01 1.27154037e-01 1.26174107e-01 1.23781145e-01 1.17701128e-01 1.07712969e-01 1.25583172e-01 3.22817713e-01 1.02368690e-01 
