# vtk DataFile Version 2.0
results/iter5.vtk, Created by Freefem++ 
ASCII
DATASET UNSTRUCTURED_GRID
POINTS 961 float
0 0 0
0.033333333 0 0
0.066666667 0 0
0.1 0 0
0.13333333 0 0
0.16666667 0 0
0.2 0 0
0.23333333 0 0
0.26666667 0 0
0.3 0 0
0.33333333 0 0
0.36666667 0 0
0.4 0 0
0.43333333 0 0
0.46666667 0 0
0.5 0 0
0.53333333 0 0
0.56666667 0 0
0.6 0 0
0.63333333 0 0
0.66666667 0 0
0.7 0 0
0.73333333 0 0
0.76666667 0 0
0.8 0 0
0.83333333 0 0
0.86666667 0 0
0.9 0 0
0.93333333 0 0
0.96666667 0 0
1 0 0
0 0.033333333 0
0.033333333 0.033333333 0
0.066666667 0.033333333 0
0.1 0.033333333 0
0.13333333 0.033333333 0
0.16666667 0.033333333 0
0.2 0.033333333 0
0.23333333 0.033333333 0
0.26666667 0.033333333 0
0.3 0.033333333 0
0.33333333 0.033333333 0
0.36666667 0.033333333 0
0.4 0.033333333 0
0.43333333 0.033333333 0
0.46666667 0.033333333 0
0.5 0.033333333 0
0.53333333 0.033333333 0
0.56666667 0.033333333 0
0.6 0.033333333 0
0.63333333 0.033333333 0
0.66666667 0.033333333 0
0.7 0.033333333 0
0.73333333 0.033333333 0
0.76666667 0.033333333 0
0.8 0.033333333 0
0.83333333 0.033333333 0
0.86666667 0.033333333 0
0.9 0.033333333 0
0.93333333 0.033333333 0
0.96666667 0.033333333 0
1 0.033333333 0
0 0.066666667 0
0.033333333 0.066666667 0
0.066666667 0.066666667 0
0.1 0.066666667 0
0.13333333 0.066666667 0
0.16666667 0.066666667 0
0.2 0.066666667 0
0.23333333 0.066666667 0
0.26666667 0.066666667 0
0.3 0.066666667 0
0.33333333 0.066666667 0
0.36666667 0.066666667 0
0.4 0.066666667 0
0.43333333 0.066666667 0
0.46666667 0.066666667 0
0.5 0.066666667 0
0.53333333 0.066666667 0
0.56666667 0.066666667 0
0.6 0.066666667 0
0.63333333 0.066666667 0
0.66666667 0.066666667 0
0.7 0.066666667 0
0.73333333 0.066666667 0
0.76666667 0.066666667 0
0.8 0.066666667 0
0.83333333 0.066666667 0
0.86666667 0.066666667 0
0.9 0.066666667 0
0.93333333 0.066666667 0
0.96666667 0.066666667 0
1 0.066666667 0
0 0.1 0
0.033333333 0.1 0
0.066666667 0.1 0
0.1 0.1 0
0.13333333 0.1 0
0.16666667 0.1 0
0.2 0.1 0
0.23333333 0.1 0
0.26666667 0.1 0
0.3 0.1 0
0.33333333 0.1 0
0.36666667 0.1 0
0.4 0.1 0
0.43333333 0.1 0
0.46666667 0.1 0
0.5 0.1 0
0.53333333 0.1 0
0.56666667 0.1 0
0.6 0.1 0
0.63333333 0.1 0
0.66666667 0.1 0
0.7 0.1 0
0.73333333 0.1 0
0.76666667 0.1 0
0.8 0.1 0
0.83333333 0.1 0
0.86666667 0.1 0
0.9 0.1 0
0.93333333 0.1 0
0.96666667 0.1 0
1 0.1 0
0 0.13333333 0
0.033333333 0.13333333 0
0.066666667 0.13333333 0
0.1 0.13333333 0
0.13333333 0.13333333 0
0.16666667 0.13333333 0
0.2 0.13333333 0
0.23333333 0.13333333 0
0.26666667 0.13333333 0
0.3 0.13333333 0
0.33333333 0.13333333 0
0.36666667 0.13333333 0
0.4 0.13333333 0
0.43333333 0.13333333 0
0.46666667 0.13333333 0
0.5 0.13333333 0
0.53333333 0.13333333 0
0.56666667 0.13333333 0
0.6 0.13333333 0
0.63333333 0.13333333 0
0.66666667 0.13333333 0
0.7 0.13333333 0
0.73333333 0.13333333 0
0.76666667 0.13333333 0
0.8 0.13333333 0
0.83333333 0.13333333 0
0.86666667 0.13333333 0
0.9 0.13333333 0
0.93333333 0.13333333 0
0.96666667 0.13333333 0
1 0.13333333 0
0 0.16666667 0
0.033333333 0.16666667 0
0.066666667 0.16666667 0
0.1 0.16666667 0
0.13333333 0.16666667 0
0.16666667 0.16666667 0
0.2 0.16666667 0
0.23333333 0.16666667 0
0.26666667 0.16666667 0
0.3 0.16666667 0
0.33333333 0.16666667 0
0.36666667 0.16666667 0
0.4 0.16666667 0
0.43333333 0.16666667 0
0.46666667 0.16666667 0
0.5 0.16666667 0
0.53333333 0.16666667 0
0.56666667 0.16666667 0
0.6 0.16666667 0
0.63333333 0.16666667 0
0.66666667 0.16666667 0
0.7 0.16666667 0
0.73333333 0.16666667 0
0.76666667 0.16666667 0
0.8 0.16666667 0
0.83333333 0.16666667 0
0.86666667 0.16666667 0
0.9 0.16666667 0
0.93333333 0.16666667 0
0.96666667 0.16666667 0
1 0.16666667 0
0 0.2 0
0.033333333 0.2 0
0.066666667 0.2 0
0.1 0.2 0
0.13333333 0.2 0
0.16666667 0.2 0
0.2 0.2 0
0.23333333 0.2 0
0.26666667 0.2 0
0.3 0.2 0
0.33333333 0.2 0
0.36666667 0.2 0
0.4 0.2 0
0.43333333 0.2 0
0.46666667 0.2 0
0.5 0.2 0
0.53333333 0.2 0
0.56666667 0.2 0
0.6 0.2 0
0.63333333 0.2 0
0.66666667 0.2 0
0.7 0.2 0
0.73333333 0.2 0
0.76666667 0.2 0
0.8 0.2 0
0.83333333 0.2 0
0.86666667 0.2 0
0.9 0.2 0
0.93333333 0.2 0
0.96666667 0.2 0
1 0.2 0
0 0.23333333 0
0.033333333 0.23333333 0
0.066666667 0.23333333 0
0.1 0.23333333 0
0.13333333 0.23333333 0
0.16666667 0.23333333 0
0.2 0.23333333 0
0.23333333 0.23333333 0
0.26666667 0.23333333 0
0.3 0.23333333 0
0.33333333 0.23333333 0
0.36666667 0.23333333 0
0.4 0.23333333 0
0.43333333 0.23333333 0
0.46666667 0.23333333 0
0.5 0.23333333 0
0.53333333 0.23333333 0
0.56666667 0.23333333 0
0.6 0.23333333 0
0.63333333 0.23333333 0
0.66666667 0.23333333 0
0.7 0.23333333 0
0.73333333 0.23333333 0
0.76666667 0.23333333 0
0.8 0.23333333 0
0.83333333 0.23333333 0
0.86666667 0.23333333 0
0.9 0.23333333 0
0.93333333 0.23333333 0
0.96666667 0.23333333 0
1 0.23333333 0
0 0.26666667 0
0.033333333 0.26666667 0
0.066666667 0.26666667 0
0.1 0.26666667 0
0.13333333 0.26666667 0
0.16666667 0.26666667 0
0.2 0.26666667 0
0.23333333 0.26666667 0
0.26666667 0.26666667 0
0.3 0.26666667 0
0.33333333 0.26666667 0
0.36666667 0.26666667 0
0.4 0.26666667 0
0.43333333 0.26666667 0
0.46666667 0.26666667 0
0.5 0.26666667 0
0.53333333 0.26666667 0
0.56666667 0.26666667 0
0.6 0.26666667 0
0.63333333 0.26666667 0
0.66666667 0.26666667 0
0.7 0.26666667 0
0.73333333 0.26666667 0
0.76666667 0.26666667 0
0.8 0.26666667 0
0.83333333 0.26666667 0
0.86666667 0.26666667 0
0.9 0.26666667 0
0.93333333 0.26666667 0
0.96666667 0.26666667 0
1 0.26666667 0
0 0.3 0
0.033333333 0.3 0
0.066666667 0.3 0
0.1 0.3 0
0.13333333 0.3 0
0.16666667 0.3 0
0.2 0.3 0
0.23333333 0.3 0
0.26666667 0.3 0
0.3 0.3 0
0.33333333 0.3 0
0.36666667 0.3 0
0.4 0.3 0
0.43333333 0.3 0
0.46666667 0.3 0
0.5 0.3 0
0.53333333 0.3 0
0.56666667 0.3 0
0.6 0.3 0
0.63333333 0.3 0
0.66666667 0.3 0
0.7 0.3 0
0.73333333 0.3 0
0.76666667 0.3 0
0.8 0.3 0
0.83333333 0.3 0
0.86666667 0.3 0
0.9 0.3 0
0.93333333 0.3 0
0.96666667 0.3 0
1 0.3 0
0 0.33333333 0
0.033333333 0.33333333 0
0.066666667 0.33333333 0
0.1 0.33333333 0
0.13333333 0.33333333 0
0.16666667 0.33333333 0
0.2 0.33333333 0
0.23333333 0.33333333 0
0.26666667 0.33333333 0
0.3 0.33333333 0
0.33333333 0.33333333 0
0.36666667 0.33333333 0
0.4 0.33333333 0
0.43333333 0.33333333 0
0.46666667 0.33333333 0
0.5 0.33333333 0
0.53333333 0.33333333 0
0.56666667 0.33333333 0
0.6 0.33333333 0
0.63333333 0.33333333 0
0.66666667 0.33333333 0
0.7 0.33333333 0
0.73333333 0.33333333 0
0.76666667 0.33333333 0
0.8 0.33333333 0
0.83333333 0.33333333 0
0.86666667 0.33333333 0
0.9 0.33333333 0
0.93333333 0.33333333 0
0.96666667 0.33333333 0
1 0.33333333 0
0 0.36666667 0
0.033333333 0.36666667 0
0.066666667 0.36666667 0
0.1 0.36666667 0
0.13333333 0.36666667 0
0.16666667 0.36666667 0
0.2 0.36666667 0
0.23333333 0.36666667 0
0.26666667 0.36666667 0
0.3 0.36666667 0
0.33333333 0.36666667 0
0.36666667 0.36666667 0
0.4 0.36666667 0
0.43333333 0.36666667 0
0.46666667 0.36666667 0
0.5 0.36666667 0
0.53333333 0.36666667 0
0.56666667 0.36666667 0
0.6 0.36666667 0
0.63333333 0.36666667 0
0.66666667 0.36666667 0
0.7 0.36666667 0
0.73333333 0.36666667 0
0.76666667 0.36666667 0
0.8 0.36666667 0
0.83333333 0.36666667 0
0.86666667 0.36666667 0
0.9 0.36666667 0
0.93333333 0.36666667 0
0.96666667 0.36666667 0
1 0.36666667 0
0 0.4 0
0.033333333 0.4 0
0.066666667 0.4 0
0.1 0.4 0
0.13333333 0.4 0
0.16666667 0.4 0
0.2 0.4 0
0.23333333 0.4 0
0.26666667 0.4 0
0.3 0.4 0
0.33333333 0.4 0
0.36666667 0.4 0
0.4 0.4 0
0.43333333 0.4 0
0.46666667 0.4 0
0.5 0.4 0
0.53333333 0.4 0
0.56666667 0.4 0
0.6 0.4 0
0.63333333 0.4 0
0.66666667 0.4 0
0.7 0.4 0
0.73333333 0.4 0
0.76666667 0.4 0
0.8 0.4 0
0.83333333 0.4 0
0.86666667 0.4 0
0.9 0.4 0
0.93333333 0.4 0
0.96666667 0.4 0
1 0.4 0
0 0.43333333 0
0.033333333 0.43333333 0
0.066666667 0.43333333 0
0.1 0.43333333 0
0.13333333 0.43333333 0
0.16666667 0.43333333 0
0.2 0.43333333 0
0.23333333 0.43333333 0
0.26666667 0.43333333 0
0.3 0.43333333 0
0.33333333 0.43333333 0
0.36666667 0.43333333 0
0.4 0.43333333 0
0.43333333 0.43333333 0
0.46666667 0.43333333 0
0.5 0.43333333 0
0.53333333 0.43333333 0
0.56666667 0.43333333 0
0.6 0.43333333 0
0.63333333 0.43333333 0
0.66666667 0.43333333 0
0.7 0.43333333 0
0.73333333 0.43333333 0
0.76666667 0.43333333 0
0.8 0.43333333 0
0.83333333 0.43333333 0
0.86666667 0.43333333 0
0.9 0.43333333 0
0.93333333 0.43333333 0
0.96666667 0.43333333 0
1 0.43333333 0
0 0.46666667 0
0.033333333 0.46666667 0
0.066666667 0.46666667 0
0.1 0.46666667 0
0.13333333 0.46666667 0
0.16666667 0.46666667 0
0.2 0.46666667 0
0.23333333 0.46666667 0
0.26666667 0.46666667 0
0.3 0.46666667 0
0.33333333 0.46666667 0
0.36666667 0.46666667 0
0.4 0.46666667 0
0.43333333 0.46666667 0
0.46666667 0.46666667 0
0.5 0.46666667 0
0.53333333 0.46666667 0
0.56666667 0.46666667 0
0.6 0.46666667 0
0.63333333 0.46666667 0
0.66666667 0.46666667 0
0.7 0.46666667 0
0.73333333 0.46666667 0
0.76666667 0.46666667 0
0.8 0.46666667 0
0.83333333 0.46666667 0
0.86666667 0.46666667 0
0.9 0.46666667 0
0.93333333 0.46666667 0
0.96666667 0.46666667 0
1 0.46666667 0
0 0.5 0
0.033333333 0.5 0
0.066666667 0.5 0
0.1 0.5 0
0.13333333 0.5 0
0.16666667 0.5 0
0.2 0.5 0
0.23333333 0.5 0
0.26666667 0.5 0
0.3 0.5 0
0.33333333 0.5 0
0.36666667 0.5 0
0.4 0.5 0
0.43333333 0.5 0
0.46666667 0.5 0
0.5 0.5 0
0.53333333 0.5 0
0.56666667 0.5 0
0.6 0.5 0
0.63333333 0.5 0
0.66666667 0.5 0
0.7 0.5 0
0.73333333 0.5 0
0.76666667 0.5 0
0.8 0.5 0
0.83333333 0.5 0
0.86666667 0.5 0
0.9 0.5 0
0.93333333 0.5 0
0.96666667 0.5 0
1 0.5 0
0 0.53333333 0
0.033333333 0.53333333 0
0.066666667 0.53333333 0
0.1 0.53333333 0
0.13333333 0.53333333 0
0.16666667 0.53333333 0
0.2 0.53333333 0
0.23333333 0.53333333 0
0.26666667 0.53333333 0
0.3 0.53333333 0
0.33333333 0.53333333 0
0.36666667 0.53333333 0
0.4 0.53333333 0
0.43333333 0.53333333 0
0.46666667 0.53333333 0
0.5 0.53333333 0
0.53333333 0.53333333 0
0.56666667 0.53333333 0
0.6 0.53333333 0
0.63333333 0.53333333 0
0.66666667 0.53333333 0
0.7 0.53333333 0
0.73333333 0.53333333 0
0.76666667 0.53333333 0
0.8 0.53333333 0
[...]
CELL_DATA 1920
Scalars  Label int 1
LOOKUP_TABLE FreeFempp_table
0
0
0
0
0
0
0
0
0
0
0
0
0
0
0
0
0
0
0
0
0
0
0
0
0
0
0
0
0
0
0
0
0
0
0
0
0
0
0
0
0
0
0
0
0
0
0
0
0
0
0
0
0
0
0
0
0
0
0
0
0
0
0
0
0
0
0
0
0
0
0
0
0
0
0
0
0
0
0
0
0
0
0
0
0
0
0
0
0
0
0
0
0
0
0
0
0
0
0
0
0
0
0
0
0
0
0
0
0
0
0
0
0
0
0
0
0
0
0
0
0
0
0
0
0
0
0
0
0
0
0
0
0
0
0
0
0
0
0
0
0
0
0
0
0
0
0
0
0
0
0
0
0
0
0
0
0
0
0
0
0
0
0
0
0
0
0
0
0
0
0
0
0
0
0
0
0
0
0
0
0
0
0
0
0
0
0
0
0
0
0
0
0
0
0
0
0
0
0
0
0
0
0
0
0
0
0
0
0
0
0
0
0
0
0
0
0
0
0
0
0
0
0
0
0
0
0
0
0
0
0
0
0
0
0
0
0
0
0
0
0
0
0
0
0
0
0
0
0
0
0
0
0
0
0
0
0
0
0
0
0
0
0
0
0
0
0
0
0
0
0
0
0
0
0
0
0
0
0
0
0
0
0
0
0
0
0
0
0
0
0
0
0
0
0
0
0
0
0
0
0
0
0
0
0
0
0
0
0
0
0
0
0
0
0
0
0
0
0
0
0
0
0
0
0
0
0
0
0
0
0
0
0
0
0
0
0
0
0
0
0
0
0
0
0
0
0
0
0
0
0
0
0
0
0
0
0
0
0
0
0
0
0
0
0
0
0
0
0
0
0
0
0
0
0
0
0
0
0
0
0
0
0
0
0
0
0
0
0
0
0
0
0
0
0
0
0
0
0
0
0
0
0
0
0
0
0
0
0
0
0
0
0
0
0
0
0
0
0
0
0
0
0
0
0
0
0
0
0
0
0
0
0
0
0
0
0
0
0
0
0
0
0
0
0
0
0
0
0
0
0
0
0
0
0
0
0
0
0
0
0
0
0
0
0
0
0
0
0
0
0
0
0
0
0
0
0
0
0
0
0
0
0
0
0
0
0
0
0
0
0
0
0
0
0
0
0
0
0
0
0
0
0
0
0
0
0
0
0
0
0
0
0
0
0
0
0
0
0
0
0
0
0
0
0
0
0
0
0
0
0
0
0
0
0
0
0
0
0
0
0
0
0
0
0
0
0
0
0
0
0
0
0
0
0
0
0
0
0
0
0
0
0
0
0
0
0
0
0
0
0
0
0
0
0
0
0
0
0
0
0
0
0
0
0
0
0
0
0
0
0
0
0
0
0
0
0
0
0
0
0
0
0
0
0
0
0
0
0
0
0
0
0
0
0
0
0
0
0
0
0
0
0
0
0
0
0
0
0
0
0
0
0
0
0
0
0
0
0
0
0
0
0
0
0
0
0
0
0
0
0
0
0
0
0
0
0
0
0
0
0
0
0
0
0
0
0
0
0
0
0
0
0
0
0
0
0
0
0
0
0
0
0
0
0
0
0
0
0
0
0
0
0
0
0
0
0
0
0
0
0
0
0
0
0
0
0
0
0
0
0
0
0
0
0
0
0
0
0
0
0
0
0
0
0
0
0
0
0
0
0
0
0
0
0
0
0
0
0
0
0
0
0
0
0
0
0
0
0
0
0
0
0
0
0
0
0
0
0
0
0
0
0
0
0
0
0
0
0
0
0
0
0
0
0
0
0
0
0
0
0
0
0
0
0
0
0
0
0
0
0
0
0
0
0
0
0
0
0
0
0
0
0
0
0
0
0
0
0
0
0
0
0
0
0
0
0
0
0
0
0
0
0
0
0
0
0
0
0
0
0
0
0
0
0
0
0
0
0
0
0
0
0
0
0
0
0
0
0
0
0
0
0
0
0
0
0
0
0
0
0
0
0
0
0
0
0
0
0
0
0
0
0
0
0
0
0
0
0
0
0
0
0
0
0
0
0
0
0
0
0
0
0
0
0
0
0
0
0
0
0
0
0
0
0
0
0
0
0
0
0
0
0
0
0
0
0
0
0
0
0
0
0
0
0
0
0
0
0
0
0
0
0
0
0
0
0
0
0
0
0
0
0
0
0
0
0
0
0
0
0
0
0
0
0
0
0
0
0
0
0
0
0
0
0
0
0
0
0
0
0
0
0
0
0
0
0
0
0
0
0
0
0
0
0
0
0
0
0
0
0
0
0
0
0
0
0
0
0
0
0
0
0
0
0
0
0
0
0
0
0
0
0
0
0
0
0
0
0
0
0
0
0
0
0
0
0
0
0
0
0
0
0
0
0
0
0
0
0
0
0
0
0
0
0
0
0
0
0
0
0
0
0
0
0
0
0
0
0
0
0
0
0
0
0
0
0
0
0
0
0
0
0
0
0
0
0
0
0
0
0
0
0
0
0
0
0
0
0
0
0
0
0
0
0
0
0
0
0
0
0
0
0
0
0
0
0
0
0
0
0
0
0
0
0
0
0
0
0
0
0
0
0
0
0
0
0
0
0
0
0
0
0
0
0
0
0
0
0
0
0
0
0
0
0
0
0
0
0
0
0
0
0
0
0
0
0
0
0
0
0
0
0
0
0
0
0
0
0
0
0
0
0
0
0
0
0
0
0
0
0
0
0
0
0
0
0
0
0
0
0
0
0
0
0
0
0
0
0
0
0
0
0
0
0
0
0
0
0
0
0
0
0
0
0
0
0
0
0
0
0
0
0
0
0
0
0
0
0
0
0
0
0
0
0
0
0
0
0
0
0
0
0
0
0
0
0
0
0
0
0
0
0
0
0
0
0
0
0
0
0
0
0
0
0
0
0
0
0
0
0
0
0
0
0
0
0
0
0
0
0
0
0
0
0
0
0
0
0
0
0
0
0
0
0
0
0
0
0
0
0
0
0
0
0
0
0
0
0
0
0
0
0
0
0
0
0
0
0
0
0
0
0
0
0
0
0
0
0
0
0
0
0
0
0
0
0
0
0
0
0
0
0
0
0
0
0
0
0
0
0
0
0
0
0
0
0
0
0
0
0
0
0
0
0
0
0
0
0
0
0
0
0
0
0
0
0
0
0
0
0
0
0
0
0
0
0
0
0
0
0
0
0
0
0
0
0
0
0
0
0
0
0
0
0
0
0
0
0
0
0
0
0
0
0
0
0
0
0
0
0
0
0
0
0
0
0
0
0
0
0
0
0
0
0
0
0
0
0
0
0
0
0
0
0
0
0
0
0
0
0
0
0
0
0
0
0
0
0
0
0
0
0
0
0
0
0
0
0
0
0
0
0
0
0
0
0
0
0
0
0
0
0
0
0
0
0
0
0
0
0
0
0
0
0
0
0
0
0
0
0
0
0
0
0
0
0
0
0
0
0
0
0
0
0
0
0
0
0
0
0
0
0
0
0
0
0
0
0
0
0
0
0
0
0
0
0
0
0
0
0
0
0
0
0
0
0
0
0
0
0
0
0
0
0
0
0
0
0
0
0
0
0
0
0
0
0
0
0
0
0
0
0
0
0
0
0
0
0
0
0
0
0
0
0
0
0
0
0
0
0
0
0
0
0
0
0
0
0
0
0
0
0
0
0
0
0
0
0
0
0
0
0
0
0
0
0
0
0
0
0
0
0
0
0
0
0
0
0
0
0
0
0
0
0
0
0
0
0
0
0
0
0
0
0
0
0
0
0
0
0
0
0
0
0
0
0
0
0
0
0
0
0
0
0
0
0
0
0
0
0
0
0
0
0
0
0
0
0
0
0
0
0
0
0
0
0
0
0
0
0
0
0
0
0
0
0
0
0
0
0
0
0
0
0
0
0
0
0
0
0
0
0
0
0
0
0
0
0
0
0
0
0
0
0
0
0
0
0
0
0
0
0
0
0
0
0
0
0
0
0
0
0
0
0
0
0
0
0
0
0
0
0
0
0
0
0
0
0
0
0
0
0
0
0
0
0
0
0
0
0
0
0
0
0
0
0
0
0
0
0
0
0
0
0
0
0
0
0
0
0
0
0
0
0
0
0
0
0
0
1
1
1
1
1
1
1
1
1
1
1
1
1
1
1
1
1
1
1
1
1
1
1
1
1
1
1
1
1
1
2
2
2
2
2
2
2
2
2
2
2
2
2
2
2
2
2
2
2
2
2
2
2
2
2
2
2
2
2
2
3
3
3
3
3
3
3
3
3
3
3
3
3
3
3
3
3
3
3
3
3
3
3
3
3
3
3
3
3
3
4
4
4
4
4
4
4
4
4
4
4
4
4
4
4
4
4
4
4
4
4
4
4
4
4
4
4
4
4
4

LOOKUP_TABLE FreeFempp_table 5
1.00000000 0.00000000 0.00000000 1.00000000
1.00000000 1.00000000 0.00000000 1.00000000
1.00000000 0.00000000 1.00000000 1.00000000
0.00000000 1.00000000 0.00000000 1.00000000
0.00000000 1.00000000 1.00000000 1.00000000

POINT_DATA 961
FIELD FieldData 1
Density 1 961 float
6.18174300e-02 5.04188128e-02 4.34216782e-02 4.03286889e-02 3.99015099e-02 4.09615114e-02 4.27735858e-02 4.49337587e-02 4.72110882e-02 4.94865067e-02 5.17058223e-02 5.38479313e-02 5.59072010e-02 5.78961112e-02 5.98763674e-02 6.17908463e-02 6.31054938e-02 6.26121461e-02 5.95350079e-02 6.17343299e-02 8.78563225e-02 1.35764688e-01 1.83723420e-01 2.08689019e-01 2.03264594e-01 1.79674700e-01 1.53007925e-01 1.25905663e-01 8.11555386e-02 7.25182593e-02 1.08764708e-01 7.06131086e-02 5.12050018e-02 4.57999483e-02 4.05446626e-02 3.85177955e-02 3.85884643e-02 3.96979973e-02 4.13039140e-02 4.31350097e-02 4.50510271e-02 4.69803624e-02 4.88861762e-02 5.07315919e-02 5.24622127e-02 5.40476218e-02 5.53577021e-02 5.50538152e-02 4.83617187e-02 2.72063445e-02 1.18006999e-02 1.37565965e-02 1.15139067e-01 2.42738292e-01 3.20424438e-01 3.16380352e-01 2.60967702e-01 1.98068097e-01 1.46275029e-01 8.44547451e-02 5.50948307e-02 7.51967579e-02 9.00308788e-02 7.94908032e-02 1.01655103e-01 1.27505496e-01 1.46010071e-01 1.60277858e-01 1.72618762e-01 1.83740780e-01 1.93816781e-01 2.02795818e-01 2.10523635e-01 2.16800258e-01 2.21430734e-01 2.24306360e-01 2.25462407e-01 2.24829793e-01 2.21691146e-01 2.14080438e-01 1.97122440e-01 1.69448823e-01 1.54035762e-01 1.74772680e-01 2.18636408e-01 2.48896793e-01 2.42885143e-01 2.15836883e-01 1.86020881e-01 1.58788621e-01 1.17951445e-01 5.49808294e-02 6.37165606e-02 9.27995294e-02 8.39287192e-02 1.24100000e-01 1.55987233e-01 1.78687349e-01 1.98635980e-01 2.17307821e-01 2.34851673e-01 2.51107424e-01 2.65833139e-01 2.78766870e-01 2.89656103e-01 2.98276067e-01 3.04444224e-01 3.08033288e-01 3.08963865e-01 3.07135880e-01 3.02266806e-01 2.93632090e-01 2.80546159e-01 2.65917033e-01 2.58934438e-01 2.65888572e-01 2.74925560e-01 2.66195238e-01 2.38646105e-01 2.05430582e-01 1.74848706e-01 1.38752609e-01 5.64223379e-02 5.86348549e-02 9.67921838e-02 8.45140368e-02 1.36800423e-01 1.76126510e-01 2.05655605e-01 2.32822299e-01 2.58728862e-01 2.83266366e-01 3.06060612e-01 3.26708317e-01 3.44835430e-01 3.60113472e-01 3.72267067e-01 3.81079346e-01 3.86394769e-01 3.88116032e-01 3.86188716e-01 3.80570889e-01 3.71218890e-01 3.58270407e-01 3.42734277e-01 3.27074677e-01 3.13723326e-01 3.00771177e-01 2.81735927e-01 2.54389316e-01 2.22626507e-01 1.90523118e-01 1.52647972e-01 5.83585575e-02 5.84105812e-02 1.04880258e-01 9.03753936e-02 1.47935286e-01 1.95041150e-01 2.32178405e-01 2.66819149e-01 2.99991190e-01 3.31447512e-01 3.60671252e-01 3.87127221e-01 4.10332829e-01 4.29875910e-01 4.45418984e-01 4.56700563e-01 4.63534802e-01 4.65809047e-01 4.63478893e-01 4.56563085e-01 4.45154697e-01 4.29496348e-01 4.10162449e-01 3.88178140e-01 3.64643246e-01 3.39540303e-01 3.11207950e-01 2.78643757e-01 2.43092135e-01 2.06497714e-01 1.64398879e-01 6.06028996e-02 6.00371733e-02 1.18586056e-01 1.07585393e-01 1.61554307e-01 2.14270055e-01 2.58601308e-01 3.00298899e-01 3.40373486e-01 3.78422946e-01 4.13778216e-01 4.45771009e-01 4.73809063e-01 4.97395784e-01 5.16133666e-01 5.29722035e-01 5.37952542e-01 5.40702760e-01 5.37930489e-01 5.29672801e-01 5.16056538e-01 4.97334003e-01 4.73942280e-01 4.46527451e-01 4.15810764e-01 3.82224113e-01 3.45724314e-01 3.06371987e-01 2.64931947e-01 2.22444639e-01 1.75130770e-01 6.30763546e-02 6.24376014e-02 1.39239445e-01 1.43800735e-01 1.82883680e-01 2.35628098e-01 2.84968466e-01 3.32680672e-01 3.79009843e-01 4.23156679e-01 4.64211553e-01 5.01342535e-01 5.33839405e-01 5.61124444e-01 5.82751930e-01 5.98401606e-01 6.07864559e-01 6.11025751e-01 6.07848644e-01 5.98370492e-01 5.82713664e-01 5.61113060e-01 5.33949137e-01 5.01757681e-01 4.65176523e-01 4.24823254e-01 3.81235093e-01 3.35018337e-01 2.87022173e-01 2.38118365e-01 1.85251221e-01 6.57232925e-02 6.51932135e-02 1.67012691e-01 2.03861758e-01 2.15157971e-01 2.60972023e-01 3.11176270e-01 3.63307744e-01 4.15052891e-01 4.64690298e-01 5.10910809e-01 5.52668631e-01 5.89122653e-01 6.19619608e-01 6.43688321e-01 6.61026895e-01 6.71472132e-01 6.74954832e-01 6.71457887e-01 6.61000431e-01 6.43657029e-01 6.19604170e-01 5.89166999e-01 5.52839637e-01 5.11263669e-01 4.65175331e-01 4.15374130e-01 3.62755179e-01 3.08347464e-01 2.53148109e-01 1.94826812e-01 6.86324835e-02 6.81108162e-02 1.98876470e-01 2.82342315e-01 2.54326940e-01 2.89850831e-01 3.36430430e-01 3.91348392e-01 4.47670430e-01 5.02156317e-01 5.52938581e-01 5.98713756e-01 6.38497055e-01 6.71564937e-01 6.97451890e-01 7.15937018e-01 7.26987600e-01 7.30656385e-01 7.26976454e-01 7.15916634e-01 6.97427392e-01 6.71546817e-01 6.38499975e-01 5.98743796e-01 5.52951276e-01 5.01963139e-01 4.46747780e-01 3.88393313e-01 3.28112215e-01 2.67114848e-01 2.03727841e-01 7.20121488e-02 7.11042359e-02 2.25282878e-01 3.57148111e-01 2.86437541e-01 3.16493481e-01 3.58547628e-01 4.15706336e-01 4.76061672e-01 5.34801662e-01 5.89503586e-01 6.38610125e-01 6.80985332e-01 7.15834022e-01 7.42727280e-01 7.61613846e-01 7.72730410e-01 7.76387691e-01 7.72724092e-01 7.61602938e-01 7.42715180e-01 7.15825260e-01 6.80979848e-01 6.38584971e-01 5.89366436e-01 5.34283519e-01 4.74457204e-01 4.11138654e-01 3.45712095e-01 2.79610425e-01 2.11721078e-01 7.60356113e-02 7.41931945e-02 2.29279980e-01 3.93245339e-01 2.96212554e-01 3.31468403e-01 3.74621809e-01 4.35290217e-01 4.99568820e-01 5.62034488e-01 6.19991124e-01 6.71698570e-01 7.15867996e-01 7.51613975e-01 7.78562844e-01 7.96939790e-01 8.07438016e-01 8.10825348e-01 8.07437062e-01 7.96939492e-01 7.78566122e-01 7.51623333e-01 7.15878785e-01 6.71680629e-01 6.19844079e-01 5.61481297e-01 4.97877061e-01 4.30436224e-01 3.60692441e-01 2.90272444e-01 2.18500778e-01 8.10230449e-02 7.75099620e-02 1.99064881e-01 3.61151874e-01 2.82173991e-01 3.30622047e-01 3.83564323e-01 4.49658245e-01 5.17833173e-01 5.83461583e-01 6.43978834e-01 6.97559416e-01 7.42758811e-01 7.78568029e-01 8.04666221e-01 8.21622729e-01 8.30784678e-01 8.33622277e-01 8.30788195e-01 8.21631551e-01 8.04683626e-01 7.78597295e-01 7.42797256e-01 6.97584033e-01 6.43910885e-01 5.83082497e-01 5.16563237e-01 4.45901662e-01 3.72740239e-01 2.98820764e-01 2.23739058e-01 8.83427709e-02 8.14897642e-02 1.50035873e-01 2.70818830e-01 2.58343011e-01 3.21298718e-01 3.87427956e-01 4.59257871e-01 5.30803084e-01 5.98866105e-01 6.61217809e-01 7.16005743e-01 7.61631846e-01 7.96940804e-01 8.21620882e-01 8.36581528e-01 8.43884528e-01 8.45935106e-01 8.43891144e-01 8.36596668e-01 8.21648717e-01 7.96986461e-01 7.61698365e-01 7.16084480e-01 6.61267400e-01 5.98763049e-01 5.30217946e-01 4.57314730e-01 3.81762326e-01 3.05269986e-01 2.27783263e-01 1.03215724e-01 8.74928385e-02 1.11887693e-01 1.77651092e-01 2.40163490e-01 3.13912809e-01 3.89010340e-01 4.64765310e-01 5.38535833e-01 6.08131707e-01 6.71582818e-01 7.27024078e-01 7.72735775e-01 8.07433724e-01 8.30779850e-01 8.43881845e-01 8.49289179e-01 8.49520683e-01 8.49297523e-01 8.43900681e-01 8.30813885e-01 8.07490885e-01 7.72825718e-01 7.27155149e-01 6.71755314e-01 6.08323932e-01 5.38673699e-01 4.64646697e-01 3.88116628e-01 3.10916096e-01 2.33872801e-01 1.38920158e-01 9.94300395e-02 9.26810056e-02 1.20686278e-01 2.32303575e-01 3.10976148e-01 3.89116764e-01 4.66376990e-01 5.41012943e-01 6.11178756e-01 6.75017357e-01 7.30672181e-01 7.76383638e-01 8.10815990e-01 8.33613753e-01 8.45929027e-01 8.49517286e-01 8.49519372e-01 8.49526525e-01 8.45949709e-01 8.33651602e-01 8.10881376e-01 7.76493251e-01 7.30851412e-01 6.75307691e-01 6.11658454e-01 5.41854262e-01 4.68008310e-01 3.92656624e-01 3.19421530e-01 2.48232380e-01 2.12705076e-01 1.25704080e-01 8.41083527e-02 9.53815803e-02 2.29997516e-01 3.09031665e-01 3.86905372e-01 4.63868648e-01 5.38150251e-01 6.07957840e-01 6.71498060e-01 7.26979077e-01 7.72710741e-01 8.07420194e-01 8.30773234e-01 8.43879282e-01 8.49288762e-01 8.49521339e-01 8.49298596e-01 8.43901575e-01 8.30814719e-01 8.07493806e-01 7.72839665e-01 7.27204502e-01 6.71900332e-01 6.08711302e-01 5.39679646e-01 4.67321992e-01 3.95559758e-01 3.32682520e-01 2.73226678e-01 3.17416847e-01 1.72049209e-01 7.95254707e-02 8.47951844e-02 2.27873370e-01 3.05318147e-01 3.81582677e-01 4.57033783e-01 5.29911816e-01 5.98477781e-01 6.61029935e-01 7.15905190e-01 7.61574924e-01 7.96908915e-01 8.21604490e-01 8.36574554e-01 8.43883038e-01 8.45936656e-01 8.43894005e-01 8.36599708e-01 8.21651578e-01 7.96993077e-01 7.61724532e-01 7.16174245e-01 6.61529005e-01 5.99456012e-01 5.31995595e-01 4.61986870e-01 3.94752204e-01 3.43742371e-01 2.99028218e-01 3.97251874e-01 2.20661774e-01 7.62509033e-02 7.89937153e-02 2.24160969e-01 2.99238235e-01 3.72945577e-01 4.45866466e-01 5.16372025e-01 5.82831323e-01 6.43670022e-01 6.97390139e-01 7.42660105e-01 7.78510690e-01 8.04635167e-01 8.21608543e-01 8.30781162e-01 8.33625138e-01 8.30794394e-01 8.21638584e-01 8.04690480e-01 7.78607965e-01 7.42830455e-01 6.97693944e-01 6.44230723e-01 5.83923519e-01 5.18671989e-01 4.51245815e-01 3.87099862e-01 3.40455294e-01 3.06643933e-01 4.00321931e-01 2.39289984e-01 7.33783618e-02 7.46685937e-02 2.18994498e-01 2.90928781e-01 3.61118138e-01 4.30523425e-01 4.97717917e-01 5.61211705e-01 6.19569659e-01 6.71457171e-01 7.15721905e-01 7.51526117e-01 7.78513312e-01 7.96916068e-01 8.07431519e-01 8.10829997e-01 8.07448089e-01 7.96952844e-01 7.78578818e-01 7.51636922e-01 7.15908766e-01 6.71778202e-01 6.20139420e-01 5.62270463e-01 4.99814719e-01 4.35057133e-01 3.72080088e-01 3.20616990e-01 2.84614772e-01 3.32454145e-01 2.21141860e-01 7.05819875e-02 7.10930079e-02 2.12764770e-01 2.80688137e-01 3.46364707e-01 4.11271483e-01 4.74239588e-01 5.33925593e-01 5.89016855e-01 6.38313055e-01 6.80797696e-01 7.15717494e-01 7.42659569e-01 7.61580408e-01 7.72720933e-01 7.76394606e-01 7.72741199e-01 7.61624277e-01 7.42734849e-01 7.15839088e-01 6.80992484e-01 6.38629377e-01 5.89542806e-01 5.34826934e-01 4.75844294e-01 4.14285272e-01 3.52485895e-01 2.94434011e-01 2.43887573e-01 2.35339358e-01 1.84276342e-01 6.77211508e-02 6.81606382e-02 2.05845132e-01 2.68897921e-01 3.29034299e-01 3.88460279e-01 4.46324557e-01 5.01402974e-01 5.52463293e-01 5.98399341e-01 6.38289273e-01 6.71432376e-01 6.97373390e-01 7.15897739e-01 7.26976812e-01 7.30666041e-01 7.26999879e-01 7.15946794e-01 6.97454989e-01 6.71558619e-01 6.38481021e-01 5.98691225e-01 5.52910507e-01 5.02088249e-01 4.47363317e-01 3.89998972e-01 3.31232339e-01 2.71643639e-01 2.07907796e-01 1.51616156e-01 1.46648467e-01 6.47146627e-02 6.57152981e-02 1.98630735e-01 2.56022573e-01 3.09536964e-01 3.62507224e-01 4.14457202e-01 4.64204520e-01 5.10533035e-01 5.52392662e-01 5.88932097e-01 6.19495511e-01 6.43614292e-01 6.60990417e-01 6.71464145e-01 6.74968600e-01 6.71487927e-01 6.61040246e-01 6.43695235e-01 6.19616628e-01 5.89108288e-01 5.52645802e-01 5.10889411e-01 4.64678794e-01 4.15005267e-01 3.62923175e-01 3.09285611e-01 2.53816396e-01 1.88720599e-01 1.03205897e-01 1.17378436e-01 6.14766702e-02 6.35125712e-02 1.91597551e-01 2.42590293e-01 2.88307011e-01 3.33888412e-01 3.79228055e-01 4.23030347e-01 4.64018196e-01 5.01175046e-01 5.33717215e-01 5.61043859e-01 5.82705200e-01 5.98382175e-01 6.07867777e-01 6.11048460e-01 6.07888877e-01 5.98425806e-01 5.82774758e-01 5.61145544e-01 5.33861220e-01 5.01375258e-01 4.64284092e-01 4.23334479e-01 3.79414648e-01 3.33495617e-01 2.86382616e-01 2.37875730e-01 1.81001812e-01 8.61681104e-02 9.95013490e-02 5.78937344e-02 6.09660260e-02 1.85422271e-01 2.29114458e-01 2.65741616e-01 3.03149819e-01 3.41365337e-01 3.78737390e-01 4.13872719e-01 4.45799530e-01 4.73819286e-01 4.97403324e-01 5.16145587e-01 5.29743016e-01 5.37986040e-01 5.40751934e-01 5.38000286e-01 5.29771745e-01 5.16189396e-01 4.97464508e-01 4.73903447e-01 4.45916802e-01 4.14032251e-01 3.78907979e-01 3.41326445e-01 3.02151412e-01 2.62132496e-01 2.21020699e-01 1.74100727e-01 8.32091346e-02 9.14522558e-02 5.37900180e-02 5.72201200e-02 1.81165755e-01 2.15906918e-01 2.42157206e-01 2.70986766e-01 3.01804543e-01 3.32365602e-01 3.61207426e-01 3.87465775e-01 4.10555780e-01 4.30031598e-01 4.45540875e-01 4.56812441e-01 4.63653386e-01 4.65948075e-01 4.63657260e-01 4.56817895e-01 4.45543319e-01 4.30024862e-01 4.10534382e-01 3.87430757e-01 3.61174792e-01 3.32354903e-01 3.01663309e-01 2.69644231e-01 2.36480057e-01 2.01602429e-01 1.62671268e-01 8.20188448e-02 8.83200169e-02 4.94834781e-02 5.24160303e-02 1.80110618e-01 2.02766940e-01 2.17945591e-01 2.38460124e-01 2.61782050e-01 2.85153359e-01 3.07288259e-01 3.27525675e-01 3.45401883e-01 3.60540301e-01 3.72633159e-01 3.81441116e-01 3.86793345e-01 3.88586968e-01 3.86785954e-01 3.81420135e-01 3.72584760e-01 3.60440791e-01 3.45217049e-01 3.27216744e-01 3.06838632e-01 2.84637153e-01 2.61404485e-01 2.37551972e-01 2.10565165e-01 1.78200334e-01 1.45539314e-01 8.10490772e-02 8.65969434e-02 4.72629555e-02 4.66040745e-02 1.82036370e-01 1.88997000e-01 1.94214284e-01 2.07229465e-01 2.22788468e-01 2.38476574e-01 2.53555059e-01 2.67573297e-01 2.80122906e-01 2.90849566e-01 2.99469739e-01 3.05771291e-01 3.09607744e-01 3.10892224e-01 3.09593141e-01 3.05731416e-01 2.99378961e-01 2.90658236e-01 2.79743582e-01 2.66868114e-01 2.52348453e-01 2.36673638e-01 2.20814079e-01 2.06666097e-01 1.90723777e-01 1.47861958e-01 1.11917645e-01 8.02009478e-02 8.56959596e-02 6.08328693e-02 4.54121865e-02 1.80382192e-01 1.75351217e-01 1.73086524e-01 1.78767592e-01 1.85939237e-01 1.93704352e-01 2.01818883e-01 2.09810019e-01 2.17207983e-01 2.23650157e-01 2.28880718e-01 2.32726127e-01 2.35074118e-01 2.35860243e-01 2.35060260e-01 2.32685506e-01 2.28779942e-01 2.23417222e-01 2.16697589e-01 2.08746880e-01 1.99728131e-01 1.89899087e-01 1.79843470e-01 1.71669438e-01 1.72349811e-01 1.58390447e-01 4.72093709e-02 6.31713942e-02 8.46304446e-02 2.75732595e-02 1.20753422e-01 1.79400578e-01 1.66052416e-01 1.53981149e-01 1.51629806e-01 1.51429817e-01 1.52832985e-01 1.55296266e-01 1.58192649e-01 1.61073834e-01 1.63663939e-01 1.65798694e-01 1.67379737e-01 1.68348417e-01 1.68672308e-01 1.68338239e-01 1.67348146e-01 1.65715203e-01 1.63457900e-01 1.60589606e-01 1.57100588e-01 1.52929232e-01 1.47916347e-01 1.41702041e-01 1.33639038e-01 1.26381725e-01 1.38368756e-01 1.26047775e-01 6.91483095e-02 9.99098420e-02 6.16095141e-02 4.37508635e-02 2.23143682e-01 1.48123726e-01 1.38514936e-01 1.32873043e-01 1.30148351e-01 1.28874362e-01 1.28275767e-01 1.27995566e-01 1.27866760e-01 1.27808899e-01 1.27783388e-01 1.27772316e-01 1.27767637e-01 1.27765864e-01 1.27765462e-01 1.27765417e-01 1.27764151e-01 1.27757683e-01 1.27735510e-01 1.27671719e-01 1.27505317e-01 1.27096668e-01 1.26119792e-01 1.23731665e-01 1.17657706e-01 1.07646368e-01 1.25485927e-01 3.22773725e-01 1.02316529e-01 
