# vtk DataFile Version 2.0
results/iter0.vtk, Created by Freefem++ 
ASCII
DATASET UNSTRUCTURED_GRID
POINTS 961 float
0 0 0
0.033333333 0 0
0.066666667 0 0
0.1 0 0
0.13333333 0 0
0.16666667 0 0
0.2 0 0
0.23333333 0 0
0.26666667 0 0
0.3 0 0
0.33333333 0 0
0.36666667 0 0
0.4 0 0
0.43333333 0 0
0.46666667 0 0
0.5 0 0
0.53333333 0 0
0.56666667 0 0
0.6 0 0
0.63333333 0 0
0.66666667 0 0
0.7 0 0
0.73333333 0 0
0.76666667 0 0
0.8 0 0
0.83333333 0 0
0.86666667 0 0
0.9 0 0
0.93333333 0 0
0.96666667 0 0
1 0 0
0 0.033333333 0
0.033333333 0.033333333 0
0.066666667 0.033333333 0
0.1 0.033333333 0
0.13333333 0.033333333 0
0.16666667 0.033333333 0
0.2 0.033333333 0
0.23333333 0.033333333 0
0.26666667 0.033333333 0
0.3 0.033333333 0
0.33333333 0.033333333 0
0.36666667 0.033333333 0
0.4 0.033333333 0
0.43333333 0.033333333 0
0.46666667 0.033333333 0
0.5 0.033333333 0
0.53333333 0.033333333 0
0.56666667 0.033333333 0
0.6 0.033333333 0
0.63333333 0.033333333 0
0.66666667 0.033333333 0
0.7 0.033333333 0
0.73333333 0.033333333 0
0.76666667 0.033333333 0
0.8 0.033333333 0
0.83333333 0.033333333 0
0.86666667 0.033333333 0
0.9 0.033333333 0
0.93333333 0.033333333 0
0.96666667 0.033333333 0
1 0.033333333 0
0 0.066666667 0
0.033333333 0.066666667 0
0.066666667 0.066666667 0
0.1 0.066666667 0
0.13333333 0.066666667 0
0.16666667 0.066666667 0
0.2 0.066666667 0
0.23333333 0.066666667 0
0.26666667 0.066666667 0
0.3 0.066666667 0
0.33333333 0.066666667 0
0.36666667 0.066666667 0
0.4 0.066666667 0
0.43333333 0.066666667 0
0.46666667 0.066666667 0
0.5 0.066666667 0
0.53333333 0.066666667 0
0.56666667 0.066666667 0
0.6 0.066666667 0
0.63333333 0.066666667 0
0.66666667 0.066666667 0
0.7 0.066666667 0
0.73333333 0.066666667 0
0.76666667 0.066666667 0
0.8 0.066666667 0
0.83333333 0.066666667 0
0.86666667 0.066666667 0
0.9 0.066666667 0
0.93333333 0.066666667 0
0.96666667 0.066666667 0
1 0.066666667 0
0 0.1 0
0.033333333 0.1 0
0.066666667 0.1 0
0.1 0.1 0
0.13333333 0.1 0
0.16666667 0.1 0
0.2 0.1 0
0.23333333 0.1 0
0.26666667 0.1 0
0.3 0.1 0
0.33333333 0.1 0
0.36666667 0.1 0
0.4 0.1 0
0.43333333 0.1 0
0.46666667 0.1 0
0.5 0.1 0
0.53333333 0.1 0
0.56666667 0.1 0
0.6 0.1 0
0.63333333 0.1 0
0.66666667 0.1 0
0.7 0.1 0
0.73333333 0.1 0
0.76666667 0.1 0
0.8 0.1 0
0.83333333 0.1 0
0.86666667 0.1 0
0.9 0.1 0
0.93333333 0.1 0
0.96666667 0.1 0
1 0.1 0
0 0.13333333 0
0.033333333 0.13333333 0
0.066666667 0.13333333 0
0.1 0.13333333 0
0.13333333 0.13333333 0
0.16666667 0.13333333 0
0.2 0.13333333 0
0.23333333 0.13333333 0
0.26666667 0.13333333 0
0.3 0.13333333 0
0.33333333 0.13333333 0
0.36666667 0.13333333 0
0.4 0.13333333 0
0.43333333 0.13333333 0
0.46666667 0.13333333 0
0.5 0.13333333 0
0.53333333 0.13333333 0
0.56666667 0.13333333 0
0.6 0.13333333 0
0.63333333 0.13333333 0
0.66666667 0.13333333 0
0.7 0.13333333 0
0.73333333 0.13333333 0
0.76666667 0.13333333 0
0.8 0.13333333 0
0.83333333 0.13333333 0
0.86666667 0.13333333 0
0.9 0.13333333 0
0.93333333 0.13333333 0
0.96666667 0.13333333 0
1 0.13333333 0
0 0.16666667 0
0.033333333 0.16666667 0
0.066666667 0.16666667 0
0.1 0.16666667 0
0.13333333 0.16666667 0
0.16666667 0.16666667 0
0.2 0.16666667 0
0.23333333 0.16666667 0
0.26666667 0.16666667 0
0.3 0.16666667 0
0.33333333 0.16666667 0
0.36666667 0.16666667 0
0.4 0.16666667 0
0.43333333 0.16666667 0
0.46666667 0.16666667 0
0.5 0.16666667 0
0.53333333 0.16666667 0
0.56666667 0.16666667 0
0.6 0.16666667 0
0.63333333 0.16666667 0
0.66666667 0.16666667 0
0.7 0.16666667 0
0.73333333 0.16666667 0
0.76666667 0.16666667 0
0.8 0.16666667 0
0.83333333 0.16666667 0
0.86666667 0.16666667 0
0.9 0.16666667 0
0.93333333 0.16666667 0
0.96666667 0.16666667 0
1 0.16666667 0
0 0.2 0
0.033333333 0.2 0
0.066666667 0.2 0
0.1 0.2 0
0.13333333 0.2 0
0.16666667 0.2 0
0.2 0.2 0
0.23333333 0.2 0
0.26666667 0.2 0
0.3 0.2 0
0.33333333 0.2 0
0.36666667 0.2 0
0.4 0.2 0
0.43333333 0.2 0
0.46666667 0.2 0
0.5 0.2 0
0.53333333 0.2 0
0.56666667 0.2 0
0.6 0.2 0
0.63333333 0.2 0
0.66666667 0.2 0
0.7 0.2 0
0.73333333 0.2 0
0.76666667 0.2 0
0.8 0.2 0
0.83333333 0.2 0
0.86666667 0.2 0
0.9 0.2 0
0.93333333 0.2 0
0.96666667 0.2 0
1 0.2 0
0 0.23333333 0
0.033333333 0.23333333 0
0.066666667 0.23333333 0
0.1 0.23333333 0
0.13333333 0.23333333 0
0.16666667 0.23333333 0
0.2 0.23333333 0
0.23333333 0.23333333 0
0.26666667 0.23333333 0
0.3 0.23333333 0
0.33333333 0.23333333 0
0.36666667 0.23333333 0
0.4 0.23333333 0
0.43333333 0.23333333 0
0.46666667 0.23333333 0
0.5 0.23333333 0
0.53333333 0.23333333 0
0.56666667 0.23333333 0
0.6 0.23333333 0
0.63333333 0.23333333 0
0.66666667 0.23333333 0
0.7 0.23333333 0
0.73333333 0.23333333 0
0.76666667 0.23333333 0
0.8 0.23333333 0
0.83333333 0.23333333 0
0.86666667 0.23333333 0
0.9 0.23333333 0
0.93333333 0.23333333 0
0.96666667 0.23333333 0
1 0.23333333 0
0 0.26666667 0
0.033333333 0.26666667 0
0.066666667 0.26666667 0
0.1 0.26666667 0
0.13333333 0.26666667 0
0.16666667 0.26666667 0
0.2 0.26666667 0
0.23333333 0.26666667 0
0.26666667 0.26666667 0
0.3 0.26666667 0
0.33333333 0.26666667 0
0.36666667 0.26666667 0
0.4 0.26666667 0
0.43333333 0.26666667 0
0.46666667 0.26666667 0
0.5 0.26666667 0
0.53333333 0.26666667 0
0.56666667 0.26666667 0
0.6 0.26666667 0
0.63333333 0.26666667 0
0.66666667 0.26666667 0
0.7 0.26666667 0
0.73333333 0.26666667 0
0.76666667 0.26666667 0
0.8 0.26666667 0
0.83333333 0.26666667 0
0.86666667 0.26666667 0
0.9 0.26666667 0
0.93333333 0.26666667 0
0.96666667 0.26666667 0
1 0.26666667 0
0 0.3 0
0.033333333 0.3 0
0.066666667 0.3 0
0.1 0.3 0
0.13333333 0.3 0
0.16666667 0.3 0
0.2 0.3 0
0.23333333 0.3 0
0.26666667 0.3 0
0.3 0.3 0
0.33333333 0.3 0
0.36666667 0.3 0
0.4 0.3 0
0.43333333 0.3 0
0.46666667 0.3 0
0.5 0.3 0
0.53333333 0.3 0
0.56666667 0.3 0
0.6 0.3 0
0.63333333 0.3 0
0.66666667 0.3 0
0.7 0.3 0
0.73333333 0.3 0
0.76666667 0.3 0
0.8 0.3 0
0.83333333 0.3 0
0.86666667 0.3 0
0.9 0.3 0
0.93333333 0.3 0
0.96666667 0.3 0
1 0.3 0
0 0.33333333 0
0.033333333 0.33333333 0
0.066666667 0.33333333 0
0.1 0.33333333 0
0.13333333 0.33333333 0
0.16666667 0.33333333 0
0.2 0.33333333 0
0.23333333 0.33333333 0
0.26666667 0.33333333 0
0.3 0.33333333 0
0.33333333 0.33333333 0
0.36666667 0.33333333 0
0.4 0.33333333 0
0.43333333 0.33333333 0
0.46666667 0.33333333 0
0.5 0.33333333 0
0.53333333 0.33333333 0
0.56666667 0.33333333 0
0.6 0.33333333 0
0.63333333 0.33333333 0
0.66666667 0.33333333 0
0.7 0.33333333 0
0.73333333 0.33333333 0
0.76666667 0.33333333 0
0.8 0.33333333 0
0.83333333 0.33333333 0
0.86666667 0.33333333 0
0.9 0.33333333 0
0.93333333 0.33333333 0
0.96666667 0.33333333 0
1 0.33333333 0
0 0.36666667 0
0.033333333 0.36666667 0
0.066666667 0.36666667 0
0.1 0.36666667 0
0.13333333 0.36666667 0
0.16666667 0.36666667 0
0.2 0.36666667 0
0.23333333 0.36666667 0
0.26666667 0.36666667 0
0.3 0.36666667 0
0.33333333 0.36666667 0
0.36666667 0.36666667 0
0.4 0.36666667 0
0.43333333 0.36666667 0
0.46666667 0.36666667 0
0.5 0.36666667 0
0.53333333 0.36666667 0
0.56666667 0.36666667 0
0.6 0.36666667 0
0.63333333 0.36666667 0
0.66666667 0.36666667 0
0.7 0.36666667 0
0.73333333 0.36666667 0
0.76666667 0.36666667 0
0.8 0.36666667 0
0.83333333 0.36666667 0
0.86666667 0.36666667 0
0.9 0.36666667 0
0.93333333 0.36666667 0
0.96666667 0.36666667 0
1 0.36666667 0
0 0.4 0
0.033333333 0.4 0
0.066666667 0.4 0
0.1 0.4 0
0.13333333 0.4 0
0.16666667 0.4 0
0.2 0.4 0
0.23333333 0.4 0
0.26666667 0.4 0
0.3 0.4 0
0.33333333 0.4 0
0.36666667 0.4 0
0.4 0.4 0
0.43333333 0.4 0
0.46666667 0.4 0
0.5 0.4 0
0.53333333 0.4 0
0.56666667 0.4 0
0.6 0.4 0
0.63333333 0.4 0
0.66666667 0.4 0
0.7 0.4 0
0.73333333 0.4 0
0.76666667 0.4 0
0.8 0.4 0
0.83333333 0.4 0
0.86666667 0.4 0
0.9 0.4 0
0.93333333 0.4 0
0.96666667 0.4 0
1 0.4 0
0 0.43333333 0
0.033333333 0.43333333 0
0.066666667 0.43333333 0
0.1 0.43333333 0
0.13333333 0.43333333 0
0.16666667 0.43333333 0
0.2 0.43333333 0
0.23333333 0.43333333 0
0.26666667 0.43333333 0
0.3 0.43333333 0
0.33333333 0.43333333 0
0.36666667 0.43333333 0
0.4 0.43333333 0
0.43333333 0.43333333 0
0.46666667 0.43333333 0
0.5 0.43333333 0
0.53333333 0.43333333 0
0.56666667 0.43333333 0
0.6 0.43333333 0
0.63333333 0.43333333 0
0.66666667 0.43333333 0
0.7 0.43333333 0
0.73333333 0.43333333 0
0.76666667 0.43333333 0
0.8 0.43333333 0
0.83333333 0.43333333 0
0.86666667 0.43333333 0
0.9 0.43333333 0
0.93333333 0.43333333 0
0.96666667 0.43333333 0
1 0.43333333 0
0 0.46666667 0
0.033333333 0.46666667 0
0.066666667 0.46666667 0
0.1 0.46666667 0
0.13333333 0.46666667 0
0.16666667 0.46666667 0
0.2 0.46666667 0
0.23333333 0.46666667 0
0.26666667 0.46666667 0
0.3 0.46666667 0
0.33333333 0.46666667 0
0.36666667 0.46666667 0
0.4 0.46666667 0
0.43333333 0.46666667 0
0.46666667 0.46666667 0
0.5 0.46666667 0
0.53333333 0.46666667 0
0.56666667 0.46666667 0
0.6 0.46666667 0
0.63333333 0.46666667 0
0.66666667 0.46666667 0
0.7 0.46666667 0
0.73333333 0.46666667 0
0.76666667 0.46666667 0
0.8 0.46666667 0
0.83333333 0.46666667 0
0.86666667 0.46666667 0
0.9 0.46666667 0
0.93333333 0.46666667 0
0.96666667 0.46666667 0
1 0.46666667 0
0 0.5 0
0.033333333 0.5 0
0.066666667 0.5 0
0.1 0.5 0
0.13333333 0.5 0
0.16666667 0.5 0
0.2 0.5 0
0.23333333 0.5 0
0.26666667 0.5 0
0.3 0.5 0
0.33333333 0.5 0
0.36666667 0.5 0
0.4 0.5 0
0.43333333 0.5 0
0.46666667 0.5 0
0.5 0.5 0
0.53333333 0.5 0
0.56666667 0.5 0
0.6 0.5 0
0.63333333 0.5 0
0.66666667 0.5 0
0.7 0.5 0
0.73333333 0.5 0
0.76666667 0.5 0
0.8 0.5 0
0.83333333 0.5 0
0.86666667 0.5 0
0.9 0.5 0
0.93333333 0.5 0
0.96666667 0.5 0
1 0.5 0
0 0.53333333 0
0.033333333 0.53333333 0
0.066666667 0.53333333 0
0.1 0.53333333 0
0.13333333 0.53333333 0
0.16666667 0.53333333 0
0.2 0.53333333 0
0.23333333 0.53333333 0
0.26666667 0.53333333 0
0.3 0.53333333 0
0.33333333 0.53333333 0
0.36666667 0.53333333 0
0.4 0.53333333 0
0.43333333 0.53333333 0
0.46666667 0.53333333 0
0.5 0.53333333 0
0.53333333 0.53333333 0
0.56666667 0.53333333 0
0.6 0.53333333 0
0.63333333 0.53333333 0
0.66666667 0.53333333 0
0.7 0.53333333 0
0.73333333 0.53333333 0
0.76666667 0.53333333 0
0.8 0.53333333 0
[...]
CELL_DATA 1920
Scalars  Label int 1
LOOKUP_TABLE FreeFempp_table
0
0
0
0
0
0
0
0
0
0
0
0
0
0
0
0
0
0
0
0
0
0
0
0
0
0
0
0
0
0
0
0
0
0
0
0
0
0
0
0
0
0
0
0
0
0
0
0
0
0
0
0
0
0
0
0
0
0
0
0
0
0
0
0
0
0
0
0
0
0
0
0
0
0
0
0
0
0
0
0
0
0
0
0
0
0
0
0
0
0
0
0
0
0
0
0
0
0
0
0
0
0
0
0
0
0
0
0
0
0
0
0
0
0
0
0
0
0
0
0
0
0
0
0
0
0
0
0
0
0
0
0
0
0
0
0
0
0
0
0
0
0
0
0
0
0
0
0
0
0
0
0
0
0
0
0
0
0
0
0
0
0
0
0
0
0
0
0
0
0
0
0
0
0
0
0
0
0
0
0
0
0
0
0
0
0
0
0
0
0
0
0
0
0
0
0
0
0
0
0
0
0
0
0
0
0
0
0
0
0
0
0
0
0
0
0
0
0
0
0
0
0
0
0
0
0
0
0
0
0
0
0
0
0
0
0
0
0
0
0
0
0
0
0
0
0
0
0
0
0
0
0
0
0
0
0
0
0
0
0
0
0
0
0
0
0
0
0
0
0
0
0
0
0
0
0
0
0
0
0
0
0
0
0
0
0
0
0
0
0
0
0
0
0
0
0
0
0
0
0
0
0
0
0
0
0
0
0
0
0
0
0
0
0
0
0
0
0
0
0
0
0
0
0
0
0
0
0
0
0
0
0
0
0
0
0
0
0
0
0
0
0
0
0
0
0
0
0
0
0
0
0
0
0
0
0
0
0
0
0
0
0
0
0
0
0
0
0
0
0
0
0
0
0
0
0
0
0
0
0
0
0
0
0
0
0
0
0
0
0
0
0
0
0
0
0
0
0
0
0
0
0
0
0
0
0
0
0
0
0
0
0
0
0
0
0
0
0
0
0
0
0
0
0
0
0
0
0
0
0
0
0
0
0
0
0
0
0
0
0
0
0
0
0
0
0
0
0
0
0
0
0
0
0
0
0
0
0
0
0
0
0
0
0
0
0
0
0
0
0
0
0
0
0
0
0
0
0
0
0
0
0
0
0
0
0
0
0
0
0
0
0
0
0
0
0
0
0
0
0
0
0
0
0
0
0
0
0
0
0
0
0
0
0
0
0
0
0
0
0
0
0
0
0
0
0
0
0
0
0
0
0
0
0
0
0
0
0
0
0
0
0
0
0
0
0
0
0
0
0
0
0
0
0
0
0
0
0
0
0
0
0
0
0
0
0
0
0
0
0
0
0
0
0
0
0
0
0
0
0
0
0
0
0
0
0
0
0
0
0
0
0
0
0
0
0
0
0
0
0
0
0
0
0
0
0
0
0
0
0
0
0
0
0
0
0
0
0
0
0
0
0
0
0
0
0
0
0
0
0
0
0
0
0
0
0
0
0
0
0
0
0
0
0
0
0
0
0
0
0
0
0
0
0
0
0
0
0
0
0
0
0
0
0
0
0
0
0
0
0
0
0
0
0
0
0
0
0
0
0
0
0
0
0
0
0
0
0
0
0
0
0
0
0
0
0
0
0
0
0
0
0
0
0
0
0
0
0
0
0
0
0
0
0
0
0
0
0
0
0
0
0
0
0
0
0
0
0
0
0
0
0
0
0
0
0
0
0
0
0
0
0
0
0
0
0
0
0
0
0
0
0
0
0
0
0
0
0
0
0
0
0
0
0
0
0
0
0
0
0
0
0
0
0
0
0
0
0
0
0
0
0
0
0
0
0
0
0
0
0
0
0
0
0
0
0
0
0
0
0
0
0
0
0
0
0
0
0
0
0
0
0
0
0
0
0
0
0
0
0
0
0
0
0
0
0
0
0
0
0
0
0
0
0
0
0
0
0
0
0
0
0
0
0
0
0
0
0
0
0
0
0
0
0
0
0
0
0
0
0
0
0
0
0
0
0
0
0
0
0
0
0
0
0
0
0
0
0
0
0
0
0
0
0
0
0
0
0
0
0
0
0
0
0
0
0
0
0
0
0
0
0
0
0
0
0
0
0
0
0
0
0
0
0
0
0
0
0
0
0
0
0
0
0
0
0
0
0
0
0
0
0
0
0
0
0
0
0
0
0
0
0
0
0
0
0
0
0
0
0
0
0
0
0
0
0
0
0
0
0
0
0
0
0
0
0
0
0
0
0
0
0
0
0
0
0
0
0
0
0
0
0
0
0
0
0
0
0
0
0
0
0
0
0
0
0
0
0
0
0
0
0
0
0
0
0
0
0
0
0
0
0
0
0
0
0
0
0
0
0
0
0
0
0
0
0
0
0
0
0
0
0
0
0
0
0
0
0
0
0
0
0
0
0
0
0
0
0
0
0
0
0
0
0
0
0
0
0
0
0
0
0
0
0
0
0
0
0
0
0
0
0
0
0
0
0
0
0
0
0
0
0
0
0
0
0
0
0
0
0
0
0
0
0
0
0
0
0
0
0
0
0
0
0
0
0
0
0
0
0
0
0
0
0
0
0
0
0
0
0
0
0
0
0
0
0
0
0
0
0
0
0
0
0
0
0
0
0
0
0
0
0
0
0
0
0
0
0
0
0
0
0
0
0
0
0
0
0
0
0
0
0
0
0
0
0
0
0
0
0
0
0
0
0
0
0
0
0
0
0
0
0
0
0
0
0
0
0
0
0
0
0
0
0
0
0
0
0
0
0
0
0
0
0
0
0
0
0
0
0
0
0
0
0
0
0
0
0
0
0
0
0
0
0
0
0
0
0
0
0
0
0
0
0
0
0
0
0
0
0
0
0
0
0
0
0
0
0
0
0
0
0
0
0
0
0
0
0
0
0
0
0
0
0
0
0
0
0
0
0
0
0
0
0
0
0
0
0
0
0
0
0
0
0
0
0
0
0
0
0
0
0
0
0
0
0
0
0
0
0
0
0
0
0
0
0
0
0
0
0
0
0
0
0
0
0
0
0
0
0
0
0
0
0
0
0
0
0
0
0
0
0
0
0
0
0
0
0
0
0
0
0
0
0
0
0
0
0
0
0
0
0
0
0
0
0
0
0
0
0
0
0
0
0
0
0
0
0
0
0
0
0
0
0
0
0
0
0
0
0
0
0
0
0
0
0
0
0
0
0
0
0
0
0
0
0
0
0
0
0
0
0
0
0
0
0
0
0
0
0
0
0
0
0
0
0
0
0
0
0
0
0
0
0
0
0
0
0
0
0
0
0
0
0
0
0
0
0
0
0
0
0
0
0
0
0
0
0
0
0
0
0
0
0
0
0
0
0
0
0
0
0
0
0
0
0
0
0
0
0
0
0
0
0
0
0
0
0
0
0
0
0
0
0
0
0
0
0
0
0
0
0
0
0
0
0
0
0
0
0
0
0
0
0
0
0
0
0
0
0
0
0
0
0
0
0
0
0
0
0
0
0
0
0
0
0
0
0
0
0
0
0
0
0
0
0
0
0
0
0
0
0
0
0
0
0
0
0
0
0
0
0
0
0
0
0
0
0
0
0
0
0
0
0
0
0
0
0
0
0
0
0
0
0
0
0
0
0
0
0
0
0
0
0
0
0
0
0
0
0
0
0
0
0
0
0
0
0
0
0
0
0
0
0
0
0
0
0
0
0
0
0
0
0
0
0
0
0
0
0
0
0
0
0
0
0
0
0
0
0
0
0
0
0
0
0
0
0
0
0
0
0
0
0
0
0
0
0
0
0
0
0
0
0
0
0
0
0
0
0
0
0
0
0
0
0
0
0
0
0
0
0
0
0
0
0
0
0
0
0
0
0
0
0
0
0
0
0
0
0
0
0
0
0
0
0
0
0
0
0
0
0
0
0
0
0
0
0
0
0
0
0
0
0
0
0
0
0
0
0
0
0
0
0
0
0
0
0
0
0
0
0
0
0
0
0
0
0
0
0
0
0
0
0
0
0
0
0
0
0
0
0
0
0
0
0
0
0
0
0
0
0
0
0
0
0
0
0
0
0
0
0
0
0
0
0
0
0
0
0
0
0
0
0
0
0
0
0
0
0
0
0
0
0
0
0
0
0
0
0
1
1
1
1
1
1
1
1
1
1
1
1
1
1
1
1
1
1
1
1
1
1
1
1
1
1
1
1
1
1
2
2
2
2
2
2
2
2
2
2
2
2
2
2
2
2
2
2
2
2
2
2
2
2
2
2
2
2
2
2
3
3
3
3
3
3
3
3
3
3
3
3
3
3
3
3
3
3
3
3
3
3
3
3
3
3
3
3
3
3
4
4
4
4
4
4
4
4
4
4
4
4
4
4
4
4
4
4
4
4
4
4
4
4
4
4
4
4
4
4

LOOKUP_TABLE FreeFempp_table 5
1.00000000 0.00000000 0.00000000 1.00000000
1.00000000 1.00000000 0.00000000 1.00000000
1.00000000 0.00000000 1.00000000 1.00000000
0.00000000 1.00000000 0.00000000 1.00000000
0.00000000 1.00000000 1.00000000 1.00000000

POINT_DATA 961
FIELD FieldData 1
Density 1 961 float
4.91559803e-02 4.85572889e-02 5.35077415e-02 5.69193512e-02 5.92309348e-02 6.09605946e-02 6.23325929e-02 6.34592995e-02 6.44105449e-02 6.52301311e-02 6.59402013e-02 6.65428489e-02 6.70213848e-02 6.73436522e-02 6.74700215e-02 6.73671961e-02 6.70256689e-02 6.64740428e-02 6.57804161e-02 6.50345236e-02 6.43142685e-02 6.36506900e-02 6.30080476e-02 6.22868873e-02 6.13444410e-02 6.00165017e-02 5.81115037e-02 5.53160906e-02 5.07798940e-02 4.63319905e-02 5.68419509e-02 4.89081517e-02 4.38897163e-02 5.79312406e-02 6.92303851e-02 7.89121315e-02 8.74825716e-02 9.50509608e-02 1.01792529e-01 1.08021952e-01 1.14137538e-01 1.20521650e-01 1.27436042e-01 1.34929523e-01 1.42774165e-01 1.50451913e-01 1.57214120e-01 1.62219569e-01 1.64721981e-01 1.64243519e-01 1.60668120e-01 1.54224977e-01 1.45387217e-01 1.34744212e-01 1.22899741e-01 1.10414729e-01 9.77727696e-02 8.53015408e-02 7.28453994e-02 5.80913462e-02 4.09414396e-02 4.63178121e-02 5.39412834e-02 5.85024431e-02 8.48435760e-02 1.05590776e-01 1.22468591e-01 1.37792647e-01 1.52120978e-01 1.65497616e-01 1.77819431e-01 1.88950911e-01 1.98756561e-01 2.07107529e-01 2.13882282e-01 2.18967229e-01 2.22259670e-01 2.23673657e-01 2.23148674e-01 2.20659435e-01 2.16223478e-01 2.09903240e-01 2.01801091e-01 1.92050055e-01 1.80805370e-01 1.68239713e-01 1.54538527e-01 1.39882162e-01 1.24380268e-01 1.07829422e-01 8.81929621e-02 5.69657050e-02 5.03901690e-02 5.72426021e-02 7.00656474e-02 1.05554722e-01 1.32419229e-01 1.56699449e-01 1.79785371e-01 2.01671973e-01 2.22146124e-01 2.40955517e-01 2.57848471e-01 2.72590488e-01 2.84972847e-01 2.94817597e-01 3.01981241e-01 3.06357145e-01 3.07878017e-01 3.06517541e-01 3.02291572e-01 2.95258582e-01 2.85518914e-01 2.73212582e-01 2.58515865e-01 2.41636679e-01 2.22809568e-01 2.02289969e-01 1.80347666e-01 1.57254785e-01 1.33196488e-01 1.07304469e-01 6.96550310e-02 5.41223884e-02 5.94347641e-02 7.99256340e-02 1.22462139e-01 1.56712830e-01 1.88893571e-01 2.19834775e-01 2.49294862e-01 2.76896358e-01 3.02263945e-01 3.25045198e-01 3.44917595e-01 3.61595154e-01 3.74834776e-01 3.84441584e-01 3.90273184e-01 3.92242730e-01 3.90320659e-01 3.84535342e-01 3.74972343e-01 3.61772656e-01 3.45129400e-01 3.25283557e-01 3.02518934e-01 2.77156502e-01 2.49550328e-01 2.20086023e-01 1.89175755e-01 1.57184258e-01 1.23749882e-01 7.95886070e-02 5.60292043e-02 6.10171147e-02 8.86715725e-02 1.37814045e-01 1.79801568e-01 2.19841614e-01 2.58469969e-01 2.95332819e-01 3.29936594e-01 3.61787617e-01 3.90423447e-01 4.15423125e-01 4.36414897e-01 4.53083485e-01 4.65176761e-01 4.72510934e-01 4.74974334e-01 4.72529650e-01 4.65214401e-01 4.53140289e-01 4.36490715e-01 4.15517062e-01 3.90533596e-01 3.61911118e-01 3.30070645e-01 2.95477360e-01 2.58634806e-01 2.20068544e-01 1.80253685e-01 1.39200106e-01 8.90167654e-02 5.71384057e-02 6.21771477e-02 9.63141173e-02 1.52138710e-01 2.01679468e-01 2.49299899e-01 2.95334220e-01 3.39333266e-01 3.80703986e-01 4.18841809e-01 4.53173071e-01 4.83173758e-01 5.08381665e-01 5.28406382e-01 5.42937040e-01 5.51748097e-01 5.54703236e-01 5.51756859e-01 5.42954862e-01 5.28433979e-01 5.08419514e-01 4.83222306e-01 4.53232557e-01 4.18912470e-01 3.80787224e-01 3.39434296e-01 2.95469552e-01 2.49522224e-01 2.02178463e-01 1.53799430e-01 9.81227830e-02 5.77355996e-02 6.30110204e-02 1.02882296e-01 1.65477663e-01 2.22138897e-01 2.76895463e-01 3.29936028e-01 3.80703270e-01 4.28501904e-01 4.72619593e-01 5.12373745e-01 5.47137976e-01 5.76360345e-01 5.99577188e-01 6.16423070e-01 6.26635969e-01 6.30059123e-01 6.26640499e-01 6.16432488e-01 5.99592030e-01 5.76381207e-01 5.47165811e-01 5.12409449e-01 4.72664863e-01 4.28560048e-01 3.80782276e-01 3.30056846e-01 2.77119339e-01 2.22681791e-01 1.67426020e-01 1.06734380e-01 5.80013059e-02 6.35829791e-02 1.08546890e-01 1.77732915e-01 2.40930885e-01 3.02255929e-01 3.61783743e-01 4.18839216e-01 4.72618133e-01 5.22299767e-01 5.67094624e-01 6.06276155e-01 6.39206469e-01 6.65355861e-01 6.84315562e-01 6.95801377e-01 6.99648619e-01 6.95803940e-01 6.84320927e-01 6.65364444e-01 6.39218867e-01 6.06293261e-01 5.67117631e-01 5.22330821e-01 4.72661257e-01 4.18903619e-01 3.61892402e-01 3.02474171e-01 2.41492689e-01 1.79898188e-01 1.14617452e-01 5.81086390e-02 6.39365613e-02 1.13582410e-01 1.88775748e-01 2.57805675e-01 3.25030357e-01 3.90416116e-01 4.53168303e-01 5.12370586e-01 5.67092955e-01 6.16439283e-01 6.59584045e-01 6.95806384e-01 7.24520087e-01 7.45293796e-01 7.57852137e-01 7.62052834e-01 7.57853746e-01 7.45297074e-01 7.24525332e-01 6.95814133e-01 6.59595072e-01 6.16454720e-01 5.67114890e-01 5.12403190e-01 4.53220814e-01 3.90511274e-01 3.25232834e-01 2.58355230e-01 1.91033304e-01 1.21519290e-01 5.82121238e-02 6.40990436e-02 1.18282795e-01 1.98477417e-01 2.72530109e-01 3.44897032e-01 4.15413082e-01 4.83167201e-01 5.47133267e-01 6.06273055e-01 6.59582555e-01 7.06133485e-01 7.45118320e-01 7.75899529e-01 7.98052788e-01 8.11372995e-01 8.15812469e-01 8.11374009e-01 7.98054874e-01 7.75902927e-01 7.45123327e-01 7.06140757e-01 6.59593046e-01 6.06288612e-01 5.47157824e-01 4.83209044e-01 4.15492892e-01 3.45074564e-01 2.73035169e-01 2.00664908e-01 1.27173886e-01 5.84251210e-02 6.40850291e-02 1.22874811e-01 2.06715658e-01 2.84896582e-01 3.61570716e-01 4.36403573e-01 5.08374453e-01 5.76354861e-01 6.39202356e-01 6.95803702e-01 7.45117068e-01 7.86228299e-01 8.18432927e-01 8.41339231e-01 8.54924858e-01 8.59408081e-01 8.54925513e-01 8.41340542e-01 8.18435073e-01 7.86231577e-01 7.45121837e-01 6.95810795e-01 6.39213383e-01 5.76372921e-01 5.08406579e-01 4.36466902e-01 3.61716062e-01 2.85325855e-01 2.08648056e-01 1.31323993e-01 5.88038005e-02 6.38998225e-02 1.27446488e-01 2.13375479e-01 2.94728458e-01 3.74809176e-01 4.53073233e-01 5.28400242e-01 5.99572241e-01 6.65351570e-01 7.24516690e-01 7.75897324e-01 8.18431854e-01 8.51286471e-01 8.74082327e-01 8.87145102e-01 8.91334176e-01 8.87145519e-01 8.74083102e-01 8.51287782e-01 8.18433881e-01 7.75900364e-01 7.24521458e-01 6.65359259e-01 5.99585176e-01 5.28423667e-01 4.53119814e-01 3.74917209e-01 2.95053422e-01 2.14863643e-01 1.33771405e-01 5.93443476e-02 6.35439977e-02 1.31903142e-01 2.18350172e-01 3.01883698e-01 3.84418875e-01 4.65171069e-01 5.42934716e-01 6.16420448e-01 6.84312165e-01 7.45290339e-01 7.98049867e-01 8.41337323e-01 8.74081492e-01 8.95794153e-01 9.07283902e-01 9.10675228e-01 9.07284021e-01 8.95794392e-01 8.74082088e-01 8.41338396e-01 7.98051715e-01 7.45293438e-01 6.84317470e-01 6.16429389e-01 5.42950571e-01 4.65201378e-01 3.84486437e-01 3.02080929e-01 2.19224438e-01 1.34441689e-01 5.99955432e-02 6.30201548e-02 1.35962620e-01 2.21544802e-01 3.06258112e-01 3.90259445e-01 4.72514957e-01 5.51753402e-01 6.26638114e-01 6.95800185e-01 7.57849097e-01 8.11369598e-01 8.54922235e-01 8.87143672e-01 9.07283425e-01 9.16502893e-01 9.16903973e-01 9.16502893e-01 9.07283366e-01 8.87143731e-01 8.54922593e-01 8.11370492e-01 7.57851005e-01 6.95803702e-01 6.26643956e-01 5.51762819e-01 4.72529948e-01 3.90285164e-01 3.06311905e-01 2.21680790e-01 1.33430779e-01 6.06816001e-02 6.23412095e-02 1.39196932e-01 2.22882658e-01 3.07788134e-01 3.92247349e-01 4.74995643e-01 5.54721355e-01 6.30068958e-01 6.99651003e-01 7.62050569e-01 8.15808594e-01 8.59404683e-01 8.91332150e-01 9.10674572e-01 9.16903973e-01 9.16903257e-01 9.16903853e-01 9.10674274e-01 8.91331673e-01 8.59404266e-01 8.15808654e-01 7.62051523e-01 6.99653208e-01 6.30072474e-01 5.54725230e-01 4.74996388e-01 3.92231643e-01 3.07692707e-01 2.22223088e-01 1.31002039e-01 6.13250919e-02 6.15368225e-02 1.41115621e-01 2.22314015e-01 3.06453735e-01 3.90358090e-01 4.72579002e-01 5.51794529e-01 6.26661479e-01 6.95811033e-01 7.57852376e-01 8.11369359e-01 8.54921043e-01 8.87142837e-01 9.07283306e-01 9.16503191e-01 9.16904390e-01 9.16502953e-01 9.07282710e-01 8.87141943e-01 8.54920030e-01 8.11368644e-01 7.57852495e-01 6.95812166e-01 6.26663029e-01 5.51793694e-01 4.72566843e-01 3.90303254e-01 3.06214452e-01 2.20880002e-01 1.27522931e-01 6.18609302e-02 6.06526546e-02 1.41267598e-01 2.19825745e-01 3.02281231e-01 3.84627938e-01 4.65307027e-01 5.43020427e-01 6.16468072e-01 6.84333622e-01 7.45296419e-01 7.98049033e-01 8.41334760e-01 8.74079823e-01 8.95793915e-01 9.07284737e-01 9.10676241e-01 9.07284260e-01 8.95793021e-01 8.74078453e-01 8.41333091e-01 7.98047543e-01 7.45295644e-01 6.84333742e-01 6.16468012e-01 5.43015718e-01 4.65283632e-01 3.84538382e-01 3.01914632e-01 2.17713520e-01 1.23359583e-01 6.22377880e-02 5.97367138e-02 1.39324903e-01 2.15449408e-01 2.95346379e-01 3.75154346e-01 4.53297019e-01 5.28537214e-01 5.99645376e-01 6.65382922e-01 7.24524736e-01 7.75895417e-01 8.18427980e-01 8.51284206e-01 8.74082565e-01 8.87147069e-01 8.91336441e-01 8.87146473e-01 8.74081373e-01 8.51282418e-01 8.18425715e-01 7.75893152e-01 7.24523067e-01 6.65381968e-01 5.99644005e-01 5.28529644e-01 4.53265041e-01 3.75037253e-01 2.94879198e-01 2.12813914e-01 1.18763126e-01 6.24086633e-02 5.88101670e-02 1.35114536e-01 2.09266856e-01 2.85777777e-01 3.62095594e-01 4.36738968e-01 5.08571148e-01 5.76454639e-01 6.39242530e-01 6.95812881e-01 7.45114088e-01 7.86223531e-01 8.18430841e-01 8.41340661e-01 8.54928732e-01 8.59412432e-01 8.54928195e-01 8.41339469e-01 8.18428993e-01 7.86221087e-01 7.45111287e-01 6.95810318e-01 6.39240682e-01 5.76452494e-01 5.08562624e-01 4.36703026e-01 3.61962110e-01 2.85246253e-01 2.06298128e-01 1.13779522e-01 6.23143949e-02 5.78248911e-02 1.28586784e-01 2.01415643e-01 2.73761630e-01 3.45668674e-01 4.15890962e-01 4.83432502e-01 5.47259986e-01 6.06321037e-01 6.59592867e-01 7.06130505e-01 7.45114207e-01 7.75899112e-01 7.98056662e-01 8.11379731e-01 8.15819860e-01 8.11379492e-01 7.98056006e-01 7.75897861e-01 7.45112300e-01 7.06127882e-01 6.59590065e-01 6.06318772e-01 5.47258258e-01 4.83426273e-01 4.15859044e-01 3.45536590e-01 2.73212373e-01 1.98315233e-01 1.08200386e-01 6.18623309e-02 5.66127785e-02 1.19741164e-01 1.92101374e-01 2.59548575e-01 3.26145619e-01 3.91072452e-01 4.53509599e-01 5.12524128e-01 5.67149401e-01 6.16453230e-01 6.59584284e-01 6.95805907e-01 7.24523485e-01 7.45301485e-01 7.57862568e-01 7.62063861e-01 7.57862866e-01 7.45301902e-01 7.24523783e-01 6.95805788e-01 6.59583330e-01 6.16451681e-01 5.67148268e-01 5.12525022e-01 4.53510970e-01 3.91057640e-01 3.26043218e-01 2.59042740e-01 1.89063057e-01 1.01563588e-01 6.08991720e-02 5.48308752e-02 1.08558044e-01 1.81629941e-01 2.43463144e-01 3.03846121e-01 3.62656057e-01 4.19262528e-01 4.72801208e-01 5.22370160e-01 5.67119181e-01 6.06286049e-01 6.39214337e-01 6.65365756e-01 6.84327960e-01 6.95815384e-01 6.99662805e-01 6.95816517e-01 6.84330106e-01 6.65368736e-01 6.39217734e-01 6.06289446e-01 5.67122340e-01 5.22374034e-01 4.72809255e-01 4.19279605e-01 3.62678021e-01 3.03817868e-01 2.43084803e-01 1.78822339e-01 9.32208523e-02 5.91744669e-02 5.19129634e-02 9.50136930e-02 1.70476258e-01 2.25913227e-01 2.79126316e-01 3.31061035e-01 3.81218612e-01 4.28727329e-01 4.72719908e-01 5.12423396e-01 5.47167718e-01 5.76382160e-01 5.99595666e-01 6.16439879e-01 6.26651645e-01 6.30073667e-01 6.26653671e-01 6.16444051e-01 5.99602163e-01 5.76391101e-01 5.47179103e-01 5.12437046e-01 4.72736716e-01 4.28752154e-01 3.81264448e-01 3.31147105e-01 2.79237658e-01 2.25779578e-01 1.68017700e-01 8.25248212e-02 5.62954694e-02 4.70976867e-02 7.93095529e-02 1.59407720e-01 2.07391068e-01 2.52367377e-01 2.96756685e-01 3.39973032e-01 3.81009072e-01 4.19005007e-01 4.53270733e-01 4.83236313e-01 5.08422971e-01 5.28433979e-01 5.42955637e-01 5.51760852e-01 5.54712117e-01 5.51763654e-01 5.42961717e-01 5.28444171e-01 5.08438587e-01 4.83259082e-01 4.53302443e-01 4.19048101e-01 3.81069809e-01 3.40071499e-01 2.96942919e-01 2.52701521e-01 2.07653463e-01 1.57316744e-01 6.92351460e-02 5.16993590e-02 3.97952236e-02 6.24683723e-02 1.49662316e-01 1.88454285e-01 2.23984897e-01 2.60288298e-01 2.96191633e-01 3.30401659e-01 3.62067699e-01 3.90599251e-01 4.15532589e-01 4.36480284e-01 4.53119397e-01 4.65192825e-01 4.72513318e-01 4.74967182e-01 4.72516507e-01 4.65200007e-01 4.53132331e-01 4.36502010e-01 4.15567964e-01 3.90655339e-01 3.62153947e-01 3.30531031e-01 2.96390146e-01 2.60628879e-01 2.24620894e-01 1.89259842e-01 1.47758514e-01 5.41609414e-02 4.47377041e-02 3.06666512e-02 4.69931401e-02 1.43060282e-01 1.69702113e-01 1.94514930e-01 2.22326696e-01 2.50589401e-01 2.77657866e-01 3.02735031e-01 3.25337946e-01 3.45095605e-01 3.61697346e-01 3.74884695e-01 3.84453088e-01 3.90254438e-01 3.92199188e-01 3.90257657e-01 3.84460509e-01 3.74898642e-01 3.61722440e-01 3.45140487e-01 3.25417995e-01 3.02875727e-01 2.77896494e-01 2.50973612e-01 2.22929031e-01 1.95502996e-01 1.71055183e-01 1.40782684e-01 3.93513516e-02 3.50124016e-02 2.20252667e-02 3.59059051e-02 1.41366482e-01 1.51858374e-01 1.64809003e-01 1.83636993e-01 2.03798860e-01 2.23417908e-01 2.41754144e-01 2.58370280e-01 2.72937417e-01 2.85194367e-01 2.94935137e-01 3.02003264e-01 3.06288421e-01 3.07725042e-01 3.06291521e-01 3.02010417e-01 2.94948816e-01 2.85219818e-01 2.72985578e-01 2.58464009e-01 2.41940290e-01 2.23784029e-01 2.04474747e-01 1.84718415e-01 1.66243359e-01 1.53426617e-01 1.37738466e-01 2.58267839e-02 2.27831975e-02 1.48691610e-02 2.70543154e-02 1.42962083e-01 1.35699749e-01 1.35738507e-01 1.44504324e-01 1.55984357e-01 1.68053553e-01 1.79751396e-01 1.90524504e-01 2.00030535e-01 2.08046228e-01 2.14418843e-01 2.19041914e-01 2.21843958e-01 2.22783476e-01 2.21847087e-01 2.19049141e-01 2.14432538e-01 2.08071575e-01 2.00078785e-01 1.90621108e-01 1.79955870e-01 1.68503582e-01 1.56960130e-01 1.46338344e-01 1.38004631e-01 1.36644393e-01 1.35245144e-01 1.47915324e-02 1.13180624e-02 9.28457454e-03 1.53457010e-02 1.29126519e-01 1.17927350e-01 1.04343683e-01 1.02881163e-01 1.06380232e-01 1.11681946e-01 1.17293052e-01 1.22576520e-01 1.27257437e-01 1.31201550e-01 1.34332001e-01 1.36599720e-01 1.37972936e-01 1.38433605e-01 1.37976095e-01 1.36607215e-01 1.34346917e-01 1.31230697e-01 1.27316073e-01 1.22699551e-01 1.17562220e-01 1.12290792e-01 1.07785732e-01 1.06118314e-01 1.10899031e-01 1.23267420e-01 1.30319327e-01 1.01807145e-02 5.83176129e-03 2.37467587e-02 1.76731087e-02 1.30843759e-01 8.74559134e-02 7.22228587e-02 6.55280128e-02 6.33993968e-02 6.28123060e-02 6.26513660e-02 6.26031980e-02 6.25866428e-02 6.25800416e-02 6.25770316e-02 6.25754744e-02 6.25745580e-02 6.25739247e-02 6.25734255e-02 6.25730082e-02 6.25727698e-02 6.25731274e-02 6.25754669e-02 6.25842959e-02 6.26143962e-02 6.27163574e-02 6.30695671e-02 6.42994121e-02 6.81432188e-02 7.66255185e-02 8.65057781e-02 3.10121942e-02 6.12488529e-03 
