# vtk DataFile Version 2.0
results/1_density.vtk, Created by Freefem++ 
ASCII
DATASET UNSTRUCTURED_GRID
POINTS 961 float
0 0 0
0.033333333 0 0
0.066666667 0 0
0.1 0 0
0.13333333 0 0
0.16666667 0 0
0.2 0 0
0.23333333 0 0
0.26666667 0 0
0.3 0 0
0.33333333 0 0
0.36666667 0 0
0.4 0 0
0.43333333 0 0
0.46666667 0 0
0.5 0 0
0.53333333 0 0
0.56666667 0 0
0.6 0 0
0.63333333 0 0
0.66666667 0 0
0.7 0 0
0.73333333 0 0
0.76666667 0 0
0.8 0 0
0.83333333 0 0
0.86666667 0 0
0.9 0 0
0.93333333 0 0
0.96666667 0 0
1 0 0
0 0.033333333 0
0.033333333 0.033333333 0
0.066666667 0.033333333 0
0.1 0.033333333 0
0.13333333 0.033333333 0
0.16666667 0.033333333 0
0.2 0.033333333 0
0.23333333 0.033333333 0
0.26666667 0.033333333 0
0.3 0.033333333 0
0.33333333 0.033333333 0
0.36666667 0.033333333 0
0.4 0.033333333 0
0.43333333 0.033333333 0
0.46666667 0.033333333 0
0.5 0.033333333 0
0.53333333 0.033333333 0
0.56666667 0.033333333 0
0.6 0.033333333 0
0.63333333 0.033333333 0
0.66666667 0.033333333 0
0.7 0.033333333 0
0.73333333 0.033333333 0
0.76666667 0.033333333 0
0.8 0.033333333 0
0.83333333 0.033333333 0
0.86666667 0.033333333 0
0.9 0.033333333 0
0.93333333 0.033333333 0
0.96666667 0.033333333 0
1 0.033333333 0
0 0.066666667 0
0.033333333 0.066666667 0
0.066666667 0.066666667 0
0.1 0.066666667 0
0.13333333 0.066666667 0
0.16666667 0.066666667 0
0.2 0.066666667 0
0.23333333 0.066666667 0
0.26666667 0.066666667 0
0.3 0.066666667 0
0.33333333 0.066666667 0
0.36666667 0.066666667 0
0.4 0.066666667 0
0.43333333 0.066666667 0
0.46666667 0.066666667 0
0.5 0.066666667 0
0.53333333 0.066666667 0
0.56666667 0.066666667 0
0.6 0.066666667 0
0.63333333 0.066666667 0
0.66666667 0.066666667 0
0.7 0.066666667 0
0.73333333 0.066666667 0
0.76666667 0.066666667 0
0.8 0.066666667 0
0.83333333 0.066666667 0
0.86666667 0.066666667 0
0.9 0.066666667 0
0.93333333 0.066666667 0
0.96666667 0.066666667 0
1 0.066666667 0
0 0.1 0
0.033333333 0.1 0
0.066666667 0.1 0
0.1 0.1 0
0.13333333 0.1 0
0.16666667 0.1 0
0.2 0.1 0
0.23333333 0.1 0
0.26666667 0.1 0
0.3 0.1 0
0.33333333 0.1 0
0.36666667 0.1 0
0.4 0.1 0
0.43333333 0.1 0
0.46666667 0.1 0
0.5 0.1 0
0.53333333 0.1 0
0.56666667 0.1 0
0.6 0.1 0
0.63333333 0.1 0
0.66666667 0.1 0
0.7 0.1 0
0.73333333 0.1 0
0.76666667 0.1 0
0.8 0.1 0
0.83333333 0.1 0
0.86666667 0.1 0
0.9 0.1 0
0.93333333 0.1 0
0.96666667 0.1 0
1 0.1 0
0 0.13333333 0
0.033333333 0.13333333 0
0.066666667 0.13333333 0
0.1 0.13333333 0
0.13333333 0.13333333 0
0.16666667 0.13333333 0
0.2 0.13333333 0
0.23333333 0.13333333 0
0.26666667 0.13333333 0
0.3 0.13333333 0
0.33333333 0.13333333 0
0.36666667 0.13333333 0
0.4 0.13333333 0
0.43333333 0.13333333 0
0.46666667 0.13333333 0
0.5 0.13333333 0
0.53333333 0.13333333 0
0.56666667 0.13333333 0
0.6 0.13333333 0
0.63333333 0.13333333 0
0.66666667 0.13333333 0
0.7 0.13333333 0
0.73333333 0.13333333 0
0.76666667 0.13333333 0
0.8 0.13333333 0
0.83333333 0.13333333 0
0.86666667 0.13333333 0
0.9 0.13333333 0
0.93333333 0.13333333 0
0.96666667 0.13333333 0
1 0.13333333 0
0 0.16666667 0
0.033333333 0.16666667 0
0.066666667 0.16666667 0
0.1 0.16666667 0
0.13333333 0.16666667 0
0.16666667 0.16666667 0
0.2 0.16666667 0
0.23333333 0.16666667 0
0.26666667 0.16666667 0
0.3 0.16666667 0
0.33333333 0.16666667 0
0.36666667 0.16666667 0
0.4 0.16666667 0
0.43333333 0.16666667 0
0.46666667 0.16666667 0
0.5 0.16666667 0
0.53333333 0.16666667 0
0.56666667 0.16666667 0
0.6 0.16666667 0
0.63333333 0.16666667 0
0.66666667 0.16666667 0
0.7 0.16666667 0
0.73333333 0.16666667 0
0.76666667 0.16666667 0
0.8 0.16666667 0
0.83333333 0.16666667 0
0.86666667 0.16666667 0
0.9 0.16666667 0
0.93333333 0.16666667 0
0.96666667 0.16666667 0
1 0.16666667 0
0 0.2 0
0.033333333 0.2 0
0.066666667 0.2 0
0.1 0.2 0
0.13333333 0.2 0
0.16666667 0.2 0
0.2 0.2 0
0.23333333 0.2 0
0.26666667 0.2 0
0.3 0.2 0
0.33333333 0.2 0
0.36666667 0.2 0
0.4 0.2 0
0.43333333 0.2 0
0.46666667 0.2 0
0.5 0.2 0
0.53333333 0.2 0
0.56666667 0.2 0
0.6 0.2 0
0.63333333 0.2 0
0.66666667 0.2 0
0.7 0.2 0
0.73333333 0.2 0
0.76666667 0.2 0
0.8 0.2 0
0.83333333 0.2 0
0.86666667 0.2 0
0.9 0.2 0
0.93333333 0.2 0
0.96666667 0.2 0
1 0.2 0
0 0.23333333 0
0.033333333 0.23333333 0
0.066666667 0.23333333 0
0.1 0.23333333 0
0.13333333 0.23333333 0
0.16666667 0.23333333 0
0.2 0.23333333 0
0.23333333 0.23333333 0
0.26666667 0.23333333 0
0.3 0.23333333 0
0.33333333 0.23333333 0
0.36666667 0.23333333 0
0.4 0.23333333 0
0.43333333 0.23333333 0
0.46666667 0.23333333 0
0.5 0.23333333 0
0.53333333 0.23333333 0
0.56666667 0.23333333 0
0.6 0.23333333 0
0.63333333 0.23333333 0
0.66666667 0.23333333 0
0.7 0.23333333 0
0.73333333 0.23333333 0
0.76666667 0.23333333 0
0.8 0.23333333 0
0.83333333 0.23333333 0
0.86666667 0.23333333 0
0.9 0.23333333 0
0.93333333 0.23333333 0
0.96666667 0.23333333 0
1 0.23333333 0
0 0.26666667 0
0.033333333 0.26666667 0
0.066666667 0.26666667 0
0.1 0.26666667 0
0.13333333 0.26666667 0
0.16666667 0.26666667 0
0.2 0.26666667 0
0.23333333 0.26666667 0
0.26666667 0.26666667 0
0.3 0.26666667 0
0.33333333 0.26666667 0
0.36666667 0.26666667 0
0.4 0.26666667 0
0.43333333 0.26666667 0
0.46666667 0.26666667 0
0.5 0.26666667 0
0.53333333 0.26666667 0
0.56666667 0.26666667 0
0.6 0.26666667 0
0.63333333 0.26666667 0
0.66666667 0.26666667 0
0.7 0.26666667 0
0.73333333 0.26666667 0
0.76666667 0.26666667 0
0.8 0.26666667 0
0.83333333 0.26666667 0
0.86666667 0.26666667 0
0.9 0.26666667 0
0.93333333 0.26666667 0
0.96666667 0.26666667 0
1 0.26666667 0
0 0.3 0
0.033333333 0.3 0
0.066666667 0.3 0
0.1 0.3 0
0.13333333 0.3 0
0.16666667 0.3 0
0.2 0.3 0
0.23333333 0.3 0
0.26666667 0.3 0
0.3 0.3 0
0.33333333 0.3 0
0.36666667 0.3 0
0.4 0.3 0
0.43333333 0.3 0
0.46666667 0.3 0
0.5 0.3 0
0.53333333 0.3 0
0.56666667 0.3 0
0.6 0.3 0
0.63333333 0.3 0
0.66666667 0.3 0
0.7 0.3 0
0.73333333 0.3 0
0.76666667 0.3 0
0.8 0.3 0
0.83333333 0.3 0
0.86666667 0.3 0
0.9 0.3 0
0.93333333 0.3 0
0.96666667 0.3 0
1 0.3 0
0 0.33333333 0
0.033333333 0.33333333 0
0.066666667 0.33333333 0
0.1 0.33333333 0
0.13333333 0.33333333 0
0.16666667 0.33333333 0
0.2 0.33333333 0
0.23333333 0.33333333 0
0.26666667 0.33333333 0
0.3 0.33333333 0
0.33333333 0.33333333 0
0.36666667 0.33333333 0
0.4 0.33333333 0
0.43333333 0.33333333 0
0.46666667 0.33333333 0
0.5 0.33333333 0
0.53333333 0.33333333 0
0.56666667 0.33333333 0
0.6 0.33333333 0
0.63333333 0.33333333 0
0.66666667 0.33333333 0
0.7 0.33333333 0
0.73333333 0.33333333 0
0.76666667 0.33333333 0
0.8 0.33333333 0
0.83333333 0.33333333 0
0.86666667 0.33333333 0
0.9 0.33333333 0
0.93333333 0.33333333 0
0.96666667 0.33333333 0
1 0.33333333 0
0 0.36666667 0
0.033333333 0.36666667 0
0.066666667 0.36666667 0
0.1 0.36666667 0
0.13333333 0.36666667 0
0.16666667 0.36666667 0
0.2 0.36666667 0
0.23333333 0.36666667 0
0.26666667 0.36666667 0
0.3 0.36666667 0
0.33333333 0.36666667 0
0.36666667 0.36666667 0
0.4 0.36666667 0
0.43333333 0.36666667 0
0.46666667 0.36666667 0
0.5 0.36666667 0
0.53333333 0.36666667 0
0.56666667 0.36666667 0
0.6 0.36666667 0
0.63333333 0.36666667 0
0.66666667 0.36666667 0
0.7 0.36666667 0
0.73333333 0.36666667 0
0.76666667 0.36666667 0
0.8 0.36666667 0
0.83333333 0.36666667 0
0.86666667 0.36666667 0
0.9 0.36666667 0
0.93333333 0.36666667 0
0.96666667 0.36666667 0
1 0.36666667 0
0 0.4 0
0.033333333 0.4 0
0.066666667 0.4 0
0.1 0.4 0
0.13333333 0.4 0
0.16666667 0.4 0
0.2 0.4 0
0.23333333 0.4 0
0.26666667 0.4 0
0.3 0.4 0
0.33333333 0.4 0
0.36666667 0.4 0
0.4 0.4 0
0.43333333 0.4 0
0.46666667 0.4 0
0.5 0.4 0
0.53333333 0.4 0
0.56666667 0.4 0
0.6 0.4 0
0.63333333 0.4 0
0.66666667 0.4 0
0.7 0.4 0
0.73333333 0.4 0
0.76666667 0.4 0
0.8 0.4 0
0.83333333 0.4 0
0.86666667 0.4 0
0.9 0.4 0
0.93333333 0.4 0
0.96666667 0.4 0
1 0.4 0
0 0.43333333 0
0.033333333 0.43333333 0
0.066666667 0.43333333 0
0.1 0.43333333 0
0.13333333 0.43333333 0
0.16666667 0.43333333 0
0.2 0.43333333 0
0.23333333 0.43333333 0
0.26666667 0.43333333 0
0.3 0.43333333 0
0.33333333 0.43333333 0
0.36666667 0.43333333 0
0.4 0.43333333 0
0.43333333 0.43333333 0
0.46666667 0.43333333 0
0.5 0.43333333 0
0.53333333 0.43333333 0
0.56666667 0.43333333 0
0.6 0.43333333 0
0.63333333 0.43333333 0
0.66666667 0.43333333 0
0.7 0.43333333 0
0.73333333 0.43333333 0
0.76666667 0.43333333 0
0.8 0.43333333 0
0.83333333 0.43333333 0
0.86666667 0.43333333 0
0.9 0.43333333 0
0.93333333 0.43333333 0
0.96666667 0.43333333 0
1 0.43333333 0
0 0.46666667 0
0.033333333 0.46666667 0
0.066666667 0.46666667 0
0.1 0.46666667 0
0.13333333 0.46666667 0
0.16666667 0.46666667 0
0.2 0.46666667 0
0.23333333 0.46666667 0
0.26666667 0.46666667 0
0.3 0.46666667 0
0.33333333 0.46666667 0
0.36666667 0.46666667 0
0.4 0.46666667 0
0.43333333 0.46666667 0
0.46666667 0.46666667 0
0.5 0.46666667 0
0.53333333 0.46666667 0
0.56666667 0.46666667 0
0.6 0.46666667 0
0.63333333 0.46666667 0
0.66666667 0.46666667 0
0.7 0.46666667 0
0.73333333 0.46666667 0
0.76666667 0.46666667 0
0.8 0.46666667 0
0.83333333 0.46666667 0
0.86666667 0.46666667 0
0.9 0.46666667 0
0.93333333 0.46666667 0
0.96666667 0.46666667 0
1 0.46666667 0
0 0.5 0
0.033333333 0.5 0
0.066666667 0.5 0
0.1 0.5 0
0.13333333 0.5 0
0.16666667 0.5 0
0.2 0.5 0
0.23333333 0.5 0
0.26666667 0.5 0
0.3 0.5 0
0.33333333 0.5 0
0.36666667 0.5 0
0.4 0.5 0
0.43333333 0.5 0
0.46666667 0.5 0
0.5 0.5 0
0.53333333 0.5 0
0.56666667 0.5 0
0.6 0.5 0
0.63333333 0.5 0
0.66666667 0.5 0
0.7 0.5 0
0.73333333 0.5 0
0.76666667 0.5 0
0.8 0.5 0
0.83333333 0.5 0
0.86666667 0.5 0
0.9 0.5 0
0.93333333 0.5 0
0.96666667 0.5 0
1 0.5 0
0 0.53333333 0
0.033333333 0.53333333 0
0.066666667 0.53333333 0
0.1 0.53333333 0
0.13333333 0.53333333 0
0.16666667 0.53333333 0
0.2 0.53333333 0
0.23333333 0.53333333 0
0.26666667 0.53333333 0
0.3 0.53333333 0
0.33333333 0.53333333 0
0.36666667 0.53333333 0
0.4 0.53333333 0
0.43333333 0.53333333 0
0.46666667 0.53333333 0
0.5 0.53333333 0
0.53333333 0.53333333 0
0.56666667 0.53333333 0
0.6 0.53333333 0
0.63333333 0.53333333 0
0.66666667 0.53333333 0
0.7 0.53333333 0
0.73333333 0.53333333 0
0.76666667 0.53333333 0
0.8 0.53333333 0
[...]
CELL_DATA 1920
Scalars  Label int 1
LOOKUP_TABLE FreeFempp_table
0
0
0
0
0
0
0
0
0
0
0
0
0
0
0
0
0
0
0
0
0
0
0
0
0
0
0
0
0
0
0
0
0
0
0
0
0
0
0
0
0
0
0
0
0
0
0
0
0
0
0
0
0
0
0
0
0
0
0
0
0
0
0
0
0
0
0
0
0
0
0
0
0
0
0
0
0
0
0
0
0
0
0
0
0
0
0
0
0
0
0
0
0
0
0
0
0
0
0
0
0
0
0
0
0
0
0
0
0
0
0
0
0
0
0
0
0
0
0
0
0
0
0
0
0
0
0
0
0
0
0
0
0
0
0
0
0
0
0
0
0
0
0
0
0
0
0
0
0
0
0
0
0
0
0
0
0
0
0
0
0
0
0
0
0
0
0
0
0
0
0
0
0
0
0
0
0
0
0
0
0
0
0
0
0
0
0
0
0
0
0
0
0
0
0
0
0
0
0
0
0
0
0
0
0
0
0
0
0
0
0
0
0
0
0
0
0
0
0
0
0
0
0
0
0
0
0
0
0
0
0
0
0
0
0
0
0
0
0
0
0
0
0
0
0
0
0
0
0
0
0
0
0
0
0
0
0
0
0
0
0
0
0
0
0
0
0
0
0
0
0
0
0
0
0
0
0
0
0
0
0
0
0
0
0
0
0
0
0
0
0
0
0
0
0
0
0
0
0
0
0
0
0
0
0
0
0
0
0
0
0
0
0
0
0
0
0
0
0
0
0
0
0
0
0
0
0
0
0
0
0
0
0
0
0
0
0
0
0
0
0
0
0
0
0
0
0
0
0
0
0
0
0
0
0
0
0
0
0
0
0
0
0
0
0
0
0
0
0
0
0
0
0
0
0
0
0
0
0
0
0
0
0
0
0
0
0
0
0
0
0
0
0
0
0
0
0
0
0
0
0
0
0
0
0
0
0
0
0
0
0
0
0
0
0
0
0
0
0
0
0
0
0
0
0
0
0
0
0
0
0
0
0
0
0
0
0
0
0
0
0
0
0
0
0
0
0
0
0
0
0
0
0
0
0
0
0
0
0
0
0
0
0
0
0
0
0
0
0
0
0
0
0
0
0
0
0
0
0
0
0
0
0
0
0
0
0
0
0
0
0
0
0
0
0
0
0
0
0
0
0
0
0
0
0
0
0
0
0
0
0
0
0
0
0
0
0
0
0
0
0
0
0
0
0
0
0
0
0
0
0
0
0
0
0
0
0
0
0
0
0
0
0
0
0
0
0
0
0
0
0
0
0
0
0
0
0
0
0
0
0
0
0
0
0
0
0
0
0
0
0
0
0
0
0
0
0
0
0
0
0
0
0
0
0
0
0
0
0
0
0
0
0
0
0
0
0
0
0
0
0
0
0
0
0
0
0
0
0
0
0
0
0
0
0
0
0
0
0
0
0
0
0
0
0
0
0
0
0
0
0
0
0
0
0
0
0
0
0
0
0
0
0
0
0
0
0
0
0
0
0
0
0
0
0
0
0
0
0
0
0
0
0
0
0
0
0
0
0
0
0
0
0
0
0
0
0
0
0
0
0
0
0
0
0
0
0
0
0
0
0
0
0
0
0
0
0
0
0
0
0
0
0
0
0
0
0
0
0
0
0
0
0
0
0
0
0
0
0
0
0
0
0
0
0
0
0
0
0
0
0
0
0
0
0
0
0
0
0
0
0
0
0
0
0
0
0
0
0
0
0
0
0
0
0
0
0
0
0
0
0
0
0
0
0
0
0
0
0
0
0
0
0
0
0
0
0
0
0
0
0
0
0
0
0
0
0
0
0
0
0
0
0
0
0
0
0
0
0
0
0
0
0
0
0
0
0
0
0
0
0
0
0
0
0
0
0
0
0
0
0
0
0
0
0
0
0
0
0
0
0
0
0
0
0
0
0
0
0
0
0
0
0
0
0
0
0
0
0
0
0
0
0
0
0
0
0
0
0
0
0
0
0
0
0
0
0
0
0
0
0
0
0
0
0
0
0
0
0
0
0
0
0
0
0
0
0
0
0
0
0
0
0
0
0
0
0
0
0
0
0
0
0
0
0
0
0
0
0
0
0
0
0
0
0
0
0
0
0
0
0
0
0
0
0
0
0
0
0
0
0
0
0
0
0
0
0
0
0
0
0
0
0
0
0
0
0
0
0
0
0
0
0
0
0
0
0
0
0
0
0
0
0
0
0
0
0
0
0
0
0
0
0
0
0
0
0
0
0
0
0
0
0
0
0
0
0
0
0
0
0
0
0
0
0
0
0
0
0
0
0
0
0
0
0
0
0
0
0
0
0
0
0
0
0
0
0
0
0
0
0
0
0
0
0
0
0
0
0
0
0
0
0
0
0
0
0
0
0
0
0
0
0
0
0
0
0
0
0
0
0
0
0
0
0
0
0
0
0
0
0
0
0
0
0
0
0
0
0
0
0
0
0
0
0
0
0
0
0
0
0
0
0
0
0
0
0
0
0
0
0
0
0
0
0
0
0
0
0
0
0
0
0
0
0
0
0
0
0
0
0
0
0
0
0
0
0
0
0
0
0
0
0
0
0
0
0
0
0
0
0
0
0
0
0
0
0
0
0
0
0
0
0
0
0
0
0
0
0
0
0
0
0
0
0
0
0
0
0
0
0
0
0
0
0
0
0
0
0
0
0
0
0
0
0
0
0
0
0
0
0
0
0
0
0
0
0
0
0
0
0
0
0
0
0
0
0
0
0
0
0
0
0
0
0
0
0
0
0
0
0
0
0
0
0
0
0
0
0
0
0
0
0
0
0
0
0
0
0
0
0
0
0
0
0
0
0
0
0
0
0
0
0
0
0
0
0
0
0
0
0
0
0
0
0
0
0
0
0
0
0
0
0
0
0
0
0
0
0
0
0
0
0
0
0
0
0
0
0
0
0
0
0
0
0
0
0
0
0
0
0
0
0
0
0
0
0
0
0
0
0
0
0
0
0
0
0
0
0
0
0
0
0
0
0
0
0
0
0
0
0
0
0
0
0
0
0
0
0
0
0
0
0
0
0
0
0
0
0
0
0
0
0
0
0
0
0
0
0
0
0
0
0
0
0
0
0
0
0
0
0
0
0
0
0
0
0
0
0
0
0
0
0
0
0
0
0
0
0
0
0
0
0
0
0
0
0
0
0
0
0
0
0
0
0
0
0
0
0
0
0
0
0
0
0
0
0
0
0
0
0
0
0
0
0
0
0
0
0
0
0
0
0
0
0
0
0
0
0
0
0
0
0
0
0
0
0
0
0
0
0
0
0
0
0
0
0
0
0
0
0
0
0
0
0
0
0
0
0
0
0
0
0
0
0
0
0
0
0
0
0
0
0
0
0
0
0
0
0
0
0
0
0
0
0
0
0
0
0
0
0
0
0
0
0
0
0
0
0
0
0
0
0
0
0
0
0
0
0
0
0
0
0
0
0
0
0
0
0
0
0
0
0
0
0
0
0
0
0
0
0
0
0
0
0
0
0
0
0
0
0
0
0
0
0
0
0
0
0
0
0
0
0
0
0
0
0
0
0
0
0
0
0
0
0
0
0
0
0
0
0
0
0
0
0
0
0
0
0
0
0
0
0
0
0
0
0
0
0
0
0
0
0
0
0
0
0
0
0
0
0
0
0
0
0
0
0
0
0
0
0
0
0
0
0
0
0
0
0
0
0
0
0
0
0
0
0
0
0
0
0
0
0
0
0
0
0
0
0
0
0
0
0
0
0
0
0
0
0
0
0
0
0
0
0
0
0
0
0
0
0
0
0
0
0
0
0
0
0
0
0
0
0
0
0
0
0
0
0
0
0
0
0
0
0
0
0
0
0
0
0
0
0
0
0
0
0
0
0
0
0
0
0
0
0
0
0
0
0
0
0
0
0
0
0
0
0
0
0
0
0
0
0
0
0
0
0
0
0
0
0
0
0
0
0
0
0
0
0
0
0
0
0
0
0
0
0
0
0
0
0
0
0
0
0
0
0
0
0
0
0
0
0
0
0
0
0
0
0
0
0
0
0
0
0
0
0
0
0
0
0
0
0
0
0
0
0
0
0
0
0
0
0
0
0
0
0
0
0
0
1
1
1
1
1
1
1
1
1
1
1
1
1
1
1
1
1
1
1
1
1
1
1
1
1
1
1
1
1
1
2
2
2
2
2
2
2
2
2
2
2
2
2
2
2
2
2
2
2
2
2
2
2
2
2
2
2
2
2
2
3
3
3
3
3
3
3
3
3
3
3
3
3
3
3
3
3
3
3
3
3
3
3
3
3
3
3
3
3
3
4
4
4
4
4
4
4
4
4
4
4
4
4
4
4
4
4
4
4
4
4
4
4
4
4
4
4
4
4
4

LOOKUP_TABLE FreeFempp_table 5
1.00000000 0.00000000 0.00000000 1.00000000
1.00000000 1.00000000 0.00000000 1.00000000
1.00000000 0.00000000 1.00000000 1.00000000
0.00000000 1.00000000 0.00000000 1.00000000
0.00000000 1.00000000 1.00000000 1.00000000

POINT_DATA 961
FIELD FieldData 1
Density 1 961 float
1.90801799e-01 2.17544913e-01 2.51136184e-01 2.61870831e-01 2.54144728e-01 2.36647978e-01 2.09220991e-01 1.67683557e-01 1.19775675e-01 9.64016989e-02 1.23080380e-01 2.12856710e-01 3.10768127e-01 3.57820958e-01 3.81446332e-01 4.08421129e-01 4.63702828e-01 5.78075051e-01 7.07696259e-01 7.51848161e-01 7.13202357e-01 6.75152421e-01 6.96841121e-01 7.12191582e-01 6.97279871e-01 6.88300669e-01 6.71941042e-01 6.44058883e-01 6.40367329e-01 6.26677871e-01 6.00971758e-01 5.98398075e-02 1.34121865e-01 1.80147380e-01 1.90892383e-01 1.84667379e-01 1.71652243e-01 1.52767837e-01 1.25292182e-01 9.14990008e-02 6.90182224e-02 8.56082737e-02 1.67295039e-01 2.79563457e-01 3.27958733e-01 3.48582953e-01 3.74678552e-01 4.28458095e-01 5.61962306e-01 7.22565353e-01 7.47042716e-01 6.60164177e-01 5.65429747e-01 5.48710465e-01 5.77825606e-01 5.78806877e-01 5.81241965e-01 5.99595547e-01 6.17421985e-01 6.38867438e-01 6.31542623e-01 6.11234009e-01 3.15580741e-02 1.87970772e-02 2.61656288e-02 2.63617020e-02 2.60925386e-02 2.46414300e-02 2.24278495e-02 1.91421453e-02 1.50749357e-02 1.32962279e-02 2.50682328e-02 1.04012437e-01 2.42261261e-01 2.87319571e-01 3.22584063e-01 3.84579837e-01 4.17171299e-01 5.10840774e-01 6.20746017e-01 4.95524913e-01 2.64889568e-01 1.72939152e-01 1.35693088e-01 1.25394940e-01 1.23913512e-01 1.39599845e-01 1.96948469e-01 3.48933816e-01 4.90666687e-01 5.46980441e-01 5.58845460e-01 2.80634463e-01 7.54843131e-02 1.98362637e-02 2.33089477e-02 4.06066515e-02 4.37732190e-02 4.41673994e-02 4.46185656e-02 4.56206948e-02 4.33422923e-02 2.54676118e-02 1.47217428e-02 3.48199047e-02 4.63149175e-02 7.53007904e-02 2.63598621e-01 3.42169404e-01 3.97335500e-01 5.03738821e-01 2.12050453e-01 7.41611719e-02 4.53726947e-02 3.27648483e-02 2.60920469e-02 2.10810043e-02 2.10372247e-02 3.03122047e-02 7.79869333e-02 2.53000885e-01 4.27525759e-01 4.88798708e-01 4.36109632e-01 3.11985880e-01 1.22384787e-01 1.30443081e-01 2.77009398e-01 3.24505031e-01 3.30153942e-01 3.33046019e-01 3.36239994e-01 3.22636545e-01 2.27604449e-01 7.16252476e-02 4.98777404e-02 3.29932608e-02 6.72636321e-03 3.02919447e-02 5.31406216e-02 9.30631161e-02 3.36329460e-01 4.72224295e-01 1.43893018e-01 5.08491248e-02 3.52239534e-02 2.81290580e-02 2.33369395e-02 1.87176131e-02 1.41260996e-02 1.61656123e-02 6.22396953e-02 2.68530965e-01 4.22117770e-01 4.19437855e-01 3.34195018e-01 1.57800436e-01 1.34200960e-01 2.91821748e-01 3.86624962e-01 4.05477375e-01 4.11163181e-01 4.15404081e-01 4.14583713e-01 3.92275244e-01 3.45622867e-01 3.35678935e-01 2.93119013e-01 9.13149640e-02 5.33097833e-02 3.22841071e-02 1.06620193e-02 8.16268250e-02 4.63668406e-01 6.32983983e-01 2.54625857e-01 1.08475037e-01 7.68336803e-02 6.84987903e-02 6.08944856e-02 4.30524237e-02 1.78009197e-02 1.26360618e-02 9.78053287e-02 3.28267336e-01 3.98048460e-01 3.20424855e-01 1.91485971e-01 1.43265352e-01 2.45936885e-01 3.63894761e-01 4.06042755e-01 4.20575887e-01 4.28209305e-01 4.32147354e-01 4.30321157e-01 4.26598459e-01 4.33237135e-01 4.34459150e-01 3.82851988e-01 3.51659089e-01 2.88364500e-01 8.52568522e-02 4.08246405e-02 7.17856660e-02 2.71006346e-01 6.54546738e-01 4.12169784e-01 2.29163036e-01 1.91853940e-01 1.74997583e-01 1.46524057e-01 6.44534826e-02 1.15755349e-02 5.98730221e-02 2.89317250e-01 4.29246187e-01 3.60261858e-01 2.79890090e-01 2.25899428e-01 2.81111240e-01 3.81249666e-01 4.31380540e-01 4.51133877e-01 4.61180627e-01 4.66538876e-01 4.67844903e-01 4.66230065e-01 4.65155870e-01 4.63925540e-01 4.58981127e-01 4.59147602e-01 4.52712923e-01 3.90634000e-01 2.90699750e-01 7.33345002e-02 3.18833590e-02 1.69463962e-01 6.72152936e-01 6.00073040e-01 3.95199358e-01 3.12598288e-01 2.43944183e-01 1.30703375e-01 1.99976489e-02 5.72636053e-02 2.97392845e-01 5.36941767e-01 4.95336115e-01 4.49150175e-01 4.18087959e-01 4.29506272e-01 4.73157912e-01 4.99222994e-01 5.09379148e-01 5.13834596e-01 5.14891863e-01 5.13150990e-01 5.09311616e-01 5.04707217e-01 4.99879777e-01 4.94462073e-01 4.89455044e-01 4.84407187e-01 4.76716757e-01 4.61338043e-01 3.49156022e-01 7.49232247e-02 2.21399646e-02 1.53060079e-01 6.82987809e-01 7.12163150e-01 5.49736023e-01 3.84402961e-01 2.01146647e-01 2.96478644e-02 5.72879687e-02 2.97103047e-01 6.58514261e-01 6.65745437e-01 6.43850684e-01 6.22886598e-01 6.08501792e-01 6.01441622e-01 5.94165981e-01 5.86078465e-01 5.78561842e-01 5.71068287e-01 5.63235462e-01 5.55142701e-01 5.47125518e-01 5.39296746e-01 5.31570494e-01 5.24108410e-01 5.16894042e-01 5.09675145e-01 5.01838505e-01 4.83689487e-01 3.64824623e-01 7.88915083e-02 2.29601860e-02 1.42640546e-01 6.37711108e-01 7.06431389e-01 6.07581317e-01 3.59091431e-01 4.74550799e-02 3.92118581e-02 2.27681160e-01 6.87277794e-01 7.29420662e-01 7.26284146e-01 7.15786517e-01 7.02180147e-01 6.84849322e-01 6.65778577e-01 6.47919178e-01 6.32251084e-01 6.18408918e-01 6.05967641e-01 5.94705641e-01 5.84487379e-01 5.75113177e-01 5.66395462e-01 5.58218837e-01 5.50386727e-01 5.42719722e-01 5.35270512e-01 5.27298927e-01 5.09821713e-01 3.86497110e-01 8.71430039e-02 2.43358947e-02 1.15078717e-01 4.23907846e-01 4.29840773e-01 5.99245727e-01 1.37909859e-01 1.40173491e-02 4.28961106e-02 5.84595323e-01 6.30546689e-01 6.51706159e-01 6.70386672e-01 6.84954166e-01 6.87603235e-01 6.80148005e-01 6.67681277e-01 6.53892100e-01 6.40467942e-01 6.28049612e-01 6.16863966e-01 6.06926441e-01 5.98110616e-01 5.90238452e-01 5.83081901e-01 5.76349437e-01 5.69824696e-01 5.63559592e-01 5.58154941e-01 5.54510534e-01 5.43148637e-01 4.18102950e-01 1.01277798e-01 2.58106235e-02 5.38366623e-02 7.88608640e-02 2.25096956e-01 4.44705606e-01 4.98773754e-02 1.13286795e-02 4.10976648e-01 4.02291864e-01 4.36702430e-01 4.99245048e-01 5.67174554e-01 6.14408374e-01 6.36580527e-01 6.42217517e-01 6.39361799e-01 6.32702649e-01 6.24679923e-01 6.16577804e-01 6.09057784e-01 6.02410316e-01 5.96689403e-01 5.91744483e-01 5.87276697e-01 5.82980454e-01 5.78695834e-01 5.74823320e-01 5.73487937e-01 5.77906907e-01 5.78078985e-01 4.64943856e-01 1.48209453e-01 4.74892706e-02 2.22518779e-02 1.52647853e-01 6.53876126e-01 1.02823459e-01 7.94328004e-03 2.79684335e-01 2.27964625e-01 2.39588603e-01 3.06875259e-01 4.06652898e-01 4.99188840e-01 5.57981133e-01 5.87872148e-01 6.00459218e-01 6.03682876e-01 6.02071881e-01 5.98217130e-01 5.93658984e-01 5.89319766e-01 5.85699856e-01 5.82944453e-01 5.80909729e-01 5.79252839e-01 5.77497303e-01 5.75200498e-01 5.72817266e-01 5.73118508e-01 5.81186116e-01 5.98583639e-01 5.50080180e-01 2.80553281e-01 6.91887811e-02 1.69407308e-01 7.13615417e-01 1.20404035e-01 3.16724437e-03 1.94035962e-01 1.42059878e-01 1.40629873e-01 1.93674251e-01 2.90338546e-01 3.99504662e-01 4.81284857e-01 5.30201733e-01 5.56351542e-01 5.68714082e-01 5.73010802e-01 5.72755456e-01 5.70212960e-01 5.66932857e-01 5.63985050e-01 5.62029481e-01 5.61345160e-01 5.61834931e-01 5.62984407e-01 5.63747704e-01 5.62531114e-01 5.57422519e-01 5.46535730e-01 5.33554435e-01 5.41562378e-01 5.07829130e-01 1.68715402e-01 2.06190899e-01 7.35681713e-01 1.23052515e-01 1.85927295e-03 1.25784889e-01 9.25265625e-02 9.36333984e-02 1.44058540e-01 2.38474652e-01 3.46661866e-01 4.32441086e-01 4.88462448e-01 5.21955490e-01 5.40362000e-01 5.48901081e-01 5.51084697e-01 5.49391925e-01 5.45729101e-01 5.41662812e-01 5.38478613e-01 5.37131846e-01 5.38133025e-01 5.41390181e-01 5.46010971e-01 5.50073922e-01 5.50133884e-01 5.38870573e-01 4.98450637e-01 4.16598380e-01 3.68520021e-01 2.42310911e-01 2.55032361e-01 7.28549123e-01 1.21133775e-01 1.55204756e-03 7.48236701e-02 6.08898364e-02 7.05091059e-02 1.30148739e-01 2.33326226e-01 3.37178648e-01 4.15040880e-01 4.67925012e-01 5.02437949e-01 5.23535848e-01 5.34747362e-01 5.38719714e-01 5.37550569e-01 5.33058286e-01 5.26988685e-01 5.21098614e-01 5.17069101e-01 5.16227126e-01 5.19152820e-01 5.25364816e-01 5.33410311e-01 5.41459322e-01 5.46889782e-01 5.37734866e-01 4.65151250e-01 3.52793157e-01 3.19435954e-01 4.23960537e-01 7.24379718e-01 1.15836941e-01 7.29406253e-04 4.30680737e-02 4.18063141e-02 6.30851537e-02 1.43235236e-01 2.61741579e-01 3.56585443e-01 4.19900298e-01 4.64173883e-01 4.95826572e-01 5.17247081e-01 5.30037105e-01 5.35663962e-01 5.35497606e-01 5.30877531e-01 5.23282051e-01 5.14500797e-01 5.06643176e-01 5.01805246e-01 5.01363933e-01 5.05313575e-01 5.12465417e-01 5.21894395e-01 5.34474730e-01 5.51785707e-01 5.49700856e-01 4.73834276e-01 4.79818016e-01 6.85457945e-01 7.31949031e-01 1.09729789e-01 1.09510438e-03 2.51879450e-02 3.08810622e-02 7.01646134e-02 1.83859438e-01 3.11403692e-01 3.88478756e-01 4.34956670e-01 4.69885558e-01 4.97541577e-01 5.18137693e-01 5.31826258e-01 5.39107800e-01 5.40641844e-01 5.37144065e-01 5.29484212e-01 5.18931210e-01 5.07365406e-01 4.97126758e-01 4.90312845e-01 4.88036931e-01 4.90639895e-01 4.98681009e-01 5.12918413e-01 5.37200570e-01 5.74983716e-01 6.03316844e-01 6.51437461e-01 7.79375613e-01 6.54748440e-01 9.52330455e-02 1.64709089e-03 1.53299114e-02 2.67910957e-02 9.47479382e-02 2.50870734e-01 3.65818232e-01 4.19348449e-01 4.51539099e-01 4.79216576e-01 5.03311992e-01 5.22720754e-01 5.36856115e-01 5.45670927e-01 5.49357057e-01 5.48120379e-01 5.42146981e-01 5.31792581e-01 5.17891586e-01 5.01870811e-01 4.85704213e-01 4.72662359e-01 4.68300223e-01 4.78642941e-01 5.04056394e-01 5.43581426e-01 6.03144050e-01 6.81286335e-01 7.58602083e-01 7.36568809e-01 3.08027714e-01 4.74969558e-02 6.89182489e-04 1.01282848e-02 3.10752075e-02 1.45739630e-01 3.26307118e-01 4.11584795e-01 4.43168253e-01 4.66048747e-01 4.88851249e-01 5.10083616e-01 5.28195024e-01 5.42389512e-01 5.52421331e-01 5.58289647e-01 5.59941947e-01 5.57060778e-01 5.49017668e-01 5.35002589e-01 5.14280140e-01 4.87529159e-01 4.61071014e-01 4.50583100e-01 4.71665740e-01 5.22297442e-01 5.90495229e-01 6.70803010e-01 7.42547750e-01 7.57865667e-01 5.99785507e-01 1.32131770e-01 1.63869020e-02 5.65373944e-03 7.94730335e-03 4.14979532e-02 2.29824588e-01 3.92358571e-01 4.43545640e-01 4.60168570e-01 4.77752984e-01 4.97084051e-01 5.15831470e-01 5.32509744e-01 5.46361983e-01 5.57122231e-01 5.64772666e-01 5.69240987e-01 5.70016205e-01 5.65751731e-01 5.54035962e-01 5.32009602e-01 5.00065625e-01 4.70143616e-01 4.67544675e-01 5.10502875e-01 5.88851273e-01 6.74655139e-01 7.41517782e-01 7.52680719e-01 6.54522359e-01 2.77102083e-01 5.46786785e-02 1.12404712e-02 1.50960749e-02 7.03364192e-03 5.01114056e-02 3.07943732e-01 4.37660784e-01 4.62762266e-01 4.72359926e-01 4.86595035e-01 5.02907932e-01 5.19189298e-01 5.34206927e-01 5.47290564e-01 5.58165550e-01 5.66823065e-01 5.73311746e-01 5.77333033e-01 5.77656269e-01 5.71792185e-01 5.57586312e-01 5.39574623e-01 5.36061108e-01 5.65821350e-01 6.28832638e-01 6.94442689e-01 7.48256862e-01 7.29334235e-01 6.20216489e-01 4.12162542e-01 1.00068092e-01 1.73448827e-02 1.77668370e-02 3.64738330e-02 6.32699905e-03 5.39669991e-02 3.50786179e-01 4.61831540e-01 4.73583251e-01 4.80851978e-01 4.92238969e-01 5.05506516e-01 5.19183993e-01 5.32307208e-01 5.44248283e-01 5.54659724e-01 5.63497186e-01 5.71050286e-01 5.77856481e-01 5.84437966e-01 5.91264606e-01 6.00562096e-01 6.21059060e-01 6.63993299e-01 6.92214310e-01 6.64112508e-01 6.38198137e-01 6.33216739e-01 4.84211475e-01 1.52098253e-01 6.75714090e-02 2.38652639e-02 1.32309310e-02 4.88907658e-02 1.21662512e-01 5.63413044e-03 5.53080253e-02 3.70092571e-01 4.74512875e-01 4.80177641e-01 4.85574991e-01 4.93953437e-01 5.04138231e-01 5.15184820e-01 5.26315689e-01 5.36905527e-01 5.46509266e-01 5.55010140e-01 5.62937498e-01 5.71912169e-01 5.84971130e-01 6.06378078e-01 6.40810966e-01 6.91100180e-01 7.47087061e-01 7.39348471e-01 4.50816005e-01 1.80610716e-01 1.23068675e-01 9.01672095e-02 3.31639796e-02 3.22206058e-02 8.19656178e-02 1.09544680e-01 1.75406754e-01 3.37207973e-01 4.98968409e-03 5.60465641e-02 3.81751955e-01 4.83146250e-01 4.83917832e-01 4.86116797e-01 4.91249323e-01 4.98511612e-01 5.07099867e-01 5.16297400e-01 5.25497973e-01 5.34227550e-01 5.42289317e-01 5.50190687e-01 5.59937239e-01 5.75815141e-01 6.03895783e-01 6.48670793e-01 7.07214892e-01 7.64345944e-01 7.85179198e-01 6.52550161e-01 2.57650584e-01 1.55159980e-01 1.36395723e-01 1.30035385e-01 1.98737010e-01 5.64158499e-01 6.80904269e-01 7.02642083e-01 6.70837581e-01 4.39656014e-03 5.68252094e-02 3.91884595e-01 4.89141703e-01 4.84048635e-01 4.82298166e-01 4.84387487e-01 4.89135951e-01 4.95552272e-01 5.02915323e-01 5.10730326e-01 5.18653572e-01 5.26485682e-01 5.34420907e-01 5.43751299e-01 5.57833552e-01 5.82052112e-01 6.20772839e-01 6.71883643e-01 7.24947453e-01 7.64864087e-01 7.69945741e-01 7.17259645e-01 7.24345207e-01 7.66372204e-01 7.81580210e-01 7.93872893e-01 8.36843252e-01 8.47215712e-01 8.32342744e-01 7.91727066e-01 3.76835349e-03 5.77472225e-02 4.01918292e-01 4.91293401e-01 4.79580045e-01 4.74521428e-01 4.74480689e-01 4.77348089e-01 4.81866151e-01 4.87392038e-01 4.93697286e-01 5.00767291e-01 5.08602440e-01 5.17137289e-01 5.26498854e-01 5.37740767e-01 5.53533554e-01 5.77280760e-01 6.10006988e-01 6.48348391e-01 6.86661482e-01 7.18304932e-01 7.41383135e-01 7.72214890e-01 7.96781480e-01 8.05253446e-01 8.05689573e-01 7.99666047e-01 7.79011667e-01 7.61762440e-01 7.26919293e-01 2.59344652e-03 5.88464886e-02 4.12695080e-01 4.88285899e-01 4.70577449e-01 4.64126438e-01 4.63165909e-01 4.64655757e-01 4.67333466e-01 4.70843345e-01 4.75367159e-01 4.81360883e-01 4.89256620e-01 4.99130100e-01 5.10464489e-01 5.22272825e-01 5.33755422e-01 5.45034766e-01 5.56837142e-01 5.69011390e-01 5.79995990e-01 5.88795006e-01 5.97664773e-01 6.08524859e-01 6.13197327e-01 6.13366544e-01 6.13504052e-01 6.15474641e-01 6.19262397e-01 6.24475539e-01 6.17182612e-01 2.79447134e-03 6.31875396e-02 4.36715931e-01 4.90867138e-01 4.67762738e-01 4.61805433e-01 4.60524470e-01 4.60647047e-01 4.61315989e-01 4.62580472e-01 4.64990079e-01 4.69375700e-01 4.76588815e-01 4.87122029e-01 5.00622332e-01 5.15451074e-01 5.28587580e-01 5.36116958e-01 5.34125924e-01 5.19657791e-01 4.92820472e-01 4.62905467e-01 4.50450003e-01 4.63995993e-01 4.87302780e-01 5.05028427e-01 5.14273882e-01 5.19018888e-01 5.23339272e-01 5.30303061e-01 5.39184391e-01 1.17659662e-02 6.18982501e-02 4.72082168e-01 5.21435440e-01 4.85663027e-01 4.81213123e-01 4.80187148e-01 4.79814112e-01 4.79598820e-01 4.79709208e-01 4.80688900e-01 4.83297408e-01 4.88329202e-01 4.96333152e-01 5.07213771e-01 5.19785762e-01 5.31441808e-01 5.38127899e-01 5.34794152e-01 5.16644001e-01 4.82469082e-01 4.42094117e-01 4.20032173e-01 4.32019740e-01 4.63984281e-01 4.91672754e-01 5.06485164e-01 5.11223257e-01 5.11531413e-01 5.12086570e-01 5.17937720e-01 
