# vtk DataFile Version 2.0
results_case1_non_linear/iter0.vtk, Created by Freefem++ 
ASCII
DATASET UNSTRUCTURED_GRID
POINTS 961 float
0 0 0
0.033333333 0 0
0.066666667 0 0
0.1 0 0
0.13333333 0 0
0.16666667 0 0
0.2 0 0
0.23333333 0 0
0.26666667 0 0
0.3 0 0
0.33333333 0 0
0.36666667 0 0
0.4 0 0
0.43333333 0 0
0.46666667 0 0
0.5 0 0
0.53333333 0 0
0.56666667 0 0
0.6 0 0
0.63333333 0 0
0.66666667 0 0
0.7 0 0
0.73333333 0 0
0.76666667 0 0
0.8 0 0
0.83333333 0 0
0.86666667 0 0
0.9 0 0
0.93333333 0 0
0.96666667 0 0
1 0 0
0 0.033333333 0
0.033333333 0.033333333 0
0.066666667 0.033333333 0
0.1 0.033333333 0
0.13333333 0.033333333 0
0.16666667 0.033333333 0
0.2 0.033333333 0
0.23333333 0.033333333 0
0.26666667 0.033333333 0
0.3 0.033333333 0
0.33333333 0.033333333 0
0.36666667 0.033333333 0
0.4 0.033333333 0
0.43333333 0.033333333 0
0.46666667 0.033333333 0
0.5 0.033333333 0
0.53333333 0.033333333 0
0.56666667 0.033333333 0
0.6 0.033333333 0
0.63333333 0.033333333 0
0.66666667 0.033333333 0
0.7 0.033333333 0
0.73333333 0.033333333 0
0.76666667 0.033333333 0
0.8 0.033333333 0
0.83333333 0.033333333 0
0.86666667 0.033333333 0
0.9 0.033333333 0
0.93333333 0.033333333 0
0.96666667 0.033333333 0
1 0.033333333 0
0 0.066666667 0
0.033333333 0.066666667 0
0.066666667 0.066666667 0
0.1 0.066666667 0
0.13333333 0.066666667 0
0.16666667 0.066666667 0
0.2 0.066666667 0
0.23333333 0.066666667 0
0.26666667 0.066666667 0
0.3 0.066666667 0
0.33333333 0.066666667 0
0.36666667 0.066666667 0
0.4 0.066666667 0
0.43333333 0.066666667 0
0.46666667 0.066666667 0
0.5 0.066666667 0
0.53333333 0.066666667 0
0.56666667 0.066666667 0
0.6 0.066666667 0
0.63333333 0.066666667 0
0.66666667 0.066666667 0
0.7 0.066666667 0
0.73333333 0.066666667 0
0.76666667 0.066666667 0
0.8 0.066666667 0
0.83333333 0.066666667 0
0.86666667 0.066666667 0
0.9 0.066666667 0
0.93333333 0.066666667 0
0.96666667 0.066666667 0
1 0.066666667 0
0 0.1 0
0.033333333 0.1 0
0.066666667 0.1 0
0.1 0.1 0
0.13333333 0.1 0
0.16666667 0.1 0
0.2 0.1 0
0.23333333 0.1 0
0.26666667 0.1 0
0.3 0.1 0
0.33333333 0.1 0
0.36666667 0.1 0
0.4 0.1 0
0.43333333 0.1 0
0.46666667 0.1 0
0.5 0.1 0
0.53333333 0.1 0
0.56666667 0.1 0
0.6 0.1 0
0.63333333 0.1 0
0.66666667 0.1 0
0.7 0.1 0
0.73333333 0.1 0
0.76666667 0.1 0
0.8 0.1 0
0.83333333 0.1 0
0.86666667 0.1 0
0.9 0.1 0
0.93333333 0.1 0
0.96666667 0.1 0
1 0.1 0
0 0.13333333 0
0.033333333 0.13333333 0
0.066666667 0.13333333 0
0.1 0.13333333 0
0.13333333 0.13333333 0
0.16666667 0.13333333 0
0.2 0.13333333 0
0.23333333 0.13333333 0
0.26666667 0.13333333 0
0.3 0.13333333 0
0.33333333 0.13333333 0
0.36666667 0.13333333 0
0.4 0.13333333 0
0.43333333 0.13333333 0
0.46666667 0.13333333 0
0.5 0.13333333 0
0.53333333 0.13333333 0
0.56666667 0.13333333 0
0.6 0.13333333 0
0.63333333 0.13333333 0
0.66666667 0.13333333 0
0.7 0.13333333 0
0.73333333 0.13333333 0
0.76666667 0.13333333 0
0.8 0.13333333 0
0.83333333 0.13333333 0
0.86666667 0.13333333 0
0.9 0.13333333 0
0.93333333 0.13333333 0
0.96666667 0.13333333 0
1 0.13333333 0
0 0.16666667 0
0.033333333 0.16666667 0
0.066666667 0.16666667 0
0.1 0.16666667 0
0.13333333 0.16666667 0
0.16666667 0.16666667 0
0.2 0.16666667 0
0.23333333 0.16666667 0
0.26666667 0.16666667 0
0.3 0.16666667 0
0.33333333 0.16666667 0
0.36666667 0.16666667 0
0.4 0.16666667 0
0.43333333 0.16666667 0
0.46666667 0.16666667 0
0.5 0.16666667 0
0.53333333 0.16666667 0
0.56666667 0.16666667 0
0.6 0.16666667 0
0.63333333 0.16666667 0
0.66666667 0.16666667 0
0.7 0.16666667 0
0.73333333 0.16666667 0
0.76666667 0.16666667 0
0.8 0.16666667 0
0.83333333 0.16666667 0
0.86666667 0.16666667 0
0.9 0.16666667 0
0.93333333 0.16666667 0
0.96666667 0.16666667 0
1 0.16666667 0
0 0.2 0
0.033333333 0.2 0
0.066666667 0.2 0
0.1 0.2 0
0.13333333 0.2 0
0.16666667 0.2 0
0.2 0.2 0
0.23333333 0.2 0
0.26666667 0.2 0
0.3 0.2 0
0.33333333 0.2 0
0.36666667 0.2 0
0.4 0.2 0
0.43333333 0.2 0
0.46666667 0.2 0
0.5 0.2 0
0.53333333 0.2 0
0.56666667 0.2 0
0.6 0.2 0
0.63333333 0.2 0
0.66666667 0.2 0
0.7 0.2 0
0.73333333 0.2 0
0.76666667 0.2 0
0.8 0.2 0
0.83333333 0.2 0
0.86666667 0.2 0
0.9 0.2 0
0.93333333 0.2 0
0.96666667 0.2 0
1 0.2 0
0 0.23333333 0
0.033333333 0.23333333 0
0.066666667 0.23333333 0
0.1 0.23333333 0
0.13333333 0.23333333 0
0.16666667 0.23333333 0
0.2 0.23333333 0
0.23333333 0.23333333 0
0.26666667 0.23333333 0
0.3 0.23333333 0
0.33333333 0.23333333 0
0.36666667 0.23333333 0
0.4 0.23333333 0
0.43333333 0.23333333 0
0.46666667 0.23333333 0
0.5 0.23333333 0
0.53333333 0.23333333 0
0.56666667 0.23333333 0
0.6 0.23333333 0
0.63333333 0.23333333 0
0.66666667 0.23333333 0
0.7 0.23333333 0
0.73333333 0.23333333 0
0.76666667 0.23333333 0
0.8 0.23333333 0
0.83333333 0.23333333 0
0.86666667 0.23333333 0
0.9 0.23333333 0
0.93333333 0.23333333 0
0.96666667 0.23333333 0
1 0.23333333 0
0 0.26666667 0
0.033333333 0.26666667 0
0.066666667 0.26666667 0
0.1 0.26666667 0
0.13333333 0.26666667 0
0.16666667 0.26666667 0
0.2 0.26666667 0
0.23333333 0.26666667 0
0.26666667 0.26666667 0
0.3 0.26666667 0
0.33333333 0.26666667 0
0.36666667 0.26666667 0
0.4 0.26666667 0
0.43333333 0.26666667 0
0.46666667 0.26666667 0
0.5 0.26666667 0
0.53333333 0.26666667 0
0.56666667 0.26666667 0
0.6 0.26666667 0
0.63333333 0.26666667 0
0.66666667 0.26666667 0
0.7 0.26666667 0
0.73333333 0.26666667 0
0.76666667 0.26666667 0
0.8 0.26666667 0
0.83333333 0.26666667 0
0.86666667 0.26666667 0
0.9 0.26666667 0
0.93333333 0.26666667 0
0.96666667 0.26666667 0
1 0.26666667 0
0 0.3 0
0.033333333 0.3 0
0.066666667 0.3 0
0.1 0.3 0
0.13333333 0.3 0
0.16666667 0.3 0
0.2 0.3 0
0.23333333 0.3 0
0.26666667 0.3 0
0.3 0.3 0
0.33333333 0.3 0
0.36666667 0.3 0
0.4 0.3 0
0.43333333 0.3 0
0.46666667 0.3 0
0.5 0.3 0
0.53333333 0.3 0
0.56666667 0.3 0
0.6 0.3 0
0.63333333 0.3 0
0.66666667 0.3 0
0.7 0.3 0
0.73333333 0.3 0
0.76666667 0.3 0
0.8 0.3 0
0.83333333 0.3 0
0.86666667 0.3 0
0.9 0.3 0
0.93333333 0.3 0
0.96666667 0.3 0
1 0.3 0
0 0.33333333 0
0.033333333 0.33333333 0
0.066666667 0.33333333 0
0.1 0.33333333 0
0.13333333 0.33333333 0
0.16666667 0.33333333 0
0.2 0.33333333 0
0.23333333 0.33333333 0
0.26666667 0.33333333 0
0.3 0.33333333 0
0.33333333 0.33333333 0
0.36666667 0.33333333 0
0.4 0.33333333 0
0.43333333 0.33333333 0
0.46666667 0.33333333 0
0.5 0.33333333 0
0.53333333 0.33333333 0
0.56666667 0.33333333 0
0.6 0.33333333 0
0.63333333 0.33333333 0
0.66666667 0.33333333 0
0.7 0.33333333 0
0.73333333 0.33333333 0
0.76666667 0.33333333 0
0.8 0.33333333 0
0.83333333 0.33333333 0
0.86666667 0.33333333 0
0.9 0.33333333 0
0.93333333 0.33333333 0
0.96666667 0.33333333 0
1 0.33333333 0
0 0.36666667 0
0.033333333 0.36666667 0
0.066666667 0.36666667 0
0.1 0.36666667 0
0.13333333 0.36666667 0
0.16666667 0.36666667 0
0.2 0.36666667 0
0.23333333 0.36666667 0
0.26666667 0.36666667 0
0.3 0.36666667 0
0.33333333 0.36666667 0
0.36666667 0.36666667 0
0.4 0.36666667 0
0.43333333 0.36666667 0
0.46666667 0.36666667 0
0.5 0.36666667 0
0.53333333 0.36666667 0
0.56666667 0.36666667 0
0.6 0.36666667 0
0.63333333 0.36666667 0
0.66666667 0.36666667 0
0.7 0.36666667 0
0.73333333 0.36666667 0
0.76666667 0.36666667 0
0.8 0.36666667 0
0.83333333 0.36666667 0
0.86666667 0.36666667 0
0.9 0.36666667 0
0.93333333 0.36666667 0
0.96666667 0.36666667 0
1 0.36666667 0
0 0.4 0
0.033333333 0.4 0
0.066666667 0.4 0
0.1 0.4 0
0.13333333 0.4 0
0.16666667 0.4 0
0.2 0.4 0
0.23333333 0.4 0
0.26666667 0.4 0
0.3 0.4 0
0.33333333 0.4 0
0.36666667 0.4 0
0.4 0.4 0
0.43333333 0.4 0
0.46666667 0.4 0
0.5 0.4 0
0.53333333 0.4 0
0.56666667 0.4 0
0.6 0.4 0
0.63333333 0.4 0
0.66666667 0.4 0
0.7 0.4 0
0.73333333 0.4 0
0.76666667 0.4 0
0.8 0.4 0
0.83333333 0.4 0
0.86666667 0.4 0
0.9 0.4 0
0.93333333 0.4 0
0.96666667 0.4 0
1 0.4 0
0 0.43333333 0
0.033333333 0.43333333 0
0.066666667 0.43333333 0
0.1 0.43333333 0
0.13333333 0.43333333 0
0.16666667 0.43333333 0
0.2 0.43333333 0
0.23333333 0.43333333 0
0.26666667 0.43333333 0
0.3 0.43333333 0
0.33333333 0.43333333 0
0.36666667 0.43333333 0
0.4 0.43333333 0
0.43333333 0.43333333 0
0.46666667 0.43333333 0
0.5 0.43333333 0
0.53333333 0.43333333 0
0.56666667 0.43333333 0
0.6 0.43333333 0
0.63333333 0.43333333 0
0.66666667 0.43333333 0
0.7 0.43333333 0
0.73333333 0.43333333 0
0.76666667 0.43333333 0
0.8 0.43333333 0
0.83333333 0.43333333 0
0.86666667 0.43333333 0
0.9 0.43333333 0
0.93333333 0.43333333 0
0.96666667 0.43333333 0
1 0.43333333 0
0 0.46666667 0
0.033333333 0.46666667 0
0.066666667 0.46666667 0
0.1 0.46666667 0
0.13333333 0.46666667 0
0.16666667 0.46666667 0
0.2 0.46666667 0
0.23333333 0.46666667 0
0.26666667 0.46666667 0
0.3 0.46666667 0
0.33333333 0.46666667 0
0.36666667 0.46666667 0
0.4 0.46666667 0
0.43333333 0.46666667 0
0.46666667 0.46666667 0
0.5 0.46666667 0
0.53333333 0.46666667 0
0.56666667 0.46666667 0
0.6 0.46666667 0
0.63333333 0.46666667 0
0.66666667 0.46666667 0
0.7 0.46666667 0
0.73333333 0.46666667 0
0.76666667 0.46666667 0
0.8 0.46666667 0
0.83333333 0.46666667 0
0.86666667 0.46666667 0
0.9 0.46666667 0
0.93333333 0.46666667 0
0.96666667 0.46666667 0
1 0.46666667 0
0 0.5 0
0.033333333 0.5 0
0.066666667 0.5 0
0.1 0.5 0
0.13333333 0.5 0
0.16666667 0.5 0
0.2 0.5 0
0.23333333 0.5 0
0.26666667 0.5 0
0.3 0.5 0
0.33333333 0.5 0
0.36666667 0.5 0
0.4 0.5 0
0.43333333 0.5 0
0.46666667 0.5 0
0.5 0.5 0
0.53333333 0.5 0
0.56666667 0.5 0
0.6 0.5 0
0.63333333 0.5 0
0.66666667 0.5 0
0.7 0.5 0
0.73333333 0.5 0
0.76666667 0.5 0
0.8 0.5 0
0.83333333 0.5 0
0.86666667 0.5 0
0.9 0.5 0
0.93333333 0.5 0
0.96666667 0.5 0
1 0.5 0
0 0.53333333 0
0.033333333 0.53333333 0
0.066666667 0.53333333 0
0.1 0.53333333 0
0.13333333 0.53333333 0
0.16666667 0.53333333 0
0.2 0.53333333 0
0.23333333 0.53333333 0
0.26666667 0.53333333 0
0.3 0.53333333 0
0.33333333 0.53333333 0
0.36666667 0.53333333 0
0.4 0.53333333 0
0.43333333 0.53333333 0
0.46666667 0.53333333 0
0.5 0.53333333 0
0.53333333 0.53333333 0
0.56666667 0.53333333 0
0.6 0.53333333 0
0.63333333 0.53333333 0
0.66666667 0.53333333 0
0.7 0.53333333 0
0.73333333 0.53333333 0
0.76666667 0.53333333 0
[...]
CELL_DATA 1920
Scalars  Label int 1
LOOKUP_TABLE FreeFempp_table
0
0
0
0
0
0
0
0
0
0
0
0
0
0
0
0
0
0
0
0
0
0
0
0
0
0
0
0
0
0
0
0
0
0
0
0
0
0
0
0
0
0
0
0
0
0
0
0
0
0
0
0
0
0
0
0
0
0
0
0
0
0
0
0
0
0
0
0
0
0
0
0
0
0
0
0
0
0
0
0
0
0
0
0
0
0
0
0
0
0
0
0
0
0
0
0
0
0
0
0
0
0
0
0
0
0
0
0
0
0
0
0
0
0
0
0
0
0
0
0
0
0
0
0
0
0
0
0
0
0
0
0
0
0
0
0
0
0
0
0
0
0
0
0
0
0
0
0
0
0
0
0
0
0
0
0
0
0
0
0
0
0
0
0
0
0
0
0
0
0
0
0
0
0
0
0
0
0
0
0
0
0
0
0
0
0
0
0
0
0
0
0
0
0
0
0
0
0
0
0
0
0
0
0
0
0
0
0
0
0
0
0
0
0
0
0
0
0
0
0
0
0
0
0
0
0
0
0
0
0
0
0
0
0
0
0
0
0
0
0
0
0
0
0
0
0
0
0
0
0
0
0
0
0
0
0
0
0
0
0
0
0
0
0
0
0
0
0
0
0
0
0
0
0
0
0
0
0
0
0
0
0
0
0
0
0
0
0
0
0
0
0
0
0
0
0
0
0
0
0
0
0
0
0
0
0
0
0
0
0
0
0
0
0
0
0
0
0
0
0
0
0
0
0
0
0
0
0
0
0
0
0
0
0
0
0
0
0
0
0
0
0
0
0
0
0
0
0
0
0
0
0
0
0
0
0
0
0
0
0
0
0
0
0
0
0
0
0
0
0
0
0
0
0
0
0
0
0
0
0
0
0
0
0
0
0
0
0
0
0
0
0
0
0
0
0
0
0
0
0
0
0
0
0
0
0
0
0
0
0
0
0
0
0
0
0
0
0
0
0
0
0
0
0
0
0
0
0
0
0
0
0
0
0
0
0
0
0
0
0
0
0
0
0
0
0
0
0
0
0
0
0
0
0
0
0
0
0
0
0
0
0
0
0
0
0
0
0
0
0
0
0
0
0
0
0
0
0
0
0
0
0
0
0
0
0
0
0
0
0
0
0
0
0
0
0
0
0
0
0
0
0
0
0
0
0
0
0
0
0
0
0
0
0
0
0
0
0
0
0
0
0
0
0
0
0
0
0
0
0
0
0
0
0
0
0
0
0
0
0
0
0
0
0
0
0
0
0
0
0
0
0
0
0
0
0
0
0
0
0
0
0
0
0
0
0
0
0
0
0
0
0
0
0
0
0
0
0
0
0
0
0
0
0
0
0
0
0
0
0
0
0
0
0
0
0
0
0
0
0
0
0
0
0
0
0
0
0
0
0
0
0
0
0
0
0
0
0
0
0
0
0
0
0
0
0
0
0
0
0
0
0
0
0
0
0
0
0
0
0
0
0
0
0
0
0
0
0
0
0
0
0
0
0
0
0
0
0
0
0
0
0
0
0
0
0
0
0
0
0
0
0
0
0
0
0
0
0
0
0
0
0
0
0
0
0
0
0
0
0
0
0
0
0
0
0
0
0
0
0
0
0
0
0
0
0
0
0
0
0
0
0
0
0
0
0
0
0
0
0
0
0
0
0
0
0
0
0
0
0
0
0
0
0
0
0
0
0
0
0
0
0
0
0
0
0
0
0
0
0
0
0
0
0
0
0
0
0
0
0
0
0
0
0
0
0
0
0
0
0
0
0
0
0
0
0
0
0
0
0
0
0
0
0
0
0
0
0
0
0
0
0
0
0
0
0
0
0
0
0
0
0
0
0
0
0
0
0
0
0
0
0
0
0
0
0
0
0
0
0
0
0
0
0
0
0
0
0
0
0
0
0
0
0
0
0
0
0
0
0
0
0
0
0
0
0
0
0
0
0
0
0
0
0
0
0
0
0
0
0
0
0
0
0
0
0
0
0
0
0
0
0
0
0
0
0
0
0
0
0
0
0
0
0
0
0
0
0
0
0
0
0
0
0
0
0
0
0
0
0
0
0
0
0
0
0
0
0
0
0
0
0
0
0
0
0
0
0
0
0
0
0
0
0
0
0
0
0
0
0
0
0
0
0
0
0
0
0
0
0
0
0
0
0
0
0
0
0
0
0
0
0
0
0
0
0
0
0
0
0
0
0
0
0
0
0
0
0
0
0
0
0
0
0
0
0
0
0
0
0
0
0
0
0
0
0
0
0
0
0
0
0
0
0
0
0
0
0
0
0
0
0
0
0
0
0
0
0
0
0
0
0
0
0
0
0
0
0
0
0
0
0
0
0
0
0
0
0
0
0
0
0
0
0
0
0
0
0
0
0
0
0
0
0
0
0
0
0
0
0
0
0
0
0
0
0
0
0
0
0
0
0
0
0
0
0
0
0
0
0
0
0
0
0
0
0
0
0
0
0
0
0
0
0
0
0
0
0
0
0
0
0
0
0
0
0
0
0
0
0
0
0
0
0
0
0
0
0
0
0
0
0
0
0
0
0
0
0
0
0
0
0
0
0
0
0
0
0
0
0
0
0
0
0
0
0
0
0
0
0
0
0
0
0
0
0
0
0
0
0
0
0
0
0
0
0
0
0
0
0
0
0
0
0
0
0
0
0
0
0
0
0
0
0
0
0
0
0
0
0
0
0
0
0
0
0
0
0
0
0
0
0
0
0
0
0
0
0
0
0
0
0
0
0
0
0
0
0
0
0
0
0
0
0
0
0
0
0
0
0
0
0
0
0
0
0
0
0
0
0
0
0
0
0
0
0
0
0
0
0
0
0
0
0
0
0
0
0
0
0
0
0
0
0
0
0
0
0
0
0
0
0
0
0
0
0
0
0
0
0
0
0
0
0
0
0
0
0
0
0
0
0
0
0
0
0
0
0
0
0
0
0
0
0
0
0
0
0
0
0
0
0
0
0
0
0
0
0
0
0
0
0
0
0
0
0
0
0
0
0
0
0
0
0
0
0
0
0
0
0
0
0
0
0
0
0
0
0
0
0
0
0
0
0
0
0
0
0
0
0
0
0
0
0
0
0
0
0
0
0
0
0
0
0
0
0
0
0
0
0
0
0
0
0
0
0
0
0
0
0
0
0
0
0
0
0
0
0
0
0
0
0
0
0
0
0
0
0
0
0
0
0
0
0
0
0
0
0
0
0
0
0
0
0
0
0
0
0
0
0
0
0
0
0
0
0
0
0
0
0
0
0
0
0
0
0
0
0
0
0
0
0
0
0
0
0
0
0
0
0
0
0
0
0
0
0
0
0
0
0
0
0
0
0
0
0
0
0
0
0
0
0
0
0
0
0
0
0
0
0
0
0
0
0
0
0
0
0
0
0
0
0
0
0
0
0
0
0
0
0
0
0
0
0
0
0
0
0
0
0
0
0
0
0
0
0
0
0
0
0
0
0
0
0
0
0
0
0
0
0
0
0
0
0
0
0
0
0
0
0
0
0
0
0
0
0
0
0
0
0
0
0
0
0
0
0
0
0
0
0
0
0
0
0
0
0
0
0
0
0
0
0
0
0
0
0
0
0
0
0
0
0
0
0
0
0
0
0
0
0
0
0
0
0
0
0
0
0
0
0
0
0
0
0
0
0
0
0
0
0
0
0
0
0
0
0
0
0
0
0
0
0
0
0
0
0
0
0
0
0
0
0
0
0
0
0
0
0
0
0
0
0
0
0
0
0
0
0
0
0
0
0
0
0
0
0
0
0
0
0
0
0
0
0
0
0
0
0
0
0
0
0
0
0
0
0
0
0
0
0
0
0
0
0
0
0
0
0
0
0
0
0
0
0
0
0
0
0
0
0
0
0
0
0
0
0
0
0
0
0
0
0
0
0
0
0
0
0
0
0
0
0
0
0
0
0
0
0
0
0
0
0
0
0
0
0
0
0
0
0
0
0
0
0
0
0
0
0
0
0
0
0
0
0
0
0
0
0
0
0
0
0
0
0
0
0
0
0
0
0
0
0
0
0
0
0
0
0
0
0
0
0
0
0
0
0
0
0
0
0
0
0
0
0
0
0
0
0
0
0
1
1
1
1
1
1
1
1
1
1
1
1
1
1
1
1
1
1
1
1
1
1
1
1
1
1
1
1
1
1
2
2
2
2
2
2
2
2
2
2
2
2
2
2
2
2
2
2
2
2
2
2
2
2
2
2
2
2
2
2
3
3
3
3
3
3
3
3
3
3
3
3
3
3
3
3
3
3
3
3
3
3
3
3
3
3
3
3
3
3
4
4
4
4
4
4
4
4
4
4
4
4
4
4
4
4
4
4
4
4
4
4
4
4
4
4
4
4
4
4

LOOKUP_TABLE FreeFempp_table 5
1.00000000 0.00000000 0.00000000 1.00000000
1.00000000 1.00000000 0.00000000 1.00000000
1.00000000 0.00000000 1.00000000 1.00000000
0.00000000 1.00000000 0.00000000 1.00000000
0.00000000 1.00000000 1.00000000 1.00000000

POINT_DATA 961
FIELD FieldData 1
Density 1 961 float
2.44468987e-01 2.18998060e-01 1.97967306e-01 1.84088856e-01 1.78216174e-01 1.75370350e-01 1.73945755e-01 1.73795283e-01 1.74646750e-01 1.75867915e-01 1.76708758e-01 1.76730499e-01 1.75910920e-01 1.74487695e-01 1.72753707e-01 1.70936927e-01 1.69172689e-01 1.67523459e-01 1.66008279e-01 1.64625585e-01 1.63366556e-01 1.62221134e-01 1.61179274e-01 1.60229549e-01 1.59355968e-01 1.58532575e-01 1.57714680e-01 1.56821817e-01 1.55720547e-01 1.51943207e-01 2.10356906e-01 2.10792512e-01 1.59679160e-01 1.50217563e-01 1.70058399e-01 1.93623036e-01 2.11633652e-01 2.26412982e-01 2.43098736e-01 2.62387902e-01 2.83743948e-01 3.05163145e-01 3.23349178e-01 3.35986197e-01 3.42975885e-01 3.45635355e-01 3.45432013e-01 3.43433499e-01 3.40336114e-01 3.36631179e-01 3.32711756e-01 3.28905433e-01 3.25467259e-01 3.22561026e-01 3.20247054e-01 3.18485320e-01 3.17157865e-01 3.16108555e-01 3.15196127e-01 3.15075666e-01 3.03009957e-01 3.64003301e-01 1.87071070e-01 1.54018998e-01 1.90902740e-01 2.27740213e-01 2.52380878e-01 2.80281842e-01 3.03598642e-01 3.20431709e-01 3.32399845e-01 3.39741647e-01 3.43122303e-01 3.43861043e-01 3.43276918e-01 3.42111558e-01 3.40470433e-01 3.38151902e-01 3.34986299e-01 3.30987692e-01 3.26344281e-01 3.21342230e-01 3.16288948e-01 3.11457604e-01 3.07053745e-01 3.03200036e-01 2.99939752e-01 2.97264278e-01 2.95173645e-01 2.93793738e-01 2.94539660e-01 2.83788502e-01 3.65969747e-01 1.79711536e-01 1.62987158e-01 2.27063239e-01 2.65085697e-01 2.96287626e-01 3.23505968e-01 3.43027741e-01 3.52575272e-01 3.53145033e-01 3.47238302e-01 3.38184476e-01 3.29063147e-01 3.21705669e-01 3.16516459e-01 3.12963754e-01 3.10207158e-01 3.07517946e-01 3.04442942e-01 3.00804198e-01 2.96632409e-01 2.92092115e-01 2.87418664e-01 2.82866240e-01 2.78664023e-01 2.74981737e-01 2.71912605e-01 2.69481301e-01 2.67678201e-01 2.67807275e-01 2.54606932e-01 3.36983532e-01 1.82647154e-01 2.01011211e-01 2.61871785e-01 2.97813416e-01 3.27692896e-01 3.48561764e-01 3.57452512e-01 3.55637789e-01 3.46627861e-01 3.34373444e-01 3.22216034e-01 3.12190384e-01 3.04978967e-01 3.00326765e-01 2.97523648e-01 2.95755565e-01 2.94303715e-01 2.92635292e-01 2.90427685e-01 2.87555933e-01 2.84062833e-01 2.80121505e-01 2.75991172e-01 2.71963567e-01 2.68301576e-01 2.65179336e-01 2.62635678e-01 2.60539591e-01 2.59965748e-01 2.44083360e-01 3.18874896e-01 1.89900175e-01 2.60380268e-01 3.01878661e-01 3.28077763e-01 3.48508745e-01 3.56907278e-01 3.54033351e-01 3.44037920e-01 3.31035584e-01 3.18157583e-01 3.07286143e-01 2.99170673e-01 2.93782562e-01 2.90672600e-01 2.89224654e-01 2.88803339e-01 2.88828850e-01 2.88814276e-01 2.88387954e-01 2.87309945e-01 2.85482466e-01 2.82952398e-01 2.79900372e-01 2.76608020e-01 2.73397326e-01 2.70546824e-01 2.68205792e-01 2.66331434e-01 2.65964508e-01 2.49081016e-01 3.20162177e-01 1.98318124e-01 3.34552199e-01 3.40476662e-01 3.49545091e-01 3.55330497e-01 3.51376981e-01 3.40758055e-01 3.27720404e-01 3.15066516e-01 3.04348618e-01 2.96210766e-01 2.90683120e-01 2.87458360e-01 2.86094636e-01 2.86120564e-01 2.87074417e-01 2.88516164e-01 2.90033996e-01 2.91255206e-01 2.91864991e-01 2.91633517e-01 2.90448755e-01 2.88348734e-01 2.85538375e-01 2.82369733e-01 2.79268622e-01 2.76618302e-01 2.74648219e-01 2.74471372e-01 2.57885188e-01 3.32049042e-01 2.04621240e-01 4.11997139e-01 3.67599845e-01 3.56694937e-01 3.48799884e-01 3.37507963e-01 3.24824303e-01 3.12967718e-01 3.03040802e-01 2.95472950e-01 2.90268540e-01 2.87181616e-01 2.85855919e-01 2.85920262e-01 2.87036955e-01 2.88906455e-01 2.91246325e-01 2.93765068e-01 2.96145767e-01 2.98045933e-01 2.99118936e-01 2.99059123e-01 2.97670037e-01 2.94944823e-01 2.91132540e-01 2.86747903e-01 2.82486349e-01 2.79053420e-01 2.77850479e-01 2.61417061e-01 3.39984685e-01 2.06628919e-01 4.63980049e-01 3.75862896e-01 3.49657387e-01 3.34424168e-01 3.22223336e-01 3.11744988e-01 3.03108305e-01 2.96459228e-01 2.91797459e-01 2.88941413e-01 2.87600219e-01 2.87473500e-01 2.88309515e-01 2.89915115e-01 2.92137951e-01 2.94835120e-01 2.97834873e-01 3.00899595e-01 3.03700984e-01 3.05820823e-01 3.06785494e-01 3.06139648e-01 3.03556859e-01 2.98978895e-01 2.92755514e-01 2.85720199e-01 2.79120833e-01 2.75059044e-01 2.57840961e-01 3.39983076e-01 2.04501599e-01 4.57430035e-01 3.66365284e-01 3.34728599e-01 3.19536358e-01 3.10644716e-01 3.03898573e-01 2.98524708e-01 2.94534653e-01 2.91920722e-01 2.90527970e-01 2.90134728e-01 2.90534288e-01 2.91574836e-01 2.93166310e-01 2.95264006e-01 2.97834754e-01 3.00811142e-01 3.04041356e-01 3.07248235e-01 3.10011268e-01 3.11783373e-01 3.11948746e-01 3.09924603e-01 3.05309355e-01 2.98080742e-01 2.88814306e-01 2.78831065e-01 2.70659506e-01 2.51210958e-01 3.34985346e-01 2.00098217e-01 4.06698525e-01 3.48099202e-01 3.19642603e-01 3.08812290e-01 3.04210335e-01 3.00724983e-01 2.97730237e-01 2.95457244e-01 2.94036269e-01 2.93401688e-01 2.93391019e-01 2.93848485e-01 2.94681311e-01 2.95870304e-01 2.97450662e-01 2.99473941e-01 3.01958531e-01 3.04836422e-01 3.07906419e-01 3.10804307e-01 3.13000917e-01 3.13841701e-01 3.12645108e-01 3.08875322e-01 3.02382410e-01 2.93645769e-01 2.83842176e-01 2.74877757e-01 2.54915476e-01 3.36892754e-01 1.95390016e-01 3.54738683e-01 3.30179900e-01 3.08631778e-01 3.02887231e-01 3.01676542e-01 3.00387591e-01 2.98860788e-01 2.97583401e-01 2.96811670e-01 2.96519250e-01 2.96553791e-01 2.96779305e-01 2.97143131e-01 2.97683448e-01 2.98504829e-01 2.99736738e-01 3.01483929e-01 3.03773940e-01 3.06508511e-01 3.09423864e-01 3.12066823e-01 3.13810885e-01 3.13960642e-01 3.11988562e-01 3.07837725e-01 3.02100241e-01 2.96062559e-01 2.91356742e-01 2.76837826e-01 3.61221135e-01 1.91618904e-01 3.21161121e-01 3.16854000e-01 3.01981658e-01 3.00184220e-01 3.01153064e-01 3.01202506e-01 3.00559223e-01 2.99881935e-01 2.99480379e-01 2.99320370e-01 2.99237430e-01 2.99106091e-01 2.98909962e-01 2.98745066e-01 2.98791200e-01 2.99267501e-01 3.00379843e-01 3.02265435e-01 3.04943025e-01 3.08272332e-01 3.11921358e-01 3.15345794e-01 3.17825407e-01 3.18653405e-01 3.17574441e-01 3.15319031e-01 3.13351870e-01 3.13825279e-01 3.07644844e-01 4.12348717e-01 1.89330205e-01 3.04149896e-01 3.08380604e-01 2.98330128e-01 2.99035668e-01 3.01296741e-01 3.02174121e-01 3.02104682e-01 3.01828265e-01 3.01666886e-01 3.01564246e-01 3.01340342e-01 3.00879270e-01 3.00200582e-01 2.99459606e-01 2.98915237e-01 2.98880041e-01 2.99658030e-01 3.01482290e-01 3.04470301e-01 3.08603406e-01 3.13688904e-01 3.19235414e-01 3.24320823e-01 3.27916682e-01 3.30076814e-01 3.32661808e-01 3.38543773e-01 3.48640263e-01 3.53326082e-01 4.96736825e-01 1.88684151e-01 2.97426820e-01 3.03655714e-01 2.96483696e-01 2.98521996e-01 3.01503062e-01 3.02900016e-01 3.03212047e-01 3.03213596e-01 3.03231955e-01 3.03192884e-01 3.02903712e-01 3.02255303e-01 3.01294565e-01 3.00222367e-01 2.99358219e-01 2.99083203e-01 2.99768120e-01 3.01705331e-01 3.05076301e-01 3.09951216e-01 3.16211134e-01 3.23264778e-01 3.29920352e-01 3.35588992e-01 3.42868179e-01 3.57002914e-01 3.84838194e-01 4.49647814e-01 4.67015654e-01 5.90632021e-01 1.89698994e-01 2.96631932e-01 3.01686704e-01 2.95872778e-01 2.98356920e-01 3.01636308e-01 3.03305835e-01 3.03829759e-01 3.03998202e-01 3.04153740e-01 3.04217666e-01 3.03988487e-01 3.03355038e-01 3.02370340e-01 3.01247984e-01 3.00324142e-01 2.99998701e-01 3.00660878e-01 3.02621335e-01 3.06085110e-01 3.11150730e-01 3.17684859e-01 3.24941456e-01 3.31565470e-01 3.37614357e-01 3.47884536e-01 3.71267200e-01 4.29687172e-01 4.72144395e-01 4.69252288e-01 5.92382729e-01 1.92375779e-01 2.99687237e-01 3.01905841e-01 2.96333075e-01 2.98534364e-01 3.01731527e-01 3.03431928e-01 3.03992540e-01 3.04204613e-01 3.04442018e-01 3.04640800e-01 3.04595768e-01 3.04182172e-01 3.03432971e-01 3.02533746e-01 3.01784307e-01 3.01543325e-01 3.02162915e-01 3.03927690e-01 3.07024390e-01 3.11528951e-01 3.17285091e-01 3.23541343e-01 3.28826934e-01 3.32550377e-01 3.38163257e-01 3.52688521e-01 3.82609606e-01 4.49118674e-01 4.67173189e-01 5.91950357e-01 1.96745381e-01 3.05966377e-01 3.04072708e-01 2.97865331e-01 2.99100339e-01 3.01825464e-01 3.03311825e-01 3.03734243e-01 3.03856373e-01 3.04095298e-01 3.04423690e-01 3.04642022e-01 3.04605156e-01 3.04306328e-01 3.03873360e-01 3.03529918e-01 3.03545386e-01 3.04182023e-01 3.05647701e-01 3.08065116e-01 3.11449379e-01 3.15628558e-01 3.20016146e-01 3.23405623e-01 3.24572623e-01 3.24246973e-01 3.26161444e-01 3.33667576e-01 3.46276730e-01 3.53289455e-01 5.01891196e-01 2.02866033e-01 3.15583020e-01 3.08164507e-01 3.00588459e-01 3.00126761e-01 3.01939219e-01 3.02955151e-01 3.03074211e-01 3.02974224e-01 3.03108990e-01 3.03507149e-01 3.03990126e-01 3.04394931e-01 3.04668814e-01 3.04872155e-01 3.05141568e-01 3.05642188e-01 3.06521744e-01 3.07874233e-01 3.09715360e-01 3.11962575e-01 3.14392895e-01 3.16551417e-01 3.17665339e-01 3.16825926e-01 3.13771218e-01 3.09933037e-01 3.08083475e-01 3.10018748e-01 3.05747628e-01 4.23687547e-01 2.10771203e-01 3.28734279e-01 3.14281225e-01 3.04877609e-01 3.01876217e-01 3.02208304e-01 3.02439392e-01 3.02082211e-01 3.01629692e-01 3.01531047e-01 3.01877022e-01 3.02528530e-01 3.03316742e-01 3.04147989e-01 3.05019647e-01 3.05991203e-01 3.07140023e-01 3.08517188e-01 3.10112089e-01 3.11830610e-01 3.13482255e-01 3.14765990e-01 3.15249741e-01 3.14372480e-01 3.11550707e-01 3.06483895e-01 2.99634010e-01 2.92539775e-01 2.87617445e-01 2.73292631e-01 3.74312311e-01 2.20358506e-01 3.44694614e-01 3.22317749e-01 3.11496407e-01 3.05107892e-01 3.03149223e-01 3.02106231e-01 3.01015854e-01 3.00046116e-01 2.99550653e-01 2.99657822e-01 3.00280631e-01 3.01262468e-01 3.02480131e-01 3.03875297e-01 3.05439979e-01 3.07182193e-01 3.09085965e-01 3.11074853e-01 3.12986195e-01 3.14558625e-01 3.15431386e-01 3.15156430e-01 3.13237309e-01 3.09222132e-01 3.02874923e-01 2.94414341e-01 2.84742862e-01 2.75935560e-01 2.55095869e-01 3.42326820e-01 2.31254548e-01 3.60345155e-01 3.31051201e-01 3.21090162e-01 3.11218858e-01 3.05987626e-01 3.02851140e-01 3.00531983e-01 2.98745215e-01 2.97609478e-01 2.97217011e-01 2.97520161e-01 2.98388600e-01 2.99685061e-01 3.01303118e-01 3.03169399e-01 3.05224419e-01 3.07393700e-01 3.09556425e-01 3.11518759e-01 3.12999874e-01 3.13636214e-01 3.13010424e-01 3.10713172e-01 3.06445301e-01 3.00156772e-01 2.92190611e-01 2.83374071e-01 2.75523812e-01 2.54672647e-01 3.34668130e-01 2.42802531e-01 3.69562387e-01 3.37159246e-01 3.32322955e-01 3.21196914e-01 3.12541038e-01 3.06351572e-01 3.01955760e-01 2.98763275e-01 2.96559840e-01 2.95290351e-01 2.94888735e-01 2.95240641e-01 2.96204865e-01 2.97638178e-01 2.99406409e-01 3.01381171e-01 3.03427011e-01 3.05382878e-01 3.07043850e-01 3.08151752e-01 3.08404773e-01 3.07494700e-01 3.05175394e-01 3.01357031e-01 2.96202421e-01 2.90188074e-01 2.84089744e-01 2.79498249e-01 2.61313647e-01 3.41684371e-01 2.54325032e-01 3.66094232e-01 3.36137086e-01 3.40278566e-01 3.32765043e-01 3.23346704e-01 3.14388275e-01 3.07233691e-01 3.01830977e-01 2.97879785e-01 2.95171529e-01 2.93558955e-01 2.92900085e-01 2.93036878e-01 2.93795973e-01 2.94995397e-01 2.96450227e-01 2.97973454e-01 2.99373001e-01 3.00448000e-01 3.00989568e-01 3.00795257e-01 2.99702436e-01 2.97640175e-01 2.94685543e-01 2.91099280e-01 2.87314713e-01 2.83873349e-01 2.82077909e-01 2.65746176e-01 3.46375823e-01 2.65394866e-01 3.49290520e-01 3.25369596e-01 3.38785082e-01 3.39324236e-01 3.34704161e-01 3.26286942e-01 3.17433387e-01 3.09722722e-01 3.03522348e-01 2.98795283e-01 2.95403987e-01 2.93178856e-01 2.91930139e-01 2.91452557e-01 2.91531891e-01 2.91952133e-01 2.92502046e-01 2.92980969e-01 2.93205798e-01 2.93020904e-01 2.92314440e-01 2.91041553e-01 2.89249122e-01 2.87089676e-01 2.84807593e-01 2.82690316e-01 2.80997932e-01 2.80783236e-01 2.65418589e-01 3.44894797e-01 2.75366068e-01 3.27133864e-01 3.06129217e-01 3.24795365e-01 3.34272921e-01 3.40038568e-01 3.37761790e-01 3.30628484e-01 3.22264791e-01 3.14466596e-01 3.07852030e-01 3.02540600e-01 2.98445344e-01 2.95392483e-01 2.93176055e-01 2.91583300e-01 2.90406913e-01 2.89452314e-01 2.88544565e-01 2.87537217e-01 2.86324680e-01 2.84857094e-01 2.83153892e-01 2.81310230e-01 2.79486567e-01 2.77873904e-01 2.76633501e-01 2.75821894e-01 2.76212931e-01 2.61685997e-01 3.39553773e-01 2.81632334e-01 3.13145310e-01 2.81737655e-01 2.99157560e-01 3.15093279e-01 3.34438711e-01 3.43744367e-01 3.42848301e-01 3.37014049e-01 3.29719275e-01 3.22535843e-01 3.16090763e-01 3.10538858e-01 3.05818677e-01 3.01791370e-01 2.98303604e-01 2.95210272e-01 2.92381167e-01 2.89705187e-01 2.87096769e-01 2.84505367e-01 2.81925857e-01 2.79405624e-01 2.77043372e-01 2.74976552e-01 2.73356110e-01 2.72307962e-01 2.71870196e-01 2.72524625e-01 2.59679258e-01 3.36219043e-01 2.77716219e-01 3.10286969e-01 2.49807328e-01 2.61583388e-01 2.83042580e-01 3.14204127e-01 3.35739970e-01 3.44683737e-01 3.46703053e-01 3.44978571e-01 3.41124684e-01 3.36229086e-01 3.30926985e-01 3.25544238e-01 3.20241898e-01 3.15100849e-01 3.10160428e-01 3.05436015e-01 3.00929993e-01 2.96642303e-01 2.92581052e-01 2.88771778e-01 2.85262465e-01 2.82122999e-01 2.79441446e-01 2.77324170e-01 2.75910586e-01 2.75400519e-01 2.76279330e-01 2.66897291e-01 3.42907578e-01 2.68085212e-01 2.53578335e-01 2.17810944e-01 2.13244110e-01 2.41932124e-01 2.70012885e-01 2.97759056e-01 3.12867105e-01 3.26088548e-01 3.36987644e-01 3.44620675e-01 3.48979473e-01 3.50408018e-01 3.49420220e-01 3.46592516e-01 3.42475653e-01 3.37542176e-01 3.32169086e-01 3.26643497e-01 3.21178883e-01 3.15933406e-01 3.11024666e-01 3.06539297e-01 3.02537203e-01 2.99054444e-01 2.96113998e-01 2.93767512e-01 2.92232484e-01 2.92344660e-01 2.88029730e-01 3.65392536e-01 2.22438514e-01 1.66127756e-01 1.67596161e-01 2.02561095e-01 1.36165276e-01 1.74335375e-01 1.71589211e-01 2.27679729e-01 2.48857021e-01 2.67361730e-01 2.82848507e-01 2.95558780e-01 3.05844486e-01 3.13958377e-01 3.20096433e-01 3.24446231e-01 3.27212244e-01 3.28622043e-01 3.28920931e-01 3.28360587e-01 3.27185690e-01 3.25619996e-01 3.23852718e-01 3.22026402e-01 3.20226729e-01 3.18475604e-01 3.16730618e-01 3.14922214e-01 3.13252896e-01 3.10117960e-01 3.88299227e-01 2.58886367e-01 2.68883705e-01 2.82705873e-01 1.08204596e-01 1.79876730e-01 1.53650388e-01 1.46454364e-01 1.54825062e-01 1.60817742e-01 1.63313642e-01 1.64378002e-01 1.64854094e-01 1.65083081e-01 1.65198237e-01 1.65250048e-01 1.65256798e-01 1.65225387e-01 1.65159792e-01 1.65064439e-01 1.64944962e-01 1.64808124e-01 1.64661199e-01 1.64511278e-01 1.64364412e-01 1.64224967e-01 1.64094925e-01 1.63973227e-01 1.63853943e-01 1.63711578e-01 1.63338125e-01 1.84590548e-01 
