# vtk DataFile Version 2.0
results_case1_non_linear/1_density.vtk, Created by Freefem++ 
ASCII
DATASET UNSTRUCTURED_GRID
POINTS 961 float
0 0 0
0.033333333 0 0
0.066666667 0 0
0.1 0 0
0.13333333 0 0
0.16666667 0 0
0.2 0 0
0.23333333 0 0
0.26666667 0 0
0.3 0 0
0.33333333 0 0
0.36666667 0 0
0.4 0 0
0.43333333 0 0
0.46666667 0 0
0.5 0 0
0.53333333 0 0
0.56666667 0 0
0.6 0 0
0.63333333 0 0
0.66666667 0 0
0.7 0 0
0.73333333 0 0
0.76666667 0 0
0.8 0 0
0.83333333 0 0
0.86666667 0 0
0.9 0 0
0.93333333 0 0
0.96666667 0 0
1 0 0
0 0.033333333 0
0.033333333 0.033333333 0
0.066666667 0.033333333 0
0.1 0.033333333 0
0.13333333 0.033333333 0
0.16666667 0.033333333 0
0.2 0.033333333 0
0.23333333 0.033333333 0
0.26666667 0.033333333 0
0.3 0.033333333 0
0.33333333 0.033333333 0
0.36666667 0.033333333 0
0.4 0.033333333 0
0.43333333 0.033333333 0
0.46666667 0.033333333 0
0.5 0.033333333 0
0.53333333 0.033333333 0
0.56666667 0.033333333 0
0.6 0.033333333 0
0.63333333 0.033333333 0
0.66666667 0.033333333 0
0.7 0.033333333 0
0.73333333 0.033333333 0
0.76666667 0.033333333 0
0.8 0.033333333 0
0.83333333 0.033333333 0
0.86666667 0.033333333 0
0.9 0.033333333 0
0.93333333 0.033333333 0
0.96666667 0.033333333 0
1 0.033333333 0
0 0.066666667 0
0.033333333 0.066666667 0
0.066666667 0.066666667 0
0.1 0.066666667 0
0.13333333 0.066666667 0
0.16666667 0.066666667 0
0.2 0.066666667 0
0.23333333 0.066666667 0
0.26666667 0.066666667 0
0.3 0.066666667 0
0.33333333 0.066666667 0
0.36666667 0.066666667 0
0.4 0.066666667 0
0.43333333 0.066666667 0
0.46666667 0.066666667 0
0.5 0.066666667 0
0.53333333 0.066666667 0
0.56666667 0.066666667 0
0.6 0.066666667 0
0.63333333 0.066666667 0
0.66666667 0.066666667 0
0.7 0.066666667 0
0.73333333 0.066666667 0
0.76666667 0.066666667 0
0.8 0.066666667 0
0.83333333 0.066666667 0
0.86666667 0.066666667 0
0.9 0.066666667 0
0.93333333 0.066666667 0
0.96666667 0.066666667 0
1 0.066666667 0
0 0.1 0
0.033333333 0.1 0
0.066666667 0.1 0
0.1 0.1 0
0.13333333 0.1 0
0.16666667 0.1 0
0.2 0.1 0
0.23333333 0.1 0
0.26666667 0.1 0
0.3 0.1 0
0.33333333 0.1 0
0.36666667 0.1 0
0.4 0.1 0
0.43333333 0.1 0
0.46666667 0.1 0
0.5 0.1 0
0.53333333 0.1 0
0.56666667 0.1 0
0.6 0.1 0
0.63333333 0.1 0
0.66666667 0.1 0
0.7 0.1 0
0.73333333 0.1 0
0.76666667 0.1 0
0.8 0.1 0
0.83333333 0.1 0
0.86666667 0.1 0
0.9 0.1 0
0.93333333 0.1 0
0.96666667 0.1 0
1 0.1 0
0 0.13333333 0
0.033333333 0.13333333 0
0.066666667 0.13333333 0
0.1 0.13333333 0
0.13333333 0.13333333 0
0.16666667 0.13333333 0
0.2 0.13333333 0
0.23333333 0.13333333 0
0.26666667 0.13333333 0
0.3 0.13333333 0
0.33333333 0.13333333 0
0.36666667 0.13333333 0
0.4 0.13333333 0
0.43333333 0.13333333 0
0.46666667 0.13333333 0
0.5 0.13333333 0
0.53333333 0.13333333 0
0.56666667 0.13333333 0
0.6 0.13333333 0
0.63333333 0.13333333 0
0.66666667 0.13333333 0
0.7 0.13333333 0
0.73333333 0.13333333 0
0.76666667 0.13333333 0
0.8 0.13333333 0
0.83333333 0.13333333 0
0.86666667 0.13333333 0
0.9 0.13333333 0
0.93333333 0.13333333 0
0.96666667 0.13333333 0
1 0.13333333 0
0 0.16666667 0
0.033333333 0.16666667 0
0.066666667 0.16666667 0
0.1 0.16666667 0
0.13333333 0.16666667 0
0.16666667 0.16666667 0
0.2 0.16666667 0
0.23333333 0.16666667 0
0.26666667 0.16666667 0
0.3 0.16666667 0
0.33333333 0.16666667 0
0.36666667 0.16666667 0
0.4 0.16666667 0
0.43333333 0.16666667 0
0.46666667 0.16666667 0
0.5 0.16666667 0
0.53333333 0.16666667 0
0.56666667 0.16666667 0
0.6 0.16666667 0
0.63333333 0.16666667 0
0.66666667 0.16666667 0
0.7 0.16666667 0
0.73333333 0.16666667 0
0.76666667 0.16666667 0
0.8 0.16666667 0
0.83333333 0.16666667 0
0.86666667 0.16666667 0
0.9 0.16666667 0
0.93333333 0.16666667 0
0.96666667 0.16666667 0
1 0.16666667 0
0 0.2 0
0.033333333 0.2 0
0.066666667 0.2 0
0.1 0.2 0
0.13333333 0.2 0
0.16666667 0.2 0
0.2 0.2 0
0.23333333 0.2 0
0.26666667 0.2 0
0.3 0.2 0
0.33333333 0.2 0
0.36666667 0.2 0
0.4 0.2 0
0.43333333 0.2 0
0.46666667 0.2 0
0.5 0.2 0
0.53333333 0.2 0
0.56666667 0.2 0
0.6 0.2 0
0.63333333 0.2 0
0.66666667 0.2 0
0.7 0.2 0
0.73333333 0.2 0
0.76666667 0.2 0
0.8 0.2 0
0.83333333 0.2 0
0.86666667 0.2 0
0.9 0.2 0
0.93333333 0.2 0
0.96666667 0.2 0
1 0.2 0
0 0.23333333 0
0.033333333 0.23333333 0
0.066666667 0.23333333 0
0.1 0.23333333 0
0.13333333 0.23333333 0
0.16666667 0.23333333 0
0.2 0.23333333 0
0.23333333 0.23333333 0
0.26666667 0.23333333 0
0.3 0.23333333 0
0.33333333 0.23333333 0
0.36666667 0.23333333 0
0.4 0.23333333 0
0.43333333 0.23333333 0
0.46666667 0.23333333 0
0.5 0.23333333 0
0.53333333 0.23333333 0
0.56666667 0.23333333 0
0.6 0.23333333 0
0.63333333 0.23333333 0
0.66666667 0.23333333 0
0.7 0.23333333 0
0.73333333 0.23333333 0
0.76666667 0.23333333 0
0.8 0.23333333 0
0.83333333 0.23333333 0
0.86666667 0.23333333 0
0.9 0.23333333 0
0.93333333 0.23333333 0
0.96666667 0.23333333 0
1 0.23333333 0
0 0.26666667 0
0.033333333 0.26666667 0
0.066666667 0.26666667 0
0.1 0.26666667 0
0.13333333 0.26666667 0
0.16666667 0.26666667 0
0.2 0.26666667 0
0.23333333 0.26666667 0
0.26666667 0.26666667 0
0.3 0.26666667 0
0.33333333 0.26666667 0
0.36666667 0.26666667 0
0.4 0.26666667 0
0.43333333 0.26666667 0
0.46666667 0.26666667 0
0.5 0.26666667 0
0.53333333 0.26666667 0
0.56666667 0.26666667 0
0.6 0.26666667 0
0.63333333 0.26666667 0
0.66666667 0.26666667 0
0.7 0.26666667 0
0.73333333 0.26666667 0
0.76666667 0.26666667 0
0.8 0.26666667 0
0.83333333 0.26666667 0
0.86666667 0.26666667 0
0.9 0.26666667 0
0.93333333 0.26666667 0
0.96666667 0.26666667 0
1 0.26666667 0
0 0.3 0
0.033333333 0.3 0
0.066666667 0.3 0
0.1 0.3 0
0.13333333 0.3 0
0.16666667 0.3 0
0.2 0.3 0
0.23333333 0.3 0
0.26666667 0.3 0
0.3 0.3 0
0.33333333 0.3 0
0.36666667 0.3 0
0.4 0.3 0
0.43333333 0.3 0
0.46666667 0.3 0
0.5 0.3 0
0.53333333 0.3 0
0.56666667 0.3 0
0.6 0.3 0
0.63333333 0.3 0
0.66666667 0.3 0
0.7 0.3 0
0.73333333 0.3 0
0.76666667 0.3 0
0.8 0.3 0
0.83333333 0.3 0
0.86666667 0.3 0
0.9 0.3 0
0.93333333 0.3 0
0.96666667 0.3 0
1 0.3 0
0 0.33333333 0
0.033333333 0.33333333 0
0.066666667 0.33333333 0
0.1 0.33333333 0
0.13333333 0.33333333 0
0.16666667 0.33333333 0
0.2 0.33333333 0
0.23333333 0.33333333 0
0.26666667 0.33333333 0
0.3 0.33333333 0
0.33333333 0.33333333 0
0.36666667 0.33333333 0
0.4 0.33333333 0
0.43333333 0.33333333 0
0.46666667 0.33333333 0
0.5 0.33333333 0
0.53333333 0.33333333 0
0.56666667 0.33333333 0
0.6 0.33333333 0
0.63333333 0.33333333 0
0.66666667 0.33333333 0
0.7 0.33333333 0
0.73333333 0.33333333 0
0.76666667 0.33333333 0
0.8 0.33333333 0
0.83333333 0.33333333 0
0.86666667 0.33333333 0
0.9 0.33333333 0
0.93333333 0.33333333 0
0.96666667 0.33333333 0
1 0.33333333 0
0 0.36666667 0
0.033333333 0.36666667 0
0.066666667 0.36666667 0
0.1 0.36666667 0
0.13333333 0.36666667 0
0.16666667 0.36666667 0
0.2 0.36666667 0
0.23333333 0.36666667 0
0.26666667 0.36666667 0
0.3 0.36666667 0
0.33333333 0.36666667 0
0.36666667 0.36666667 0
0.4 0.36666667 0
0.43333333 0.36666667 0
0.46666667 0.36666667 0
0.5 0.36666667 0
0.53333333 0.36666667 0
0.56666667 0.36666667 0
0.6 0.36666667 0
0.63333333 0.36666667 0
0.66666667 0.36666667 0
0.7 0.36666667 0
0.73333333 0.36666667 0
0.76666667 0.36666667 0
0.8 0.36666667 0
0.83333333 0.36666667 0
0.86666667 0.36666667 0
0.9 0.36666667 0
0.93333333 0.36666667 0
0.96666667 0.36666667 0
1 0.36666667 0
0 0.4 0
0.033333333 0.4 0
0.066666667 0.4 0
0.1 0.4 0
0.13333333 0.4 0
0.16666667 0.4 0
0.2 0.4 0
0.23333333 0.4 0
0.26666667 0.4 0
0.3 0.4 0
0.33333333 0.4 0
0.36666667 0.4 0
0.4 0.4 0
0.43333333 0.4 0
0.46666667 0.4 0
0.5 0.4 0
0.53333333 0.4 0
0.56666667 0.4 0
0.6 0.4 0
0.63333333 0.4 0
0.66666667 0.4 0
0.7 0.4 0
0.73333333 0.4 0
0.76666667 0.4 0
0.8 0.4 0
0.83333333 0.4 0
0.86666667 0.4 0
0.9 0.4 0
0.93333333 0.4 0
0.96666667 0.4 0
1 0.4 0
0 0.43333333 0
0.033333333 0.43333333 0
0.066666667 0.43333333 0
0.1 0.43333333 0
0.13333333 0.43333333 0
0.16666667 0.43333333 0
0.2 0.43333333 0
0.23333333 0.43333333 0
0.26666667 0.43333333 0
0.3 0.43333333 0
0.33333333 0.43333333 0
0.36666667 0.43333333 0
0.4 0.43333333 0
0.43333333 0.43333333 0
0.46666667 0.43333333 0
0.5 0.43333333 0
0.53333333 0.43333333 0
0.56666667 0.43333333 0
0.6 0.43333333 0
0.63333333 0.43333333 0
0.66666667 0.43333333 0
0.7 0.43333333 0
0.73333333 0.43333333 0
0.76666667 0.43333333 0
0.8 0.43333333 0
0.83333333 0.43333333 0
0.86666667 0.43333333 0
0.9 0.43333333 0
0.93333333 0.43333333 0
0.96666667 0.43333333 0
1 0.43333333 0
0 0.46666667 0
0.033333333 0.46666667 0
0.066666667 0.46666667 0
0.1 0.46666667 0
0.13333333 0.46666667 0
0.16666667 0.46666667 0
0.2 0.46666667 0
0.23333333 0.46666667 0
0.26666667 0.46666667 0
0.3 0.46666667 0
0.33333333 0.46666667 0
0.36666667 0.46666667 0
0.4 0.46666667 0
0.43333333 0.46666667 0
0.46666667 0.46666667 0
0.5 0.46666667 0
0.53333333 0.46666667 0
0.56666667 0.46666667 0
0.6 0.46666667 0
0.63333333 0.46666667 0
0.66666667 0.46666667 0
0.7 0.46666667 0
0.73333333 0.46666667 0
0.76666667 0.46666667 0
0.8 0.46666667 0
0.83333333 0.46666667 0
0.86666667 0.46666667 0
0.9 0.46666667 0
0.93333333 0.46666667 0
0.96666667 0.46666667 0
1 0.46666667 0
0 0.5 0
0.033333333 0.5 0
0.066666667 0.5 0
0.1 0.5 0
0.13333333 0.5 0
0.16666667 0.5 0
0.2 0.5 0
0.23333333 0.5 0
0.26666667 0.5 0
0.3 0.5 0
0.33333333 0.5 0
0.36666667 0.5 0
0.4 0.5 0
0.43333333 0.5 0
0.46666667 0.5 0
0.5 0.5 0
0.53333333 0.5 0
0.56666667 0.5 0
0.6 0.5 0
0.63333333 0.5 0
0.66666667 0.5 0
0.7 0.5 0
0.73333333 0.5 0
0.76666667 0.5 0
0.8 0.5 0
0.83333333 0.5 0
0.86666667 0.5 0
0.9 0.5 0
0.93333333 0.5 0
0.96666667 0.5 0
1 0.5 0
0 0.53333333 0
0.033333333 0.53333333 0
0.066666667 0.53333333 0
0.1 0.53333333 0
0.13333333 0.53333333 0
0.16666667 0.53333333 0
0.2 0.53333333 0
0.23333333 0.53333333 0
0.26666667 0.53333333 0
0.3 0.53333333 0
0.33333333 0.53333333 0
0.36666667 0.53333333 0
0.4 0.53333333 0
0.43333333 0.53333333 0
0.46666667 0.53333333 0
0.5 0.53333333 0
0.53333333 0.53333333 0
0.56666667 0.53333333 0
0.6 0.53333333 0
0.63333333 0.53333333 0
0.66666667 0.53333333 0
0.7 0.53333333 0
0.73333333 0.53333333 0
0.76666667 0.53333333 0
[...]
CELL_DATA 1920
Scalars  Label int 1
LOOKUP_TABLE FreeFempp_table
0
0
0
0
0
0
0
0
0
0
0
0
0
0
0
0
0
0
0
0
0
0
0
0
0
0
0
0
0
0
0
0
0
0
0
0
0
0
0
0
0
0
0
0
0
0
0
0
0
0
0
0
0
0
0
0
0
0
0
0
0
0
0
0
0
0
0
0
0
0
0
0
0
0
0
0
0
0
0
0
0
0
0
0
0
0
0
0
0
0
0
0
0
0
0
0
0
0
0
0
0
0
0
0
0
0
0
0
0
0
0
0
0
0
0
0
0
0
0
0
0
0
0
0
0
0
0
0
0
0
0
0
0
0
0
0
0
0
0
0
0
0
0
0
0
0
0
0
0
0
0
0
0
0
0
0
0
0
0
0
0
0
0
0
0
0
0
0
0
0
0
0
0
0
0
0
0
0
0
0
0
0
0
0
0
0
0
0
0
0
0
0
0
0
0
0
0
0
0
0
0
0
0
0
0
0
0
0
0
0
0
0
0
0
0
0
0
0
0
0
0
0
0
0
0
0
0
0
0
0
0
0
0
0
0
0
0
0
0
0
0
0
0
0
0
0
0
0
0
0
0
0
0
0
0
0
0
0
0
0
0
0
0
0
0
0
0
0
0
0
0
0
0
0
0
0
0
0
0
0
0
0
0
0
0
0
0
0
0
0
0
0
0
0
0
0
0
0
0
0
0
0
0
0
0
0
0
0
0
0
0
0
0
0
0
0
0
0
0
0
0
0
0
0
0
0
0
0
0
0
0
0
0
0
0
0
0
0
0
0
0
0
0
0
0
0
0
0
0
0
0
0
0
0
0
0
0
0
0
0
0
0
0
0
0
0
0
0
0
0
0
0
0
0
0
0
0
0
0
0
0
0
0
0
0
0
0
0
0
0
0
0
0
0
0
0
0
0
0
0
0
0
0
0
0
0
0
0
0
0
0
0
0
0
0
0
0
0
0
0
0
0
0
0
0
0
0
0
0
0
0
0
0
0
0
0
0
0
0
0
0
0
0
0
0
0
0
0
0
0
0
0
0
0
0
0
0
0
0
0
0
0
0
0
0
0
0
0
0
0
0
0
0
0
0
0
0
0
0
0
0
0
0
0
0
0
0
0
0
0
0
0
0
0
0
0
0
0
0
0
0
0
0
0
0
0
0
0
0
0
0
0
0
0
0
0
0
0
0
0
0
0
0
0
0
0
0
0
0
0
0
0
0
0
0
0
0
0
0
0
0
0
0
0
0
0
0
0
0
0
0
0
0
0
0
0
0
0
0
0
0
0
0
0
0
0
0
0
0
0
0
0
0
0
0
0
0
0
0
0
0
0
0
0
0
0
0
0
0
0
0
0
0
0
0
0
0
0
0
0
0
0
0
0
0
0
0
0
0
0
0
0
0
0
0
0
0
0
0
0
0
0
0
0
0
0
0
0
0
0
0
0
0
0
0
0
0
0
0
0
0
0
0
0
0
0
0
0
0
0
0
0
0
0
0
0
0
0
0
0
0
0
0
0
0
0
0
0
0
0
0
0
0
0
0
0
0
0
0
0
0
0
0
0
0
0
0
0
0
0
0
0
0
0
0
0
0
0
0
0
0
0
0
0
0
0
0
0
0
0
0
0
0
0
0
0
0
0
0
0
0
0
0
0
0
0
0
0
0
0
0
0
0
0
0
0
0
0
0
0
0
0
0
0
0
0
0
0
0
0
0
0
0
0
0
0
0
0
0
0
0
0
0
0
0
0
0
0
0
0
0
0
0
0
0
0
0
0
0
0
0
0
0
0
0
0
0
0
0
0
0
0
0
0
0
0
0
0
0
0
0
0
0
0
0
0
0
0
0
0
0
0
0
0
0
0
0
0
0
0
0
0
0
0
0
0
0
0
0
0
0
0
0
0
0
0
0
0
0
0
0
0
0
0
0
0
0
0
0
0
0
0
0
0
0
0
0
0
0
0
0
0
0
0
0
0
0
0
0
0
0
0
0
0
0
0
0
0
0
0
0
0
0
0
0
0
0
0
0
0
0
0
0
0
0
0
0
0
0
0
0
0
0
0
0
0
0
0
0
0
0
0
0
0
0
0
0
0
0
0
0
0
0
0
0
0
0
0
0
0
0
0
0
0
0
0
0
0
0
0
0
0
0
0
0
0
0
0
0
0
0
0
0
0
0
0
0
0
0
0
0
0
0
0
0
0
0
0
0
0
0
0
0
0
0
0
0
0
0
0
0
0
0
0
0
0
0
0
0
0
0
0
0
0
0
0
0
0
0
0
0
0
0
0
0
0
0
0
0
0
0
0
0
0
0
0
0
0
0
0
0
0
0
0
0
0
0
0
0
0
0
0
0
0
0
0
0
0
0
0
0
0
0
0
0
0
0
0
0
0
0
0
0
0
0
0
0
0
0
0
0
0
0
0
0
0
0
0
0
0
0
0
0
0
0
0
0
0
0
0
0
0
0
0
0
0
0
0
0
0
0
0
0
0
0
0
0
0
0
0
0
0
0
0
0
0
0
0
0
0
0
0
0
0
0
0
0
0
0
0
0
0
0
0
0
0
0
0
0
0
0
0
0
0
0
0
0
0
0
0
0
0
0
0
0
0
0
0
0
0
0
0
0
0
0
0
0
0
0
0
0
0
0
0
0
0
0
0
0
0
0
0
0
0
0
0
0
0
0
0
0
0
0
0
0
0
0
0
0
0
0
0
0
0
0
0
0
0
0
0
0
0
0
0
0
0
0
0
0
0
0
0
0
0
0
0
0
0
0
0
0
0
0
0
0
0
0
0
0
0
0
0
0
0
0
0
0
0
0
0
0
0
0
0
0
0
0
0
0
0
0
0
0
0
0
0
0
0
0
0
0
0
0
0
0
0
0
0
0
0
0
0
0
0
0
0
0
0
0
0
0
0
0
0
0
0
0
0
0
0
0
0
0
0
0
0
0
0
0
0
0
0
0
0
0
0
0
0
0
0
0
0
0
0
0
0
0
0
0
0
0
0
0
0
0
0
0
0
0
0
0
0
0
0
0
0
0
0
0
0
0
0
0
0
0
0
0
0
0
0
0
0
0
0
0
0
0
0
0
0
0
0
0
0
0
0
0
0
0
0
0
0
0
0
0
0
0
0
0
0
0
0
0
0
0
0
0
0
0
0
0
0
0
0
0
0
0
0
0
0
0
0
0
0
0
0
0
0
0
0
0
0
0
0
0
0
0
0
0
0
0
0
0
0
0
0
0
0
0
0
0
0
0
0
0
0
0
0
0
0
0
0
0
0
0
0
0
0
0
0
0
0
0
0
0
0
0
0
0
0
0
0
0
0
0
0
0
0
0
0
0
0
0
0
0
0
0
0
0
0
0
0
0
0
0
0
0
0
0
0
0
0
0
0
0
0
0
0
0
0
0
0
0
0
0
0
0
0
0
0
0
0
0
0
0
0
0
0
0
0
0
0
0
0
0
0
0
0
0
0
0
0
0
0
0
0
0
0
0
0
0
0
0
0
0
0
0
0
0
0
0
0
0
0
0
0
0
0
0
0
0
0
0
0
0
0
0
0
0
0
0
0
0
0
0
0
0
0
0
0
0
0
0
0
0
0
0
0
0
0
0
0
0
0
0
0
0
0
0
0
0
0
0
0
0
0
0
0
0
0
0
0
0
0
0
0
0
0
0
0
0
0
0
0
0
0
0
0
0
0
0
0
0
0
0
0
0
0
0
0
0
0
0
0
0
0
0
0
0
0
0
0
0
0
0
0
0
0
0
0
0
0
0
0
0
0
0
0
0
0
0
0
0
0
0
0
0
0
0
0
0
0
0
0
0
0
0
0
0
0
0
0
0
0
0
0
0
0
0
0
0
0
0
0
0
0
0
0
0
0
0
0
0
0
0
0
0
0
0
0
0
0
0
0
0
0
0
0
0
0
0
0
0
0
0
0
0
0
0
0
0
0
0
0
0
0
0
0
0
0
0
0
0
0
0
0
0
0
0
0
0
0
0
0
0
0
0
0
0
0
0
0
0
0
0
0
0
0
0
0
0
0
0
0
0
0
0
0
0
0
0
0
0
0
0
0
0
0
0
0
1
1
1
1
1
1
1
1
1
1
1
1
1
1
1
1
1
1
1
1
1
1
1
1
1
1
1
1
1
1
2
2
2
2
2
2
2
2
2
2
2
2
2
2
2
2
2
2
2
2
2
2
2
2
2
2
2
2
2
2
3
3
3
3
3
3
3
3
3
3
3
3
3
3
3
3
3
3
3
3
3
3
3
3
3
3
3
3
3
3
4
4
4
4
4
4
4
4
4
4
4
4
4
4
4
4
4
4
4
4
4
4
4
4
4
4
4
4
4
4

LOOKUP_TABLE FreeFempp_table 5
1.00000000 0.00000000 0.00000000 1.00000000
1.00000000 1.00000000 0.00000000 1.00000000
1.00000000 0.00000000 1.00000000 1.00000000
0.00000000 1.00000000 0.00000000 1.00000000
0.00000000 1.00000000 1.00000000 1.00000000

POINT_DATA 961
FIELD FieldData 1
Density 1 961 float
1.92327604e-01 1.73213571e-01 2.17726499e-01 2.29976386e-01 2.19955862e-01 1.99703529e-01 1.69531614e-01 1.24921486e-01 7.53711015e-02 5.64691052e-02 8.34946483e-02 1.92511141e-01 3.14666867e-01 3.65918547e-01 3.93637836e-01 4.27859426e-01 4.97964621e-01 6.31882071e-01 7.69395709e-01 8.14315140e-01 7.82107115e-01 7.60599196e-01 8.12034726e-01 8.16849232e-01 7.83889532e-01 7.78971016e-01 7.61948049e-01 7.00486660e-01 6.98637724e-01 6.97984636e-01 6.23682618e-01 1.07709074e-03 1.16061591e-01 1.66467935e-01 1.74947664e-01 1.64075851e-01 1.47621304e-01 1.26076281e-01 9.68161300e-02 6.23990111e-02 4.05804925e-02 4.65516113e-02 9.82049853e-02 2.15854779e-01 2.69870162e-01 2.97594458e-01 3.27899039e-01 3.95985752e-01 5.96957624e-01 8.50595117e-01 9.04369175e-01 8.43114614e-01 6.95357084e-01 6.80360377e-01 7.58529186e-01 7.56501734e-01 7.53298938e-01 7.59997189e-01 7.35668778e-01 7.59288609e-01 7.34066188e-01 6.84059680e-01 7.36762478e-04 6.13582903e-04 9.79876611e-04 9.65803687e-04 9.83217615e-04 9.92994173e-04 1.00012217e-03 1.00414664e-03 9.94099420e-04 1.05268764e-03 9.51517723e-04 6.83705658e-02 3.21891755e-01 3.52480680e-01 3.64795327e-01 3.80209714e-01 3.95171702e-01 5.23302555e-01 7.77529418e-01 6.07727885e-01 1.17764391e-01 7.17542991e-02 4.54623662e-02 3.47623602e-02 3.16110216e-02 4.27110828e-02 8.79072100e-02 3.48367274e-01 5.53723991e-01 5.93341708e-01 6.09455824e-01 5.11655867e-01 9.57927085e-04 1.03359623e-03 9.51794907e-04 9.72857641e-04 9.85616003e-04 9.95427254e-04 1.00228132e-03 1.00474188e-03 1.02292502e-03 6.38735248e-04 6.46026863e-04 1.06276572e-03 1.18705758e-03 1.52938417e-03 3.52930844e-01 4.41362828e-01 4.33441490e-01 6.91767991e-01 1.97479706e-02 2.13908516e-02 1.89871360e-02 1.21925296e-02 1.01095811e-02 7.28493277e-03 6.46724319e-03 7.06078671e-03 1.55491913e-02 2.25786209e-01 4.55936641e-01 5.37173271e-01 4.98812318e-01 3.83176774e-01 7.40701854e-02 8.01711604e-02 3.74371648e-01 4.01480019e-01 4.01201874e-01 4.05386627e-01 4.13913727e-01 4.14324999e-01 2.51854002e-01 9.88983666e-04 1.10827247e-03 9.98398988e-04 8.07304110e-04 8.36151943e-04 1.17015524e-03 1.21322591e-02 3.60014975e-01 7.14783669e-01 1.10084452e-02 1.90492123e-02 1.33807641e-02 1.16571384e-02 9.26509593e-03 6.84412662e-03 4.50227223e-03 3.93420504e-03 1.00930016e-02 2.61452228e-01 4.96167541e-01 4.56775159e-01 3.35450381e-01 7.68502951e-02 5.79007566e-02 2.85914004e-01 3.78390312e-01 3.91693413e-01 3.96482795e-01 4.02006418e-01 4.03391719e-01 3.88882339e-01 3.85139018e-01 4.17120337e-01 4.22656059e-01 7.17565790e-03 1.16967014e-03 8.16819665e-04 8.65522074e-04 1.18993386e-03 7.17668653e-01 9.62195098e-01 6.97957799e-02 4.67455536e-02 3.51931304e-02 3.01648937e-02 2.66068447e-02 1.58578511e-02 3.78836528e-03 2.72839027e-03 1.61363874e-02 4.62696940e-01 4.26877886e-01 2.78592646e-01 1.20308161e-01 6.70125261e-02 1.81367964e-01 3.48826945e-01 3.96487713e-01 4.14112031e-01 4.24307406e-01 4.30913091e-01 4.30345535e-01 4.23796743e-01 4.29688841e-01 4.38211739e-01 4.36729401e-01 4.45066184e-01 3.97723734e-01 1.50139385e-03 8.71792203e-04 8.41102912e-04 9.99476239e-02 9.82051492e-01 2.94333249e-01 1.21403523e-01 1.44855425e-01 1.25862792e-01 1.21131711e-01 3.21597159e-02 2.35352665e-03 3.50734359e-03 4.61882204e-01 4.63043958e-01 3.00582409e-01 2.20489323e-01 1.32604286e-01 2.04592645e-01 3.62252951e-01 4.26473767e-01 4.54379469e-01 4.69696194e-01 4.78610575e-01 4.81636822e-01 4.79548007e-01 4.77231503e-01 4.76438314e-01 4.72324520e-01 4.68648195e-01 4.71393287e-01 4.71241981e-01 3.91589791e-01 9.46603192e-04 1.05577987e-03 9.23273154e-03 9.73586559e-01 7.04861343e-01 2.92245358e-01 2.59084821e-01 1.95176020e-01 9.31489468e-02 2.48230295e-03 2.92150048e-03 4.88968849e-01 5.96220851e-01 4.94200617e-01 4.44035560e-01 4.00581449e-01 4.16629970e-01 4.87423271e-01 5.21858752e-01 5.37399948e-01 5.45162439e-01 5.47676921e-01 5.45812964e-01 5.40568769e-01 5.34036160e-01 5.27269423e-01 5.19561589e-01 5.11774719e-01 5.05281508e-01 4.98634815e-01 4.91607636e-01 4.80265439e-01 1.23819464e-03 1.43319764e-03 4.44414094e-03 9.56362665e-01 8.63787770e-01 5.88871002e-01 3.36489469e-01 1.57721102e-01 2.23271828e-03 2.42858636e-03 5.04818141e-01 7.36428261e-01 7.71460891e-01 7.40938485e-01 7.14369118e-01 6.91401482e-01 6.74496889e-01 6.60578609e-01 6.48887336e-01 6.38505340e-01 6.28167808e-01 6.17284834e-01 6.05994642e-01 5.94777286e-01 5.83706617e-01 5.72645426e-01 5.61911583e-01 5.51536083e-01 5.41180134e-01 5.31217515e-01 5.19441366e-01 5.05910397e-01 2.05531600e-03 2.17988761e-03 3.57561954e-03 9.05352473e-01 8.75533998e-01 7.76459098e-01 3.18453550e-01 2.45647109e-03 2.15382129e-03 4.44702327e-01 7.57907867e-01 8.59657466e-01 8.37440848e-01 8.25707674e-01 8.06836188e-01 7.82762706e-01 7.56916583e-01 7.33117819e-01 7.12147355e-01 6.93538249e-01 6.76714063e-01 6.61414087e-01 6.47452891e-01 6.34516776e-01 6.22385681e-01 6.10956430e-01 5.99916101e-01 5.88967383e-01 5.78413248e-01 5.68586111e-01 5.59398770e-01 5.39186418e-01 4.45656059e-03 2.90451385e-03 3.54960677e-03 6.25242412e-01 3.38746876e-01 9.59989727e-01 3.18867667e-03 1.68284751e-03 1.21753244e-02 6.26606166e-01 7.51226544e-01 7.51355767e-01 7.75790632e-01 7.88256943e-01 7.87069440e-01 7.75072336e-01 7.58028388e-01 7.39849031e-01 7.22293198e-01 7.06011772e-01 6.91273808e-01 6.78095579e-01 6.66310608e-01 6.55717373e-01 6.46021664e-01 6.36807024e-01 6.27795458e-01 6.19026542e-01 6.11443579e-01 6.07994139e-01 6.12190604e-01 5.89238346e-01 9.48044471e-03 3.39211477e-03 3.70153040e-03 1.97265465e-02 3.64150666e-02 7.44556904e-01 1.72408530e-03 2.44638207e-03 4.15789604e-01 3.65641654e-01 4.23645556e-01 5.30203938e-01 6.33554935e-01 6.96314752e-01 7.21245229e-01 7.25772917e-01 7.20730424e-01 7.11526930e-01 7.00873315e-01 6.90244794e-01 6.80420041e-01 6.71745539e-01 6.64287388e-01 6.57820880e-01 6.51907742e-01 6.46127582e-01 6.40239954e-01 6.34639084e-01 6.32480562e-01 6.41615808e-01 6.68003023e-01 6.61931992e-01 3.04850042e-02 4.96055325e-03 6.75703492e-03 2.02752929e-02 9.74365234e-01 2.78646522e-03 2.63471645e-03 2.71242112e-01 1.42737463e-01 1.65916339e-01 2.46558025e-01 3.89743388e-01 5.31048417e-01 6.13957763e-01 6.53029025e-01 6.68602586e-01 6.72181845e-01 6.69725358e-01 6.64530337e-01 6.58550739e-01 6.52964115e-01 6.48408473e-01 6.45028949e-01 6.42569840e-01 6.40512347e-01 6.38143122e-01 6.34673655e-01 6.30273521e-01 6.30084813e-01 6.41955137e-01 6.95052922e-01 7.78043389e-01 2.54997164e-01 1.98782720e-02 2.42774244e-02 9.80992973e-01 3.02497321e-03 2.72065820e-03 1.73727646e-01 7.60124251e-02 8.26001838e-02 1.26470432e-01 2.33185694e-01 3.85102898e-01 5.03129661e-01 5.71948111e-01 6.07581675e-01 6.23935223e-01 6.29379272e-01 6.28799379e-01 6.25268161e-01 6.20883405e-01 6.17094874e-01 6.14769459e-01 6.14236176e-01 6.15292370e-01 6.17160738e-01 6.18280292e-01 6.15986347e-01 6.07033968e-01 5.85741520e-01 5.61920345e-01 5.84094465e-01 7.67889202e-01 7.72651955e-02 4.11154218e-02 9.87895787e-01 3.61832557e-03 3.13593773e-03 9.45603102e-02 4.48290072e-02 4.95699681e-02 8.51157084e-02 1.77762210e-01 3.14305544e-01 4.33185041e-01 5.12398541e-01 5.59326231e-01 5.84605575e-01 5.95994353e-01 5.98589003e-01 5.95888913e-01 5.90563893e-01 5.84822178e-01 5.80484271e-01 5.78890502e-01 5.80735922e-01 5.85873544e-01 5.93080878e-01 5.99646807e-01 6.00810885e-01 5.84496319e-01 5.20995021e-01 3.46896589e-01 3.15366358e-01 1.92755267e-01 5.12632020e-02 9.82517123e-01 3.25336633e-03 3.32021643e-03 4.52092588e-02 2.85417810e-02 3.41489911e-02 7.42906183e-02 1.77057579e-01 3.05471778e-01 4.09540713e-01 4.83374864e-01 5.32006681e-01 5.61459303e-01 5.76788068e-01 5.81878901e-01 5.79741299e-01 5.72941124e-01 5.63967168e-01 5.55377305e-01 5.49652874e-01 5.48751354e-01 5.53527653e-01 5.63305259e-01 5.75994313e-01 5.89277983e-01 6.00708306e-01 6.03135943e-01 4.91397709e-01 2.83031911e-01 2.50974625e-01 2.39867523e-01 9.70279694e-01 2.90375785e-03 2.81385425e-03 2.16950756e-02 1.98977012e-02 2.77758408e-02 8.51532742e-02 2.17477351e-01 3.34832788e-01 4.17004168e-01 4.78258014e-01 5.22935331e-01 5.53080857e-01 5.70837557e-01 5.78386784e-01 5.77713370e-01 5.70682585e-01 5.59357762e-01 5.46331823e-01 5.34772813e-01 5.27910054e-01 5.27873933e-01 5.34571230e-01 5.45733929e-01 5.59360266e-01 5.77059567e-01 6.07662320e-01 6.39112175e-01 4.77882683e-01 4.07373458e-01 8.07804406e-01 9.50028777e-01 3.39182070e-03 3.03106545e-03 1.16384225e-02 1.38966758e-02 2.88313553e-02 1.26909792e-01 2.88884014e-01 3.78076404e-01 4.37776119e-01 4.86374736e-01 5.25562406e-01 5.54668725e-01 5.73821902e-01 5.83838224e-01 5.85713923e-01 5.80423832e-01 5.69101870e-01 5.53492665e-01 5.36388636e-01 5.21518648e-01 5.12351096e-01 5.10445178e-01 5.15003264e-01 5.25492787e-01 5.42624235e-01 5.71720064e-01 6.29156828e-01 6.81749225e-01 6.77258193e-01 9.24527109e-01 9.02596951e-01 4.04385058e-03 3.61004588e-03 7.55164400e-03 9.37696081e-03 4.09438647e-02 2.20023111e-01 3.60883653e-01 4.17722553e-01 4.60450858e-01 4.99578357e-01 5.33849180e-01 5.61306536e-01 5.81123888e-01 5.93360603e-01 5.98386168e-01 5.96493781e-01 5.87845802e-01 5.72797775e-01 5.52506387e-01 5.29347003e-01 5.06589115e-01 4.88635987e-01 4.81572181e-01 4.94021863e-01 5.27027786e-01 5.74521124e-01 6.50548756e-01 7.54706025e-01 8.58687341e-01 9.23208475e-01 1.53841645e-01 4.70937043e-03 4.15306957e-03 5.85405575e-03 6.82773953e-03 8.19172636e-02 3.36166352e-01 4.14056420e-01 4.48551506e-01 4.80628252e-01 5.13245165e-01 5.43488204e-01 5.69080234e-01 5.88947892e-01 6.02875710e-01 6.10989332e-01 6.13281369e-01 6.09277248e-01 5.97974122e-01 5.78144968e-01 5.48757911e-01 5.09911358e-01 4.68540341e-01 4.47333127e-01 4.72892761e-01 5.45140266e-01 6.37951553e-01 7.51659393e-01 8.36126864e-01 8.84689093e-01 8.27088237e-01 2.17533465e-02 5.74981188e-03 4.87646554e-03 5.06690703e-03 5.61657595e-03 2.03579396e-01 4.19770211e-01 4.50197458e-01 4.71548826e-01 4.97134596e-01 5.24922848e-01 5.51630497e-01 5.75154245e-01 5.94497204e-01 6.09407067e-01 6.19999051e-01 6.26305759e-01 6.27711892e-01 6.22376740e-01 6.06857955e-01 5.76204956e-01 5.27141213e-01 4.72691000e-01 4.50833857e-01 5.07169247e-01 6.33622348e-01 7.49185205e-01 8.36503685e-01 8.58566880e-01 8.46039057e-01 1.48403704e-01 9.66080651e-03 7.21042976e-03 7.07803387e-03 4.55426984e-03 4.93062660e-03 3.51134509e-01 4.61063534e-01 4.74422902e-01 4.88863587e-01 5.09746492e-01 5.33207595e-01 5.56374013e-01 5.77522993e-01 5.95774829e-01 6.10832095e-01 6.22794628e-01 6.31856441e-01 6.37686729e-01 6.38474762e-01 6.30004764e-01 6.06325746e-01 5.68390787e-01 5.41929901e-01 5.74816823e-01 6.99787736e-01 7.88811684e-01 8.58067453e-01 8.79223287e-01 8.33451390e-01 5.12234509e-01 1.73620693e-02 6.96995808e-03 7.14233238e-03 1.49629647e-02 4.15359298e-03 4.44765110e-03 4.27891672e-01 4.80681062e-01 4.90109891e-01 5.01389802e-01 5.17940581e-01 5.36939323e-01 5.56343794e-01 5.74815333e-01 5.91496646e-01 6.05925798e-01 6.18076980e-01 6.28394008e-01 6.37609005e-01 6.46205902e-01 6.53977573e-01 6.62279248e-01 6.84055686e-01 7.45650649e-01 8.17422032e-01 8.38152051e-01 8.31309378e-01 8.54475558e-01 6.68266118e-01 1.33869871e-02 7.86010269e-03 7.22836424e-03 8.58145300e-03 1.01782121e-02 9.07905027e-02 3.82774626e-03 4.06896416e-03 4.59264189e-01 4.94194359e-01 5.00193417e-01 5.08401334e-01 5.20457089e-01 5.34961045e-01 5.50602019e-01 5.66299498e-01 5.81156373e-01 5.94510496e-01 6.06149197e-01 6.16760015e-01 6.28567934e-01 6.45777166e-01 6.74131632e-01 7.19399691e-01 7.83921838e-01 8.53647709e-01 8.79302144e-01 2.89112628e-01 3.44881527e-02 2.07100902e-02 1.46633536e-02 1.09335398e-02 8.71335901e-03 7.44948722e-03 1.02333277e-02 3.63493599e-02 4.91420925e-01 3.55444895e-03 3.75980535e-03 4.79376405e-01 5.06032467e-01 5.05850196e-01 5.09133816e-01 5.16470373e-01 5.26789784e-01 5.38975000e-01 5.52010834e-01 5.65003932e-01 5.77221155e-01 5.88284612e-01 5.98782718e-01 6.11482561e-01 6.32606149e-01 6.70887232e-01 7.31020391e-01 8.03322017e-01 8.64442348e-01 8.91908824e-01 8.31884921e-01 7.00783134e-02 3.23400795e-02 1.93013735e-02 1.33951847e-02 1.83725022e-02 8.00593853e-01 8.72548997e-01 9.04668570e-01 7.72261918e-01 3.31432675e-03 3.49931954e-03 4.98341471e-01 5.14680326e-01 5.05924642e-01 5.03410399e-01 5.06393075e-01 5.13172209e-01 5.22333682e-01 5.32832801e-01 5.43939412e-01 5.55121422e-01 5.66002905e-01 5.76693058e-01 5.88851333e-01 6.07311428e-01 6.40122175e-01 6.92902386e-01 7.58854568e-01 8.19965005e-01 8.63361299e-01 8.79109859e-01 8.69474173e-01 9.13069546e-01 9.50135052e-01 9.57227528e-01 9.62357640e-01 9.53007281e-01 9.31536674e-01 9.28467691e-01 8.55870247e-01 3.07524600e-03 3.27085960e-03 5.18989205e-01 5.16907930e-01 4.98776197e-01 4.91744131e-01 4.91844326e-01 4.96050358e-01 5.02572417e-01 5.10488749e-01 5.19483805e-01 5.29548049e-01 5.40647686e-01 5.52540600e-01 5.65101385e-01 5.79499662e-01 5.99591732e-01 6.30737364e-01 6.74225390e-01 7.24188626e-01 7.74059474e-01 8.17359507e-01 8.50864470e-01 8.80507708e-01 8.95636261e-01 8.99295628e-01 8.97462547e-01 8.89889181e-01 8.68508339e-01 8.65306139e-01 7.93906689e-01 2.72631436e-03 3.05888173e-03 5.41419804e-01 5.08629024e-01 4.84656394e-01 4.76597279e-01 4.75860089e-01 4.78345484e-01 4.82338756e-01 4.87361044e-01 4.93708700e-01 5.02081871e-01 5.13133228e-01 5.26933014e-01 5.42535007e-01 5.58110178e-01 5.72157562e-01 5.85300982e-01 6.00325644e-01 6.19040489e-01 6.39084995e-01 6.54382408e-01 6.62696600e-01 6.66446447e-01 6.57175422e-01 6.49898529e-01 6.48458838e-01 6.53780043e-01 6.70621097e-01 6.86085284e-01 6.68016374e-01 2.10812152e-03 2.61466485e-03 5.81587672e-01 4.92307812e-01 4.68953490e-01 4.62716699e-01 4.61383909e-01 4.61490929e-01 4.62148339e-01 4.63603139e-01 4.66814697e-01 4.73179311e-01 4.84159261e-01 5.00684798e-01 5.22300005e-01 5.46283007e-01 5.67346632e-01 5.78544021e-01 5.73076844e-01 5.45847476e-01 4.95808154e-01 4.37741876e-01 4.14248943e-01 4.41128820e-01 4.84487921e-01 5.15539885e-01 5.29489398e-01 5.36269665e-01 5.42529523e-01 5.48229396e-01 5.81719756e-01 3.19253840e-03 2.37167464e-03 7.04350948e-01 5.36225200e-01 5.22950172e-01 5.18920243e-01 5.17573535e-01 5.16793609e-01 5.16011119e-01 5.15491426e-01 5.15951991e-01 5.18366396e-01 5.23773074e-01 5.32952607e-01 5.45940340e-01 5.61459064e-01 5.76431751e-01 5.85708141e-01 5.82119226e-01 5.57418644e-01 5.06690979e-01 4.42116320e-01 4.05494303e-01 4.25891161e-01 4.80452150e-01 5.24105668e-01 5.45744121e-01 5.50351262e-01 5.47041297e-01 5.41441500e-01 5.56935608e-01 
