# vtk DataFile Version 2.0
results_case1_non_linear/10_density.vtk, Created by Freefem++ 
ASCII
DATASET UNSTRUCTURED_GRID
POINTS 961 float
0 0 0
0.033333333 0 0
0.066666667 0 0
0.1 0 0
0.13333333 0 0
0.16666667 0 0
0.2 0 0
0.23333333 0 0
0.26666667 0 0
0.3 0 0
0.33333333 0 0
0.36666667 0 0
0.4 0 0
0.43333333 0 0
0.46666667 0 0
0.5 0 0
0.53333333 0 0
0.56666667 0 0
0.6 0 0
0.63333333 0 0
0.66666667 0 0
0.7 0 0
0.73333333 0 0
0.76666667 0 0
0.8 0 0
0.83333333 0 0
0.86666667 0 0
0.9 0 0
0.93333333 0 0
0.96666667 0 0
1 0 0
0 0.033333333 0
0.033333333 0.033333333 0
0.066666667 0.033333333 0
0.1 0.033333333 0
0.13333333 0.033333333 0
0.16666667 0.033333333 0
0.2 0.033333333 0
0.23333333 0.033333333 0
0.26666667 0.033333333 0
0.3 0.033333333 0
0.33333333 0.033333333 0
0.36666667 0.033333333 0
0.4 0.033333333 0
0.43333333 0.033333333 0
0.46666667 0.033333333 0
0.5 0.033333333 0
0.53333333 0.033333333 0
0.56666667 0.033333333 0
0.6 0.033333333 0
0.63333333 0.033333333 0
0.66666667 0.033333333 0
0.7 0.033333333 0
0.73333333 0.033333333 0
0.76666667 0.033333333 0
0.8 0.033333333 0
0.83333333 0.033333333 0
0.86666667 0.033333333 0
0.9 0.033333333 0
0.93333333 0.033333333 0
0.96666667 0.033333333 0
1 0.033333333 0
0 0.066666667 0
0.033333333 0.066666667 0
0.066666667 0.066666667 0
0.1 0.066666667 0
0.13333333 0.066666667 0
0.16666667 0.066666667 0
0.2 0.066666667 0
0.23333333 0.066666667 0
0.26666667 0.066666667 0
0.3 0.066666667 0
0.33333333 0.066666667 0
0.36666667 0.066666667 0
0.4 0.066666667 0
0.43333333 0.066666667 0
0.46666667 0.066666667 0
0.5 0.066666667 0
0.53333333 0.066666667 0
0.56666667 0.066666667 0
0.6 0.066666667 0
0.63333333 0.066666667 0
0.66666667 0.066666667 0
0.7 0.066666667 0
0.73333333 0.066666667 0
0.76666667 0.066666667 0
0.8 0.066666667 0
0.83333333 0.066666667 0
0.86666667 0.066666667 0
0.9 0.066666667 0
0.93333333 0.066666667 0
0.96666667 0.066666667 0
1 0.066666667 0
0 0.1 0
0.033333333 0.1 0
0.066666667 0.1 0
0.1 0.1 0
0.13333333 0.1 0
0.16666667 0.1 0
0.2 0.1 0
0.23333333 0.1 0
0.26666667 0.1 0
0.3 0.1 0
0.33333333 0.1 0
0.36666667 0.1 0
0.4 0.1 0
0.43333333 0.1 0
0.46666667 0.1 0
0.5 0.1 0
0.53333333 0.1 0
0.56666667 0.1 0
0.6 0.1 0
0.63333333 0.1 0
0.66666667 0.1 0
0.7 0.1 0
0.73333333 0.1 0
0.76666667 0.1 0
0.8 0.1 0
0.83333333 0.1 0
0.86666667 0.1 0
0.9 0.1 0
0.93333333 0.1 0
0.96666667 0.1 0
1 0.1 0
0 0.13333333 0
0.033333333 0.13333333 0
0.066666667 0.13333333 0
0.1 0.13333333 0
0.13333333 0.13333333 0
0.16666667 0.13333333 0
0.2 0.13333333 0
0.23333333 0.13333333 0
0.26666667 0.13333333 0
0.3 0.13333333 0
0.33333333 0.13333333 0
0.36666667 0.13333333 0
0.4 0.13333333 0
0.43333333 0.13333333 0
0.46666667 0.13333333 0
0.5 0.13333333 0
0.53333333 0.13333333 0
0.56666667 0.13333333 0
0.6 0.13333333 0
0.63333333 0.13333333 0
0.66666667 0.13333333 0
0.7 0.13333333 0
0.73333333 0.13333333 0
0.76666667 0.13333333 0
0.8 0.13333333 0
0.83333333 0.13333333 0
0.86666667 0.13333333 0
0.9 0.13333333 0
0.93333333 0.13333333 0
0.96666667 0.13333333 0
1 0.13333333 0
0 0.16666667 0
0.033333333 0.16666667 0
0.066666667 0.16666667 0
0.1 0.16666667 0
0.13333333 0.16666667 0
0.16666667 0.16666667 0
0.2 0.16666667 0
0.23333333 0.16666667 0
0.26666667 0.16666667 0
0.3 0.16666667 0
0.33333333 0.16666667 0
0.36666667 0.16666667 0
0.4 0.16666667 0
0.43333333 0.16666667 0
0.46666667 0.16666667 0
0.5 0.16666667 0
0.53333333 0.16666667 0
0.56666667 0.16666667 0
0.6 0.16666667 0
0.63333333 0.16666667 0
0.66666667 0.16666667 0
0.7 0.16666667 0
0.73333333 0.16666667 0
0.76666667 0.16666667 0
0.8 0.16666667 0
0.83333333 0.16666667 0
0.86666667 0.16666667 0
0.9 0.16666667 0
0.93333333 0.16666667 0
0.96666667 0.16666667 0
1 0.16666667 0
0 0.2 0
0.033333333 0.2 0
0.066666667 0.2 0
0.1 0.2 0
0.13333333 0.2 0
0.16666667 0.2 0
0.2 0.2 0
0.23333333 0.2 0
0.26666667 0.2 0
0.3 0.2 0
0.33333333 0.2 0
0.36666667 0.2 0
0.4 0.2 0
0.43333333 0.2 0
0.46666667 0.2 0
0.5 0.2 0
0.53333333 0.2 0
0.56666667 0.2 0
0.6 0.2 0
0.63333333 0.2 0
0.66666667 0.2 0
0.7 0.2 0
0.73333333 0.2 0
0.76666667 0.2 0
0.8 0.2 0
0.83333333 0.2 0
0.86666667 0.2 0
0.9 0.2 0
0.93333333 0.2 0
0.96666667 0.2 0
1 0.2 0
0 0.23333333 0
0.033333333 0.23333333 0
0.066666667 0.23333333 0
0.1 0.23333333 0
0.13333333 0.23333333 0
0.16666667 0.23333333 0
0.2 0.23333333 0
0.23333333 0.23333333 0
0.26666667 0.23333333 0
0.3 0.23333333 0
0.33333333 0.23333333 0
0.36666667 0.23333333 0
0.4 0.23333333 0
0.43333333 0.23333333 0
0.46666667 0.23333333 0
0.5 0.23333333 0
0.53333333 0.23333333 0
0.56666667 0.23333333 0
0.6 0.23333333 0
0.63333333 0.23333333 0
0.66666667 0.23333333 0
0.7 0.23333333 0
0.73333333 0.23333333 0
0.76666667 0.23333333 0
0.8 0.23333333 0
0.83333333 0.23333333 0
0.86666667 0.23333333 0
0.9 0.23333333 0
0.93333333 0.23333333 0
0.96666667 0.23333333 0
1 0.23333333 0
0 0.26666667 0
0.033333333 0.26666667 0
0.066666667 0.26666667 0
0.1 0.26666667 0
0.13333333 0.26666667 0
0.16666667 0.26666667 0
0.2 0.26666667 0
0.23333333 0.26666667 0
0.26666667 0.26666667 0
0.3 0.26666667 0
0.33333333 0.26666667 0
0.36666667 0.26666667 0
0.4 0.26666667 0
0.43333333 0.26666667 0
0.46666667 0.26666667 0
0.5 0.26666667 0
0.53333333 0.26666667 0
0.56666667 0.26666667 0
0.6 0.26666667 0
0.63333333 0.26666667 0
0.66666667 0.26666667 0
0.7 0.26666667 0
0.73333333 0.26666667 0
0.76666667 0.26666667 0
0.8 0.26666667 0
0.83333333 0.26666667 0
0.86666667 0.26666667 0
0.9 0.26666667 0
0.93333333 0.26666667 0
0.96666667 0.26666667 0
1 0.26666667 0
0 0.3 0
0.033333333 0.3 0
0.066666667 0.3 0
0.1 0.3 0
0.13333333 0.3 0
0.16666667 0.3 0
0.2 0.3 0
0.23333333 0.3 0
0.26666667 0.3 0
0.3 0.3 0
0.33333333 0.3 0
0.36666667 0.3 0
0.4 0.3 0
0.43333333 0.3 0
0.46666667 0.3 0
0.5 0.3 0
0.53333333 0.3 0
0.56666667 0.3 0
0.6 0.3 0
0.63333333 0.3 0
0.66666667 0.3 0
0.7 0.3 0
0.73333333 0.3 0
0.76666667 0.3 0
0.8 0.3 0
0.83333333 0.3 0
0.86666667 0.3 0
0.9 0.3 0
0.93333333 0.3 0
0.96666667 0.3 0
1 0.3 0
0 0.33333333 0
0.033333333 0.33333333 0
0.066666667 0.33333333 0
0.1 0.33333333 0
0.13333333 0.33333333 0
0.16666667 0.33333333 0
0.2 0.33333333 0
0.23333333 0.33333333 0
0.26666667 0.33333333 0
0.3 0.33333333 0
0.33333333 0.33333333 0
0.36666667 0.33333333 0
0.4 0.33333333 0
0.43333333 0.33333333 0
0.46666667 0.33333333 0
0.5 0.33333333 0
0.53333333 0.33333333 0
0.56666667 0.33333333 0
0.6 0.33333333 0
0.63333333 0.33333333 0
0.66666667 0.33333333 0
0.7 0.33333333 0
0.73333333 0.33333333 0
0.76666667 0.33333333 0
0.8 0.33333333 0
0.83333333 0.33333333 0
0.86666667 0.33333333 0
0.9 0.33333333 0
0.93333333 0.33333333 0
0.96666667 0.33333333 0
1 0.33333333 0
0 0.36666667 0
0.033333333 0.36666667 0
0.066666667 0.36666667 0
0.1 0.36666667 0
0.13333333 0.36666667 0
0.16666667 0.36666667 0
0.2 0.36666667 0
0.23333333 0.36666667 0
0.26666667 0.36666667 0
0.3 0.36666667 0
0.33333333 0.36666667 0
0.36666667 0.36666667 0
0.4 0.36666667 0
0.43333333 0.36666667 0
0.46666667 0.36666667 0
0.5 0.36666667 0
0.53333333 0.36666667 0
0.56666667 0.36666667 0
0.6 0.36666667 0
0.63333333 0.36666667 0
0.66666667 0.36666667 0
0.7 0.36666667 0
0.73333333 0.36666667 0
0.76666667 0.36666667 0
0.8 0.36666667 0
0.83333333 0.36666667 0
0.86666667 0.36666667 0
0.9 0.36666667 0
0.93333333 0.36666667 0
0.96666667 0.36666667 0
1 0.36666667 0
0 0.4 0
0.033333333 0.4 0
0.066666667 0.4 0
0.1 0.4 0
0.13333333 0.4 0
0.16666667 0.4 0
0.2 0.4 0
0.23333333 0.4 0
0.26666667 0.4 0
0.3 0.4 0
0.33333333 0.4 0
0.36666667 0.4 0
0.4 0.4 0
0.43333333 0.4 0
0.46666667 0.4 0
0.5 0.4 0
0.53333333 0.4 0
0.56666667 0.4 0
0.6 0.4 0
0.63333333 0.4 0
0.66666667 0.4 0
0.7 0.4 0
0.73333333 0.4 0
0.76666667 0.4 0
0.8 0.4 0
0.83333333 0.4 0
0.86666667 0.4 0
0.9 0.4 0
0.93333333 0.4 0
0.96666667 0.4 0
1 0.4 0
0 0.43333333 0
0.033333333 0.43333333 0
0.066666667 0.43333333 0
0.1 0.43333333 0
0.13333333 0.43333333 0
0.16666667 0.43333333 0
0.2 0.43333333 0
0.23333333 0.43333333 0
0.26666667 0.43333333 0
0.3 0.43333333 0
0.33333333 0.43333333 0
0.36666667 0.43333333 0
0.4 0.43333333 0
0.43333333 0.43333333 0
0.46666667 0.43333333 0
0.5 0.43333333 0
0.53333333 0.43333333 0
0.56666667 0.43333333 0
0.6 0.43333333 0
0.63333333 0.43333333 0
0.66666667 0.43333333 0
0.7 0.43333333 0
0.73333333 0.43333333 0
0.76666667 0.43333333 0
0.8 0.43333333 0
0.83333333 0.43333333 0
0.86666667 0.43333333 0
0.9 0.43333333 0
0.93333333 0.43333333 0
0.96666667 0.43333333 0
1 0.43333333 0
0 0.46666667 0
0.033333333 0.46666667 0
0.066666667 0.46666667 0
0.1 0.46666667 0
0.13333333 0.46666667 0
0.16666667 0.46666667 0
0.2 0.46666667 0
0.23333333 0.46666667 0
0.26666667 0.46666667 0
0.3 0.46666667 0
0.33333333 0.46666667 0
0.36666667 0.46666667 0
0.4 0.46666667 0
0.43333333 0.46666667 0
0.46666667 0.46666667 0
0.5 0.46666667 0
0.53333333 0.46666667 0
0.56666667 0.46666667 0
0.6 0.46666667 0
0.63333333 0.46666667 0
0.66666667 0.46666667 0
0.7 0.46666667 0
0.73333333 0.46666667 0
0.76666667 0.46666667 0
0.8 0.46666667 0
0.83333333 0.46666667 0
0.86666667 0.46666667 0
0.9 0.46666667 0
0.93333333 0.46666667 0
0.96666667 0.46666667 0
1 0.46666667 0
0 0.5 0
0.033333333 0.5 0
0.066666667 0.5 0
0.1 0.5 0
0.13333333 0.5 0
0.16666667 0.5 0
0.2 0.5 0
0.23333333 0.5 0
0.26666667 0.5 0
0.3 0.5 0
0.33333333 0.5 0
0.36666667 0.5 0
0.4 0.5 0
0.43333333 0.5 0
0.46666667 0.5 0
0.5 0.5 0
0.53333333 0.5 0
0.56666667 0.5 0
0.6 0.5 0
0.63333333 0.5 0
0.66666667 0.5 0
0.7 0.5 0
0.73333333 0.5 0
0.76666667 0.5 0
0.8 0.5 0
0.83333333 0.5 0
0.86666667 0.5 0
0.9 0.5 0
0.93333333 0.5 0
0.96666667 0.5 0
1 0.5 0
0 0.53333333 0
0.033333333 0.53333333 0
0.066666667 0.53333333 0
0.1 0.53333333 0
0.13333333 0.53333333 0
0.16666667 0.53333333 0
0.2 0.53333333 0
0.23333333 0.53333333 0
0.26666667 0.53333333 0
0.3 0.53333333 0
0.33333333 0.53333333 0
0.36666667 0.53333333 0
0.4 0.53333333 0
0.43333333 0.53333333 0
0.46666667 0.53333333 0
0.5 0.53333333 0
0.53333333 0.53333333 0
0.56666667 0.53333333 0
0.6 0.53333333 0
0.63333333 0.53333333 0
0.66666667 0.53333333 0
0.7 0.53333333 0
0.73333333 0.53333333 0
0.76666667 0.53333333 0
[...]
CELL_DATA 1920
Scalars  Label int 1
LOOKUP_TABLE FreeFempp_table
0
0
0
0
0
0
0
0
0
0
0
0
0
0
0
0
0
0
0
0
0
0
0
0
0
0
0
0
0
0
0
0
0
0
0
0
0
0
0
0
0
0
0
0
0
0
0
0
0
0
0
0
0
0
0
0
0
0
0
0
0
0
0
0
0
0
0
0
0
0
0
0
0
0
0
0
0
0
0
0
0
0
0
0
0
0
0
0
0
0
0
0
0
0
0
0
0
0
0
0
0
0
0
0
0
0
0
0
0
0
0
0
0
0
0
0
0
0
0
0
0
0
0
0
0
0
0
0
0
0
0
0
0
0
0
0
0
0
0
0
0
0
0
0
0
0
0
0
0
0
0
0
0
0
0
0
0
0
0
0
0
0
0
0
0
0
0
0
0
0
0
0
0
0
0
0
0
0
0
0
0
0
0
0
0
0
0
0
0
0
0
0
0
0
0
0
0
0
0
0
0
0
0
0
0
0
0
0
0
0
0
0
0
0
0
0
0
0
0
0
0
0
0
0
0
0
0
0
0
0
0
0
0
0
0
0
0
0
0
0
0
0
0
0
0
0
0
0
0
0
0
0
0
0
0
0
0
0
0
0
0
0
0
0
0
0
0
0
0
0
0
0
0
0
0
0
0
0
0
0
0
0
0
0
0
0
0
0
0
0
0
0
0
0
0
0
0
0
0
0
0
0
0
0
0
0
0
0
0
0
0
0
0
0
0
0
0
0
0
0
0
0
0
0
0
0
0
0
0
0
0
0
0
0
0
0
0
0
0
0
0
0
0
0
0
0
0
0
0
0
0
0
0
0
0
0
0
0
0
0
0
0
0
0
0
0
0
0
0
0
0
0
0
0
0
0
0
0
0
0
0
0
0
0
0
0
0
0
0
0
0
0
0
0
0
0
0
0
0
0
0
0
0
0
0
0
0
0
0
0
0
0
0
0
0
0
0
0
0
0
0
0
0
0
0
0
0
0
0
0
0
0
0
0
0
0
0
0
0
0
0
0
0
0
0
0
0
0
0
0
0
0
0
0
0
0
0
0
0
0
0
0
0
0
0
0
0
0
0
0
0
0
0
0
0
0
0
0
0
0
0
0
0
0
0
0
0
0
0
0
0
0
0
0
0
0
0
0
0
0
0
0
0
0
0
0
0
0
0
0
0
0
0
0
0
0
0
0
0
0
0
0
0
0
0
0
0
0
0
0
0
0
0
0
0
0
0
0
0
0
0
0
0
0
0
0
0
0
0
0
0
0
0
0
0
0
0
0
0
0
0
0
0
0
0
0
0
0
0
0
0
0
0
0
0
0
0
0
0
0
0
0
0
0
0
0
0
0
0
0
0
0
0
0
0
0
0
0
0
0
0
0
0
0
0
0
0
0
0
0
0
0
0
0
0
0
0
0
0
0
0
0
0
0
0
0
0
0
0
0
0
0
0
0
0
0
0
0
0
0
0
0
0
0
0
0
0
0
0
0
0
0
0
0
0
0
0
0
0
0
0
0
0
0
0
0
0
0
0
0
0
0
0
0
0
0
0
0
0
0
0
0
0
0
0
0
0
0
0
0
0
0
0
0
0
0
0
0
0
0
0
0
0
0
0
0
0
0
0
0
0
0
0
0
0
0
0
0
0
0
0
0
0
0
0
0
0
0
0
0
0
0
0
0
0
0
0
0
0
0
0
0
0
0
0
0
0
0
0
0
0
0
0
0
0
0
0
0
0
0
0
0
0
0
0
0
0
0
0
0
0
0
0
0
0
0
0
0
0
0
0
0
0
0
0
0
0
0
0
0
0
0
0
0
0
0
0
0
0
0
0
0
0
0
0
0
0
0
0
0
0
0
0
0
0
0
0
0
0
0
0
0
0
0
0
0
0
0
0
0
0
0
0
0
0
0
0
0
0
0
0
0
0
0
0
0
0
0
0
0
0
0
0
0
0
0
0
0
0
0
0
0
0
0
0
0
0
0
0
0
0
0
0
0
0
0
0
0
0
0
0
0
0
0
0
0
0
0
0
0
0
0
0
0
0
0
0
0
0
0
0
0
0
0
0
0
0
0
0
0
0
0
0
0
0
0
0
0
0
0
0
0
0
0
0
0
0
0
0
0
0
0
0
0
0
0
0
0
0
0
0
0
0
0
0
0
0
0
0
0
0
0
0
0
0
0
0
0
0
0
0
0
0
0
0
0
0
0
0
0
0
0
0
0
0
0
0
0
0
0
0
0
0
0
0
0
0
0
0
0
0
0
0
0
0
0
0
0
0
0
0
0
0
0
0
0
0
0
0
0
0
0
0
0
0
0
0
0
0
0
0
0
0
0
0
0
0
0
0
0
0
0
0
0
0
0
0
0
0
0
0
0
0
0
0
0
0
0
0
0
0
0
0
0
0
0
0
0
0
0
0
0
0
0
0
0
0
0
0
0
0
0
0
0
0
0
0
0
0
0
0
0
0
0
0
0
0
0
0
0
0
0
0
0
0
0
0
0
0
0
0
0
0
0
0
0
0
0
0
0
0
0
0
0
0
0
0
0
0
0
0
0
0
0
0
0
0
0
0
0
0
0
0
0
0
0
0
0
0
0
0
0
0
0
0
0
0
0
0
0
0
0
0
0
0
0
0
0
0
0
0
0
0
0
0
0
0
0
0
0
0
0
0
0
0
0
0
0
0
0
0
0
0
0
0
0
0
0
0
0
0
0
0
0
0
0
0
0
0
0
0
0
0
0
0
0
0
0
0
0
0
0
0
0
0
0
0
0
0
0
0
0
0
0
0
0
0
0
0
0
0
0
0
0
0
0
0
0
0
0
0
0
0
0
0
0
0
0
0
0
0
0
0
0
0
0
0
0
0
0
0
0
0
0
0
0
0
0
0
0
0
0
0
0
0
0
0
0
0
0
0
0
0
0
0
0
0
0
0
0
0
0
0
0
0
0
0
0
0
0
0
0
0
0
0
0
0
0
0
0
0
0
0
0
0
0
0
0
0
0
0
0
0
0
0
0
0
0
0
0
0
0
0
0
0
0
0
0
0
0
0
0
0
0
0
0
0
0
0
0
0
0
0
0
0
0
0
0
0
0
0
0
0
0
0
0
0
0
0
0
0
0
0
0
0
0
0
0
0
0
0
0
0
0
0
0
0
0
0
0
0
0
0
0
0
0
0
0
0
0
0
0
0
0
0
0
0
0
0
0
0
0
0
0
0
0
0
0
0
0
0
0
0
0
0
0
0
0
0
0
0
0
0
0
0
0
0
0
0
0
0
0
0
0
0
0
0
0
0
0
0
0
0
0
0
0
0
0
0
0
0
0
0
0
0
0
0
0
0
0
0
0
0
0
0
0
0
0
0
0
0
0
0
0
0
0
0
0
0
0
0
0
0
0
0
0
0
0
0
0
0
0
0
0
0
0
0
0
0
0
0
0
0
0
0
0
0
0
0
0
0
0
0
0
0
0
0
0
0
0
0
0
0
0
0
0
0
0
0
0
0
0
0
0
0
0
0
0
0
0
0
0
0
0
0
0
0
0
0
0
0
0
0
0
0
0
0
0
0
0
0
0
0
0
0
0
0
0
0
0
0
0
0
0
0
0
0
0
0
0
0
0
0
0
0
0
0
0
0
0
0
0
0
0
0
0
0
0
0
0
0
0
0
0
0
0
0
0
0
0
0
0
0
0
0
0
0
0
0
0
0
0
0
0
0
0
0
0
0
0
0
0
0
0
0
0
0
0
0
0
0
0
0
0
0
0
0
0
0
0
0
0
0
0
0
0
0
0
0
0
0
0
0
0
0
0
0
0
0
0
0
0
0
0
0
0
0
0
0
0
0
0
0
0
0
0
0
0
0
0
0
0
0
0
0
0
0
0
0
0
0
0
0
0
0
0
0
0
0
0
0
0
0
0
0
0
0
0
0
0
0
0
0
0
0
0
0
0
0
0
0
0
0
0
0
0
0
0
0
0
0
0
0
0
0
0
0
0
0
0
0
0
0
0
0
0
0
0
0
0
0
0
0
0
0
0
0
0
0
0
0
0
0
0
0
0
0
0
0
0
0
0
0
0
0
0
0
0
0
0
1
1
1
1
1
1
1
1
1
1
1
1
1
1
1
1
1
1
1
1
1
1
1
1
1
1
1
1
1
1
2
2
2
2
2
2
2
2
2
2
2
2
2
2
2
2
2
2
2
2
2
2
2
2
2
2
2
2
2
2
3
3
3
3
3
3
3
3
3
3
3
3
3
3
3
3
3
3
3
3
3
3
3
3
3
3
3
3
3
3
4
4
4
4
4
4
4
4
4
4
4
4
4
4
4
4
4
4
4
4
4
4
4
4
4
4
4
4
4
4

LOOKUP_TABLE FreeFempp_table 5
1.00000000 0.00000000 0.00000000 1.00000000
1.00000000 1.00000000 0.00000000 1.00000000
1.00000000 0.00000000 1.00000000 1.00000000
0.00000000 1.00000000 0.00000000 1.00000000
0.00000000 1.00000000 1.00000000 1.00000000

POINT_DATA 961
FIELD FieldData 1
Density 1 961 float
4.15368706e-01 3.43169928e-01 3.20389479e-01 3.15229446e-01 3.13376993e-01 3.11690390e-01 3.07241589e-01 2.92938083e-01 2.59830594e-01 2.19170183e-01 2.14432076e-01 2.69870132e-01 3.00661266e-01 2.64096588e-01 2.32033044e-01 2.37492472e-01 2.77777076e-01 4.12753373e-01 6.81499064e-01 7.38816261e-01 5.27426124e-01 5.08809924e-01 4.47993726e-01 4.16550547e-01 3.97313565e-01 4.52061087e-01 5.49166024e-01 6.47516072e-01 7.22710967e-01 7.37319291e-01 6.71415448e-01 3.21765304e-01 2.53583759e-01 2.24201828e-01 2.19812199e-01 2.18740806e-01 2.17634663e-01 2.14485511e-01 2.04824924e-01 1.81853309e-01 1.48829937e-01 1.29767463e-01 1.81454390e-01 2.57441938e-01 2.30277643e-01 1.90895632e-01 1.90214887e-01 2.20188320e-01 3.23854595e-01 6.66836262e-01 7.23281682e-01 1.85725510e-01 1.74592048e-01 2.46508062e-01 3.00435722e-01 3.14403117e-01 3.73402178e-01 5.00813484e-01 6.49954677e-01 7.55123198e-01 7.88795292e-01 7.27067053e-01 2.29468625e-02 2.46099513e-02 1.94379482e-02 1.95383560e-02 1.96632296e-02 1.97677314e-02 1.97613779e-02 1.93252005e-02 1.77374091e-02 1.51640521e-02 1.48978569e-02 4.11204621e-02 2.17050269e-01 2.27224141e-01 1.84423447e-01 1.97876602e-01 2.44688913e-01 2.72559166e-01 4.80823040e-01 8.19778621e-01 1.68514639e-01 2.28264648e-02 3.61467339e-02 9.53784510e-02 2.04767525e-01 2.87201136e-01 4.06551540e-01 5.67490339e-01 6.98020935e-01 7.45168567e-01 6.97679639e-01 6.48984760e-02 5.86031079e-02 5.73146157e-02 5.73054552e-02 5.64904623e-02 5.53568304e-02 5.39025329e-02 5.22265770e-02 5.03572039e-02 4.90990207e-02 4.52456027e-02 2.23715287e-02 1.76396519e-02 2.68420950e-02 2.29468867e-02 3.93648408e-02 1.56504154e-01 2.33881831e-01 2.71656364e-01 6.41670883e-01 5.79175711e-01 1.74702078e-01 7.10073784e-02 1.67802367e-02 8.59902650e-02 2.33767122e-01 3.51035327e-01 4.96609032e-01 6.33097649e-01 6.87909186e-01 6.49414778e-01 6.29606307e-01 6.59147322e-01 6.57425523e-01 6.51557624e-01 6.44004524e-01 6.33243680e-01 6.18669748e-01 6.00920379e-01 5.80461860e-01 5.56526661e-01 5.15766978e-01 3.53366733e-01 8.80475640e-02 5.38189858e-02 4.85473201e-02 2.69182213e-02 1.27012692e-02 2.84644198e-02 2.93572173e-02 6.33504838e-02 1.70403570e-01 7.17654407e-01 7.11157680e-01 1.19568698e-01 2.39251629e-02 1.70545146e-01 3.38267177e-01 4.61582094e-01 5.92426598e-01 6.47637367e-01 6.18469477e-01 6.98698401e-01 7.65538871e-01 7.68261433e-01 7.63616979e-01 7.61471212e-01 7.59511828e-01 7.57267296e-01 7.54201472e-01 7.49631226e-01 7.43312538e-01 7.37182736e-01 7.21837223e-01 6.63845837e-01 6.02069378e-01 5.42551339e-01 4.01229799e-01 9.23473090e-02 4.04694341e-02 1.66426040e-02 6.43308973e-03 7.09598837e-03 7.71253258e-02 2.17986181e-01 5.49981356e-01 1.23042464e-01 4.10103016e-02 2.81502306e-01 4.51499850e-01 5.73177695e-01 6.24662280e-01 5.99457324e-01 6.07916117e-01 6.58191383e-01 6.55943930e-01 6.39634311e-01 6.28466487e-01 6.27278805e-01 6.41240060e-01 6.67443871e-01 6.95065439e-01 7.14381158e-01 7.24265695e-01 7.31221616e-01 7.40261495e-01 7.42181718e-01 7.27512062e-01 7.04417050e-01 6.25017107e-01 4.82017100e-01 2.50993758e-01 9.94234681e-02 4.33018729e-02 2.08280087e-02 1.85730588e-02 1.75016657e-01 6.74000144e-01 7.27101415e-02 5.33614457e-02 3.61378759e-01 5.67414880e-01 6.16343260e-01 5.91579318e-01 4.97903526e-01 4.84395891e-01 4.60392654e-01 4.23487335e-01 3.89783323e-01 3.75237852e-01 3.96001428e-01 4.58951294e-01 5.45212746e-01 6.17690086e-01 6.61193371e-01 6.84962094e-01 7.01831937e-01 7.15601563e-01 7.23840594e-01 7.30634272e-01 7.43977547e-01 7.48693645e-01 6.99998558e-01 5.80822229e-01 3.78133565e-01 1.55027643e-01 5.32085411e-02 4.69300933e-02 3.04367781e-01 1.70178860e-01 3.45761562e-03 8.67396146e-02 5.34280181e-01 6.21062160e-01 5.92639029e-01 4.25793082e-01 3.43945324e-01 2.82918930e-01 2.37659723e-01 2.00650990e-01 1.83911517e-01 2.00414285e-01 2.67513663e-01 3.88089478e-01 5.13659418e-01 5.98109782e-01 6.44858241e-01 6.72648907e-01 6.92588985e-01 7.07800627e-01 7.19281614e-01 7.31159747e-01 7.44190931e-01 7.46192753e-01 7.21563578e-01 6.52289212e-01 4.58170861e-01 1.63911283e-01 7.79792890e-02 2.39050791e-01 7.22572863e-01 6.78706393e-02 5.49654365e-02 5.18598199e-01 6.44011557e-01 6.02982104e-01 3.89039904e-01 2.59291470e-01 1.70830160e-01 1.30414560e-01 1.07197605e-01 1.01513468e-01 1.21476725e-01 1.88178942e-01 3.13368589e-01 4.55121756e-01 5.55329323e-01 6.10407889e-01 6.41067386e-01 6.61619246e-01 6.77621424e-01 6.88726366e-01 6.92380488e-01 6.87888145e-01 6.75568461e-01 6.52630806e-01 6.14750504e-01 5.27393997e-01 3.36258024e-01 2.43403986e-01 6.58512115e-01 7.31981754e-01 9.25398543e-02 4.56295684e-02 5.06590247e-01 6.64625823e-01 6.19842887e-01 3.69783103e-01 2.06786171e-01 1.11090146e-01 8.36474076e-02 7.53659308e-02 7.88116679e-02 1.09051950e-01 1.91099808e-01 3.24824363e-01 4.55638021e-01 5.39106846e-01 5.82452595e-01 6.06237054e-01 6.22899354e-01 6.37027800e-01 6.47586405e-01 6.50086045e-01 6.41579151e-01 6.24725699e-01 6.02797329e-01 5.74588120e-01 5.38285315e-01 5.16268253e-01 6.22666061e-01 8.26527834e-01 5.50022483e-01 5.74781410e-02 3.53851169e-02 4.49838132e-01 6.82055175e-01 6.42393589e-01 3.56853634e-01 1.67586297e-01 7.78368190e-02 6.22716397e-02 6.58264682e-02 8.26841071e-02 1.37442604e-01 2.55632937e-01 3.94691110e-01 4.91940081e-01 5.39580643e-01 5.61007500e-01 5.74049473e-01 5.86353958e-01 5.99742055e-01 6.12686753e-01 6.21887147e-01 6.24940634e-01 6.23141527e-01 6.19420350e-01 6.15577877e-01 6.18428290e-01 6.56886876e-01 7.76745975e-01 8.17099810e-01 3.12394828e-01 3.19814011e-02 2.83808503e-02 3.26382935e-01 6.90145671e-01 6.70965850e-01 3.44404161e-01 1.32337838e-01 5.36127687e-02 4.77157272e-02 6.45142719e-02 1.08867049e-01 2.13957757e-01 3.65304440e-01 4.78084534e-01 5.27132690e-01 5.39806902e-01 5.42440236e-01 5.47235131e-01 5.57541609e-01 5.73036551e-01 5.91936350e-01 6.12237036e-01 6.32550955e-01 6.52756214e-01 6.73337638e-01 6.94153011e-01 7.14512110e-01 7.37188101e-01 7.70069122e-01 6.81114078e-01 1.81382135e-01 2.14461647e-02 3.09848003e-02 2.83072770e-01 7.00798512e-01 7.01311588e-01 3.29407096e-01 1.01274185e-01 3.72911468e-02 3.94069105e-02 7.42526799e-02 1.66613132e-01 3.31136376e-01 4.73684847e-01 5.33878446e-01 5.41492462e-01 5.32774627e-01 5.26071072e-01 5.27618289e-01 5.38442552e-01 5.57623684e-01 5.83568692e-01 6.14807129e-01 6.50063634e-01 6.87779665e-01 7.25322962e-01 7.57324159e-01 7.71783173e-01 7.44940817e-01 6.54994190e-01 4.58223820e-01 1.29111335e-01 2.32112985e-02 3.54049988e-02 2.75155604e-01 7.13419557e-01 7.21773267e-01 3.14988792e-01 7.60820284e-02 2.69082803e-02 3.68548594e-02 9.82423276e-02 2.54851997e-01 4.45495099e-01 5.41920125e-01 5.54427922e-01 5.38335204e-01 5.21947503e-01 5.13800979e-01 5.15868843e-01 5.28405845e-01 5.50892711e-01 5.82182944e-01 6.20734990e-01 6.64585769e-01 7.10881591e-01 7.54908741e-01 7.88191676e-01 7.93821514e-01 7.33091950e-01 5.55042207e-01 3.22918206e-01 1.18515737e-01 3.17671709e-02 3.99676412e-02 2.71776408e-01 7.25735605e-01 7.37741113e-01 3.12547147e-01 6.03688769e-02 1.96474176e-02 4.10617702e-02 1.41154751e-01 3.56772214e-01 5.21485329e-01 5.67284346e-01 5.52319705e-01 5.28127551e-01 5.12148798e-01 5.06264925e-01 5.10270298e-01 5.24363339e-01 5.48585057e-01 5.82127571e-01 6.23158216e-01 6.69021666e-01 7.16318309e-01 7.60114968e-01 7.92211592e-01 7.98011899e-01 7.46161401e-01 5.87417603e-01 3.54794651e-01 1.49399057e-01 4.53598909e-02 4.47955802e-02 2.51584679e-01 7.37025380e-01 7.55038679e-01 3.20836395e-01 5.26363291e-02 1.45271551e-02 5.62685542e-02 2.12003186e-01 4.46730167e-01 5.53549290e-01 5.63733757e-01 5.40309250e-01 5.17759562e-01 5.05188048e-01 5.02032042e-01 5.07581890e-01 5.22216856e-01 5.46274245e-01 5.79022348e-01 6.18375778e-01 6.61396563e-01 7.04863608e-01 7.44791269e-01 7.75130093e-01 7.86557674e-01 7.63783276e-01 6.86177850e-01 5.36215186e-01 2.61763781e-01 6.90631792e-02 4.77951132e-02 2.15743721e-01 7.45912313e-01 7.74951816e-01 3.07137698e-01 4.80866097e-02 1.36567270e-02 9.40628946e-02 3.22494090e-01 5.06040990e-01 5.55529416e-01 5.47434509e-01 5.26618183e-01 5.09395421e-01 5.00203490e-01 4.98671770e-01 5.04551768e-01 5.18409014e-01 5.40585518e-01 5.70238292e-01 6.05131328e-01 6.42314851e-01 6.78956926e-01 7.12240577e-01 7.38661587e-01 7.54148185e-01 7.55070508e-01 7.41127074e-01 7.03942657e-01 4.93758261e-01 1.21942200e-01 4.80504669e-02 1.62300125e-01 7.45537996e-01 7.95247197e-01 1.80153057e-01 3.40481512e-02 2.19310727e-02 1.73161566e-01 4.29575264e-01 5.31639993e-01 5.43016374e-01 5.30253172e-01 5.14731944e-01 5.02179742e-01 4.95076597e-01 4.93841827e-01 4.98850942e-01 5.10747671e-01 5.29719114e-01 5.54760695e-01 5.83569229e-01 6.13227904e-01 6.41099155e-01 6.65099502e-01 6.83729291e-01 6.97035968e-01 7.08307922e-01 7.24360883e-01 7.45486379e-01 6.78793371e-01 2.65287042e-01 8.74519870e-02 1.49041384e-01 7.44893134e-01 8.14044058e-01 3.86890322e-02 1.28987776e-02 3.62260565e-02 3.08746338e-01 4.88735318e-01 5.32655418e-01 5.27325749e-01 5.15949428e-01 5.04123509e-01 4.94222909e-01 4.87909406e-01 4.86050397e-01 4.89370525e-01 4.98475671e-01 5.13365984e-01 5.32914519e-01 5.54812610e-01 5.76140702e-01 5.94171107e-01 6.06942773e-01 6.13965154e-01 6.17982864e-01 6.26811445e-01 6.51280642e-01 6.96384907e-01 7.32483208e-01 6.12613678e-01 3.08795333e-01 3.94953310e-01 8.09585094e-01 8.40294778e-01 1.07152844e-02 6.26309449e-03 4.94996831e-02 3.82994801e-01 5.11711538e-01 5.23285031e-01 5.14171958e-01 5.03531814e-01 4.93087381e-01 4.84151125e-01 4.77764636e-01 4.74803269e-01 4.76025134e-01 4.81914461e-01 4.92313266e-01 5.06044328e-01 5.20863414e-01 5.33868313e-01 5.42146206e-01 5.43487549e-01 5.37587523e-01 5.28375506e-01 5.26138902e-01 5.44877946e-01 5.94101608e-01 6.68428659e-01 7.26058781e-01 7.12945402e-01 7.60089815e-01 8.77829909e-01 8.52162421e-01 3.06192739e-03 1.45195406e-02 9.12175924e-02 4.20380265e-01 5.15590310e-01 5.12605190e-01 5.02453327e-01 4.91169721e-01 4.80687380e-01 4.71686006e-01 4.64724243e-01 4.60459352e-01 4.59486067e-01 4.62115049e-01 4.68067616e-01 4.76190895e-01 4.84400660e-01 4.89941955e-01 4.89869565e-01 4.81755644e-01 4.65074152e-01 4.43729073e-01 4.28323716e-01 4.34029162e-01 4.73806590e-01 5.52824259e-01 6.58353150e-01 7.54960060e-01 8.33678424e-01 8.78706574e-01 8.27340126e-01 1.29480474e-03 3.47290337e-02 2.68724203e-01 4.68667954e-01 5.13391137e-01 5.01686990e-01 4.90401536e-01 4.78291780e-01 4.67190951e-01 4.57559258e-01 4.49727446e-01 4.44101572e-01 4.41041052e-01 4.40663487e-01 4.42600995e-01 4.45789129e-01 4.48411196e-01 4.48051542e-01 4.42022413e-01 4.27944452e-01 4.04991895e-01 3.76204520e-01 3.50781083e-01 3.42990011e-01 3.67179185e-01 4.33523506e-01 5.40426791e-01 6.61202073e-01 7.58985579e-01 8.07299972e-01 7.61760771e-01 8.16493994e-04 4.18133736e-02 3.71296227e-01 4.93248492e-01 5.02613366e-01 4.90694493e-01 4.78256762e-01 4.65294152e-01 4.53410566e-01 4.42979395e-01 4.34214681e-01 4.27321225e-01 4.22444224e-01 4.19530630e-01 4.18159455e-01 4.17405307e-01 4.15803194e-01 4.11437362e-01 4.02135581e-01 3.85846406e-01 3.61525863e-01 3.30921739e-01 3.00738484e-01 2.82828271e-01 2.91187167e-01 3.38302284e-01 4.27009940e-01 5.36243379e-01 6.28516853e-01 6.80817664e-01 6.64077520e-01 4.25914506e-04 4.28119116e-02 3.94321799e-01 4.93483126e-01 4.91105914e-01 4.80189174e-01 4.66270924e-01 4.52571869e-01 4.40187067e-01 4.29230422e-01 4.19793099e-01 4.11951125e-01 4.05707061e-01 4.00895834e-01 3.97089839e-01 3.93535405e-01 3.89149457e-01 3.82575482e-01 3.72274339e-01 3.56695116e-01 3.34755391e-01 3.06982011e-01 2.77269751e-01 2.54007220e-01 2.49078810e-01 2.75432080e-01 3.39651883e-01 4.25256401e-01 4.97339666e-01 5.44878364e-01 5.64383507e-01 6.18370686e-05 4.33050394e-02 4.02577221e-01 4.91190672e-01 4.81199086e-01 4.68544781e-01 4.54025865e-01 4.40565586e-01 4.28470463e-01 4.17641371e-01 4.08098936e-01 3.99867088e-01 3.92883182e-01 3.86937201e-01 3.81637841e-01 3.76407593e-01 3.70510489e-01 3.63095134e-01 3.53221208e-01 3.39885622e-01 3.22195321e-01 2.99958736e-01 2.74844587e-01 2.51604706e-01 2.38274246e-01 2.45229036e-01 2.81341821e-01 3.41284186e-01 3.96466911e-01 4.40838337e-01 4.88150686e-01 -3.07623151e-04 4.38104421e-02 4.09478933e-01 4.88701254e-01 4.70777392e-01 4.56260562e-01 4.42568898e-01 4.30499196e-01 4.19595987e-01 4.09673750e-01 4.00744796e-01 3.92822802e-01 3.85824502e-01 3.79535526e-01 3.73615742e-01 3.67631763e-01 3.61107230e-01 3.53565753e-01 3.44535619e-01 3.33514690e-01 3.19980770e-01 3.03631842e-01 2.85007864e-01 2.66258985e-01 2.51297235e-01 2.45208740e-01 2.53405869e-01 2.81449378e-01 3.25747967e-01 3.75076503e-01 4.38857973e-01 -7.15494214e-04 4.44248766e-02 4.16930348e-01 4.84351695e-01 4.59734768e-01 4.45194632e-01 4.33707356e-01 4.23957705e-01 4.15029287e-01 4.06750619e-01 3.99154991e-01 3.92243475e-01 3.85907203e-01 3.79918694e-01 3.73960823e-01 3.67680997e-01 3.60757500e-01 3.52953047e-01 3.44129026e-01 3.34210634e-01 3.23139966e-01 3.10916752e-01 2.97831327e-01 2.84763426e-01 2.72997350e-01 2.63282269e-01 2.54531801e-01 2.52692282e-01 2.74779111e-01 3.31150830e-01 4.08533752e-01 -2.35043745e-03 4.49680611e-02 4.26584303e-01 4.77294266e-01 4.48599517e-01 4.36674654e-01 4.28558886e-01 4.21759903e-01 4.15410250e-01 4.09431815e-01 4.03828800e-01 3.98509413e-01 3.93260270e-01 3.87768358e-01 3.81669015e-01 3.74615848e-01 3.66362780e-01 3.56837183e-01 3.46177876e-01 3.34716439e-01 3.22898954e-01 3.11180979e-01 2.99974591e-01 2.89663196e-01 2.80419946e-01 2.71531284e-01 2.61084646e-01 2.54990995e-01 2.65314490e-01 2.91279465e-01 3.82336229e-01 -2.62337364e-03 5.01819476e-02 4.59025323e-01 4.81330156e-01 4.50004578e-01 4.42036748e-01 4.37353522e-01 4.33593839e-01 4.30237561e-01 4.27194655e-01 4.24286216e-01 4.21200126e-01 4.17524099e-01 4.12794888e-01 4.06555921e-01 3.98426741e-01 3.88184071e-01 3.75845432e-01 3.61730874e-01 3.46460909e-01 3.30838948e-01 3.15598518e-01 3.01122993e-01 2.87411004e-01 2.74430513e-01 2.62246251e-01 2.51391768e-01 2.54218459e-01 2.84767061e-01 2.53763318e-01 3.34962517e-01 6.94276486e-03 5.14546707e-02 5.23034096e-01 5.24608195e-01 4.79667068e-01 4.75333661e-01 4.72169876e-01 4.70114678e-01 4.68721092e-01 4.67742920e-01 4.66862261e-01 4.65685695e-01 4.63768959e-01 4.60657388e-01 4.55929220e-01 4.49239433e-01 4.40369338e-01 4.29287404e-01 4.16214675e-01 4.01660562e-01 3.86357993e-01 3.71027917e-01 3.56023937e-01 3.41185093e-01 3.26370537e-01 3.12459677e-01 3.01972628e-01 3.04519773e-01 3.32646549e-01 2.84082055e-01 2.86982000e-01 
