# vtk DataFile Version 2.0
results_case1_non_linear/12_density.vtk, Created by Freefem++ 
ASCII
DATASET UNSTRUCTURED_GRID
POINTS 961 float
0 0 0
0.033333333 0 0
0.066666667 0 0
0.1 0 0
0.13333333 0 0
0.16666667 0 0
0.2 0 0
0.23333333 0 0
0.26666667 0 0
0.3 0 0
0.33333333 0 0
0.36666667 0 0
0.4 0 0
0.43333333 0 0
0.46666667 0 0
0.5 0 0
0.53333333 0 0
0.56666667 0 0
0.6 0 0
0.63333333 0 0
0.66666667 0 0
0.7 0 0
0.73333333 0 0
0.76666667 0 0
0.8 0 0
0.83333333 0 0
0.86666667 0 0
0.9 0 0
0.93333333 0 0
0.96666667 0 0
1 0 0
0 0.033333333 0
0.033333333 0.033333333 0
0.066666667 0.033333333 0
0.1 0.033333333 0
0.13333333 0.033333333 0
0.16666667 0.033333333 0
0.2 0.033333333 0
0.23333333 0.033333333 0
0.26666667 0.033333333 0
0.3 0.033333333 0
0.33333333 0.033333333 0
0.36666667 0.033333333 0
0.4 0.033333333 0
0.43333333 0.033333333 0
0.46666667 0.033333333 0
0.5 0.033333333 0
0.53333333 0.033333333 0
0.56666667 0.033333333 0
0.6 0.033333333 0
0.63333333 0.033333333 0
0.66666667 0.033333333 0
0.7 0.033333333 0
0.73333333 0.033333333 0
0.76666667 0.033333333 0
0.8 0.033333333 0
0.83333333 0.033333333 0
0.86666667 0.033333333 0
0.9 0.033333333 0
0.93333333 0.033333333 0
0.96666667 0.033333333 0
1 0.033333333 0
0 0.066666667 0
0.033333333 0.066666667 0
0.066666667 0.066666667 0
0.1 0.066666667 0
0.13333333 0.066666667 0
0.16666667 0.066666667 0
0.2 0.066666667 0
0.23333333 0.066666667 0
0.26666667 0.066666667 0
0.3 0.066666667 0
0.33333333 0.066666667 0
0.36666667 0.066666667 0
0.4 0.066666667 0
0.43333333 0.066666667 0
0.46666667 0.066666667 0
0.5 0.066666667 0
0.53333333 0.066666667 0
0.56666667 0.066666667 0
0.6 0.066666667 0
0.63333333 0.066666667 0
0.66666667 0.066666667 0
0.7 0.066666667 0
0.73333333 0.066666667 0
0.76666667 0.066666667 0
0.8 0.066666667 0
0.83333333 0.066666667 0
0.86666667 0.066666667 0
0.9 0.066666667 0
0.93333333 0.066666667 0
0.96666667 0.066666667 0
1 0.066666667 0
0 0.1 0
0.033333333 0.1 0
0.066666667 0.1 0
0.1 0.1 0
0.13333333 0.1 0
0.16666667 0.1 0
0.2 0.1 0
0.23333333 0.1 0
0.26666667 0.1 0
0.3 0.1 0
0.33333333 0.1 0
0.36666667 0.1 0
0.4 0.1 0
0.43333333 0.1 0
0.46666667 0.1 0
0.5 0.1 0
0.53333333 0.1 0
0.56666667 0.1 0
0.6 0.1 0
0.63333333 0.1 0
0.66666667 0.1 0
0.7 0.1 0
0.73333333 0.1 0
0.76666667 0.1 0
0.8 0.1 0
0.83333333 0.1 0
0.86666667 0.1 0
0.9 0.1 0
0.93333333 0.1 0
0.96666667 0.1 0
1 0.1 0
0 0.13333333 0
0.033333333 0.13333333 0
0.066666667 0.13333333 0
0.1 0.13333333 0
0.13333333 0.13333333 0
0.16666667 0.13333333 0
0.2 0.13333333 0
0.23333333 0.13333333 0
0.26666667 0.13333333 0
0.3 0.13333333 0
0.33333333 0.13333333 0
0.36666667 0.13333333 0
0.4 0.13333333 0
0.43333333 0.13333333 0
0.46666667 0.13333333 0
0.5 0.13333333 0
0.53333333 0.13333333 0
0.56666667 0.13333333 0
0.6 0.13333333 0
0.63333333 0.13333333 0
0.66666667 0.13333333 0
0.7 0.13333333 0
0.73333333 0.13333333 0
0.76666667 0.13333333 0
0.8 0.13333333 0
0.83333333 0.13333333 0
0.86666667 0.13333333 0
0.9 0.13333333 0
0.93333333 0.13333333 0
0.96666667 0.13333333 0
1 0.13333333 0
0 0.16666667 0
0.033333333 0.16666667 0
0.066666667 0.16666667 0
0.1 0.16666667 0
0.13333333 0.16666667 0
0.16666667 0.16666667 0
0.2 0.16666667 0
0.23333333 0.16666667 0
0.26666667 0.16666667 0
0.3 0.16666667 0
0.33333333 0.16666667 0
0.36666667 0.16666667 0
0.4 0.16666667 0
0.43333333 0.16666667 0
0.46666667 0.16666667 0
0.5 0.16666667 0
0.53333333 0.16666667 0
0.56666667 0.16666667 0
0.6 0.16666667 0
0.63333333 0.16666667 0
0.66666667 0.16666667 0
0.7 0.16666667 0
0.73333333 0.16666667 0
0.76666667 0.16666667 0
0.8 0.16666667 0
0.83333333 0.16666667 0
0.86666667 0.16666667 0
0.9 0.16666667 0
0.93333333 0.16666667 0
0.96666667 0.16666667 0
1 0.16666667 0
0 0.2 0
0.033333333 0.2 0
0.066666667 0.2 0
0.1 0.2 0
0.13333333 0.2 0
0.16666667 0.2 0
0.2 0.2 0
0.23333333 0.2 0
0.26666667 0.2 0
0.3 0.2 0
0.33333333 0.2 0
0.36666667 0.2 0
0.4 0.2 0
0.43333333 0.2 0
0.46666667 0.2 0
0.5 0.2 0
0.53333333 0.2 0
0.56666667 0.2 0
0.6 0.2 0
0.63333333 0.2 0
0.66666667 0.2 0
0.7 0.2 0
0.73333333 0.2 0
0.76666667 0.2 0
0.8 0.2 0
0.83333333 0.2 0
0.86666667 0.2 0
0.9 0.2 0
0.93333333 0.2 0
0.96666667 0.2 0
1 0.2 0
0 0.23333333 0
0.033333333 0.23333333 0
0.066666667 0.23333333 0
0.1 0.23333333 0
0.13333333 0.23333333 0
0.16666667 0.23333333 0
0.2 0.23333333 0
0.23333333 0.23333333 0
0.26666667 0.23333333 0
0.3 0.23333333 0
0.33333333 0.23333333 0
0.36666667 0.23333333 0
0.4 0.23333333 0
0.43333333 0.23333333 0
0.46666667 0.23333333 0
0.5 0.23333333 0
0.53333333 0.23333333 0
0.56666667 0.23333333 0
0.6 0.23333333 0
0.63333333 0.23333333 0
0.66666667 0.23333333 0
0.7 0.23333333 0
0.73333333 0.23333333 0
0.76666667 0.23333333 0
0.8 0.23333333 0
0.83333333 0.23333333 0
0.86666667 0.23333333 0
0.9 0.23333333 0
0.93333333 0.23333333 0
0.96666667 0.23333333 0
1 0.23333333 0
0 0.26666667 0
0.033333333 0.26666667 0
0.066666667 0.26666667 0
0.1 0.26666667 0
0.13333333 0.26666667 0
0.16666667 0.26666667 0
0.2 0.26666667 0
0.23333333 0.26666667 0
0.26666667 0.26666667 0
0.3 0.26666667 0
0.33333333 0.26666667 0
0.36666667 0.26666667 0
0.4 0.26666667 0
0.43333333 0.26666667 0
0.46666667 0.26666667 0
0.5 0.26666667 0
0.53333333 0.26666667 0
0.56666667 0.26666667 0
0.6 0.26666667 0
0.63333333 0.26666667 0
0.66666667 0.26666667 0
0.7 0.26666667 0
0.73333333 0.26666667 0
0.76666667 0.26666667 0
0.8 0.26666667 0
0.83333333 0.26666667 0
0.86666667 0.26666667 0
0.9 0.26666667 0
0.93333333 0.26666667 0
0.96666667 0.26666667 0
1 0.26666667 0
0 0.3 0
0.033333333 0.3 0
0.066666667 0.3 0
0.1 0.3 0
0.13333333 0.3 0
0.16666667 0.3 0
0.2 0.3 0
0.23333333 0.3 0
0.26666667 0.3 0
0.3 0.3 0
0.33333333 0.3 0
0.36666667 0.3 0
0.4 0.3 0
0.43333333 0.3 0
0.46666667 0.3 0
0.5 0.3 0
0.53333333 0.3 0
0.56666667 0.3 0
0.6 0.3 0
0.63333333 0.3 0
0.66666667 0.3 0
0.7 0.3 0
0.73333333 0.3 0
0.76666667 0.3 0
0.8 0.3 0
0.83333333 0.3 0
0.86666667 0.3 0
0.9 0.3 0
0.93333333 0.3 0
0.96666667 0.3 0
1 0.3 0
0 0.33333333 0
0.033333333 0.33333333 0
0.066666667 0.33333333 0
0.1 0.33333333 0
0.13333333 0.33333333 0
0.16666667 0.33333333 0
0.2 0.33333333 0
0.23333333 0.33333333 0
0.26666667 0.33333333 0
0.3 0.33333333 0
0.33333333 0.33333333 0
0.36666667 0.33333333 0
0.4 0.33333333 0
0.43333333 0.33333333 0
0.46666667 0.33333333 0
0.5 0.33333333 0
0.53333333 0.33333333 0
0.56666667 0.33333333 0
0.6 0.33333333 0
0.63333333 0.33333333 0
0.66666667 0.33333333 0
0.7 0.33333333 0
0.73333333 0.33333333 0
0.76666667 0.33333333 0
0.8 0.33333333 0
0.83333333 0.33333333 0
0.86666667 0.33333333 0
0.9 0.33333333 0
0.93333333 0.33333333 0
0.96666667 0.33333333 0
1 0.33333333 0
0 0.36666667 0
0.033333333 0.36666667 0
0.066666667 0.36666667 0
0.1 0.36666667 0
0.13333333 0.36666667 0
0.16666667 0.36666667 0
0.2 0.36666667 0
0.23333333 0.36666667 0
0.26666667 0.36666667 0
0.3 0.36666667 0
0.33333333 0.36666667 0
0.36666667 0.36666667 0
0.4 0.36666667 0
0.43333333 0.36666667 0
0.46666667 0.36666667 0
0.5 0.36666667 0
0.53333333 0.36666667 0
0.56666667 0.36666667 0
0.6 0.36666667 0
0.63333333 0.36666667 0
0.66666667 0.36666667 0
0.7 0.36666667 0
0.73333333 0.36666667 0
0.76666667 0.36666667 0
0.8 0.36666667 0
0.83333333 0.36666667 0
0.86666667 0.36666667 0
0.9 0.36666667 0
0.93333333 0.36666667 0
0.96666667 0.36666667 0
1 0.36666667 0
0 0.4 0
0.033333333 0.4 0
0.066666667 0.4 0
0.1 0.4 0
0.13333333 0.4 0
0.16666667 0.4 0
0.2 0.4 0
0.23333333 0.4 0
0.26666667 0.4 0
0.3 0.4 0
0.33333333 0.4 0
0.36666667 0.4 0
0.4 0.4 0
0.43333333 0.4 0
0.46666667 0.4 0
0.5 0.4 0
0.53333333 0.4 0
0.56666667 0.4 0
0.6 0.4 0
0.63333333 0.4 0
0.66666667 0.4 0
0.7 0.4 0
0.73333333 0.4 0
0.76666667 0.4 0
0.8 0.4 0
0.83333333 0.4 0
0.86666667 0.4 0
0.9 0.4 0
0.93333333 0.4 0
0.96666667 0.4 0
1 0.4 0
0 0.43333333 0
0.033333333 0.43333333 0
0.066666667 0.43333333 0
0.1 0.43333333 0
0.13333333 0.43333333 0
0.16666667 0.43333333 0
0.2 0.43333333 0
0.23333333 0.43333333 0
0.26666667 0.43333333 0
0.3 0.43333333 0
0.33333333 0.43333333 0
0.36666667 0.43333333 0
0.4 0.43333333 0
0.43333333 0.43333333 0
0.46666667 0.43333333 0
0.5 0.43333333 0
0.53333333 0.43333333 0
0.56666667 0.43333333 0
0.6 0.43333333 0
0.63333333 0.43333333 0
0.66666667 0.43333333 0
0.7 0.43333333 0
0.73333333 0.43333333 0
0.76666667 0.43333333 0
0.8 0.43333333 0
0.83333333 0.43333333 0
0.86666667 0.43333333 0
0.9 0.43333333 0
0.93333333 0.43333333 0
0.96666667 0.43333333 0
1 0.43333333 0
0 0.46666667 0
0.033333333 0.46666667 0
0.066666667 0.46666667 0
0.1 0.46666667 0
0.13333333 0.46666667 0
0.16666667 0.46666667 0
0.2 0.46666667 0
0.23333333 0.46666667 0
0.26666667 0.46666667 0
0.3 0.46666667 0
0.33333333 0.46666667 0
0.36666667 0.46666667 0
0.4 0.46666667 0
0.43333333 0.46666667 0
0.46666667 0.46666667 0
0.5 0.46666667 0
0.53333333 0.46666667 0
0.56666667 0.46666667 0
0.6 0.46666667 0
0.63333333 0.46666667 0
0.66666667 0.46666667 0
0.7 0.46666667 0
0.73333333 0.46666667 0
0.76666667 0.46666667 0
0.8 0.46666667 0
0.83333333 0.46666667 0
0.86666667 0.46666667 0
0.9 0.46666667 0
0.93333333 0.46666667 0
0.96666667 0.46666667 0
1 0.46666667 0
0 0.5 0
0.033333333 0.5 0
0.066666667 0.5 0
0.1 0.5 0
0.13333333 0.5 0
0.16666667 0.5 0
0.2 0.5 0
0.23333333 0.5 0
0.26666667 0.5 0
0.3 0.5 0
0.33333333 0.5 0
0.36666667 0.5 0
0.4 0.5 0
0.43333333 0.5 0
0.46666667 0.5 0
0.5 0.5 0
0.53333333 0.5 0
0.56666667 0.5 0
0.6 0.5 0
0.63333333 0.5 0
0.66666667 0.5 0
0.7 0.5 0
0.73333333 0.5 0
0.76666667 0.5 0
0.8 0.5 0
0.83333333 0.5 0
0.86666667 0.5 0
0.9 0.5 0
0.93333333 0.5 0
0.96666667 0.5 0
1 0.5 0
0 0.53333333 0
0.033333333 0.53333333 0
0.066666667 0.53333333 0
0.1 0.53333333 0
0.13333333 0.53333333 0
0.16666667 0.53333333 0
0.2 0.53333333 0
0.23333333 0.53333333 0
0.26666667 0.53333333 0
0.3 0.53333333 0
0.33333333 0.53333333 0
0.36666667 0.53333333 0
0.4 0.53333333 0
0.43333333 0.53333333 0
0.46666667 0.53333333 0
0.5 0.53333333 0
0.53333333 0.53333333 0
0.56666667 0.53333333 0
0.6 0.53333333 0
0.63333333 0.53333333 0
0.66666667 0.53333333 0
0.7 0.53333333 0
0.73333333 0.53333333 0
0.76666667 0.53333333 0
[...]
CELL_DATA 1920
Scalars  Label int 1
LOOKUP_TABLE FreeFempp_table
0
0
0
0
0
0
0
0
0
0
0
0
0
0
0
0
0
0
0
0
0
0
0
0
0
0
0
0
0
0
0
0
0
0
0
0
0
0
0
0
0
0
0
0
0
0
0
0
0
0
0
0
0
0
0
0
0
0
0
0
0
0
0
0
0
0
0
0
0
0
0
0
0
0
0
0
0
0
0
0
0
0
0
0
0
0
0
0
0
0
0
0
0
0
0
0
0
0
0
0
0
0
0
0
0
0
0
0
0
0
0
0
0
0
0
0
0
0
0
0
0
0
0
0
0
0
0
0
0
0
0
0
0
0
0
0
0
0
0
0
0
0
0
0
0
0
0
0
0
0
0
0
0
0
0
0
0
0
0
0
0
0
0
0
0
0
0
0
0
0
0
0
0
0
0
0
0
0
0
0
0
0
0
0
0
0
0
0
0
0
0
0
0
0
0
0
0
0
0
0
0
0
0
0
0
0
0
0
0
0
0
0
0
0
0
0
0
0
0
0
0
0
0
0
0
0
0
0
0
0
0
0
0
0
0
0
0
0
0
0
0
0
0
0
0
0
0
0
0
0
0
0
0
0
0
0
0
0
0
0
0
0
0
0
0
0
0
0
0
0
0
0
0
0
0
0
0
0
0
0
0
0
0
0
0
0
0
0
0
0
0
0
0
0
0
0
0
0
0
0
0
0
0
0
0
0
0
0
0
0
0
0
0
0
0
0
0
0
0
0
0
0
0
0
0
0
0
0
0
0
0
0
0
0
0
0
0
0
0
0
0
0
0
0
0
0
0
0
0
0
0
0
0
0
0
0
0
0
0
0
0
0
0
0
0
0
0
0
0
0
0
0
0
0
0
0
0
0
0
0
0
0
0
0
0
0
0
0
0
0
0
0
0
0
0
0
0
0
0
0
0
0
0
0
0
0
0
0
0
0
0
0
0
0
0
0
0
0
0
0
0
0
0
0
0
0
0
0
0
0
0
0
0
0
0
0
0
0
0
0
0
0
0
0
0
0
0
0
0
0
0
0
0
0
0
0
0
0
0
0
0
0
0
0
0
0
0
0
0
0
0
0
0
0
0
0
0
0
0
0
0
0
0
0
0
0
0
0
0
0
0
0
0
0
0
0
0
0
0
0
0
0
0
0
0
0
0
0
0
0
0
0
0
0
0
0
0
0
0
0
0
0
0
0
0
0
0
0
0
0
0
0
0
0
0
0
0
0
0
0
0
0
0
0
0
0
0
0
0
0
0
0
0
0
0
0
0
0
0
0
0
0
0
0
0
0
0
0
0
0
0
0
0
0
0
0
0
0
0
0
0
0
0
0
0
0
0
0
0
0
0
0
0
0
0
0
0
0
0
0
0
0
0
0
0
0
0
0
0
0
0
0
0
0
0
0
0
0
0
0
0
0
0
0
0
0
0
0
0
0
0
0
0
0
0
0
0
0
0
0
0
0
0
0
0
0
0
0
0
0
0
0
0
0
0
0
0
0
0
0
0
0
0
0
0
0
0
0
0
0
0
0
0
0
0
0
0
0
0
0
0
0
0
0
0
0
0
0
0
0
0
0
0
0
0
0
0
0
0
0
0
0
0
0
0
0
0
0
0
0
0
0
0
0
0
0
0
0
0
0
0
0
0
0
0
0
0
0
0
0
0
0
0
0
0
0
0
0
0
0
0
0
0
0
0
0
0
0
0
0
0
0
0
0
0
0
0
0
0
0
0
0
0
0
0
0
0
0
0
0
0
0
0
0
0
0
0
0
0
0
0
0
0
0
0
0
0
0
0
0
0
0
0
0
0
0
0
0
0
0
0
0
0
0
0
0
0
0
0
0
0
0
0
0
0
0
0
0
0
0
0
0
0
0
0
0
0
0
0
0
0
0
0
0
0
0
0
0
0
0
0
0
0
0
0
0
0
0
0
0
0
0
0
0
0
0
0
0
0
0
0
0
0
0
0
0
0
0
0
0
0
0
0
0
0
0
0
0
0
0
0
0
0
0
0
0
0
0
0
0
0
0
0
0
0
0
0
0
0
0
0
0
0
0
0
0
0
0
0
0
0
0
0
0
0
0
0
0
0
0
0
0
0
0
0
0
0
0
0
0
0
0
0
0
0
0
0
0
0
0
0
0
0
0
0
0
0
0
0
0
0
0
0
0
0
0
0
0
0
0
0
0
0
0
0
0
0
0
0
0
0
0
0
0
0
0
0
0
0
0
0
0
0
0
0
0
0
0
0
0
0
0
0
0
0
0
0
0
0
0
0
0
0
0
0
0
0
0
0
0
0
0
0
0
0
0
0
0
0
0
0
0
0
0
0
0
0
0
0
0
0
0
0
0
0
0
0
0
0
0
0
0
0
0
0
0
0
0
0
0
0
0
0
0
0
0
0
0
0
0
0
0
0
0
0
0
0
0
0
0
0
0
0
0
0
0
0
0
0
0
0
0
0
0
0
0
0
0
0
0
0
0
0
0
0
0
0
0
0
0
0
0
0
0
0
0
0
0
0
0
0
0
0
0
0
0
0
0
0
0
0
0
0
0
0
0
0
0
0
0
0
0
0
0
0
0
0
0
0
0
0
0
0
0
0
0
0
0
0
0
0
0
0
0
0
0
0
0
0
0
0
0
0
0
0
0
0
0
0
0
0
0
0
0
0
0
0
0
0
0
0
0
0
0
0
0
0
0
0
0
0
0
0
0
0
0
0
0
0
0
0
0
0
0
0
0
0
0
0
0
0
0
0
0
0
0
0
0
0
0
0
0
0
0
0
0
0
0
0
0
0
0
0
0
0
0
0
0
0
0
0
0
0
0
0
0
0
0
0
0
0
0
0
0
0
0
0
0
0
0
0
0
0
0
0
0
0
0
0
0
0
0
0
0
0
0
0
0
0
0
0
0
0
0
0
0
0
0
0
0
0
0
0
0
0
0
0
0
0
0
0
0
0
0
0
0
0
0
0
0
0
0
0
0
0
0
0
0
0
0
0
0
0
0
0
0
0
0
0
0
0
0
0
0
0
0
0
0
0
0
0
0
0
0
0
0
0
0
0
0
0
0
0
0
0
0
0
0
0
0
0
0
0
0
0
0
0
0
0
0
0
0
0
0
0
0
0
0
0
0
0
0
0
0
0
0
0
0
0
0
0
0
0
0
0
0
0
0
0
0
0
0
0
0
0
0
0
0
0
0
0
0
0
0
0
0
0
0
0
0
0
0
0
0
0
0
0
0
0
0
0
0
0
0
0
0
0
0
0
0
0
0
0
0
0
0
0
0
0
0
0
0
0
0
0
0
0
0
0
0
0
0
0
0
0
0
0
0
0
0
0
0
0
0
0
0
0
0
0
0
0
0
0
0
0
0
0
0
0
0
0
0
0
0
0
0
0
0
0
0
0
0
0
0
0
0
0
0
0
0
0
0
0
0
0
0
0
0
0
0
0
0
0
0
0
0
0
0
0
0
0
0
0
0
0
0
0
0
0
0
0
0
0
0
0
0
0
0
0
0
0
0
0
0
0
0
0
0
0
0
0
0
0
0
0
0
0
0
0
0
0
0
0
0
0
0
0
0
0
0
0
0
0
0
0
0
0
0
0
0
0
0
0
0
0
0
0
0
0
0
0
0
0
0
0
0
0
0
0
0
0
0
0
0
0
0
0
0
0
0
0
0
0
0
0
0
0
0
0
0
0
0
0
0
0
0
0
0
0
0
0
0
0
0
0
0
0
0
0
0
0
0
0
0
0
0
0
0
0
0
0
0
0
0
0
0
0
0
0
0
0
0
0
0
0
0
0
0
0
0
0
0
0
0
0
0
0
0
0
0
0
0
0
0
0
0
0
0
0
0
0
0
0
0
0
0
0
0
0
0
0
0
0
0
0
0
0
0
0
0
0
0
0
0
0
0
0
0
0
0
0
0
0
0
0
0
0
0
0
0
0
0
0
0
0
0
0
0
0
0
0
0
0
0
0
0
0
0
0
0
0
0
0
0
0
0
0
0
0
0
0
0
0
0
0
0
0
0
0
0
0
0
0
0
0
0
0
0
0
0
0
0
0
0
0
0
0
0
0
0
1
1
1
1
1
1
1
1
1
1
1
1
1
1
1
1
1
1
1
1
1
1
1
1
1
1
1
1
1
1
2
2
2
2
2
2
2
2
2
2
2
2
2
2
2
2
2
2
2
2
2
2
2
2
2
2
2
2
2
2
3
3
3
3
3
3
3
3
3
3
3
3
3
3
3
3
3
3
3
3
3
3
3
3
3
3
3
3
3
3
4
4
4
4
4
4
4
4
4
4
4
4
4
4
4
4
4
4
4
4
4
4
4
4
4
4
4
4
4
4

LOOKUP_TABLE FreeFempp_table 5
1.00000000 0.00000000 0.00000000 1.00000000
1.00000000 1.00000000 0.00000000 1.00000000
1.00000000 0.00000000 1.00000000 1.00000000
0.00000000 1.00000000 0.00000000 1.00000000
0.00000000 1.00000000 1.00000000 1.00000000

POINT_DATA 961
FIELD FieldData 1
Density 1 961 float
4.46599841e-01 4.06294703e-01 3.93678337e-01 3.89237165e-01 3.87462765e-01 3.92700374e-01 4.16724831e-01 4.41202134e-01 4.50876415e-01 4.54148829e-01 4.55535203e-01 4.56257045e-01 4.56864834e-01 4.58248317e-01 4.62219208e-01 4.69888538e-01 4.68119711e-01 3.38876337e-01 7.77302757e-02 1.20847642e-01 4.42479908e-01 5.10152400e-01 5.22561431e-01 5.30977070e-01 5.38845122e-01 5.46604872e-01 5.54305613e-01 5.61407745e-01 5.69038093e-01 5.64372241e-01 5.40157795e-01 3.73032182e-01 3.34521919e-01 3.17011654e-01 3.12164664e-01 3.08095723e-01 3.04789871e-01 3.50234896e-01 4.23634201e-01 4.38765824e-01 4.41881359e-01 4.42577630e-01 4.42717701e-01 4.42501575e-01 4.41551417e-01 4.40027267e-01 4.47137028e-01 4.51618493e-01 3.56355935e-01 8.08753818e-02 9.50533375e-02 4.24787611e-01 5.11105657e-01 5.27975500e-01 5.42151213e-01 5.54944575e-01 5.67131162e-01 5.78865230e-01 5.89612365e-01 5.99318922e-01 5.97159684e-01 5.63713372e-01 3.49819027e-02 4.12441865e-02 3.62411365e-02 3.58144827e-02 3.79489101e-02 4.27429974e-02 8.63654166e-02 3.42544228e-01 3.92200589e-01 3.91893327e-01 3.90093327e-01 3.89020383e-01 3.87725621e-01 3.83561969e-01 3.71410996e-01 3.89380097e-01 4.16754454e-01 3.21411341e-01 8.01325142e-02 9.15119052e-02 4.21461701e-01 5.06288052e-01 5.20781815e-01 5.36719263e-01 5.51361084e-01 5.65210283e-01 5.78322649e-01 5.90145528e-01 6.00454390e-01 5.99105537e-01 5.67805290e-01 8.64874050e-02 7.86177069e-02 7.49234334e-02 7.22281113e-02 7.31832087e-02 4.73813824e-02 -4.99066757e-03 3.21466029e-02 5.23603149e-02 4.98313643e-02 5.13888597e-02 5.30154184e-02 5.23836985e-02 4.99166362e-02 4.98523191e-02 8.60694498e-02 2.86775678e-01 2.00090125e-01 6.61863089e-02 9.50356424e-02 4.24164832e-01 5.05458891e-01 5.15230358e-01 5.28181195e-01 5.41817367e-01 5.55800259e-01 5.69504499e-01 5.82012594e-01 5.92778206e-01 5.92051089e-01 5.62024474e-01 5.82335174e-01 6.04180336e-01 5.92691839e-01 5.74498713e-01 5.52961230e-01 4.85010058e-01 1.63684309e-01 9.22843888e-02 8.06498751e-02 7.21883774e-02 5.86965792e-02 3.74372639e-02 1.81340799e-02 2.15075500e-02 4.28613648e-02 3.31307873e-02 4.22237590e-02 9.81741995e-02 6.23738989e-02 1.08195759e-01 4.23359185e-01 5.00758946e-01 5.07559896e-01 5.18079340e-01 5.30490518e-01 5.44652641e-01 5.59273601e-01 5.72825670e-01 5.84363461e-01 5.84656835e-01 5.57424724e-01 6.45243704e-01 7.09687948e-01 7.11818695e-01 7.10819185e-01 7.11906850e-01 7.14857578e-01 6.76854968e-01 6.51323140e-01 6.30914092e-01 5.99710524e-01 5.25047600e-01 3.92653495e-01 2.21492827e-01 1.74451277e-01 2.87423790e-01 3.09476972e-01 7.15588257e-02 1.64098032e-02 7.16712698e-02 1.42832950e-01 4.19362068e-01 4.87443298e-01 4.93216276e-01 5.03595889e-01 5.16003728e-01 5.30874014e-01 5.46941817e-01 5.61964750e-01 5.74492157e-01 5.75985610e-01 5.51883519e-01 5.64066291e-01 6.00908518e-01 5.85733533e-01 6.00533903e-01 6.24763727e-01 6.45255983e-01 6.67545676e-01 7.05685914e-01 7.27082431e-01 7.38938153e-01 7.40011275e-01 7.18641341e-01 5.74504793e-01 3.26928109e-01 3.35722476e-01 3.77149224e-01 3.08773696e-01 6.63401335e-02 2.67269183e-02 1.90465346e-01 4.20354307e-01 4.67766702e-01 4.73199278e-01 4.85035360e-01 4.99238312e-01 5.15699446e-01 5.33383191e-01 5.50028861e-01 5.63670695e-01 5.66485047e-01 5.45804083e-01 5.01811326e-01 4.83692765e-01 4.24009889e-01 4.10635203e-01 4.22386050e-01 4.23707545e-01 4.18024212e-01 4.17928666e-01 4.25976604e-01 4.35821772e-01 4.47090566e-01 5.24370313e-01 6.51246011e-01 6.77336454e-01 5.93088210e-01 4.94289488e-01 4.27537471e-01 3.35002184e-01 7.46758059e-02 5.89674674e-02 3.60503018e-01 4.52186733e-01 4.56755906e-01 4.67106998e-01 4.81762141e-01 5.00605881e-01 5.20293891e-01 5.38186729e-01 5.52653968e-01 5.56724727e-01 5.39538324e-01 4.90591764e-01 4.39693123e-01 3.21192503e-01 2.64401674e-01 1.95970133e-01 1.22532211e-01 8.47005546e-02 6.91547170e-02 6.41008839e-02 6.91558495e-02 7.79315010e-02 9.87290591e-02 1.60289779e-01 3.26338202e-01 6.85313046e-01 7.08526790e-01 6.00352466e-01 4.97728378e-01 3.36382300e-01 3.28152701e-02 9.63722244e-02 4.12624300e-01 4.51530278e-01 4.56983596e-01 4.67734098e-01 4.85829949e-01 5.08063078e-01 5.27509391e-01 5.42264998e-01 5.47267973e-01 5.33441186e-01 4.94425327e-01 4.23112482e-01 1.66187897e-01 6.59772754e-02 3.61753777e-02 1.62593275e-02 1.21025210e-02 1.39576280e-02 2.86415890e-02 6.41980767e-02 8.78768563e-02 1.05868697e-01 1.31361097e-01 2.10953131e-01 4.46036726e-01 7.04291701e-01 7.14364946e-01 6.37656569e-01 4.69575942e-01 5.88785559e-02 5.59358150e-02 4.05535698e-01 4.62202638e-01 4.56654847e-01 4.61358458e-01 4.74284858e-01 4.95804071e-01 5.17995715e-01 5.33146739e-01 5.38634837e-01 5.27806818e-01 4.95476574e-01 4.19357955e-01 8.26040432e-02 1.16099203e-02 3.22861993e-03 2.09076125e-02 5.82292788e-02 7.48937875e-02 1.41637519e-01 3.38841528e-01 4.67695802e-01 5.20174682e-01 5.66195011e-01 5.86675763e-01 5.68647623e-01 6.16330624e-01 6.87587380e-01 7.10293829e-01 5.82474530e-01 7.62114376e-02 5.76782003e-02 4.16791677e-01 4.74647164e-01 4.63237882e-01 4.61885780e-01 4.68886167e-01 4.85339105e-01 5.09328008e-01 5.25569439e-01 5.31278312e-01 5.22909641e-01 4.95181471e-01 4.19852197e-01 6.36090860e-02 -1.33682042e-03 2.67405678e-02 1.05258942e-01 3.11795652e-01 3.61428738e-01 3.98270339e-01 4.93154734e-01 5.64167917e-01 5.83691537e-01 5.87094069e-01 5.83746254e-01 5.43692231e-01 5.18948853e-01 5.85342765e-01 6.80276215e-01 6.71692431e-01 1.55953348e-01 3.84079330e-02 3.76204431e-01 4.78912592e-01 4.71002728e-01 4.67244744e-01 4.68219161e-01 4.79171246e-01 5.01159549e-01 5.19500315e-01 5.25578678e-01 5.19030571e-01 4.95157152e-01 4.19709533e-01 5.73941283e-02 1.53151443e-02 1.06971055e-01 3.04525286e-01 3.81742507e-01 4.31792855e-01 4.80766863e-01 5.33299983e-01 5.53270519e-01 5.40412962e-01 5.18932045e-01 4.98167306e-01 4.79573309e-01 4.72119421e-01 5.15188873e-01 6.11197293e-01 7.11073458e-01 6.09512985e-01 1.27113894e-01 9.05148461e-02 3.94209534e-01 4.73639905e-01 4.73009884e-01 4.70926106e-01 4.76916015e-01 4.92160261e-01 5.14226377e-01 5.21900296e-01 5.16496122e-01 4.94788736e-01 4.19070572e-01 5.73737137e-02 4.95818034e-02 3.23167652e-01 3.77276570e-01 4.06039834e-01 4.59339529e-01 5.27519107e-01 5.67066431e-01 5.63404500e-01 5.35517633e-01 5.09869218e-01 4.93096232e-01 4.84297752e-01 4.84070808e-01 5.02503932e-01 5.56955040e-01 6.47145689e-01 7.14218199e-01 5.88605881e-01 1.24498695e-01 8.58996361e-02 3.91038626e-01 4.74025100e-01 4.76004541e-01 4.79398906e-01 4.90284741e-01 5.12291431e-01 5.21063268e-01 5.15779257e-01 5.00665367e-01 4.16108221e-01 5.76507859e-02 4.59491797e-02 3.39953333e-01 3.90066028e-01 4.16493654e-01 4.80651557e-01 5.26860356e-01 5.55787385e-01 5.89323699e-01 5.92679024e-01 5.70286632e-01 5.45101821e-01 5.29828072e-01 5.23211241e-01 5.23860216e-01 5.41677833e-01 5.96221089e-01 6.69494033e-01 7.06529498e-01 5.73343217e-01 1.22284003e-01 8.77322927e-02 3.94520044e-01 4.75995779e-01 4.86155361e-01 4.94876564e-01 5.15370607e-01 5.23710489e-01 5.17267704e-01 4.58423078e-01 3.70164603e-01 5.71889281e-02 3.51018235e-02 2.81982273e-01 3.67367208e-01 4.18361425e-01 4.04738724e-01 2.95673221e-01 2.92588443e-01 4.02066797e-01 5.18046200e-01 5.99901319e-01 6.07380509e-01 5.78492522e-01 5.59368908e-01 5.50627172e-01 5.51016629e-01 5.73655128e-01 6.26006186e-01 6.81338608e-01 7.01338530e-01 5.65584719e-01 1.21394724e-01 8.48202854e-02 3.64913702e-01 4.80883628e-01 5.06368279e-01 5.24767518e-01 5.31268060e-01 5.21717846e-01 3.69856507e-01 1.05948858e-01 1.13999927e-02 2.37383749e-02 2.08850294e-01 3.21684599e-01 4.19013411e-01 3.73383105e-01 1.46332234e-01 8.47532898e-02 9.03872401e-02 1.33670583e-01 3.15609723e-01 5.39729655e-01 5.86585224e-01 5.68604648e-01 5.58068335e-01 5.56649268e-01 5.66518903e-01 5.97202301e-01 6.45872056e-01 6.89256310e-01 6.98641360e-01 5.60068250e-01 1.20835178e-01 7.60548413e-02 3.36635977e-01 4.96393085e-01 5.41131079e-01 5.46072245e-01 5.30312121e-01 3.68668318e-01 6.30928874e-02 7.87231489e-04 5.33223897e-02 1.87143385e-01 2.87750661e-01 4.10242766e-01 4.36320573e-01 2.65632927e-01 1.30814210e-01 7.79038966e-02 3.63974199e-02 6.25986159e-02 2.54932970e-01 4.94699597e-01 5.44982612e-01 5.42788744e-01 5.45092463e-01 5.55118442e-01 5.76070368e-01 6.13513827e-01 6.60534739e-01 6.96639955e-01 6.97935581e-01 5.52536309e-01 1.17771581e-01 7.33170733e-02 3.46543372e-01 5.36877632e-01 5.70711493e-01 5.45145273e-01 3.69422168e-01 6.15347810e-02 3.58809717e-02 2.41864562e-01 2.81422257e-01 3.26310337e-01 4.08263266e-01 4.47523236e-01 4.11125571e-01 3.53635848e-01 2.93249309e-01 1.57735035e-01 5.91651909e-02 5.66185452e-02 2.85297245e-01 4.87418830e-01 5.16410887e-01 5.23093462e-01 5.34588158e-01 5.53526878e-01 5.82841516e-01 6.26363039e-01 6.74639344e-01 7.06961513e-01 6.96622670e-01 5.32359123e-01 1.18282907e-01 8.11374113e-02 4.14129168e-01 5.97785890e-01 5.70167482e-01 3.70213270e-01 6.14129901e-02 5.15882038e-02 3.76719445e-01 4.09550518e-01 4.09729928e-01 4.32852507e-01 4.46556121e-01 4.46212769e-01 4.48736072e-01 4.49135065e-01 4.20821190e-01 3.31686527e-01 8.74371976e-02 7.32816160e-02 3.70570332e-01 4.88790929e-01 5.00607491e-01 5.11680067e-01 5.28255105e-01 5.52532613e-01 5.88221371e-01 6.38501227e-01 6.92119420e-01 7.23756194e-01 7.04218626e-01 4.95424896e-01 5.81797138e-02 1.34658426e-01 5.83353221e-01 6.05232239e-01 3.70969892e-01 6.13614321e-02 5.32243140e-02 4.06873286e-01 4.61565346e-01 4.54159826e-01 4.55192149e-01 4.54701841e-01 4.55588192e-01 4.63805974e-01 4.74485517e-01 4.80500460e-01 4.74853396e-01 3.93534333e-01 9.17338580e-02 8.85983631e-02 3.95675421e-01 4.82733279e-01 4.92095083e-01 5.04325628e-01 5.23123085e-01 5.50780237e-01 5.91572404e-01 6.51227713e-01 7.16741621e-01 7.66251147e-01 6.62745535e-01 1.11937948e-01 1.00712895e-01 5.76407194e-01 6.47625566e-01 3.71637613e-01 6.13275021e-02 5.35593703e-02 4.12182897e-01 4.72967178e-01 4.67768431e-01 4.66211051e-01 4.63331282e-01 4.62729692e-01 4.67013240e-01 4.74681973e-01 4.81926322e-01 4.85292405e-01 4.82740223e-01 3.97450477e-01 8.96821544e-02 8.93632993e-02 3.95599186e-01 4.83209878e-01 4.90889937e-01 5.02470732e-01 5.19978344e-01 5.43980300e-01 5.87737501e-01 6.57556772e-01 7.50250876e-01 7.68549502e-01 2.13361487e-01 7.58657381e-02 5.47899783e-01 6.94007993e-01 3.72207940e-01 6.13041446e-02 5.38430363e-02 4.15236592e-01 4.77152586e-01 4.72309142e-01 4.71034080e-01 4.68451798e-01 4.67222959e-01 4.68860120e-01 4.73382622e-01 4.79379863e-01 4.84556139e-01 4.86615330e-01 4.81531680e-01 3.91657650e-01 8.77953097e-02 9.19185206e-02 3.75418097e-01 4.18042511e-01 4.22725081e-01 4.34248477e-01 4.73441660e-01 5.30693591e-01 5.71369588e-01 6.52871072e-01 7.77692556e-01 7.07874656e-01 1.87535837e-01 2.39190564e-01 6.70619726e-01 3.72693598e-01 6.13022521e-02 5.40754311e-02 4.17678177e-01 4.79799718e-01 4.74450529e-01 4.73254144e-01 4.71039861e-01 4.69713807e-01 4.70172107e-01 4.72738892e-01 4.77145851e-01 4.82421279e-01 4.87063825e-01 4.88006443e-01 4.79874641e-01 3.82374436e-01 7.94673935e-02 4.66291495e-02 6.65120408e-02 6.54945523e-02 7.86965340e-02 1.59810334e-01 3.89789462e-01 4.36294198e-01 4.48946506e-01 4.51755464e-01 4.14221019e-01 6.22384548e-01 4.09885257e-01 7.27880955e-01 3.73102129e-01 6.13178760e-02 5.42210042e-02 4.19337660e-01 4.81577188e-01 4.75737303e-01 4.74524111e-01 4.72599536e-01 4.71391916e-01 4.71403003e-01 4.72884983e-01 4.75932807e-01 4.80388463e-01 4.85667348e-01 4.89707828e-01 4.90519792e-01 4.70729589e-01 3.18765074e-01 5.75563908e-02 1.73220485e-02 8.37050285e-03 1.00548682e-03 6.58231927e-03 4.55408655e-02 6.23106137e-02 6.31037652e-02 7.08220229e-02 1.07716978e-01 2.59215176e-01 7.04801381e-01 8.40985894e-01 3.73410970e-01 6.12928197e-02 5.42741939e-02 4.20295835e-01 4.82665479e-01 4.76585209e-01 4.75448608e-01 4.73831207e-01 4.72862720e-01 4.72796172e-01 4.73756760e-01 4.75867897e-01 4.79260951e-01 4.83861864e-01 4.88865882e-01 4.96919841e-01 4.74594474e-01 3.93263549e-01 2.31734633e-01 1.54775396e-01 1.25705123e-01 8.04628804e-02 6.46337569e-02 6.28713742e-02 5.91416918e-02 5.29240482e-02 2.76551209e-02 1.80989914e-02 9.76099297e-02 3.75048488e-01 6.60422683e-01 3.73583555e-01 6.11964352e-02 5.42468727e-02 4.20948595e-01 4.83313233e-01 4.77141738e-01 4.76190984e-01 4.74934936e-01 4.74291712e-01 4.74350542e-01 4.75142181e-01 4.76756155e-01 4.79395092e-01 4.83276546e-01 4.88916934e-01 4.99134511e-01 4.61746901e-01 2.56779701e-01 4.31320786e-01 4.60961640e-01 4.26324874e-01 4.00080025e-01 4.11222100e-01 4.20151681e-01 4.20302421e-01 4.01764065e-01 2.92296201e-01 8.05295408e-02 2.78456230e-02 2.34417632e-01 5.94965577e-01 3.73687327e-01 6.11080043e-02 5.42311631e-02 4.21583027e-01 4.83687013e-01 4.77445513e-01 4.76756305e-01 4.75895017e-01 4.75604296e-01 4.75867033e-01 4.76652771e-01 4.78007138e-01 4.80102122e-01 4.83087122e-01 4.86942858e-01 4.89065558e-01 4.42312211e-01 1.62676036e-01 1.64103895e-01 6.70423687e-01 6.64677024e-01 5.67855954e-01 5.33817768e-01 5.23910999e-01 5.19326925e-01 5.19698858e-01 4.98327971e-01 3.64637882e-01 5.68425171e-02 1.33986965e-01 5.79726577e-01 3.73373300e-01 6.09148219e-02 5.42261377e-02 4.22244817e-01 4.83605236e-01 4.77277786e-01 4.76917714e-01 4.76448804e-01 4.76462245e-01 4.76891309e-01 4.77680922e-01 4.78821158e-01 4.80397195e-01 4.82448399e-01 4.84438956e-01 4.83224332e-01 4.59643155e-01 3.08235347e-01 5.61152734e-02 1.67072430e-01 4.77932394e-01 5.20032585e-01 5.14868617e-01 5.14559507e-01 5.17192185e-01 5.23856103e-01 5.16041040e-01 4.10863459e-01 1.92257941e-01 1.69613555e-01 6.97372794e-01 3.71219456e-01 6.21230081e-02 5.53813241e-02 4.24938500e-01 4.85248744e-01 4.78657633e-01 4.78707016e-01 4.78583634e-01 4.78769869e-01 4.79199469e-01 4.79845703e-01 4.80680138e-01 4.81725365e-01 4.83058602e-01 4.84407246e-01 4.83279973e-01 4.68208641e-01 3.60910922e-01 8.10576305e-02 2.84503028e-02 2.08500847e-01 3.98742408e-01 4.41924930e-01 4.57942694e-01 4.65818971e-01 4.69694674e-01 4.70710218e-01 4.42424864e-01 3.45595747e-01 3.29678297e-01 7.83659458e-01 3.64040822e-01 7.91870505e-02 4.54096533e-02 4.28962171e-01 4.98153955e-01 4.85439569e-01 4.86229926e-01 4.86226499e-01 4.86419439e-01 4.86705124e-01 4.87089485e-01 4.87560511e-01 4.88122016e-01 4.88853782e-01 4.89795715e-01 4.89881098e-01 4.83360291e-01 4.21927631e-01 1.53993472e-01 2.09289473e-02 9.52891260e-02 3.56991440e-01 4.31526721e-01 4.44998145e-01 4.48575169e-01 4.43438768e-01 4.31494951e-01 4.20730531e-01 4.29500014e-01 2.89386809e-01 7.97523260e-01 
