# vtk DataFile Version 2.0
results_case1_non_linear/1_density.vtk, Created by Freefem++ 
ASCII
DATASET UNSTRUCTURED_GRID
POINTS 961 float
0 0 0
0.033333333 0 0
0.066666667 0 0
0.1 0 0
0.13333333 0 0
0.16666667 0 0
0.2 0 0
0.23333333 0 0
0.26666667 0 0
0.3 0 0
0.33333333 0 0
0.36666667 0 0
0.4 0 0
0.43333333 0 0
0.46666667 0 0
0.5 0 0
0.53333333 0 0
0.56666667 0 0
0.6 0 0
0.63333333 0 0
0.66666667 0 0
0.7 0 0
0.73333333 0 0
0.76666667 0 0
0.8 0 0
0.83333333 0 0
0.86666667 0 0
0.9 0 0
0.93333333 0 0
0.96666667 0 0
1 0 0
0 0.033333333 0
0.033333333 0.033333333 0
0.066666667 0.033333333 0
0.1 0.033333333 0
0.13333333 0.033333333 0
0.16666667 0.033333333 0
0.2 0.033333333 0
0.23333333 0.033333333 0
0.26666667 0.033333333 0
0.3 0.033333333 0
0.33333333 0.033333333 0
0.36666667 0.033333333 0
0.4 0.033333333 0
0.43333333 0.033333333 0
0.46666667 0.033333333 0
0.5 0.033333333 0
0.53333333 0.033333333 0
0.56666667 0.033333333 0
0.6 0.033333333 0
0.63333333 0.033333333 0
0.66666667 0.033333333 0
0.7 0.033333333 0
0.73333333 0.033333333 0
0.76666667 0.033333333 0
0.8 0.033333333 0
0.83333333 0.033333333 0
0.86666667 0.033333333 0
0.9 0.033333333 0
0.93333333 0.033333333 0
0.96666667 0.033333333 0
1 0.033333333 0
0 0.066666667 0
0.033333333 0.066666667 0
0.066666667 0.066666667 0
0.1 0.066666667 0
0.13333333 0.066666667 0
0.16666667 0.066666667 0
0.2 0.066666667 0
0.23333333 0.066666667 0
0.26666667 0.066666667 0
0.3 0.066666667 0
0.33333333 0.066666667 0
0.36666667 0.066666667 0
0.4 0.066666667 0
0.43333333 0.066666667 0
0.46666667 0.066666667 0
0.5 0.066666667 0
0.53333333 0.066666667 0
0.56666667 0.066666667 0
0.6 0.066666667 0
0.63333333 0.066666667 0
0.66666667 0.066666667 0
0.7 0.066666667 0
0.73333333 0.066666667 0
0.76666667 0.066666667 0
0.8 0.066666667 0
0.83333333 0.066666667 0
0.86666667 0.066666667 0
0.9 0.066666667 0
0.93333333 0.066666667 0
0.96666667 0.066666667 0
1 0.066666667 0
0 0.1 0
0.033333333 0.1 0
0.066666667 0.1 0
0.1 0.1 0
0.13333333 0.1 0
0.16666667 0.1 0
0.2 0.1 0
0.23333333 0.1 0
0.26666667 0.1 0
0.3 0.1 0
0.33333333 0.1 0
0.36666667 0.1 0
0.4 0.1 0
0.43333333 0.1 0
0.46666667 0.1 0
0.5 0.1 0
0.53333333 0.1 0
0.56666667 0.1 0
0.6 0.1 0
0.63333333 0.1 0
0.66666667 0.1 0
0.7 0.1 0
0.73333333 0.1 0
0.76666667 0.1 0
0.8 0.1 0
0.83333333 0.1 0
0.86666667 0.1 0
0.9 0.1 0
0.93333333 0.1 0
0.96666667 0.1 0
1 0.1 0
0 0.13333333 0
0.033333333 0.13333333 0
0.066666667 0.13333333 0
0.1 0.13333333 0
0.13333333 0.13333333 0
0.16666667 0.13333333 0
0.2 0.13333333 0
0.23333333 0.13333333 0
0.26666667 0.13333333 0
0.3 0.13333333 0
0.33333333 0.13333333 0
0.36666667 0.13333333 0
0.4 0.13333333 0
0.43333333 0.13333333 0
0.46666667 0.13333333 0
0.5 0.13333333 0
0.53333333 0.13333333 0
0.56666667 0.13333333 0
0.6 0.13333333 0
0.63333333 0.13333333 0
0.66666667 0.13333333 0
0.7 0.13333333 0
0.73333333 0.13333333 0
0.76666667 0.13333333 0
0.8 0.13333333 0
0.83333333 0.13333333 0
0.86666667 0.13333333 0
0.9 0.13333333 0
0.93333333 0.13333333 0
0.96666667 0.13333333 0
1 0.13333333 0
0 0.16666667 0
0.033333333 0.16666667 0
0.066666667 0.16666667 0
0.1 0.16666667 0
0.13333333 0.16666667 0
0.16666667 0.16666667 0
0.2 0.16666667 0
0.23333333 0.16666667 0
0.26666667 0.16666667 0
0.3 0.16666667 0
0.33333333 0.16666667 0
0.36666667 0.16666667 0
0.4 0.16666667 0
0.43333333 0.16666667 0
0.46666667 0.16666667 0
0.5 0.16666667 0
0.53333333 0.16666667 0
0.56666667 0.16666667 0
0.6 0.16666667 0
0.63333333 0.16666667 0
0.66666667 0.16666667 0
0.7 0.16666667 0
0.73333333 0.16666667 0
0.76666667 0.16666667 0
0.8 0.16666667 0
0.83333333 0.16666667 0
0.86666667 0.16666667 0
0.9 0.16666667 0
0.93333333 0.16666667 0
0.96666667 0.16666667 0
1 0.16666667 0
0 0.2 0
0.033333333 0.2 0
0.066666667 0.2 0
0.1 0.2 0
0.13333333 0.2 0
0.16666667 0.2 0
0.2 0.2 0
0.23333333 0.2 0
0.26666667 0.2 0
0.3 0.2 0
0.33333333 0.2 0
0.36666667 0.2 0
0.4 0.2 0
0.43333333 0.2 0
0.46666667 0.2 0
0.5 0.2 0
0.53333333 0.2 0
0.56666667 0.2 0
0.6 0.2 0
0.63333333 0.2 0
0.66666667 0.2 0
0.7 0.2 0
0.73333333 0.2 0
0.76666667 0.2 0
0.8 0.2 0
0.83333333 0.2 0
0.86666667 0.2 0
0.9 0.2 0
0.93333333 0.2 0
0.96666667 0.2 0
1 0.2 0
0 0.23333333 0
0.033333333 0.23333333 0
0.066666667 0.23333333 0
0.1 0.23333333 0
0.13333333 0.23333333 0
0.16666667 0.23333333 0
0.2 0.23333333 0
0.23333333 0.23333333 0
0.26666667 0.23333333 0
0.3 0.23333333 0
0.33333333 0.23333333 0
0.36666667 0.23333333 0
0.4 0.23333333 0
0.43333333 0.23333333 0
0.46666667 0.23333333 0
0.5 0.23333333 0
0.53333333 0.23333333 0
0.56666667 0.23333333 0
0.6 0.23333333 0
0.63333333 0.23333333 0
0.66666667 0.23333333 0
0.7 0.23333333 0
0.73333333 0.23333333 0
0.76666667 0.23333333 0
0.8 0.23333333 0
0.83333333 0.23333333 0
0.86666667 0.23333333 0
0.9 0.23333333 0
0.93333333 0.23333333 0
0.96666667 0.23333333 0
1 0.23333333 0
0 0.26666667 0
0.033333333 0.26666667 0
0.066666667 0.26666667 0
0.1 0.26666667 0
0.13333333 0.26666667 0
0.16666667 0.26666667 0
0.2 0.26666667 0
0.23333333 0.26666667 0
0.26666667 0.26666667 0
0.3 0.26666667 0
0.33333333 0.26666667 0
0.36666667 0.26666667 0
0.4 0.26666667 0
0.43333333 0.26666667 0
0.46666667 0.26666667 0
0.5 0.26666667 0
0.53333333 0.26666667 0
0.56666667 0.26666667 0
0.6 0.26666667 0
0.63333333 0.26666667 0
0.66666667 0.26666667 0
0.7 0.26666667 0
0.73333333 0.26666667 0
0.76666667 0.26666667 0
0.8 0.26666667 0
0.83333333 0.26666667 0
0.86666667 0.26666667 0
0.9 0.26666667 0
0.93333333 0.26666667 0
0.96666667 0.26666667 0
1 0.26666667 0
0 0.3 0
0.033333333 0.3 0
0.066666667 0.3 0
0.1 0.3 0
0.13333333 0.3 0
0.16666667 0.3 0
0.2 0.3 0
0.23333333 0.3 0
0.26666667 0.3 0
0.3 0.3 0
0.33333333 0.3 0
0.36666667 0.3 0
0.4 0.3 0
0.43333333 0.3 0
0.46666667 0.3 0
0.5 0.3 0
0.53333333 0.3 0
0.56666667 0.3 0
0.6 0.3 0
0.63333333 0.3 0
0.66666667 0.3 0
0.7 0.3 0
0.73333333 0.3 0
0.76666667 0.3 0
0.8 0.3 0
0.83333333 0.3 0
0.86666667 0.3 0
0.9 0.3 0
0.93333333 0.3 0
0.96666667 0.3 0
1 0.3 0
0 0.33333333 0
0.033333333 0.33333333 0
0.066666667 0.33333333 0
0.1 0.33333333 0
0.13333333 0.33333333 0
0.16666667 0.33333333 0
0.2 0.33333333 0
0.23333333 0.33333333 0
0.26666667 0.33333333 0
0.3 0.33333333 0
0.33333333 0.33333333 0
0.36666667 0.33333333 0
0.4 0.33333333 0
0.43333333 0.33333333 0
0.46666667 0.33333333 0
0.5 0.33333333 0
0.53333333 0.33333333 0
0.56666667 0.33333333 0
0.6 0.33333333 0
0.63333333 0.33333333 0
0.66666667 0.33333333 0
0.7 0.33333333 0
0.73333333 0.33333333 0
0.76666667 0.33333333 0
0.8 0.33333333 0
0.83333333 0.33333333 0
0.86666667 0.33333333 0
0.9 0.33333333 0
0.93333333 0.33333333 0
0.96666667 0.33333333 0
1 0.33333333 0
0 0.36666667 0
0.033333333 0.36666667 0
0.066666667 0.36666667 0
0.1 0.36666667 0
0.13333333 0.36666667 0
0.16666667 0.36666667 0
0.2 0.36666667 0
0.23333333 0.36666667 0
0.26666667 0.36666667 0
0.3 0.36666667 0
0.33333333 0.36666667 0
0.36666667 0.36666667 0
0.4 0.36666667 0
0.43333333 0.36666667 0
0.46666667 0.36666667 0
0.5 0.36666667 0
0.53333333 0.36666667 0
0.56666667 0.36666667 0
0.6 0.36666667 0
0.63333333 0.36666667 0
0.66666667 0.36666667 0
0.7 0.36666667 0
0.73333333 0.36666667 0
0.76666667 0.36666667 0
0.8 0.36666667 0
0.83333333 0.36666667 0
0.86666667 0.36666667 0
0.9 0.36666667 0
0.93333333 0.36666667 0
0.96666667 0.36666667 0
1 0.36666667 0
0 0.4 0
0.033333333 0.4 0
0.066666667 0.4 0
0.1 0.4 0
0.13333333 0.4 0
0.16666667 0.4 0
0.2 0.4 0
0.23333333 0.4 0
0.26666667 0.4 0
0.3 0.4 0
0.33333333 0.4 0
0.36666667 0.4 0
0.4 0.4 0
0.43333333 0.4 0
0.46666667 0.4 0
0.5 0.4 0
0.53333333 0.4 0
0.56666667 0.4 0
0.6 0.4 0
0.63333333 0.4 0
0.66666667 0.4 0
0.7 0.4 0
0.73333333 0.4 0
0.76666667 0.4 0
0.8 0.4 0
0.83333333 0.4 0
0.86666667 0.4 0
0.9 0.4 0
0.93333333 0.4 0
0.96666667 0.4 0
1 0.4 0
0 0.43333333 0
0.033333333 0.43333333 0
0.066666667 0.43333333 0
0.1 0.43333333 0
0.13333333 0.43333333 0
0.16666667 0.43333333 0
0.2 0.43333333 0
0.23333333 0.43333333 0
0.26666667 0.43333333 0
0.3 0.43333333 0
0.33333333 0.43333333 0
0.36666667 0.43333333 0
0.4 0.43333333 0
0.43333333 0.43333333 0
0.46666667 0.43333333 0
0.5 0.43333333 0
0.53333333 0.43333333 0
0.56666667 0.43333333 0
0.6 0.43333333 0
0.63333333 0.43333333 0
0.66666667 0.43333333 0
0.7 0.43333333 0
0.73333333 0.43333333 0
0.76666667 0.43333333 0
0.8 0.43333333 0
0.83333333 0.43333333 0
0.86666667 0.43333333 0
0.9 0.43333333 0
0.93333333 0.43333333 0
0.96666667 0.43333333 0
1 0.43333333 0
0 0.46666667 0
0.033333333 0.46666667 0
0.066666667 0.46666667 0
0.1 0.46666667 0
0.13333333 0.46666667 0
0.16666667 0.46666667 0
0.2 0.46666667 0
0.23333333 0.46666667 0
0.26666667 0.46666667 0
0.3 0.46666667 0
0.33333333 0.46666667 0
0.36666667 0.46666667 0
0.4 0.46666667 0
0.43333333 0.46666667 0
0.46666667 0.46666667 0
0.5 0.46666667 0
0.53333333 0.46666667 0
0.56666667 0.46666667 0
0.6 0.46666667 0
0.63333333 0.46666667 0
0.66666667 0.46666667 0
0.7 0.46666667 0
0.73333333 0.46666667 0
0.76666667 0.46666667 0
0.8 0.46666667 0
0.83333333 0.46666667 0
0.86666667 0.46666667 0
0.9 0.46666667 0
0.93333333 0.46666667 0
0.96666667 0.46666667 0
1 0.46666667 0
0 0.5 0
0.033333333 0.5 0
0.066666667 0.5 0
0.1 0.5 0
0.13333333 0.5 0
0.16666667 0.5 0
0.2 0.5 0
0.23333333 0.5 0
0.26666667 0.5 0
0.3 0.5 0
0.33333333 0.5 0
0.36666667 0.5 0
0.4 0.5 0
0.43333333 0.5 0
0.46666667 0.5 0
0.5 0.5 0
0.53333333 0.5 0
0.56666667 0.5 0
0.6 0.5 0
0.63333333 0.5 0
0.66666667 0.5 0
0.7 0.5 0
0.73333333 0.5 0
0.76666667 0.5 0
0.8 0.5 0
0.83333333 0.5 0
0.86666667 0.5 0
0.9 0.5 0
0.93333333 0.5 0
0.96666667 0.5 0
1 0.5 0
0 0.53333333 0
0.033333333 0.53333333 0
0.066666667 0.53333333 0
0.1 0.53333333 0
0.13333333 0.53333333 0
0.16666667 0.53333333 0
0.2 0.53333333 0
0.23333333 0.53333333 0
0.26666667 0.53333333 0
0.3 0.53333333 0
0.33333333 0.53333333 0
0.36666667 0.53333333 0
0.4 0.53333333 0
0.43333333 0.53333333 0
0.46666667 0.53333333 0
0.5 0.53333333 0
0.53333333 0.53333333 0
0.56666667 0.53333333 0
0.6 0.53333333 0
0.63333333 0.53333333 0
0.66666667 0.53333333 0
0.7 0.53333333 0
0.73333333 0.53333333 0
0.76666667 0.53333333 0
[...]
CELL_DATA 1920
Scalars  Label int 1
LOOKUP_TABLE FreeFempp_table
0
0
0
0
0
0
0
0
0
0
0
0
0
0
0
0
0
0
0
0
0
0
0
0
0
0
0
0
0
0
0
0
0
0
0
0
0
0
0
0
0
0
0
0
0
0
0
0
0
0
0
0
0
0
0
0
0
0
0
0
0
0
0
0
0
0
0
0
0
0
0
0
0
0
0
0
0
0
0
0
0
0
0
0
0
0
0
0
0
0
0
0
0
0
0
0
0
0
0
0
0
0
0
0
0
0
0
0
0
0
0
0
0
0
0
0
0
0
0
0
0
0
0
0
0
0
0
0
0
0
0
0
0
0
0
0
0
0
0
0
0
0
0
0
0
0
0
0
0
0
0
0
0
0
0
0
0
0
0
0
0
0
0
0
0
0
0
0
0
0
0
0
0
0
0
0
0
0
0
0
0
0
0
0
0
0
0
0
0
0
0
0
0
0
0
0
0
0
0
0
0
0
0
0
0
0
0
0
0
0
0
0
0
0
0
0
0
0
0
0
0
0
0
0
0
0
0
0
0
0
0
0
0
0
0
0
0
0
0
0
0
0
0
0
0
0
0
0
0
0
0
0
0
0
0
0
0
0
0
0
0
0
0
0
0
0
0
0
0
0
0
0
0
0
0
0
0
0
0
0
0
0
0
0
0
0
0
0
0
0
0
0
0
0
0
0
0
0
0
0
0
0
0
0
0
0
0
0
0
0
0
0
0
0
0
0
0
0
0
0
0
0
0
0
0
0
0
0
0
0
0
0
0
0
0
0
0
0
0
0
0
0
0
0
0
0
0
0
0
0
0
0
0
0
0
0
0
0
0
0
0
0
0
0
0
0
0
0
0
0
0
0
0
0
0
0
0
0
0
0
0
0
0
0
0
0
0
0
0
0
0
0
0
0
0
0
0
0
0
0
0
0
0
0
0
0
0
0
0
0
0
0
0
0
0
0
0
0
0
0
0
0
0
0
0
0
0
0
0
0
0
0
0
0
0
0
0
0
0
0
0
0
0
0
0
0
0
0
0
0
0
0
0
0
0
0
0
0
0
0
0
0
0
0
0
0
0
0
0
0
0
0
0
0
0
0
0
0
0
0
0
0
0
0
0
0
0
0
0
0
0
0
0
0
0
0
0
0
0
0
0
0
0
0
0
0
0
0
0
0
0
0
0
0
0
0
0
0
0
0
0
0
0
0
0
0
0
0
0
0
0
0
0
0
0
0
0
0
0
0
0
0
0
0
0
0
0
0
0
0
0
0
0
0
0
0
0
0
0
0
0
0
0
0
0
0
0
0
0
0
0
0
0
0
0
0
0
0
0
0
0
0
0
0
0
0
0
0
0
0
0
0
0
0
0
0
0
0
0
0
0
0
0
0
0
0
0
0
0
0
0
0
0
0
0
0
0
0
0
0
0
0
0
0
0
0
0
0
0
0
0
0
0
0
0
0
0
0
0
0
0
0
0
0
0
0
0
0
0
0
0
0
0
0
0
0
0
0
0
0
0
0
0
0
0
0
0
0
0
0
0
0
0
0
0
0
0
0
0
0
0
0
0
0
0
0
0
0
0
0
0
0
0
0
0
0
0
0
0
0
0
0
0
0
0
0
0
0
0
0
0
0
0
0
0
0
0
0
0
0
0
0
0
0
0
0
0
0
0
0
0
0
0
0
0
0
0
0
0
0
0
0
0
0
0
0
0
0
0
0
0
0
0
0
0
0
0
0
0
0
0
0
0
0
0
0
0
0
0
0
0
0
0
0
0
0
0
0
0
0
0
0
0
0
0
0
0
0
0
0
0
0
0
0
0
0
0
0
0
0
0
0
0
0
0
0
0
0
0
0
0
0
0
0
0
0
0
0
0
0
0
0
0
0
0
0
0
0
0
0
0
0
0
0
0
0
0
0
0
0
0
0
0
0
0
0
0
0
0
0
0
0
0
0
0
0
0
0
0
0
0
0
0
0
0
0
0
0
0
0
0
0
0
0
0
0
0
0
0
0
0
0
0
0
0
0
0
0
0
0
0
0
0
0
0
0
0
0
0
0
0
0
0
0
0
0
0
0
0
0
0
0
0
0
0
0
0
0
0
0
0
0
0
0
0
0
0
0
0
0
0
0
0
0
0
0
0
0
0
0
0
0
0
0
0
0
0
0
0
0
0
0
0
0
0
0
0
0
0
0
0
0
0
0
0
0
0
0
0
0
0
0
0
0
0
0
0
0
0
0
0
0
0
0
0
0
0
0
0
0
0
0
0
0
0
0
0
0
0
0
0
0
0
0
0
0
0
0
0
0
0
0
0
0
0
0
0
0
0
0
0
0
0
0
0
0
0
0
0
0
0
0
0
0
0
0
0
0
0
0
0
0
0
0
0
0
0
0
0
0
0
0
0
0
0
0
0
0
0
0
0
0
0
0
0
0
0
0
0
0
0
0
0
0
0
0
0
0
0
0
0
0
0
0
0
0
0
0
0
0
0
0
0
0
0
0
0
0
0
0
0
0
0
0
0
0
0
0
0
0
0
0
0
0
0
0
0
0
0
0
0
0
0
0
0
0
0
0
0
0
0
0
0
0
0
0
0
0
0
0
0
0
0
0
0
0
0
0
0
0
0
0
0
0
0
0
0
0
0
0
0
0
0
0
0
0
0
0
0
0
0
0
0
0
0
0
0
0
0
0
0
0
0
0
0
0
0
0
0
0
0
0
0
0
0
0
0
0
0
0
0
0
0
0
0
0
0
0
0
0
0
0
0
0
0
0
0
0
0
0
0
0
0
0
0
0
0
0
0
0
0
0
0
0
0
0
0
0
0
0
0
0
0
0
0
0
0
0
0
0
0
0
0
0
0
0
0
0
0
0
0
0
0
0
0
0
0
0
0
0
0
0
0
0
0
0
0
0
0
0
0
0
0
0
0
0
0
0
0
0
0
0
0
0
0
0
0
0
0
0
0
0
0
0
0
0
0
0
0
0
0
0
0
0
0
0
0
0
0
0
0
0
0
0
0
0
0
0
0
0
0
0
0
0
0
0
0
0
0
0
0
0
0
0
0
0
0
0
0
0
0
0
0
0
0
0
0
0
0
0
0
0
0
0
0
0
0
0
0
0
0
0
0
0
0
0
0
0
0
0
0
0
0
0
0
0
0
0
0
0
0
0
0
0
0
0
0
0
0
0
0
0
0
0
0
0
0
0
0
0
0
0
0
0
0
0
0
0
0
0
0
0
0
0
0
0
0
0
0
0
0
0
0
0
0
0
0
0
0
0
0
0
0
0
0
0
0
0
0
0
0
0
0
0
0
0
0
0
0
0
0
0
0
0
0
0
0
0
0
0
0
0
0
0
0
0
0
0
0
0
0
0
0
0
0
0
0
0
0
0
0
0
0
0
0
0
0
0
0
0
0
0
0
0
0
0
0
0
0
0
0
0
0
0
0
0
0
0
0
0
0
0
0
0
0
0
0
0
0
0
0
0
0
0
0
0
0
0
0
0
0
0
0
0
0
0
0
0
0
0
0
0
0
0
0
0
0
0
0
0
0
0
0
0
0
0
0
0
0
0
0
0
0
0
0
0
0
0
0
0
0
0
0
0
0
0
0
0
0
0
0
0
0
0
0
0
0
0
0
0
0
0
0
0
0
0
0
0
0
0
0
0
0
0
0
0
0
0
0
0
0
0
0
0
0
0
0
0
0
0
0
0
0
0
0
0
0
0
0
0
0
0
0
0
0
0
0
0
0
0
0
0
0
0
0
0
0
0
0
0
0
0
0
0
0
0
0
0
0
0
0
0
0
0
0
0
0
0
0
0
0
0
0
0
0
0
0
0
0
0
0
0
0
0
0
0
0
0
0
0
0
0
0
0
0
0
0
0
0
0
0
0
0
0
0
0
0
0
0
0
0
0
0
0
0
0
0
0
0
0
0
0
0
0
0
0
0
0
0
0
0
0
0
0
0
0
0
0
0
0
0
0
0
0
0
0
0
0
0
0
0
0
0
0
0
0
0
0
0
0
0
0
0
0
0
0
0
0
0
0
0
0
0
0
0
0
0
0
0
0
0
0
0
0
0
0
0
0
0
0
1
1
1
1
1
1
1
1
1
1
1
1
1
1
1
1
1
1
1
1
1
1
1
1
1
1
1
1
1
1
2
2
2
2
2
2
2
2
2
2
2
2
2
2
2
2
2
2
2
2
2
2
2
2
2
2
2
2
2
2
3
3
3
3
3
3
3
3
3
3
3
3
3
3
3
3
3
3
3
3
3
3
3
3
3
3
3
3
3
3
4
4
4
4
4
4
4
4
4
4
4
4
4
4
4
4
4
4
4
4
4
4
4
4
4
4
4
4
4
4

LOOKUP_TABLE FreeFempp_table 5
1.00000000 0.00000000 0.00000000 1.00000000
1.00000000 1.00000000 0.00000000 1.00000000
1.00000000 0.00000000 1.00000000 1.00000000
0.00000000 1.00000000 0.00000000 1.00000000
0.00000000 1.00000000 1.00000000 1.00000000

POINT_DATA 961
FIELD FieldData 1
Density 1 961 float
2.21972674e-01 2.46283665e-01 2.75589585e-01 2.84708709e-01 2.78156370e-01 2.63101012e-01 2.38818690e-01 2.00114548e-01 1.51702791e-01 1.26175553e-01 1.55199960e-01 2.42090032e-01 3.25028747e-01 3.62371057e-01 3.80737215e-01 4.01484847e-01 4.43564862e-01 5.31008363e-01 6.36843741e-01 6.76386356e-01 6.41646504e-01 6.09086752e-01 6.27470016e-01 6.40762329e-01 6.27846539e-01 6.20178580e-01 6.06400907e-01 5.83426833e-01 5.80427885e-01 5.69384456e-01 5.48943043e-01 8.29574391e-02 1.66701406e-01 2.12004334e-01 2.22056687e-01 2.16254443e-01 2.03928381e-01 1.85532510e-01 1.57526180e-01 1.20630525e-01 9.42374766e-02 1.13872573e-01 1.99739739e-01 2.99513191e-01 3.38809550e-01 3.55127990e-01 3.75497073e-01 4.16785061e-01 5.18512726e-01 6.49892032e-01 6.71959400e-01 5.96624196e-01 5.21194100e-01 5.08299708e-01 5.30814230e-01 5.31578183e-01 5.33475697e-01 5.47858357e-01 5.61982393e-01 5.79211950e-01 5.73295295e-01 5.57060838e-01 4.60146852e-02 2.80859619e-02 3.85445468e-02 3.88188213e-02 3.84422578e-02 3.64054851e-02 3.32766324e-02 2.85824742e-02 2.26865616e-02 2.00775359e-02 3.70057151e-02 1.34647176e-01 2.67965287e-01 3.05921882e-01 3.34519714e-01 3.83158207e-01 4.08175975e-01 4.79349762e-01 5.64634979e-01 4.67707604e-01 2.87253916e-01 2.05159366e-01 1.68316051e-01 1.57633990e-01 1.56077534e-01 1.72307864e-01 2.27646843e-01 3.55403781e-01 4.64019239e-01 5.06970167e-01 5.16105831e-01 3.00400972e-01 1.02000833e-01 2.95791794e-02 3.45252454e-02 5.82246222e-02 6.24065027e-02 6.29239008e-02 6.35152385e-02 6.48254827e-02 6.18400797e-02 3.75664905e-02 2.21699979e-02 5.04617877e-02 6.57305568e-02 1.01782501e-01 2.86166459e-01 3.50076348e-01 3.92982543e-01 4.73948121e-01 2.41366044e-01 1.00424081e-01 6.45016506e-02 4.76661250e-02 3.84415686e-02 3.13597396e-02 3.12972590e-02 4.43020649e-02 1.04966894e-01 2.77181506e-01 4.16074723e-01 4.62601513e-01 4.22609836e-01 3.26010853e-01 1.54466018e-01 1.62899897e-01 2.97392368e-01 3.36054832e-01 3.40557009e-01 3.42855185e-01 3.45388085e-01 3.34561706e-01 2.55191952e-01 9.73851755e-02 7.03425184e-02 4.79778834e-02 1.02724489e-02 4.42741476e-02 7.45189041e-02 1.22407258e-01 3.45458955e-01 4.50028241e-01 1.76657751e-01 7.15905279e-02 5.10090142e-02 4.12819050e-02 3.45648415e-02 2.79715266e-02 2.12971549e-02 2.42770799e-02 8.59374329e-02 2.90313274e-01 4.11951691e-01 4.09906626e-01 3.43766987e-01 1.90497786e-01 1.66782826e-01 3.09620768e-01 3.84736598e-01 3.99230003e-01 4.03583407e-01 4.06825870e-01 4.06198949e-01 3.89090836e-01 3.52798909e-01 3.44943553e-01 3.10683787e-01 1.20421000e-01 7.47342184e-02 4.70091179e-02 1.61784682e-02 1.09243631e-01 4.43538755e-01 5.74456811e-01 2.78566062e-01 1.39540762e-01 1.03602707e-01 9.36074182e-02 8.42697918e-02 6.14585988e-02 2.66487896e-02 1.91043578e-02 1.27750218e-01 3.39055359e-01 3.93530309e-01 3.32791656e-01 2.22606957e-01 1.76024139e-01 2.71132618e-01 3.67113262e-01 3.99663240e-01 4.10775214e-01 4.16595519e-01 4.19594556e-01 4.18204099e-01 4.15368110e-01 4.20424104e-01 4.21354085e-01 3.81823629e-01 3.57544065e-01 3.06781739e-01 1.13466032e-01 5.85139766e-02 9.75780711e-02 2.92386383e-01 5.91999352e-01 4.04353380e-01 2.56561577e-01 2.22947806e-01 2.07122669e-01 1.79304972e-01 8.86668861e-02 1.75354388e-02 8.29988346e-02 3.07565004e-01 4.17385399e-01 3.64278644e-01 2.99784034e-01 2.53690481e-01 3.00795883e-01 3.80585134e-01 4.19010758e-01 4.34026927e-01 4.41651493e-01 4.45716113e-01 4.46706682e-01 4.45481867e-01 4.44667071e-01 4.43733811e-01 4.39982742e-01 4.40109044e-01 4.35225695e-01 3.87827039e-01 3.08700353e-01 9.94359031e-02 4.64605503e-02 2.01828778e-01 6.06577814e-01 5.48234582e-01 3.91340554e-01 3.26504439e-01 2.69417226e-01 1.63169861e-01 2.98105255e-02 7.97335729e-02 3.14177245e-01 4.99270380e-01 4.67564225e-01 4.32520688e-01 4.08876032e-01 4.17583495e-01 4.50736344e-01 4.70516413e-01 4.78237599e-01 4.81628805e-01 4.82433945e-01 4.81108338e-01 4.78186220e-01 4.74684328e-01 4.71015424e-01 4.66900557e-01 4.63099629e-01 4.59269255e-01 4.53435540e-01 4.41770941e-01 3.55578423e-01 1.01332933e-01 3.28677446e-02 1.85822159e-01 6.15677774e-01 6.40737474e-01 5.09088278e-01 3.83021623e-01 2.31491551e-01 4.33856100e-02 7.97641873e-02 3.13940763e-01 5.95263302e-01 6.01243556e-01 5.83257496e-01 5.66346526e-01 5.54894269e-01 5.49313545e-01 5.43587923e-01 5.37251592e-01 5.31387389e-01 5.25563121e-01 5.19496799e-01 5.13250411e-01 5.07081628e-01 5.01074433e-01 4.95160282e-01 4.89460230e-01 4.83959168e-01 4.78462785e-01 4.72503781e-01 4.58724737e-01 3.67837936e-01 1.06033809e-01 3.40315178e-02 1.75392643e-01 5.78275621e-01 6.35745168e-01 5.54165244e-01 3.63364249e-01 6.72124252e-02 5.63679934e-02 2.55259424e-01 6.19310021e-01 6.55995131e-01 6.53195620e-01 6.43912137e-01 6.32065117e-01 6.17251813e-01 6.01271033e-01 5.86573005e-01 5.73866069e-01 5.62769353e-01 5.52888274e-01 5.44011772e-01 5.36008418e-01 5.28704345e-01 5.21941602e-01 5.15622318e-01 5.09588778e-01 5.03699064e-01 4.97990817e-01 4.91896033e-01 4.78574306e-01 3.84637982e-01 1.15643531e-01 3.59751992e-02 1.46686763e-01 4.13316965e-01 4.17838246e-01 5.47582865e-01 1.70585051e-01 2.11375654e-02 6.12527244e-02 5.36092699e-01 5.72493494e-01 5.89669704e-01 6.05103970e-01 6.17340505e-01 6.19586229e-01 6.13282681e-01 6.02851570e-01 5.91461897e-01 5.80509484e-01 5.70485711e-01 5.61537743e-01 5.53646863e-01 5.46689093e-01 5.40507257e-01 5.34911036e-01 5.29665589e-01 5.24598539e-01 5.19747436e-01 5.15573025e-01 5.12763321e-01 5.04028141e-01 4.08887476e-01 1.31621808e-01 3.80474404e-02 7.54040927e-02 1.05997711e-01 2.52982616e-01 4.29144740e-01 7.03420490e-02 1.71692576e-02 4.03440714e-01 3.96787673e-01 4.23060775e-01 4.70533162e-01 5.22544861e-01 5.59582949e-01 5.77360928e-01 5.81929743e-01 5.79612553e-01 5.74230015e-01 5.67782402e-01 5.61309814e-01 5.55334866e-01 5.50077796e-01 5.45570910e-01 5.41687727e-01 5.38188636e-01 5.34831882e-01 5.31491756e-01 5.28479040e-01 5.27441442e-01 5.30877471e-01 5.31011462e-01 4.44506228e-01 1.80993497e-01 6.72567785e-02 3.30267511e-02 1.85413539e-01 5.91448843e-01 1.33334324e-01 1.21091148e-02 2.99613446e-01 2.55508721e-01 2.65653431e-01 3.21882725e-01 4.00130689e-01 4.70490485e-01 5.15438914e-01 5.38654447e-01 5.48538983e-01 5.51082432e-01 5.49810708e-01 5.46772957e-01 5.43189883e-01 5.39787591e-01 5.36955655e-01 5.34803808e-01 5.33216715e-01 5.31925499e-01 5.30558705e-01 5.28772235e-01 5.26920617e-01 5.27154565e-01 5.33432126e-01 5.47061503e-01 5.09352922e-01 3.00333709e-01 9.44441557e-02 2.01774314e-01 6.42008126e-01 1.52369753e-01 4.84530441e-03 2.24964991e-01 1.74805030e-01 1.73354968e-01 2.24631086e-01 3.08403879e-01 3.94648641e-01 4.56900537e-01 4.94113892e-01 5.14182150e-01 5.23737669e-01 5.27070880e-01 5.26872635e-01 5.24899662e-01 5.22357702e-01 5.20076394e-01 5.18564641e-01 5.18035948e-01 5.18414319e-01 5.19302726e-01 5.19892871e-01 5.18952310e-01 5.15007973e-01 5.06628513e-01 4.96677637e-01 5.02811313e-01 4.77058411e-01 2.01108694e-01 2.36079171e-01 6.61620319e-01 1.55170590e-01 2.82961247e-03 1.58042833e-01 1.21798582e-01 1.23053245e-01 1.76824689e-01 2.64687628e-01 3.53616923e-01 4.19818163e-01 4.62346315e-01 4.87817645e-01 5.01890957e-01 5.08446276e-01 5.10125697e-01 5.08823633e-01 5.06008983e-01 5.02888381e-01 5.00447512e-01 4.99415904e-01 5.00182807e-01 5.02679229e-01 5.06225407e-01 5.09348154e-01 5.09394288e-01 5.00747859e-01 4.69929695e-01 4.07738328e-01 3.70714545e-01 2.68008173e-01 2.78912008e-01 6.55215979e-01 1.53143138e-01 2.35446705e-03 1.01214312e-01 8.42640102e-02 9.60405171e-02 1.62594438e-01 2.60206521e-01 3.46131474e-01 4.06548321e-01 4.46767449e-01 4.72959340e-01 4.89023328e-01 4.97590423e-01 5.00632286e-01 4.99736637e-01 4.96298105e-01 4.91659075e-01 4.87164170e-01 4.84092534e-01 4.83451068e-01 4.85680550e-01 4.90419209e-01 4.96567369e-01 5.02732277e-01 5.06900489e-01 4.99877751e-01 4.44663554e-01 3.58433723e-01 3.31999302e-01 4.13357168e-01 6.51501775e-01 1.47500172e-01 1.07900996e-03 6.14792071e-02 5.98143153e-02 8.69820118e-02 1.75993726e-01 2.84599543e-01 3.61404508e-01 4.10259604e-01 4.43922192e-01 4.67936665e-01 4.84228134e-01 4.93988037e-01 4.98291999e-01 4.98164654e-01 4.94630456e-01 4.88829672e-01 4.82136130e-01 4.76156414e-01 4.72478509e-01 4.72143114e-01 4.75145340e-01 4.80586380e-01 4.87771064e-01 4.97381806e-01 5.10665178e-01 5.09061217e-01 4.51249301e-01 4.55787867e-01 6.17767155e-01 6.58260703e-01 1.40907198e-01 1.64657785e-03 3.71738933e-02 4.50850129e-02 9.56245959e-02 2.15497062e-01 3.25541466e-01 3.86166245e-01 4.21732664e-01 4.48254436e-01 4.69239205e-01 4.84906822e-01 4.95355844e-01 5.00929654e-01 5.02105474e-01 4.99425292e-01 4.93565530e-01 4.85511661e-01 4.76705670e-01 4.68924105e-01 4.63750690e-01 4.62023407e-01 4.63998914e-01 4.70104694e-01 4.80931222e-01 4.99468535e-01 5.28603733e-01 5.50793409e-01 5.89449644e-01 7.02425539e-01 5.92164934e-01 1.24860175e-01 2.50152708e-03 2.30590180e-02 3.94187570e-02 1.24313004e-01 2.75362670e-01 3.68611932e-01 4.09838378e-01 4.34334576e-01 4.55331653e-01 4.73623663e-01 4.88401413e-01 4.99204755e-01 5.05964279e-01 5.08796871e-01 5.07846117e-01 5.03259718e-01 4.95330095e-01 4.84719276e-01 4.72528338e-01 4.60253328e-01 4.50360477e-01 4.47052032e-01 4.54896539e-01 4.74189550e-01 5.04360199e-01 5.50656974e-01 6.14241898e-01 6.82665110e-01 6.62421405e-01 3.22815120e-01 6.72667474e-02 1.01652590e-03 1.53832436e-02 4.53518517e-02 1.78517178e-01 3.37493062e-01 4.03905928e-01 4.27976608e-01 4.45344329e-01 4.62641388e-01 4.78773624e-01 4.92580533e-01 5.03445685e-01 5.11154413e-01 5.15676916e-01 5.16952217e-01 5.14729023e-01 5.08535922e-01 4.97785777e-01 4.81968075e-01 4.61638093e-01 4.41568315e-01 4.33608741e-01 4.49604630e-01 4.88078535e-01 5.40708482e-01 6.05451167e-01 6.67847812e-01 6.81977212e-01 5.48008084e-01 1.64648637e-01 2.45989300e-02 8.64562299e-03 1.21151712e-02 5.94063327e-02 2.57142067e-01 3.89154971e-01 4.28263366e-01 4.40883666e-01 4.54221487e-01 4.68891680e-01 4.83149618e-01 4.95878518e-01 5.06495059e-01 5.14776468e-01 5.20685673e-01 5.24146020e-01 5.24747074e-01 5.21443307e-01 5.12397766e-01 4.95496064e-01 4.71156627e-01 4.48450178e-01 4.46478963e-01 4.79092658e-01 5.39420843e-01 6.08670294e-01 6.66909575e-01 6.77156687e-01 5.91979325e-01 2.97469437e-01 7.64722675e-02 1.70383211e-02 2.27174554e-02 1.07371174e-02 7.06430897e-02 3.22747201e-01 4.23789710e-01 4.42851365e-01 4.50131118e-01 4.60929245e-01 4.73316580e-01 4.85708356e-01 4.97176856e-01 5.07208407e-01 5.15581191e-01 5.22272706e-01 5.27304649e-01 5.30430853e-01 5.30682385e-01 5.26124835e-01 5.15134335e-01 5.01287401e-01 4.98596013e-01 5.21497190e-01 5.71114898e-01 6.25415146e-01 6.73074782e-01 6.55917823e-01 5.64211965e-01 4.04347837e-01 1.30276904e-01 2.59889551e-02 2.65995190e-02 5.26967905e-02 9.66761634e-03 7.55696297e-02 3.56858909e-01 4.42145318e-01 4.51058924e-01 4.56572175e-01 4.65212762e-01 4.75292057e-01 4.85704333e-01 4.95723635e-01 5.04872024e-01 5.12878239e-01 5.19699156e-01 5.25549173e-01 5.30838251e-01 5.35969734e-01 5.41311502e-01 5.48620045e-01 5.64885080e-01 5.99790692e-01 6.23511016e-01 5.99889517e-01 5.78669906e-01 5.74644506e-01 4.59120750e-01 1.84868291e-01 9.24801007e-02 3.53114232e-02 1.99813973e-02 6.90703839e-02 1.53702706e-01 8.61581229e-03 7.72687718e-02 3.71937096e-01 4.51763988e-01 4.56060648e-01 4.60155278e-01 4.66514349e-01 4.74251777e-01 4.82657075e-01 4.91145194e-01 4.99242604e-01 5.06608188e-01 5.13148248e-01 5.19266427e-01 5.26217997e-01 5.36386251e-01 5.53212941e-01 5.80787778e-01 6.22560918e-01 6.72000051e-01 6.64938271e-01 4.33785588e-01 2.12441474e-01 1.55187637e-01 1.19111940e-01 4.82107289e-02 4.69222479e-02 1.09639496e-01 1.40705869e-01 2.07512096e-01 3.46154660e-01 7.63469562e-03 7.82014281e-02 3.80973458e-01 4.58312631e-01 4.58897978e-01 4.60566372e-01 4.64461505e-01 4.69976038e-01 4.76503730e-01 4.83504623e-01 4.90520895e-01 4.97192651e-01 5.03368855e-01 5.09437978e-01 5.16948581e-01 5.29250085e-01 5.51250637e-01 5.87186754e-01 6.36425436e-01 6.88059330e-01 7.08076537e-01 5.90361238e-01 2.81136543e-01 1.87898561e-01 1.69036388e-01 1.62476748e-01 2.29287803e-01 5.20210564e-01 6.13919795e-01 6.32464051e-01 6.05480015e-01 6.72929501e-03 7.91823566e-02 3.88790101e-01 4.62861806e-01 4.58997220e-01 4.57669228e-01 4.59254295e-01 4.62857455e-01 4.67728376e-01 4.73322183e-01 4.79265749e-01 4.85300034e-01 4.91274953e-01 4.97340620e-01 5.04490614e-01 5.15325069e-01 5.34107566e-01 5.64656436e-01 6.06352985e-01 6.52006269e-01 6.88548386e-01 6.93368256e-01 6.45207107e-01 6.51471078e-01 6.89974546e-01 7.04565108e-01 7.16656923e-01 7.61402011e-01 7.72879124e-01 7.56511867e-01 7.14525819e-01 5.76779665e-03 8.03407729e-02 3.96501094e-01 4.64494973e-01 4.55607355e-01 4.51770484e-01 4.51739579e-01 4.53914404e-01 4.57341492e-01 4.61534053e-01 4.66319859e-01 4.71689731e-01 4.77646649e-01 4.84144479e-01 4.91285026e-01 4.99882281e-01 5.12010753e-01 5.30390143e-01 5.56087375e-01 5.86923480e-01 6.18787110e-01 6.46127522e-01 6.66787088e-01 6.95534110e-01 7.19559848e-01 7.28111446e-01 7.28555679e-01 7.22455144e-01 7.02073216e-01 6.85626805e-01 6.53761566e-01 3.96245997e-03 8.17174837e-02 4.04755086e-01 4.62212354e-01 4.48779225e-01 4.43886191e-01 4.43157554e-01 4.44287717e-01 4.46318775e-01 4.48980898e-01 4.52411920e-01 4.56958234e-01 4.62949038e-01 4.70445871e-01 4.79063451e-01 4.88059729e-01 4.96831417e-01 5.05475819e-01 5.14556527e-01 5.23968041e-01 5.32504499e-01 5.39376736e-01 5.46338201e-01 5.54912508e-01 5.58620095e-01 5.58754563e-01 5.58863878e-01 5.60431361e-01 5.63450277e-01 5.67618668e-01 5.61791658e-01 4.27200925e-03 8.71083215e-02 4.23071027e-01 4.64171410e-01 4.46644366e-01 4.42125499e-01 4.41153705e-01 4.41246688e-01 4.41754192e-01 4.42713439e-01 4.44541305e-01 4.47867721e-01 4.53338504e-01 4.61329132e-01 4.71579611e-01 4.82859880e-01 4.92880434e-01 4.98638779e-01 4.97114897e-01 4.86065537e-01 4.65654194e-01 4.42960024e-01 4.33507711e-01 4.43787247e-01 4.61466312e-01 4.74928558e-01 4.81963307e-01 4.85578477e-01 4.88873333e-01 4.94191319e-01 5.00988305e-01 1.78176668e-02 8.55147988e-02 4.49920446e-01 4.87421006e-01 4.60222065e-01 4.56846118e-01 4.56067860e-01 4.55784887e-01 4.55621600e-01 4.55705315e-01 4.56448466e-01 4.58427280e-01 4.62245226e-01 4.68321383e-01 4.76590365e-01 4.86163110e-01 4.95061845e-01 5.00178814e-01 4.97626215e-01 4.83768642e-01 4.57798898e-01 4.27160263e-01 4.10360247e-01 4.19497401e-01 4.43778366e-01 4.64782923e-01 4.76036221e-01 4.79640871e-01 4.79875386e-01 4.80298012e-01 4.84754443e-01 
