# vtk DataFile Version 2.0
results_case1_non_linear/9_density.vtk, Created by Freefem++ 
ASCII
DATASET UNSTRUCTURED_GRID
POINTS 961 float
0 0 0
0.033333333 0 0
0.066666667 0 0
0.1 0 0
0.13333333 0 0
0.16666667 0 0
0.2 0 0
0.23333333 0 0
0.26666667 0 0
0.3 0 0
0.33333333 0 0
0.36666667 0 0
0.4 0 0
0.43333333 0 0
0.46666667 0 0
0.5 0 0
0.53333333 0 0
0.56666667 0 0
0.6 0 0
0.63333333 0 0
0.66666667 0 0
0.7 0 0
0.73333333 0 0
0.76666667 0 0
0.8 0 0
0.83333333 0 0
0.86666667 0 0
0.9 0 0
0.93333333 0 0
0.96666667 0 0
1 0 0
0 0.033333333 0
0.033333333 0.033333333 0
0.066666667 0.033333333 0
0.1 0.033333333 0
0.13333333 0.033333333 0
0.16666667 0.033333333 0
0.2 0.033333333 0
0.23333333 0.033333333 0
0.26666667 0.033333333 0
0.3 0.033333333 0
0.33333333 0.033333333 0
0.36666667 0.033333333 0
0.4 0.033333333 0
0.43333333 0.033333333 0
0.46666667 0.033333333 0
0.5 0.033333333 0
0.53333333 0.033333333 0
0.56666667 0.033333333 0
0.6 0.033333333 0
0.63333333 0.033333333 0
0.66666667 0.033333333 0
0.7 0.033333333 0
0.73333333 0.033333333 0
0.76666667 0.033333333 0
0.8 0.033333333 0
0.83333333 0.033333333 0
0.86666667 0.033333333 0
0.9 0.033333333 0
0.93333333 0.033333333 0
0.96666667 0.033333333 0
1 0.033333333 0
0 0.066666667 0
0.033333333 0.066666667 0
0.066666667 0.066666667 0
0.1 0.066666667 0
0.13333333 0.066666667 0
0.16666667 0.066666667 0
0.2 0.066666667 0
0.23333333 0.066666667 0
0.26666667 0.066666667 0
0.3 0.066666667 0
0.33333333 0.066666667 0
0.36666667 0.066666667 0
0.4 0.066666667 0
0.43333333 0.066666667 0
0.46666667 0.066666667 0
0.5 0.066666667 0
0.53333333 0.066666667 0
0.56666667 0.066666667 0
0.6 0.066666667 0
0.63333333 0.066666667 0
0.66666667 0.066666667 0
0.7 0.066666667 0
0.73333333 0.066666667 0
0.76666667 0.066666667 0
0.8 0.066666667 0
0.83333333 0.066666667 0
0.86666667 0.066666667 0
0.9 0.066666667 0
0.93333333 0.066666667 0
0.96666667 0.066666667 0
1 0.066666667 0
0 0.1 0
0.033333333 0.1 0
0.066666667 0.1 0
0.1 0.1 0
0.13333333 0.1 0
0.16666667 0.1 0
0.2 0.1 0
0.23333333 0.1 0
0.26666667 0.1 0
0.3 0.1 0
0.33333333 0.1 0
0.36666667 0.1 0
0.4 0.1 0
0.43333333 0.1 0
0.46666667 0.1 0
0.5 0.1 0
0.53333333 0.1 0
0.56666667 0.1 0
0.6 0.1 0
0.63333333 0.1 0
0.66666667 0.1 0
0.7 0.1 0
0.73333333 0.1 0
0.76666667 0.1 0
0.8 0.1 0
0.83333333 0.1 0
0.86666667 0.1 0
0.9 0.1 0
0.93333333 0.1 0
0.96666667 0.1 0
1 0.1 0
0 0.13333333 0
0.033333333 0.13333333 0
0.066666667 0.13333333 0
0.1 0.13333333 0
0.13333333 0.13333333 0
0.16666667 0.13333333 0
0.2 0.13333333 0
0.23333333 0.13333333 0
0.26666667 0.13333333 0
0.3 0.13333333 0
0.33333333 0.13333333 0
0.36666667 0.13333333 0
0.4 0.13333333 0
0.43333333 0.13333333 0
0.46666667 0.13333333 0
0.5 0.13333333 0
0.53333333 0.13333333 0
0.56666667 0.13333333 0
0.6 0.13333333 0
0.63333333 0.13333333 0
0.66666667 0.13333333 0
0.7 0.13333333 0
0.73333333 0.13333333 0
0.76666667 0.13333333 0
0.8 0.13333333 0
0.83333333 0.13333333 0
0.86666667 0.13333333 0
0.9 0.13333333 0
0.93333333 0.13333333 0
0.96666667 0.13333333 0
1 0.13333333 0
0 0.16666667 0
0.033333333 0.16666667 0
0.066666667 0.16666667 0
0.1 0.16666667 0
0.13333333 0.16666667 0
0.16666667 0.16666667 0
0.2 0.16666667 0
0.23333333 0.16666667 0
0.26666667 0.16666667 0
0.3 0.16666667 0
0.33333333 0.16666667 0
0.36666667 0.16666667 0
0.4 0.16666667 0
0.43333333 0.16666667 0
0.46666667 0.16666667 0
0.5 0.16666667 0
0.53333333 0.16666667 0
0.56666667 0.16666667 0
0.6 0.16666667 0
0.63333333 0.16666667 0
0.66666667 0.16666667 0
0.7 0.16666667 0
0.73333333 0.16666667 0
0.76666667 0.16666667 0
0.8 0.16666667 0
0.83333333 0.16666667 0
0.86666667 0.16666667 0
0.9 0.16666667 0
0.93333333 0.16666667 0
0.96666667 0.16666667 0
1 0.16666667 0
0 0.2 0
0.033333333 0.2 0
0.066666667 0.2 0
0.1 0.2 0
0.13333333 0.2 0
0.16666667 0.2 0
0.2 0.2 0
0.23333333 0.2 0
0.26666667 0.2 0
0.3 0.2 0
0.33333333 0.2 0
0.36666667 0.2 0
0.4 0.2 0
0.43333333 0.2 0
0.46666667 0.2 0
0.5 0.2 0
0.53333333 0.2 0
0.56666667 0.2 0
0.6 0.2 0
0.63333333 0.2 0
0.66666667 0.2 0
0.7 0.2 0
0.73333333 0.2 0
0.76666667 0.2 0
0.8 0.2 0
0.83333333 0.2 0
0.86666667 0.2 0
0.9 0.2 0
0.93333333 0.2 0
0.96666667 0.2 0
1 0.2 0
0 0.23333333 0
0.033333333 0.23333333 0
0.066666667 0.23333333 0
0.1 0.23333333 0
0.13333333 0.23333333 0
0.16666667 0.23333333 0
0.2 0.23333333 0
0.23333333 0.23333333 0
0.26666667 0.23333333 0
0.3 0.23333333 0
0.33333333 0.23333333 0
0.36666667 0.23333333 0
0.4 0.23333333 0
0.43333333 0.23333333 0
0.46666667 0.23333333 0
0.5 0.23333333 0
0.53333333 0.23333333 0
0.56666667 0.23333333 0
0.6 0.23333333 0
0.63333333 0.23333333 0
0.66666667 0.23333333 0
0.7 0.23333333 0
0.73333333 0.23333333 0
0.76666667 0.23333333 0
0.8 0.23333333 0
0.83333333 0.23333333 0
0.86666667 0.23333333 0
0.9 0.23333333 0
0.93333333 0.23333333 0
0.96666667 0.23333333 0
1 0.23333333 0
0 0.26666667 0
0.033333333 0.26666667 0
0.066666667 0.26666667 0
0.1 0.26666667 0
0.13333333 0.26666667 0
0.16666667 0.26666667 0
0.2 0.26666667 0
0.23333333 0.26666667 0
0.26666667 0.26666667 0
0.3 0.26666667 0
0.33333333 0.26666667 0
0.36666667 0.26666667 0
0.4 0.26666667 0
0.43333333 0.26666667 0
0.46666667 0.26666667 0
0.5 0.26666667 0
0.53333333 0.26666667 0
0.56666667 0.26666667 0
0.6 0.26666667 0
0.63333333 0.26666667 0
0.66666667 0.26666667 0
0.7 0.26666667 0
0.73333333 0.26666667 0
0.76666667 0.26666667 0
0.8 0.26666667 0
0.83333333 0.26666667 0
0.86666667 0.26666667 0
0.9 0.26666667 0
0.93333333 0.26666667 0
0.96666667 0.26666667 0
1 0.26666667 0
0 0.3 0
0.033333333 0.3 0
0.066666667 0.3 0
0.1 0.3 0
0.13333333 0.3 0
0.16666667 0.3 0
0.2 0.3 0
0.23333333 0.3 0
0.26666667 0.3 0
0.3 0.3 0
0.33333333 0.3 0
0.36666667 0.3 0
0.4 0.3 0
0.43333333 0.3 0
0.46666667 0.3 0
0.5 0.3 0
0.53333333 0.3 0
0.56666667 0.3 0
0.6 0.3 0
0.63333333 0.3 0
0.66666667 0.3 0
0.7 0.3 0
0.73333333 0.3 0
0.76666667 0.3 0
0.8 0.3 0
0.83333333 0.3 0
0.86666667 0.3 0
0.9 0.3 0
0.93333333 0.3 0
0.96666667 0.3 0
1 0.3 0
0 0.33333333 0
0.033333333 0.33333333 0
0.066666667 0.33333333 0
0.1 0.33333333 0
0.13333333 0.33333333 0
0.16666667 0.33333333 0
0.2 0.33333333 0
0.23333333 0.33333333 0
0.26666667 0.33333333 0
0.3 0.33333333 0
0.33333333 0.33333333 0
0.36666667 0.33333333 0
0.4 0.33333333 0
0.43333333 0.33333333 0
0.46666667 0.33333333 0
0.5 0.33333333 0
0.53333333 0.33333333 0
0.56666667 0.33333333 0
0.6 0.33333333 0
0.63333333 0.33333333 0
0.66666667 0.33333333 0
0.7 0.33333333 0
0.73333333 0.33333333 0
0.76666667 0.33333333 0
0.8 0.33333333 0
0.83333333 0.33333333 0
0.86666667 0.33333333 0
0.9 0.33333333 0
0.93333333 0.33333333 0
0.96666667 0.33333333 0
1 0.33333333 0
0 0.36666667 0
0.033333333 0.36666667 0
0.066666667 0.36666667 0
0.1 0.36666667 0
0.13333333 0.36666667 0
0.16666667 0.36666667 0
0.2 0.36666667 0
0.23333333 0.36666667 0
0.26666667 0.36666667 0
0.3 0.36666667 0
0.33333333 0.36666667 0
0.36666667 0.36666667 0
0.4 0.36666667 0
0.43333333 0.36666667 0
0.46666667 0.36666667 0
0.5 0.36666667 0
0.53333333 0.36666667 0
0.56666667 0.36666667 0
0.6 0.36666667 0
0.63333333 0.36666667 0
0.66666667 0.36666667 0
0.7 0.36666667 0
0.73333333 0.36666667 0
0.76666667 0.36666667 0
0.8 0.36666667 0
0.83333333 0.36666667 0
0.86666667 0.36666667 0
0.9 0.36666667 0
0.93333333 0.36666667 0
0.96666667 0.36666667 0
1 0.36666667 0
0 0.4 0
0.033333333 0.4 0
0.066666667 0.4 0
0.1 0.4 0
0.13333333 0.4 0
0.16666667 0.4 0
0.2 0.4 0
0.23333333 0.4 0
0.26666667 0.4 0
0.3 0.4 0
0.33333333 0.4 0
0.36666667 0.4 0
0.4 0.4 0
0.43333333 0.4 0
0.46666667 0.4 0
0.5 0.4 0
0.53333333 0.4 0
0.56666667 0.4 0
0.6 0.4 0
0.63333333 0.4 0
0.66666667 0.4 0
0.7 0.4 0
0.73333333 0.4 0
0.76666667 0.4 0
0.8 0.4 0
0.83333333 0.4 0
0.86666667 0.4 0
0.9 0.4 0
0.93333333 0.4 0
0.96666667 0.4 0
1 0.4 0
0 0.43333333 0
0.033333333 0.43333333 0
0.066666667 0.43333333 0
0.1 0.43333333 0
0.13333333 0.43333333 0
0.16666667 0.43333333 0
0.2 0.43333333 0
0.23333333 0.43333333 0
0.26666667 0.43333333 0
0.3 0.43333333 0
0.33333333 0.43333333 0
0.36666667 0.43333333 0
0.4 0.43333333 0
0.43333333 0.43333333 0
0.46666667 0.43333333 0
0.5 0.43333333 0
0.53333333 0.43333333 0
0.56666667 0.43333333 0
0.6 0.43333333 0
0.63333333 0.43333333 0
0.66666667 0.43333333 0
0.7 0.43333333 0
0.73333333 0.43333333 0
0.76666667 0.43333333 0
0.8 0.43333333 0
0.83333333 0.43333333 0
0.86666667 0.43333333 0
0.9 0.43333333 0
0.93333333 0.43333333 0
0.96666667 0.43333333 0
1 0.43333333 0
0 0.46666667 0
0.033333333 0.46666667 0
0.066666667 0.46666667 0
0.1 0.46666667 0
0.13333333 0.46666667 0
0.16666667 0.46666667 0
0.2 0.46666667 0
0.23333333 0.46666667 0
0.26666667 0.46666667 0
0.3 0.46666667 0
0.33333333 0.46666667 0
0.36666667 0.46666667 0
0.4 0.46666667 0
0.43333333 0.46666667 0
0.46666667 0.46666667 0
0.5 0.46666667 0
0.53333333 0.46666667 0
0.56666667 0.46666667 0
0.6 0.46666667 0
0.63333333 0.46666667 0
0.66666667 0.46666667 0
0.7 0.46666667 0
0.73333333 0.46666667 0
0.76666667 0.46666667 0
0.8 0.46666667 0
0.83333333 0.46666667 0
0.86666667 0.46666667 0
0.9 0.46666667 0
0.93333333 0.46666667 0
0.96666667 0.46666667 0
1 0.46666667 0
0 0.5 0
0.033333333 0.5 0
0.066666667 0.5 0
0.1 0.5 0
0.13333333 0.5 0
0.16666667 0.5 0
0.2 0.5 0
0.23333333 0.5 0
0.26666667 0.5 0
0.3 0.5 0
0.33333333 0.5 0
0.36666667 0.5 0
0.4 0.5 0
0.43333333 0.5 0
0.46666667 0.5 0
0.5 0.5 0
0.53333333 0.5 0
0.56666667 0.5 0
0.6 0.5 0
0.63333333 0.5 0
0.66666667 0.5 0
0.7 0.5 0
0.73333333 0.5 0
0.76666667 0.5 0
0.8 0.5 0
0.83333333 0.5 0
0.86666667 0.5 0
0.9 0.5 0
0.93333333 0.5 0
0.96666667 0.5 0
1 0.5 0
0 0.53333333 0
0.033333333 0.53333333 0
0.066666667 0.53333333 0
0.1 0.53333333 0
0.13333333 0.53333333 0
0.16666667 0.53333333 0
0.2 0.53333333 0
0.23333333 0.53333333 0
0.26666667 0.53333333 0
0.3 0.53333333 0
0.33333333 0.53333333 0
0.36666667 0.53333333 0
0.4 0.53333333 0
0.43333333 0.53333333 0
0.46666667 0.53333333 0
0.5 0.53333333 0
0.53333333 0.53333333 0
0.56666667 0.53333333 0
0.6 0.53333333 0
0.63333333 0.53333333 0
0.66666667 0.53333333 0
0.7 0.53333333 0
0.73333333 0.53333333 0
0.76666667 0.53333333 0
[...]
CELL_DATA 1920
Scalars  Label int 1
LOOKUP_TABLE FreeFempp_table
0
0
0
0
0
0
0
0
0
0
0
0
0
0
0
0
0
0
0
0
0
0
0
0
0
0
0
0
0
0
0
0
0
0
0
0
0
0
0
0
0
0
0
0
0
0
0
0
0
0
0
0
0
0
0
0
0
0
0
0
0
0
0
0
0
0
0
0
0
0
0
0
0
0
0
0
0
0
0
0
0
0
0
0
0
0
0
0
0
0
0
0
0
0
0
0
0
0
0
0
0
0
0
0
0
0
0
0
0
0
0
0
0
0
0
0
0
0
0
0
0
0
0
0
0
0
0
0
0
0
0
0
0
0
0
0
0
0
0
0
0
0
0
0
0
0
0
0
0
0
0
0
0
0
0
0
0
0
0
0
0
0
0
0
0
0
0
0
0
0
0
0
0
0
0
0
0
0
0
0
0
0
0
0
0
0
0
0
0
0
0
0
0
0
0
0
0
0
0
0
0
0
0
0
0
0
0
0
0
0
0
0
0
0
0
0
0
0
0
0
0
0
0
0
0
0
0
0
0
0
0
0
0
0
0
0
0
0
0
0
0
0
0
0
0
0
0
0
0
0
0
0
0
0
0
0
0
0
0
0
0
0
0
0
0
0
0
0
0
0
0
0
0
0
0
0
0
0
0
0
0
0
0
0
0
0
0
0
0
0
0
0
0
0
0
0
0
0
0
0
0
0
0
0
0
0
0
0
0
0
0
0
0
0
0
0
0
0
0
0
0
0
0
0
0
0
0
0
0
0
0
0
0
0
0
0
0
0
0
0
0
0
0
0
0
0
0
0
0
0
0
0
0
0
0
0
0
0
0
0
0
0
0
0
0
0
0
0
0
0
0
0
0
0
0
0
0
0
0
0
0
0
0
0
0
0
0
0
0
0
0
0
0
0
0
0
0
0
0
0
0
0
0
0
0
0
0
0
0
0
0
0
0
0
0
0
0
0
0
0
0
0
0
0
0
0
0
0
0
0
0
0
0
0
0
0
0
0
0
0
0
0
0
0
0
0
0
0
0
0
0
0
0
0
0
0
0
0
0
0
0
0
0
0
0
0
0
0
0
0
0
0
0
0
0
0
0
0
0
0
0
0
0
0
0
0
0
0
0
0
0
0
0
0
0
0
0
0
0
0
0
0
0
0
0
0
0
0
0
0
0
0
0
0
0
0
0
0
0
0
0
0
0
0
0
0
0
0
0
0
0
0
0
0
0
0
0
0
0
0
0
0
0
0
0
0
0
0
0
0
0
0
0
0
0
0
0
0
0
0
0
0
0
0
0
0
0
0
0
0
0
0
0
0
0
0
0
0
0
0
0
0
0
0
0
0
0
0
0
0
0
0
0
0
0
0
0
0
0
0
0
0
0
0
0
0
0
0
0
0
0
0
0
0
0
0
0
0
0
0
0
0
0
0
0
0
0
0
0
0
0
0
0
0
0
0
0
0
0
0
0
0
0
0
0
0
0
0
0
0
0
0
0
0
0
0
0
0
0
0
0
0
0
0
0
0
0
0
0
0
0
0
0
0
0
0
0
0
0
0
0
0
0
0
0
0
0
0
0
0
0
0
0
0
0
0
0
0
0
0
0
0
0
0
0
0
0
0
0
0
0
0
0
0
0
0
0
0
0
0
0
0
0
0
0
0
0
0
0
0
0
0
0
0
0
0
0
0
0
0
0
0
0
0
0
0
0
0
0
0
0
0
0
0
0
0
0
0
0
0
0
0
0
0
0
0
0
0
0
0
0
0
0
0
0
0
0
0
0
0
0
0
0
0
0
0
0
0
0
0
0
0
0
0
0
0
0
0
0
0
0
0
0
0
0
0
0
0
0
0
0
0
0
0
0
0
0
0
0
0
0
0
0
0
0
0
0
0
0
0
0
0
0
0
0
0
0
0
0
0
0
0
0
0
0
0
0
0
0
0
0
0
0
0
0
0
0
0
0
0
0
0
0
0
0
0
0
0
0
0
0
0
0
0
0
0
0
0
0
0
0
0
0
0
0
0
0
0
0
0
0
0
0
0
0
0
0
0
0
0
0
0
0
0
0
0
0
0
0
0
0
0
0
0
0
0
0
0
0
0
0
0
0
0
0
0
0
0
0
0
0
0
0
0
0
0
0
0
0
0
0
0
0
0
0
0
0
0
0
0
0
0
0
0
0
0
0
0
0
0
0
0
0
0
0
0
0
0
0
0
0
0
0
0
0
0
0
0
0
0
0
0
0
0
0
0
0
0
0
0
0
0
0
0
0
0
0
0
0
0
0
0
0
0
0
0
0
0
0
0
0
0
0
0
0
0
0
0
0
0
0
0
0
0
0
0
0
0
0
0
0
0
0
0
0
0
0
0
0
0
0
0
0
0
0
0
0
0
0
0
0
0
0
0
0
0
0
0
0
0
0
0
0
0
0
0
0
0
0
0
0
0
0
0
0
0
0
0
0
0
0
0
0
0
0
0
0
0
0
0
0
0
0
0
0
0
0
0
0
0
0
0
0
0
0
0
0
0
0
0
0
0
0
0
0
0
0
0
0
0
0
0
0
0
0
0
0
0
0
0
0
0
0
0
0
0
0
0
0
0
0
0
0
0
0
0
0
0
0
0
0
0
0
0
0
0
0
0
0
0
0
0
0
0
0
0
0
0
0
0
0
0
0
0
0
0
0
0
0
0
0
0
0
0
0
0
0
0
0
0
0
0
0
0
0
0
0
0
0
0
0
0
0
0
0
0
0
0
0
0
0
0
0
0
0
0
0
0
0
0
0
0
0
0
0
0
0
0
0
0
0
0
0
0
0
0
0
0
0
0
0
0
0
0
0
0
0
0
0
0
0
0
0
0
0
0
0
0
0
0
0
0
0
0
0
0
0
0
0
0
0
0
0
0
0
0
0
0
0
0
0
0
0
0
0
0
0
0
0
0
0
0
0
0
0
0
0
0
0
0
0
0
0
0
0
0
0
0
0
0
0
0
0
0
0
0
0
0
0
0
0
0
0
0
0
0
0
0
0
0
0
0
0
0
0
0
0
0
0
0
0
0
0
0
0
0
0
0
0
0
0
0
0
0
0
0
0
0
0
0
0
0
0
0
0
0
0
0
0
0
0
0
0
0
0
0
0
0
0
0
0
0
0
0
0
0
0
0
0
0
0
0
0
0
0
0
0
0
0
0
0
0
0
0
0
0
0
0
0
0
0
0
0
0
0
0
0
0
0
0
0
0
0
0
0
0
0
0
0
0
0
0
0
0
0
0
0
0
0
0
0
0
0
0
0
0
0
0
0
0
0
0
0
0
0
0
0
0
0
0
0
0
0
0
0
0
0
0
0
0
0
0
0
0
0
0
0
0
0
0
0
0
0
0
0
0
0
0
0
0
0
0
0
0
0
0
0
0
0
0
0
0
0
0
0
0
0
0
0
0
0
0
0
0
0
0
0
0
0
0
0
0
0
0
0
0
0
0
0
0
0
0
0
0
0
0
0
0
0
0
0
0
0
0
0
0
0
0
0
0
0
0
0
0
0
0
0
0
0
0
0
0
0
0
0
0
0
0
0
0
0
0
0
0
0
0
0
0
0
0
0
0
0
0
0
0
0
0
0
0
0
0
0
0
0
0
0
0
0
0
0
0
0
0
0
0
0
0
0
0
0
0
0
0
0
0
0
0
0
0
0
0
0
0
0
0
0
0
0
0
0
0
0
0
0
0
0
0
0
0
0
0
0
0
0
0
0
0
0
0
0
0
0
0
0
0
0
0
0
0
0
0
0
0
0
0
0
0
0
0
0
0
0
0
0
0
0
0
0
0
0
0
0
0
0
0
0
0
0
0
0
0
0
0
0
0
0
0
0
0
0
0
0
0
0
0
0
0
0
0
0
0
0
0
0
0
0
0
0
0
0
0
0
0
0
0
0
0
0
0
0
0
0
0
0
0
0
0
0
0
0
0
0
0
0
0
0
0
0
0
0
0
0
0
0
0
0
0
0
0
0
0
0
0
0
0
0
0
0
0
0
0
0
0
0
0
0
0
0
0
0
0
0
0
0
0
0
0
0
0
0
0
0
0
0
0
0
0
0
0
1
1
1
1
1
1
1
1
1
1
1
1
1
1
1
1
1
1
1
1
1
1
1
1
1
1
1
1
1
1
2
2
2
2
2
2
2
2
2
2
2
2
2
2
2
2
2
2
2
2
2
2
2
2
2
2
2
2
2
2
3
3
3
3
3
3
3
3
3
3
3
3
3
3
3
3
3
3
3
3
3
3
3
3
3
3
3
3
3
3
4
4
4
4
4
4
4
4
4
4
4
4
4
4
4
4
4
4
4
4
4
4
4
4
4
4
4
4
4
4

LOOKUP_TABLE FreeFempp_table 5
1.00000000 0.00000000 0.00000000 1.00000000
1.00000000 1.00000000 0.00000000 1.00000000
1.00000000 0.00000000 1.00000000 1.00000000
0.00000000 1.00000000 0.00000000 1.00000000
0.00000000 1.00000000 1.00000000 1.00000000

POINT_DATA 961
FIELD FieldData 1
Density 1 961 float
3.03024143e-01 3.62369806e-01 4.00538355e-01 4.08618420e-01 4.09691572e-01 4.07755107e-01 3.81014019e-01 2.49639764e-01 3.76645587e-02 4.96273115e-02 2.76219428e-01 4.13306683e-01 4.74193066e-01 5.29749632e-01 5.81565142e-01 5.75527489e-01 5.28716445e-01 5.32463372e-01 5.59215844e-01 5.61019361e-01 5.59601784e-01 5.54897130e-01 5.49884558e-01 5.43440223e-01 5.33009589e-01 5.22560060e-01 5.18343985e-01 5.15719652e-01 5.13533890e-01 5.11028230e-01 5.06778359e-01 1.07180066e-01 2.19756693e-01 2.89769173e-01 3.03085208e-01 3.04130018e-01 3.02316844e-01 2.85770833e-01 2.05965295e-01 3.80189829e-02 2.63109095e-02 2.04776958e-01 3.69097531e-01 4.37156677e-01 4.92375076e-01 5.71315825e-01 5.66002548e-01 4.26966757e-01 3.83136034e-01 4.41243649e-01 4.81089622e-01 5.20449638e-01 5.28380454e-01 5.27899146e-01 5.25751591e-01 5.20063162e-01 5.13543487e-01 5.15626907e-01 5.15187144e-01 5.12806773e-01 5.10775745e-01 5.07170260e-01 2.76638800e-03 1.93399452e-02 3.58115211e-02 3.78306136e-02 3.75075825e-02 3.73261422e-02 3.60231325e-02 2.83621196e-02 5.47607522e-03 7.78471935e-04 4.59552817e-02 2.03343749e-01 2.89695024e-01 3.30672413e-01 4.52368617e-01 5.92151165e-01 3.34374100e-01 1.03574626e-01 7.38035440e-02 1.03135288e-01 2.61759430e-01 3.26938391e-01 3.39906365e-01 3.44470590e-01 3.51952344e-01 3.93396914e-01 4.61630344e-01 4.84800816e-01 4.90424156e-01 4.92550731e-01 4.94570315e-01 4.86786626e-02 4.03168648e-02 3.65212597e-02 3.48521397e-02 3.49579602e-02 3.53227630e-02 3.56225111e-02 3.59368660e-02 3.67439426e-02 3.78883965e-02 2.25325637e-02 1.93848573e-02 3.62711512e-02 4.31481972e-02 1.11745313e-01 4.98487204e-01 5.93924820e-01 3.15958977e-01 9.99114215e-02 3.23136076e-02 2.67362185e-02 4.28729504e-02 4.35903706e-02 4.24423553e-02 4.46285754e-02 8.13486725e-02 3.10477406e-01 4.23005462e-01 4.54870403e-01 4.67709541e-01 4.75689679e-01 3.29242736e-01 3.01149487e-01 2.84655809e-01 2.82597095e-01 2.84879237e-01 2.87625998e-01 2.90124744e-01 2.92024195e-01 2.91539252e-01 2.78680891e-01 2.13149205e-01 6.33685365e-02 3.71888541e-02 2.56219469e-02 6.92415750e-03 5.78727089e-02 1.80420324e-01 6.22520506e-01 5.09252906e-01 3.12718958e-01 1.09182805e-01 9.12515670e-02 8.36815238e-02 6.44319057e-02 5.69681227e-02 4.12391648e-02 6.19056709e-02 2.97585279e-01 4.11860883e-01 4.46504295e-01 4.59848851e-01 4.23931479e-01 4.11079198e-01 3.97365153e-01 3.95317167e-01 3.98426175e-01 4.02262062e-01 4.05770898e-01 4.08570051e-01 4.09825891e-01 4.05551285e-01 3.81823778e-01 3.20762008e-01 2.83103913e-01 2.43959695e-01 1.27611965e-01 3.85696329e-02 -1.69007180e-04 7.93557614e-02 1.64887235e-01 5.62635422e-01 5.28210342e-01 5.70810258e-01 5.82487404e-01 4.95576054e-01 4.11363453e-01 3.87462080e-01 9.60177332e-02 6.37511387e-02 3.06630164e-01 4.17544663e-01 4.40756559e-01 4.47643727e-01 4.37377930e-01 4.28348392e-01 4.26996052e-01 4.29098368e-01 4.31921124e-01 4.34575677e-01 4.36724842e-01 4.38089639e-01 4.37842429e-01 4.32994783e-01 4.20892328e-01 4.12389129e-01 4.01724935e-01 3.61315668e-01 2.73699373e-01 8.25217143e-02 3.14617306e-02 6.27537156e-05 1.09040640e-01 4.16445732e-01 5.12100518e-01 5.47872782e-01 5.31625152e-01 5.04222453e-01 5.49562037e-01 4.63287085e-01 8.75246823e-02 6.39508590e-02 2.99226493e-01 3.81845176e-01 4.59589779e-01 4.51353133e-01 4.45030093e-01 4.43820477e-01 4.44789022e-01 4.46353436e-01 4.47937101e-01 4.49259907e-01 4.50144142e-01 4.50466543e-01 4.49876964e-01 4.48178649e-01 4.47431207e-01 4.46641415e-01 4.40773964e-01 4.21928555e-01 3.57526153e-01 2.62730360e-01 9.35711786e-02 3.25836502e-02 6.21039793e-02 2.05315977e-01 2.53531843e-01 2.26210773e-01 2.55081117e-01 4.51556325e-01 6.20474458e-01 3.75939399e-01 4.16715741e-02 5.94520681e-02 2.15863183e-01 4.69339550e-01 4.62874562e-01 4.58454490e-01 4.57645386e-01 4.58224177e-01 4.59204167e-01 4.60263669e-01 4.61203337e-01 4.61862028e-01 4.62182343e-01 4.62213218e-01 4.62181807e-01 4.62677360e-01 4.63488340e-01 4.63367730e-01 4.60253239e-01 4.50223237e-01 4.28368717e-01 3.68217826e-01 2.55877912e-01 6.00996427e-02 1.87793989e-02 3.44413891e-02 3.42234299e-02 4.33420986e-02 1.47456482e-01 5.21846652e-01 6.00294590e-01 1.47637427e-01 7.00153178e-03 2.29319818e-02 4.77382571e-01 4.72243994e-01 4.69313383e-01 4.69037116e-01 4.69688118e-01 4.70620483e-01 4.71640378e-01 4.72594708e-01 4.73342359e-01 4.73848343e-01 4.74230379e-01 4.74766046e-01 4.75794941e-01 4.77321267e-01 4.79000330e-01 4.80606258e-01 4.82221723e-01 4.82865244e-01 4.77833003e-01 4.46921200e-01 3.18660408e-01 8.28327462e-02 4.19579297e-02 3.61124799e-02 2.99761742e-02 4.11763601e-02 2.46277899e-01 6.38604820e-01 4.45302248e-01 4.93543297e-02 7.86261633e-03 4.82892036e-01 4.78458405e-01 4.76655662e-01 4.76936609e-01 4.77908134e-01 4.79124546e-01 4.80416566e-01 4.81635004e-01 4.82659668e-01 4.83491600e-01 4.84291822e-01 4.85358417e-01 4.87007767e-01 4.89389211e-01 4.92539734e-01 4.96760249e-01 5.02807140e-01 5.11134028e-01 5.19885659e-01 5.20718396e-01 4.91686583e-01 4.00725216e-01 3.15790385e-01 2.66572535e-01 2.12501690e-01 1.43964365e-01 2.23112360e-01 5.76045275e-01 6.00365996e-01 8.70900601e-02 2.58736545e-03 4.84754413e-01 4.80258673e-01 4.79240954e-01 4.80133623e-01 4.81642604e-01 4.83404934e-01 4.85200226e-01 4.86846000e-01 4.88228798e-01 4.89377648e-01 4.90479469e-01 4.91835684e-01 4.93758589e-01 4.96473193e-01 5.00174701e-01 5.05230188e-01 5.12197495e-01 5.21343708e-01 5.31818509e-01 5.40947199e-01 5.44100761e-01 5.36234856e-01 5.21924138e-01 5.02521932e-01 4.73531187e-01 4.30765331e-01 4.49119717e-01 6.43079221e-01 6.32996738e-01 9.53861997e-02 -3.68592399e-03 4.81759816e-01 4.76274818e-01 4.75696713e-01 4.77368474e-01 4.79746580e-01 4.82413054e-01 4.85017926e-01 4.87298638e-01 4.89120126e-01 4.90522385e-01 4.91704524e-01 4.92960334e-01 4.94583756e-01 4.96802032e-01 4.99803126e-01 5.03809929e-01 5.09018064e-01 5.15304208e-01 5.21921456e-01 5.27696252e-01 5.32071173e-01 5.35498977e-01 5.38149118e-01 5.36160409e-01 5.23954690e-01 5.12435138e-01 5.53983927e-01 6.86439157e-01 6.19970262e-01 9.24780220e-02 -4.47279727e-03 4.72833604e-01 4.65278417e-01 4.64799106e-01 4.67636406e-01 4.71504748e-01 4.75726187e-01 4.79706466e-01 4.83033210e-01 4.85517055e-01 4.87205416e-01 4.88321632e-01 4.89168912e-01 4.90032434e-01 4.91120189e-01 4.92565572e-01 4.94446069e-01 4.96728837e-01 4.99139786e-01 5.01101732e-01 5.01959443e-01 5.01567185e-01 5.00562191e-01 4.99416888e-01 4.97386634e-01 4.95154172e-01 5.08228958e-01 5.73950529e-01 6.80792868e-01 5.73679566e-01 8.54751766e-02 -3.14468215e-03 4.57199782e-01 4.46363389e-01 4.45644706e-01 4.50354904e-01 4.56806928e-01 4.63721186e-01 4.70062345e-01 4.75164980e-01 4.78765249e-01 4.80953962e-01 4.82036084e-01 4.82381135e-01 4.82310772e-01 4.82044965e-01 4.81702477e-01 4.81318831e-01 4.80843037e-01 4.80130404e-01 4.78999943e-01 4.77390140e-01 4.75536853e-01 4.73974228e-01 4.73375440e-01 4.75240231e-01 4.84978974e-01 5.17777383e-01 5.91967463e-01 6.63010955e-01 5.14345169e-01 7.67307281e-02 -1.11247622e-03 4.34369504e-01 4.18947875e-01 4.17631686e-01 4.25324321e-01 4.36102003e-01 4.47495997e-01 4.57679778e-01 4.65597212e-01 4.70941931e-01 4.73963201e-01 4.75169867e-01 4.75093901e-01 4.74160343e-01 4.72650468e-01 4.70725596e-01 4.68476415e-01 4.65978861e-01 4.63368565e-01 4.60941494e-01 4.59230989e-01 4.58966643e-01 4.60936576e-01 4.66145366e-01 4.77070332e-01 5.00025153e-01 5.44916868e-01 6.10513270e-01 6.34378970e-01 4.48578387e-01 6.75203428e-02 1.39827107e-03 4.04044956e-01 3.82730752e-01 3.80439043e-01 3.92681777e-01 4.10324574e-01 4.28720146e-01 4.44647610e-01 4.56528217e-01 4.64186937e-01 4.68284607e-01 4.69735056e-01 4.69353944e-01 4.67731833e-01 4.65243638e-01 4.62121308e-01 4.58550185e-01 4.54777300e-01 4.51232195e-01 4.48630929e-01 4.47982222e-01 4.50431615e-01 4.57096428e-01 4.69381303e-01 4.90143538e-01 5.24246752e-01 5.73269129e-01 6.18503511e-01 5.91894627e-01 3.79974842e-01 5.86430691e-02 4.33208933e-03 3.66055667e-01 3.37865025e-01 3.34422916e-01 3.53269160e-01 3.81133050e-01 4.09650683e-01 4.33287799e-01 4.49961543e-01 4.60084528e-01 4.65164453e-01 4.66777325e-01 4.66128588e-01 4.63998526e-01 4.60848331e-01 4.56967205e-01 4.52620715e-01 4.48198855e-01 4.44360942e-01 4.42132682e-01 4.42868352e-01 4.48052227e-01 4.59163427e-01 4.78038639e-01 5.07445037e-01 5.49096704e-01 5.94630003e-01 6.11503482e-01 5.34413755e-01 3.05751562e-01 4.98609059e-02 7.51768518e-03 3.20220917e-01 2.85360456e-01 2.81593591e-01 3.09637547e-01 3.51609319e-01 3.93335074e-01 4.25927669e-01 4.47282434e-01 4.59250480e-01 4.64741826e-01 4.66204107e-01 4.65248853e-01 4.62796718e-01 4.59341586e-01 4.55186874e-01 4.50637698e-01 4.46171045e-01 4.42588925e-01 4.41112250e-01 4.43338543e-01 4.51070279e-01 4.66239840e-01 4.91098613e-01 5.27506351e-01 5.71963727e-01 6.05040014e-01 5.84827900e-01 4.57863271e-01 2.22378463e-01 4.11798842e-02 1.16243903e-02 2.66420156e-01 2.27687865e-01 2.26628110e-01 2.67127752e-01 3.26880008e-01 3.83524090e-01 4.24442083e-01 4.48846072e-01 4.61164355e-01 4.66131628e-01 4.67049360e-01 4.65783954e-01 4.63260293e-01 4.59918469e-01 4.56027687e-01 4.51898754e-01 4.48052526e-01 4.45367754e-01 4.45179969e-01 4.49275553e-01 4.59794462e-01 4.79138434e-01 5.09520769e-01 5.50206184e-01 5.89858830e-01 5.97720623e-01 5.29328644e-01 3.59555632e-01 1.37495741e-01 3.28243226e-02 1.78241562e-02 2.05732360e-01 1.69570684e-01 1.76615283e-01 2.33685493e-01 3.13456386e-01 3.83584827e-01 4.29381788e-01 4.53643918e-01 4.64303881e-01 4.67828602e-01 4.67986614e-01 4.66576517e-01 4.64340359e-01 4.61580038e-01 4.58502978e-01 4.55421060e-01 4.52896774e-01 4.51877654e-01 4.53807741e-01 4.60668772e-01 4.74895716e-01 4.98952866e-01 5.33610404e-01 5.72883964e-01 5.95335424e-01 5.61482787e-01 4.37935621e-01 2.45749146e-01 7.81319961e-02 2.80944984e-02 2.62827855e-02 1.42265230e-01 1.17494792e-01 1.38696566e-01 2.17451602e-01 3.16565216e-01 3.94480079e-01 4.39138055e-01 4.59401250e-01 4.66672122e-01 4.68314379e-01 4.67870563e-01 4.66693699e-01 4.65187013e-01 4.63470817e-01 4.61695492e-01 4.60199952e-01 4.59628463e-01 4.61051136e-01 4.66077268e-01 4.76876348e-01 4.95873332e-01 5.24499714e-01 5.59786439e-01 5.87796450e-01 5.77281356e-01 4.89634752e-01 3.21791887e-01 1.48558721e-01 5.30809946e-02 4.03568186e-02 5.37579767e-02 8.31195563e-02 7.63138384e-02 1.17833674e-01 2.23523602e-01 3.36930573e-01 4.13310796e-01 4.50133801e-01 4.63426530e-01 4.66624677e-01 4.66644555e-01 4.66101676e-01 4.65650231e-01 4.65303898e-01 4.65014488e-01 4.64900732e-01 4.65360224e-01 4.67165530e-01 4.71568018e-01 4.80361015e-01 4.95725811e-01 5.19423425e-01 5.50465107e-01 5.80384612e-01 5.87092161e-01 5.35085201e-01 4.01226610e-01 2.29865372e-01 1.10922195e-01 6.99291602e-02 8.95503461e-02 1.35225296e-01 4.02084999e-02 4.85240407e-02 1.17339998e-01 2.52073526e-01 3.69415015e-01 4.34107810e-01 4.58429605e-01 4.63874280e-01 4.63556617e-01 4.62722778e-01 4.62683886e-01 4.63378638e-01 4.64500964e-01 4.65887547e-01 4.67643440e-01 4.70221251e-01 4.74513054e-01 4.81924415e-01 4.94310528e-01 5.13503909e-01 5.39931118e-01 5.69610775e-01 5.89431167e-01 5.73662162e-01 4.92396861e-01 3.48751307e-01 2.10295185e-01 1.40434906e-01 1.41982362e-01 1.93797529e-01 2.46905178e-01 2.40995344e-02 3.90682854e-02 1.39981627e-01 2.96726733e-01 4.04670060e-01 4.50725108e-01 4.61609811e-01 4.60458487e-01 4.57960874e-01 4.57118064e-01 4.58002329e-01 4.60035264e-01 4.62741137e-01 4.65907633e-01 4.69616741e-01 4.74308908e-01 4.80883539e-01 4.90737259e-01 5.05543351e-01 5.26470542e-01 5.52484810e-01 5.77530563e-01 5.87285638e-01 5.59288263e-01 4.76199985e-01 3.57556403e-01 2.64753401e-01 2.38497332e-01 2.68855721e-01 3.24637920e-01 3.61178130e-01 1.85030717e-02 4.14282791e-02 1.81939468e-01 3.45593840e-01 4.33611125e-01 4.59525228e-01 4.59380239e-01 4.54110861e-01 4.50892687e-01 4.50614512e-01 4.52504307e-01 4.55778420e-01 4.59970087e-01 4.64885354e-01 4.70556200e-01 4.77293670e-01 4.85802084e-01 4.97205049e-01 5.12743711e-01 5.32883286e-01 5.55708170e-01 5.74899912e-01 5.78432798e-01 5.51218510e-01 4.87603396e-01 4.10415262e-01 3.62499803e-01 3.61580521e-01 3.91139716e-01 4.24992859e-01 4.42933172e-01 1.41508449e-02 4.53657210e-02 2.29096800e-01 3.87669504e-01 4.51209903e-01 4.59993184e-01 4.52935249e-01 4.46219772e-01 4.43391740e-01 4.43824381e-01 4.46437418e-01 4.50568199e-01 4.55930114e-01 4.62419838e-01 4.70009923e-01 4.78779554e-01 4.89032477e-01 5.01351953e-01 5.16366184e-01 5.34016967e-01 5.52355409e-01 5.66351652e-01 5.67829907e-01 5.48602402e-01 5.09031773e-01 4.66360390e-01 4.43868607e-01 4.46535975e-01 4.61679071e-01 4.76456404e-01 4.83524114e-01 1.09064868e-02 4.87779118e-02 2.69865721e-01 4.17211264e-01 4.57317352e-01 4.54331875e-01 4.44671750e-01 4.38557714e-01 4.36522007e-01 4.37259793e-01 4.39916223e-01 4.44218725e-01 4.50193048e-01 4.57899600e-01 4.67290521e-01 4.78205383e-01 4.90465820e-01 5.03967643e-01 5.18613756e-01 5.33937454e-01 5.48427403e-01 5.58903694e-01 5.60706675e-01 5.49834669e-01 5.27547657e-01 5.03378034e-01 4.88374978e-01 4.84649271e-01 4.87099826e-01 4.91956651e-01 4.96318072e-01 7.58987060e-03 5.18582724e-02 3.03246886e-01 4.35540825e-01 4.57053006e-01 4.48318303e-01 4.39272314e-01 4.34396952e-01 4.32483047e-01 4.32447225e-01 4.34060961e-01 4.37580287e-01 4.43390012e-01 4.51753885e-01 4.62672114e-01 4.75846201e-01 4.90725785e-01 5.06589770e-01 5.22598028e-01 5.37744462e-01 5.50680578e-01 5.59507132e-01 5.61848044e-01 5.55749714e-01 5.41657329e-01 5.23746073e-01 5.07517457e-01 4.95948762e-01 4.89535898e-01 4.89700198e-01 4.95333105e-01 6.43065199e-03 5.78078702e-02 3.37236077e-01 4.51705605e-01 4.60804790e-01 4.50496227e-01 4.42827433e-01 4.38233167e-01 4.35139149e-01 4.33195949e-01 4.32823986e-01 4.34692442e-01 4.39438581e-01 4.47479844e-01 4.58894759e-01 4.73377615e-01 4.90246803e-01 5.08476019e-01 5.26737690e-01 5.43469846e-01 5.56976974e-01 5.65567613e-01 5.67750812e-01 5.62598169e-01 5.50379574e-01 5.33107221e-01 5.14126003e-01 4.96985972e-01 4.84767824e-01 4.81258482e-01 4.88630384e-01 1.82631258e-02 6.04044087e-02 3.70869279e-01 4.72641230e-01 4.70315605e-01 4.58235443e-01 4.50747520e-01 4.46014643e-01 4.42202955e-01 4.39272881e-01 4.37833041e-01 4.38602924e-01 4.42222178e-01 4.49111402e-01 4.59371716e-01 4.72742558e-01 4.88603324e-01 5.05988061e-01 5.23603022e-01 5.39875031e-01 5.53072929e-01 5.61524570e-01 5.63916922e-01 5.59645534e-01 5.49144149e-01 5.34018636e-01 5.16798854e-01 5.00481069e-01 4.88085419e-01 4.82575089e-01 4.86869723e-01 
