# vtk DataFile Version 2.0
results/4_density.vtk, Created by Freefem++ 
ASCII
DATASET UNSTRUCTURED_GRID
POINTS 961 float
0 0 0
0.033333333 0 0
0.066666667 0 0
0.1 0 0
0.13333333 0 0
0.16666667 0 0
0.2 0 0
0.23333333 0 0
0.26666667 0 0
0.3 0 0
0.33333333 0 0
0.36666667 0 0
0.4 0 0
0.43333333 0 0
0.46666667 0 0
0.5 0 0
0.53333333 0 0
0.56666667 0 0
0.6 0 0
0.63333333 0 0
0.66666667 0 0
0.7 0 0
0.73333333 0 0
0.76666667 0 0
0.8 0 0
0.83333333 0 0
0.86666667 0 0
0.9 0 0
0.93333333 0 0
0.96666667 0 0
1 0 0
0 0.033333333 0
0.033333333 0.033333333 0
0.066666667 0.033333333 0
0.1 0.033333333 0
0.13333333 0.033333333 0
0.16666667 0.033333333 0
0.2 0.033333333 0
0.23333333 0.033333333 0
0.26666667 0.033333333 0
0.3 0.033333333 0
0.33333333 0.033333333 0
0.36666667 0.033333333 0
0.4 0.033333333 0
0.43333333 0.033333333 0
0.46666667 0.033333333 0
0.5 0.033333333 0
0.53333333 0.033333333 0
0.56666667 0.033333333 0
0.6 0.033333333 0
0.63333333 0.033333333 0
0.66666667 0.033333333 0
0.7 0.033333333 0
0.73333333 0.033333333 0
0.76666667 0.033333333 0
0.8 0.033333333 0
0.83333333 0.033333333 0
0.86666667 0.033333333 0
0.9 0.033333333 0
0.93333333 0.033333333 0
0.96666667 0.033333333 0
1 0.033333333 0
0 0.066666667 0
0.033333333 0.066666667 0
0.066666667 0.066666667 0
0.1 0.066666667 0
0.13333333 0.066666667 0
0.16666667 0.066666667 0
0.2 0.066666667 0
0.23333333 0.066666667 0
0.26666667 0.066666667 0
0.3 0.066666667 0
0.33333333 0.066666667 0
0.36666667 0.066666667 0
0.4 0.066666667 0
0.43333333 0.066666667 0
0.46666667 0.066666667 0
0.5 0.066666667 0
0.53333333 0.066666667 0
0.56666667 0.066666667 0
0.6 0.066666667 0
0.63333333 0.066666667 0
0.66666667 0.066666667 0
0.7 0.066666667 0
0.73333333 0.066666667 0
0.76666667 0.066666667 0
0.8 0.066666667 0
0.83333333 0.066666667 0
0.86666667 0.066666667 0
0.9 0.066666667 0
0.93333333 0.066666667 0
0.96666667 0.066666667 0
1 0.066666667 0
0 0.1 0
0.033333333 0.1 0
0.066666667 0.1 0
0.1 0.1 0
0.13333333 0.1 0
0.16666667 0.1 0
0.2 0.1 0
0.23333333 0.1 0
0.26666667 0.1 0
0.3 0.1 0
0.33333333 0.1 0
0.36666667 0.1 0
0.4 0.1 0
0.43333333 0.1 0
0.46666667 0.1 0
0.5 0.1 0
0.53333333 0.1 0
0.56666667 0.1 0
0.6 0.1 0
0.63333333 0.1 0
0.66666667 0.1 0
0.7 0.1 0
0.73333333 0.1 0
0.76666667 0.1 0
0.8 0.1 0
0.83333333 0.1 0
0.86666667 0.1 0
0.9 0.1 0
0.93333333 0.1 0
0.96666667 0.1 0
1 0.1 0
0 0.13333333 0
0.033333333 0.13333333 0
0.066666667 0.13333333 0
0.1 0.13333333 0
0.13333333 0.13333333 0
0.16666667 0.13333333 0
0.2 0.13333333 0
0.23333333 0.13333333 0
0.26666667 0.13333333 0
0.3 0.13333333 0
0.33333333 0.13333333 0
0.36666667 0.13333333 0
0.4 0.13333333 0
0.43333333 0.13333333 0
0.46666667 0.13333333 0
0.5 0.13333333 0
0.53333333 0.13333333 0
0.56666667 0.13333333 0
0.6 0.13333333 0
0.63333333 0.13333333 0
0.66666667 0.13333333 0
0.7 0.13333333 0
0.73333333 0.13333333 0
0.76666667 0.13333333 0
0.8 0.13333333 0
0.83333333 0.13333333 0
0.86666667 0.13333333 0
0.9 0.13333333 0
0.93333333 0.13333333 0
0.96666667 0.13333333 0
1 0.13333333 0
0 0.16666667 0
0.033333333 0.16666667 0
0.066666667 0.16666667 0
0.1 0.16666667 0
0.13333333 0.16666667 0
0.16666667 0.16666667 0
0.2 0.16666667 0
0.23333333 0.16666667 0
0.26666667 0.16666667 0
0.3 0.16666667 0
0.33333333 0.16666667 0
0.36666667 0.16666667 0
0.4 0.16666667 0
0.43333333 0.16666667 0
0.46666667 0.16666667 0
0.5 0.16666667 0
0.53333333 0.16666667 0
0.56666667 0.16666667 0
0.6 0.16666667 0
0.63333333 0.16666667 0
0.66666667 0.16666667 0
0.7 0.16666667 0
0.73333333 0.16666667 0
0.76666667 0.16666667 0
0.8 0.16666667 0
0.83333333 0.16666667 0
0.86666667 0.16666667 0
0.9 0.16666667 0
0.93333333 0.16666667 0
0.96666667 0.16666667 0
1 0.16666667 0
0 0.2 0
0.033333333 0.2 0
0.066666667 0.2 0
0.1 0.2 0
0.13333333 0.2 0
0.16666667 0.2 0
0.2 0.2 0
0.23333333 0.2 0
0.26666667 0.2 0
0.3 0.2 0
0.33333333 0.2 0
0.36666667 0.2 0
0.4 0.2 0
0.43333333 0.2 0
0.46666667 0.2 0
0.5 0.2 0
0.53333333 0.2 0
0.56666667 0.2 0
0.6 0.2 0
0.63333333 0.2 0
0.66666667 0.2 0
0.7 0.2 0
0.73333333 0.2 0
0.76666667 0.2 0
0.8 0.2 0
0.83333333 0.2 0
0.86666667 0.2 0
0.9 0.2 0
0.93333333 0.2 0
0.96666667 0.2 0
1 0.2 0
0 0.23333333 0
0.033333333 0.23333333 0
0.066666667 0.23333333 0
0.1 0.23333333 0
0.13333333 0.23333333 0
0.16666667 0.23333333 0
0.2 0.23333333 0
0.23333333 0.23333333 0
0.26666667 0.23333333 0
0.3 0.23333333 0
0.33333333 0.23333333 0
0.36666667 0.23333333 0
0.4 0.23333333 0
0.43333333 0.23333333 0
0.46666667 0.23333333 0
0.5 0.23333333 0
0.53333333 0.23333333 0
0.56666667 0.23333333 0
0.6 0.23333333 0
0.63333333 0.23333333 0
0.66666667 0.23333333 0
0.7 0.23333333 0
0.73333333 0.23333333 0
0.76666667 0.23333333 0
0.8 0.23333333 0
0.83333333 0.23333333 0
0.86666667 0.23333333 0
0.9 0.23333333 0
0.93333333 0.23333333 0
0.96666667 0.23333333 0
1 0.23333333 0
0 0.26666667 0
0.033333333 0.26666667 0
0.066666667 0.26666667 0
0.1 0.26666667 0
0.13333333 0.26666667 0
0.16666667 0.26666667 0
0.2 0.26666667 0
0.23333333 0.26666667 0
0.26666667 0.26666667 0
0.3 0.26666667 0
0.33333333 0.26666667 0
0.36666667 0.26666667 0
0.4 0.26666667 0
0.43333333 0.26666667 0
0.46666667 0.26666667 0
0.5 0.26666667 0
0.53333333 0.26666667 0
0.56666667 0.26666667 0
0.6 0.26666667 0
0.63333333 0.26666667 0
0.66666667 0.26666667 0
0.7 0.26666667 0
0.73333333 0.26666667 0
0.76666667 0.26666667 0
0.8 0.26666667 0
0.83333333 0.26666667 0
0.86666667 0.26666667 0
0.9 0.26666667 0
0.93333333 0.26666667 0
0.96666667 0.26666667 0
1 0.26666667 0
0 0.3 0
0.033333333 0.3 0
0.066666667 0.3 0
0.1 0.3 0
0.13333333 0.3 0
0.16666667 0.3 0
0.2 0.3 0
0.23333333 0.3 0
0.26666667 0.3 0
0.3 0.3 0
0.33333333 0.3 0
0.36666667 0.3 0
0.4 0.3 0
0.43333333 0.3 0
0.46666667 0.3 0
0.5 0.3 0
0.53333333 0.3 0
0.56666667 0.3 0
0.6 0.3 0
0.63333333 0.3 0
0.66666667 0.3 0
0.7 0.3 0
0.73333333 0.3 0
0.76666667 0.3 0
0.8 0.3 0
0.83333333 0.3 0
0.86666667 0.3 0
0.9 0.3 0
0.93333333 0.3 0
0.96666667 0.3 0
1 0.3 0
0 0.33333333 0
0.033333333 0.33333333 0
0.066666667 0.33333333 0
0.1 0.33333333 0
0.13333333 0.33333333 0
0.16666667 0.33333333 0
0.2 0.33333333 0
0.23333333 0.33333333 0
0.26666667 0.33333333 0
0.3 0.33333333 0
0.33333333 0.33333333 0
0.36666667 0.33333333 0
0.4 0.33333333 0
0.43333333 0.33333333 0
0.46666667 0.33333333 0
0.5 0.33333333 0
0.53333333 0.33333333 0
0.56666667 0.33333333 0
0.6 0.33333333 0
0.63333333 0.33333333 0
0.66666667 0.33333333 0
0.7 0.33333333 0
0.73333333 0.33333333 0
0.76666667 0.33333333 0
0.8 0.33333333 0
0.83333333 0.33333333 0
0.86666667 0.33333333 0
0.9 0.33333333 0
0.93333333 0.33333333 0
0.96666667 0.33333333 0
1 0.33333333 0
0 0.36666667 0
0.033333333 0.36666667 0
0.066666667 0.36666667 0
0.1 0.36666667 0
0.13333333 0.36666667 0
0.16666667 0.36666667 0
0.2 0.36666667 0
0.23333333 0.36666667 0
0.26666667 0.36666667 0
0.3 0.36666667 0
0.33333333 0.36666667 0
0.36666667 0.36666667 0
0.4 0.36666667 0
0.43333333 0.36666667 0
0.46666667 0.36666667 0
0.5 0.36666667 0
0.53333333 0.36666667 0
0.56666667 0.36666667 0
0.6 0.36666667 0
0.63333333 0.36666667 0
0.66666667 0.36666667 0
0.7 0.36666667 0
0.73333333 0.36666667 0
0.76666667 0.36666667 0
0.8 0.36666667 0
0.83333333 0.36666667 0
0.86666667 0.36666667 0
0.9 0.36666667 0
0.93333333 0.36666667 0
0.96666667 0.36666667 0
1 0.36666667 0
0 0.4 0
0.033333333 0.4 0
0.066666667 0.4 0
0.1 0.4 0
0.13333333 0.4 0
0.16666667 0.4 0
0.2 0.4 0
0.23333333 0.4 0
0.26666667 0.4 0
0.3 0.4 0
0.33333333 0.4 0
0.36666667 0.4 0
0.4 0.4 0
0.43333333 0.4 0
0.46666667 0.4 0
0.5 0.4 0
0.53333333 0.4 0
0.56666667 0.4 0
0.6 0.4 0
0.63333333 0.4 0
0.66666667 0.4 0
0.7 0.4 0
0.73333333 0.4 0
0.76666667 0.4 0
0.8 0.4 0
0.83333333 0.4 0
0.86666667 0.4 0
0.9 0.4 0
0.93333333 0.4 0
0.96666667 0.4 0
1 0.4 0
0 0.43333333 0
0.033333333 0.43333333 0
0.066666667 0.43333333 0
0.1 0.43333333 0
0.13333333 0.43333333 0
0.16666667 0.43333333 0
0.2 0.43333333 0
0.23333333 0.43333333 0
0.26666667 0.43333333 0
0.3 0.43333333 0
0.33333333 0.43333333 0
0.36666667 0.43333333 0
0.4 0.43333333 0
0.43333333 0.43333333 0
0.46666667 0.43333333 0
0.5 0.43333333 0
0.53333333 0.43333333 0
0.56666667 0.43333333 0
0.6 0.43333333 0
0.63333333 0.43333333 0
0.66666667 0.43333333 0
0.7 0.43333333 0
0.73333333 0.43333333 0
0.76666667 0.43333333 0
0.8 0.43333333 0
0.83333333 0.43333333 0
0.86666667 0.43333333 0
0.9 0.43333333 0
0.93333333 0.43333333 0
0.96666667 0.43333333 0
1 0.43333333 0
0 0.46666667 0
0.033333333 0.46666667 0
0.066666667 0.46666667 0
0.1 0.46666667 0
0.13333333 0.46666667 0
0.16666667 0.46666667 0
0.2 0.46666667 0
0.23333333 0.46666667 0
0.26666667 0.46666667 0
0.3 0.46666667 0
0.33333333 0.46666667 0
0.36666667 0.46666667 0
0.4 0.46666667 0
0.43333333 0.46666667 0
0.46666667 0.46666667 0
0.5 0.46666667 0
0.53333333 0.46666667 0
0.56666667 0.46666667 0
0.6 0.46666667 0
0.63333333 0.46666667 0
0.66666667 0.46666667 0
0.7 0.46666667 0
0.73333333 0.46666667 0
0.76666667 0.46666667 0
0.8 0.46666667 0
0.83333333 0.46666667 0
0.86666667 0.46666667 0
0.9 0.46666667 0
0.93333333 0.46666667 0
0.96666667 0.46666667 0
1 0.46666667 0
0 0.5 0
0.033333333 0.5 0
0.066666667 0.5 0
0.1 0.5 0
0.13333333 0.5 0
0.16666667 0.5 0
0.2 0.5 0
0.23333333 0.5 0
0.26666667 0.5 0
0.3 0.5 0
0.33333333 0.5 0
0.36666667 0.5 0
0.4 0.5 0
0.43333333 0.5 0
0.46666667 0.5 0
0.5 0.5 0
0.53333333 0.5 0
0.56666667 0.5 0
0.6 0.5 0
0.63333333 0.5 0
0.66666667 0.5 0
0.7 0.5 0
0.73333333 0.5 0
0.76666667 0.5 0
0.8 0.5 0
0.83333333 0.5 0
0.86666667 0.5 0
0.9 0.5 0
0.93333333 0.5 0
0.96666667 0.5 0
1 0.5 0
0 0.53333333 0
0.033333333 0.53333333 0
0.066666667 0.53333333 0
0.1 0.53333333 0
0.13333333 0.53333333 0
0.16666667 0.53333333 0
0.2 0.53333333 0
0.23333333 0.53333333 0
0.26666667 0.53333333 0
0.3 0.53333333 0
0.33333333 0.53333333 0
0.36666667 0.53333333 0
0.4 0.53333333 0
0.43333333 0.53333333 0
0.46666667 0.53333333 0
0.5 0.53333333 0
0.53333333 0.53333333 0
0.56666667 0.53333333 0
0.6 0.53333333 0
0.63333333 0.53333333 0
0.66666667 0.53333333 0
0.7 0.53333333 0
0.73333333 0.53333333 0
0.76666667 0.53333333 0
0.8 0.53333333 0
[...]
CELL_DATA 1920
Scalars  Label int 1
LOOKUP_TABLE FreeFempp_table
0
0
0
0
0
0
0
0
0
0
0
0
0
0
0
0
0
0
0
0
0
0
0
0
0
0
0
0
0
0
0
0
0
0
0
0
0
0
0
0
0
0
0
0
0
0
0
0
0
0
0
0
0
0
0
0
0
0
0
0
0
0
0
0
0
0
0
0
0
0
0
0
0
0
0
0
0
0
0
0
0
0
0
0
0
0
0
0
0
0
0
0
0
0
0
0
0
0
0
0
0
0
0
0
0
0
0
0
0
0
0
0
0
0
0
0
0
0
0
0
0
0
0
0
0
0
0
0
0
0
0
0
0
0
0
0
0
0
0
0
0
0
0
0
0
0
0
0
0
0
0
0
0
0
0
0
0
0
0
0
0
0
0
0
0
0
0
0
0
0
0
0
0
0
0
0
0
0
0
0
0
0
0
0
0
0
0
0
0
0
0
0
0
0
0
0
0
0
0
0
0
0
0
0
0
0
0
0
0
0
0
0
0
0
0
0
0
0
0
0
0
0
0
0
0
0
0
0
0
0
0
0
0
0
0
0
0
0
0
0
0
0
0
0
0
0
0
0
0
0
0
0
0
0
0
0
0
0
0
0
0
0
0
0
0
0
0
0
0
0
0
0
0
0
0
0
0
0
0
0
0
0
0
0
0
0
0
0
0
0
0
0
0
0
0
0
0
0
0
0
0
0
0
0
0
0
0
0
0
0
0
0
0
0
0
0
0
0
0
0
0
0
0
0
0
0
0
0
0
0
0
0
0
0
0
0
0
0
0
0
0
0
0
0
0
0
0
0
0
0
0
0
0
0
0
0
0
0
0
0
0
0
0
0
0
0
0
0
0
0
0
0
0
0
0
0
0
0
0
0
0
0
0
0
0
0
0
0
0
0
0
0
0
0
0
0
0
0
0
0
0
0
0
0
0
0
0
0
0
0
0
0
0
0
0
0
0
0
0
0
0
0
0
0
0
0
0
0
0
0
0
0
0
0
0
0
0
0
0
0
0
0
0
0
0
0
0
0
0
0
0
0
0
0
0
0
0
0
0
0
0
0
0
0
0
0
0
0
0
0
0
0
0
0
0
0
0
0
0
0
0
0
0
0
0
0
0
0
0
0
0
0
0
0
0
0
0
0
0
0
0
0
0
0
0
0
0
0
0
0
0
0
0
0
0
0
0
0
0
0
0
0
0
0
0
0
0
0
0
0
0
0
0
0
0
0
0
0
0
0
0
0
0
0
0
0
0
0
0
0
0
0
0
0
0
0
0
0
0
0
0
0
0
0
0
0
0
0
0
0
0
0
0
0
0
0
0
0
0
0
0
0
0
0
0
0
0
0
0
0
0
0
0
0
0
0
0
0
0
0
0
0
0
0
0
0
0
0
0
0
0
0
0
0
0
0
0
0
0
0
0
0
0
0
0
0
0
0
0
0
0
0
0
0
0
0
0
0
0
0
0
0
0
0
0
0
0
0
0
0
0
0
0
0
0
0
0
0
0
0
0
0
0
0
0
0
0
0
0
0
0
0
0
0
0
0
0
0
0
0
0
0
0
0
0
0
0
0
0
0
0
0
0
0
0
0
0
0
0
0
0
0
0
0
0
0
0
0
0
0
0
0
0
0
0
0
0
0
0
0
0
0
0
0
0
0
0
0
0
0
0
0
0
0
0
0
0
0
0
0
0
0
0
0
0
0
0
0
0
0
0
0
0
0
0
0
0
0
0
0
0
0
0
0
0
0
0
0
0
0
0
0
0
0
0
0
0
0
0
0
0
0
0
0
0
0
0
0
0
0
0
0
0
0
0
0
0
0
0
0
0
0
0
0
0
0
0
0
0
0
0
0
0
0
0
0
0
0
0
0
0
0
0
0
0
0
0
0
0
0
0
0
0
0
0
0
0
0
0
0
0
0
0
0
0
0
0
0
0
0
0
0
0
0
0
0
0
0
0
0
0
0
0
0
0
0
0
0
0
0
0
0
0
0
0
0
0
0
0
0
0
0
0
0
0
0
0
0
0
0
0
0
0
0
0
0
0
0
0
0
0
0
0
0
0
0
0
0
0
0
0
0
0
0
0
0
0
0
0
0
0
0
0
0
0
0
0
0
0
0
0
0
0
0
0
0
0
0
0
0
0
0
0
0
0
0
0
0
0
0
0
0
0
0
0
0
0
0
0
0
0
0
0
0
0
0
0
0
0
0
0
0
0
0
0
0
0
0
0
0
0
0
0
0
0
0
0
0
0
0
0
0
0
0
0
0
0
0
0
0
0
0
0
0
0
0
0
0
0
0
0
0
0
0
0
0
0
0
0
0
0
0
0
0
0
0
0
0
0
0
0
0
0
0
0
0
0
0
0
0
0
0
0
0
0
0
0
0
0
0
0
0
0
0
0
0
0
0
0
0
0
0
0
0
0
0
0
0
0
0
0
0
0
0
0
0
0
0
0
0
0
0
0
0
0
0
0
0
0
0
0
0
0
0
0
0
0
0
0
0
0
0
0
0
0
0
0
0
0
0
0
0
0
0
0
0
0
0
0
0
0
0
0
0
0
0
0
0
0
0
0
0
0
0
0
0
0
0
0
0
0
0
0
0
0
0
0
0
0
0
0
0
0
0
0
0
0
0
0
0
0
0
0
0
0
0
0
0
0
0
0
0
0
0
0
0
0
0
0
0
0
0
0
0
0
0
0
0
0
0
0
0
0
0
0
0
0
0
0
0
0
0
0
0
0
0
0
0
0
0
0
0
0
0
0
0
0
0
0
0
0
0
0
0
0
0
0
0
0
0
0
0
0
0
0
0
0
0
0
0
0
0
0
0
0
0
0
0
0
0
0
0
0
0
0
0
0
0
0
0
0
0
0
0
0
0
0
0
0
0
0
0
0
0
0
0
0
0
0
0
0
0
0
0
0
0
0
0
0
0
0
0
0
0
0
0
0
0
0
0
0
0
0
0
0
0
0
0
0
0
0
0
0
0
0
0
0
0
0
0
0
0
0
0
0
0
0
0
0
0
0
0
0
0
0
0
0
0
0
0
0
0
0
0
0
0
0
0
0
0
0
0
0
0
0
0
0
0
0
0
0
0
0
0
0
0
0
0
0
0
0
0
0
0
0
0
0
0
0
0
0
0
0
0
0
0
0
0
0
0
0
0
0
0
0
0
0
0
0
0
0
0
0
0
0
0
0
0
0
0
0
0
0
0
0
0
0
0
0
0
0
0
0
0
0
0
0
0
0
0
0
0
0
0
0
0
0
0
0
0
0
0
0
0
0
0
0
0
0
0
0
0
0
0
0
0
0
0
0
0
0
0
0
0
0
0
0
0
0
0
0
0
0
0
0
0
0
0
0
0
0
0
0
0
0
0
0
0
0
0
0
0
0
0
0
0
0
0
0
0
0
0
0
0
0
0
0
0
0
0
0
0
0
0
0
0
0
0
0
0
0
0
0
0
0
0
0
0
0
0
0
0
0
0
0
0
0
0
0
0
0
0
0
0
0
0
0
0
0
0
0
0
0
0
0
0
0
0
0
0
0
0
0
0
0
0
0
0
0
0
0
0
0
0
0
0
0
0
0
0
0
0
0
0
0
0
0
0
0
0
0
0
0
0
0
0
0
0
0
0
0
0
0
0
0
0
0
0
0
0
0
0
0
0
0
0
0
0
0
0
0
0
0
0
0
0
0
0
0
0
0
0
0
0
0
0
0
0
0
0
0
0
0
0
0
0
0
0
0
0
0
0
0
0
0
0
0
0
0
0
0
0
0
0
0
0
0
0
0
0
0
0
0
0
0
0
0
0
0
0
0
0
0
0
0
0
0
0
0
0
0
0
0
0
0
0
0
0
0
0
0
0
0
0
0
0
0
0
0
0
0
0
0
0
0
0
0
0
0
0
0
0
0
0
0
0
0
0
0
0
0
0
0
0
0
0
0
0
0
0
0
0
0
0
0
0
0
0
0
0
0
0
0
0
0
0
0
0
0
0
0
0
0
0
0
0
0
0
0
0
0
0
0
0
0
0
0
0
0
0
0
0
0
0
0
0
0
0
0
0
0
0
0
0
0
0
0
0
0
0
1
1
1
1
1
1
1
1
1
1
1
1
1
1
1
1
1
1
1
1
1
1
1
1
1
1
1
1
1
1
2
2
2
2
2
2
2
2
2
2
2
2
2
2
2
2
2
2
2
2
2
2
2
2
2
2
2
2
2
2
3
3
3
3
3
3
3
3
3
3
3
3
3
3
3
3
3
3
3
3
3
3
3
3
3
3
3
3
3
3
4
4
4
4
4
4
4
4
4
4
4
4
4
4
4
4
4
4
4
4
4
4
4
4
4
4
4
4
4
4

LOOKUP_TABLE FreeFempp_table 5
1.00000000 0.00000000 0.00000000 1.00000000
1.00000000 1.00000000 0.00000000 1.00000000
1.00000000 0.00000000 1.00000000 1.00000000
0.00000000 1.00000000 0.00000000 1.00000000
0.00000000 1.00000000 1.00000000 1.00000000

POINT_DATA 961
FIELD FieldData 1
Density 1 961 float
3.25403665e-03 6.33714581e-03 1.30965440e-02 1.65950023e-02 1.56894438e-02 1.19489953e-02 5.83562814e-03 1.73787796e-03 7.84692820e-04 6.53948635e-04 7.24898360e-04 1.38978916e-03 4.54752566e-03 1.55789759e-02 1.85416698e-01 9.66307521e-01 9.88760233e-01 9.22684908e-01 9.26908553e-01 9.84949887e-01 9.91153777e-01 9.91582513e-01 9.91665363e-01 9.90948915e-01 9.89063859e-01 9.86150503e-01 9.82247114e-01 9.77343261e-01 9.72381294e-01 9.68101799e-01 9.65418100e-01 7.59523886e-04 1.24565978e-03 2.23548454e-03 2.77853664e-03 2.74833804e-03 2.39021401e-03 1.66515668e-03 8.82386288e-04 4.73625114e-04 4.12392925e-04 4.78956383e-04 8.48050171e-04 2.45118490e-03 6.76947599e-03 4.30942029e-02 8.61476839e-01 9.62146640e-01 2.36877248e-01 9.67062488e-02 6.56407714e-01 8.78736138e-01 9.08536434e-01 9.27260756e-01 9.38876867e-01 9.47165608e-01 9.56482470e-01 9.60938454e-01 9.57555354e-01 9.51274037e-01 9.49245572e-01 9.53329921e-01 3.22573265e-04 3.23400600e-04 3.62570776e-04 3.83841485e-04 3.99988727e-04 3.95928771e-04 3.58700752e-04 3.00146494e-04 2.37386295e-04 2.16891407e-04 2.54619546e-04 3.64539330e-04 7.90189195e-04 1.71866606e-03 4.86585498e-03 1.32980064e-01 8.25852394e-01 2.76560243e-02 2.44139670e-03 4.17122245e-03 7.15061370e-03 8.16030614e-03 1.00593511e-02 1.43194804e-02 2.80542634e-02 9.73719805e-02 3.24428350e-01 5.28792262e-01 6.18450344e-01 6.98458433e-01 8.03152978e-01 6.69208122e-04 4.06870327e-04 3.14034667e-04 2.87442468e-04 3.10790871e-04 3.41523963e-04 3.65239772e-04 3.75124306e-04 3.52693372e-04 3.13237193e-04 2.89607415e-04 2.82154826e-04 3.25459143e-04 4.20495402e-04 6.95089286e-04 4.91772732e-03 1.86087474e-01 2.28763223e-01 1.02174124e-02 1.32797332e-03 9.20424529e-04 7.80411763e-04 7.95435277e-04 8.54253420e-04 1.07160257e-03 1.94132270e-03 5.01281768e-03 1.53194349e-02 3.96792442e-02 8.72177109e-02 2.02340424e-01 3.22136399e-03 1.35090400e-03 7.47999351e-04 6.75744435e-04 7.76698056e-04 9.44602536e-04 1.15025800e-03 1.36647897e-03 1.54862367e-03 1.53180968e-03 1.09803467e-03 6.14383142e-04 4.55234986e-04 3.47485329e-04 2.90337135e-04 4.81492170e-04 2.27850815e-03 1.28192417e-02 5.11165321e-01 2.99145151e-02 4.56934702e-03 1.58068631e-03 1.01768051e-03 8.41453206e-04 6.70812442e-04 6.32529787e-04 7.81795534e-04 1.49064977e-03 3.49588902e-03 8.06986541e-03 1.91866364e-02 6.45388244e-03 2.70369323e-03 1.42280443e-03 1.28247775e-03 1.56206440e-03 2.15891236e-03 3.01928795e-03 4.07185080e-03 5.30546252e-03 6.29129121e-03 5.56510175e-03 3.23962769e-03 2.30144151e-03 1.42666628e-03 6.38063590e-04 4.23150603e-04 3.82131082e-04 5.92035707e-04 1.37550998e-02 7.75812268e-01 6.00208223e-01 7.87791982e-02 2.00900361e-02 6.24033017e-03 1.34229334e-03 6.71727699e-04 5.68172603e-04 6.22846070e-04 1.01647130e-03 1.99825270e-03 3.62787559e-03 1.41323321e-02 5.24887536e-03 2.71869078e-03 2.46059592e-03 3.01348348e-03 4.45068348e-03 6.68272609e-03 9.36435536e-03 1.24397846e-02 1.56124486e-02 1.72676276e-02 1.60268862e-02 1.56263560e-02 1.29011795e-02 5.74776903e-03 3.20835155e-03 1.51780457e-03 6.01359294e-04 6.92088273e-04 1.44850072e-02 7.81532049e-01 9.31528866e-01 9.47737336e-01 8.40035677e-01 4.68420424e-02 3.40544665e-03 8.12244718e-04 5.27889177e-04 5.73232071e-04 1.01496035e-03 1.72020367e-03 8.84757116e-02 2.90360935e-02 1.40193319e-02 1.26709761e-02 1.51040461e-02 2.18643248e-02 3.22739556e-02 4.40823361e-02 5.61873578e-02 6.76124766e-02 7.53002912e-02 7.66898468e-02 7.63428509e-02 7.27613121e-02 5.84151782e-02 4.81613427e-02 2.90249977e-02 7.20236683e-03 1.43544632e-03 7.13870919e-04 4.63156076e-03 3.88505198e-02 5.40081561e-01 8.31873178e-01 7.98655391e-01 3.08058023e-01 1.14646936e-02 8.17263208e-04 5.05183008e-04 7.92309700e-04 1.48291502e-03 7.38510191e-01 5.31024039e-01 3.67512763e-01 3.29021603e-01 3.26839477e-01 3.49128962e-01 3.77223670e-01 3.99168074e-01 4.13246602e-01 4.18294191e-01 4.10693884e-01 3.89404714e-01 3.61128211e-01 3.30463409e-01 2.97464341e-01 2.71795452e-01 2.29332536e-01 1.34798288e-01 3.91566344e-02 3.30609246e-03 6.70315989e-04 7.48488412e-04 3.10924719e-03 7.15404423e-03 2.29941700e-02 7.13657737e-01 8.25374663e-01 5.69483358e-03 5.98968472e-04 7.04529928e-04 1.56343565e-03 9.78427470e-01 9.73158956e-01 9.65682626e-01 9.59654331e-01 9.51344788e-01 9.40333843e-01 9.26644742e-01 9.10805345e-01 8.93041193e-01 8.72306585e-01 8.46697509e-01 8.14872682e-01 7.77712822e-01 7.37742364e-01 6.98589504e-01 6.65601134e-01 6.35650575e-01 5.94161510e-01 4.90228176e-01 1.78970769e-01 9.57271084e-03 1.21677539e-03 6.69471978e-04 8.93022050e-04 1.44716131e-03 1.85885523e-02 8.22304189e-01 3.13958041e-02 8.23156093e-04 5.98321669e-04 1.21670181e-03 9.91075754e-01 9.91546869e-01 9.91484523e-01 9.90686834e-01 9.89105225e-01 9.86550450e-01 9.82758582e-01 9.77585375e-01 9.70827401e-01 9.62018311e-01 9.50479329e-01 9.35617268e-01 9.17363167e-01 8.96448851e-01 8.74739289e-01 8.55295420e-01 8.41029227e-01 8.34668636e-01 8.35668385e-01 8.13631058e-01 5.61940014e-01 4.34765145e-02 4.35238611e-03 1.38616143e-03 1.25365378e-03 1.90351566e-03 2.36897040e-02 6.18963242e-01 1.48463733e-02 7.09617685e-04 6.46799628e-04 9.73948479e-01 9.78610575e-01 9.82471228e-01 9.84376431e-01 9.85485196e-01 9.85457480e-01 9.84204412e-01 9.81739104e-01 9.77958918e-01 9.72581625e-01 9.65195000e-01 9.55410719e-01 9.43065524e-01 9.28390861e-01 9.12230074e-01 8.96204650e-01 8.82847428e-01 8.76345932e-01 8.82010698e-01 9.00603175e-01 9.17974174e-01 8.64693880e-01 3.96629274e-01 1.49437021e-02 2.01182393e-03 1.29720720e-03 1.54543668e-03 4.09274623e-02 7.05174088e-01 3.94595973e-03 5.71739220e-04 5.18332124e-01 5.31069100e-01 6.32544935e-01 7.60639489e-01 8.67396414e-01 9.25867617e-01 9.51494157e-01 9.61215258e-01 9.63314533e-01 9.60955858e-01 9.55142975e-01 9.46112096e-01 9.33961570e-01 9.18942928e-01 9.01613474e-01 8.82918477e-01 8.64555061e-01 8.50120306e-01 8.46081614e-01 8.60253096e-01 8.95240009e-01 9.37871993e-01 9.56815839e-01 8.47901762e-01 3.90492827e-02 2.87048891e-03 1.04829855e-03 1.36055946e-02 7.92770803e-01 7.37602310e-03 2.27613913e-04 2.33586859e-02 1.58831552e-02 1.71299409e-02 3.05444729e-02 8.17077905e-02 2.64978707e-01 5.97205698e-01 8.10777247e-01 8.87754798e-01 9.11704242e-01 9.15328026e-01 9.08571482e-01 8.94865394e-01 8.75944793e-01 8.53290379e-01 8.28438401e-01 8.03064167e-01 7.79325902e-01 7.60277808e-01 7.50782013e-01 7.60545969e-01 8.08958352e-01 8.98848772e-01 9.56793904e-01 8.81292939e-01 9.27978680e-02 8.89610033e-03 4.05056514e-02 8.73501003e-01 8.36414471e-03 1.00098565e-04 3.93076614e-03 2.56878044e-03 2.23095668e-03 2.91972142e-03 5.23008592e-03 1.51942633e-02 7.33966306e-02 3.12858671e-01 6.23170078e-01 7.71992445e-01 8.20691526e-01 8.27893913e-01 8.14320385e-01 7.88060486e-01 7.54220188e-01 7.17611074e-01 6.82822049e-01 6.53066933e-01 6.28283620e-01 6.03479087e-01 5.69687068e-01 5.25044322e-01 5.09601533e-01 6.12173200e-01 7.73437679e-01 7.15621114e-01 4.96232837e-01 8.77409101e-01 9.51084077e-01 9.67700407e-03 2.02358060e-04 1.93545362e-03 1.37941597e-03 1.20648986e-03 1.37009355e-03 1.87896914e-03 3.64086358e-03 1.29494211e-02 7.44388327e-02 2.98075587e-01 5.53400695e-01 6.77222311e-01 7.12536514e-01 7.02309072e-01 6.65342450e-01 6.12879097e-01 5.55738568e-01 5.04612386e-01 4.67303693e-01 4.45942909e-01 4.34982330e-01 4.19192761e-01 3.75659257e-01 2.97738135e-01 2.38942161e-01 3.00049454e-01 6.23322725e-01 9.33008790e-01 9.91623342e-01 9.73544717e-01 9.47632361e-03 2.61934299e-04 1.38345116e-03 1.07575743e-03 9.63454891e-04 1.04865560e-03 1.32740231e-03 2.23468849e-03 6.31329231e-03 3.27814110e-02 1.60017803e-01 3.92422646e-01 5.53616881e-01 6.12012446e-01 6.05821311e-01 5.59222460e-01 4.88612890e-01 4.11347240e-01 3.44419211e-01 2.98878729e-01 2.78363228e-01 2.81759501e-01 3.03665549e-01 3.29502285e-01 3.37428212e-01 3.38435322e-01 4.43306118e-01 7.96600163e-01 9.80318367e-01 9.95822430e-01 9.64886963e-01 8.74185469e-03 3.32260126e-04 1.13040209e-03 9.40405880e-04 8.78728810e-04 9.31145099e-04 1.17980514e-03 2.01625004e-03 5.61592402e-03 2.72823237e-02 1.27829075e-01 3.28706145e-01 4.91341472e-01 5.59941649e-01 5.58498859e-01 5.09053111e-01 4.29199815e-01 3.40571851e-01 2.65205204e-01 2.15796933e-01 1.94965944e-01 2.03064218e-01 2.44706169e-01 3.27369034e-01 4.51242596e-01 6.14602208e-01 8.16088140e-01 9.57553327e-01 9.92904603e-01 9.92814779e-01 8.45746040e-01 6.77804602e-03 3.85584251e-04 9.98839969e-04 8.98747530e-04 8.62883986e-04 9.00399755e-04 1.18943281e-03 2.32876954e-03 7.39220856e-03 3.50363180e-02 1.40333146e-01 3.25219989e-01 4.77230608e-01 5.49782157e-01 5.56996703e-01 5.14984250e-01 4.37776506e-01 3.46158743e-01 2.65328705e-01 2.11831048e-01 1.89913437e-01 2.01728836e-01 2.59895504e-01 3.92872602e-01 6.11980736e-01 8.32589865e-01 9.51642156e-01 9.88441586e-01 9.95113850e-01 9.71801519e-01 8.63471255e-02 2.34419946e-03 3.89667228e-04 9.57559329e-04 8.85763788e-04 8.61483277e-04 9.09168448e-04 1.36938016e-03 3.41013307e-03 1.32570975e-02 5.75003512e-02 1.78480014e-01 3.47307771e-01 4.83980149e-01 5.60093284e-01 5.82254291e-01 5.60009360e-01 5.01723230e-01 4.21824127e-01 3.43371063e-01 2.87681282e-01 2.65674472e-01 2.85696894e-01 3.69262189e-01 5.50817370e-01 7.91088283e-01 9.38532531e-01 9.84106302e-01 9.94290471e-01 9.88522470e-01 7.59667277e-01 9.76992212e-03 8.14452826e-04 6.20431209e-04 9.50686168e-04 8.82111432e-04 8.60260683e-04 9.75470582e-04 1.93089980e-03 6.55009691e-03 2.88208257e-02 9.89337713e-02 2.25227132e-01 3.68370146e-01 4.89160985e-01 5.71463466e-01 6.14479303e-01 6.22339010e-01 6.00085437e-01 5.56047142e-01 5.05550504e-01 4.68242139e-01 4.61739123e-01 5.03973484e-01 6.13900125e-01 7.80220807e-01 9.21001971e-01 9.78811562e-01 9.92619812e-01 9.90251958e-01 8.99617970e-01 3.48846279e-02 1.97494612e-03 6.54232921e-04 8.78552324e-04 9.47408669e-04 8.75680067e-04 8.61457491e-04 1.19306252e-03 3.44307139e-03 1.61469895e-02 6.25640973e-02 1.50536552e-01 2.58173227e-01 3.71194839e-01 4.79603887e-01 5.71420372e-01 6.38834178e-01 6.80767357e-01 7.00713456e-01 7.04903066e-01 7.02692151e-01 7.07102835e-01 7.33679593e-01 7.94213653e-01 8.75163734e-01 9.41562295e-01 9.77191031e-01 9.89052832e-01 9.85401034e-01 9.06732202e-01 8.18265304e-02 3.30595090e-03 6.63168845e-04 7.79542839e-04 9.65447922e-04 9.39754304e-04 8.59464984e-04 8.84094043e-04 1.77772180e-03 7.87307508e-03 4.13764082e-02 1.11827061e-01 1.87331781e-01 2.62518644e-01 3.49766880e-01 4.50189352e-01 5.53299367e-01 6.45666897e-01 7.19308972e-01 7.73506999e-01 8.12133133e-01 8.41578007e-01 8.70124340e-01 9.04768229e-01 9.42920029e-01 9.71511185e-01 9.85785246e-01 9.86376047e-01 9.57465231e-01 7.13379204e-01 5.14676981e-02 3.80461826e-03 8.08230950e-04 7.15967035e-04 8.69302370e-04 9.98656149e-04 9.20294086e-04 8.25969037e-04 9.75467206e-04 3.21345613e-03 2.21159980e-02 8.67867544e-02 1.50421232e-01 1.91220477e-01 2.37638384e-01 3.06074411e-01 4.00170803e-01 5.12509942e-01 6.27185643e-01 7.28388727e-01 8.07960629e-01 8.66186857e-01 9.08390462e-01 9.40684974e-01 9.65695798e-01 9.82309520e-01 9.90717888e-01 9.93403852e-01 9.72049832e-01 2.56051570e-01 1.21629573e-02 2.27653724e-03 7.05847866e-04 5.96837082e-04 7.48940045e-04 9.75007599e-04 1.42748468e-03 8.89114977e-04 7.92504812e-04 1.27362297e-03 6.76237093e-03 5.61290085e-02 1.30741313e-01 1.53556332e-01 1.64334893e-01 1.92526802e-01 2.46623814e-01 3.31317216e-01 4.45065856e-01 5.75305879e-01 7.01340139e-01 8.05652142e-01 8.81930530e-01 9.32988405e-01 9.64652598e-01 9.82337534e-01 9.90899026e-01 9.94477808e-01 9.94769752e-01 9.62298512e-01 4.09174263e-02 1.62920321e-03 6.07508700e-04 7.63845572e-04 1.70766492e-03 4.55708010e-03 8.39318894e-03 1.11205205e-02 8.59959284e-04 8.04196461e-04 2.05146987e-03 1.77715123e-02 1.02837227e-01 1.39390394e-01 1.24131873e-01 1.22042075e-01 1.40484855e-01 1.81194767e-01 2.49643520e-01 3.51231486e-01 4.83598262e-01 6.29755199e-01 7.63774693e-01 8.66454422e-01 9.32754695e-01 9.68734801e-01 9.85383749e-01 9.92287278e-01 9.94952381e-01 9.95296776e-01 9.84031200e-01 3.31592977e-01 1.34033998e-02 9.06887650e-03 1.33582288e-02 4.00681943e-02 4.07270342e-01 8.19772184e-01 8.69584858e-01 8.32618680e-04 8.65627080e-04 3.34722386e-03 4.42252196e-02 1.28579661e-01 1.09968081e-01 8.42096284e-02 8.14954117e-02 9.40567926e-02 1.21089302e-01 1.67514637e-01 2.42604360e-01 3.56088042e-01 5.06708324e-01 6.70756996e-01 8.11969101e-01 9.07366574e-01 9.58405435e-01 9.81018484e-01 9.90118802e-01 9.93735969e-01 9.95022237e-01 9.94053602e-01 9.77769136e-01 8.99446905e-01 9.08656359e-01 9.59421396e-01 9.75745320e-01 9.87783372e-01 9.93100882e-01 9.94449675e-01 7.86508957e-04 9.42024810e-04 4.79003880e-03 7.36147240e-02 1.11819334e-01 6.99802935e-02 5.23398221e-02 5.19522317e-02 5.96902855e-02 7.43993446e-02 9.91980433e-02 1.41987562e-01 2.16928616e-01 3.41166198e-01 5.15527248e-01 7.00655699e-01 8.42774153e-01 9.25097942e-01 9.64447498e-01 9.81631279e-01 9.89122927e-01 9.92467701e-01 9.93730009e-01 9.93291378e-01 9.91829872e-01 9.92832601e-01 9.94863093e-01 9.95542765e-01 9.95383084e-01 9.94788647e-01 9.94365275e-01 6.78435375e-04 1.01201807e-03 6.55494491e-03 8.51069391e-02 7.99196959e-02 4.40362021e-02 3.48118506e-02 3.51677947e-02 3.88215855e-02 4.48741615e-02 5.49062751e-02 7.32861310e-02 1.09669067e-01 1.84027731e-01 3.26064348e-01 5.36887407e-01 7.40514576e-01 8.69001091e-01 9.32417572e-01 9.61772263e-01 9.75690901e-01 9.82422113e-01 9.85319436e-01 9.85659003e-01 9.84459937e-01 9.83408511e-01 9.82101500e-01 9.79581535e-01 9.77280974e-01 9.78051066e-01 9.80567515e-01 6.39827049e-04 1.41296932e-03 1.40217822e-02 1.37696400e-01 9.46519896e-02 5.14734760e-02 4.23219018e-02 4.14478965e-02 4.23383974e-02 4.42783646e-02 4.85805906e-02 5.82276955e-02 7.96493217e-02 1.28137082e-01 2.36895666e-01 4.40990269e-01 6.83074415e-01 8.44334424e-01 9.17756140e-01 9.47101593e-01 9.57275331e-01 9.57025945e-01 9.48376179e-01 9.31421757e-01 9.07841206e-01 8.83073211e-01 8.60302210e-01 8.39706123e-01 8.28261554e-01 8.51505697e-01 8.95923138e-01 8.69390788e-04 1.92772585e-03 3.61653380e-02 3.55038017e-01 2.25968003e-01 1.18697971e-01 9.82499570e-02 9.35687721e-02 9.14376974e-02 9.09052268e-02 9.43276808e-02 1.06134281e-01 1.34667844e-01 1.97209731e-01 3.23804766e-01 5.28729379e-01 7.40530908e-01 8.71460736e-01 9.29501712e-01 9.51408744e-01 9.55990791e-01 9.47564244e-01 9.22373772e-01 8.76251519e-01 8.20640922e-01 7.79460788e-01 7.57417381e-01 7.41610408e-01 7.28848934e-01 7.46294439e-01 7.96557486e-01 
