# vtk DataFile Version 2.0
results/5_density.vtk, Created by Freefem++ 
ASCII
DATASET UNSTRUCTURED_GRID
POINTS 961 float
0 0 0
0.033333333 0 0
0.066666667 0 0
0.1 0 0
0.13333333 0 0
0.16666667 0 0
0.2 0 0
0.23333333 0 0
0.26666667 0 0
0.3 0 0
0.33333333 0 0
0.36666667 0 0
0.4 0 0
0.43333333 0 0
0.46666667 0 0
0.5 0 0
0.53333333 0 0
0.56666667 0 0
0.6 0 0
0.63333333 0 0
0.66666667 0 0
0.7 0 0
0.73333333 0 0
0.76666667 0 0
0.8 0 0
0.83333333 0 0
0.86666667 0 0
0.9 0 0
0.93333333 0 0
0.96666667 0 0
1 0 0
0 0.033333333 0
0.033333333 0.033333333 0
0.066666667 0.033333333 0
0.1 0.033333333 0
0.13333333 0.033333333 0
0.16666667 0.033333333 0
0.2 0.033333333 0
0.23333333 0.033333333 0
0.26666667 0.033333333 0
0.3 0.033333333 0
0.33333333 0.033333333 0
0.36666667 0.033333333 0
0.4 0.033333333 0
0.43333333 0.033333333 0
0.46666667 0.033333333 0
0.5 0.033333333 0
0.53333333 0.033333333 0
0.56666667 0.033333333 0
0.6 0.033333333 0
0.63333333 0.033333333 0
0.66666667 0.033333333 0
0.7 0.033333333 0
0.73333333 0.033333333 0
0.76666667 0.033333333 0
0.8 0.033333333 0
0.83333333 0.033333333 0
0.86666667 0.033333333 0
0.9 0.033333333 0
0.93333333 0.033333333 0
0.96666667 0.033333333 0
1 0.033333333 0
0 0.066666667 0
0.033333333 0.066666667 0
0.066666667 0.066666667 0
0.1 0.066666667 0
0.13333333 0.066666667 0
0.16666667 0.066666667 0
0.2 0.066666667 0
0.23333333 0.066666667 0
0.26666667 0.066666667 0
0.3 0.066666667 0
0.33333333 0.066666667 0
0.36666667 0.066666667 0
0.4 0.066666667 0
0.43333333 0.066666667 0
0.46666667 0.066666667 0
0.5 0.066666667 0
0.53333333 0.066666667 0
0.56666667 0.066666667 0
0.6 0.066666667 0
0.63333333 0.066666667 0
0.66666667 0.066666667 0
0.7 0.066666667 0
0.73333333 0.066666667 0
0.76666667 0.066666667 0
0.8 0.066666667 0
0.83333333 0.066666667 0
0.86666667 0.066666667 0
0.9 0.066666667 0
0.93333333 0.066666667 0
0.96666667 0.066666667 0
1 0.066666667 0
0 0.1 0
0.033333333 0.1 0
0.066666667 0.1 0
0.1 0.1 0
0.13333333 0.1 0
0.16666667 0.1 0
0.2 0.1 0
0.23333333 0.1 0
0.26666667 0.1 0
0.3 0.1 0
0.33333333 0.1 0
0.36666667 0.1 0
0.4 0.1 0
0.43333333 0.1 0
0.46666667 0.1 0
0.5 0.1 0
0.53333333 0.1 0
0.56666667 0.1 0
0.6 0.1 0
0.63333333 0.1 0
0.66666667 0.1 0
0.7 0.1 0
0.73333333 0.1 0
0.76666667 0.1 0
0.8 0.1 0
0.83333333 0.1 0
0.86666667 0.1 0
0.9 0.1 0
0.93333333 0.1 0
0.96666667 0.1 0
1 0.1 0
0 0.13333333 0
0.033333333 0.13333333 0
0.066666667 0.13333333 0
0.1 0.13333333 0
0.13333333 0.13333333 0
0.16666667 0.13333333 0
0.2 0.13333333 0
0.23333333 0.13333333 0
0.26666667 0.13333333 0
0.3 0.13333333 0
0.33333333 0.13333333 0
0.36666667 0.13333333 0
0.4 0.13333333 0
0.43333333 0.13333333 0
0.46666667 0.13333333 0
0.5 0.13333333 0
0.53333333 0.13333333 0
0.56666667 0.13333333 0
0.6 0.13333333 0
0.63333333 0.13333333 0
0.66666667 0.13333333 0
0.7 0.13333333 0
0.73333333 0.13333333 0
0.76666667 0.13333333 0
0.8 0.13333333 0
0.83333333 0.13333333 0
0.86666667 0.13333333 0
0.9 0.13333333 0
0.93333333 0.13333333 0
0.96666667 0.13333333 0
1 0.13333333 0
0 0.16666667 0
0.033333333 0.16666667 0
0.066666667 0.16666667 0
0.1 0.16666667 0
0.13333333 0.16666667 0
0.16666667 0.16666667 0
0.2 0.16666667 0
0.23333333 0.16666667 0
0.26666667 0.16666667 0
0.3 0.16666667 0
0.33333333 0.16666667 0
0.36666667 0.16666667 0
0.4 0.16666667 0
0.43333333 0.16666667 0
0.46666667 0.16666667 0
0.5 0.16666667 0
0.53333333 0.16666667 0
0.56666667 0.16666667 0
0.6 0.16666667 0
0.63333333 0.16666667 0
0.66666667 0.16666667 0
0.7 0.16666667 0
0.73333333 0.16666667 0
0.76666667 0.16666667 0
0.8 0.16666667 0
0.83333333 0.16666667 0
0.86666667 0.16666667 0
0.9 0.16666667 0
0.93333333 0.16666667 0
0.96666667 0.16666667 0
1 0.16666667 0
0 0.2 0
0.033333333 0.2 0
0.066666667 0.2 0
0.1 0.2 0
0.13333333 0.2 0
0.16666667 0.2 0
0.2 0.2 0
0.23333333 0.2 0
0.26666667 0.2 0
0.3 0.2 0
0.33333333 0.2 0
0.36666667 0.2 0
0.4 0.2 0
0.43333333 0.2 0
0.46666667 0.2 0
0.5 0.2 0
0.53333333 0.2 0
0.56666667 0.2 0
0.6 0.2 0
0.63333333 0.2 0
0.66666667 0.2 0
0.7 0.2 0
0.73333333 0.2 0
0.76666667 0.2 0
0.8 0.2 0
0.83333333 0.2 0
0.86666667 0.2 0
0.9 0.2 0
0.93333333 0.2 0
0.96666667 0.2 0
1 0.2 0
0 0.23333333 0
0.033333333 0.23333333 0
0.066666667 0.23333333 0
0.1 0.23333333 0
0.13333333 0.23333333 0
0.16666667 0.23333333 0
0.2 0.23333333 0
0.23333333 0.23333333 0
0.26666667 0.23333333 0
0.3 0.23333333 0
0.33333333 0.23333333 0
0.36666667 0.23333333 0
0.4 0.23333333 0
0.43333333 0.23333333 0
0.46666667 0.23333333 0
0.5 0.23333333 0
0.53333333 0.23333333 0
0.56666667 0.23333333 0
0.6 0.23333333 0
0.63333333 0.23333333 0
0.66666667 0.23333333 0
0.7 0.23333333 0
0.73333333 0.23333333 0
0.76666667 0.23333333 0
0.8 0.23333333 0
0.83333333 0.23333333 0
0.86666667 0.23333333 0
0.9 0.23333333 0
0.93333333 0.23333333 0
0.96666667 0.23333333 0
1 0.23333333 0
0 0.26666667 0
0.033333333 0.26666667 0
0.066666667 0.26666667 0
0.1 0.26666667 0
0.13333333 0.26666667 0
0.16666667 0.26666667 0
0.2 0.26666667 0
0.23333333 0.26666667 0
0.26666667 0.26666667 0
0.3 0.26666667 0
0.33333333 0.26666667 0
0.36666667 0.26666667 0
0.4 0.26666667 0
0.43333333 0.26666667 0
0.46666667 0.26666667 0
0.5 0.26666667 0
0.53333333 0.26666667 0
0.56666667 0.26666667 0
0.6 0.26666667 0
0.63333333 0.26666667 0
0.66666667 0.26666667 0
0.7 0.26666667 0
0.73333333 0.26666667 0
0.76666667 0.26666667 0
0.8 0.26666667 0
0.83333333 0.26666667 0
0.86666667 0.26666667 0
0.9 0.26666667 0
0.93333333 0.26666667 0
0.96666667 0.26666667 0
1 0.26666667 0
0 0.3 0
0.033333333 0.3 0
0.066666667 0.3 0
0.1 0.3 0
0.13333333 0.3 0
0.16666667 0.3 0
0.2 0.3 0
0.23333333 0.3 0
0.26666667 0.3 0
0.3 0.3 0
0.33333333 0.3 0
0.36666667 0.3 0
0.4 0.3 0
0.43333333 0.3 0
0.46666667 0.3 0
0.5 0.3 0
0.53333333 0.3 0
0.56666667 0.3 0
0.6 0.3 0
0.63333333 0.3 0
0.66666667 0.3 0
0.7 0.3 0
0.73333333 0.3 0
0.76666667 0.3 0
0.8 0.3 0
0.83333333 0.3 0
0.86666667 0.3 0
0.9 0.3 0
0.93333333 0.3 0
0.96666667 0.3 0
1 0.3 0
0 0.33333333 0
0.033333333 0.33333333 0
0.066666667 0.33333333 0
0.1 0.33333333 0
0.13333333 0.33333333 0
0.16666667 0.33333333 0
0.2 0.33333333 0
0.23333333 0.33333333 0
0.26666667 0.33333333 0
0.3 0.33333333 0
0.33333333 0.33333333 0
0.36666667 0.33333333 0
0.4 0.33333333 0
0.43333333 0.33333333 0
0.46666667 0.33333333 0
0.5 0.33333333 0
0.53333333 0.33333333 0
0.56666667 0.33333333 0
0.6 0.33333333 0
0.63333333 0.33333333 0
0.66666667 0.33333333 0
0.7 0.33333333 0
0.73333333 0.33333333 0
0.76666667 0.33333333 0
0.8 0.33333333 0
0.83333333 0.33333333 0
0.86666667 0.33333333 0
0.9 0.33333333 0
0.93333333 0.33333333 0
0.96666667 0.33333333 0
1 0.33333333 0
0 0.36666667 0
0.033333333 0.36666667 0
0.066666667 0.36666667 0
0.1 0.36666667 0
0.13333333 0.36666667 0
0.16666667 0.36666667 0
0.2 0.36666667 0
0.23333333 0.36666667 0
0.26666667 0.36666667 0
0.3 0.36666667 0
0.33333333 0.36666667 0
0.36666667 0.36666667 0
0.4 0.36666667 0
0.43333333 0.36666667 0
0.46666667 0.36666667 0
0.5 0.36666667 0
0.53333333 0.36666667 0
0.56666667 0.36666667 0
0.6 0.36666667 0
0.63333333 0.36666667 0
0.66666667 0.36666667 0
0.7 0.36666667 0
0.73333333 0.36666667 0
0.76666667 0.36666667 0
0.8 0.36666667 0
0.83333333 0.36666667 0
0.86666667 0.36666667 0
0.9 0.36666667 0
0.93333333 0.36666667 0
0.96666667 0.36666667 0
1 0.36666667 0
0 0.4 0
0.033333333 0.4 0
0.066666667 0.4 0
0.1 0.4 0
0.13333333 0.4 0
0.16666667 0.4 0
0.2 0.4 0
0.23333333 0.4 0
0.26666667 0.4 0
0.3 0.4 0
0.33333333 0.4 0
0.36666667 0.4 0
0.4 0.4 0
0.43333333 0.4 0
0.46666667 0.4 0
0.5 0.4 0
0.53333333 0.4 0
0.56666667 0.4 0
0.6 0.4 0
0.63333333 0.4 0
0.66666667 0.4 0
0.7 0.4 0
0.73333333 0.4 0
0.76666667 0.4 0
0.8 0.4 0
0.83333333 0.4 0
0.86666667 0.4 0
0.9 0.4 0
0.93333333 0.4 0
0.96666667 0.4 0
1 0.4 0
0 0.43333333 0
0.033333333 0.43333333 0
0.066666667 0.43333333 0
0.1 0.43333333 0
0.13333333 0.43333333 0
0.16666667 0.43333333 0
0.2 0.43333333 0
0.23333333 0.43333333 0
0.26666667 0.43333333 0
0.3 0.43333333 0
0.33333333 0.43333333 0
0.36666667 0.43333333 0
0.4 0.43333333 0
0.43333333 0.43333333 0
0.46666667 0.43333333 0
0.5 0.43333333 0
0.53333333 0.43333333 0
0.56666667 0.43333333 0
0.6 0.43333333 0
0.63333333 0.43333333 0
0.66666667 0.43333333 0
0.7 0.43333333 0
0.73333333 0.43333333 0
0.76666667 0.43333333 0
0.8 0.43333333 0
0.83333333 0.43333333 0
0.86666667 0.43333333 0
0.9 0.43333333 0
0.93333333 0.43333333 0
0.96666667 0.43333333 0
1 0.43333333 0
0 0.46666667 0
0.033333333 0.46666667 0
0.066666667 0.46666667 0
0.1 0.46666667 0
0.13333333 0.46666667 0
0.16666667 0.46666667 0
0.2 0.46666667 0
0.23333333 0.46666667 0
0.26666667 0.46666667 0
0.3 0.46666667 0
0.33333333 0.46666667 0
0.36666667 0.46666667 0
0.4 0.46666667 0
0.43333333 0.46666667 0
0.46666667 0.46666667 0
0.5 0.46666667 0
0.53333333 0.46666667 0
0.56666667 0.46666667 0
0.6 0.46666667 0
0.63333333 0.46666667 0
0.66666667 0.46666667 0
0.7 0.46666667 0
0.73333333 0.46666667 0
0.76666667 0.46666667 0
0.8 0.46666667 0
0.83333333 0.46666667 0
0.86666667 0.46666667 0
0.9 0.46666667 0
0.93333333 0.46666667 0
0.96666667 0.46666667 0
1 0.46666667 0
0 0.5 0
0.033333333 0.5 0
0.066666667 0.5 0
0.1 0.5 0
0.13333333 0.5 0
0.16666667 0.5 0
0.2 0.5 0
0.23333333 0.5 0
0.26666667 0.5 0
0.3 0.5 0
0.33333333 0.5 0
0.36666667 0.5 0
0.4 0.5 0
0.43333333 0.5 0
0.46666667 0.5 0
0.5 0.5 0
0.53333333 0.5 0
0.56666667 0.5 0
0.6 0.5 0
0.63333333 0.5 0
0.66666667 0.5 0
0.7 0.5 0
0.73333333 0.5 0
0.76666667 0.5 0
0.8 0.5 0
0.83333333 0.5 0
0.86666667 0.5 0
0.9 0.5 0
0.93333333 0.5 0
0.96666667 0.5 0
1 0.5 0
0 0.53333333 0
0.033333333 0.53333333 0
0.066666667 0.53333333 0
0.1 0.53333333 0
0.13333333 0.53333333 0
0.16666667 0.53333333 0
0.2 0.53333333 0
0.23333333 0.53333333 0
0.26666667 0.53333333 0
0.3 0.53333333 0
0.33333333 0.53333333 0
0.36666667 0.53333333 0
0.4 0.53333333 0
0.43333333 0.53333333 0
0.46666667 0.53333333 0
0.5 0.53333333 0
0.53333333 0.53333333 0
0.56666667 0.53333333 0
0.6 0.53333333 0
0.63333333 0.53333333 0
0.66666667 0.53333333 0
0.7 0.53333333 0
0.73333333 0.53333333 0
0.76666667 0.53333333 0
0.8 0.53333333 0
[...]
CELL_DATA 1920
Scalars  Label int 1
LOOKUP_TABLE FreeFempp_table
0
0
0
0
0
0
0
0
0
0
0
0
0
0
0
0
0
0
0
0
0
0
0
0
0
0
0
0
0
0
0
0
0
0
0
0
0
0
0
0
0
0
0
0
0
0
0
0
0
0
0
0
0
0
0
0
0
0
0
0
0
0
0
0
0
0
0
0
0
0
0
0
0
0
0
0
0
0
0
0
0
0
0
0
0
0
0
0
0
0
0
0
0
0
0
0
0
0
0
0
0
0
0
0
0
0
0
0
0
0
0
0
0
0
0
0
0
0
0
0
0
0
0
0
0
0
0
0
0
0
0
0
0
0
0
0
0
0
0
0
0
0
0
0
0
0
0
0
0
0
0
0
0
0
0
0
0
0
0
0
0
0
0
0
0
0
0
0
0
0
0
0
0
0
0
0
0
0
0
0
0
0
0
0
0
0
0
0
0
0
0
0
0
0
0
0
0
0
0
0
0
0
0
0
0
0
0
0
0
0
0
0
0
0
0
0
0
0
0
0
0
0
0
0
0
0
0
0
0
0
0
0
0
0
0
0
0
0
0
0
0
0
0
0
0
0
0
0
0
0
0
0
0
0
0
0
0
0
0
0
0
0
0
0
0
0
0
0
0
0
0
0
0
0
0
0
0
0
0
0
0
0
0
0
0
0
0
0
0
0
0
0
0
0
0
0
0
0
0
0
0
0
0
0
0
0
0
0
0
0
0
0
0
0
0
0
0
0
0
0
0
0
0
0
0
0
0
0
0
0
0
0
0
0
0
0
0
0
0
0
0
0
0
0
0
0
0
0
0
0
0
0
0
0
0
0
0
0
0
0
0
0
0
0
0
0
0
0
0
0
0
0
0
0
0
0
0
0
0
0
0
0
0
0
0
0
0
0
0
0
0
0
0
0
0
0
0
0
0
0
0
0
0
0
0
0
0
0
0
0
0
0
0
0
0
0
0
0
0
0
0
0
0
0
0
0
0
0
0
0
0
0
0
0
0
0
0
0
0
0
0
0
0
0
0
0
0
0
0
0
0
0
0
0
0
0
0
0
0
0
0
0
0
0
0
0
0
0
0
0
0
0
0
0
0
0
0
0
0
0
0
0
0
0
0
0
0
0
0
0
0
0
0
0
0
0
0
0
0
0
0
0
0
0
0
0
0
0
0
0
0
0
0
0
0
0
0
0
0
0
0
0
0
0
0
0
0
0
0
0
0
0
0
0
0
0
0
0
0
0
0
0
0
0
0
0
0
0
0
0
0
0
0
0
0
0
0
0
0
0
0
0
0
0
0
0
0
0
0
0
0
0
0
0
0
0
0
0
0
0
0
0
0
0
0
0
0
0
0
0
0
0
0
0
0
0
0
0
0
0
0
0
0
0
0
0
0
0
0
0
0
0
0
0
0
0
0
0
0
0
0
0
0
0
0
0
0
0
0
0
0
0
0
0
0
0
0
0
0
0
0
0
0
0
0
0
0
0
0
0
0
0
0
0
0
0
0
0
0
0
0
0
0
0
0
0
0
0
0
0
0
0
0
0
0
0
0
0
0
0
0
0
0
0
0
0
0
0
0
0
0
0
0
0
0
0
0
0
0
0
0
0
0
0
0
0
0
0
0
0
0
0
0
0
0
0
0
0
0
0
0
0
0
0
0
0
0
0
0
0
0
0
0
0
0
0
0
0
0
0
0
0
0
0
0
0
0
0
0
0
0
0
0
0
0
0
0
0
0
0
0
0
0
0
0
0
0
0
0
0
0
0
0
0
0
0
0
0
0
0
0
0
0
0
0
0
0
0
0
0
0
0
0
0
0
0
0
0
0
0
0
0
0
0
0
0
0
0
0
0
0
0
0
0
0
0
0
0
0
0
0
0
0
0
0
0
0
0
0
0
0
0
0
0
0
0
0
0
0
0
0
0
0
0
0
0
0
0
0
0
0
0
0
0
0
0
0
0
0
0
0
0
0
0
0
0
0
0
0
0
0
0
0
0
0
0
0
0
0
0
0
0
0
0
0
0
0
0
0
0
0
0
0
0
0
0
0
0
0
0
0
0
0
0
0
0
0
0
0
0
0
0
0
0
0
0
0
0
0
0
0
0
0
0
0
0
0
0
0
0
0
0
0
0
0
0
0
0
0
0
0
0
0
0
0
0
0
0
0
0
0
0
0
0
0
0
0
0
0
0
0
0
0
0
0
0
0
0
0
0
0
0
0
0
0
0
0
0
0
0
0
0
0
0
0
0
0
0
0
0
0
0
0
0
0
0
0
0
0
0
0
0
0
0
0
0
0
0
0
0
0
0
0
0
0
0
0
0
0
0
0
0
0
0
0
0
0
0
0
0
0
0
0
0
0
0
0
0
0
0
0
0
0
0
0
0
0
0
0
0
0
0
0
0
0
0
0
0
0
0
0
0
0
0
0
0
0
0
0
0
0
0
0
0
0
0
0
0
0
0
0
0
0
0
0
0
0
0
0
0
0
0
0
0
0
0
0
0
0
0
0
0
0
0
0
0
0
0
0
0
0
0
0
0
0
0
0
0
0
0
0
0
0
0
0
0
0
0
0
0
0
0
0
0
0
0
0
0
0
0
0
0
0
0
0
0
0
0
0
0
0
0
0
0
0
0
0
0
0
0
0
0
0
0
0
0
0
0
0
0
0
0
0
0
0
0
0
0
0
0
0
0
0
0
0
0
0
0
0
0
0
0
0
0
0
0
0
0
0
0
0
0
0
0
0
0
0
0
0
0
0
0
0
0
0
0
0
0
0
0
0
0
0
0
0
0
0
0
0
0
0
0
0
0
0
0
0
0
0
0
0
0
0
0
0
0
0
0
0
0
0
0
0
0
0
0
0
0
0
0
0
0
0
0
0
0
0
0
0
0
0
0
0
0
0
0
0
0
0
0
0
0
0
0
0
0
0
0
0
0
0
0
0
0
0
0
0
0
0
0
0
0
0
0
0
0
0
0
0
0
0
0
0
0
0
0
0
0
0
0
0
0
0
0
0
0
0
0
0
0
0
0
0
0
0
0
0
0
0
0
0
0
0
0
0
0
0
0
0
0
0
0
0
0
0
0
0
0
0
0
0
0
0
0
0
0
0
0
0
0
0
0
0
0
0
0
0
0
0
0
0
0
0
0
0
0
0
0
0
0
0
0
0
0
0
0
0
0
0
0
0
0
0
0
0
0
0
0
0
0
0
0
0
0
0
0
0
0
0
0
0
0
0
0
0
0
0
0
0
0
0
0
0
0
0
0
0
0
0
0
0
0
0
0
0
0
0
0
0
0
0
0
0
0
0
0
0
0
0
0
0
0
0
0
0
0
0
0
0
0
0
0
0
0
0
0
0
0
0
0
0
0
0
0
0
0
0
0
0
0
0
0
0
0
0
0
0
0
0
0
0
0
0
0
0
0
0
0
0
0
0
0
0
0
0
0
0
0
0
0
0
0
0
0
0
0
0
0
0
0
0
0
0
0
0
0
0
0
0
0
0
0
0
0
0
0
0
0
0
0
0
0
0
0
0
0
0
0
0
0
0
0
0
0
0
0
0
0
0
0
0
0
0
0
0
0
0
0
0
0
0
0
0
0
0
0
0
0
0
0
0
0
0
0
0
0
0
0
0
0
0
0
0
0
0
0
0
0
0
0
0
0
0
0
0
0
0
0
0
0
0
0
0
0
0
0
0
0
0
0
0
0
0
0
0
0
0
0
0
0
0
0
0
0
0
0
0
0
0
0
0
0
0
0
0
0
0
0
0
0
0
0
0
0
0
0
0
0
0
0
0
0
0
0
0
0
0
0
0
0
0
0
0
0
0
0
0
0
0
0
0
0
0
0
0
0
0
0
0
0
0
0
0
0
0
0
0
0
0
0
0
0
0
0
0
0
0
0
0
0
0
0
0
0
0
0
0
0
0
0
0
0
0
0
0
0
0
0
0
0
0
0
0
0
0
0
0
0
0
0
0
0
0
0
0
0
0
0
0
0
0
0
0
0
0
0
0
0
0
0
0
0
0
0
0
0
0
0
0
0
0
0
0
0
0
0
0
0
0
0
0
0
0
0
0
0
0
0
0
0
1
1
1
1
1
1
1
1
1
1
1
1
1
1
1
1
1
1
1
1
1
1
1
1
1
1
1
1
1
1
2
2
2
2
2
2
2
2
2
2
2
2
2
2
2
2
2
2
2
2
2
2
2
2
2
2
2
2
2
2
3
3
3
3
3
3
3
3
3
3
3
3
3
3
3
3
3
3
3
3
3
3
3
3
3
3
3
3
3
3
4
4
4
4
4
4
4
4
4
4
4
4
4
4
4
4
4
4
4
4
4
4
4
4
4
4
4
4
4
4

LOOKUP_TABLE FreeFempp_table 5
1.00000000 0.00000000 0.00000000 1.00000000
1.00000000 1.00000000 0.00000000 1.00000000
1.00000000 0.00000000 1.00000000 1.00000000
0.00000000 1.00000000 0.00000000 1.00000000
0.00000000 1.00000000 1.00000000 1.00000000

POINT_DATA 961
FIELD FieldData 1
Density 1 961 float
3.23063345e-04 3.03666311e-04 2.93108315e-04 2.90940545e-04 2.91670876e-04 2.99401610e-04 3.11340147e-04 3.13418219e-04 3.15933867e-04 3.19284765e-04 3.23327520e-04 3.26708687e-04 3.26020905e-04 3.30674258e-04 5.49718784e-03 9.99118447e-01 9.99313295e-01 9.97837663e-01 9.98002052e-01 9.99333978e-01 9.99288380e-01 9.99288261e-01 9.99288201e-01 9.99288142e-01 9.99306262e-01 9.99331594e-01 9.99324739e-01 9.99282777e-01 9.99217868e-01 9.99148786e-01 9.99109685e-01 2.87334668e-04 2.33624000e-04 2.39644738e-04 2.41533140e-04 2.42417416e-04 2.43292452e-04 2.44488620e-04 2.46520212e-04 2.49376753e-04 2.53059989e-04 2.57694366e-04 2.62692687e-04 2.66727497e-04 2.82275869e-04 4.75024630e-04 9.93537307e-01 9.99037504e-01 1.20494952e-02 1.33383041e-03 8.66732895e-01 9.95139241e-01 9.97124493e-01 9.97983098e-01 9.98401225e-01 9.98653591e-01 9.98895109e-01 9.98995245e-01 9.98919845e-01 9.98764932e-01 9.98710632e-01 9.98835266e-01 2.81287881e-04 2.23830662e-04 2.28690013e-04 2.29684607e-04 2.30446516e-04 2.30340331e-04 2.29714526e-04 2.29540383e-04 2.30073594e-04 2.30928184e-04 2.31447077e-04 2.30496764e-04 2.25769167e-04 2.19581940e-04 2.68103293e-04 2.35463027e-03 9.89492059e-01 4.76612739e-04 4.21118457e-04 3.89550114e-04 3.73765244e-04 3.65043088e-04 3.56360659e-04 3.35765741e-04 3.85479245e-04 1.31381571e-03 4.31832373e-02 4.90070671e-01 7.86145449e-01 9.24327195e-01 9.83840406e-01 2.77506653e-04 2.21989103e-04 2.28578152e-04 2.29309968e-04 2.29031328e-04 2.27327168e-04 2.24703646e-04 2.22005750e-04 2.19313806e-04 2.15738371e-04 2.10041908e-04 2.00196780e-04 1.83928511e-04 1.64617450e-04 1.60258598e-04 2.39766261e-04 8.55523348e-03 2.24165134e-02 6.05046691e-04 4.18150303e-04 3.75487347e-04 3.57581303e-04 3.38666869e-04 3.20284307e-04 3.12528573e-04 3.06299626e-04 3.19592538e-04 3.22411885e-04 4.54029971e-04 1.09326583e-03 7.13633792e-03 2.72355916e-04 2.21307928e-04 2.31447746e-04 2.33082348e-04 2.32285107e-04 2.28871490e-04 2.23881521e-04 2.18841014e-04 2.14043539e-04 2.08181664e-04 2.00269104e-04 1.88865306e-04 1.71450767e-04 1.46081555e-04 1.26551822e-04 1.38126401e-04 1.99888862e-04 5.49814198e-04 6.91667259e-01 5.55374369e-04 3.77347838e-04 3.59570840e-04 3.30994779e-04 3.02670494e-04 2.96181766e-04 2.71383586e-04 2.70944438e-04 2.83898466e-04 2.92021170e-04 2.95729958e-04 3.36403871e-04 2.66671152e-04 2.23634765e-04 2.38157270e-04 2.41392729e-04 2.41984657e-04 2.39234141e-04 2.33682047e-04 2.27534227e-04 2.22197399e-04 2.17094785e-04 2.11051389e-04 2.02830561e-04 1.90540130e-04 1.71177177e-04 1.39488882e-04 1.24604660e-04 1.37188923e-04 1.34413494e-04 2.66804243e-04 9.77930963e-01 7.48389542e-01 9.75515344e-04 3.51520750e-04 3.28541966e-04 2.99486826e-04 2.62962887e-04 2.67754047e-04 2.77204119e-04 2.77013809e-04 2.68504140e-04 3.13423458e-04 2.87240080e-04 2.41933230e-04 2.53808859e-04 2.56082829e-04 2.60874396e-04 2.67418771e-04 2.73226819e-04 2.76758394e-04 2.67142837e-04 2.61423498e-04 2.59067543e-04 2.54804705e-04 2.46925600e-04 2.37760760e-04 2.24504780e-04 1.67451537e-04 1.32340152e-04 1.22952610e-04 1.18983626e-04 1.73876702e-04 9.77485180e-01 9.98182237e-01 9.98687029e-01 9.90848660e-01 5.27601223e-04 3.04854068e-04 2.73292535e-04 2.80810869e-04 2.83215311e-04 2.78848252e-04 3.23086366e-04 1.10594765e-03 3.53801996e-04 3.05205729e-04 3.01508349e-04 2.98364874e-04 3.13478668e-04 3.67834291e-04 4.62500349e-04 5.91793272e-04 7.41443713e-04 8.58152169e-04 8.81119922e-04 8.69499519e-04 7.98903231e-04 5.92113356e-04 4.47847677e-04 2.64917238e-04 1.89303508e-04 1.20833261e-04 1.24603263e-04 1.24878701e-04 4.14887036e-04 5.33352792e-01 9.89788651e-01 9.83152211e-01 3.45785469e-02 3.24996246e-04 2.89424992e-04 2.96816725e-04 2.96489161e-04 3.36708967e-04 9.57614779e-01 4.98476595e-01 7.93258101e-02 4.61642779e-02 4.47405092e-02 6.13897294e-02 9.05738845e-02 1.21483125e-01 1.45786196e-01 1.55418307e-01 1.41051561e-01 1.06662899e-01 7.25012347e-02 4.70251888e-02 2.91632880e-02 1.99685544e-02 1.05664926e-02 2.41770339e-03 4.01971891e-04 1.28501153e-04 1.20437566e-04 1.19884149e-04 2.01307965e-04 3.17973725e-04 3.78431083e-04 9.42414463e-01 9.88746464e-01 3.34541488e-04 3.17245576e-04 3.20702122e-04 3.51670547e-04 9.99294281e-01 9.99216437e-01 9.99090731e-01 9.98967171e-01 9.98766899e-01 9.98447657e-01 9.97957706e-01 9.97240484e-01 9.96199667e-01 9.94576812e-01 9.91746545e-01 9.86372292e-01 9.76005733e-01 9.56740260e-01 9.24497724e-01 8.81766677e-01 8.26359391e-01 7.18801618e-01 3.50587159e-01 4.92642913e-03 2.33786690e-04 1.39228330e-04 1.44588004e-04 2.05341785e-04 3.19750165e-04 3.62567022e-04 9.88660991e-01 4.40598174e-04 3.46428831e-04 3.45314562e-04 3.67253931e-04 9.99289393e-01 9.99279320e-01 9.99278843e-01 9.99278486e-01 9.99295771e-01 9.99320030e-01 9.99316692e-01 9.99273837e-01 9.99181151e-01 9.99018133e-01 9.98744488e-01 9.98292029e-01 9.97560978e-01 9.96425807e-01 9.94801998e-01 9.92830038e-01 9.90977943e-01 9.90017414e-01 9.90171432e-01 9.86119092e-01 6.12131059e-01 4.79820039e-04 2.42846771e-04 2.39948131e-04 3.04700865e-04 3.53773241e-04 3.88408225e-04 8.16950738e-01 3.53737181e-04 2.54915649e-04 3.61635175e-04 9.99244511e-01 9.99290347e-01 9.99319375e-01 9.99324977e-01 9.99324381e-01 9.99323428e-01 9.99321938e-01 9.99310911e-01 9.99277949e-01 9.99208450e-01 9.99082208e-01 9.98870313e-01 9.98534441e-01 9.98029113e-01 9.97316837e-01 9.96412873e-01 9.95473921e-01 9.94944870e-01 9.95409548e-01 9.96684849e-01 9.97592151e-01 9.93853509e-01 1.17593199e-01 3.24987253e-04 3.44377069e-04 3.60146369e-04 3.70704569e-04 5.02840965e-04 9.33584094e-01 2.02046285e-04 2.41827816e-04 4.54039246e-01 4.99644130e-01 8.20100009e-01 9.69172060e-01 9.94134665e-01 9.97931182e-01 9.98771250e-01 9.99000072e-01 9.99043345e-01 9.98994648e-01 9.98862505e-01 9.98623490e-01 9.98234391e-01 9.97633278e-01 9.96740818e-01 9.95476484e-01 9.93840277e-01 9.92204249e-01 9.91682887e-01 9.93394554e-01 9.96356308e-01 9.98374522e-01 9.98907864e-01 9.91928101e-01 4.78362635e-04 3.72013892e-04 3.74280615e-04 3.52797535e-04 9.81183529e-01 2.28581310e-04 2.27906930e-04 3.83996987e-04 3.57987650e-04 3.59553465e-04 4.19364893e-04 1.02608278e-03 1.81644913e-02 7.27888286e-01 9.85464990e-01 9.95823085e-01 9.97279823e-01 9.97459710e-01 9.97122765e-01 9.96320188e-01 9.94901597e-01 9.92585301e-01 9.88978386e-01 9.83667850e-01 9.76598144e-01 9.68928158e-01 9.64278400e-01 9.69081879e-01 9.85118389e-01 9.96590257e-01 9.98913169e-01 9.95406926e-01 1.26524060e-03 3.81046062e-04 5.03624964e-04 9.95149791e-01 2.25986776e-04 2.24671676e-04 3.80097656e-04 3.74969008e-04 3.75126023e-04 3.75337200e-04 3.75753239e-04 3.57783952e-04 8.86751164e-04 3.65419462e-02 7.97266662e-01 9.73765850e-01 9.87515688e-01 9.88859534e-01 9.86249685e-01 9.79469180e-01 9.66002047e-01 9.42236900e-01 9.06168282e-01 8.60680521e-01 8.09950590e-01 7.46238589e-01 6.39561653e-01 4.76592064e-01 4.19766515e-01 7.70839334e-01 9.74683166e-01 9.41434562e-01 3.78762782e-01 9.95183170e-01 9.98872340e-01 2.30999256e-04 2.22116025e-04 3.80090118e-04 3.74950672e-04 3.75001080e-04 3.75054689e-04 3.75007716e-04 3.75183386e-04 3.60201171e-04 9.02186381e-04 2.94185039e-02 5.80019653e-01 8.98319304e-01 9.37759459e-01 9.28262651e-01 8.81413400e-01 7.72085071e-01 5.90233386e-01 4.01263535e-01 2.77193815e-01 2.17962340e-01 1.91450700e-01 1.57673016e-01 8.89706910e-02 2.94686127e-02 1.23509951e-02 3.04712821e-02 7.98827827e-01 9.98213947e-01 9.99284923e-01 9.99249876e-01 2.43637551e-04 2.32091727e-04 3.79961159e-04 3.74758587e-04 3.74747236e-04 3.74767260e-04 3.74782045e-04 3.74910451e-04 3.75269534e-04 4.33307199e-04 3.67861195e-03 1.10465154e-01 5.80657363e-01 7.69000709e-01 7.52731681e-01 6.03060603e-01 3.46028775e-01 1.42825559e-01 5.76133467e-02 2.99239997e-02 2.21513584e-02 2.33014915e-02 3.21332812e-02 4.66836356e-02 5.22619039e-02 5.29452600e-02 2.11458549e-01 9.81979370e-01 9.99302864e-01 9.99286294e-01 9.99092281e-01 2.59469525e-04 2.48431112e-04 3.79626465e-04 3.74249707e-04 3.74249415e-04 3.74298397e-04 3.74394527e-04 3.74542957e-04 3.75184813e-04 3.98437260e-04 2.20634183e-03 4.56379503e-02 3.52928668e-01 6.04327202e-01 6.00034952e-01 4.17860389e-01 1.78779826e-01 5.46280518e-02 1.82714872e-02 8.71625543e-03 6.34711981e-03 7.18165375e-03 1.34570515e-02 4.52111363e-02 2.32182071e-01 7.76757181e-01 9.86647666e-01 9.98921275e-01 9.99281585e-01 9.99286950e-01 9.91674960e-01 2.78631691e-04 2.66955467e-04 3.78971716e-04 3.73243849e-04 3.73342045e-04 3.73523013e-04 3.73756106e-04 3.74124938e-04 3.75466014e-04 4.49917396e-04 2.70090136e-03 4.35123630e-02 3.06780428e-01 5.67669570e-01 5.94552279e-01 4.39279854e-01 1.98093623e-01 5.89934923e-02 1.82693973e-02 8.19741376e-03 5.87038836e-03 7.03343889e-03 1.68612804e-02 1.12040967e-01 7.69842863e-01 9.89693522e-01 9.98777628e-01 9.99307215e-01 9.99282062e-01 9.99204397e-01 1.10379502e-03 3.09144787e-04 2.87695060e-04 3.77764023e-04 3.71406146e-04 3.71741917e-04 3.72283655e-04 3.72782524e-04 3.74033989e-04 3.59595870e-04 6.70169364e-04 4.92670713e-03 5.98059073e-02 3.29367250e-01 6.05315328e-01 6.81321263e-01 6.05232894e-01 3.90657306e-01 1.62491009e-01 5.65563813e-02 2.53371708e-02 1.83349457e-02 2.46584788e-02 8.14281181e-02 5.72734594e-01 9.80444133e-01 9.98393893e-01 9.99323606e-01 9.99280632e-01 9.99307454e-01 9.68692064e-01 3.73246701e-04 3.56368517e-04 3.35794903e-04 3.75476666e-04 3.68048204e-04 3.68949812e-04 3.70156049e-04 3.71844566e-04 3.74936033e-04 4.10489796e-04 1.38976239e-03 1.00921728e-02 8.04669410e-02 3.47181261e-01 6.45265520e-01 7.75808454e-01 7.95530379e-01 7.35920727e-01 5.90360284e-01 4.03739929e-01 2.79440194e-01 2.60544270e-01 3.98985773e-01 7.75012255e-01 9.76979554e-01 9.97729599e-01 9.99288321e-01 9.99279439e-01 9.99280035e-01 9.96626496e-01 4.49523068e-04 3.72076931e-04 3.67482688e-04 3.71438276e-04 3.70857364e-04 3.61443119e-04 3.63940751e-04 3.66960303e-04 3.71895876e-04 3.60094913e-04 7.47245678e-04 3.25366179e-03 1.65951140e-02 8.37344974e-02 3.15575749e-01 6.45097792e-01 8.32851768e-01 9.03316140e-01 9.26505148e-01 9.30659115e-01 9.28465843e-01 9.32788610e-01 9.54055607e-01 9.81310964e-01 9.94848430e-01 9.98492181e-01 9.99269903e-01 9.99295413e-01 9.99322653e-01 9.97029662e-01 1.02727104e-03 3.75828793e-04 3.73845542e-04 3.71205533e-04 3.77490651e-04 3.61312384e-04 3.47935886e-04 3.53201875e-04 3.62634542e-04 3.74064897e-04 5.16171625e-04 1.78531767e-03 5.83568960e-03 1.77172627e-02 6.20983690e-02 2.28828788e-01 5.80846250e-01 8.46657455e-01 9.43520725e-01 9.74403262e-01 9.85754728e-01 9.91021752e-01 9.94363487e-01 9.96913493e-01 9.98528957e-01 9.99194145e-01 9.99322236e-01 9.99314904e-01 9.98909056e-01 9.38598156e-01 5.99782798e-04 3.75701784e-04 3.74608906e-04 3.74273135e-04 3.74225463e-04 3.79305566e-04 3.41775245e-04 3.22229578e-04 3.32176511e-04 3.55832104e-04 3.78148863e-04 1.18551601e-03 3.38661205e-03 6.19188417e-03 1.21765099e-02 3.31685543e-02 1.23054691e-01 4.29524034e-01 8.07221055e-01 9.50438917e-01 9.84828174e-01 9.93989348e-01 9.97111022e-01 9.98456180e-01 9.99090075e-01 9.99314725e-01 9.99278903e-01 9.99274135e-01 9.99178231e-01 1.57800820e-02 3.63104016e-04 3.76062992e-04 3.74451571e-04 3.73494520e-04 3.74189374e-04 3.74695461e-04 3.79912613e-04 3.04932764e-04 2.74311547e-04 3.02016590e-04 3.46961868e-04 6.79015997e-04 2.51046428e-03 3.54298647e-03 4.05908981e-03 6.14536181e-03 1.38234701e-02 4.76836190e-02 2.15507612e-01 6.58302844e-01 9.27295089e-01 9.84290183e-01 9.95392323e-01 9.98197496e-01 9.99070585e-01 9.99314547e-01 9.99278784e-01 9.99278784e-01 9.99273360e-01 9.98989224e-01 4.91503044e-04 3.75731761e-04 3.75683914e-04 3.75296921e-04 3.75111762e-04 3.75818578e-04 3.76192795e-04 3.72668932e-04 2.51491932e-04 2.04230208e-04 2.62755260e-04 3.30693263e-04 1.57857791e-03 2.89321411e-03 2.19754293e-03 2.08613044e-03 2.76578614e-03 5.16746473e-03 1.44761996e-02 6.32378310e-02 3.28344762e-01 8.13220859e-01 9.70464766e-01 9.94023025e-01 9.98190105e-01 9.99146342e-01 9.99323189e-01 9.99278843e-01 9.99278784e-01 9.99275684e-01 9.99303937e-01 4.71235104e-02 3.58131685e-04 3.76617740e-04 3.60709790e-04 4.92641295e-04 1.35603458e-01 9.87423420e-01 9.94395733e-01 1.98393216e-04 1.52995664e-04 2.19500595e-04 4.96229855e-04 2.48396141e-03 1.79179106e-03 1.13575195e-03 1.07709959e-03 1.31715881e-03 2.02114042e-03 4.17008298e-03 1.30172614e-02 6.76674768e-02 4.08502191e-01 8.89536083e-01 9.85748172e-01 9.97060478e-01 9.98939216e-01 9.99306083e-01 9.99278307e-01 9.99278426e-01 9.99277472e-01 9.99271572e-01 9.99259353e-01 9.96565640e-01 9.97131228e-01 9.98970926e-01 9.99262929e-01 9.99322593e-01 9.99285460e-01 9.99291241e-01 1.58915718e-04 1.36542454e-04 1.92435138e-04 8.97627964e-04 1.98432920e-03 9.26478009e-04 6.62384497e-04 6.53424417e-04 7.36588903e-04 9.28891124e-04 1.39199744e-03 2.77957343e-03 8.84283520e-03 5.48522584e-02 4.40666854e-01 9.26581681e-01 9.91208315e-01 9.97893512e-01 9.99065936e-01 9.99309421e-01 9.99294698e-01 9.99277771e-01 9.99277174e-01 9.99274969e-01 9.99273360e-01 9.99275506e-01 9.99278307e-01 9.99279797e-01 9.99280393e-01 9.99280274e-01 9.99289691e-01 1.28990971e-04 1.30449800e-04 1.92669730e-04 1.11939921e-03 1.16723205e-03 6.00209285e-04 4.94276930e-04 4.91049199e-04 5.12887433e-04 5.55314706e-04 6.47401437e-04 8.85489048e-04 1.64417282e-03 5.35569433e-03 4.42243926e-02 5.20150185e-01 9.58401620e-01 9.94262993e-01 9.98174191e-01 9.99010205e-01 9.99249220e-01 9.99313593e-01 9.99321818e-01 9.99321401e-01 9.99320388e-01 9.99317110e-01 9.99311149e-01 9.99292374e-01 9.99268830e-01 9.99277592e-01 9.99313056e-01 1.24430313e-04 1.22441052e-04 1.93955406e-04 2.61158147e-03 1.36543787e-03 6.52434130e-04 5.44805953e-04 5.31053403e-04 5.31534664e-04 5.41295565e-04 5.75601356e-04 6.76339376e-04 9.84291430e-04 2.22030305e-03 1.19339954e-02 2.05328569e-01 9.06393409e-01 9.91419196e-01 9.97572124e-01 9.98646855e-01 9.98908579e-01 9.98902261e-01 9.98681366e-01 9.98136342e-01 9.97083902e-01 9.95486557e-01 9.93395090e-01 9.90789711e-01 9.88959193e-01 9.92372930e-01 9.96429801e-01 2.06405093e-04 1.46574821e-04 2.90011638e-04 6.76222220e-02 1.02963541e-02 1.95708335e-03 1.38922210e-03 1.27322995e-03 1.22204295e-03 1.21020491e-03 1.28652528e-03 1.57358462e-03 2.50543887e-03 6.63024932e-03 4.32356447e-02 4.92199421e-01 9.58823979e-01 9.94557202e-01 9.98092234e-01 9.98784244e-01 9.98896718e-01 9.98678744e-01 9.97802317e-01 9.94971395e-01 9.87660885e-01 9.76879537e-01 9.67934489e-01 9.59586620e-01 9.51372623e-01 9.62231696e-01 9.82203126e-01 
