# vtk DataFile Version 2.0
results/6_density.vtk, Created by Freefem++ 
ASCII
DATASET UNSTRUCTURED_GRID
POINTS 961 float
0 0 0
0.033333333 0 0
0.066666667 0 0
0.1 0 0
0.13333333 0 0
0.16666667 0 0
0.2 0 0
0.23333333 0 0
0.26666667 0 0
0.3 0 0
0.33333333 0 0
0.36666667 0 0
0.4 0 0
0.43333333 0 0
0.46666667 0 0
0.5 0 0
0.53333333 0 0
0.56666667 0 0
0.6 0 0
0.63333333 0 0
0.66666667 0 0
0.7 0 0
0.73333333 0 0
0.76666667 0 0
0.8 0 0
0.83333333 0 0
0.86666667 0 0
0.9 0 0
0.93333333 0 0
0.96666667 0 0
1 0 0
0 0.033333333 0
0.033333333 0.033333333 0
0.066666667 0.033333333 0
0.1 0.033333333 0
0.13333333 0.033333333 0
0.16666667 0.033333333 0
0.2 0.033333333 0
0.23333333 0.033333333 0
0.26666667 0.033333333 0
0.3 0.033333333 0
0.33333333 0.033333333 0
0.36666667 0.033333333 0
0.4 0.033333333 0
0.43333333 0.033333333 0
0.46666667 0.033333333 0
0.5 0.033333333 0
0.53333333 0.033333333 0
0.56666667 0.033333333 0
0.6 0.033333333 0
0.63333333 0.033333333 0
0.66666667 0.033333333 0
0.7 0.033333333 0
0.73333333 0.033333333 0
0.76666667 0.033333333 0
0.8 0.033333333 0
0.83333333 0.033333333 0
0.86666667 0.033333333 0
0.9 0.033333333 0
0.93333333 0.033333333 0
0.96666667 0.033333333 0
1 0.033333333 0
0 0.066666667 0
0.033333333 0.066666667 0
0.066666667 0.066666667 0
0.1 0.066666667 0
0.13333333 0.066666667 0
0.16666667 0.066666667 0
0.2 0.066666667 0
0.23333333 0.066666667 0
0.26666667 0.066666667 0
0.3 0.066666667 0
0.33333333 0.066666667 0
0.36666667 0.066666667 0
0.4 0.066666667 0
0.43333333 0.066666667 0
0.46666667 0.066666667 0
0.5 0.066666667 0
0.53333333 0.066666667 0
0.56666667 0.066666667 0
0.6 0.066666667 0
0.63333333 0.066666667 0
0.66666667 0.066666667 0
0.7 0.066666667 0
0.73333333 0.066666667 0
0.76666667 0.066666667 0
0.8 0.066666667 0
0.83333333 0.066666667 0
0.86666667 0.066666667 0
0.9 0.066666667 0
0.93333333 0.066666667 0
0.96666667 0.066666667 0
1 0.066666667 0
0 0.1 0
0.033333333 0.1 0
0.066666667 0.1 0
0.1 0.1 0
0.13333333 0.1 0
0.16666667 0.1 0
0.2 0.1 0
0.23333333 0.1 0
0.26666667 0.1 0
0.3 0.1 0
0.33333333 0.1 0
0.36666667 0.1 0
0.4 0.1 0
0.43333333 0.1 0
0.46666667 0.1 0
0.5 0.1 0
0.53333333 0.1 0
0.56666667 0.1 0
0.6 0.1 0
0.63333333 0.1 0
0.66666667 0.1 0
0.7 0.1 0
0.73333333 0.1 0
0.76666667 0.1 0
0.8 0.1 0
0.83333333 0.1 0
0.86666667 0.1 0
0.9 0.1 0
0.93333333 0.1 0
0.96666667 0.1 0
1 0.1 0
0 0.13333333 0
0.033333333 0.13333333 0
0.066666667 0.13333333 0
0.1 0.13333333 0
0.13333333 0.13333333 0
0.16666667 0.13333333 0
0.2 0.13333333 0
0.23333333 0.13333333 0
0.26666667 0.13333333 0
0.3 0.13333333 0
0.33333333 0.13333333 0
0.36666667 0.13333333 0
0.4 0.13333333 0
0.43333333 0.13333333 0
0.46666667 0.13333333 0
0.5 0.13333333 0
0.53333333 0.13333333 0
0.56666667 0.13333333 0
0.6 0.13333333 0
0.63333333 0.13333333 0
0.66666667 0.13333333 0
0.7 0.13333333 0
0.73333333 0.13333333 0
0.76666667 0.13333333 0
0.8 0.13333333 0
0.83333333 0.13333333 0
0.86666667 0.13333333 0
0.9 0.13333333 0
0.93333333 0.13333333 0
0.96666667 0.13333333 0
1 0.13333333 0
0 0.16666667 0
0.033333333 0.16666667 0
0.066666667 0.16666667 0
0.1 0.16666667 0
0.13333333 0.16666667 0
0.16666667 0.16666667 0
0.2 0.16666667 0
0.23333333 0.16666667 0
0.26666667 0.16666667 0
0.3 0.16666667 0
0.33333333 0.16666667 0
0.36666667 0.16666667 0
0.4 0.16666667 0
0.43333333 0.16666667 0
0.46666667 0.16666667 0
0.5 0.16666667 0
0.53333333 0.16666667 0
0.56666667 0.16666667 0
0.6 0.16666667 0
0.63333333 0.16666667 0
0.66666667 0.16666667 0
0.7 0.16666667 0
0.73333333 0.16666667 0
0.76666667 0.16666667 0
0.8 0.16666667 0
0.83333333 0.16666667 0
0.86666667 0.16666667 0
0.9 0.16666667 0
0.93333333 0.16666667 0
0.96666667 0.16666667 0
1 0.16666667 0
0 0.2 0
0.033333333 0.2 0
0.066666667 0.2 0
0.1 0.2 0
0.13333333 0.2 0
0.16666667 0.2 0
0.2 0.2 0
0.23333333 0.2 0
0.26666667 0.2 0
0.3 0.2 0
0.33333333 0.2 0
0.36666667 0.2 0
0.4 0.2 0
0.43333333 0.2 0
0.46666667 0.2 0
0.5 0.2 0
0.53333333 0.2 0
0.56666667 0.2 0
0.6 0.2 0
0.63333333 0.2 0
0.66666667 0.2 0
0.7 0.2 0
0.73333333 0.2 0
0.76666667 0.2 0
0.8 0.2 0
0.83333333 0.2 0
0.86666667 0.2 0
0.9 0.2 0
0.93333333 0.2 0
0.96666667 0.2 0
1 0.2 0
0 0.23333333 0
0.033333333 0.23333333 0
0.066666667 0.23333333 0
0.1 0.23333333 0
0.13333333 0.23333333 0
0.16666667 0.23333333 0
0.2 0.23333333 0
0.23333333 0.23333333 0
0.26666667 0.23333333 0
0.3 0.23333333 0
0.33333333 0.23333333 0
0.36666667 0.23333333 0
0.4 0.23333333 0
0.43333333 0.23333333 0
0.46666667 0.23333333 0
0.5 0.23333333 0
0.53333333 0.23333333 0
0.56666667 0.23333333 0
0.6 0.23333333 0
0.63333333 0.23333333 0
0.66666667 0.23333333 0
0.7 0.23333333 0
0.73333333 0.23333333 0
0.76666667 0.23333333 0
0.8 0.23333333 0
0.83333333 0.23333333 0
0.86666667 0.23333333 0
0.9 0.23333333 0
0.93333333 0.23333333 0
0.96666667 0.23333333 0
1 0.23333333 0
0 0.26666667 0
0.033333333 0.26666667 0
0.066666667 0.26666667 0
0.1 0.26666667 0
0.13333333 0.26666667 0
0.16666667 0.26666667 0
0.2 0.26666667 0
0.23333333 0.26666667 0
0.26666667 0.26666667 0
0.3 0.26666667 0
0.33333333 0.26666667 0
0.36666667 0.26666667 0
0.4 0.26666667 0
0.43333333 0.26666667 0
0.46666667 0.26666667 0
0.5 0.26666667 0
0.53333333 0.26666667 0
0.56666667 0.26666667 0
0.6 0.26666667 0
0.63333333 0.26666667 0
0.66666667 0.26666667 0
0.7 0.26666667 0
0.73333333 0.26666667 0
0.76666667 0.26666667 0
0.8 0.26666667 0
0.83333333 0.26666667 0
0.86666667 0.26666667 0
0.9 0.26666667 0
0.93333333 0.26666667 0
0.96666667 0.26666667 0
1 0.26666667 0
0 0.3 0
0.033333333 0.3 0
0.066666667 0.3 0
0.1 0.3 0
0.13333333 0.3 0
0.16666667 0.3 0
0.2 0.3 0
0.23333333 0.3 0
0.26666667 0.3 0
0.3 0.3 0
0.33333333 0.3 0
0.36666667 0.3 0
0.4 0.3 0
0.43333333 0.3 0
0.46666667 0.3 0
0.5 0.3 0
0.53333333 0.3 0
0.56666667 0.3 0
0.6 0.3 0
0.63333333 0.3 0
0.66666667 0.3 0
0.7 0.3 0
0.73333333 0.3 0
0.76666667 0.3 0
0.8 0.3 0
0.83333333 0.3 0
0.86666667 0.3 0
0.9 0.3 0
0.93333333 0.3 0
0.96666667 0.3 0
1 0.3 0
0 0.33333333 0
0.033333333 0.33333333 0
0.066666667 0.33333333 0
0.1 0.33333333 0
0.13333333 0.33333333 0
0.16666667 0.33333333 0
0.2 0.33333333 0
0.23333333 0.33333333 0
0.26666667 0.33333333 0
0.3 0.33333333 0
0.33333333 0.33333333 0
0.36666667 0.33333333 0
0.4 0.33333333 0
0.43333333 0.33333333 0
0.46666667 0.33333333 0
0.5 0.33333333 0
0.53333333 0.33333333 0
0.56666667 0.33333333 0
0.6 0.33333333 0
0.63333333 0.33333333 0
0.66666667 0.33333333 0
0.7 0.33333333 0
0.73333333 0.33333333 0
0.76666667 0.33333333 0
0.8 0.33333333 0
0.83333333 0.33333333 0
0.86666667 0.33333333 0
0.9 0.33333333 0
0.93333333 0.33333333 0
0.96666667 0.33333333 0
1 0.33333333 0
0 0.36666667 0
0.033333333 0.36666667 0
0.066666667 0.36666667 0
0.1 0.36666667 0
0.13333333 0.36666667 0
0.16666667 0.36666667 0
0.2 0.36666667 0
0.23333333 0.36666667 0
0.26666667 0.36666667 0
0.3 0.36666667 0
0.33333333 0.36666667 0
0.36666667 0.36666667 0
0.4 0.36666667 0
0.43333333 0.36666667 0
0.46666667 0.36666667 0
0.5 0.36666667 0
0.53333333 0.36666667 0
0.56666667 0.36666667 0
0.6 0.36666667 0
0.63333333 0.36666667 0
0.66666667 0.36666667 0
0.7 0.36666667 0
0.73333333 0.36666667 0
0.76666667 0.36666667 0
0.8 0.36666667 0
0.83333333 0.36666667 0
0.86666667 0.36666667 0
0.9 0.36666667 0
0.93333333 0.36666667 0
0.96666667 0.36666667 0
1 0.36666667 0
0 0.4 0
0.033333333 0.4 0
0.066666667 0.4 0
0.1 0.4 0
0.13333333 0.4 0
0.16666667 0.4 0
0.2 0.4 0
0.23333333 0.4 0
0.26666667 0.4 0
0.3 0.4 0
0.33333333 0.4 0
0.36666667 0.4 0
0.4 0.4 0
0.43333333 0.4 0
0.46666667 0.4 0
0.5 0.4 0
0.53333333 0.4 0
0.56666667 0.4 0
0.6 0.4 0
0.63333333 0.4 0
0.66666667 0.4 0
0.7 0.4 0
0.73333333 0.4 0
0.76666667 0.4 0
0.8 0.4 0
0.83333333 0.4 0
0.86666667 0.4 0
0.9 0.4 0
0.93333333 0.4 0
0.96666667 0.4 0
1 0.4 0
0 0.43333333 0
0.033333333 0.43333333 0
0.066666667 0.43333333 0
0.1 0.43333333 0
0.13333333 0.43333333 0
0.16666667 0.43333333 0
0.2 0.43333333 0
0.23333333 0.43333333 0
0.26666667 0.43333333 0
0.3 0.43333333 0
0.33333333 0.43333333 0
0.36666667 0.43333333 0
0.4 0.43333333 0
0.43333333 0.43333333 0
0.46666667 0.43333333 0
0.5 0.43333333 0
0.53333333 0.43333333 0
0.56666667 0.43333333 0
0.6 0.43333333 0
0.63333333 0.43333333 0
0.66666667 0.43333333 0
0.7 0.43333333 0
0.73333333 0.43333333 0
0.76666667 0.43333333 0
0.8 0.43333333 0
0.83333333 0.43333333 0
0.86666667 0.43333333 0
0.9 0.43333333 0
0.93333333 0.43333333 0
0.96666667 0.43333333 0
1 0.43333333 0
0 0.46666667 0
0.033333333 0.46666667 0
0.066666667 0.46666667 0
0.1 0.46666667 0
0.13333333 0.46666667 0
0.16666667 0.46666667 0
0.2 0.46666667 0
0.23333333 0.46666667 0
0.26666667 0.46666667 0
0.3 0.46666667 0
0.33333333 0.46666667 0
0.36666667 0.46666667 0
0.4 0.46666667 0
0.43333333 0.46666667 0
0.46666667 0.46666667 0
0.5 0.46666667 0
0.53333333 0.46666667 0
0.56666667 0.46666667 0
0.6 0.46666667 0
0.63333333 0.46666667 0
0.66666667 0.46666667 0
0.7 0.46666667 0
0.73333333 0.46666667 0
0.76666667 0.46666667 0
0.8 0.46666667 0
0.83333333 0.46666667 0
0.86666667 0.46666667 0
0.9 0.46666667 0
0.93333333 0.46666667 0
0.96666667 0.46666667 0
1 0.46666667 0
0 0.5 0
0.033333333 0.5 0
0.066666667 0.5 0
0.1 0.5 0
0.13333333 0.5 0
0.16666667 0.5 0
0.2 0.5 0
0.23333333 0.5 0
0.26666667 0.5 0
0.3 0.5 0
0.33333333 0.5 0
0.36666667 0.5 0
0.4 0.5 0
0.43333333 0.5 0
0.46666667 0.5 0
0.5 0.5 0
0.53333333 0.5 0
0.56666667 0.5 0
0.6 0.5 0
0.63333333 0.5 0
0.66666667 0.5 0
0.7 0.5 0
0.73333333 0.5 0
0.76666667 0.5 0
0.8 0.5 0
0.83333333 0.5 0
0.86666667 0.5 0
0.9 0.5 0
0.93333333 0.5 0
0.96666667 0.5 0
1 0.5 0
0 0.53333333 0
0.033333333 0.53333333 0
0.066666667 0.53333333 0
0.1 0.53333333 0
0.13333333 0.53333333 0
0.16666667 0.53333333 0
0.2 0.53333333 0
0.23333333 0.53333333 0
0.26666667 0.53333333 0
0.3 0.53333333 0
0.33333333 0.53333333 0
0.36666667 0.53333333 0
0.4 0.53333333 0
0.43333333 0.53333333 0
0.46666667 0.53333333 0
0.5 0.53333333 0
0.53333333 0.53333333 0
0.56666667 0.53333333 0
0.6 0.53333333 0
0.63333333 0.53333333 0
0.66666667 0.53333333 0
0.7 0.53333333 0
0.73333333 0.53333333 0
0.76666667 0.53333333 0
0.8 0.53333333 0
[...]
CELL_DATA 1920
Scalars  Label int 1
LOOKUP_TABLE FreeFempp_table
0
0
0
0
0
0
0
0
0
0
0
0
0
0
0
0
0
0
0
0
0
0
0
0
0
0
0
0
0
0
0
0
0
0
0
0
0
0
0
0
0
0
0
0
0
0
0
0
0
0
0
0
0
0
0
0
0
0
0
0
0
0
0
0
0
0
0
0
0
0
0
0
0
0
0
0
0
0
0
0
0
0
0
0
0
0
0
0
0
0
0
0
0
0
0
0
0
0
0
0
0
0
0
0
0
0
0
0
0
0
0
0
0
0
0
0
0
0
0
0
0
0
0
0
0
0
0
0
0
0
0
0
0
0
0
0
0
0
0
0
0
0
0
0
0
0
0
0
0
0
0
0
0
0
0
0
0
0
0
0
0
0
0
0
0
0
0
0
0
0
0
0
0
0
0
0
0
0
0
0
0
0
0
0
0
0
0
0
0
0
0
0
0
0
0
0
0
0
0
0
0
0
0
0
0
0
0
0
0
0
0
0
0
0
0
0
0
0
0
0
0
0
0
0
0
0
0
0
0
0
0
0
0
0
0
0
0
0
0
0
0
0
0
0
0
0
0
0
0
0
0
0
0
0
0
0
0
0
0
0
0
0
0
0
0
0
0
0
0
0
0
0
0
0
0
0
0
0
0
0
0
0
0
0
0
0
0
0
0
0
0
0
0
0
0
0
0
0
0
0
0
0
0
0
0
0
0
0
0
0
0
0
0
0
0
0
0
0
0
0
0
0
0
0
0
0
0
0
0
0
0
0
0
0
0
0
0
0
0
0
0
0
0
0
0
0
0
0
0
0
0
0
0
0
0
0
0
0
0
0
0
0
0
0
0
0
0
0
0
0
0
0
0
0
0
0
0
0
0
0
0
0
0
0
0
0
0
0
0
0
0
0
0
0
0
0
0
0
0
0
0
0
0
0
0
0
0
0
0
0
0
0
0
0
0
0
0
0
0
0
0
0
0
0
0
0
0
0
0
0
0
0
0
0
0
0
0
0
0
0
0
0
0
0
0
0
0
0
0
0
0
0
0
0
0
0
0
0
0
0
0
0
0
0
0
0
0
0
0
0
0
0
0
0
0
0
0
0
0
0
0
0
0
0
0
0
0
0
0
0
0
0
0
0
0
0
0
0
0
0
0
0
0
0
0
0
0
0
0
0
0
0
0
0
0
0
0
0
0
0
0
0
0
0
0
0
0
0
0
0
0
0
0
0
0
0
0
0
0
0
0
0
0
0
0
0
0
0
0
0
0
0
0
0
0
0
0
0
0
0
0
0
0
0
0
0
0
0
0
0
0
0
0
0
0
0
0
0
0
0
0
0
0
0
0
0
0
0
0
0
0
0
0
0
0
0
0
0
0
0
0
0
0
0
0
0
0
0
0
0
0
0
0
0
0
0
0
0
0
0
0
0
0
0
0
0
0
0
0
0
0
0
0
0
0
0
0
0
0
0
0
0
0
0
0
0
0
0
0
0
0
0
0
0
0
0
0
0
0
0
0
0
0
0
0
0
0
0
0
0
0
0
0
0
0
0
0
0
0
0
0
0
0
0
0
0
0
0
0
0
0
0
0
0
0
0
0
0
0
0
0
0
0
0
0
0
0
0
0
0
0
0
0
0
0
0
0
0
0
0
0
0
0
0
0
0
0
0
0
0
0
0
0
0
0
0
0
0
0
0
0
0
0
0
0
0
0
0
0
0
0
0
0
0
0
0
0
0
0
0
0
0
0
0
0
0
0
0
0
0
0
0
0
0
0
0
0
0
0
0
0
0
0
0
0
0
0
0
0
0
0
0
0
0
0
0
0
0
0
0
0
0
0
0
0
0
0
0
0
0
0
0
0
0
0
0
0
0
0
0
0
0
0
0
0
0
0
0
0
0
0
0
0
0
0
0
0
0
0
0
0
0
0
0
0
0
0
0
0
0
0
0
0
0
0
0
0
0
0
0
0
0
0
0
0
0
0
0
0
0
0
0
0
0
0
0
0
0
0
0
0
0
0
0
0
0
0
0
0
0
0
0
0
0
0
0
0
0
0
0
0
0
0
0
0
0
0
0
0
0
0
0
0
0
0
0
0
0
0
0
0
0
0
0
0
0
0
0
0
0
0
0
0
0
0
0
0
0
0
0
0
0
0
0
0
0
0
0
0
0
0
0
0
0
0
0
0
0
0
0
0
0
0
0
0
0
0
0
0
0
0
0
0
0
0
0
0
0
0
0
0
0
0
0
0
0
0
0
0
0
0
0
0
0
0
0
0
0
0
0
0
0
0
0
0
0
0
0
0
0
0
0
0
0
0
0
0
0
0
0
0
0
0
0
0
0
0
0
0
0
0
0
0
0
0
0
0
0
0
0
0
0
0
0
0
0
0
0
0
0
0
0
0
0
0
0
0
0
0
0
0
0
0
0
0
0
0
0
0
0
0
0
0
0
0
0
0
0
0
0
0
0
0
0
0
0
0
0
0
0
0
0
0
0
0
0
0
0
0
0
0
0
0
0
0
0
0
0
0
0
0
0
0
0
0
0
0
0
0
0
0
0
0
0
0
0
0
0
0
0
0
0
0
0
0
0
0
0
0
0
0
0
0
0
0
0
0
0
0
0
0
0
0
0
0
0
0
0
0
0
0
0
0
0
0
0
0
0
0
0
0
0
0
0
0
0
0
0
0
0
0
0
0
0
0
0
0
0
0
0
0
0
0
0
0
0
0
0
0
0
0
0
0
0
0
0
0
0
0
0
0
0
0
0
0
0
0
0
0
0
0
0
0
0
0
0
0
0
0
0
0
0
0
0
0
0
0
0
0
0
0
0
0
0
0
0
0
0
0
0
0
0
0
0
0
0
0
0
0
0
0
0
0
0
0
0
0
0
0
0
0
0
0
0
0
0
0
0
0
0
0
0
0
0
0
0
0
0
0
0
0
0
0
0
0
0
0
0
0
0
0
0
0
0
0
0
0
0
0
0
0
0
0
0
0
0
0
0
0
0
0
0
0
0
0
0
0
0
0
0
0
0
0
0
0
0
0
0
0
0
0
0
0
0
0
0
0
0
0
0
0
0
0
0
0
0
0
0
0
0
0
0
0
0
0
0
0
0
0
0
0
0
0
0
0
0
0
0
0
0
0
0
0
0
0
0
0
0
0
0
0
0
0
0
0
0
0
0
0
0
0
0
0
0
0
0
0
0
0
0
0
0
0
0
0
0
0
0
0
0
0
0
0
0
0
0
0
0
0
0
0
0
0
0
0
0
0
0
0
0
0
0
0
0
0
0
0
0
0
0
0
0
0
0
0
0
0
0
0
0
0
0
0
0
0
0
0
0
0
0
0
0
0
0
0
0
0
0
0
0
0
0
0
0
0
0
0
0
0
0
0
0
0
0
0
0
0
0
0
0
0
0
0
0
0
0
0
0
0
0
0
0
0
0
0
0
0
0
0
0
0
0
0
0
0
0
0
0
0
0
0
0
0
0
0
0
0
0
0
0
0
0
0
0
0
0
0
0
0
0
0
0
0
0
0
0
0
0
0
0
0
0
0
0
0
0
0
0
0
0
0
0
0
0
0
0
0
0
0
0
0
0
0
0
0
0
0
0
0
0
0
0
0
0
0
0
0
0
0
0
0
0
0
0
0
0
0
0
0
0
0
0
0
0
0
0
0
0
0
0
0
0
0
0
0
0
0
0
0
0
0
0
0
0
0
0
0
0
0
0
0
0
0
0
0
0
0
0
0
0
0
0
0
0
0
0
0
0
0
0
0
0
0
0
0
0
0
0
0
0
0
0
0
0
0
0
0
0
0
0
0
0
0
0
0
0
0
0
0
0
0
0
0
0
0
0
0
0
0
0
0
0
0
0
0
0
0
0
0
0
0
0
0
0
0
0
0
0
0
0
0
0
0
0
0
0
0
0
0
0
0
0
0
0
0
0
0
0
0
0
0
0
0
0
0
0
0
0
0
0
0
0
0
0
0
0
0
0
0
0
0
0
0
0
0
0
0
0
0
0
0
0
0
0
0
0
0
0
0
0
0
0
0
0
0
0
0
0
0
0
0
0
0
0
0
0
0
0
0
0
1
1
1
1
1
1
1
1
1
1
1
1
1
1
1
1
1
1
1
1
1
1
1
1
1
1
1
1
1
1
2
2
2
2
2
2
2
2
2
2
2
2
2
2
2
2
2
2
2
2
2
2
2
2
2
2
2
2
2
2
3
3
3
3
3
3
3
3
3
3
3
3
3
3
3
3
3
3
3
3
3
3
3
3
3
3
3
3
3
3
4
4
4
4
4
4
4
4
4
4
4
4
4
4
4
4
4
4
4
4
4
4
4
4
4
4
4
4
4
4

LOOKUP_TABLE FreeFempp_table 5
1.00000000 0.00000000 0.00000000 1.00000000
1.00000000 1.00000000 0.00000000 1.00000000
1.00000000 0.00000000 1.00000000 1.00000000
0.00000000 1.00000000 0.00000000 1.00000000
0.00000000 1.00000000 1.00000000 1.00000000

POINT_DATA 961
FIELD FieldData 1
Density 1 961 float
2.93509871e-01 1.76224336e-01 1.59438863e-01 1.73732772e-01 1.91276774e-01 2.05336899e-01 2.17510894e-01 2.28920326e-01 2.39712715e-01 2.49057889e-01 2.55215764e-01 2.61682391e-01 2.91781038e-01 3.94293010e-01 6.64217055e-01 7.09270954e-01 7.68362939e-01 8.10617805e-01 7.35082567e-01 6.48840725e-01 6.27508521e-01 6.06193483e-01 5.89160979e-01 5.74851334e-01 5.61409712e-01 5.49497545e-01 5.38261473e-01 5.31874239e-01 5.28042853e-01 5.28976023e-01 4.96663809e-01 2.13813618e-01 1.37538478e-01 1.17867827e-01 1.28849387e-01 1.47535369e-01 1.62323982e-01 1.73958659e-01 1.84088588e-01 1.93341330e-01 2.01914489e-01 2.09781766e-01 2.18428776e-01 2.38894835e-01 3.08944166e-01 5.86040080e-01 7.77739167e-01 2.13370740e-01 2.49520749e-01 4.31287438e-01 6.94796205e-01 6.74650609e-01 6.76933408e-01 6.63442910e-01 6.47915721e-01 6.33059323e-01 6.17767215e-01 5.97667158e-01 5.80200911e-01 5.71109056e-01 5.68778157e-01 5.28432786e-01 2.29512416e-02 2.62764040e-02 3.50288600e-02 4.59075570e-02 6.09745197e-02 8.06952268e-02 1.04719594e-01 1.31320789e-01 1.58252388e-01 1.84492081e-01 2.11016342e-01 2.40729034e-01 2.77868032e-01 3.32140088e-01 4.56476778e-01 7.97393441e-01 2.46099591e-01 7.99706653e-02 5.41654751e-02 5.31185903e-02 5.96024469e-02 1.42288998e-01 3.56447786e-01 4.87454355e-01 5.43446660e-01 5.72543740e-01 5.81645429e-01 5.61747015e-01 5.43867111e-01 5.31675875e-01 5.10543346e-01 1.04954457e-02 7.79643655e-03 8.16901028e-03 8.31514783e-03 8.66226666e-03 9.33043379e-03 1.04935151e-02 1.24717094e-02 1.59613378e-02 2.25206260e-02 3.55587155e-02 6.17072880e-02 1.10323191e-01 1.83503449e-01 2.73683369e-01 4.87380654e-01 7.84718752e-01 1.43578947e-01 6.44101799e-02 4.45088446e-02 2.27731969e-02 1.52793853e-02 1.46922488e-02 1.93932131e-02 5.38959242e-02 1.98586643e-01 3.75189751e-01 4.68932182e-01 5.03397226e-01 5.12040496e-01 5.27538121e-01 1.80636793e-02 9.16064810e-03 8.79716221e-03 8.13715346e-03 7.85163697e-03 7.69338105e-03 7.59551022e-03 7.46453181e-03 7.20489305e-03 6.83661178e-03 6.62209513e-03 7.02672824e-03 8.81069247e-03 1.39950151e-02 3.10692806e-02 1.26893461e-01 5.08277714e-01 8.56791496e-01 3.42605054e-01 1.36231273e-01 5.52008450e-02 2.26582550e-02 1.44821005e-02 1.06027611e-02 1.00032445e-02 1.12965228e-02 4.86331768e-02 2.38887936e-01 3.88519317e-01 4.37518835e-01 4.85002548e-01 1.08656749e-01 5.53846471e-02 4.37961146e-02 3.39938067e-02 2.70056613e-02 2.15839650e-02 1.73017606e-02 1.38974944e-02 1.11692855e-02 9.00941994e-03 7.46757956e-03 6.61778683e-03 6.27586478e-03 5.91177680e-03 5.84006775e-03 6.39700890e-03 4.06351909e-02 3.05478722e-01 8.33633602e-01 7.28416026e-01 4.73375171e-01 5.12100995e-01 2.69056499e-01 5.26379049e-02 1.58428997e-02 8.25822726e-03 7.82164093e-03 2.69635078e-02 2.10527852e-01 3.53525251e-01 4.28992033e-01 3.51571113e-01 2.73898333e-01 2.67194390e-01 2.59189308e-01 2.51388222e-01 2.39447579e-01 2.20787585e-01 1.94710508e-01 1.61326185e-01 1.21934012e-01 8.17069188e-02 4.85028066e-02 2.61928607e-02 1.35659920e-02 7.91198295e-03 4.70159622e-03 5.00791706e-03 1.01542491e-02 5.52018248e-02 6.67740941e-01 7.80461252e-01 7.39568949e-01 7.15351105e-01 7.00529099e-01 5.55144072e-01 9.16872323e-02 8.27425066e-03 7.07566645e-03 2.99402345e-02 2.52604663e-01 3.95838141e-01 4.94970977e-01 4.56589431e-01 4.51312333e-01 4.43751991e-01 4.36349332e-01 4.29256678e-01 4.22581077e-01 4.16583031e-01 4.11022097e-01 4.04211670e-01 3.92859578e-01 3.72599781e-01 3.38690519e-01 2.85638362e-01 2.05072165e-01 6.93578571e-02 6.84894016e-03 6.36405870e-03 6.58202032e-03 8.43620207e-03 2.25637555e-02 5.81450582e-01 6.68969214e-01 6.86655760e-01 7.29600012e-01 8.26077104e-01 2.62893826e-01 7.10842479e-03 5.99737372e-03 6.73893988e-02 3.99089187e-01 4.81453925e-01 4.93734241e-01 5.06541312e-01 4.94573683e-01 4.76614594e-01 4.58873510e-01 4.43888634e-01 4.33632433e-01 4.28965896e-01 4.29647386e-01 4.35099512e-01 4.44215864e-01 4.54430312e-01 4.62877780e-01 4.68048543e-01 4.66863364e-01 4.32236940e-01 2.69274898e-02 9.99808777e-03 6.92273071e-03 7.03611597e-03 9.48384777e-03 2.02889796e-02 9.32962447e-02 1.39326841e-01 1.84209645e-01 7.91012526e-01 1.13070503e-01 6.08968828e-03 8.98754783e-03 3.88075888e-01 5.11351168e-01 5.22265851e-01 5.16294539e-01 5.02378345e-01 4.79582876e-01 4.55338210e-01 4.36679035e-01 4.26145524e-01 4.22174811e-01 4.22408223e-01 4.25218672e-01 4.27744597e-01 4.31580722e-01 4.37217444e-01 4.44714069e-01 4.51887041e-01 4.56928402e-01 4.62178051e-01 4.74871546e-01 4.74660367e-01 2.32894868e-02 1.11043276e-02 1.12672523e-02 1.72446929e-02 4.01699618e-02 9.68417376e-02 1.39810279e-01 9.17815447e-01 8.31567030e-03 5.66464569e-03 1.52513623e-01 5.35705745e-01 5.69762528e-01 5.61824739e-01 5.54902732e-01 5.41725159e-01 5.23204505e-01 5.03350317e-01 4.87658769e-01 4.78438795e-01 4.74599451e-01 4.74002302e-01 4.74939227e-01 4.76316035e-01 4.77619797e-01 4.78686094e-01 4.79369491e-01 4.79472041e-01 4.79144365e-01 4.78790581e-01 4.75950330e-01 4.93608773e-01 4.74260986e-01 8.66763145e-02 3.02547514e-02 3.50051634e-02 5.88388741e-02 1.06550649e-01 7.29265988e-01 1.42981037e-01 5.49265137e-03 8.78009945e-03 5.45085371e-01 5.97680926e-01 5.91043949e-01 5.92290223e-01 5.90004921e-01 5.79364657e-01 5.63411653e-01 5.46707690e-01 5.33633888e-01 5.25398970e-01 5.20568907e-01 5.17469525e-01 5.15168369e-01 5.13327420e-01 5.11756361e-01 5.10340989e-01 5.09188116e-01 5.08543313e-01 5.08692265e-01 5.09588361e-01 5.12020707e-01 5.20649135e-01 5.68803847e-01 5.04622996e-01 6.26860410e-02 1.25118837e-01 1.29322693e-01 2.22806677e-01 8.83772135e-01 1.17266569e-02 9.96923819e-03 5.55626094e-01 6.12091064e-01 5.97898304e-01 5.96299946e-01 6.09661520e-01 6.11473799e-01 6.02388620e-01 5.85399151e-01 5.68208575e-01 5.56163251e-01 5.48713386e-01 5.43373585e-01 5.38968742e-01 5.35381436e-01 5.32566786e-01 5.30266523e-01 5.28517008e-01 5.27643621e-01 5.27798414e-01 5.28883994e-01 5.30901253e-01 5.35364389e-01 5.45188069e-01 5.57851851e-01 5.74397147e-01 3.51046443e-01 3.94572288e-01 4.50311154e-01 8.33926916e-01 1.13011915e-02 1.13904411e-02 5.52474201e-01 5.96237063e-01 5.94747186e-01 6.02200806e-01 6.08809471e-01 6.18152738e-01 6.08506024e-01 5.95656097e-01 5.81615746e-01 5.63581169e-01 5.52541018e-01 5.46131909e-01 5.41139126e-01 5.37075698e-01 5.34159720e-01 5.31427741e-01 5.28146863e-01 5.26385069e-01 5.25658727e-01 5.25644600e-01 5.26179373e-01 5.28368294e-01 5.31620800e-01 5.36557913e-01 5.49931407e-01 5.96305132e-01 5.76959670e-01 6.72974229e-01 8.36275637e-01 1.33622987e-02 1.22491866e-02 5.34422755e-01 5.50691783e-01 5.48354983e-01 5.58370173e-01 5.56885242e-01 5.45632541e-01 5.55962622e-01 5.85920453e-01 5.74263990e-01 5.51763535e-01 5.37294209e-01 5.28701007e-01 5.22034347e-01 5.17043471e-01 5.14663219e-01 5.15087605e-01 5.17535150e-01 5.19828081e-01 5.21075666e-01 5.21905124e-01 5.23995221e-01 5.27347267e-01 5.24007797e-01 5.05921125e-01 4.99441981e-01 5.13672590e-01 5.70199132e-01 6.21597886e-01 7.96803594e-01 1.45747205e-02 1.43545875e-02 5.21224320e-01 5.25615275e-01 5.25930047e-01 5.23491800e-01 5.00091851e-01 4.62776393e-01 4.65116292e-01 5.00386536e-01 5.44445753e-01 5.38755357e-01 5.19429564e-01 5.05041182e-01 4.98153746e-01 4.96735424e-01 5.00229299e-01 5.07775009e-01 5.14289260e-01 5.17134011e-01 5.17698944e-01 5.16787410e-01 5.15469730e-01 5.19986331e-01 5.24207175e-01 5.20340741e-01 5.24099231e-01 5.06780446e-01 5.56536674e-01 6.60802007e-01 7.45751560e-01 1.63848344e-02 1.58759989e-02 5.12112439e-01 5.04922032e-01 5.07582307e-01 4.97436732e-01 4.43813771e-01 3.66623223e-01 3.62161905e-01 4.11777705e-01 4.73195374e-01 5.16090572e-01 5.00557482e-01 4.90170270e-01 4.82673287e-01 4.78821993e-01 4.86790091e-01 5.00289023e-01 5.07177711e-01 5.07624626e-01 5.07206619e-01 5.07986248e-01 5.09199262e-01 5.10572910e-01 5.15594721e-01 5.22363901e-01 5.20545006e-01 5.27840316e-01 5.93009114e-01 6.68033183e-01 6.68382466e-01 1.66328065e-02 1.53205944e-02 5.06592810e-01 4.91588026e-01 4.95480388e-01 4.80725825e-01 4.02325332e-01 2.87251115e-01 2.72528142e-01 3.27756763e-01 4.10090297e-01 4.79271710e-01 4.86177266e-01 4.75097328e-01 4.69753265e-01 4.70830321e-01 4.82279271e-01 4.92639691e-01 4.90872651e-01 4.85835582e-01 4.85258281e-01 4.86845553e-01 4.94237006e-01 5.04869580e-01 5.05028844e-01 5.06442726e-01 5.28576195e-01 5.77928305e-01 6.36694968e-01 6.75550580e-01 5.95194221e-01 1.87381189e-02 1.71682183e-02 5.03798842e-01 4.84579355e-01 4.89498645e-01 4.74279374e-01 3.81691605e-01 2.34565645e-01 2.07345560e-01 2.58098483e-01 3.57075006e-01 4.49204236e-01 4.78130609e-01 4.73686665e-01 4.68359381e-01 4.67574179e-01 4.79159474e-01 4.87871885e-01 4.82982874e-01 4.74370688e-01 4.71311420e-01 4.74360794e-01 4.88717079e-01 5.02676845e-01 5.03528237e-01 5.31824827e-01 5.73032320e-01 6.22540355e-01 6.59012437e-01 6.53290629e-01 3.53354961e-01 2.13738307e-02 1.90638397e-02 5.02744734e-01 4.81992781e-01 4.87047791e-01 4.73762214e-01 3.75218630e-01 1.97104663e-01 1.60828412e-01 2.04340860e-01 3.14930677e-01 4.31108028e-01 4.69917804e-01 4.78926778e-01 4.79885280e-01 4.77396637e-01 4.78622258e-01 4.84935701e-01 4.84563261e-01 4.76588428e-01 4.71162409e-01 4.77427781e-01 4.93022621e-01 4.97287452e-01 5.28681517e-01 5.74476004e-01 6.17767870e-01 6.55665338e-01 6.56842589e-01 5.26453793e-01 1.17095359e-01 2.62201261e-02 2.22620759e-02 5.02680957e-01 4.82015967e-01 4.85208333e-01 4.74331766e-01 3.73102903e-01 1.65249184e-01 1.27296954e-01 1.64665684e-01 2.84261018e-01 4.24173087e-01 4.66594756e-01 4.82703716e-01 4.91557091e-01 4.94337946e-01 4.91774499e-01 4.86747354e-01 4.81302589e-01 4.75466669e-01 4.73606825e-01 4.77652431e-01 4.88147408e-01 5.19225836e-01 5.75092494e-01 6.23860419e-01 6.58495009e-01 6.61987662e-01 5.76384306e-01 1.85496762e-01 5.83463758e-02 3.45859006e-02 3.06397900e-02 5.03213406e-01 4.83608067e-01 4.81259555e-01 4.72673535e-01 3.68202418e-01 1.35070041e-01 1.02730550e-01 1.36642650e-01 2.66878664e-01 4.27987546e-01 4.70390916e-01 4.88060474e-01 4.98705804e-01 5.03476918e-01 5.03054380e-01 4.96425778e-01 4.84588474e-01 4.75329667e-01 4.76393729e-01 4.91789699e-01 5.19539058e-01 5.62483191e-01 6.26326203e-01 6.65845633e-01 6.66252434e-01 5.88355124e-01 2.37439662e-01 8.27516168e-02 4.63476516e-02 4.35970798e-02 5.50286770e-02 5.04138470e-01 4.86996979e-01 4.73491758e-01 4.66555387e-01 3.54865104e-01 1.06730871e-01 8.43559802e-02 1.17544308e-01 2.65877455e-01 4.41441894e-01 4.78309929e-01 4.96309727e-01 5.04222453e-01 5.07672310e-01 5.12511492e-01 5.15840411e-01 5.16561329e-01 5.17967105e-01 5.30753732e-01 5.55902958e-01 5.90932965e-01 6.46390319e-01 7.02140689e-01 6.91686690e-01 5.63889503e-01 2.35662803e-01 9.87142548e-02 6.06878623e-02 5.38093224e-02 6.54943660e-02 1.49004295e-01 5.04848957e-01 4.92826253e-01 4.64705288e-01 4.55650717e-01 3.30882490e-01 8.21262673e-02 7.05517307e-02 1.05414324e-01 2.84229606e-01 4.58021104e-01 4.81759131e-01 5.04482806e-01 5.09043932e-01 5.09574652e-01 5.18956125e-01 5.31308174e-01 5.42706788e-01 5.57700276e-01 5.81933856e-01 6.16564989e-01 6.51413798e-01 6.76573515e-01 6.03161037e-01 2.79953808e-01 1.31000713e-01 8.94468874e-02 7.62408078e-02 6.91881329e-02 8.24312046e-02 1.55403391e-01 3.76507938e-01 5.03072739e-01 4.96493280e-01 4.64213789e-01 4.44641471e-01 3.00784200e-01 6.20431751e-02 5.99096939e-02 1.00192666e-01 3.22873443e-01 4.71559465e-01 4.81175900e-01 4.99788433e-01 5.12935519e-01 5.09437680e-01 5.18782437e-01 5.36943674e-01 5.57742953e-01 5.83058238e-01 6.13363802e-01 6.45491242e-01 6.63894057e-01 6.21758580e-01 4.00568396e-01 2.31049374e-01 1.53139204e-01 9.86337066e-02 8.76098350e-02 1.17066264e-01 2.23296583e-01 4.12994385e-01 4.90582526e-01 4.93785799e-01 4.90124553e-01 4.77595061e-01 4.48530704e-01 2.78066337e-01 4.64363210e-02 5.04280627e-02 1.03617631e-01 3.76734972e-01 4.90935832e-01 4.65236664e-01 4.90942001e-01 5.13570130e-01 5.11826456e-01 5.13470113e-01 5.34206033e-01 5.58457553e-01 5.87060452e-01 6.17516160e-01 6.44426525e-01 6.55205071e-01 6.22745275e-01 4.86580908e-01 3.00203055e-01 2.40328372e-01 2.83173412e-01 3.86846095e-01 5.09307802e-01 5.86292207e-01 5.75929582e-01 5.10815084e-01 4.72668171e-01 4.69656140e-01 4.90026593e-01 4.74655718e-01 2.77518898e-01 3.57376076e-02 4.09457274e-02 1.18376121e-01 4.32797819e-01 5.02494693e-01 4.87222642e-01 4.79825884e-01 5.09039342e-01 5.16900659e-01 5.12488782e-01 5.23985028e-01 5.48070252e-01 5.73687375e-01 6.00002348e-01 6.23070896e-01 6.36280835e-01 6.30955219e-01 6.09054267e-01 6.15116656e-01 6.45137012e-01 6.68130994e-01 6.79330945e-01 6.69420898e-01 6.48385108e-01 6.42483413e-01 5.60015738e-01 4.72272038e-01 4.54283863e-01 4.92456108e-01 5.05586982e-01 3.06308568e-01 2.98351981e-02 3.28946747e-02 1.43044680e-01 4.77047086e-01 4.96415615e-01 4.89954114e-01 4.92945194e-01 5.02942562e-01 5.19565880e-01 5.19101858e-01 5.13651311e-01 5.31787932e-01 5.52314281e-01 5.72880447e-01 5.92401505e-01 6.07910931e-01 6.16324365e-01 6.21855497e-01 6.35443151e-01 6.44856751e-01 6.39152706e-01 6.29556358e-01 6.19472623e-01 6.09940290e-01 6.12225771e-01 5.58205843e-01 4.82203335e-01 4.67172295e-01 4.91503507e-01 5.07940531e-01 3.61088187e-01 2.89447103e-02 2.70902254e-02 1.51291490e-01 4.99361336e-01 4.83300447e-01 4.80942041e-01 4.87243861e-01 4.96894926e-01 5.10044932e-01 5.23742199e-01 5.16621113e-01 5.10307193e-01 5.29956520e-01 5.46124339e-01 5.61271906e-01 5.74743330e-01 5.83968520e-01 5.87139368e-01 5.85251927e-01 5.77728450e-01 5.66108644e-01 5.55775106e-01 5.49328268e-01 5.47676444e-01 5.51404178e-01 5.26792824e-01 5.28153062e-01 5.02720237e-01 5.14024019e-01 4.82439399e-01 4.79228348e-01 3.14914398e-02 2.11214311e-02 9.18640792e-02 5.07682920e-01 4.74863499e-01 4.74166542e-01 4.76514935e-01 4.81410891e-01 4.95150685e-01 5.14890492e-01 5.18248558e-01 5.03836572e-01 5.17835796e-01 5.31987667e-01 5.40760577e-01 5.44023931e-01 5.42423904e-01 5.37967920e-01 5.32412171e-01 5.25776029e-01 5.18082559e-01 5.10689616e-01 5.04674137e-01 5.00291526e-01 5.00980377e-01 4.98225749e-01 5.27016699e-01 5.56710541e-01 5.44430256e-01 4.96035188e-01 5.75165987e-01 9.10980031e-02 2.96465438e-02 4.84707206e-02 5.40193617e-01 4.96395439e-01 4.97491330e-01 4.97071922e-01 4.96367604e-01 4.97952878e-01 5.09850979e-01 5.02077878e-01 4.88538831e-01 4.98702168e-01 5.06312788e-01 5.09616673e-01 5.07492244e-01 5.00885546e-01 4.93547648e-01 4.89359170e-01 4.86973315e-01 4.84858900e-01 4.82939512e-01 4.80237305e-01 4.77799416e-01 4.74841118e-01 4.77716744e-01 
