# vtk DataFile Version 2.0
results/iter4.vtk, Created by Freefem++ 
ASCII
DATASET UNSTRUCTURED_GRID
POINTS 961 float
0 0 0
0.033333333 0 0
0.066666667 0 0
0.1 0 0
0.13333333 0 0
0.16666667 0 0
0.2 0 0
0.23333333 0 0
0.26666667 0 0
0.3 0 0
0.33333333 0 0
0.36666667 0 0
0.4 0 0
0.43333333 0 0
0.46666667 0 0
0.5 0 0
0.53333333 0 0
0.56666667 0 0
0.6 0 0
0.63333333 0 0
0.66666667 0 0
0.7 0 0
0.73333333 0 0
0.76666667 0 0
0.8 0 0
0.83333333 0 0
0.86666667 0 0
0.9 0 0
0.93333333 0 0
0.96666667 0 0
1 0 0
0 0.033333333 0
0.033333333 0.033333333 0
0.066666667 0.033333333 0
0.1 0.033333333 0
0.13333333 0.033333333 0
0.16666667 0.033333333 0
0.2 0.033333333 0
0.23333333 0.033333333 0
0.26666667 0.033333333 0
0.3 0.033333333 0
0.33333333 0.033333333 0
0.36666667 0.033333333 0
0.4 0.033333333 0
0.43333333 0.033333333 0
0.46666667 0.033333333 0
0.5 0.033333333 0
0.53333333 0.033333333 0
0.56666667 0.033333333 0
0.6 0.033333333 0
0.63333333 0.033333333 0
0.66666667 0.033333333 0
0.7 0.033333333 0
0.73333333 0.033333333 0
0.76666667 0.033333333 0
0.8 0.033333333 0
0.83333333 0.033333333 0
0.86666667 0.033333333 0
0.9 0.033333333 0
0.93333333 0.033333333 0
0.96666667 0.033333333 0
1 0.033333333 0
0 0.066666667 0
0.033333333 0.066666667 0
0.066666667 0.066666667 0
0.1 0.066666667 0
0.13333333 0.066666667 0
0.16666667 0.066666667 0
0.2 0.066666667 0
0.23333333 0.066666667 0
0.26666667 0.066666667 0
0.3 0.066666667 0
0.33333333 0.066666667 0
0.36666667 0.066666667 0
0.4 0.066666667 0
0.43333333 0.066666667 0
0.46666667 0.066666667 0
0.5 0.066666667 0
0.53333333 0.066666667 0
0.56666667 0.066666667 0
0.6 0.066666667 0
0.63333333 0.066666667 0
0.66666667 0.066666667 0
0.7 0.066666667 0
0.73333333 0.066666667 0
0.76666667 0.066666667 0
0.8 0.066666667 0
0.83333333 0.066666667 0
0.86666667 0.066666667 0
0.9 0.066666667 0
0.93333333 0.066666667 0
0.96666667 0.066666667 0
1 0.066666667 0
0 0.1 0
0.033333333 0.1 0
0.066666667 0.1 0
0.1 0.1 0
0.13333333 0.1 0
0.16666667 0.1 0
0.2 0.1 0
0.23333333 0.1 0
0.26666667 0.1 0
0.3 0.1 0
0.33333333 0.1 0
0.36666667 0.1 0
0.4 0.1 0
0.43333333 0.1 0
0.46666667 0.1 0
0.5 0.1 0
0.53333333 0.1 0
0.56666667 0.1 0
0.6 0.1 0
0.63333333 0.1 0
0.66666667 0.1 0
0.7 0.1 0
0.73333333 0.1 0
0.76666667 0.1 0
0.8 0.1 0
0.83333333 0.1 0
0.86666667 0.1 0
0.9 0.1 0
0.93333333 0.1 0
0.96666667 0.1 0
1 0.1 0
0 0.13333333 0
0.033333333 0.13333333 0
0.066666667 0.13333333 0
0.1 0.13333333 0
0.13333333 0.13333333 0
0.16666667 0.13333333 0
0.2 0.13333333 0
0.23333333 0.13333333 0
0.26666667 0.13333333 0
0.3 0.13333333 0
0.33333333 0.13333333 0
0.36666667 0.13333333 0
0.4 0.13333333 0
0.43333333 0.13333333 0
0.46666667 0.13333333 0
0.5 0.13333333 0
0.53333333 0.13333333 0
0.56666667 0.13333333 0
0.6 0.13333333 0
0.63333333 0.13333333 0
0.66666667 0.13333333 0
0.7 0.13333333 0
0.73333333 0.13333333 0
0.76666667 0.13333333 0
0.8 0.13333333 0
0.83333333 0.13333333 0
0.86666667 0.13333333 0
0.9 0.13333333 0
0.93333333 0.13333333 0
0.96666667 0.13333333 0
1 0.13333333 0
0 0.16666667 0
0.033333333 0.16666667 0
0.066666667 0.16666667 0
0.1 0.16666667 0
0.13333333 0.16666667 0
0.16666667 0.16666667 0
0.2 0.16666667 0
0.23333333 0.16666667 0
0.26666667 0.16666667 0
0.3 0.16666667 0
0.33333333 0.16666667 0
0.36666667 0.16666667 0
0.4 0.16666667 0
0.43333333 0.16666667 0
0.46666667 0.16666667 0
0.5 0.16666667 0
0.53333333 0.16666667 0
0.56666667 0.16666667 0
0.6 0.16666667 0
0.63333333 0.16666667 0
0.66666667 0.16666667 0
0.7 0.16666667 0
0.73333333 0.16666667 0
0.76666667 0.16666667 0
0.8 0.16666667 0
0.83333333 0.16666667 0
0.86666667 0.16666667 0
0.9 0.16666667 0
0.93333333 0.16666667 0
0.96666667 0.16666667 0
1 0.16666667 0
0 0.2 0
0.033333333 0.2 0
0.066666667 0.2 0
0.1 0.2 0
0.13333333 0.2 0
0.16666667 0.2 0
0.2 0.2 0
0.23333333 0.2 0
0.26666667 0.2 0
0.3 0.2 0
0.33333333 0.2 0
0.36666667 0.2 0
0.4 0.2 0
0.43333333 0.2 0
0.46666667 0.2 0
0.5 0.2 0
0.53333333 0.2 0
0.56666667 0.2 0
0.6 0.2 0
0.63333333 0.2 0
0.66666667 0.2 0
0.7 0.2 0
0.73333333 0.2 0
0.76666667 0.2 0
0.8 0.2 0
0.83333333 0.2 0
0.86666667 0.2 0
0.9 0.2 0
0.93333333 0.2 0
0.96666667 0.2 0
1 0.2 0
0 0.23333333 0
0.033333333 0.23333333 0
0.066666667 0.23333333 0
0.1 0.23333333 0
0.13333333 0.23333333 0
0.16666667 0.23333333 0
0.2 0.23333333 0
0.23333333 0.23333333 0
0.26666667 0.23333333 0
0.3 0.23333333 0
0.33333333 0.23333333 0
0.36666667 0.23333333 0
0.4 0.23333333 0
0.43333333 0.23333333 0
0.46666667 0.23333333 0
0.5 0.23333333 0
0.53333333 0.23333333 0
0.56666667 0.23333333 0
0.6 0.23333333 0
0.63333333 0.23333333 0
0.66666667 0.23333333 0
0.7 0.23333333 0
0.73333333 0.23333333 0
0.76666667 0.23333333 0
0.8 0.23333333 0
0.83333333 0.23333333 0
0.86666667 0.23333333 0
0.9 0.23333333 0
0.93333333 0.23333333 0
0.96666667 0.23333333 0
1 0.23333333 0
0 0.26666667 0
0.033333333 0.26666667 0
0.066666667 0.26666667 0
0.1 0.26666667 0
0.13333333 0.26666667 0
0.16666667 0.26666667 0
0.2 0.26666667 0
0.23333333 0.26666667 0
0.26666667 0.26666667 0
0.3 0.26666667 0
0.33333333 0.26666667 0
0.36666667 0.26666667 0
0.4 0.26666667 0
0.43333333 0.26666667 0
0.46666667 0.26666667 0
0.5 0.26666667 0
0.53333333 0.26666667 0
0.56666667 0.26666667 0
0.6 0.26666667 0
0.63333333 0.26666667 0
0.66666667 0.26666667 0
0.7 0.26666667 0
0.73333333 0.26666667 0
0.76666667 0.26666667 0
0.8 0.26666667 0
0.83333333 0.26666667 0
0.86666667 0.26666667 0
0.9 0.26666667 0
0.93333333 0.26666667 0
0.96666667 0.26666667 0
1 0.26666667 0
0 0.3 0
0.033333333 0.3 0
0.066666667 0.3 0
0.1 0.3 0
0.13333333 0.3 0
0.16666667 0.3 0
0.2 0.3 0
0.23333333 0.3 0
0.26666667 0.3 0
0.3 0.3 0
0.33333333 0.3 0
0.36666667 0.3 0
0.4 0.3 0
0.43333333 0.3 0
0.46666667 0.3 0
0.5 0.3 0
0.53333333 0.3 0
0.56666667 0.3 0
0.6 0.3 0
0.63333333 0.3 0
0.66666667 0.3 0
0.7 0.3 0
0.73333333 0.3 0
0.76666667 0.3 0
0.8 0.3 0
0.83333333 0.3 0
0.86666667 0.3 0
0.9 0.3 0
0.93333333 0.3 0
0.96666667 0.3 0
1 0.3 0
0 0.33333333 0
0.033333333 0.33333333 0
0.066666667 0.33333333 0
0.1 0.33333333 0
0.13333333 0.33333333 0
0.16666667 0.33333333 0
0.2 0.33333333 0
0.23333333 0.33333333 0
0.26666667 0.33333333 0
0.3 0.33333333 0
0.33333333 0.33333333 0
0.36666667 0.33333333 0
0.4 0.33333333 0
0.43333333 0.33333333 0
0.46666667 0.33333333 0
0.5 0.33333333 0
0.53333333 0.33333333 0
0.56666667 0.33333333 0
0.6 0.33333333 0
0.63333333 0.33333333 0
0.66666667 0.33333333 0
0.7 0.33333333 0
0.73333333 0.33333333 0
0.76666667 0.33333333 0
0.8 0.33333333 0
0.83333333 0.33333333 0
0.86666667 0.33333333 0
0.9 0.33333333 0
0.93333333 0.33333333 0
0.96666667 0.33333333 0
1 0.33333333 0
0 0.36666667 0
0.033333333 0.36666667 0
0.066666667 0.36666667 0
0.1 0.36666667 0
0.13333333 0.36666667 0
0.16666667 0.36666667 0
0.2 0.36666667 0
0.23333333 0.36666667 0
0.26666667 0.36666667 0
0.3 0.36666667 0
0.33333333 0.36666667 0
0.36666667 0.36666667 0
0.4 0.36666667 0
0.43333333 0.36666667 0
0.46666667 0.36666667 0
0.5 0.36666667 0
0.53333333 0.36666667 0
0.56666667 0.36666667 0
0.6 0.36666667 0
0.63333333 0.36666667 0
0.66666667 0.36666667 0
0.7 0.36666667 0
0.73333333 0.36666667 0
0.76666667 0.36666667 0
0.8 0.36666667 0
0.83333333 0.36666667 0
0.86666667 0.36666667 0
0.9 0.36666667 0
0.93333333 0.36666667 0
0.96666667 0.36666667 0
1 0.36666667 0
0 0.4 0
0.033333333 0.4 0
0.066666667 0.4 0
0.1 0.4 0
0.13333333 0.4 0
0.16666667 0.4 0
0.2 0.4 0
0.23333333 0.4 0
0.26666667 0.4 0
0.3 0.4 0
0.33333333 0.4 0
0.36666667 0.4 0
0.4 0.4 0
0.43333333 0.4 0
0.46666667 0.4 0
0.5 0.4 0
0.53333333 0.4 0
0.56666667 0.4 0
0.6 0.4 0
0.63333333 0.4 0
0.66666667 0.4 0
0.7 0.4 0
0.73333333 0.4 0
0.76666667 0.4 0
0.8 0.4 0
0.83333333 0.4 0
0.86666667 0.4 0
0.9 0.4 0
0.93333333 0.4 0
0.96666667 0.4 0
1 0.4 0
0 0.43333333 0
0.033333333 0.43333333 0
0.066666667 0.43333333 0
0.1 0.43333333 0
0.13333333 0.43333333 0
0.16666667 0.43333333 0
0.2 0.43333333 0
0.23333333 0.43333333 0
0.26666667 0.43333333 0
0.3 0.43333333 0
0.33333333 0.43333333 0
0.36666667 0.43333333 0
0.4 0.43333333 0
0.43333333 0.43333333 0
0.46666667 0.43333333 0
0.5 0.43333333 0
0.53333333 0.43333333 0
0.56666667 0.43333333 0
0.6 0.43333333 0
0.63333333 0.43333333 0
0.66666667 0.43333333 0
0.7 0.43333333 0
0.73333333 0.43333333 0
0.76666667 0.43333333 0
0.8 0.43333333 0
0.83333333 0.43333333 0
0.86666667 0.43333333 0
0.9 0.43333333 0
0.93333333 0.43333333 0
0.96666667 0.43333333 0
1 0.43333333 0
0 0.46666667 0
0.033333333 0.46666667 0
0.066666667 0.46666667 0
0.1 0.46666667 0
0.13333333 0.46666667 0
0.16666667 0.46666667 0
0.2 0.46666667 0
0.23333333 0.46666667 0
0.26666667 0.46666667 0
0.3 0.46666667 0
0.33333333 0.46666667 0
0.36666667 0.46666667 0
0.4 0.46666667 0
0.43333333 0.46666667 0
0.46666667 0.46666667 0
0.5 0.46666667 0
0.53333333 0.46666667 0
0.56666667 0.46666667 0
0.6 0.46666667 0
0.63333333 0.46666667 0
0.66666667 0.46666667 0
0.7 0.46666667 0
0.73333333 0.46666667 0
0.76666667 0.46666667 0
0.8 0.46666667 0
0.83333333 0.46666667 0
0.86666667 0.46666667 0
0.9 0.46666667 0
0.93333333 0.46666667 0
0.96666667 0.46666667 0
1 0.46666667 0
0 0.5 0
0.033333333 0.5 0
0.066666667 0.5 0
0.1 0.5 0
0.13333333 0.5 0
0.16666667 0.5 0
0.2 0.5 0
0.23333333 0.5 0
0.26666667 0.5 0
0.3 0.5 0
0.33333333 0.5 0
0.36666667 0.5 0
0.4 0.5 0
0.43333333 0.5 0
0.46666667 0.5 0
0.5 0.5 0
0.53333333 0.5 0
0.56666667 0.5 0
0.6 0.5 0
0.63333333 0.5 0
0.66666667 0.5 0
0.7 0.5 0
0.73333333 0.5 0
0.76666667 0.5 0
0.8 0.5 0
0.83333333 0.5 0
0.86666667 0.5 0
0.9 0.5 0
0.93333333 0.5 0
0.96666667 0.5 0
1 0.5 0
0 0.53333333 0
0.033333333 0.53333333 0
0.066666667 0.53333333 0
0.1 0.53333333 0
0.13333333 0.53333333 0
0.16666667 0.53333333 0
0.2 0.53333333 0
0.23333333 0.53333333 0
0.26666667 0.53333333 0
0.3 0.53333333 0
0.33333333 0.53333333 0
0.36666667 0.53333333 0
0.4 0.53333333 0
0.43333333 0.53333333 0
0.46666667 0.53333333 0
0.5 0.53333333 0
0.53333333 0.53333333 0
0.56666667 0.53333333 0
0.6 0.53333333 0
0.63333333 0.53333333 0
0.66666667 0.53333333 0
0.7 0.53333333 0
0.73333333 0.53333333 0
0.76666667 0.53333333 0
0.8 0.53333333 0
[...]
CELL_DATA 1920
Scalars  Label int 1
LOOKUP_TABLE FreeFempp_table
0
0
0
0
0
0
0
0
0
0
0
0
0
0
0
0
0
0
0
0
0
0
0
0
0
0
0
0
0
0
0
0
0
0
0
0
0
0
0
0
0
0
0
0
0
0
0
0
0
0
0
0
0
0
0
0
0
0
0
0
0
0
0
0
0
0
0
0
0
0
0
0
0
0
0
0
0
0
0
0
0
0
0
0
0
0
0
0
0
0
0
0
0
0
0
0
0
0
0
0
0
0
0
0
0
0
0
0
0
0
0
0
0
0
0
0
0
0
0
0
0
0
0
0
0
0
0
0
0
0
0
0
0
0
0
0
0
0
0
0
0
0
0
0
0
0
0
0
0
0
0
0
0
0
0
0
0
0
0
0
0
0
0
0
0
0
0
0
0
0
0
0
0
0
0
0
0
0
0
0
0
0
0
0
0
0
0
0
0
0
0
0
0
0
0
0
0
0
0
0
0
0
0
0
0
0
0
0
0
0
0
0
0
0
0
0
0
0
0
0
0
0
0
0
0
0
0
0
0
0
0
0
0
0
0
0
0
0
0
0
0
0
0
0
0
0
0
0
0
0
0
0
0
0
0
0
0
0
0
0
0
0
0
0
0
0
0
0
0
0
0
0
0
0
0
0
0
0
0
0
0
0
0
0
0
0
0
0
0
0
0
0
0
0
0
0
0
0
0
0
0
0
0
0
0
0
0
0
0
0
0
0
0
0
0
0
0
0
0
0
0
0
0
0
0
0
0
0
0
0
0
0
0
0
0
0
0
0
0
0
0
0
0
0
0
0
0
0
0
0
0
0
0
0
0
0
0
0
0
0
0
0
0
0
0
0
0
0
0
0
0
0
0
0
0
0
0
0
0
0
0
0
0
0
0
0
0
0
0
0
0
0
0
0
0
0
0
0
0
0
0
0
0
0
0
0
0
0
0
0
0
0
0
0
0
0
0
0
0
0
0
0
0
0
0
0
0
0
0
0
0
0
0
0
0
0
0
0
0
0
0
0
0
0
0
0
0
0
0
0
0
0
0
0
0
0
0
0
0
0
0
0
0
0
0
0
0
0
0
0
0
0
0
0
0
0
0
0
0
0
0
0
0
0
0
0
0
0
0
0
0
0
0
0
0
0
0
0
0
0
0
0
0
0
0
0
0
0
0
0
0
0
0
0
0
0
0
0
0
0
0
0
0
0
0
0
0
0
0
0
0
0
0
0
0
0
0
0
0
0
0
0
0
0
0
0
0
0
0
0
0
0
0
0
0
0
0
0
0
0
0
0
0
0
0
0
0
0
0
0
0
0
0
0
0
0
0
0
0
0
0
0
0
0
0
0
0
0
0
0
0
0
0
0
0
0
0
0
0
0
0
0
0
0
0
0
0
0
0
0
0
0
0
0
0
0
0
0
0
0
0
0
0
0
0
0
0
0
0
0
0
0
0
0
0
0
0
0
0
0
0
0
0
0
0
0
0
0
0
0
0
0
0
0
0
0
0
0
0
0
0
0
0
0
0
0
0
0
0
0
0
0
0
0
0
0
0
0
0
0
0
0
0
0
0
0
0
0
0
0
0
0
0
0
0
0
0
0
0
0
0
0
0
0
0
0
0
0
0
0
0
0
0
0
0
0
0
0
0
0
0
0
0
0
0
0
0
0
0
0
0
0
0
0
0
0
0
0
0
0
0
0
0
0
0
0
0
0
0
0
0
0
0
0
0
0
0
0
0
0
0
0
0
0
0
0
0
0
0
0
0
0
0
0
0
0
0
0
0
0
0
0
0
0
0
0
0
0
0
0
0
0
0
0
0
0
0
0
0
0
0
0
0
0
0
0
0
0
0
0
0
0
0
0
0
0
0
0
0
0
0
0
0
0
0
0
0
0
0
0
0
0
0
0
0
0
0
0
0
0
0
0
0
0
0
0
0
0
0
0
0
0
0
0
0
0
0
0
0
0
0
0
0
0
0
0
0
0
0
0
0
0
0
0
0
0
0
0
0
0
0
0
0
0
0
0
0
0
0
0
0
0
0
0
0
0
0
0
0
0
0
0
0
0
0
0
0
0
0
0
0
0
0
0
0
0
0
0
0
0
0
0
0
0
0
0
0
0
0
0
0
0
0
0
0
0
0
0
0
0
0
0
0
0
0
0
0
0
0
0
0
0
0
0
0
0
0
0
0
0
0
0
0
0
0
0
0
0
0
0
0
0
0
0
0
0
0
0
0
0
0
0
0
0
0
0
0
0
0
0
0
0
0
0
0
0
0
0
0
0
0
0
0
0
0
0
0
0
0
0
0
0
0
0
0
0
0
0
0
0
0
0
0
0
0
0
0
0
0
0
0
0
0
0
0
0
0
0
0
0
0
0
0
0
0
0
0
0
0
0
0
0
0
0
0
0
0
0
0
0
0
0
0
0
0
0
0
0
0
0
0
0
0
0
0
0
0
0
0
0
0
0
0
0
0
0
0
0
0
0
0
0
0
0
0
0
0
0
0
0
0
0
0
0
0
0
0
0
0
0
0
0
0
0
0
0
0
0
0
0
0
0
0
0
0
0
0
0
0
0
0
0
0
0
0
0
0
0
0
0
0
0
0
0
0
0
0
0
0
0
0
0
0
0
0
0
0
0
0
0
0
0
0
0
0
0
0
0
0
0
0
0
0
0
0
0
0
0
0
0
0
0
0
0
0
0
0
0
0
0
0
0
0
0
0
0
0
0
0
0
0
0
0
0
0
0
0
0
0
0
0
0
0
0
0
0
0
0
0
0
0
0
0
0
0
0
0
0
0
0
0
0
0
0
0
0
0
0
0
0
0
0
0
0
0
0
0
0
0
0
0
0
0
0
0
0
0
0
0
0
0
0
0
0
0
0
0
0
0
0
0
0
0
0
0
0
0
0
0
0
0
0
0
0
0
0
0
0
0
0
0
0
0
0
0
0
0
0
0
0
0
0
0
0
0
0
0
0
0
0
0
0
0
0
0
0
0
0
0
0
0
0
0
0
0
0
0
0
0
0
0
0
0
0
0
0
0
0
0
0
0
0
0
0
0
0
0
0
0
0
0
0
0
0
0
0
0
0
0
0
0
0
0
0
0
0
0
0
0
0
0
0
0
0
0
0
0
0
0
0
0
0
0
0
0
0
0
0
0
0
0
0
0
0
0
0
0
0
0
0
0
0
0
0
0
0
0
0
0
0
0
0
0
0
0
0
0
0
0
0
0
0
0
0
0
0
0
0
0
0
0
0
0
0
0
0
0
0
0
0
0
0
0
0
0
0
0
0
0
0
0
0
0
0
0
0
0
0
0
0
0
0
0
0
0
0
0
0
0
0
0
0
0
0
0
0
0
0
0
0
0
0
0
0
0
0
0
0
0
0
0
0
0
0
0
0
0
0
0
0
0
0
0
0
0
0
0
0
0
0
0
0
0
0
0
0
0
0
0
0
0
0
0
0
0
0
0
0
0
0
0
0
0
0
0
0
0
0
0
0
0
0
0
0
0
0
0
0
0
0
0
0
0
0
0
0
0
0
0
0
0
0
0
0
0
0
0
0
0
0
0
0
0
0
0
0
0
0
0
0
0
0
0
0
0
0
0
0
0
0
0
0
0
0
0
0
0
0
0
0
0
0
0
0
0
0
0
0
0
0
0
0
0
0
0
0
0
0
0
0
0
0
0
0
0
0
0
0
0
0
0
0
0
0
0
0
0
0
0
0
0
0
0
0
0
0
0
0
0
0
0
0
0
0
0
0
0
0
0
0
0
0
0
0
0
0
0
0
0
0
0
0
0
0
0
0
0
0
0
0
0
0
0
0
0
0
0
0
0
0
0
0
0
0
0
0
0
0
0
0
0
0
0
0
0
0
0
0
0
0
0
0
0
0
0
0
0
0
0
0
0
0
0
0
0
0
0
0
0
0
0
0
0
0
0
0
0
0
0
0
0
0
0
0
0
0
0
0
0
0
0
0
0
0
0
0
0
0
0
0
0
0
0
0
0
0
0
0
0
0
0
0
0
0
0
0
0
0
0
0
0
0
0
0
0
0
0
0
0
0
0
0
0
0
0
0
0
0
0
0
1
1
1
1
1
1
1
1
1
1
1
1
1
1
1
1
1
1
1
1
1
1
1
1
1
1
1
1
1
1
2
2
2
2
2
2
2
2
2
2
2
2
2
2
2
2
2
2
2
2
2
2
2
2
2
2
2
2
2
2
3
3
3
3
3
3
3
3
3
3
3
3
3
3
3
3
3
3
3
3
3
3
3
3
3
3
3
3
3
3
4
4
4
4
4
4
4
4
4
4
4
4
4
4
4
4
4
4
4
4
4
4
4
4
4
4
4
4
4
4

LOOKUP_TABLE FreeFempp_table 5
1.00000000 0.00000000 0.00000000 1.00000000
1.00000000 1.00000000 0.00000000 1.00000000
1.00000000 0.00000000 1.00000000 1.00000000
0.00000000 1.00000000 0.00000000 1.00000000
0.00000000 1.00000000 1.00000000 1.00000000

POINT_DATA 961
FIELD FieldData 1
Density 1 961 float
4.35698442e-02 5.23423590e-02 5.62916435e-02 5.72426170e-02 5.73252328e-02 5.66267371e-02 5.52091673e-02 5.34240678e-02 5.10338582e-02 4.84203249e-02 4.78288867e-02 2.38511652e-01 4.64478403e-01 5.82086444e-01 6.01638436e-01 5.64040124e-01 4.90795702e-01 3.90756607e-01 2.70805269e-01 1.85604289e-01 1.64816439e-01 1.99355230e-01 2.67707527e-01 3.40660214e-01 3.97021592e-01 4.21698570e-01 4.00051057e-01 3.01901579e-01 4.63093631e-02 4.69109491e-02 2.62144029e-01 4.61808406e-02 4.83204462e-02 5.40896952e-02 5.65827675e-02 5.73112965e-02 5.72414100e-02 5.61682880e-02 5.42425439e-02 5.14357202e-02 4.73633409e-02 4.73910868e-02 4.52617779e-02 4.07114401e-02 2.88244992e-01 6.15787208e-01 6.46223485e-01 5.73965490e-01 4.21429157e-01 1.85484588e-01 9.44930315e-02 8.51414725e-02 9.60991308e-02 1.52405277e-01 2.81827599e-01 4.22532439e-01 4.87389416e-01 4.57135737e-01 3.45059097e-01 5.02480343e-02 4.29009087e-02 6.20173216e-02 1.32017687e-01 1.23085491e-01 1.94942832e-01 2.72767782e-01 2.99477637e-01 3.10660094e-01 3.17004383e-01 3.20669115e-01 3.17544311e-01 2.76244372e-01 1.22890517e-01 4.51127179e-02 4.60814238e-02 4.78307419e-02 4.98913452e-02 4.59004417e-02 4.50727865e-02 5.79580106e-02 7.58531615e-02 1.12896860e-01 1.88997373e-01 2.63323247e-01 3.36847693e-01 4.20349658e-01 4.90724027e-01 5.11122108e-01 4.83821064e-01 4.34069693e-01 3.19889069e-01 4.29265611e-02 4.46787924e-02 1.46277294e-01 1.31524444e-01 2.65997350e-01 3.38027090e-01 3.59075606e-01 3.70417356e-01 3.79163802e-01 3.85719121e-01 3.88430446e-01 3.83022487e-01 3.59374762e-01 2.98402697e-01 1.57809228e-01 4.27260622e-02 4.64518517e-02 4.34035286e-02 4.05113511e-02 3.63817774e-02 5.54427914e-02 9.83468220e-02 3.14192802e-01 4.75361109e-01 5.26236475e-01 5.47099650e-01 5.52428484e-01 5.34590781e-01 4.92158204e-01 4.39622521e-01 3.92214537e-01 4.25480492e-02 4.33938727e-02 1.81911305e-01 1.49363205e-01 2.94371545e-01 3.59624356e-01 3.79172474e-01 3.89490247e-01 3.96099329e-01 4.00035322e-01 4.00736600e-01 3.96721244e-01 3.85795712e-01 3.65460217e-01 3.31263512e-01 2.76676089e-01 2.11784258e-01 1.42048523e-01 8.18803012e-02 6.52204752e-02 1.25327349e-01 2.18302071e-01 4.03102726e-01 5.02470613e-01 5.33758461e-01 5.38258016e-01 5.30794263e-01 5.13355076e-01 4.84670192e-01 4.45514113e-01 4.06355441e-01 4.48304303e-02 4.40569930e-02 2.49016002e-01 1.81382924e-01 3.35848093e-01 3.85218859e-01 4.02098954e-01 4.10588115e-01 4.14997727e-01 4.17056441e-01 4.17077988e-01 4.14598078e-01 4.08855051e-01 3.99252206e-01 3.85236442e-01 3.66011947e-01 3.41511309e-01 3.09976310e-01 2.80509531e-01 2.60827720e-01 2.68761724e-01 3.38253230e-01 4.31167454e-01 4.92372155e-01 5.18807650e-01 5.25003314e-01 5.20348728e-01 5.07891417e-01 4.86784160e-01 4.54095334e-01 4.06504720e-01 4.68689539e-02 4.57964204e-02 3.27859968e-01 2.34631151e-01 4.07308161e-01 4.23898816e-01 4.33887869e-01 4.37766880e-01 4.38853651e-01 4.38658386e-01 4.37607646e-01 4.35469955e-01 4.31798816e-01 4.26305294e-01 4.18939888e-01 4.09715265e-01 3.98521751e-01 3.84697825e-01 3.70765239e-01 3.60651582e-01 3.64391744e-01 3.97385716e-01 4.44907993e-01 4.82600749e-01 5.03832400e-01 5.11824250e-01 5.10759890e-01 5.03017068e-01 4.88502651e-01 4.61831272e-01 4.03095782e-01 4.80609462e-02 4.70836349e-02 3.98366660e-01 3.12211722e-01 4.93900508e-01 4.71105456e-01 4.71641868e-01 4.68529165e-01 4.65013832e-01 4.61634666e-01 4.58422631e-01 4.55032587e-01 4.51045364e-01 4.46207732e-01 4.40486223e-01 4.33948040e-01 4.26612049e-01 4.18515742e-01 4.10979658e-01 4.06760067e-01 4.11424965e-01 4.30346191e-01 4.56881821e-01 4.80012149e-01 4.95092690e-01 5.02145886e-01 5.02676725e-01 4.98268694e-01 4.89186168e-01 4.68225926e-01 4.01273280e-01 4.88716103e-02 4.78305928e-02 4.49155211e-01 3.97745937e-01 5.64668059e-01 5.14758706e-01 5.06431460e-01 4.96504337e-01 4.88462448e-01 4.81769353e-01 4.76029456e-01 4.70784962e-01 4.65655476e-01 4.60439533e-01 4.55102086e-01 4.49695617e-01 4.44337338e-01 4.39386845e-01 4.35906798e-01 4.35691237e-01 4.41208899e-01 4.53519732e-01 4.68849599e-01 4.82267797e-01 4.91439104e-01 4.95970100e-01 4.96349424e-01 4.93560284e-01 4.87942189e-01 4.71731901e-01 4.02071625e-01 4.97253016e-02 4.83607613e-02 4.66396630e-01 4.51315075e-01 5.93630314e-01 5.40238738e-01 5.27453959e-01 5.14473021e-01 5.04193723e-01 4.95653033e-01 4.88385528e-01 4.82013762e-01 4.76288944e-01 4.71100986e-01 4.66420561e-01 4.62262422e-01 4.58766669e-01 4.56387818e-01 4.55945522e-01 4.58266586e-01 4.63750362e-01 4.71683651e-01 4.79885876e-01 4.86430198e-01 4.90601659e-01 4.92316514e-01 4.91718948e-01 4.89199758e-01 4.84764367e-01 4.71319407e-01 4.04129952e-01 5.07089831e-02 4.89320457e-02 4.31894600e-01 4.30391431e-01 5.63533425e-01 5.34250855e-01 5.26657879e-01 5.17467737e-01 5.09118795e-01 5.01540601e-01 4.94818509e-01 4.88949418e-01 4.83931363e-01 4.79772627e-01 4.76445556e-01 4.73919004e-01 4.72324014e-01 4.72105950e-01 4.73804086e-01 4.77429926e-01 4.82157230e-01 4.86649424e-01 4.89743024e-01 4.91133064e-01 4.91150498e-01 4.90140975e-01 4.88212377e-01 4.85205054e-01 4.80339170e-01 4.67098266e-01 4.03099090e-01 5.16174957e-02 4.96610031e-02 3.38570207e-01 3.29692155e-01 4.68961298e-01 4.91427928e-01 5.02893865e-01 5.04999399e-01 5.03002167e-01 4.99365777e-01 4.95420158e-01 4.91829038e-01 4.88934100e-01 4.86860305e-01 4.85551149e-01 4.84932661e-01 4.85129535e-01 4.86600518e-01 4.89698499e-01 4.93835330e-01 4.97531354e-01 4.99361634e-01 4.98812020e-01 4.96374458e-01 4.92906421e-01 4.89097238e-01 4.85277355e-01 4.81121361e-01 4.74999279e-01 4.59355593e-01 3.90136659e-01 5.23467585e-02 5.07733338e-02 2.24705771e-01 2.22209513e-01 3.44744653e-01 4.27718908e-01 4.65583980e-01 4.82271463e-01 4.88771915e-01 4.90711749e-01 4.90893483e-01 4.90732610e-01 4.90925014e-01 4.91665393e-01 4.92801696e-01 4.94172513e-01 4.95991707e-01 4.98609900e-01 5.02597332e-01 5.07024825e-01 5.10019302e-01 5.10294199e-01 5.07703006e-01 5.02944827e-01 4.96882528e-01 4.90237445e-01 4.83568966e-01 4.76829737e-01 4.67891157e-01 4.46331531e-01 3.57471198e-01 5.49631082e-02 5.32018021e-02 1.54681832e-01 1.65856779e-01 2.62660474e-01 3.78178746e-01 4.31911528e-01 4.58446413e-01 4.71697122e-01 4.78651881e-01 4.82854664e-01 4.86196041e-01 4.89614457e-01 4.93292660e-01 4.96889591e-01 5.00104606e-01 5.03363431e-01 5.06933808e-01 5.11352539e-01 5.16270876e-01 5.19411504e-01 5.19575238e-01 5.16808271e-01 5.11663437e-01 5.04626572e-01 4.96005118e-01 4.86059964e-01 4.74598348e-01 4.58947271e-01 4.25966412e-01 3.12058866e-01 6.39120415e-02 5.85794821e-02 1.12069674e-01 1.28463224e-01 2.43817866e-01 3.61824423e-01 4.13443416e-01 4.40989584e-01 4.56836104e-01 4.66653764e-01 4.73600984e-01 4.79578614e-01 4.85595316e-01 4.91782844e-01 4.97525901e-01 5.02314448e-01 5.07087231e-01 5.10509789e-01 5.16386151e-01 5.21446526e-01 5.25563598e-01 5.26965618e-01 5.25794327e-01 5.22371888e-01 5.16733408e-01 5.08565664e-01 4.97227103e-01 4.81161118e-01 4.55847561e-01 4.07903999e-01 2.79973060e-01 8.37312788e-02 7.05580935e-02 7.80999660e-02 9.20167491e-02 2.68639356e-01 3.68707091e-01 4.08192635e-01 4.31373745e-01 4.46469933e-01 4.56936330e-01 4.65067923e-01 4.72473115e-01 4.80087787e-01 4.88012224e-01 4.95482862e-01 5.01666188e-01 5.06187737e-01 5.10117650e-01 5.16617298e-01 5.23003459e-01 5.28150260e-01 5.31596065e-01 5.33192515e-01 5.33159435e-01 5.31304359e-01 5.26977003e-01 5.18827140e-01 5.03894866e-01 4.75664169e-01 4.21619624e-01 2.97395855e-01 1.12984627e-01 9.72570628e-02 6.25970587e-02 7.25992620e-02 3.10286641e-01 3.79526049e-01 4.07903045e-01 4.26631540e-01 4.39898908e-01 4.49788362e-01 4.58004415e-01 4.65841144e-01 4.74088907e-01 4.82825965e-01 4.91351396e-01 4.98619765e-01 5.04897356e-01 5.09489179e-01 5.16030312e-01 5.21199226e-01 5.26915789e-01 5.32139421e-01 5.36687076e-01 5.40641427e-01 5.43872595e-01 5.45895696e-01 5.45474410e-01 5.39655626e-01 5.22416115e-01 4.83858734e-01 3.99211973e-01 1.69906318e-01 1.59776047e-01 5.82419708e-02 6.94634393e-02 3.38763535e-01 3.86857241e-01 4.08399940e-01 4.23922509e-01 4.35394049e-01 4.44331139e-01 4.52126592e-01 4.59816694e-01 4.68022466e-01 4.76803154e-01 4.85584646e-01 4.93428022e-01 4.99849021e-01 5.05529404e-01 5.10833859e-01 5.15989661e-01 5.21630883e-01 5.27741849e-01 5.34366250e-01 5.41574895e-01 5.49430490e-01 5.57878673e-01 5.66300809e-01 5.72660923e-01 5.73174417e-01 5.62298477e-01 5.59342384e-01 3.25666428e-01 2.97337025e-01 5.65906167e-02 6.62719011e-02 3.47168177e-01 3.93495589e-01 4.10095304e-01 4.22259778e-01 4.31738615e-01 4.39574510e-01 4.46770459e-01 4.54054624e-01 4.61839348e-01 4.70143050e-01 4.78529453e-01 4.86263841e-01 4.92760867e-01 4.98101324e-01 5.02886713e-01 5.07443845e-01 5.12534857e-01 5.18622577e-01 5.25962472e-01 5.34740627e-01 5.45213163e-01 5.57697952e-01 5.72074115e-01 5.86896896e-01 5.99763095e-01 6.06645167e-01 6.74542189e-01 5.11584401e-01 4.67393488e-01 5.49276583e-02 6.15093298e-02 3.48322034e-01 4.02248710e-01 4.13912892e-01 4.21544582e-01 4.28398669e-01 4.34890062e-01 4.41388041e-01 4.48176295e-01 4.55391735e-01 4.62964475e-01 4.70558107e-01 4.77632821e-01 4.83697712e-01 4.88631457e-01 4.92765129e-01 4.96647269e-01 5.00969112e-01 5.06330848e-01 5.13087511e-01 5.21495521e-01 5.31913161e-01 5.44816256e-01 5.60208261e-01 5.76481164e-01 5.90849340e-01 5.99300325e-01 6.89476430e-01 5.22595763e-01 5.47986329e-01 5.28344996e-02 5.72592840e-02 3.52072537e-01 4.13053572e-01 4.19485569e-01 4.21566099e-01 4.25105929e-01 4.29959983e-01 4.35679644e-01 4.41973507e-01 4.48643208e-01 4.55487669e-01 4.62220103e-01 4.68461990e-01 4.73862499e-01 4.78287876e-01 4.81922001e-01 4.85196620e-01 4.88678157e-01 4.92863655e-01 4.98073339e-01 5.04534304e-01 5.12556016e-01 5.22554040e-01 5.34390092e-01 5.45811713e-01 5.52208304e-01 5.49565077e-01 6.07133090e-01 3.74959320e-01 5.04008591e-01 5.05912080e-02 5.32894880e-02 3.60984951e-01 4.24642920e-01 4.25515741e-01 4.21617270e-01 4.21488702e-01 4.24572915e-01 4.29515690e-01 4.35384274e-01 4.41627771e-01 4.47902173e-01 4.53932643e-01 4.59451884e-01 4.64231193e-01 4.68171388e-01 4.71367806e-01 4.74087328e-01 4.76686746e-01 4.79480445e-01 4.82656986e-01 4.86318797e-01 4.90613729e-01 4.95798588e-01 5.01659453e-01 5.05639136e-01 5.01433551e-01 4.83525932e-01 4.74762887e-01 2.56378710e-01 3.87134284e-01 4.84756418e-02 4.97646853e-02 3.74897957e-01 4.35150683e-01 4.30228204e-01 4.20553029e-01 4.17009890e-01 4.18548971e-01 4.22870934e-01 4.28430796e-01 4.34374869e-01 4.40246910e-01 4.45774943e-01 4.50759292e-01 4.55047935e-01 4.58565444e-01 4.61341828e-01 4.63500619e-01 4.65207756e-01 4.66592878e-01 4.67691630e-01 4.68457401e-01 4.68868613e-01 4.69089448e-01 4.69208896e-01 4.67557997e-01 4.58440125e-01 4.34495747e-01 3.85419190e-01 2.10319698e-01 2.73247093e-01 4.64142524e-02 4.70406339e-02 3.91799062e-01 4.41990286e-01 4.31506455e-01 4.17143553e-01 4.11227047e-01 4.11869943e-01 4.15871322e-01 4.21231091e-01 4.26922113e-01 4.32449222e-01 4.37563151e-01 4.42111641e-01 4.45984662e-01 4.49112296e-01 4.51473147e-01 4.53084737e-01 4.53971386e-01 4.54118550e-01 4.53439325e-01 4.51783776e-01 4.49043453e-01 4.45424736e-01 4.41634268e-01 4.37893301e-01 4.31341648e-01 4.14627790e-01 3.62809241e-01 1.87647894e-01 2.20514804e-01 4.36971188e-02 4.46875915e-02 4.08273816e-01 4.42713261e-01 4.27523017e-01 4.10750955e-01 4.04266715e-01 4.04941022e-01 4.08922672e-01 4.14066583e-01 4.19377983e-01 4.24429864e-01 4.29034859e-01 4.33087170e-01 4.36503381e-01 4.39212441e-01 4.41157401e-01 4.42286879e-01 4.42532718e-01 4.41783190e-01 4.39872742e-01 4.36609775e-01 4.31889892e-01 4.26026821e-01 4.20279592e-01 4.16673750e-01 4.15722936e-01 4.10861850e-01 3.67951661e-01 1.67054608e-01 1.98502302e-01 4.04098704e-02 4.12343256e-02 4.23187584e-01 4.36658978e-01 4.18043077e-01 4.02199626e-01 3.97295892e-01 3.98812503e-01 4.02792573e-01 4.07399267e-01 4.11929905e-01 4.16144550e-01 4.19954777e-01 4.23299640e-01 4.26110864e-01 4.28313404e-01 4.29830015e-01 4.30574805e-01 4.30435300e-01 4.29253548e-01 4.26829666e-01 4.22970116e-01 4.17606801e-01 4.11098450e-01 4.04879242e-01 4.01872247e-01 4.05046344e-01 4.09972072e-01 3.77918065e-01 1.39750421e-01 1.75490409e-01 5.54809012e-02 4.73591872e-02 4.44999218e-01 4.27186251e-01 4.06063706e-01 3.94417882e-01 3.92668456e-01 3.95093262e-01 3.98422986e-01 4.01680171e-01 4.04707849e-01 4.07524794e-01 4.10132349e-01 4.12482679e-01 4.14495140e-01 4.16077912e-01 4.17139888e-01 4.17587876e-01 4.17312741e-01 4.16174471e-01 4.14007574e-01 4.10669863e-01 4.06135678e-01 4.00645047e-01 3.95209253e-01 3.92690837e-01 3.97782594e-01 4.10839617e-01 4.06680077e-01 1.07318208e-01 1.44699067e-01 8.21084231e-02 1.33949876e-01 5.05774379e-01 4.29846495e-01 3.99766654e-01 3.92263442e-01 3.93128872e-01 3.95017028e-01 3.96140099e-01 3.96830350e-01 3.97530824e-01 3.98424685e-01 3.99498582e-01 4.00643826e-01 4.01723951e-01 4.02609527e-01 4.03191268e-01 4.03379947e-01 4.03100222e-01 4.02287543e-01 4.00902063e-01 3.98976892e-01 3.96676451e-01 3.94199163e-01 3.91541332e-01 3.90134662e-01 3.98796797e-01 4.33627129e-01 5.02794743e-01 8.14312771e-02 1.11395694e-01 8.22729543e-02 7.94543028e-02 5.83553135e-01 4.84645158e-01 4.12911683e-01 3.99300963e-01 3.98286641e-01 3.96847695e-01 3.94242615e-01 3.91726077e-01 3.89918804e-01 3.88893068e-01 3.88487130e-01 3.88480574e-01 3.88666719e-01 3.88875484e-01 3.88976634e-01 3.88878107e-01 3.88528764e-01 3.87934178e-01 3.87196064e-01 3.86592001e-01 3.86699319e-01 3.88420731e-01 3.92391324e-01 3.98971558e-01 4.26151276e-01 5.27575910e-01 5.51638424e-01 6.98126182e-02 9.15482268e-02 1.56230265e-02 4.20356616e-02 7.20133305e-01 5.82327068e-01 4.39636081e-01 4.03260767e-01 3.98330212e-01 3.94417852e-01 3.89704645e-01 3.85544330e-01 3.82448375e-01 3.80365968e-01 3.79063189e-01 3.78287435e-01 3.77819359e-01 3.77480567e-01 3.77127647e-01 3.76646459e-01 3.75956446e-01 3.75033021e-01 3.73956323e-01 3.72998118e-01 3.72804284e-01 3.74944866e-01 3.83783162e-01 4.12595958e-01 4.98497576e-01 5.89982152e-01 6.50348306e-01 7.30699152e-02 9.73331705e-02 3.17628458e-02 1.14872316e-02 7.54336178e-01 3.81664246e-01 4.19212162e-01 4.10346001e-01 4.12951350e-01 4.13940758e-01 4.13015813e-01 4.11445230e-01 4.09961849e-01 4.08802003e-01 4.07972544e-01 4.07401204e-01 4.06998962e-01 4.06679988e-01 4.06364352e-01 4.05975908e-01 4.05442923e-01 4.04708445e-01 4.03757602e-01 4.02665019e-01 4.01667655e-01 4.01340008e-01 4.03228283e-01 4.11416471e-01 4.35165614e-01 5.00014663e-01 6.70048714e-01 1.07904360e-01 8.98901671e-02 
