# vtk DataFile Version 2.0
results/iter3.vtk, Created by Freefem++ 
ASCII
DATASET UNSTRUCTURED_GRID
POINTS 961 float
0 0 0
0.033333333 0 0
0.066666667 0 0
0.1 0 0
0.13333333 0 0
0.16666667 0 0
0.2 0 0
0.23333333 0 0
0.26666667 0 0
0.3 0 0
0.33333333 0 0
0.36666667 0 0
0.4 0 0
0.43333333 0 0
0.46666667 0 0
0.5 0 0
0.53333333 0 0
0.56666667 0 0
0.6 0 0
0.63333333 0 0
0.66666667 0 0
0.7 0 0
0.73333333 0 0
0.76666667 0 0
0.8 0 0
0.83333333 0 0
0.86666667 0 0
0.9 0 0
0.93333333 0 0
0.96666667 0 0
1 0 0
0 0.033333333 0
0.033333333 0.033333333 0
0.066666667 0.033333333 0
0.1 0.033333333 0
0.13333333 0.033333333 0
0.16666667 0.033333333 0
0.2 0.033333333 0
0.23333333 0.033333333 0
0.26666667 0.033333333 0
0.3 0.033333333 0
0.33333333 0.033333333 0
0.36666667 0.033333333 0
0.4 0.033333333 0
0.43333333 0.033333333 0
0.46666667 0.033333333 0
0.5 0.033333333 0
0.53333333 0.033333333 0
0.56666667 0.033333333 0
0.6 0.033333333 0
0.63333333 0.033333333 0
0.66666667 0.033333333 0
0.7 0.033333333 0
0.73333333 0.033333333 0
0.76666667 0.033333333 0
0.8 0.033333333 0
0.83333333 0.033333333 0
0.86666667 0.033333333 0
0.9 0.033333333 0
0.93333333 0.033333333 0
0.96666667 0.033333333 0
1 0.033333333 0
0 0.066666667 0
0.033333333 0.066666667 0
0.066666667 0.066666667 0
0.1 0.066666667 0
0.13333333 0.066666667 0
0.16666667 0.066666667 0
0.2 0.066666667 0
0.23333333 0.066666667 0
0.26666667 0.066666667 0
0.3 0.066666667 0
0.33333333 0.066666667 0
0.36666667 0.066666667 0
0.4 0.066666667 0
0.43333333 0.066666667 0
0.46666667 0.066666667 0
0.5 0.066666667 0
0.53333333 0.066666667 0
0.56666667 0.066666667 0
0.6 0.066666667 0
0.63333333 0.066666667 0
0.66666667 0.066666667 0
0.7 0.066666667 0
0.73333333 0.066666667 0
0.76666667 0.066666667 0
0.8 0.066666667 0
0.83333333 0.066666667 0
0.86666667 0.066666667 0
0.9 0.066666667 0
0.93333333 0.066666667 0
0.96666667 0.066666667 0
1 0.066666667 0
0 0.1 0
0.033333333 0.1 0
0.066666667 0.1 0
0.1 0.1 0
0.13333333 0.1 0
0.16666667 0.1 0
0.2 0.1 0
0.23333333 0.1 0
0.26666667 0.1 0
0.3 0.1 0
0.33333333 0.1 0
0.36666667 0.1 0
0.4 0.1 0
0.43333333 0.1 0
0.46666667 0.1 0
0.5 0.1 0
0.53333333 0.1 0
0.56666667 0.1 0
0.6 0.1 0
0.63333333 0.1 0
0.66666667 0.1 0
0.7 0.1 0
0.73333333 0.1 0
0.76666667 0.1 0
0.8 0.1 0
0.83333333 0.1 0
0.86666667 0.1 0
0.9 0.1 0
0.93333333 0.1 0
0.96666667 0.1 0
1 0.1 0
0 0.13333333 0
0.033333333 0.13333333 0
0.066666667 0.13333333 0
0.1 0.13333333 0
0.13333333 0.13333333 0
0.16666667 0.13333333 0
0.2 0.13333333 0
0.23333333 0.13333333 0
0.26666667 0.13333333 0
0.3 0.13333333 0
0.33333333 0.13333333 0
0.36666667 0.13333333 0
0.4 0.13333333 0
0.43333333 0.13333333 0
0.46666667 0.13333333 0
0.5 0.13333333 0
0.53333333 0.13333333 0
0.56666667 0.13333333 0
0.6 0.13333333 0
0.63333333 0.13333333 0
0.66666667 0.13333333 0
0.7 0.13333333 0
0.73333333 0.13333333 0
0.76666667 0.13333333 0
0.8 0.13333333 0
0.83333333 0.13333333 0
0.86666667 0.13333333 0
0.9 0.13333333 0
0.93333333 0.13333333 0
0.96666667 0.13333333 0
1 0.13333333 0
0 0.16666667 0
0.033333333 0.16666667 0
0.066666667 0.16666667 0
0.1 0.16666667 0
0.13333333 0.16666667 0
0.16666667 0.16666667 0
0.2 0.16666667 0
0.23333333 0.16666667 0
0.26666667 0.16666667 0
0.3 0.16666667 0
0.33333333 0.16666667 0
0.36666667 0.16666667 0
0.4 0.16666667 0
0.43333333 0.16666667 0
0.46666667 0.16666667 0
0.5 0.16666667 0
0.53333333 0.16666667 0
0.56666667 0.16666667 0
0.6 0.16666667 0
0.63333333 0.16666667 0
0.66666667 0.16666667 0
0.7 0.16666667 0
0.73333333 0.16666667 0
0.76666667 0.16666667 0
0.8 0.16666667 0
0.83333333 0.16666667 0
0.86666667 0.16666667 0
0.9 0.16666667 0
0.93333333 0.16666667 0
0.96666667 0.16666667 0
1 0.16666667 0
0 0.2 0
0.033333333 0.2 0
0.066666667 0.2 0
0.1 0.2 0
0.13333333 0.2 0
0.16666667 0.2 0
0.2 0.2 0
0.23333333 0.2 0
0.26666667 0.2 0
0.3 0.2 0
0.33333333 0.2 0
0.36666667 0.2 0
0.4 0.2 0
0.43333333 0.2 0
0.46666667 0.2 0
0.5 0.2 0
0.53333333 0.2 0
0.56666667 0.2 0
0.6 0.2 0
0.63333333 0.2 0
0.66666667 0.2 0
0.7 0.2 0
0.73333333 0.2 0
0.76666667 0.2 0
0.8 0.2 0
0.83333333 0.2 0
0.86666667 0.2 0
0.9 0.2 0
0.93333333 0.2 0
0.96666667 0.2 0
1 0.2 0
0 0.23333333 0
0.033333333 0.23333333 0
0.066666667 0.23333333 0
0.1 0.23333333 0
0.13333333 0.23333333 0
0.16666667 0.23333333 0
0.2 0.23333333 0
0.23333333 0.23333333 0
0.26666667 0.23333333 0
0.3 0.23333333 0
0.33333333 0.23333333 0
0.36666667 0.23333333 0
0.4 0.23333333 0
0.43333333 0.23333333 0
0.46666667 0.23333333 0
0.5 0.23333333 0
0.53333333 0.23333333 0
0.56666667 0.23333333 0
0.6 0.23333333 0
0.63333333 0.23333333 0
0.66666667 0.23333333 0
0.7 0.23333333 0
0.73333333 0.23333333 0
0.76666667 0.23333333 0
0.8 0.23333333 0
0.83333333 0.23333333 0
0.86666667 0.23333333 0
0.9 0.23333333 0
0.93333333 0.23333333 0
0.96666667 0.23333333 0
1 0.23333333 0
0 0.26666667 0
0.033333333 0.26666667 0
0.066666667 0.26666667 0
0.1 0.26666667 0
0.13333333 0.26666667 0
0.16666667 0.26666667 0
0.2 0.26666667 0
0.23333333 0.26666667 0
0.26666667 0.26666667 0
0.3 0.26666667 0
0.33333333 0.26666667 0
0.36666667 0.26666667 0
0.4 0.26666667 0
0.43333333 0.26666667 0
0.46666667 0.26666667 0
0.5 0.26666667 0
0.53333333 0.26666667 0
0.56666667 0.26666667 0
0.6 0.26666667 0
0.63333333 0.26666667 0
0.66666667 0.26666667 0
0.7 0.26666667 0
0.73333333 0.26666667 0
0.76666667 0.26666667 0
0.8 0.26666667 0
0.83333333 0.26666667 0
0.86666667 0.26666667 0
0.9 0.26666667 0
0.93333333 0.26666667 0
0.96666667 0.26666667 0
1 0.26666667 0
0 0.3 0
0.033333333 0.3 0
0.066666667 0.3 0
0.1 0.3 0
0.13333333 0.3 0
0.16666667 0.3 0
0.2 0.3 0
0.23333333 0.3 0
0.26666667 0.3 0
0.3 0.3 0
0.33333333 0.3 0
0.36666667 0.3 0
0.4 0.3 0
0.43333333 0.3 0
0.46666667 0.3 0
0.5 0.3 0
0.53333333 0.3 0
0.56666667 0.3 0
0.6 0.3 0
0.63333333 0.3 0
0.66666667 0.3 0
0.7 0.3 0
0.73333333 0.3 0
0.76666667 0.3 0
0.8 0.3 0
0.83333333 0.3 0
0.86666667 0.3 0
0.9 0.3 0
0.93333333 0.3 0
0.96666667 0.3 0
1 0.3 0
0 0.33333333 0
0.033333333 0.33333333 0
0.066666667 0.33333333 0
0.1 0.33333333 0
0.13333333 0.33333333 0
0.16666667 0.33333333 0
0.2 0.33333333 0
0.23333333 0.33333333 0
0.26666667 0.33333333 0
0.3 0.33333333 0
0.33333333 0.33333333 0
0.36666667 0.33333333 0
0.4 0.33333333 0
0.43333333 0.33333333 0
0.46666667 0.33333333 0
0.5 0.33333333 0
0.53333333 0.33333333 0
0.56666667 0.33333333 0
0.6 0.33333333 0
0.63333333 0.33333333 0
0.66666667 0.33333333 0
0.7 0.33333333 0
0.73333333 0.33333333 0
0.76666667 0.33333333 0
0.8 0.33333333 0
0.83333333 0.33333333 0
0.86666667 0.33333333 0
0.9 0.33333333 0
0.93333333 0.33333333 0
0.96666667 0.33333333 0
1 0.33333333 0
0 0.36666667 0
0.033333333 0.36666667 0
0.066666667 0.36666667 0
0.1 0.36666667 0
0.13333333 0.36666667 0
0.16666667 0.36666667 0
0.2 0.36666667 0
0.23333333 0.36666667 0
0.26666667 0.36666667 0
0.3 0.36666667 0
0.33333333 0.36666667 0
0.36666667 0.36666667 0
0.4 0.36666667 0
0.43333333 0.36666667 0
0.46666667 0.36666667 0
0.5 0.36666667 0
0.53333333 0.36666667 0
0.56666667 0.36666667 0
0.6 0.36666667 0
0.63333333 0.36666667 0
0.66666667 0.36666667 0
0.7 0.36666667 0
0.73333333 0.36666667 0
0.76666667 0.36666667 0
0.8 0.36666667 0
0.83333333 0.36666667 0
0.86666667 0.36666667 0
0.9 0.36666667 0
0.93333333 0.36666667 0
0.96666667 0.36666667 0
1 0.36666667 0
0 0.4 0
0.033333333 0.4 0
0.066666667 0.4 0
0.1 0.4 0
0.13333333 0.4 0
0.16666667 0.4 0
0.2 0.4 0
0.23333333 0.4 0
0.26666667 0.4 0
0.3 0.4 0
0.33333333 0.4 0
0.36666667 0.4 0
0.4 0.4 0
0.43333333 0.4 0
0.46666667 0.4 0
0.5 0.4 0
0.53333333 0.4 0
0.56666667 0.4 0
0.6 0.4 0
0.63333333 0.4 0
0.66666667 0.4 0
0.7 0.4 0
0.73333333 0.4 0
0.76666667 0.4 0
0.8 0.4 0
0.83333333 0.4 0
0.86666667 0.4 0
0.9 0.4 0
0.93333333 0.4 0
0.96666667 0.4 0
1 0.4 0
0 0.43333333 0
0.033333333 0.43333333 0
0.066666667 0.43333333 0
0.1 0.43333333 0
0.13333333 0.43333333 0
0.16666667 0.43333333 0
0.2 0.43333333 0
0.23333333 0.43333333 0
0.26666667 0.43333333 0
0.3 0.43333333 0
0.33333333 0.43333333 0
0.36666667 0.43333333 0
0.4 0.43333333 0
0.43333333 0.43333333 0
0.46666667 0.43333333 0
0.5 0.43333333 0
0.53333333 0.43333333 0
0.56666667 0.43333333 0
0.6 0.43333333 0
0.63333333 0.43333333 0
0.66666667 0.43333333 0
0.7 0.43333333 0
0.73333333 0.43333333 0
0.76666667 0.43333333 0
0.8 0.43333333 0
0.83333333 0.43333333 0
0.86666667 0.43333333 0
0.9 0.43333333 0
0.93333333 0.43333333 0
0.96666667 0.43333333 0
1 0.43333333 0
0 0.46666667 0
0.033333333 0.46666667 0
0.066666667 0.46666667 0
0.1 0.46666667 0
0.13333333 0.46666667 0
0.16666667 0.46666667 0
0.2 0.46666667 0
0.23333333 0.46666667 0
0.26666667 0.46666667 0
0.3 0.46666667 0
0.33333333 0.46666667 0
0.36666667 0.46666667 0
0.4 0.46666667 0
0.43333333 0.46666667 0
0.46666667 0.46666667 0
0.5 0.46666667 0
0.53333333 0.46666667 0
0.56666667 0.46666667 0
0.6 0.46666667 0
0.63333333 0.46666667 0
0.66666667 0.46666667 0
0.7 0.46666667 0
0.73333333 0.46666667 0
0.76666667 0.46666667 0
0.8 0.46666667 0
0.83333333 0.46666667 0
0.86666667 0.46666667 0
0.9 0.46666667 0
0.93333333 0.46666667 0
0.96666667 0.46666667 0
1 0.46666667 0
0 0.5 0
0.033333333 0.5 0
0.066666667 0.5 0
0.1 0.5 0
0.13333333 0.5 0
0.16666667 0.5 0
0.2 0.5 0
0.23333333 0.5 0
0.26666667 0.5 0
0.3 0.5 0
0.33333333 0.5 0
0.36666667 0.5 0
0.4 0.5 0
0.43333333 0.5 0
0.46666667 0.5 0
0.5 0.5 0
0.53333333 0.5 0
0.56666667 0.5 0
0.6 0.5 0
0.63333333 0.5 0
0.66666667 0.5 0
0.7 0.5 0
0.73333333 0.5 0
0.76666667 0.5 0
0.8 0.5 0
0.83333333 0.5 0
0.86666667 0.5 0
0.9 0.5 0
0.93333333 0.5 0
0.96666667 0.5 0
1 0.5 0
0 0.53333333 0
0.033333333 0.53333333 0
0.066666667 0.53333333 0
0.1 0.53333333 0
0.13333333 0.53333333 0
0.16666667 0.53333333 0
0.2 0.53333333 0
0.23333333 0.53333333 0
0.26666667 0.53333333 0
0.3 0.53333333 0
0.33333333 0.53333333 0
0.36666667 0.53333333 0
0.4 0.53333333 0
0.43333333 0.53333333 0
0.46666667 0.53333333 0
0.5 0.53333333 0
0.53333333 0.53333333 0
0.56666667 0.53333333 0
0.6 0.53333333 0
0.63333333 0.53333333 0
0.66666667 0.53333333 0
0.7 0.53333333 0
0.73333333 0.53333333 0
0.76666667 0.53333333 0
0.8 0.53333333 0
[...]
CELL_DATA 1920
Scalars  Label int 1
LOOKUP_TABLE FreeFempp_table
0
0
0
0
0
0
0
0
0
0
0
0
0
0
0
0
0
0
0
0
0
0
0
0
0
0
0
0
0
0
0
0
0
0
0
0
0
0
0
0
0
0
0
0
0
0
0
0
0
0
0
0
0
0
0
0
0
0
0
0
0
0
0
0
0
0
0
0
0
0
0
0
0
0
0
0
0
0
0
0
0
0
0
0
0
0
0
0
0
0
0
0
0
0
0
0
0
0
0
0
0
0
0
0
0
0
0
0
0
0
0
0
0
0
0
0
0
0
0
0
0
0
0
0
0
0
0
0
0
0
0
0
0
0
0
0
0
0
0
0
0
0
0
0
0
0
0
0
0
0
0
0
0
0
0
0
0
0
0
0
0
0
0
0
0
0
0
0
0
0
0
0
0
0
0
0
0
0
0
0
0
0
0
0
0
0
0
0
0
0
0
0
0
0
0
0
0
0
0
0
0
0
0
0
0
0
0
0
0
0
0
0
0
0
0
0
0
0
0
0
0
0
0
0
0
0
0
0
0
0
0
0
0
0
0
0
0
0
0
0
0
0
0
0
0
0
0
0
0
0
0
0
0
0
0
0
0
0
0
0
0
0
0
0
0
0
0
0
0
0
0
0
0
0
0
0
0
0
0
0
0
0
0
0
0
0
0
0
0
0
0
0
0
0
0
0
0
0
0
0
0
0
0
0
0
0
0
0
0
0
0
0
0
0
0
0
0
0
0
0
0
0
0
0
0
0
0
0
0
0
0
0
0
0
0
0
0
0
0
0
0
0
0
0
0
0
0
0
0
0
0
0
0
0
0
0
0
0
0
0
0
0
0
0
0
0
0
0
0
0
0
0
0
0
0
0
0
0
0
0
0
0
0
0
0
0
0
0
0
0
0
0
0
0
0
0
0
0
0
0
0
0
0
0
0
0
0
0
0
0
0
0
0
0
0
0
0
0
0
0
0
0
0
0
0
0
0
0
0
0
0
0
0
0
0
0
0
0
0
0
0
0
0
0
0
0
0
0
0
0
0
0
0
0
0
0
0
0
0
0
0
0
0
0
0
0
0
0
0
0
0
0
0
0
0
0
0
0
0
0
0
0
0
0
0
0
0
0
0
0
0
0
0
0
0
0
0
0
0
0
0
0
0
0
0
0
0
0
0
0
0
0
0
0
0
0
0
0
0
0
0
0
0
0
0
0
0
0
0
0
0
0
0
0
0
0
0
0
0
0
0
0
0
0
0
0
0
0
0
0
0
0
0
0
0
0
0
0
0
0
0
0
0
0
0
0
0
0
0
0
0
0
0
0
0
0
0
0
0
0
0
0
0
0
0
0
0
0
0
0
0
0
0
0
0
0
0
0
0
0
0
0
0
0
0
0
0
0
0
0
0
0
0
0
0
0
0
0
0
0
0
0
0
0
0
0
0
0
0
0
0
0
0
0
0
0
0
0
0
0
0
0
0
0
0
0
0
0
0
0
0
0
0
0
0
0
0
0
0
0
0
0
0
0
0
0
0
0
0
0
0
0
0
0
0
0
0
0
0
0
0
0
0
0
0
0
0
0
0
0
0
0
0
0
0
0
0
0
0
0
0
0
0
0
0
0
0
0
0
0
0
0
0
0
0
0
0
0
0
0
0
0
0
0
0
0
0
0
0
0
0
0
0
0
0
0
0
0
0
0
0
0
0
0
0
0
0
0
0
0
0
0
0
0
0
0
0
0
0
0
0
0
0
0
0
0
0
0
0
0
0
0
0
0
0
0
0
0
0
0
0
0
0
0
0
0
0
0
0
0
0
0
0
0
0
0
0
0
0
0
0
0
0
0
0
0
0
0
0
0
0
0
0
0
0
0
0
0
0
0
0
0
0
0
0
0
0
0
0
0
0
0
0
0
0
0
0
0
0
0
0
0
0
0
0
0
0
0
0
0
0
0
0
0
0
0
0
0
0
0
0
0
0
0
0
0
0
0
0
0
0
0
0
0
0
0
0
0
0
0
0
0
0
0
0
0
0
0
0
0
0
0
0
0
0
0
0
0
0
0
0
0
0
0
0
0
0
0
0
0
0
0
0
0
0
0
0
0
0
0
0
0
0
0
0
0
0
0
0
0
0
0
0
0
0
0
0
0
0
0
0
0
0
0
0
0
0
0
0
0
0
0
0
0
0
0
0
0
0
0
0
0
0
0
0
0
0
0
0
0
0
0
0
0
0
0
0
0
0
0
0
0
0
0
0
0
0
0
0
0
0
0
0
0
0
0
0
0
0
0
0
0
0
0
0
0
0
0
0
0
0
0
0
0
0
0
0
0
0
0
0
0
0
0
0
0
0
0
0
0
0
0
0
0
0
0
0
0
0
0
0
0
0
0
0
0
0
0
0
0
0
0
0
0
0
0
0
0
0
0
0
0
0
0
0
0
0
0
0
0
0
0
0
0
0
0
0
0
0
0
0
0
0
0
0
0
0
0
0
0
0
0
0
0
0
0
0
0
0
0
0
0
0
0
0
0
0
0
0
0
0
0
0
0
0
0
0
0
0
0
0
0
0
0
0
0
0
0
0
0
0
0
0
0
0
0
0
0
0
0
0
0
0
0
0
0
0
0
0
0
0
0
0
0
0
0
0
0
0
0
0
0
0
0
0
0
0
0
0
0
0
0
0
0
0
0
0
0
0
0
0
0
0
0
0
0
0
0
0
0
0
0
0
0
0
0
0
0
0
0
0
0
0
0
0
0
0
0
0
0
0
0
0
0
0
0
0
0
0
0
0
0
0
0
0
0
0
0
0
0
0
0
0
0
0
0
0
0
0
0
0
0
0
0
0
0
0
0
0
0
0
0
0
0
0
0
0
0
0
0
0
0
0
0
0
0
0
0
0
0
0
0
0
0
0
0
0
0
0
0
0
0
0
0
0
0
0
0
0
0
0
0
0
0
0
0
0
0
0
0
0
0
0
0
0
0
0
0
0
0
0
0
0
0
0
0
0
0
0
0
0
0
0
0
0
0
0
0
0
0
0
0
0
0
0
0
0
0
0
0
0
0
0
0
0
0
0
0
0
0
0
0
0
0
0
0
0
0
0
0
0
0
0
0
0
0
0
0
0
0
0
0
0
0
0
0
0
0
0
0
0
0
0
0
0
0
0
0
0
0
0
0
0
0
0
0
0
0
0
0
0
0
0
0
0
0
0
0
0
0
0
0
0
0
0
0
0
0
0
0
0
0
0
0
0
0
0
0
0
0
0
0
0
0
0
0
0
0
0
0
0
0
0
0
0
0
0
0
0
0
0
0
0
0
0
0
0
0
0
0
0
0
0
0
0
0
0
0
0
0
0
0
0
0
0
0
0
0
0
0
0
0
0
0
0
0
0
0
0
0
0
0
0
0
0
0
0
0
0
0
0
0
0
0
0
0
0
0
0
0
0
0
0
0
0
0
0
0
0
0
0
0
0
0
0
0
0
0
0
0
0
0
0
0
0
0
0
0
0
0
0
0
0
0
0
0
0
0
0
0
0
0
0
0
0
0
0
0
0
0
0
0
0
0
0
0
0
0
0
0
0
0
0
0
0
0
0
0
0
0
0
0
0
0
0
0
0
0
0
0
0
0
0
0
0
0
0
0
0
0
0
0
0
0
0
0
0
0
0
0
0
0
0
0
0
0
0
0
0
0
0
0
0
0
0
0
0
0
0
0
0
0
0
0
0
0
0
0
0
0
0
0
0
0
0
0
0
0
0
0
0
0
0
0
0
0
0
0
0
0
0
0
0
0
0
0
0
0
0
0
0
0
0
0
0
0
0
0
0
0
0
0
0
0
0
0
0
0
0
0
0
0
0
0
0
0
0
0
0
0
0
0
0
0
0
0
0
0
0
0
0
0
0
0
0
0
0
0
0
0
0
0
0
0
0
0
0
0
0
0
0
0
0
0
0
0
0
0
0
0
0
0
0
0
0
0
0
0
0
0
0
0
0
0
0
0
0
0
0
0
0
0
0
0
0
0
0
0
0
0
0
0
0
0
0
0
0
0
0
0
0
0
0
0
0
0
0
0
0
0
0
0
0
0
0
0
0
0
0
0
1
1
1
1
1
1
1
1
1
1
1
1
1
1
1
1
1
1
1
1
1
1
1
1
1
1
1
1
1
1
2
2
2
2
2
2
2
2
2
2
2
2
2
2
2
2
2
2
2
2
2
2
2
2
2
2
2
2
2
2
3
3
3
3
3
3
3
3
3
3
3
3
3
3
3
3
3
3
3
3
3
3
3
3
3
3
3
3
3
3
4
4
4
4
4
4
4
4
4
4
4
4
4
4
4
4
4
4
4
4
4
4
4
4
4
4
4
4
4
4

LOOKUP_TABLE FreeFempp_table 5
1.00000000 0.00000000 0.00000000 1.00000000
1.00000000 1.00000000 0.00000000 1.00000000
1.00000000 0.00000000 1.00000000 1.00000000
0.00000000 1.00000000 0.00000000 1.00000000
0.00000000 1.00000000 1.00000000 1.00000000

POINT_DATA 961
FIELD FieldData 1
Density 1 961 float
4.15151529e-02 4.77420874e-02 5.03485426e-02 5.10674864e-02 5.14187142e-02 5.12639694e-02 5.05651571e-02 4.95657176e-02 4.80110981e-02 4.62770760e-02 4.66853715e-02 2.38579437e-01 4.64578301e-01 5.82188964e-01 6.01741314e-01 5.64142048e-01 4.90894675e-01 3.90835106e-01 2.70505697e-01 1.84568435e-01 1.63081929e-01 1.97144166e-01 2.65273750e-01 3.38811964e-01 3.96468699e-01 4.22292650e-01 4.00855958e-01 3.02171379e-01 4.55142595e-02 4.61435728e-02 2.62161583e-01 4.50763553e-02 4.46715057e-02 4.87726070e-02 5.04557118e-02 5.12154475e-02 5.15499562e-02 5.11349328e-02 5.00076637e-02 4.80707586e-02 4.47733738e-02 4.46375087e-02 4.30758186e-02 3.99467871e-02 2.88433373e-01 6.15991235e-01 6.46427989e-01 5.74166059e-01 4.21596289e-01 1.84566349e-01 9.33976322e-02 8.40398371e-02 9.45757255e-02 1.49825245e-01 2.78460324e-01 4.20440674e-01 4.87576038e-01 4.58369255e-01 3.45835268e-01 4.99549843e-02 4.11950834e-02 6.17240928e-02 1.31048709e-01 1.22307174e-01 1.94780290e-01 2.72796124e-01 2.99567014e-01 3.10774684e-01 3.17138761e-01 3.20821881e-01 3.17710996e-01 2.76410073e-01 1.22790903e-01 4.38913330e-02 4.40665148e-02 4.59007770e-02 4.89414036e-02 4.53994721e-02 4.48282100e-02 5.75392805e-02 7.49219358e-02 1.11444704e-01 1.87720731e-01 2.62422204e-01 3.35505396e-01 4.18490410e-01 4.89633024e-01 5.11341453e-01 4.84580845e-01 4.34680015e-01 3.20168108e-01 4.13477235e-02 4.35312241e-02 1.45172313e-01 1.30372226e-01 2.65850246e-01 3.38082224e-01 3.59174818e-01 3.70532602e-01 3.79293233e-01 3.85863751e-01 3.88589084e-01 3.83191049e-01 3.59549314e-01 2.98581809e-01 1.57912388e-01 4.18785177e-02 4.54016030e-02 4.26828861e-02 4.01545279e-02 3.61345783e-02 5.47842011e-02 9.75335911e-02 3.13721687e-01 4.75294292e-01 5.26055336e-01 5.46814322e-01 5.52375138e-01 5.34957767e-01 4.92773145e-01 4.40183073e-01 3.92555773e-01 4.14134488e-02 4.20591384e-02 1.80780917e-01 1.48141399e-01 2.94198573e-01 3.59671563e-01 3.79274219e-01 3.89616698e-01 3.96242648e-01 4.00192589e-01 4.00905788e-01 3.96900058e-01 3.85981232e-01 3.65652740e-01 3.31469327e-01 2.76894540e-01 2.11998373e-01 1.42233089e-01 8.20209906e-02 6.53490275e-02 1.25411466e-01 2.18309686e-01 4.03056920e-01 5.02466381e-01 5.33753276e-01 5.38278461e-01 5.30957103e-01 5.13738632e-01 4.85228658e-01 4.46085721e-01 4.06756043e-01 4.37471643e-02 4.28109206e-02 2.47881994e-01 1.80120856e-01 3.35567117e-01 3.85234594e-01 4.02197421e-01 4.10730332e-01 4.15167004e-01 4.17243838e-01 4.17278975e-01 4.14810270e-01 4.09077078e-01 3.99484843e-01 3.85485291e-01 3.66285682e-01 3.41812909e-01 3.10300767e-01 2.80852854e-01 2.61175811e-01 2.69045264e-01 3.38390827e-01 4.31197435e-01 4.92391348e-01 5.18855333e-01 5.25107682e-01 5.20569384e-01 5.08276999e-01 4.87319291e-01 4.54676211e-01 4.06946421e-01 4.58558351e-02 4.45991643e-02 3.26964259e-01 2.33481720e-01 4.06979024e-01 4.23925489e-01 4.34012741e-01 4.37949836e-01 4.39071953e-01 4.38898563e-01 4.37862575e-01 4.35736060e-01 4.32074368e-01 4.26590651e-01 4.19238806e-01 4.10034567e-01 3.98867965e-01 3.85072172e-01 3.71160299e-01 3.61042380e-01 3.64719629e-01 3.97577614e-01 4.44990516e-01 4.82660025e-01 5.03922522e-01 5.11978328e-01 5.11013567e-01 5.03398061e-01 4.89008486e-01 4.62401807e-01 4.03552413e-01 4.71763387e-02 4.59871516e-02 3.98040324e-01 3.11502367e-01 4.93743241e-01 4.71243262e-01 4.71858352e-01 4.68798161e-01 4.65313911e-01 4.61951941e-01 4.58749056e-01 4.55363810e-01 4.51379091e-01 4.46543574e-01 4.40826029e-01 4.34295565e-01 4.26970512e-01 4.18884516e-01 4.11350310e-01 4.07111049e-01 4.11720425e-01 4.30552036e-01 4.57012653e-01 4.80123192e-01 4.95228916e-01 5.02338588e-01 5.02951503e-01 4.98643637e-01 4.89664942e-01 4.68774348e-01 4.01724517e-01 4.81395423e-02 4.68790717e-02 4.49617684e-01 3.97913784e-01 5.64930201e-01 5.15099466e-01 5.06807208e-01 4.96900707e-01 4.88868564e-01 4.82176185e-01 4.76431370e-01 4.71179008e-01 4.66040164e-01 4.60814893e-01 4.55469459e-01 4.50057179e-01 4.44694459e-01 4.39738005e-01 4.36245471e-01 4.36004668e-01 4.41480130e-01 4.53737825e-01 4.69026268e-01 4.82433438e-01 4.91623253e-01 4.96197134e-01 4.96639878e-01 4.93929386e-01 4.88396227e-01 4.72249180e-01 4.02503401e-01 4.91409823e-02 4.75644246e-02 4.67482120e-01 4.52514082e-01 5.94378173e-01 5.40795743e-01 5.28004527e-01 5.15000403e-01 5.04701197e-01 4.96139318e-01 4.88849819e-01 4.82456118e-01 4.76710021e-01 4.71502036e-01 4.66803521e-01 4.62629408e-01 4.59119022e-01 4.56725001e-01 4.56264615e-01 4.58562583e-01 4.64018345e-01 4.71923202e-01 4.80105907e-01 4.86646265e-01 4.90830183e-01 4.92573798e-01 4.92021650e-01 4.89562988e-01 4.85195935e-01 4.71801400e-01 4.04534876e-01 5.02597876e-02 4.82817702e-02 4.32967424e-01 4.32000101e-01 5.64526677e-01 5.34921587e-01 5.27307808e-01 5.18072367e-01 5.09685636e-01 5.02072215e-01 4.95317042e-01 4.89416987e-01 4.84370112e-01 4.80184942e-01 4.76833999e-01 4.74286169e-01 4.72671926e-01 4.72435743e-01 4.74116087e-01 4.77724582e-01 4.82436001e-01 4.86915857e-01 4.90002871e-01 4.91393000e-01 4.91417676e-01 4.90424395e-01 4.88524616e-01 4.85561192e-01 4.80749637e-01 4.67545807e-01 4.03474540e-01 5.12911715e-02 4.91421707e-02 3.39117467e-01 3.30776781e-01 4.69773352e-01 4.92027044e-01 5.03503680e-01 5.05586982e-01 5.03561080e-01 4.99893129e-01 4.95915771e-01 4.92293864e-01 4.89369750e-01 4.87268955e-01 4.85935420e-01 4.85295445e-01 4.85473573e-01 4.86928284e-01 4.90012586e-01 4.94139045e-01 4.97828871e-01 4.99657184e-01 4.99108583e-01 4.96673226e-01 4.93208051e-01 4.89404559e-01 4.85598028e-01 4.81468946e-01 4.75387782e-01 4.59771037e-01 3.90482068e-01 5.21232747e-02 5.03668711e-02 2.24787146e-01 2.22605333e-01 3.45141828e-01 4.28106964e-01 4.66043442e-01 4.82760102e-01 4.89261597e-01 4.91188496e-01 4.91350949e-01 4.91168112e-01 4.91337806e-01 4.92056191e-01 4.93172497e-01 4.94526029e-01 4.96331096e-01 4.98938262e-01 5.02918363e-01 5.07342875e-01 5.10339081e-01 5.10619402e-01 5.08034468e-01 5.03280342e-01 4.97218221e-01 4.90570486e-01 4.83900666e-01 4.77168471e-01 4.68251109e-01 4.46707070e-01 3.57780159e-01 5.47977574e-02 5.28745204e-02 1.54478595e-01 1.65837631e-01 2.62775153e-01 3.78383666e-01 4.32216763e-01 4.58814800e-01 4.72092688e-01 4.79054481e-01 4.83253598e-01 4.86585349e-01 4.89991039e-01 4.93655503e-01 4.97239679e-01 5.00444233e-01 5.03695786e-01 5.07262290e-01 5.11680901e-01 5.16603649e-01 5.19752979e-01 5.19928515e-01 5.17173171e-01 5.12035966e-01 5.04999995e-01 4.96371388e-01 4.86411810e-01 4.74930912e-01 4.59260494e-01 4.26260859e-01 3.12296629e-01 6.37339056e-02 5.82813956e-02 1.11721069e-01 1.28227636e-01 2.43856370e-01 3.61970335e-01 4.13667768e-01 4.41271245e-01 4.57151324e-01 4.66986328e-01 4.73940641e-01 4.79918808e-01 4.85932022e-01 4.92114097e-01 4.97851849e-01 5.02636909e-01 5.07409513e-01 5.10835111e-01 5.16718388e-01 5.21789670e-01 5.25921941e-01 5.27341962e-01 5.26188791e-01 5.22780716e-01 5.17148852e-01 5.08976221e-01 4.97616440e-01 4.81503516e-01 4.56102848e-01 4.08048898e-01 2.80053586e-01 8.34611654e-02 7.02245906e-02 7.77756795e-02 9.17770267e-02 2.68733144e-01 3.68878603e-01 4.08401728e-01 4.31614041e-01 4.46734816e-01 4.57218319e-01 4.65360582e-01 4.72771615e-01 4.80388701e-01 4.88313764e-01 4.95784879e-01 5.01970232e-01 5.06496549e-01 5.10434747e-01 5.16946554e-01 5.23349047e-01 5.28516233e-01 5.31985939e-01 5.33607662e-01 5.33598006e-01 5.31760216e-01 5.27438760e-01 5.19274235e-01 5.04288197e-01 4.75928694e-01 4.21678990e-01 2.97303557e-01 1.12625934e-01 9.68443155e-02 6.22757189e-02 7.23972991e-02 3.10460597e-01 3.79728019e-01 4.08117592e-01 4.26858127e-01 4.40138608e-01 4.50039834e-01 4.58265245e-01 4.66108859e-01 4.74361509e-01 4.83102351e-01 4.91631627e-01 4.98905241e-01 5.05190790e-01 5.09793878e-01 5.16350210e-01 5.21538138e-01 5.27278304e-01 5.32529712e-01 5.37108302e-01 5.41094542e-01 5.44355214e-01 5.46400607e-01 5.45985878e-01 5.40139556e-01 5.22800803e-01 4.84032989e-01 3.99120331e-01 1.69550896e-01 1.59291863e-01 5.78428209e-02 6.91927746e-02 3.38974446e-01 3.87077630e-01 4.08621460e-01 4.24146086e-01 4.35622394e-01 4.44565654e-01 4.52367395e-01 4.60063308e-01 4.68274236e-01 4.77059662e-01 4.85846221e-01 4.93696004e-01 5.00125825e-01 5.05818307e-01 5.11138558e-01 5.16314089e-01 5.21979392e-01 5.28118789e-01 5.34775674e-01 5.42020082e-01 5.49912810e-01 5.58396757e-01 5.66848636e-01 5.73222935e-01 5.73714793e-01 5.62718689e-01 5.59612334e-01 3.25681686e-01 2.96941519e-01 5.60871251e-02 6.58911467e-02 3.47393841e-01 3.93727690e-01 4.10321891e-01 4.22482789e-01 4.31961149e-01 4.39799130e-01 4.46998626e-01 4.54286993e-01 4.62076187e-01 4.70384449e-01 4.78775889e-01 4.86516476e-01 4.93021756e-01 4.98373330e-01 5.03173232e-01 5.07748365e-01 5.12861133e-01 5.18974423e-01 5.26343703e-01 5.35154819e-01 5.45663178e-01 5.58185399e-01 5.72599173e-01 5.87457716e-01 6.00357592e-01 6.07211530e-01 6.75231814e-01 5.12550473e-01 4.67702210e-01 5.43233566e-02 6.10333532e-02 3.48554909e-01 4.02488917e-01 4.14142221e-01 4.21766430e-01 4.28617001e-01 4.35108036e-01 4.41607744e-01 4.48398918e-01 4.55617905e-01 4.63194579e-01 4.70792681e-01 4.77872759e-01 4.83944565e-01 4.88887399e-01 4.93032813e-01 4.96929526e-01 5.01268744e-01 5.06650627e-01 5.13429999e-01 5.21863043e-01 5.32307446e-01 5.45238078e-01 5.60656667e-01 5.76953650e-01 5.91345608e-01 5.99790990e-01 6.90052330e-01 5.23400486e-01 5.48789501e-01 5.21428883e-02 5.67034744e-02 3.52308482e-01 4.13297951e-01 4.19715196e-01 4.21785444e-01 4.25320327e-01 4.30172920e-01 4.35893357e-01 4.42189217e-01 4.48861688e-01 4.55709398e-01 4.62445468e-01 4.68691677e-01 4.74097520e-01 4.78529692e-01 4.82172370e-01 4.85457391e-01 4.88951087e-01 4.93150264e-01 4.98374671e-01 5.04850864e-01 5.12887418e-01 5.22898376e-01 5.34742415e-01 5.46161592e-01 5.52538931e-01 5.49853146e-01 6.07256353e-01 3.74665409e-01 5.04129291e-01 4.98263985e-02 5.26713915e-02 3.61221075e-01 4.24887300e-01 4.25743252e-01 4.21833158e-01 4.21699315e-01 4.24781919e-01 4.29725081e-01 4.35595095e-01 4.41840738e-01 4.48117673e-01 4.54151005e-01 4.59673524e-01 4.64456648e-01 4.68401492e-01 4.71603483e-01 4.74329472e-01 4.76936102e-01 4.79737371e-01 4.82921213e-01 4.86589223e-01 4.90888119e-01 4.96072859e-01 5.01926005e-01 5.05883694e-01 5.01632690e-01 4.83653128e-01 4.74627614e-01 2.55461246e-01 3.86444092e-01 4.76416722e-02 4.90943044e-02 3.75132531e-01 4.35391575e-01 4.30451781e-01 4.20765162e-01 4.17217284e-01 4.18755054e-01 4.23077315e-01 4.28638250e-01 4.34583902e-01 4.40457821e-01 4.45987999e-01 4.50974703e-01 4.55265909e-01 4.58786279e-01 4.61565793e-01 4.63727862e-01 4.65438187e-01 4.66825962e-01 4.67926145e-01 4.68691170e-01 4.69098210e-01 4.69309896e-01 4.69412565e-01 4.67732549e-01 4.58568782e-01 4.34559882e-01 3.85217607e-01 2.08978415e-01 2.72174478e-01 4.55103032e-02 4.63146716e-02 3.92030835e-01 4.42225426e-01 4.31725293e-01 4.17352438e-01 4.11432236e-01 4.12074268e-01 4.16075885e-01 4.21436369e-01 4.27128464e-01 4.32656884e-01 4.37772304e-01 4.42322344e-01 4.46196914e-01 4.49326009e-01 4.51688141e-01 4.53300655e-01 4.54187572e-01 4.54333931e-01 4.53652143e-01 4.51991409e-01 4.49242175e-01 4.45609689e-01 4.41799194e-01 4.38029885e-01 4.31441814e-01 4.14686680e-01 3.62591952e-01 1.85723945e-01 2.19025314e-01 4.27199714e-02 4.39141653e-02 4.08500373e-01 4.42941129e-01 4.27737445e-01 4.10957962e-01 4.04471219e-01 4.05144930e-01 4.09126580e-01 4.14270759e-01 4.19582754e-01 4.24635410e-01 4.29241270e-01 4.33294445e-01 4.36711341e-01 4.39420789e-01 4.41365629e-01 4.42494363e-01 4.42738503e-01 4.41986024e-01 4.40070808e-01 4.36800629e-01 4.32070285e-01 4.26192880e-01 4.20426786e-01 4.16797012e-01 4.15819794e-01 4.10939753e-01 3.67808312e-01 1.64544195e-01 1.96375236e-01 3.91891114e-02 4.03753035e-02 4.23402846e-01 4.36879188e-01 4.18254882e-01 4.02406961e-01 3.97501618e-01 3.99017423e-01 4.02996957e-01 4.07603383e-01 4.12134051e-01 4.16348904e-01 4.20159429e-01 4.23504472e-01 4.26315635e-01 4.28517640e-01 4.30033118e-01 4.30776000e-01 4.30633575e-01 4.29447651e-01 4.27018076e-01 4.23151076e-01 4.17778254e-01 4.11258131e-01 4.05024856e-01 4.02001172e-01 4.05159086e-01 4.10082757e-01 3.77928972e-01 1.37187049e-01 1.72895357e-01 5.02375141e-02 4.46229912e-02 4.45192963e-01 4.27402318e-01 4.06276584e-01 3.94628078e-01 3.92877102e-01 3.95300478e-01 3.98628920e-01 4.01885092e-01 4.04912174e-01 4.07728732e-01 4.10335928e-01 4.12685782e-01 4.14697409e-01 4.16278869e-01 4.17338878e-01 4.17784154e-01 4.17505294e-01 4.16362256e-01 4.14189488e-01 4.10844952e-01 4.06303346e-01 4.00805324e-01 3.95362586e-01 3.92837346e-01 3.97923440e-01 4.10985291e-01 4.06817585e-01 1.05418153e-01 1.42346084e-01 7.18451962e-02 1.19559921e-01 5.05962133e-01 4.30065006e-01 3.99983853e-01 3.92477691e-01 3.93341035e-01 3.95226955e-01 3.96347970e-01 3.97036552e-01 3.97735775e-01 3.98628592e-01 3.99701446e-01 4.00845498e-01 4.01924074e-01 4.02807653e-01 4.03386801e-01 4.03572142e-01 4.03288215e-01 4.02470469e-01 4.01079088e-01 3.99147600e-01 3.96841437e-01 3.94360632e-01 3.91703099e-01 3.90300095e-01 3.98965508e-01 4.33799773e-01 5.02976239e-01 8.03294256e-02 1.09972619e-01 7.58056343e-02 7.07459897e-02 5.83754599e-01 4.84862417e-01 4.13128555e-01 3.99517089e-01 3.98500919e-01 3.97059441e-01 3.94451886e-01 3.91933233e-01 3.90124202e-01 3.89096826e-01 3.88689250e-01 3.88680875e-01 3.88864845e-01 3.89071018e-01 3.89168978e-01 3.89066607e-01 3.88712734e-01 3.88112903e-01 3.87369007e-01 3.86758924e-01 3.86860996e-01 3.88580143e-01 3.92554611e-01 3.99145812e-01 4.26337093e-01 5.27767122e-01 5.51830053e-01 6.88597262e-02 9.08502266e-02 1.53536107e-02 4.04982157e-02 7.20343232e-01 5.82536340e-01 4.39847052e-01 4.03475404e-01 3.98544788e-01 3.94630194e-01 3.89914483e-01 3.85751992e-01 3.82653981e-01 3.80569518e-01 3.79264563e-01 3.78486365e-01 3.78015399e-01 3.77673209e-01 3.77316207e-01 3.76830310e-01 3.76134992e-01 3.75205785e-01 3.74123156e-01 3.73159379e-01 3.72961104e-01 3.75099778e-01 3.83941323e-01 4.12765384e-01 4.98683244e-01 5.90179741e-01 6.50543988e-01 7.08750188e-02 9.63711962e-02 3.20196934e-02 1.16765220e-02 7.54444599e-01 3.81763995e-01 4.19314921e-01 4.10451710e-01 4.13058370e-01 4.14047003e-01 4.13120896e-01 4.11549211e-01 4.10064697e-01 4.08903718e-01 4.08072948e-01 4.07500088e-01 4.07096058e-01 4.06774968e-01 4.06456798e-01 4.06065404e-01 4.05529052e-01 4.04790968e-01 4.03836548e-01 4.02740777e-01 4.01741207e-01 4.01412785e-01 4.03302461e-01 4.11495209e-01 4.35252726e-01 5.00109971e-01 6.70148611e-01 1.05949692e-01 8.79959464e-02 
