# vtk DataFile Version 2.0
results_case1_non_linear/iter0.vtk, Created by Freefem++ 
ASCII
DATASET UNSTRUCTURED_GRID
POINTS 961 float
0 0 0
0.033333333 0 0
0.066666667 0 0
0.1 0 0
0.13333333 0 0
0.16666667 0 0
0.2 0 0
0.23333333 0 0
0.26666667 0 0
0.3 0 0
0.33333333 0 0
0.36666667 0 0
0.4 0 0
0.43333333 0 0
0.46666667 0 0
0.5 0 0
0.53333333 0 0
0.56666667 0 0
0.6 0 0
0.63333333 0 0
0.66666667 0 0
0.7 0 0
0.73333333 0 0
0.76666667 0 0
0.8 0 0
0.83333333 0 0
0.86666667 0 0
0.9 0 0
0.93333333 0 0
0.96666667 0 0
1 0 0
0 0.033333333 0
0.033333333 0.033333333 0
0.066666667 0.033333333 0
0.1 0.033333333 0
0.13333333 0.033333333 0
0.16666667 0.033333333 0
0.2 0.033333333 0
0.23333333 0.033333333 0
0.26666667 0.033333333 0
0.3 0.033333333 0
0.33333333 0.033333333 0
0.36666667 0.033333333 0
0.4 0.033333333 0
0.43333333 0.033333333 0
0.46666667 0.033333333 0
0.5 0.033333333 0
0.53333333 0.033333333 0
0.56666667 0.033333333 0
0.6 0.033333333 0
0.63333333 0.033333333 0
0.66666667 0.033333333 0
0.7 0.033333333 0
0.73333333 0.033333333 0
0.76666667 0.033333333 0
0.8 0.033333333 0
0.83333333 0.033333333 0
0.86666667 0.033333333 0
0.9 0.033333333 0
0.93333333 0.033333333 0
0.96666667 0.033333333 0
1 0.033333333 0
0 0.066666667 0
0.033333333 0.066666667 0
0.066666667 0.066666667 0
0.1 0.066666667 0
0.13333333 0.066666667 0
0.16666667 0.066666667 0
0.2 0.066666667 0
0.23333333 0.066666667 0
0.26666667 0.066666667 0
0.3 0.066666667 0
0.33333333 0.066666667 0
0.36666667 0.066666667 0
0.4 0.066666667 0
0.43333333 0.066666667 0
0.46666667 0.066666667 0
0.5 0.066666667 0
0.53333333 0.066666667 0
0.56666667 0.066666667 0
0.6 0.066666667 0
0.63333333 0.066666667 0
0.66666667 0.066666667 0
0.7 0.066666667 0
0.73333333 0.066666667 0
0.76666667 0.066666667 0
0.8 0.066666667 0
0.83333333 0.066666667 0
0.86666667 0.066666667 0
0.9 0.066666667 0
0.93333333 0.066666667 0
0.96666667 0.066666667 0
1 0.066666667 0
0 0.1 0
0.033333333 0.1 0
0.066666667 0.1 0
0.1 0.1 0
0.13333333 0.1 0
0.16666667 0.1 0
0.2 0.1 0
0.23333333 0.1 0
0.26666667 0.1 0
0.3 0.1 0
0.33333333 0.1 0
0.36666667 0.1 0
0.4 0.1 0
0.43333333 0.1 0
0.46666667 0.1 0
0.5 0.1 0
0.53333333 0.1 0
0.56666667 0.1 0
0.6 0.1 0
0.63333333 0.1 0
0.66666667 0.1 0
0.7 0.1 0
0.73333333 0.1 0
0.76666667 0.1 0
0.8 0.1 0
0.83333333 0.1 0
0.86666667 0.1 0
0.9 0.1 0
0.93333333 0.1 0
0.96666667 0.1 0
1 0.1 0
0 0.13333333 0
0.033333333 0.13333333 0
0.066666667 0.13333333 0
0.1 0.13333333 0
0.13333333 0.13333333 0
0.16666667 0.13333333 0
0.2 0.13333333 0
0.23333333 0.13333333 0
0.26666667 0.13333333 0
0.3 0.13333333 0
0.33333333 0.13333333 0
0.36666667 0.13333333 0
0.4 0.13333333 0
0.43333333 0.13333333 0
0.46666667 0.13333333 0
0.5 0.13333333 0
0.53333333 0.13333333 0
0.56666667 0.13333333 0
0.6 0.13333333 0
0.63333333 0.13333333 0
0.66666667 0.13333333 0
0.7 0.13333333 0
0.73333333 0.13333333 0
0.76666667 0.13333333 0
0.8 0.13333333 0
0.83333333 0.13333333 0
0.86666667 0.13333333 0
0.9 0.13333333 0
0.93333333 0.13333333 0
0.96666667 0.13333333 0
1 0.13333333 0
0 0.16666667 0
0.033333333 0.16666667 0
0.066666667 0.16666667 0
0.1 0.16666667 0
0.13333333 0.16666667 0
0.16666667 0.16666667 0
0.2 0.16666667 0
0.23333333 0.16666667 0
0.26666667 0.16666667 0
0.3 0.16666667 0
0.33333333 0.16666667 0
0.36666667 0.16666667 0
0.4 0.16666667 0
0.43333333 0.16666667 0
0.46666667 0.16666667 0
0.5 0.16666667 0
0.53333333 0.16666667 0
0.56666667 0.16666667 0
0.6 0.16666667 0
0.63333333 0.16666667 0
0.66666667 0.16666667 0
0.7 0.16666667 0
0.73333333 0.16666667 0
0.76666667 0.16666667 0
0.8 0.16666667 0
0.83333333 0.16666667 0
0.86666667 0.16666667 0
0.9 0.16666667 0
0.93333333 0.16666667 0
0.96666667 0.16666667 0
1 0.16666667 0
0 0.2 0
0.033333333 0.2 0
0.066666667 0.2 0
0.1 0.2 0
0.13333333 0.2 0
0.16666667 0.2 0
0.2 0.2 0
0.23333333 0.2 0
0.26666667 0.2 0
0.3 0.2 0
0.33333333 0.2 0
0.36666667 0.2 0
0.4 0.2 0
0.43333333 0.2 0
0.46666667 0.2 0
0.5 0.2 0
0.53333333 0.2 0
0.56666667 0.2 0
0.6 0.2 0
0.63333333 0.2 0
0.66666667 0.2 0
0.7 0.2 0
0.73333333 0.2 0
0.76666667 0.2 0
0.8 0.2 0
0.83333333 0.2 0
0.86666667 0.2 0
0.9 0.2 0
0.93333333 0.2 0
0.96666667 0.2 0
1 0.2 0
0 0.23333333 0
0.033333333 0.23333333 0
0.066666667 0.23333333 0
0.1 0.23333333 0
0.13333333 0.23333333 0
0.16666667 0.23333333 0
0.2 0.23333333 0
0.23333333 0.23333333 0
0.26666667 0.23333333 0
0.3 0.23333333 0
0.33333333 0.23333333 0
0.36666667 0.23333333 0
0.4 0.23333333 0
0.43333333 0.23333333 0
0.46666667 0.23333333 0
0.5 0.23333333 0
0.53333333 0.23333333 0
0.56666667 0.23333333 0
0.6 0.23333333 0
0.63333333 0.23333333 0
0.66666667 0.23333333 0
0.7 0.23333333 0
0.73333333 0.23333333 0
0.76666667 0.23333333 0
0.8 0.23333333 0
0.83333333 0.23333333 0
0.86666667 0.23333333 0
0.9 0.23333333 0
0.93333333 0.23333333 0
0.96666667 0.23333333 0
1 0.23333333 0
0 0.26666667 0
0.033333333 0.26666667 0
0.066666667 0.26666667 0
0.1 0.26666667 0
0.13333333 0.26666667 0
0.16666667 0.26666667 0
0.2 0.26666667 0
0.23333333 0.26666667 0
0.26666667 0.26666667 0
0.3 0.26666667 0
0.33333333 0.26666667 0
0.36666667 0.26666667 0
0.4 0.26666667 0
0.43333333 0.26666667 0
0.46666667 0.26666667 0
0.5 0.26666667 0
0.53333333 0.26666667 0
0.56666667 0.26666667 0
0.6 0.26666667 0
0.63333333 0.26666667 0
0.66666667 0.26666667 0
0.7 0.26666667 0
0.73333333 0.26666667 0
0.76666667 0.26666667 0
0.8 0.26666667 0
0.83333333 0.26666667 0
0.86666667 0.26666667 0
0.9 0.26666667 0
0.93333333 0.26666667 0
0.96666667 0.26666667 0
1 0.26666667 0
0 0.3 0
0.033333333 0.3 0
0.066666667 0.3 0
0.1 0.3 0
0.13333333 0.3 0
0.16666667 0.3 0
0.2 0.3 0
0.23333333 0.3 0
0.26666667 0.3 0
0.3 0.3 0
0.33333333 0.3 0
0.36666667 0.3 0
0.4 0.3 0
0.43333333 0.3 0
0.46666667 0.3 0
0.5 0.3 0
0.53333333 0.3 0
0.56666667 0.3 0
0.6 0.3 0
0.63333333 0.3 0
0.66666667 0.3 0
0.7 0.3 0
0.73333333 0.3 0
0.76666667 0.3 0
0.8 0.3 0
0.83333333 0.3 0
0.86666667 0.3 0
0.9 0.3 0
0.93333333 0.3 0
0.96666667 0.3 0
1 0.3 0
0 0.33333333 0
0.033333333 0.33333333 0
0.066666667 0.33333333 0
0.1 0.33333333 0
0.13333333 0.33333333 0
0.16666667 0.33333333 0
0.2 0.33333333 0
0.23333333 0.33333333 0
0.26666667 0.33333333 0
0.3 0.33333333 0
0.33333333 0.33333333 0
0.36666667 0.33333333 0
0.4 0.33333333 0
0.43333333 0.33333333 0
0.46666667 0.33333333 0
0.5 0.33333333 0
0.53333333 0.33333333 0
0.56666667 0.33333333 0
0.6 0.33333333 0
0.63333333 0.33333333 0
0.66666667 0.33333333 0
0.7 0.33333333 0
0.73333333 0.33333333 0
0.76666667 0.33333333 0
0.8 0.33333333 0
0.83333333 0.33333333 0
0.86666667 0.33333333 0
0.9 0.33333333 0
0.93333333 0.33333333 0
0.96666667 0.33333333 0
1 0.33333333 0
0 0.36666667 0
0.033333333 0.36666667 0
0.066666667 0.36666667 0
0.1 0.36666667 0
0.13333333 0.36666667 0
0.16666667 0.36666667 0
0.2 0.36666667 0
0.23333333 0.36666667 0
0.26666667 0.36666667 0
0.3 0.36666667 0
0.33333333 0.36666667 0
0.36666667 0.36666667 0
0.4 0.36666667 0
0.43333333 0.36666667 0
0.46666667 0.36666667 0
0.5 0.36666667 0
0.53333333 0.36666667 0
0.56666667 0.36666667 0
0.6 0.36666667 0
0.63333333 0.36666667 0
0.66666667 0.36666667 0
0.7 0.36666667 0
0.73333333 0.36666667 0
0.76666667 0.36666667 0
0.8 0.36666667 0
0.83333333 0.36666667 0
0.86666667 0.36666667 0
0.9 0.36666667 0
0.93333333 0.36666667 0
0.96666667 0.36666667 0
1 0.36666667 0
0 0.4 0
0.033333333 0.4 0
0.066666667 0.4 0
0.1 0.4 0
0.13333333 0.4 0
0.16666667 0.4 0
0.2 0.4 0
0.23333333 0.4 0
0.26666667 0.4 0
0.3 0.4 0
0.33333333 0.4 0
0.36666667 0.4 0
0.4 0.4 0
0.43333333 0.4 0
0.46666667 0.4 0
0.5 0.4 0
0.53333333 0.4 0
0.56666667 0.4 0
0.6 0.4 0
0.63333333 0.4 0
0.66666667 0.4 0
0.7 0.4 0
0.73333333 0.4 0
0.76666667 0.4 0
0.8 0.4 0
0.83333333 0.4 0
0.86666667 0.4 0
0.9 0.4 0
0.93333333 0.4 0
0.96666667 0.4 0
1 0.4 0
0 0.43333333 0
0.033333333 0.43333333 0
0.066666667 0.43333333 0
0.1 0.43333333 0
0.13333333 0.43333333 0
0.16666667 0.43333333 0
0.2 0.43333333 0
0.23333333 0.43333333 0
0.26666667 0.43333333 0
0.3 0.43333333 0
0.33333333 0.43333333 0
0.36666667 0.43333333 0
0.4 0.43333333 0
0.43333333 0.43333333 0
0.46666667 0.43333333 0
0.5 0.43333333 0
0.53333333 0.43333333 0
0.56666667 0.43333333 0
0.6 0.43333333 0
0.63333333 0.43333333 0
0.66666667 0.43333333 0
0.7 0.43333333 0
0.73333333 0.43333333 0
0.76666667 0.43333333 0
0.8 0.43333333 0
0.83333333 0.43333333 0
0.86666667 0.43333333 0
0.9 0.43333333 0
0.93333333 0.43333333 0
0.96666667 0.43333333 0
1 0.43333333 0
0 0.46666667 0
0.033333333 0.46666667 0
0.066666667 0.46666667 0
0.1 0.46666667 0
0.13333333 0.46666667 0
0.16666667 0.46666667 0
0.2 0.46666667 0
0.23333333 0.46666667 0
0.26666667 0.46666667 0
0.3 0.46666667 0
0.33333333 0.46666667 0
0.36666667 0.46666667 0
0.4 0.46666667 0
0.43333333 0.46666667 0
0.46666667 0.46666667 0
0.5 0.46666667 0
0.53333333 0.46666667 0
0.56666667 0.46666667 0
0.6 0.46666667 0
0.63333333 0.46666667 0
0.66666667 0.46666667 0
0.7 0.46666667 0
0.73333333 0.46666667 0
0.76666667 0.46666667 0
0.8 0.46666667 0
0.83333333 0.46666667 0
0.86666667 0.46666667 0
0.9 0.46666667 0
0.93333333 0.46666667 0
0.96666667 0.46666667 0
1 0.46666667 0
0 0.5 0
0.033333333 0.5 0
0.066666667 0.5 0
0.1 0.5 0
0.13333333 0.5 0
0.16666667 0.5 0
0.2 0.5 0
0.23333333 0.5 0
0.26666667 0.5 0
0.3 0.5 0
0.33333333 0.5 0
0.36666667 0.5 0
0.4 0.5 0
0.43333333 0.5 0
0.46666667 0.5 0
0.5 0.5 0
0.53333333 0.5 0
0.56666667 0.5 0
0.6 0.5 0
0.63333333 0.5 0
0.66666667 0.5 0
0.7 0.5 0
0.73333333 0.5 0
0.76666667 0.5 0
0.8 0.5 0
0.83333333 0.5 0
0.86666667 0.5 0
0.9 0.5 0
0.93333333 0.5 0
0.96666667 0.5 0
1 0.5 0
0 0.53333333 0
0.033333333 0.53333333 0
0.066666667 0.53333333 0
0.1 0.53333333 0
0.13333333 0.53333333 0
0.16666667 0.53333333 0
0.2 0.53333333 0
0.23333333 0.53333333 0
0.26666667 0.53333333 0
0.3 0.53333333 0
0.33333333 0.53333333 0
0.36666667 0.53333333 0
0.4 0.53333333 0
0.43333333 0.53333333 0
0.46666667 0.53333333 0
0.5 0.53333333 0
0.53333333 0.53333333 0
0.56666667 0.53333333 0
0.6 0.53333333 0
0.63333333 0.53333333 0
0.66666667 0.53333333 0
0.7 0.53333333 0
0.73333333 0.53333333 0
0.76666667 0.53333333 0
[...]
CELL_DATA 1920
Scalars  Label int 1
LOOKUP_TABLE FreeFempp_table
0
0
0
0
0
0
0
0
0
0
0
0
0
0
0
0
0
0
0
0
0
0
0
0
0
0
0
0
0
0
0
0
0
0
0
0
0
0
0
0
0
0
0
0
0
0
0
0
0
0
0
0
0
0
0
0
0
0
0
0
0
0
0
0
0
0
0
0
0
0
0
0
0
0
0
0
0
0
0
0
0
0
0
0
0
0
0
0
0
0
0
0
0
0
0
0
0
0
0
0
0
0
0
0
0
0
0
0
0
0
0
0
0
0
0
0
0
0
0
0
0
0
0
0
0
0
0
0
0
0
0
0
0
0
0
0
0
0
0
0
0
0
0
0
0
0
0
0
0
0
0
0
0
0
0
0
0
0
0
0
0
0
0
0
0
0
0
0
0
0
0
0
0
0
0
0
0
0
0
0
0
0
0
0
0
0
0
0
0
0
0
0
0
0
0
0
0
0
0
0
0
0
0
0
0
0
0
0
0
0
0
0
0
0
0
0
0
0
0
0
0
0
0
0
0
0
0
0
0
0
0
0
0
0
0
0
0
0
0
0
0
0
0
0
0
0
0
0
0
0
0
0
0
0
0
0
0
0
0
0
0
0
0
0
0
0
0
0
0
0
0
0
0
0
0
0
0
0
0
0
0
0
0
0
0
0
0
0
0
0
0
0
0
0
0
0
0
0
0
0
0
0
0
0
0
0
0
0
0
0
0
0
0
0
0
0
0
0
0
0
0
0
0
0
0
0
0
0
0
0
0
0
0
0
0
0
0
0
0
0
0
0
0
0
0
0
0
0
0
0
0
0
0
0
0
0
0
0
0
0
0
0
0
0
0
0
0
0
0
0
0
0
0
0
0
0
0
0
0
0
0
0
0
0
0
0
0
0
0
0
0
0
0
0
0
0
0
0
0
0
0
0
0
0
0
0
0
0
0
0
0
0
0
0
0
0
0
0
0
0
0
0
0
0
0
0
0
0
0
0
0
0
0
0
0
0
0
0
0
0
0
0
0
0
0
0
0
0
0
0
0
0
0
0
0
0
0
0
0
0
0
0
0
0
0
0
0
0
0
0
0
0
0
0
0
0
0
0
0
0
0
0
0
0
0
0
0
0
0
0
0
0
0
0
0
0
0
0
0
0
0
0
0
0
0
0
0
0
0
0
0
0
0
0
0
0
0
0
0
0
0
0
0
0
0
0
0
0
0
0
0
0
0
0
0
0
0
0
0
0
0
0
0
0
0
0
0
0
0
0
0
0
0
0
0
0
0
0
0
0
0
0
0
0
0
0
0
0
0
0
0
0
0
0
0
0
0
0
0
0
0
0
0
0
0
0
0
0
0
0
0
0
0
0
0
0
0
0
0
0
0
0
0
0
0
0
0
0
0
0
0
0
0
0
0
0
0
0
0
0
0
0
0
0
0
0
0
0
0
0
0
0
0
0
0
0
0
0
0
0
0
0
0
0
0
0
0
0
0
0
0
0
0
0
0
0
0
0
0
0
0
0
0
0
0
0
0
0
0
0
0
0
0
0
0
0
0
0
0
0
0
0
0
0
0
0
0
0
0
0
0
0
0
0
0
0
0
0
0
0
0
0
0
0
0
0
0
0
0
0
0
0
0
0
0
0
0
0
0
0
0
0
0
0
0
0
0
0
0
0
0
0
0
0
0
0
0
0
0
0
0
0
0
0
0
0
0
0
0
0
0
0
0
0
0
0
0
0
0
0
0
0
0
0
0
0
0
0
0
0
0
0
0
0
0
0
0
0
0
0
0
0
0
0
0
0
0
0
0
0
0
0
0
0
0
0
0
0
0
0
0
0
0
0
0
0
0
0
0
0
0
0
0
0
0
0
0
0
0
0
0
0
0
0
0
0
0
0
0
0
0
0
0
0
0
0
0
0
0
0
0
0
0
0
0
0
0
0
0
0
0
0
0
0
0
0
0
0
0
0
0
0
0
0
0
0
0
0
0
0
0
0
0
0
0
0
0
0
0
0
0
0
0
0
0
0
0
0
0
0
0
0
0
0
0
0
0
0
0
0
0
0
0
0
0
0
0
0
0
0
0
0
0
0
0
0
0
0
0
0
0
0
0
0
0
0
0
0
0
0
0
0
0
0
0
0
0
0
0
0
0
0
0
0
0
0
0
0
0
0
0
0
0
0
0
0
0
0
0
0
0
0
0
0
0
0
0
0
0
0
0
0
0
0
0
0
0
0
0
0
0
0
0
0
0
0
0
0
0
0
0
0
0
0
0
0
0
0
0
0
0
0
0
0
0
0
0
0
0
0
0
0
0
0
0
0
0
0
0
0
0
0
0
0
0
0
0
0
0
0
0
0
0
0
0
0
0
0
0
0
0
0
0
0
0
0
0
0
0
0
0
0
0
0
0
0
0
0
0
0
0
0
0
0
0
0
0
0
0
0
0
0
0
0
0
0
0
0
0
0
0
0
0
0
0
0
0
0
0
0
0
0
0
0
0
0
0
0
0
0
0
0
0
0
0
0
0
0
0
0
0
0
0
0
0
0
0
0
0
0
0
0
0
0
0
0
0
0
0
0
0
0
0
0
0
0
0
0
0
0
0
0
0
0
0
0
0
0
0
0
0
0
0
0
0
0
0
0
0
0
0
0
0
0
0
0
0
0
0
0
0
0
0
0
0
0
0
0
0
0
0
0
0
0
0
0
0
0
0
0
0
0
0
0
0
0
0
0
0
0
0
0
0
0
0
0
0
0
0
0
0
0
0
0
0
0
0
0
0
0
0
0
0
0
0
0
0
0
0
0
0
0
0
0
0
0
0
0
0
0
0
0
0
0
0
0
0
0
0
0
0
0
0
0
0
0
0
0
0
0
0
0
0
0
0
0
0
0
0
0
0
0
0
0
0
0
0
0
0
0
0
0
0
0
0
0
0
0
0
0
0
0
0
0
0
0
0
0
0
0
0
0
0
0
0
0
0
0
0
0
0
0
0
0
0
0
0
0
0
0
0
0
0
0
0
0
0
0
0
0
0
0
0
0
0
0
0
0
0
0
0
0
0
0
0
0
0
0
0
0
0
0
0
0
0
0
0
0
0
0
0
0
0
0
0
0
0
0
0
0
0
0
0
0
0
0
0
0
0
0
0
0
0
0
0
0
0
0
0
0
0
0
0
0
0
0
0
0
0
0
0
0
0
0
0
0
0
0
0
0
0
0
0
0
0
0
0
0
0
0
0
0
0
0
0
0
0
0
0
0
0
0
0
0
0
0
0
0
0
0
0
0
0
0
0
0
0
0
0
0
0
0
0
0
0
0
0
0
0
0
0
0
0
0
0
0
0
0
0
0
0
0
0
0
0
0
0
0
0
0
0
0
0
0
0
0
0
0
0
0
0
0
0
0
0
0
0
0
0
0
0
0
0
0
0
0
0
0
0
0
0
0
0
0
0
0
0
0
0
0
0
0
0
0
0
0
0
0
0
0
0
0
0
0
0
0
0
0
0
0
0
0
0
0
0
0
0
0
0
0
0
0
0
0
0
0
0
0
0
0
0
0
0
0
0
0
0
0
0
0
0
0
0
0
0
0
0
0
0
0
0
0
0
0
0
0
0
0
0
0
0
0
0
0
0
0
0
0
0
0
0
0
0
0
0
0
0
0
0
0
0
0
0
0
0
0
0
0
0
0
0
0
0
0
0
0
0
0
0
0
0
0
0
0
0
0
0
0
0
0
0
0
0
0
0
0
0
0
0
0
0
0
0
0
0
0
0
0
0
0
0
0
0
0
0
0
0
0
0
0
0
0
0
0
0
0
0
0
0
0
0
0
0
0
0
0
0
0
0
0
0
0
0
0
0
0
0
0
0
0
0
0
0
0
0
0
0
0
0
0
0
0
0
0
0
0
0
0
0
0
0
0
0
0
0
0
0
0
0
0
0
0
0
0
0
0
0
0
0
0
0
0
0
0
0
0
0
0
0
0
0
0
0
0
0
0
0
0
0
0
0
0
0
0
0
0
0
0
0
0
0
0
0
0
0
0
0
0
0
0
0
0
0
0
0
0
0
0
0
0
0
0
0
0
0
0
0
0
0
0
1
1
1
1
1
1
1
1
1
1
1
1
1
1
1
1
1
1
1
1
1
1
1
1
1
1
1
1
1
1
2
2
2
2
2
2
2
2
2
2
2
2
2
2
2
2
2
2
2
2
2
2
2
2
2
2
2
2
2
2
3
3
3
3
3
3
3
3
3
3
3
3
3
3
3
3
3
3
3
3
3
3
3
3
3
3
3
3
3
3
4
4
4
4
4
4
4
4
4
4
4
4
4
4
4
4
4
4
4
4
4
4
4
4
4
4
4
4
4
4

LOOKUP_TABLE FreeFempp_table 5
1.00000000 0.00000000 0.00000000 1.00000000
1.00000000 1.00000000 0.00000000 1.00000000
1.00000000 0.00000000 1.00000000 1.00000000
0.00000000 1.00000000 0.00000000 1.00000000
0.00000000 1.00000000 1.00000000 1.00000000

POINT_DATA 961
FIELD FieldData 1
Density 1 961 float
2.96933502e-01 2.61507034e-01 2.68353969e-01 2.76675731e-01 2.79133350e-01 2.76995152e-01 2.74676174e-01 2.73933738e-01 2.74404943e-01 2.75365621e-01 2.76447415e-01 2.77598560e-01 2.78881192e-01 2.80362695e-01 2.82093376e-01 2.84112334e-01 2.86453664e-01 2.89150000e-01 2.92234838e-01 2.95744061e-01 2.99713999e-01 3.04172248e-01 3.09119284e-01 3.14503789e-01 3.20209295e-01 3.26098353e-01 3.32235456e-01 3.39613229e-01 3.53828073e-01 3.83794188e-01 4.05118287e-01 2.62785077e-01 1.91717982e-01 1.97151899e-01 2.14871153e-01 2.38096282e-01 2.52475649e-01 2.55298883e-01 2.51439393e-01 2.46432751e-01 2.43137106e-01 2.42248341e-01 2.43724972e-01 2.47414887e-01 2.53128767e-01 2.60645062e-01 2.69734442e-01 2.80190021e-01 2.91853994e-01 3.04638237e-01 3.18538785e-01 3.33639532e-01 3.50095987e-01 3.68082941e-01 3.87684941e-01 4.08736318e-01 4.30728972e-01 4.53106284e-01 4.76635128e-01 5.05800426e-01 5.72401464e-01 5.43317020e-01 2.62132555e-01 1.95405915e-01 2.21402258e-01 2.73152083e-01 2.98771113e-01 2.94507146e-01 2.79359937e-01 2.64835387e-01 2.54372060e-01 2.47839108e-01 2.43754059e-01 2.40969896e-01 2.39111498e-01 2.38337576e-01 2.38975167e-01 2.41257638e-01 2.45253280e-01 2.50909716e-01 2.58102596e-01 2.66655385e-01 2.76347190e-01 2.86926329e-01 2.98140496e-01 3.09783041e-01 3.21722537e-01 3.33837509e-01 3.45792204e-01 3.56713027e-01 3.64253134e-01 4.12573308e-01 4.82539743e-01 2.59852499e-01 2.04243287e-01 2.64494956e-01 3.13297004e-01 3.05631101e-01 2.83838540e-01 2.66905993e-01 2.53215939e-01 2.40227625e-01 2.28195488e-01 2.18396246e-01 2.11660549e-01 2.08067298e-01 2.07301661e-01 2.09064960e-01 2.13222668e-01 2.19741896e-01 2.28599906e-01 2.39740595e-01 2.53059804e-01 2.68391252e-01 2.85482168e-01 3.03956121e-01 3.23271781e-01 3.42696697e-01 3.61286700e-01 3.77716422e-01 3.89416069e-01 3.90555739e-01 4.30201739e-01 5.67773402e-01 2.57896870e-01 2.17659414e-01 2.94053525e-01 3.19879472e-01 2.93458313e-01 2.68247694e-01 2.48206764e-01 2.29804888e-01 2.13461310e-01 2.00865284e-01 1.92864925e-01 1.89419463e-01 1.90068945e-01 1.94223195e-01 2.01306060e-01 2.10877031e-01 2.22662717e-01 2.36463591e-01 2.52038985e-01 2.69056946e-01 2.87104189e-01 3.05713177e-01 3.24371487e-01 3.42491001e-01 3.59333873e-01 3.73920798e-01 3.84938091e-01 3.90485674e-01 3.87814373e-01 4.15058315e-01 5.31656563e-01 2.59816438e-01 2.30351731e-01 3.14899623e-01 3.20023358e-01 2.83568293e-01 2.52239883e-01 2.27156058e-01 2.07600325e-01 1.93884984e-01 1.86065078e-01 1.83705628e-01 1.86044723e-01 1.92234069e-01 2.01536790e-01 2.13338926e-01 2.27073044e-01 2.42205039e-01 2.58252650e-01 2.74776995e-01 2.91369975e-01 3.07666421e-01 3.23367476e-01 3.38245153e-01 3.52108687e-01 3.64728212e-01 3.75719607e-01 3.84386778e-01 3.89511585e-01 3.89924884e-01 4.21384692e-01 5.66838026e-01 2.65683502e-01 2.45093048e-01 3.34913015e-01 3.21136117e-01 2.72312135e-01 2.34670013e-01 2.09078997e-01 1.93375751e-01 1.85581565e-01 1.84120893e-01 1.87806994e-01 1.95649385e-01 2.06705168e-01 2.20068350e-01 2.34935716e-01 2.50622064e-01 2.66526908e-01 2.82125652e-01 2.96989083e-01 3.10798764e-01 3.23348850e-01 3.34534973e-01 3.44327331e-01 3.52723181e-01 3.59682053e-01 3.65055531e-01 3.68523687e-01 3.69558543e-01 3.68020087e-01 3.96193832e-01 5.23174822e-01 2.73503065e-01 2.65909791e-01 3.54865313e-01 3.18043888e-01 2.57377207e-01 2.18089283e-01 1.96230546e-01 1.86393201e-01 1.84970498e-01 1.89655498e-01 1.98844776e-01 2.11262137e-01 2.25827411e-01 2.41604090e-01 2.57774800e-01 2.73648232e-01 2.88663357e-01 3.02383363e-01 3.14499587e-01 3.24843884e-01 3.33392292e-01 3.40248644e-01 3.45604479e-01 3.49675298e-01 3.52623135e-01 3.54490459e-01 3.55179965e-01 3.54504734e-01 3.52658421e-01 3.77015084e-01 4.91499573e-01 2.81343490e-01 2.93434411e-01 3.71333152e-01 3.08286637e-01 2.41115749e-01 2.04565689e-01 1.88100800e-01 1.84228167e-01 1.88615218e-01 1.98518261e-01 2.12005183e-01 2.27648988e-01 2.44352356e-01 2.61223644e-01 2.77511507e-01 2.92593479e-01 3.05994242e-01 3.17402333e-01 3.26674551e-01 3.33833843e-01 3.39060128e-01 3.42664391e-01 3.45033139e-01 3.46540689e-01 3.47448260e-01 3.47839296e-01 3.47652614e-01 3.46829116e-01 3.45672846e-01 3.66756380e-01 4.77517158e-01 2.88247883e-01 3.24711084e-01 3.80962908e-01 2.94285953e-01 2.26497903e-01 1.94686338e-01 1.83633089e-01 1.85044661e-01 1.94238320e-01 2.08145723e-01 2.24663779e-01 2.42348954e-01 2.60153234e-01 2.77250588e-01 2.92970002e-01 3.06794524e-01 3.18381011e-01 3.27572763e-01 3.34395766e-01 3.39044601e-01 3.41862053e-01 3.43306035e-01 3.43886346e-01 3.44058782e-01 3.44096273e-01 3.44015419e-01 3.43672693e-01 3.43068838e-01 3.42738390e-01 3.61134976e-01 4.72251147e-01 2.93956906e-01 3.55833471e-01 3.83706152e-01 2.79867023e-01 2.15008184e-01 1.88129216e-01 1.81806892e-01 1.87569663e-01 2.00486228e-01 2.17274308e-01 2.35796690e-01 2.54656076e-01 2.72860855e-01 2.89654553e-01 3.04465532e-01 3.16909462e-01 3.26797605e-01 3.34129930e-01 3.39073718e-01 3.41939211e-01 3.43159765e-01 3.43268901e-01 3.42847407e-01 3.42406005e-01 3.42206687e-01 3.42129976e-01 3.41816664e-01 3.41218263e-01 3.41287494e-01 3.57513517e-01 4.69681084e-01 2.98489273e-01 3.84045213e-01 3.81876707e-01 2.67513245e-01 2.06780165e-01 1.84193984e-01 1.81723341e-01 1.90892518e-01 2.06554592e-01 2.25327104e-01 2.45111361e-01 2.64566183e-01 2.82753766e-01 2.98993558e-01 3.12825859e-01 3.24007243e-01 3.32497716e-01 3.38429213e-01 3.42065126e-01 3.43769878e-01 3.43999416e-01 3.43305916e-01 3.42319489e-01 3.41640443e-01 3.41593474e-01 3.41956258e-01 3.42012644e-01 3.41419905e-01 3.41320693e-01 3.55449557e-01 4.69437808e-01 3.01897943e-01 4.08015430e-01 3.78157616e-01 2.58110136e-01 2.01279417e-01 1.82090282e-01 1.82592005e-01 1.94302782e-01 2.11904958e-01 2.32000962e-01 2.52552271e-01 2.72266030e-01 2.90253788e-01 3.05911094e-01 3.18886787e-01 3.29065084e-01 3.36529374e-01 3.41507137e-01 3.44314128e-01 3.45321268e-01 3.44961196e-01 3.43771785e-01 3.42439830e-01 3.41754556e-01 3.42339188e-01 3.44147086e-01 3.46245944e-01 3.47514957e-01 3.48648489e-01 3.61306638e-01 4.81406510e-01 3.04204315e-01 4.27242190e-01 3.74617308e-01 2.51638710e-01 1.97812974e-01 1.81086376e-01 1.83738843e-01 1.97237432e-01 2.16147497e-01 2.37102300e-01 2.58120477e-01 2.77945042e-01 2.95727223e-01 3.10926080e-01 3.23278129e-01 3.32765698e-01 3.39560926e-01 3.43952835e-01 3.46281111e-01 3.46904904e-01 3.46227854e-01 3.44786525e-01 3.43375057e-01 3.43117714e-01 3.45315188e-01 3.50783437e-01 3.58658522e-01 3.66558403e-01 3.73051077e-01 3.86547834e-01 5.13880432e-01 3.05403680e-01 4.41499084e-01 3.72553706e-01 2.47798398e-01 1.95801556e-01 1.80613428e-01 1.84654862e-01 1.99295431e-01 2.19022870e-01 2.40514308e-01 2.61833876e-01 2.81747907e-01 2.99431592e-01 3.14382583e-01 3.26390982e-01 3.35498661e-01 3.41931045e-01 3.46014261e-01 3.48105639e-01 3.48567963e-01 3.47813278e-01 3.46430004e-01 3.45378250e-01 3.46185535e-01 3.50959837e-01 3.61632764e-01 3.76525164e-01 3.87281448e-01 3.83326054e-01 3.88767034e-01 5.04448473e-01 3.05478096e-01 4.50507194e-01 3.72711569e-01 2.46377259e-01 1.94918111e-01 1.80344716e-01 1.85049504e-01 2.00263202e-01 2.20409498e-01 2.42199644e-01 2.63729900e-01 2.83778667e-01 3.01525682e-01 3.16475630e-01 3.28431398e-01 3.37452561e-01 3.43784988e-01 3.47776324e-01 3.49807650e-01 3.50272566e-01 3.49627703e-01 3.48526448e-01 3.48021656e-01 3.49774569e-01 3.56058329e-01 3.68676007e-01 3.84634644e-01 3.88498694e-01 3.82416785e-01 3.90367150e-01 5.05645156e-01 3.04407448e-01 4.53777820e-01 3.75518888e-01 2.47429207e-01 1.95155382e-01 1.80245936e-01 1.84884831e-01 2.00127527e-01 2.20325693e-01 2.42201120e-01 2.63868868e-01 2.84109831e-01 3.02089453e-01 3.17286849e-01 3.29476267e-01 3.38693798e-01 3.45174253e-01 3.49271625e-01 3.51392925e-01 3.51973116e-01 3.51510882e-01 3.50665390e-01 3.50386202e-01 3.52005392e-01 3.57141793e-01 3.67016047e-01 3.80343407e-01 3.90462160e-01 3.86918843e-01 3.91908556e-01 5.06367266e-01 3.02187175e-01 4.50598329e-01 3.81159812e-01 2.51323819e-01 1.96841896e-01 1.80588692e-01 1.84381574e-01 1.99071750e-01 2.18922466e-01 2.40635291e-01 2.62329549e-01 2.82781273e-01 3.01126659e-01 3.16791832e-01 3.29485089e-01 3.39179873e-01 3.46067160e-01 3.50486428e-01 3.52860302e-01 3.53657871e-01 3.53400290e-01 3.52701813e-01 3.52310777e-01 3.53081405e-01 3.55790406e-01 3.60767514e-01 3.67491156e-01 3.74619275e-01 3.81261289e-01 3.93491387e-01 5.16029894e-01 2.98848391e-01 4.40155089e-01 3.89382422e-01 2.58677781e-01 2.00602353e-01 1.81919545e-01 1.83993384e-01 1.97454229e-01 2.16467336e-01 2.37680599e-01 2.59199202e-01 2.79788911e-01 2.98549503e-01 3.14836860e-01 3.28264952e-01 3.38709414e-01 3.46282214e-01 3.51278603e-01 3.54115009e-01 3.55279237e-01 3.55305284e-01 3.54766756e-01 3.54261041e-01 3.54336083e-01 3.55315655e-01 3.57058257e-01 3.58882397e-01 3.60044420e-01 3.60861152e-01 3.70313793e-01 4.81821299e-01 2.94452876e-01 4.21791017e-01 3.98985744e-01 2.70108908e-01 2.07245529e-01 1.84981689e-01 1.84352174e-01 1.95772797e-01 2.13322073e-01 2.33564258e-01 2.54565805e-01 2.75077075e-01 2.94164300e-01 3.11111003e-01 3.25423002e-01 3.36850971e-01 3.45391810e-01 3.51258039e-01 3.54825467e-01 3.56576115e-01 3.57049823e-01 3.56804013e-01 3.56366426e-01 3.56155843e-01 3.56355488e-01 3.56780112e-01 3.56888562e-01 3.56157184e-01 3.54869246e-01 3.63789201e-01 4.68117595e-01 2.89033294e-01 3.95466864e-01 4.07163680e-01 2.85699844e-01 2.17560187e-01 1.90601677e-01 1.86201125e-01 1.94631919e-01 2.09930658e-01 2.28565007e-01 2.48533487e-01 2.68563002e-01 2.87697285e-01 3.05163145e-01 3.20364028e-01 3.32914144e-01 3.42664778e-01 3.49701941e-01 3.54312956e-01 3.56933266e-01 3.58085752e-01 3.58318806e-01 3.58139098e-01 3.57930630e-01 3.57860923e-01 3.57811451e-01 3.57422113e-01 3.56342107e-01 3.54716241e-01 3.64536822e-01 4.66576964e-01 2.82531738e-01 3.62500578e-01 4.09503520e-01 3.04098755e-01 2.31964871e-01 1.99555367e-01 1.90343544e-01 1.94742903e-01 2.06849992e-01 2.23064795e-01 2.41296068e-01 2.60233104e-01 2.78909087e-01 2.96522349e-01 3.12402040e-01 3.26037467e-01 3.37121159e-01 3.45574826e-01 3.51543337e-01 3.55358094e-01 3.57478321e-01 3.58419567e-01 3.58674437e-01 3.58627856e-01 3.58476251e-01 3.58181149e-01 3.57511163e-01 3.56205255e-01 3.54322881e-01 3.65319163e-01 4.65035349e-01 2.74942696e-01 3.26065332e-01 4.01676208e-01 3.21577698e-01 2.49852374e-01 2.12352008e-01 1.97612405e-01 1.96985632e-01 2.04865292e-01 2.17692658e-01 2.33304992e-01 2.50340760e-01 2.67825216e-01 2.84956604e-01 3.01031321e-01 3.15450281e-01 3.27762425e-01 3.37710798e-01 3.45256120e-01 3.50566477e-01 3.53974879e-01 3.55912507e-01 3.56828034e-01 3.57101291e-01 3.56964380e-01 3.56454015e-01 3.55427921e-01 3.53658855e-01 3.51192892e-01 3.63658816e-01 4.60907936e-01 2.66998976e-01 2.90868759e-01 3.82128894e-01 3.32124591e-01 2.68495768e-01 2.28684381e-01 2.08746478e-01 2.02500150e-01 2.05203608e-01 2.13596717e-01 2.25561798e-01 2.39713624e-01 2.55071044e-01 2.70846993e-01 2.86341071e-01 3.00912589e-01 3.14007759e-01 3.25210929e-01 3.34289968e-01 3.41214478e-01 3.46138120e-01 3.49349588e-01 3.51201445e-01 3.52029473e-01 3.52075636e-01 3.51431191e-01 3.50017488e-01 3.47608656e-01 3.44298512e-01 3.58460128e-01 4.55376327e-01 2.61167049e-01 2.62567937e-01 3.55429143e-01 3.30392152e-01 2.82110512e-01 2.46190891e-01 2.23757759e-01 2.12533891e-01 2.09684819e-01 2.12782189e-01 2.20039025e-01 2.30188787e-01 2.42302075e-01 2.55629599e-01 2.69495517e-01 2.83252060e-01 2.96288490e-01 3.08073193e-01 3.18206072e-01 3.26459318e-01 3.32789034e-01 3.37311029e-01 3.40245605e-01 3.41844350e-01 3.42315316e-01 3.41760278e-01 3.40123415e-01 3.37144881e-01 3.33039165e-01 3.48693699e-01 4.49573606e-01 2.61081159e-01 2.43514806e-01 3.32360297e-01 3.20508838e-01 2.84816980e-01 2.59071350e-01 2.40105569e-01 2.27206811e-01 2.20098376e-01 2.17985988e-01 2.19924808e-01 2.25073799e-01 2.32743055e-01 2.42330134e-01 2.53245801e-01 2.64882714e-01 2.76623815e-01 2.87874132e-01 2.98107386e-01 3.06918502e-01 3.14065188e-01 3.19480270e-01 3.23244035e-01 3.25521678e-01 3.26483339e-01 3.26227725e-01 3.24703991e-01 3.21557492e-01 3.17150205e-01 3.33582371e-01 4.43066180e-01 2.68368542e-01 2.28294298e-01 3.14880431e-01 3.17287356e-01 2.82082409e-01 2.61922181e-01 2.50792265e-01 2.42245764e-01 2.35337257e-01 2.30612591e-01 2.28389084e-01 2.28652000e-01 2.31249511e-01 2.35957116e-01 2.42462397e-01 2.50357240e-01 2.59149373e-01 2.68288881e-01 2.77212441e-01 2.85402149e-01 2.92443305e-01 2.98065901e-01 3.02156299e-01 3.04732352e-01 3.05888087e-01 3.05726558e-01 3.04295093e-01 3.01369071e-01 2.97042847e-01 3.13255370e-01 4.32211399e-01 2.79322296e-01 2.12925822e-01 2.87799895e-01 3.21551025e-01 2.90836215e-01 2.62551636e-01 2.49535248e-01 2.45667681e-01 2.44652763e-01 2.43834242e-01 2.42804006e-01 2.41886482e-01 2.41519243e-01 2.42074817e-01 2.43794084e-01 2.46756017e-01 2.50867426e-01 2.55873352e-01 2.61400402e-01 2.67026722e-01 2.72349924e-01 2.77030826e-01 2.80810177e-01 2.83501863e-01 2.84972966e-01 2.85132974e-01 2.83963263e-01 2.81636685e-01 2.79051602e-01 2.92768270e-01 4.11794662e-01 2.86757886e-01 2.08573446e-01 2.43467763e-01 3.00052941e-01 3.04816723e-01 2.81255513e-01 2.56693423e-01 2.40171000e-01 2.33207330e-01 2.33751893e-01 2.38429502e-01 2.44332194e-01 2.49805197e-01 2.54329741e-01 2.58030027e-01 2.61239380e-01 2.64266253e-01 2.67310292e-01 2.70453364e-01 2.73690432e-01 2.76968241e-01 2.80200303e-01 2.83264309e-01 2.85999149e-01 2.88205355e-01 2.89653957e-01 2.90124387e-01 2.89591372e-01 2.89654255e-01 2.99448848e-01 3.95185411e-01 2.87632048e-01 2.11343184e-01 2.13354707e-01 2.32210726e-01 2.51290679e-01 2.61169374e-01 2.63405472e-01 2.58595526e-01 2.49452665e-01 2.40114018e-01 2.33924299e-01 2.32376352e-01 2.35445097e-01 2.42428079e-01 2.52517283e-01 2.65005618e-01 2.79304326e-01 2.94907242e-01 3.11356664e-01 3.28227639e-01 3.45123738e-01 3.61666590e-01 3.77477497e-01 3.92170817e-01 4.05377120e-01 4.16809201e-01 4.26387906e-01 4.34493005e-01 4.42263097e-01 4.53835815e-01 4.36488062e-01 3.48197997e-01 2.79422194e-01 2.76377648e-01 2.91347057e-01 3.00782651e-01 2.99640208e-01 2.93465197e-01 2.87522227e-01 2.83069074e-01 2.79931813e-01 2.77882785e-01 2.76778013e-01 2.76491702e-01 2.76925027e-01 2.78012812e-01 2.79712290e-01 2.81989664e-01 2.84808248e-01 2.88115799e-01 2.91835666e-01 2.95867324e-01 3.00092459e-01 3.04377407e-01 3.08576345e-01 3.12546521e-01 3.16182345e-01 3.19473475e-01 3.22595119e-01 3.26027721e-01 3.30000162e-01 3.53512496e-01 
