# vtk DataFile Version 2.0
results_case1_non_linear/iter7.vtk, Created by Freefem++ 
ASCII
DATASET UNSTRUCTURED_GRID
POINTS 961 float
0 0 0
0.033333333 0 0
0.066666667 0 0
0.1 0 0
0.13333333 0 0
0.16666667 0 0
0.2 0 0
0.23333333 0 0
0.26666667 0 0
0.3 0 0
0.33333333 0 0
0.36666667 0 0
0.4 0 0
0.43333333 0 0
0.46666667 0 0
0.5 0 0
0.53333333 0 0
0.56666667 0 0
0.6 0 0
0.63333333 0 0
0.66666667 0 0
0.7 0 0
0.73333333 0 0
0.76666667 0 0
0.8 0 0
0.83333333 0 0
0.86666667 0 0
0.9 0 0
0.93333333 0 0
0.96666667 0 0
1 0 0
0 0.033333333 0
0.033333333 0.033333333 0
0.066666667 0.033333333 0
0.1 0.033333333 0
0.13333333 0.033333333 0
0.16666667 0.033333333 0
0.2 0.033333333 0
0.23333333 0.033333333 0
0.26666667 0.033333333 0
0.3 0.033333333 0
0.33333333 0.033333333 0
0.36666667 0.033333333 0
0.4 0.033333333 0
0.43333333 0.033333333 0
0.46666667 0.033333333 0
0.5 0.033333333 0
0.53333333 0.033333333 0
0.56666667 0.033333333 0
0.6 0.033333333 0
0.63333333 0.033333333 0
0.66666667 0.033333333 0
0.7 0.033333333 0
0.73333333 0.033333333 0
0.76666667 0.033333333 0
0.8 0.033333333 0
0.83333333 0.033333333 0
0.86666667 0.033333333 0
0.9 0.033333333 0
0.93333333 0.033333333 0
0.96666667 0.033333333 0
1 0.033333333 0
0 0.066666667 0
0.033333333 0.066666667 0
0.066666667 0.066666667 0
0.1 0.066666667 0
0.13333333 0.066666667 0
0.16666667 0.066666667 0
0.2 0.066666667 0
0.23333333 0.066666667 0
0.26666667 0.066666667 0
0.3 0.066666667 0
0.33333333 0.066666667 0
0.36666667 0.066666667 0
0.4 0.066666667 0
0.43333333 0.066666667 0
0.46666667 0.066666667 0
0.5 0.066666667 0
0.53333333 0.066666667 0
0.56666667 0.066666667 0
0.6 0.066666667 0
0.63333333 0.066666667 0
0.66666667 0.066666667 0
0.7 0.066666667 0
0.73333333 0.066666667 0
0.76666667 0.066666667 0
0.8 0.066666667 0
0.83333333 0.066666667 0
0.86666667 0.066666667 0
0.9 0.066666667 0
0.93333333 0.066666667 0
0.96666667 0.066666667 0
1 0.066666667 0
0 0.1 0
0.033333333 0.1 0
0.066666667 0.1 0
0.1 0.1 0
0.13333333 0.1 0
0.16666667 0.1 0
0.2 0.1 0
0.23333333 0.1 0
0.26666667 0.1 0
0.3 0.1 0
0.33333333 0.1 0
0.36666667 0.1 0
0.4 0.1 0
0.43333333 0.1 0
0.46666667 0.1 0
0.5 0.1 0
0.53333333 0.1 0
0.56666667 0.1 0
0.6 0.1 0
0.63333333 0.1 0
0.66666667 0.1 0
0.7 0.1 0
0.73333333 0.1 0
0.76666667 0.1 0
0.8 0.1 0
0.83333333 0.1 0
0.86666667 0.1 0
0.9 0.1 0
0.93333333 0.1 0
0.96666667 0.1 0
1 0.1 0
0 0.13333333 0
0.033333333 0.13333333 0
0.066666667 0.13333333 0
0.1 0.13333333 0
0.13333333 0.13333333 0
0.16666667 0.13333333 0
0.2 0.13333333 0
0.23333333 0.13333333 0
0.26666667 0.13333333 0
0.3 0.13333333 0
0.33333333 0.13333333 0
0.36666667 0.13333333 0
0.4 0.13333333 0
0.43333333 0.13333333 0
0.46666667 0.13333333 0
0.5 0.13333333 0
0.53333333 0.13333333 0
0.56666667 0.13333333 0
0.6 0.13333333 0
0.63333333 0.13333333 0
0.66666667 0.13333333 0
0.7 0.13333333 0
0.73333333 0.13333333 0
0.76666667 0.13333333 0
0.8 0.13333333 0
0.83333333 0.13333333 0
0.86666667 0.13333333 0
0.9 0.13333333 0
0.93333333 0.13333333 0
0.96666667 0.13333333 0
1 0.13333333 0
0 0.16666667 0
0.033333333 0.16666667 0
0.066666667 0.16666667 0
0.1 0.16666667 0
0.13333333 0.16666667 0
0.16666667 0.16666667 0
0.2 0.16666667 0
0.23333333 0.16666667 0
0.26666667 0.16666667 0
0.3 0.16666667 0
0.33333333 0.16666667 0
0.36666667 0.16666667 0
0.4 0.16666667 0
0.43333333 0.16666667 0
0.46666667 0.16666667 0
0.5 0.16666667 0
0.53333333 0.16666667 0
0.56666667 0.16666667 0
0.6 0.16666667 0
0.63333333 0.16666667 0
0.66666667 0.16666667 0
0.7 0.16666667 0
0.73333333 0.16666667 0
0.76666667 0.16666667 0
0.8 0.16666667 0
0.83333333 0.16666667 0
0.86666667 0.16666667 0
0.9 0.16666667 0
0.93333333 0.16666667 0
0.96666667 0.16666667 0
1 0.16666667 0
0 0.2 0
0.033333333 0.2 0
0.066666667 0.2 0
0.1 0.2 0
0.13333333 0.2 0
0.16666667 0.2 0
0.2 0.2 0
0.23333333 0.2 0
0.26666667 0.2 0
0.3 0.2 0
0.33333333 0.2 0
0.36666667 0.2 0
0.4 0.2 0
0.43333333 0.2 0
0.46666667 0.2 0
0.5 0.2 0
0.53333333 0.2 0
0.56666667 0.2 0
0.6 0.2 0
0.63333333 0.2 0
0.66666667 0.2 0
0.7 0.2 0
0.73333333 0.2 0
0.76666667 0.2 0
0.8 0.2 0
0.83333333 0.2 0
0.86666667 0.2 0
0.9 0.2 0
0.93333333 0.2 0
0.96666667 0.2 0
1 0.2 0
0 0.23333333 0
0.033333333 0.23333333 0
0.066666667 0.23333333 0
0.1 0.23333333 0
0.13333333 0.23333333 0
0.16666667 0.23333333 0
0.2 0.23333333 0
0.23333333 0.23333333 0
0.26666667 0.23333333 0
0.3 0.23333333 0
0.33333333 0.23333333 0
0.36666667 0.23333333 0
0.4 0.23333333 0
0.43333333 0.23333333 0
0.46666667 0.23333333 0
0.5 0.23333333 0
0.53333333 0.23333333 0
0.56666667 0.23333333 0
0.6 0.23333333 0
0.63333333 0.23333333 0
0.66666667 0.23333333 0
0.7 0.23333333 0
0.73333333 0.23333333 0
0.76666667 0.23333333 0
0.8 0.23333333 0
0.83333333 0.23333333 0
0.86666667 0.23333333 0
0.9 0.23333333 0
0.93333333 0.23333333 0
0.96666667 0.23333333 0
1 0.23333333 0
0 0.26666667 0
0.033333333 0.26666667 0
0.066666667 0.26666667 0
0.1 0.26666667 0
0.13333333 0.26666667 0
0.16666667 0.26666667 0
0.2 0.26666667 0
0.23333333 0.26666667 0
0.26666667 0.26666667 0
0.3 0.26666667 0
0.33333333 0.26666667 0
0.36666667 0.26666667 0
0.4 0.26666667 0
0.43333333 0.26666667 0
0.46666667 0.26666667 0
0.5 0.26666667 0
0.53333333 0.26666667 0
0.56666667 0.26666667 0
0.6 0.26666667 0
0.63333333 0.26666667 0
0.66666667 0.26666667 0
0.7 0.26666667 0
0.73333333 0.26666667 0
0.76666667 0.26666667 0
0.8 0.26666667 0
0.83333333 0.26666667 0
0.86666667 0.26666667 0
0.9 0.26666667 0
0.93333333 0.26666667 0
0.96666667 0.26666667 0
1 0.26666667 0
0 0.3 0
0.033333333 0.3 0
0.066666667 0.3 0
0.1 0.3 0
0.13333333 0.3 0
0.16666667 0.3 0
0.2 0.3 0
0.23333333 0.3 0
0.26666667 0.3 0
0.3 0.3 0
0.33333333 0.3 0
0.36666667 0.3 0
0.4 0.3 0
0.43333333 0.3 0
0.46666667 0.3 0
0.5 0.3 0
0.53333333 0.3 0
0.56666667 0.3 0
0.6 0.3 0
0.63333333 0.3 0
0.66666667 0.3 0
0.7 0.3 0
0.73333333 0.3 0
0.76666667 0.3 0
0.8 0.3 0
0.83333333 0.3 0
0.86666667 0.3 0
0.9 0.3 0
0.93333333 0.3 0
0.96666667 0.3 0
1 0.3 0
0 0.33333333 0
0.033333333 0.33333333 0
0.066666667 0.33333333 0
0.1 0.33333333 0
0.13333333 0.33333333 0
0.16666667 0.33333333 0
0.2 0.33333333 0
0.23333333 0.33333333 0
0.26666667 0.33333333 0
0.3 0.33333333 0
0.33333333 0.33333333 0
0.36666667 0.33333333 0
0.4 0.33333333 0
0.43333333 0.33333333 0
0.46666667 0.33333333 0
0.5 0.33333333 0
0.53333333 0.33333333 0
0.56666667 0.33333333 0
0.6 0.33333333 0
0.63333333 0.33333333 0
0.66666667 0.33333333 0
0.7 0.33333333 0
0.73333333 0.33333333 0
0.76666667 0.33333333 0
0.8 0.33333333 0
0.83333333 0.33333333 0
0.86666667 0.33333333 0
0.9 0.33333333 0
0.93333333 0.33333333 0
0.96666667 0.33333333 0
1 0.33333333 0
0 0.36666667 0
0.033333333 0.36666667 0
0.066666667 0.36666667 0
0.1 0.36666667 0
0.13333333 0.36666667 0
0.16666667 0.36666667 0
0.2 0.36666667 0
0.23333333 0.36666667 0
0.26666667 0.36666667 0
0.3 0.36666667 0
0.33333333 0.36666667 0
0.36666667 0.36666667 0
0.4 0.36666667 0
0.43333333 0.36666667 0
0.46666667 0.36666667 0
0.5 0.36666667 0
0.53333333 0.36666667 0
0.56666667 0.36666667 0
0.6 0.36666667 0
0.63333333 0.36666667 0
0.66666667 0.36666667 0
0.7 0.36666667 0
0.73333333 0.36666667 0
0.76666667 0.36666667 0
0.8 0.36666667 0
0.83333333 0.36666667 0
0.86666667 0.36666667 0
0.9 0.36666667 0
0.93333333 0.36666667 0
0.96666667 0.36666667 0
1 0.36666667 0
0 0.4 0
0.033333333 0.4 0
0.066666667 0.4 0
0.1 0.4 0
0.13333333 0.4 0
0.16666667 0.4 0
0.2 0.4 0
0.23333333 0.4 0
0.26666667 0.4 0
0.3 0.4 0
0.33333333 0.4 0
0.36666667 0.4 0
0.4 0.4 0
0.43333333 0.4 0
0.46666667 0.4 0
0.5 0.4 0
0.53333333 0.4 0
0.56666667 0.4 0
0.6 0.4 0
0.63333333 0.4 0
0.66666667 0.4 0
0.7 0.4 0
0.73333333 0.4 0
0.76666667 0.4 0
0.8 0.4 0
0.83333333 0.4 0
0.86666667 0.4 0
0.9 0.4 0
0.93333333 0.4 0
0.96666667 0.4 0
1 0.4 0
0 0.43333333 0
0.033333333 0.43333333 0
0.066666667 0.43333333 0
0.1 0.43333333 0
0.13333333 0.43333333 0
0.16666667 0.43333333 0
0.2 0.43333333 0
0.23333333 0.43333333 0
0.26666667 0.43333333 0
0.3 0.43333333 0
0.33333333 0.43333333 0
0.36666667 0.43333333 0
0.4 0.43333333 0
0.43333333 0.43333333 0
0.46666667 0.43333333 0
0.5 0.43333333 0
0.53333333 0.43333333 0
0.56666667 0.43333333 0
0.6 0.43333333 0
0.63333333 0.43333333 0
0.66666667 0.43333333 0
0.7 0.43333333 0
0.73333333 0.43333333 0
0.76666667 0.43333333 0
0.8 0.43333333 0
0.83333333 0.43333333 0
0.86666667 0.43333333 0
0.9 0.43333333 0
0.93333333 0.43333333 0
0.96666667 0.43333333 0
1 0.43333333 0
0 0.46666667 0
0.033333333 0.46666667 0
0.066666667 0.46666667 0
0.1 0.46666667 0
0.13333333 0.46666667 0
0.16666667 0.46666667 0
0.2 0.46666667 0
0.23333333 0.46666667 0
0.26666667 0.46666667 0
0.3 0.46666667 0
0.33333333 0.46666667 0
0.36666667 0.46666667 0
0.4 0.46666667 0
0.43333333 0.46666667 0
0.46666667 0.46666667 0
0.5 0.46666667 0
0.53333333 0.46666667 0
0.56666667 0.46666667 0
0.6 0.46666667 0
0.63333333 0.46666667 0
0.66666667 0.46666667 0
0.7 0.46666667 0
0.73333333 0.46666667 0
0.76666667 0.46666667 0
0.8 0.46666667 0
0.83333333 0.46666667 0
0.86666667 0.46666667 0
0.9 0.46666667 0
0.93333333 0.46666667 0
0.96666667 0.46666667 0
1 0.46666667 0
0 0.5 0
0.033333333 0.5 0
0.066666667 0.5 0
0.1 0.5 0
0.13333333 0.5 0
0.16666667 0.5 0
0.2 0.5 0
0.23333333 0.5 0
0.26666667 0.5 0
0.3 0.5 0
0.33333333 0.5 0
0.36666667 0.5 0
0.4 0.5 0
0.43333333 0.5 0
0.46666667 0.5 0
0.5 0.5 0
0.53333333 0.5 0
0.56666667 0.5 0
0.6 0.5 0
0.63333333 0.5 0
0.66666667 0.5 0
0.7 0.5 0
0.73333333 0.5 0
0.76666667 0.5 0
0.8 0.5 0
0.83333333 0.5 0
0.86666667 0.5 0
0.9 0.5 0
0.93333333 0.5 0
0.96666667 0.5 0
1 0.5 0
0 0.53333333 0
0.033333333 0.53333333 0
0.066666667 0.53333333 0
0.1 0.53333333 0
0.13333333 0.53333333 0
0.16666667 0.53333333 0
0.2 0.53333333 0
0.23333333 0.53333333 0
0.26666667 0.53333333 0
0.3 0.53333333 0
0.33333333 0.53333333 0
0.36666667 0.53333333 0
0.4 0.53333333 0
0.43333333 0.53333333 0
0.46666667 0.53333333 0
0.5 0.53333333 0
0.53333333 0.53333333 0
0.56666667 0.53333333 0
0.6 0.53333333 0
0.63333333 0.53333333 0
0.66666667 0.53333333 0
0.7 0.53333333 0
0.73333333 0.53333333 0
0.76666667 0.53333333 0
[...]
CELL_DATA 1920
Scalars  Label int 1
LOOKUP_TABLE FreeFempp_table
0
0
0
0
0
0
0
0
0
0
0
0
0
0
0
0
0
0
0
0
0
0
0
0
0
0
0
0
0
0
0
0
0
0
0
0
0
0
0
0
0
0
0
0
0
0
0
0
0
0
0
0
0
0
0
0
0
0
0
0
0
0
0
0
0
0
0
0
0
0
0
0
0
0
0
0
0
0
0
0
0
0
0
0
0
0
0
0
0
0
0
0
0
0
0
0
0
0
0
0
0
0
0
0
0
0
0
0
0
0
0
0
0
0
0
0
0
0
0
0
0
0
0
0
0
0
0
0
0
0
0
0
0
0
0
0
0
0
0
0
0
0
0
0
0
0
0
0
0
0
0
0
0
0
0
0
0
0
0
0
0
0
0
0
0
0
0
0
0
0
0
0
0
0
0
0
0
0
0
0
0
0
0
0
0
0
0
0
0
0
0
0
0
0
0
0
0
0
0
0
0
0
0
0
0
0
0
0
0
0
0
0
0
0
0
0
0
0
0
0
0
0
0
0
0
0
0
0
0
0
0
0
0
0
0
0
0
0
0
0
0
0
0
0
0
0
0
0
0
0
0
0
0
0
0
0
0
0
0
0
0
0
0
0
0
0
0
0
0
0
0
0
0
0
0
0
0
0
0
0
0
0
0
0
0
0
0
0
0
0
0
0
0
0
0
0
0
0
0
0
0
0
0
0
0
0
0
0
0
0
0
0
0
0
0
0
0
0
0
0
0
0
0
0
0
0
0
0
0
0
0
0
0
0
0
0
0
0
0
0
0
0
0
0
0
0
0
0
0
0
0
0
0
0
0
0
0
0
0
0
0
0
0
0
0
0
0
0
0
0
0
0
0
0
0
0
0
0
0
0
0
0
0
0
0
0
0
0
0
0
0
0
0
0
0
0
0
0
0
0
0
0
0
0
0
0
0
0
0
0
0
0
0
0
0
0
0
0
0
0
0
0
0
0
0
0
0
0
0
0
0
0
0
0
0
0
0
0
0
0
0
0
0
0
0
0
0
0
0
0
0
0
0
0
0
0
0
0
0
0
0
0
0
0
0
0
0
0
0
0
0
0
0
0
0
0
0
0
0
0
0
0
0
0
0
0
0
0
0
0
0
0
0
0
0
0
0
0
0
0
0
0
0
0
0
0
0
0
0
0
0
0
0
0
0
0
0
0
0
0
0
0
0
0
0
0
0
0
0
0
0
0
0
0
0
0
0
0
0
0
0
0
0
0
0
0
0
0
0
0
0
0
0
0
0
0
0
0
0
0
0
0
0
0
0
0
0
0
0
0
0
0
0
0
0
0
0
0
0
0
0
0
0
0
0
0
0
0
0
0
0
0
0
0
0
0
0
0
0
0
0
0
0
0
0
0
0
0
0
0
0
0
0
0
0
0
0
0
0
0
0
0
0
0
0
0
0
0
0
0
0
0
0
0
0
0
0
0
0
0
0
0
0
0
0
0
0
0
0
0
0
0
0
0
0
0
0
0
0
0
0
0
0
0
0
0
0
0
0
0
0
0
0
0
0
0
0
0
0
0
0
0
0
0
0
0
0
0
0
0
0
0
0
0
0
0
0
0
0
0
0
0
0
0
0
0
0
0
0
0
0
0
0
0
0
0
0
0
0
0
0
0
0
0
0
0
0
0
0
0
0
0
0
0
0
0
0
0
0
0
0
0
0
0
0
0
0
0
0
0
0
0
0
0
0
0
0
0
0
0
0
0
0
0
0
0
0
0
0
0
0
0
0
0
0
0
0
0
0
0
0
0
0
0
0
0
0
0
0
0
0
0
0
0
0
0
0
0
0
0
0
0
0
0
0
0
0
0
0
0
0
0
0
0
0
0
0
0
0
0
0
0
0
0
0
0
0
0
0
0
0
0
0
0
0
0
0
0
0
0
0
0
0
0
0
0
0
0
0
0
0
0
0
0
0
0
0
0
0
0
0
0
0
0
0
0
0
0
0
0
0
0
0
0
0
0
0
0
0
0
0
0
0
0
0
0
0
0
0
0
0
0
0
0
0
0
0
0
0
0
0
0
0
0
0
0
0
0
0
0
0
0
0
0
0
0
0
0
0
0
0
0
0
0
0
0
0
0
0
0
0
0
0
0
0
0
0
0
0
0
0
0
0
0
0
0
0
0
0
0
0
0
0
0
0
0
0
0
0
0
0
0
0
0
0
0
0
0
0
0
0
0
0
0
0
0
0
0
0
0
0
0
0
0
0
0
0
0
0
0
0
0
0
0
0
0
0
0
0
0
0
0
0
0
0
0
0
0
0
0
0
0
0
0
0
0
0
0
0
0
0
0
0
0
0
0
0
0
0
0
0
0
0
0
0
0
0
0
0
0
0
0
0
0
0
0
0
0
0
0
0
0
0
0
0
0
0
0
0
0
0
0
0
0
0
0
0
0
0
0
0
0
0
0
0
0
0
0
0
0
0
0
0
0
0
0
0
0
0
0
0
0
0
0
0
0
0
0
0
0
0
0
0
0
0
0
0
0
0
0
0
0
0
0
0
0
0
0
0
0
0
0
0
0
0
0
0
0
0
0
0
0
0
0
0
0
0
0
0
0
0
0
0
0
0
0
0
0
0
0
0
0
0
0
0
0
0
0
0
0
0
0
0
0
0
0
0
0
0
0
0
0
0
0
0
0
0
0
0
0
0
0
0
0
0
0
0
0
0
0
0
0
0
0
0
0
0
0
0
0
0
0
0
0
0
0
0
0
0
0
0
0
0
0
0
0
0
0
0
0
0
0
0
0
0
0
0
0
0
0
0
0
0
0
0
0
0
0
0
0
0
0
0
0
0
0
0
0
0
0
0
0
0
0
0
0
0
0
0
0
0
0
0
0
0
0
0
0
0
0
0
0
0
0
0
0
0
0
0
0
0
0
0
0
0
0
0
0
0
0
0
0
0
0
0
0
0
0
0
0
0
0
0
0
0
0
0
0
0
0
0
0
0
0
0
0
0
0
0
0
0
0
0
0
0
0
0
0
0
0
0
0
0
0
0
0
0
0
0
0
0
0
0
0
0
0
0
0
0
0
0
0
0
0
0
0
0
0
0
0
0
0
0
0
0
0
0
0
0
0
0
0
0
0
0
0
0
0
0
0
0
0
0
0
0
0
0
0
0
0
0
0
0
0
0
0
0
0
0
0
0
0
0
0
0
0
0
0
0
0
0
0
0
0
0
0
0
0
0
0
0
0
0
0
0
0
0
0
0
0
0
0
0
0
0
0
0
0
0
0
0
0
0
0
0
0
0
0
0
0
0
0
0
0
0
0
0
0
0
0
0
0
0
0
0
0
0
0
0
0
0
0
0
0
0
0
0
0
0
0
0
0
0
0
0
0
0
0
0
0
0
0
0
0
0
0
0
0
0
0
0
0
0
0
0
0
0
0
0
0
0
0
0
0
0
0
0
0
0
0
0
0
0
0
0
0
0
0
0
0
0
0
0
0
0
0
0
0
0
0
0
0
0
0
0
0
0
0
0
0
0
0
0
0
0
0
0
0
0
0
0
0
0
0
0
0
0
0
0
0
0
0
0
0
0
0
0
0
0
0
0
0
0
0
0
0
0
0
0
0
0
0
0
0
0
0
0
0
0
0
0
0
0
0
0
0
0
0
0
0
0
0
0
0
0
0
0
0
0
0
0
0
0
0
0
0
0
0
0
0
0
0
0
0
0
0
0
0
0
0
0
0
0
0
0
0
0
0
0
0
0
0
0
0
0
0
0
0
0
0
0
0
0
0
0
0
0
0
0
0
0
0
0
0
0
0
0
0
0
0
0
0
0
0
0
0
0
0
0
0
0
0
0
0
0
0
0
0
0
0
0
0
0
0
0
0
0
0
0
0
0
0
0
0
0
0
0
0
0
0
0
0
0
0
0
0
0
0
0
0
0
0
0
0
0
0
0
0
0
0
0
0
0
0
0
0
0
0
0
0
0
0
0
0
0
0
0
0
0
0
0
0
0
0
0
0
0
0
0
0
0
0
0
0
0
0
0
0
0
0
0
0
0
0
0
0
0
0
0
0
0
0
0
0
0
0
0
0
0
0
1
1
1
1
1
1
1
1
1
1
1
1
1
1
1
1
1
1
1
1
1
1
1
1
1
1
1
1
1
1
2
2
2
2
2
2
2
2
2
2
2
2
2
2
2
2
2
2
2
2
2
2
2
2
2
2
2
2
2
2
3
3
3
3
3
3
3
3
3
3
3
3
3
3
3
3
3
3
3
3
3
3
3
3
3
3
3
3
3
3
4
4
4
4
4
4
4
4
4
4
4
4
4
4
4
4
4
4
4
4
4
4
4
4
4
4
4
4
4
4

LOOKUP_TABLE FreeFempp_table 5
1.00000000 0.00000000 0.00000000 1.00000000
1.00000000 1.00000000 0.00000000 1.00000000
1.00000000 0.00000000 1.00000000 1.00000000
0.00000000 1.00000000 0.00000000 1.00000000
0.00000000 1.00000000 1.00000000 1.00000000

POINT_DATA 961
FIELD FieldData 1
Density 1 961 float
6.39372289e-01 4.86011773e-01 4.32565242e-01 4.46638405e-01 4.41317081e-01 3.98784310e-01 3.22254270e-01 2.26533487e-01 1.21913537e-01 9.98801365e-03 1.61947520e-03 6.45315722e-02 5.58817002e-04 1.52827078e-03 7.81174526e-02 2.79597819e-01 5.52447736e-01 8.46321046e-01 9.57611918e-01 9.80310857e-01 9.79389668e-01 9.52632368e-01 8.51493359e-01 6.99723065e-01 6.42364442e-01 6.69558823e-01 7.14628875e-01 7.47222781e-01 7.68757284e-01 7.66522884e-01 7.49445379e-01 1.65472680e-04 2.45188043e-04 3.27930949e-03 1.37782872e-01 1.84951127e-01 1.57737330e-01 8.61855969e-02 1.54614635e-02 2.13220832e-03 5.38854103e-04 2.73713027e-04 2.58163520e-04 2.30544916e-04 4.39058786e-04 1.42884515e-02 9.18134078e-02 2.60715485e-01 8.01164508e-01 9.85998750e-01 9.96548772e-01 9.97421563e-01 9.94598210e-01 9.68332648e-01 8.10949922e-01 6.04740083e-01 5.75042427e-01 6.35051727e-01 7.00342596e-01 7.44661808e-01 7.49143541e-01 7.48893619e-01 1.43044410e-04 1.25342092e-04 1.24370301e-04 1.20998317e-04 1.21084275e-04 1.21169600e-04 1.24829021e-04 1.27803025e-04 1.34928443e-04 1.52562803e-04 1.66947590e-04 1.61287739e-04 1.40102464e-04 1.37104231e-04 6.43392035e-04 1.30825162e-01 2.45311916e-01 7.22845197e-01 9.83856857e-01 9.96580184e-01 9.97239053e-01 9.94254351e-01 9.70734894e-01 8.66272271e-01 7.38912106e-01 7.04241276e-01 7.08505332e-01 7.19423115e-01 7.34878898e-01 7.15911150e-01 7.26174653e-01 3.57859331e-04 1.55223301e-04 1.36178234e-04 1.25200051e-04 1.20335229e-04 1.20651872e-04 1.21899822e-04 1.25581777e-04 1.28919492e-04 1.40106844e-04 1.61260294e-04 1.78208647e-04 1.46836843e-04 1.14247618e-04 1.12307629e-04 1.27919426e-04 1.67660698e-01 5.39441586e-01 9.64683056e-01 9.96444583e-01 9.98041928e-01 9.94959772e-01 9.52533126e-01 6.67887092e-01 4.88064110e-01 6.03662074e-01 7.17684865e-01 7.32149363e-01 6.98696375e-01 6.51794612e-01 7.06262231e-01 7.87793875e-01 7.46765196e-01 7.28312552e-01 7.28333294e-01 7.05779552e-01 6.71882272e-01 6.13700986e-01 5.28971255e-01 3.29207957e-01 6.65351748e-02 2.14738734e-02 1.48748783e-02 3.80440545e-03 1.99074537e-04 1.17448260e-04 1.16603260e-04 1.20694633e-04 4.05317231e-04 9.04332161e-01 9.94384229e-01 9.97975469e-01 9.95146155e-01 7.16769278e-01 1.12573700e-02 4.65097232e-03 1.18850805e-02 4.88415956e-02 2.58615464e-01 4.10421848e-01 3.87051016e-01 5.98306239e-01 8.63258302e-01 9.18009400e-01 9.17274237e-01 9.12880838e-01 9.02455807e-01 8.90028834e-01 8.86510730e-01 8.78747165e-01 8.70534062e-01 8.67868066e-01 8.43283296e-01 7.70069242e-01 6.54283762e-01 5.19100606e-01 7.72670582e-02 2.96412618e-04 1.19945907e-04 1.20291981e-04 1.30564818e-04 9.93010461e-01 9.99028027e-01 9.94513690e-01 7.55700618e-02 1.00396261e-04 5.26557094e-04 3.52962612e-04 4.36982955e-04 1.81864935e-03 3.18171307e-02 1.03545509e-01 3.64306211e-01 8.58948708e-01 9.23112094e-01 9.15489256e-01 9.06737745e-01 9.00012374e-01 8.95025849e-01 8.96504879e-01 9.00736868e-01 8.98954093e-01 8.96615446e-01 8.93380344e-01 8.79736483e-01 8.57376277e-01 8.36557090e-01 8.33019316e-01 7.38630891e-01 4.01527554e-01 1.33291949e-04 1.21230805e-04 1.18954267e-04 9.99012172e-01 9.99477863e-01 4.51392680e-01 3.74565861e-04 6.95882365e-04 3.42830637e-04 2.15197520e-04 2.23868687e-04 5.29101468e-04 6.26440486e-03 8.34685937e-02 8.37761164e-01 9.02191699e-01 8.93577158e-01 8.81794274e-01 8.73383939e-01 8.70729804e-01 8.72746587e-01 8.76435399e-01 8.77351105e-01 8.74275208e-01 8.71181965e-01 8.70559394e-01 8.71747077e-01 8.73610377e-01 8.81714761e-01 8.93287063e-01 8.70723665e-01 8.07854354e-01 3.82650308e-02 1.18660952e-04 1.18820106e-04 9.99575794e-01 9.99227524e-01 1.14323355e-01 6.24905434e-03 5.42134186e-03 9.21321858e-04 2.30635895e-04 2.13386214e-04 4.71267238e-04 5.33542829e-03 8.10701311e-01 8.66903007e-01 8.59238744e-01 8.45850766e-01 8.34379852e-01 8.27002823e-01 8.24054658e-01 8.24549556e-01 8.25016499e-01 8.24498117e-01 8.25173914e-01 8.29348981e-01 8.37732971e-01 8.50013256e-01 8.67874861e-01 8.91615510e-01 9.13125813e-01 9.35487807e-01 9.15798187e-01 5.92090070e-01 1.22985904e-04 1.24757702e-04 9.99696195e-01 9.99516904e-01 8.87273014e-01 3.66260767e-01 1.52581781e-01 2.94375373e-03 2.30635254e-04 2.89211544e-04 1.53712917e-03 7.80427814e-01 8.18775296e-01 8.08666348e-01 7.95091867e-01 7.81258523e-01 7.69463956e-01 7.60763049e-01 7.54765928e-01 7.49746025e-01 7.46104181e-01 7.44827867e-01 7.47046649e-01 7.53859699e-01 7.67107308e-01 7.89946795e-01 8.24354827e-01 8.68592978e-01 9.20274615e-01 9.58973348e-01 9.73265111e-01 7.16020390e-02 1.26383602e-04 1.41251730e-04 9.98976529e-01 9.99188781e-01 9.78222311e-01 7.69217849e-01 9.26912874e-02 3.27323185e-04 2.57604901e-04 1.99601823e-03 7.47597158e-01 7.54190981e-01 7.38969564e-01 7.23114073e-01 7.05551803e-01 6.87621534e-01 6.70451343e-01 6.57289982e-01 6.49646401e-01 6.44094408e-01 6.36976242e-01 6.28857136e-01 6.22238338e-01 6.20237529e-01 6.26599669e-01 6.45520747e-01 6.84407830e-01 7.60098696e-01 8.73625576e-01 9.72340643e-01 9.93874729e-01 1.36774685e-03 1.61631469e-04 2.29916695e-04 8.02707851e-01 9.98303115e-01 9.80236411e-01 6.65957808e-01 5.67529118e-04 1.98632973e-04 7.08484091e-04 7.12323368e-01 6.77832723e-01 6.51661158e-01 6.32461369e-01 6.11357570e-01 5.89117885e-01 5.66273272e-01 5.45959592e-01 5.33706605e-01 5.28280854e-01 5.19057810e-01 5.01937866e-01 4.80794311e-01 4.59426522e-01 4.39341992e-01 4.20112163e-01 4.01977628e-01 3.92446160e-01 4.16653633e-01 5.84063768e-01 9.69171107e-01 9.88187730e-01 5.84619760e-04 3.03488312e-04 1.08299474e-03 9.89070892e-01 9.95716035e-01 9.57727194e-01 7.69291678e-03 1.55928094e-04 2.25839438e-04 6.78446293e-01 5.88790596e-01 5.47455013e-01 5.22668302e-01 4.98387814e-01 4.73359406e-01 4.48763281e-01 4.29147989e-01 4.19941097e-01 4.19346422e-01 4.14199501e-01 3.96911532e-01 3.72363895e-01 3.45766753e-01 3.17429394e-01 2.85231739e-01 2.47299314e-01 2.04392821e-01 1.62066460e-01 1.38464361e-01 2.47710750e-01 9.43454444e-01 8.00595582e-01 2.00510584e-03 1.36562055e-02 9.81627524e-01 9.97423708e-01 9.88502502e-01 2.54606515e-01 1.36144386e-04 1.53146277e-04 6.52294874e-01 5.13465405e-01 4.55551416e-01 4.24317837e-01 3.95706832e-01 3.68561953e-01 3.42649907e-01 3.25621635e-01 3.22000355e-01 3.27370524e-01 3.29080313e-01 3.19357246e-01 3.02172512e-01 2.81970114e-01 2.58269548e-01 2.29046762e-01 1.93961993e-01 1.55452937e-01 1.17730021e-01 8.72070491e-02 7.59549066e-02 1.65554479e-01 7.09739983e-01 5.97923994e-01 9.85290170e-01 9.96754408e-01 9.97481048e-01 9.95177150e-01 4.46593404e-01 1.46014499e-04 1.38582007e-04 6.34300470e-01 4.54397738e-01 3.75865728e-01 3.36122245e-01 3.02861392e-01 2.75539964e-01 2.52059996e-01 2.39764214e-01 2.42723688e-01 2.54810274e-01 2.64395058e-01 2.63807058e-01 2.56414145e-01 2.44998768e-01 2.27905944e-01 2.03785256e-01 1.73796907e-01 1.41756520e-01 1.12776071e-01 9.10158455e-02 8.04380327e-02 9.76165533e-02 2.28219092e-01 6.78173780e-01 9.77636516e-01 9.95346308e-01 9.97465968e-01 9.95889664e-01 1.23215310e-01 1.89120503e-04 1.58769311e-04 6.26580656e-01 4.11371887e-01 3.08344573e-01 2.59152979e-01 2.22980782e-01 1.96792915e-01 1.79112002e-01 1.73506126e-01 1.81895375e-01 2.00584128e-01 2.19532818e-01 2.27832824e-01 2.26771340e-01 2.19922826e-01 2.06142366e-01 1.85227752e-01 1.59884363e-01 1.34247184e-01 1.13238171e-01 1.01912893e-01 1.07248910e-01 1.53660655e-01 3.71395200e-01 8.43687415e-01 9.82388139e-01 9.95622873e-01 9.97361422e-01 9.93032277e-01 1.84213165e-02 2.27509940e-04 1.94789784e-04 6.32499039e-01 3.86910558e-01 2.53631383e-01 1.94824964e-01 1.59149498e-01 1.36522427e-01 1.25881106e-01 1.27588511e-01 1.40855119e-01 1.65549025e-01 1.89754099e-01 2.03453243e-01 2.04907402e-01 1.98469564e-01 1.85254380e-01 1.66270301e-01 1.45181432e-01 1.26334995e-01 1.14325829e-01 1.16136208e-01 1.48400649e-01 2.76891023e-01 6.61716938e-01 9.47595835e-01 9.90173757e-01 9.95900869e-01 9.96324480e-01 9.77915525e-01 6.07559364e-03 2.13114603e-04 1.90713210e-04 6.51557267e-01 3.81098837e-01 2.09354013e-01 1.41672149e-01 1.08797126e-01 9.25935805e-02 8.82181153e-02 9.43873003e-02 1.12225927e-01 1.39289096e-01 1.65297538e-01 1.81072623e-01 1.83126509e-01 1.76481172e-01 1.64214984e-01 1.47986159e-01 1.31563365e-01 1.19602606e-01 1.17522024e-01 1.36407554e-01 2.10302338e-01 4.47363913e-01 8.37812960e-01 9.74906743e-01 9.93170500e-01 9.95945334e-01 9.94057953e-01 8.99688601e-01 2.70875567e-03 2.90468131e-04 2.83164467e-04 6.81678414e-01 3.90052617e-01 1.71713367e-01 9.86522138e-02 7.03910366e-02 6.05710410e-02 6.14660867e-02 7.06007481e-02 9.02242288e-02 1.17617957e-01 1.44532710e-01 1.61101058e-01 1.63639665e-01 1.57306910e-01 1.46520972e-01 1.33502036e-01 1.21866882e-01 1.16844691e-01 1.25848010e-01 1.67123958e-01 2.97400653e-01 6.15675628e-01 9.11295593e-01 9.83004510e-01 9.93701041e-01 9.94881451e-01 9.87772703e-01 6.28913343e-01 1.53958157e-03 5.06929297e-04 6.88748551e-04 7.21494734e-01 4.13640261e-01 1.36543155e-01 6.39778301e-02 4.27716933e-02 3.79715376e-02 4.14765067e-02 5.30970022e-02 7.36807883e-02 1.01179712e-01 1.28812075e-01 1.45986095e-01 1.49351969e-01 1.43854231e-01 1.34650484e-01 1.24583885e-01 1.17248535e-01 1.18809581e-01 1.40191287e-01 2.10503250e-01 4.06723648e-01 7.42212415e-01 9.40958917e-01 9.85414028e-01 9.92859840e-01 9.92260337e-01 9.71789241e-01 3.45100284e-01 1.28506776e-03 8.24140327e-04 1.38827646e-03 7.64995515e-01 4.50367928e-01 1.02490626e-01 3.72834988e-02 2.40712166e-02 2.29607336e-02 2.81520281e-02 4.05896641e-02 6.20602854e-02 9.05243233e-02 1.18394338e-01 1.35727778e-01 1.39899269e-01 1.35810420e-01 1.28693670e-01 1.21734492e-01 1.18614465e-01 1.26718938e-01 1.61844298e-01 2.65274197e-01 5.17699242e-01 8.18879187e-01 9.51017797e-01 9.84140694e-01 9.90636706e-01 9.87185895e-01 9.41878378e-01 2.45536372e-01 2.39409413e-03 1.03690743e-03 3.61769111e-03 8.06439877e-01 4.88854975e-01 7.00604841e-02 1.95376631e-02 1.27528142e-02 1.36330063e-02 1.94433220e-02 3.23385894e-02 5.47452196e-02 8.43687132e-02 1.11926585e-01 1.28818348e-01 1.33903444e-01 1.32043809e-01 1.28067061e-01 1.25125751e-01 1.27064750e-01 1.42635986e-01 1.92921624e-01 3.26594591e-01 6.00545943e-01 8.54283214e-01 9.51597214e-01 9.80161309e-01 9.86131728e-01 9.79022503e-01 9.05971825e-01 2.63861477e-01 8.34203791e-03 2.37666466e-03 1.57313030e-02 8.42787325e-01 5.21466851e-01 4.22845222e-02 9.54293273e-03 6.65590912e-03 8.18157196e-03 1.39333522e-02 2.73108482e-02 5.10514639e-02 8.10537115e-02 1.07070602e-01 1.22872278e-01 1.29415810e-01 1.31187439e-01 1.32148072e-01 1.35034382e-01 1.43758178e-01 1.68162972e-01 2.32705325e-01 3.85629147e-01 6.50643528e-01 8.67445648e-01 9.48320866e-01 9.73266602e-01 9.78573740e-01 9.66855884e-01 8.77638817e-01 3.63031179e-01 3.53924148e-02 1.02033913e-02 6.59594834e-02 8.70827377e-01 5.40501893e-01 2.28723045e-02 4.71732719e-03 3.67777469e-03 5.21072187e-03 1.07602067e-02 2.49361098e-02 4.99966666e-02 7.85222426e-02 1.00932457e-01 1.15006581e-01 1.23745754e-01 1.30966544e-01 1.39523134e-01 1.51482671e-01 1.70447305e-01 2.06583187e-01 2.84860432e-01 4.46034461e-01 6.83137059e-01 8.65179896e-01 9.38309968e-01 9.64476883e-01 9.69123304e-01 9.50772166e-01 8.61262441e-01 5.07298410e-01 1.32052466e-01 5.18893339e-02 1.93158984e-01 8.96226764e-01 5.29963493e-01 1.17016807e-02 2.56577251e-03 2.18202709e-03 3.61071085e-03 9.23147984e-03 2.48021465e-02 5.01134321e-02 7.40521252e-02 9.07586664e-02 1.02712467e-01 1.14007317e-01 1.27851665e-01 1.46586269e-01 1.72084942e-01 2.07399279e-01 2.61323124e-01 3.54601294e-01 5.12596726e-01 7.10501432e-01 8.55725229e-01 9.21570599e-01 9.50361133e-01 9.57284093e-01 9.38923359e-01 8.63649309e-01 6.52615726e-01 3.46409291e-01 2.06303820e-01 3.88426334e-01 9.06776726e-01 5.07308185e-01 6.22909795e-03 1.54213863e-03 1.43043662e-03 2.80247629e-03 8.98987520e-03 2.63400171e-02 4.92015667e-02 6.55132458e-02 7.59418607e-02 8.58394429e-02 9.90887657e-02 1.18731514e-01 1.47886768e-01 1.89762786e-01 2.47774303e-01 3.27612787e-01 4.39465433e-01 5.87060571e-01 7.39429414e-01 8.47254574e-01 9.01951194e-01 9.30092812e-01 9.42075849e-01 9.32224214e-01 8.88253570e-01 7.78006256e-01 6.01885080e-01 4.92219239e-01 5.80836952e-01 8.46636593e-01 3.86804879e-01 3.71738430e-03 9.76197771e-04 1.01729273e-03 2.43675569e-03 9.72729921e-03 2.78936308e-02 4.45725657e-02 5.28739393e-02 5.87676428e-02 6.71321675e-02 8.09427276e-02 1.03572078e-01 1.39878020e-01 1.95912153e-01 2.77116984e-01 3.85837853e-01 5.18571258e-01 6.59768462e-01 7.80074179e-01 8.58804226e-01 9.00991619e-01 9.22781050e-01 9.35310066e-01 9.36636984e-01 9.20887947e-01 8.67050707e-01 8.00164521e-01 7.50736117e-01 7.22718537e-01 7.13987708e-01 2.22929195e-01 2.60248384e-03 6.62198581e-04 7.65783596e-04 2.27656611e-03 1.07211657e-02 2.66947895e-02 3.57151516e-02 3.89711298e-02 4.27612290e-02 4.99413908e-02 6.27458990e-02 8.49725157e-02 1.23276867e-01 1.87338233e-01 2.86517262e-01 4.21164364e-01 5.74322999e-01 7.15849578e-01 8.21012318e-01 8.85520875e-01 9.21012044e-01 9.40324783e-01 9.51192915e-01 9.57254469e-01 9.56171811e-01 9.47339416e-01 9.35885668e-01 9.29578781e-01 8.39703500e-01 6.04291081e-01 2.41606191e-01 2.67511606e-03 5.12629282e-04 5.83209854e-04 1.96453533e-03 1.04751615e-02 2.21044384e-02 2.60004085e-02 2.74504442e-02 3.03297788e-02 3.60552184e-02 4.63724658e-02 6.49867207e-02 9.94072407e-02 1.62994996e-01 2.72970974e-01 4.34341997e-01 6.16402686e-01 7.68177450e-01 8.66117179e-01 9.20025647e-01 9.48229611e-01 9.63635027e-01 9.72079396e-01 9.76656795e-01 9.78398860e-01 9.77767527e-01 9.76932883e-01 9.77739155e-01 9.14169848e-01 7.05355942e-01 4.08268660e-01 6.23991527e-03 4.57858114e-04 4.49154992e-04 1.54989411e-03 7.02210562e-03 1.27449250e-02 1.45646269e-02 1.57896336e-02 1.79966521e-02 2.19953116e-02 2.91863177e-02 4.27640080e-02 7.02211410e-02 1.28664479e-01 2.49959096e-01 4.57257777e-01 6.92026854e-01 8.53792548e-01 9.31786537e-01 9.64576662e-01 9.78502333e-01 9.85037327e-01 9.88375068e-01 9.90039647e-01 9.90534782e-01 9.90244746e-01 9.89896297e-01 9.90469575e-01 9.50672090e-01 8.04056525e-01 7.78367937e-01 2.09513322e-01 1.84113043e-03 7.70572224e-04 2.44503375e-03 2.63890270e-02 4.82907668e-02 5.27433269e-02 5.61613925e-02 6.33285046e-02 7.68751949e-02 1.00770310e-01 1.41837642e-01 2.10328355e-01 3.16460520e-01 4.58979517e-01 6.14107311e-01 7.47599661e-01 8.41474056e-01 8.99131119e-01 9.32102978e-01 9.50397849e-01 9.60475564e-01 9.66014266e-01 9.69005466e-01 9.69202101e-01 9.67804909e-01 9.66209114e-01 9.66086447e-01 9.32877898e-01 
