# vtk DataFile Version 2.0
results_case1_non_linear/iter5.vtk, Created by Freefem++ 
ASCII
DATASET UNSTRUCTURED_GRID
POINTS 961 float
0 0 0
0.033333333 0 0
0.066666667 0 0
0.1 0 0
0.13333333 0 0
0.16666667 0 0
0.2 0 0
0.23333333 0 0
0.26666667 0 0
0.3 0 0
0.33333333 0 0
0.36666667 0 0
0.4 0 0
0.43333333 0 0
0.46666667 0 0
0.5 0 0
0.53333333 0 0
0.56666667 0 0
0.6 0 0
0.63333333 0 0
0.66666667 0 0
0.7 0 0
0.73333333 0 0
0.76666667 0 0
0.8 0 0
0.83333333 0 0
0.86666667 0 0
0.9 0 0
0.93333333 0 0
0.96666667 0 0
1 0 0
0 0.033333333 0
0.033333333 0.033333333 0
0.066666667 0.033333333 0
0.1 0.033333333 0
0.13333333 0.033333333 0
0.16666667 0.033333333 0
0.2 0.033333333 0
0.23333333 0.033333333 0
0.26666667 0.033333333 0
0.3 0.033333333 0
0.33333333 0.033333333 0
0.36666667 0.033333333 0
0.4 0.033333333 0
0.43333333 0.033333333 0
0.46666667 0.033333333 0
0.5 0.033333333 0
0.53333333 0.033333333 0
0.56666667 0.033333333 0
0.6 0.033333333 0
0.63333333 0.033333333 0
0.66666667 0.033333333 0
0.7 0.033333333 0
0.73333333 0.033333333 0
0.76666667 0.033333333 0
0.8 0.033333333 0
0.83333333 0.033333333 0
0.86666667 0.033333333 0
0.9 0.033333333 0
0.93333333 0.033333333 0
0.96666667 0.033333333 0
1 0.033333333 0
0 0.066666667 0
0.033333333 0.066666667 0
0.066666667 0.066666667 0
0.1 0.066666667 0
0.13333333 0.066666667 0
0.16666667 0.066666667 0
0.2 0.066666667 0
0.23333333 0.066666667 0
0.26666667 0.066666667 0
0.3 0.066666667 0
0.33333333 0.066666667 0
0.36666667 0.066666667 0
0.4 0.066666667 0
0.43333333 0.066666667 0
0.46666667 0.066666667 0
0.5 0.066666667 0
0.53333333 0.066666667 0
0.56666667 0.066666667 0
0.6 0.066666667 0
0.63333333 0.066666667 0
0.66666667 0.066666667 0
0.7 0.066666667 0
0.73333333 0.066666667 0
0.76666667 0.066666667 0
0.8 0.066666667 0
0.83333333 0.066666667 0
0.86666667 0.066666667 0
0.9 0.066666667 0
0.93333333 0.066666667 0
0.96666667 0.066666667 0
1 0.066666667 0
0 0.1 0
0.033333333 0.1 0
0.066666667 0.1 0
0.1 0.1 0
0.13333333 0.1 0
0.16666667 0.1 0
0.2 0.1 0
0.23333333 0.1 0
0.26666667 0.1 0
0.3 0.1 0
0.33333333 0.1 0
0.36666667 0.1 0
0.4 0.1 0
0.43333333 0.1 0
0.46666667 0.1 0
0.5 0.1 0
0.53333333 0.1 0
0.56666667 0.1 0
0.6 0.1 0
0.63333333 0.1 0
0.66666667 0.1 0
0.7 0.1 0
0.73333333 0.1 0
0.76666667 0.1 0
0.8 0.1 0
0.83333333 0.1 0
0.86666667 0.1 0
0.9 0.1 0
0.93333333 0.1 0
0.96666667 0.1 0
1 0.1 0
0 0.13333333 0
0.033333333 0.13333333 0
0.066666667 0.13333333 0
0.1 0.13333333 0
0.13333333 0.13333333 0
0.16666667 0.13333333 0
0.2 0.13333333 0
0.23333333 0.13333333 0
0.26666667 0.13333333 0
0.3 0.13333333 0
0.33333333 0.13333333 0
0.36666667 0.13333333 0
0.4 0.13333333 0
0.43333333 0.13333333 0
0.46666667 0.13333333 0
0.5 0.13333333 0
0.53333333 0.13333333 0
0.56666667 0.13333333 0
0.6 0.13333333 0
0.63333333 0.13333333 0
0.66666667 0.13333333 0
0.7 0.13333333 0
0.73333333 0.13333333 0
0.76666667 0.13333333 0
0.8 0.13333333 0
0.83333333 0.13333333 0
0.86666667 0.13333333 0
0.9 0.13333333 0
0.93333333 0.13333333 0
0.96666667 0.13333333 0
1 0.13333333 0
0 0.16666667 0
0.033333333 0.16666667 0
0.066666667 0.16666667 0
0.1 0.16666667 0
0.13333333 0.16666667 0
0.16666667 0.16666667 0
0.2 0.16666667 0
0.23333333 0.16666667 0
0.26666667 0.16666667 0
0.3 0.16666667 0
0.33333333 0.16666667 0
0.36666667 0.16666667 0
0.4 0.16666667 0
0.43333333 0.16666667 0
0.46666667 0.16666667 0
0.5 0.16666667 0
0.53333333 0.16666667 0
0.56666667 0.16666667 0
0.6 0.16666667 0
0.63333333 0.16666667 0
0.66666667 0.16666667 0
0.7 0.16666667 0
0.73333333 0.16666667 0
0.76666667 0.16666667 0
0.8 0.16666667 0
0.83333333 0.16666667 0
0.86666667 0.16666667 0
0.9 0.16666667 0
0.93333333 0.16666667 0
0.96666667 0.16666667 0
1 0.16666667 0
0 0.2 0
0.033333333 0.2 0
0.066666667 0.2 0
0.1 0.2 0
0.13333333 0.2 0
0.16666667 0.2 0
0.2 0.2 0
0.23333333 0.2 0
0.26666667 0.2 0
0.3 0.2 0
0.33333333 0.2 0
0.36666667 0.2 0
0.4 0.2 0
0.43333333 0.2 0
0.46666667 0.2 0
0.5 0.2 0
0.53333333 0.2 0
0.56666667 0.2 0
0.6 0.2 0
0.63333333 0.2 0
0.66666667 0.2 0
0.7 0.2 0
0.73333333 0.2 0
0.76666667 0.2 0
0.8 0.2 0
0.83333333 0.2 0
0.86666667 0.2 0
0.9 0.2 0
0.93333333 0.2 0
0.96666667 0.2 0
1 0.2 0
0 0.23333333 0
0.033333333 0.23333333 0
0.066666667 0.23333333 0
0.1 0.23333333 0
0.13333333 0.23333333 0
0.16666667 0.23333333 0
0.2 0.23333333 0
0.23333333 0.23333333 0
0.26666667 0.23333333 0
0.3 0.23333333 0
0.33333333 0.23333333 0
0.36666667 0.23333333 0
0.4 0.23333333 0
0.43333333 0.23333333 0
0.46666667 0.23333333 0
0.5 0.23333333 0
0.53333333 0.23333333 0
0.56666667 0.23333333 0
0.6 0.23333333 0
0.63333333 0.23333333 0
0.66666667 0.23333333 0
0.7 0.23333333 0
0.73333333 0.23333333 0
0.76666667 0.23333333 0
0.8 0.23333333 0
0.83333333 0.23333333 0
0.86666667 0.23333333 0
0.9 0.23333333 0
0.93333333 0.23333333 0
0.96666667 0.23333333 0
1 0.23333333 0
0 0.26666667 0
0.033333333 0.26666667 0
0.066666667 0.26666667 0
0.1 0.26666667 0
0.13333333 0.26666667 0
0.16666667 0.26666667 0
0.2 0.26666667 0
0.23333333 0.26666667 0
0.26666667 0.26666667 0
0.3 0.26666667 0
0.33333333 0.26666667 0
0.36666667 0.26666667 0
0.4 0.26666667 0
0.43333333 0.26666667 0
0.46666667 0.26666667 0
0.5 0.26666667 0
0.53333333 0.26666667 0
0.56666667 0.26666667 0
0.6 0.26666667 0
0.63333333 0.26666667 0
0.66666667 0.26666667 0
0.7 0.26666667 0
0.73333333 0.26666667 0
0.76666667 0.26666667 0
0.8 0.26666667 0
0.83333333 0.26666667 0
0.86666667 0.26666667 0
0.9 0.26666667 0
0.93333333 0.26666667 0
0.96666667 0.26666667 0
1 0.26666667 0
0 0.3 0
0.033333333 0.3 0
0.066666667 0.3 0
0.1 0.3 0
0.13333333 0.3 0
0.16666667 0.3 0
0.2 0.3 0
0.23333333 0.3 0
0.26666667 0.3 0
0.3 0.3 0
0.33333333 0.3 0
0.36666667 0.3 0
0.4 0.3 0
0.43333333 0.3 0
0.46666667 0.3 0
0.5 0.3 0
0.53333333 0.3 0
0.56666667 0.3 0
0.6 0.3 0
0.63333333 0.3 0
0.66666667 0.3 0
0.7 0.3 0
0.73333333 0.3 0
0.76666667 0.3 0
0.8 0.3 0
0.83333333 0.3 0
0.86666667 0.3 0
0.9 0.3 0
0.93333333 0.3 0
0.96666667 0.3 0
1 0.3 0
0 0.33333333 0
0.033333333 0.33333333 0
0.066666667 0.33333333 0
0.1 0.33333333 0
0.13333333 0.33333333 0
0.16666667 0.33333333 0
0.2 0.33333333 0
0.23333333 0.33333333 0
0.26666667 0.33333333 0
0.3 0.33333333 0
0.33333333 0.33333333 0
0.36666667 0.33333333 0
0.4 0.33333333 0
0.43333333 0.33333333 0
0.46666667 0.33333333 0
0.5 0.33333333 0
0.53333333 0.33333333 0
0.56666667 0.33333333 0
0.6 0.33333333 0
0.63333333 0.33333333 0
0.66666667 0.33333333 0
0.7 0.33333333 0
0.73333333 0.33333333 0
0.76666667 0.33333333 0
0.8 0.33333333 0
0.83333333 0.33333333 0
0.86666667 0.33333333 0
0.9 0.33333333 0
0.93333333 0.33333333 0
0.96666667 0.33333333 0
1 0.33333333 0
0 0.36666667 0
0.033333333 0.36666667 0
0.066666667 0.36666667 0
0.1 0.36666667 0
0.13333333 0.36666667 0
0.16666667 0.36666667 0
0.2 0.36666667 0
0.23333333 0.36666667 0
0.26666667 0.36666667 0
0.3 0.36666667 0
0.33333333 0.36666667 0
0.36666667 0.36666667 0
0.4 0.36666667 0
0.43333333 0.36666667 0
0.46666667 0.36666667 0
0.5 0.36666667 0
0.53333333 0.36666667 0
0.56666667 0.36666667 0
0.6 0.36666667 0
0.63333333 0.36666667 0
0.66666667 0.36666667 0
0.7 0.36666667 0
0.73333333 0.36666667 0
0.76666667 0.36666667 0
0.8 0.36666667 0
0.83333333 0.36666667 0
0.86666667 0.36666667 0
0.9 0.36666667 0
0.93333333 0.36666667 0
0.96666667 0.36666667 0
1 0.36666667 0
0 0.4 0
0.033333333 0.4 0
0.066666667 0.4 0
0.1 0.4 0
0.13333333 0.4 0
0.16666667 0.4 0
0.2 0.4 0
0.23333333 0.4 0
0.26666667 0.4 0
0.3 0.4 0
0.33333333 0.4 0
0.36666667 0.4 0
0.4 0.4 0
0.43333333 0.4 0
0.46666667 0.4 0
0.5 0.4 0
0.53333333 0.4 0
0.56666667 0.4 0
0.6 0.4 0
0.63333333 0.4 0
0.66666667 0.4 0
0.7 0.4 0
0.73333333 0.4 0
0.76666667 0.4 0
0.8 0.4 0
0.83333333 0.4 0
0.86666667 0.4 0
0.9 0.4 0
0.93333333 0.4 0
0.96666667 0.4 0
1 0.4 0
0 0.43333333 0
0.033333333 0.43333333 0
0.066666667 0.43333333 0
0.1 0.43333333 0
0.13333333 0.43333333 0
0.16666667 0.43333333 0
0.2 0.43333333 0
0.23333333 0.43333333 0
0.26666667 0.43333333 0
0.3 0.43333333 0
0.33333333 0.43333333 0
0.36666667 0.43333333 0
0.4 0.43333333 0
0.43333333 0.43333333 0
0.46666667 0.43333333 0
0.5 0.43333333 0
0.53333333 0.43333333 0
0.56666667 0.43333333 0
0.6 0.43333333 0
0.63333333 0.43333333 0
0.66666667 0.43333333 0
0.7 0.43333333 0
0.73333333 0.43333333 0
0.76666667 0.43333333 0
0.8 0.43333333 0
0.83333333 0.43333333 0
0.86666667 0.43333333 0
0.9 0.43333333 0
0.93333333 0.43333333 0
0.96666667 0.43333333 0
1 0.43333333 0
0 0.46666667 0
0.033333333 0.46666667 0
0.066666667 0.46666667 0
0.1 0.46666667 0
0.13333333 0.46666667 0
0.16666667 0.46666667 0
0.2 0.46666667 0
0.23333333 0.46666667 0
0.26666667 0.46666667 0
0.3 0.46666667 0
0.33333333 0.46666667 0
0.36666667 0.46666667 0
0.4 0.46666667 0
0.43333333 0.46666667 0
0.46666667 0.46666667 0
0.5 0.46666667 0
0.53333333 0.46666667 0
0.56666667 0.46666667 0
0.6 0.46666667 0
0.63333333 0.46666667 0
0.66666667 0.46666667 0
0.7 0.46666667 0
0.73333333 0.46666667 0
0.76666667 0.46666667 0
0.8 0.46666667 0
0.83333333 0.46666667 0
0.86666667 0.46666667 0
0.9 0.46666667 0
0.93333333 0.46666667 0
0.96666667 0.46666667 0
1 0.46666667 0
0 0.5 0
0.033333333 0.5 0
0.066666667 0.5 0
0.1 0.5 0
0.13333333 0.5 0
0.16666667 0.5 0
0.2 0.5 0
0.23333333 0.5 0
0.26666667 0.5 0
0.3 0.5 0
0.33333333 0.5 0
0.36666667 0.5 0
0.4 0.5 0
0.43333333 0.5 0
0.46666667 0.5 0
0.5 0.5 0
0.53333333 0.5 0
0.56666667 0.5 0
0.6 0.5 0
0.63333333 0.5 0
0.66666667 0.5 0
0.7 0.5 0
0.73333333 0.5 0
0.76666667 0.5 0
0.8 0.5 0
0.83333333 0.5 0
0.86666667 0.5 0
0.9 0.5 0
0.93333333 0.5 0
0.96666667 0.5 0
1 0.5 0
0 0.53333333 0
0.033333333 0.53333333 0
0.066666667 0.53333333 0
0.1 0.53333333 0
0.13333333 0.53333333 0
0.16666667 0.53333333 0
0.2 0.53333333 0
0.23333333 0.53333333 0
0.26666667 0.53333333 0
0.3 0.53333333 0
0.33333333 0.53333333 0
0.36666667 0.53333333 0
0.4 0.53333333 0
0.43333333 0.53333333 0
0.46666667 0.53333333 0
0.5 0.53333333 0
0.53333333 0.53333333 0
0.56666667 0.53333333 0
0.6 0.53333333 0
0.63333333 0.53333333 0
0.66666667 0.53333333 0
0.7 0.53333333 0
0.73333333 0.53333333 0
0.76666667 0.53333333 0
[...]
CELL_DATA 1920
Scalars  Label int 1
LOOKUP_TABLE FreeFempp_table
0
0
0
0
0
0
0
0
0
0
0
0
0
0
0
0
0
0
0
0
0
0
0
0
0
0
0
0
0
0
0
0
0
0
0
0
0
0
0
0
0
0
0
0
0
0
0
0
0
0
0
0
0
0
0
0
0
0
0
0
0
0
0
0
0
0
0
0
0
0
0
0
0
0
0
0
0
0
0
0
0
0
0
0
0
0
0
0
0
0
0
0
0
0
0
0
0
0
0
0
0
0
0
0
0
0
0
0
0
0
0
0
0
0
0
0
0
0
0
0
0
0
0
0
0
0
0
0
0
0
0
0
0
0
0
0
0
0
0
0
0
0
0
0
0
0
0
0
0
0
0
0
0
0
0
0
0
0
0
0
0
0
0
0
0
0
0
0
0
0
0
0
0
0
0
0
0
0
0
0
0
0
0
0
0
0
0
0
0
0
0
0
0
0
0
0
0
0
0
0
0
0
0
0
0
0
0
0
0
0
0
0
0
0
0
0
0
0
0
0
0
0
0
0
0
0
0
0
0
0
0
0
0
0
0
0
0
0
0
0
0
0
0
0
0
0
0
0
0
0
0
0
0
0
0
0
0
0
0
0
0
0
0
0
0
0
0
0
0
0
0
0
0
0
0
0
0
0
0
0
0
0
0
0
0
0
0
0
0
0
0
0
0
0
0
0
0
0
0
0
0
0
0
0
0
0
0
0
0
0
0
0
0
0
0
0
0
0
0
0
0
0
0
0
0
0
0
0
0
0
0
0
0
0
0
0
0
0
0
0
0
0
0
0
0
0
0
0
0
0
0
0
0
0
0
0
0
0
0
0
0
0
0
0
0
0
0
0
0
0
0
0
0
0
0
0
0
0
0
0
0
0
0
0
0
0
0
0
0
0
0
0
0
0
0
0
0
0
0
0
0
0
0
0
0
0
0
0
0
0
0
0
0
0
0
0
0
0
0
0
0
0
0
0
0
0
0
0
0
0
0
0
0
0
0
0
0
0
0
0
0
0
0
0
0
0
0
0
0
0
0
0
0
0
0
0
0
0
0
0
0
0
0
0
0
0
0
0
0
0
0
0
0
0
0
0
0
0
0
0
0
0
0
0
0
0
0
0
0
0
0
0
0
0
0
0
0
0
0
0
0
0
0
0
0
0
0
0
0
0
0
0
0
0
0
0
0
0
0
0
0
0
0
0
0
0
0
0
0
0
0
0
0
0
0
0
0
0
0
0
0
0
0
0
0
0
0
0
0
0
0
0
0
0
0
0
0
0
0
0
0
0
0
0
0
0
0
0
0
0
0
0
0
0
0
0
0
0
0
0
0
0
0
0
0
0
0
0
0
0
0
0
0
0
0
0
0
0
0
0
0
0
0
0
0
0
0
0
0
0
0
0
0
0
0
0
0
0
0
0
0
0
0
0
0
0
0
0
0
0
0
0
0
0
0
0
0
0
0
0
0
0
0
0
0
0
0
0
0
0
0
0
0
0
0
0
0
0
0
0
0
0
0
0
0
0
0
0
0
0
0
0
0
0
0
0
0
0
0
0
0
0
0
0
0
0
0
0
0
0
0
0
0
0
0
0
0
0
0
0
0
0
0
0
0
0
0
0
0
0
0
0
0
0
0
0
0
0
0
0
0
0
0
0
0
0
0
0
0
0
0
0
0
0
0
0
0
0
0
0
0
0
0
0
0
0
0
0
0
0
0
0
0
0
0
0
0
0
0
0
0
0
0
0
0
0
0
0
0
0
0
0
0
0
0
0
0
0
0
0
0
0
0
0
0
0
0
0
0
0
0
0
0
0
0
0
0
0
0
0
0
0
0
0
0
0
0
0
0
0
0
0
0
0
0
0
0
0
0
0
0
0
0
0
0
0
0
0
0
0
0
0
0
0
0
0
0
0
0
0
0
0
0
0
0
0
0
0
0
0
0
0
0
0
0
0
0
0
0
0
0
0
0
0
0
0
0
0
0
0
0
0
0
0
0
0
0
0
0
0
0
0
0
0
0
0
0
0
0
0
0
0
0
0
0
0
0
0
0
0
0
0
0
0
0
0
0
0
0
0
0
0
0
0
0
0
0
0
0
0
0
0
0
0
0
0
0
0
0
0
0
0
0
0
0
0
0
0
0
0
0
0
0
0
0
0
0
0
0
0
0
0
0
0
0
0
0
0
0
0
0
0
0
0
0
0
0
0
0
0
0
0
0
0
0
0
0
0
0
0
0
0
0
0
0
0
0
0
0
0
0
0
0
0
0
0
0
0
0
0
0
0
0
0
0
0
0
0
0
0
0
0
0
0
0
0
0
0
0
0
0
0
0
0
0
0
0
0
0
0
0
0
0
0
0
0
0
0
0
0
0
0
0
0
0
0
0
0
0
0
0
0
0
0
0
0
0
0
0
0
0
0
0
0
0
0
0
0
0
0
0
0
0
0
0
0
0
0
0
0
0
0
0
0
0
0
0
0
0
0
0
0
0
0
0
0
0
0
0
0
0
0
0
0
0
0
0
0
0
0
0
0
0
0
0
0
0
0
0
0
0
0
0
0
0
0
0
0
0
0
0
0
0
0
0
0
0
0
0
0
0
0
0
0
0
0
0
0
0
0
0
0
0
0
0
0
0
0
0
0
0
0
0
0
0
0
0
0
0
0
0
0
0
0
0
0
0
0
0
0
0
0
0
0
0
0
0
0
0
0
0
0
0
0
0
0
0
0
0
0
0
0
0
0
0
0
0
0
0
0
0
0
0
0
0
0
0
0
0
0
0
0
0
0
0
0
0
0
0
0
0
0
0
0
0
0
0
0
0
0
0
0
0
0
0
0
0
0
0
0
0
0
0
0
0
0
0
0
0
0
0
0
0
0
0
0
0
0
0
0
0
0
0
0
0
0
0
0
0
0
0
0
0
0
0
0
0
0
0
0
0
0
0
0
0
0
0
0
0
0
0
0
0
0
0
0
0
0
0
0
0
0
0
0
0
0
0
0
0
0
0
0
0
0
0
0
0
0
0
0
0
0
0
0
0
0
0
0
0
0
0
0
0
0
0
0
0
0
0
0
0
0
0
0
0
0
0
0
0
0
0
0
0
0
0
0
0
0
0
0
0
0
0
0
0
0
0
0
0
0
0
0
0
0
0
0
0
0
0
0
0
0
0
0
0
0
0
0
0
0
0
0
0
0
0
0
0
0
0
0
0
0
0
0
0
0
0
0
0
0
0
0
0
0
0
0
0
0
0
0
0
0
0
0
0
0
0
0
0
0
0
0
0
0
0
0
0
0
0
0
0
0
0
0
0
0
0
0
0
0
0
0
0
0
0
0
0
0
0
0
0
0
0
0
0
0
0
0
0
0
0
0
0
0
0
0
0
0
0
0
0
0
0
0
0
0
0
0
0
0
0
0
0
0
0
0
0
0
0
0
0
0
0
0
0
0
0
0
0
0
0
0
0
0
0
0
0
0
0
0
0
0
0
0
0
0
0
0
0
0
0
0
0
0
0
0
0
0
0
0
0
0
0
0
0
0
0
0
0
0
0
0
0
0
0
0
0
0
0
0
0
0
0
0
0
0
0
0
0
0
0
0
0
0
0
0
0
0
0
0
0
0
0
0
0
0
0
0
0
0
0
0
0
0
0
0
0
0
0
0
0
0
0
0
0
0
0
0
0
0
0
0
0
0
0
0
0
0
0
0
0
0
0
0
0
0
0
0
0
0
0
0
0
0
0
0
0
0
0
0
0
0
0
0
0
0
0
0
0
0
0
0
0
0
0
0
0
0
0
0
0
0
0
0
0
0
0
0
0
0
0
0
0
0
0
0
0
0
0
0
0
0
0
0
0
0
0
0
0
0
0
0
0
0
0
0
0
0
0
0
0
0
0
0
0
0
0
0
0
0
0
0
0
0
0
0
0
0
0
0
0
0
0
0
0
0
0
0
0
0
0
0
0
0
0
0
0
0
0
0
0
0
0
0
0
0
0
0
0
0
0
0
0
0
0
0
0
0
0
0
0
0
0
0
0
0
0
0
0
0
0
0
0
0
0
0
0
0
0
0
0
0
0
0
0
0
0
0
0
0
1
1
1
1
1
1
1
1
1
1
1
1
1
1
1
1
1
1
1
1
1
1
1
1
1
1
1
1
1
1
2
2
2
2
2
2
2
2
2
2
2
2
2
2
2
2
2
2
2
2
2
2
2
2
2
2
2
2
2
2
3
3
3
3
3
3
3
3
3
3
3
3
3
3
3
3
3
3
3
3
3
3
3
3
3
3
3
3
3
3
4
4
4
4
4
4
4
4
4
4
4
4
4
4
4
4
4
4
4
4
4
4
4
4
4
4
4
4
4
4

LOOKUP_TABLE FreeFempp_table 5
1.00000000 0.00000000 0.00000000 1.00000000
1.00000000 1.00000000 0.00000000 1.00000000
1.00000000 0.00000000 1.00000000 1.00000000
0.00000000 1.00000000 0.00000000 1.00000000
0.00000000 1.00000000 1.00000000 1.00000000

POINT_DATA 961
FIELD FieldData 1
Density 1 961 float
4.21111375e-01 3.35907400e-01 4.30802554e-01 4.88582730e-01 5.01941085e-01 5.01907170e-01 4.60308939e-01 2.03907326e-01 7.14613823e-03 7.00973149e-04 6.02603832e-04 2.01801816e-03 2.57597361e-02 2.37265199e-01 4.21056062e-01 5.90220928e-01 8.45287263e-01 9.67419446e-01 9.67484653e-01 9.05915320e-01 8.91032994e-01 9.22092557e-01 9.40754890e-01 9.46052313e-01 9.40563619e-01 9.27379906e-01 9.15444195e-01 9.09741163e-01 9.07423139e-01 9.07914698e-01 8.81300867e-01 1.78357828e-02 1.93447527e-02 1.37066066e-01 2.28314877e-01 2.41346866e-01 2.33017951e-01 1.98508099e-01 8.86813551e-02 8.92269425e-03 8.43381393e-04 4.44379752e-04 7.37216556e-04 8.06661043e-03 8.40401351e-02 1.79701641e-01 2.68640608e-01 6.46638155e-01 9.84712839e-01 9.91339624e-01 8.63183260e-01 6.38812721e-01 9.09427464e-01 9.54186201e-01 9.70696926e-01 9.58174229e-01 9.48869288e-01 9.36076522e-01 9.26899672e-01 9.23919618e-01 9.19965267e-01 9.05005634e-01 1.30218599e-04 1.21856159e-04 1.26731436e-04 1.23163860e-04 1.22792379e-04 1.23791964e-04 1.24162252e-04 1.22940837e-04 1.23574428e-04 1.23931779e-04 1.23606151e-04 1.25023798e-04 1.95389744e-04 1.92953087e-02 1.66861340e-01 2.51520723e-01 5.57486176e-01 9.79981542e-01 9.84118760e-01 1.06825382e-01 4.69761854e-03 6.25955760e-02 1.78162545e-01 2.22785860e-01 5.62785208e-01 8.61158669e-01 8.86755645e-01 8.63480091e-01 8.44932258e-01 8.21617424e-01 8.63528013e-01 1.11269481e-04 1.25783918e-04 1.25877690e-04 1.24916885e-04 1.22503974e-04 1.23203892e-04 1.24093480e-04 1.23568592e-04 1.22950660e-04 1.24277998e-04 1.24084370e-04 1.18098164e-04 1.18031225e-04 1.22690079e-04 1.23436199e-04 4.90543712e-03 2.17044190e-01 9.39090431e-01 9.90864396e-01 2.56765913e-03 6.29774295e-04 4.10367223e-03 4.24736831e-03 6.70661218e-03 1.96661185e-02 7.07699284e-02 1.49210006e-01 5.00946999e-01 5.40714622e-01 4.99272823e-01 7.47110665e-01 5.92923939e-01 1.76774517e-01 1.50184885e-01 1.71961844e-01 1.75440535e-01 1.77711189e-01 1.87745750e-01 2.07432657e-01 2.18442664e-01 1.57363027e-01 3.87753360e-02 3.87303764e-03 1.43572543e-04 1.27266467e-04 1.14567571e-04 1.14703442e-04 1.29139284e-04 1.29294960e-04 9.98393536e-01 4.84088600e-01 1.29864187e-04 8.14604515e-04 4.16070194e-04 3.83120234e-04 4.55802627e-04 9.51435533e-04 1.12458803e-02 8.46463069e-02 2.35198483e-01 2.80668795e-01 5.82835257e-01 7.63941884e-01 4.62516695e-01 3.82474422e-01 3.31548631e-01 3.01292419e-01 2.89618671e-01 2.94050217e-01 3.09941053e-01 3.33078355e-01 3.53520632e-01 3.75963867e-01 4.08555120e-01 3.99498731e-01 2.86645085e-01 7.34256348e-03 1.23311853e-04 1.27189691e-04 1.18595854e-04 1.18607131e-04 9.99759793e-01 3.70792020e-03 6.75512070e-04 4.92969702e-04 3.09882918e-04 2.22319330e-04 2.02234209e-04 2.98121711e-04 4.08277288e-03 6.73161075e-02 1.81735650e-01 4.11661118e-01 8.80300045e-01 8.28625858e-01 8.03607285e-01 7.68189251e-01 7.25229323e-01 6.86684549e-01 6.58159733e-01 6.41373873e-01 6.36997640e-01 6.41651392e-01 6.49204314e-01 6.66710138e-01 6.85888052e-01 6.88243151e-01 6.69657290e-01 5.50664186e-01 3.21723580e-01 6.91773370e-04 1.16185969e-04 1.10232235e-04 9.99845386e-01 1.36918190e-03 1.53003400e-03 7.92612613e-04 4.07109648e-04 1.95106506e-04 1.76707690e-04 2.17531648e-04 4.43261862e-03 7.92446807e-02 1.70790121e-01 9.31455135e-01 9.52260852e-01 9.48621511e-01 9.42989409e-01 9.34515834e-01 9.20877934e-01 9.02046382e-01 8.80488396e-01 8.59893560e-01 8.42655838e-01 8.28658521e-01 8.18455338e-01 8.14479828e-01 8.14870775e-01 8.16455662e-01 8.11049104e-01 7.56938398e-01 6.13767028e-01 3.49188328e-01 1.13844690e-04 1.21568133e-04 9.98410940e-01 9.08339992e-02 4.08491492e-02 1.48826063e-01 6.89780116e-02 2.16293934e-04 1.66821032e-04 2.34700623e-04 1.14999665e-02 8.44436586e-02 9.36608076e-01 9.71640527e-01 9.70849693e-01 9.70991492e-01 9.69912648e-01 9.66451049e-01 9.59436059e-01 9.48228717e-01 9.33507562e-01 9.17016983e-01 9.00558949e-01 8.86063933e-01 8.75333667e-01 8.70069563e-01 8.71681094e-01 8.78313959e-01 8.81065369e-01 8.63676846e-01 7.32538044e-01 3.92605692e-01 1.24153448e-04 1.25267936e-04 9.96283174e-01 9.82947648e-01 9.87767577e-01 9.79926646e-01 2.98584938e-01 1.73295601e-04 1.42460529e-04 4.35372844e-04 4.83016707e-02 8.91283393e-01 9.42036688e-01 9.44677472e-01 9.49536145e-01 9.54826832e-01 9.58495080e-01 9.58847761e-01 9.54923928e-01 9.46999371e-01 9.36111093e-01 9.23442185e-01 9.10239160e-01 8.98169637e-01 8.89864862e-01 8.89353156e-01 8.98654819e-01 9.14030850e-01 9.28995311e-01 9.21145737e-01 8.40296566e-01 2.43903268e-02 1.27243038e-04 1.29968728e-04 9.64715779e-01 8.62859547e-01 1.93253290e-02 8.98590326e-01 9.78906453e-02 1.40040094e-04 1.55374248e-04 3.30830850e-02 7.60950029e-01 7.11061060e-01 7.26267219e-01 7.40087748e-01 7.75654197e-01 8.24463308e-01 8.70778739e-01 9.02455509e-01 9.18733239e-01 9.23754811e-01 9.21230972e-01 9.13349330e-01 9.01563764e-01 8.88244271e-01 8.78584921e-01 8.80596519e-01 8.99572968e-01 9.30948377e-01 9.51772034e-01 9.58958030e-01 9.35090423e-01 3.38951172e-03 1.21470082e-04 1.37299896e-04 2.09782185e-04 4.66998783e-04 1.70424799e-04 9.99605238e-01 1.53199231e-04 1.31952576e-04 3.75154917e-03 5.96564412e-01 2.96603650e-01 2.69983113e-01 2.61818320e-01 2.76259840e-01 3.24794382e-01 4.33103532e-01 6.08433723e-01 7.72618532e-01 8.59353065e-01 8.92497241e-01 9.00773168e-01 8.96200716e-01 8.83076787e-01 8.63746643e-01 8.43107641e-01 8.35169613e-01 8.60972404e-01 9.12952721e-01 9.62565064e-01 9.78560150e-01 9.56502736e-01 3.31971887e-03 1.53664107e-04 1.80515504e-04 1.50941167e-04 4.85733413e-04 1.92883294e-02 9.95830536e-01 1.30598914e-04 1.46328632e-04 4.84221935e-01 1.41423732e-01 1.05178759e-01 9.53056440e-02 9.18906480e-02 9.57106724e-02 1.17480047e-01 1.98303610e-01 4.28749144e-01 6.96571350e-01 8.25441658e-01 8.70047867e-01 8.81954014e-01 8.78772020e-01 8.64829063e-01 8.37872684e-01 7.91032255e-01 7.18109071e-01 6.24216497e-01 6.59956872e-01 9.59281385e-01 9.84876454e-01 9.89950478e-01 6.43859580e-02 5.41243120e-04 2.53513223e-04 3.15691548e-04 4.65682882e-04 9.99579728e-01 1.83506345e-04 1.62342083e-04 4.09910083e-01 8.30369219e-02 4.66647521e-02 3.77654098e-02 3.63997035e-02 4.04998660e-02 5.25433384e-02 8.42108205e-02 2.08736494e-01 5.03698528e-01 7.33215272e-01 8.24954689e-01 8.57123256e-01 8.66624534e-01 8.65213573e-01 8.54170442e-01 8.25179696e-01 7.46950507e-01 5.25812745e-01 2.96834350e-01 2.87105232e-01 8.70189130e-01 9.82197642e-01 9.88953173e-01 9.90473688e-01 1.21272035e-01 1.14558637e-02 7.40114192e-04 9.98895943e-01 1.67511331e-04 1.75147245e-04 3.56348127e-01 4.46146540e-02 1.65055096e-02 1.14476867e-02 1.20909316e-02 1.76378507e-02 3.25228721e-02 6.50348067e-02 1.66504666e-01 4.28002208e-01 6.71093702e-01 7.82206178e-01 8.25800478e-01 8.42979372e-01 8.48878384e-01 8.48435402e-01 8.40923548e-01 8.17150533e-01 7.26246953e-01 4.20554578e-01 2.18954742e-01 2.01835841e-01 4.82979029e-01 9.64172840e-01 9.88964558e-01 9.75388110e-01 6.34328127e-01 1.17067084e-01 9.99624491e-01 1.51871442e-04 1.65630117e-04 3.12655807e-01 2.22898200e-02 5.01189241e-03 3.40416608e-03 4.17903019e-03 8.69911257e-03 2.65892036e-02 7.83405751e-02 2.25530520e-01 4.80661601e-01 6.66099191e-01 7.53733218e-01 7.93103218e-01 8.11405718e-01 8.19038749e-01 8.20144653e-01 8.17313373e-01 8.13502550e-01 8.01735699e-01 7.10165620e-01 4.01237100e-01 1.99833706e-01 1.84269637e-01 2.56216675e-01 4.99913216e-01 4.78349507e-01 9.10833776e-01 9.82301891e-01 9.99456108e-01 1.92780906e-04 1.75716632e-04 2.53761441e-01 1.06718335e-02 1.93295116e-03 1.47632440e-03 2.13839742e-03 6.28839899e-03 3.17721479e-02 1.34853974e-01 3.80158782e-01 5.87149620e-01 6.85887516e-01 7.32627571e-01 7.59071231e-01 7.75722861e-01 7.84424067e-01 7.85043120e-01 7.79557943e-01 7.75903761e-01 7.81681895e-01 7.72215009e-01 6.54312670e-01 3.81169111e-01 2.24310011e-01 2.06676319e-01 2.32105404e-01 3.50676656e-01 9.10825610e-01 9.97512817e-01 9.99001741e-01 2.19944879e-04 2.02367097e-04 1.64057970e-01 4.70642885e-03 9.58026678e-04 8.92555632e-04 1.63335144e-03 7.82274641e-03 5.72870784e-02 2.80332714e-01 5.58877051e-01 6.61982358e-01 6.92035496e-01 7.06532300e-01 7.21949816e-01 7.38225639e-01 7.50401616e-01 7.53962159e-01 7.47906387e-01 7.40045071e-01 7.43468821e-01 7.45418787e-01 6.87855899e-01 5.28442860e-01 3.93906474e-01 3.91954005e-01 5.49667716e-01 8.53558540e-01 9.74032462e-01 9.98542905e-01 2.11426571e-01 2.38203196e-04 2.39988251e-04 8.33623558e-02 1.90577051e-03 5.72930381e-04 6.40949584e-04 1.78313244e-03 1.68319456e-02 1.44625142e-01 5.04390121e-01 6.63016319e-01 6.82280481e-01 6.73840940e-01 6.72454596e-01 6.83750093e-01 7.01608181e-01 7.18308151e-01 7.28293598e-01 7.28000879e-01 7.20859110e-01 7.20595062e-01 7.24848986e-01 6.99481249e-01 6.39218032e-01 6.42704666e-01 7.85059690e-01 9.13134277e-01 9.60873783e-01 9.84109044e-01 9.86980736e-01 4.00987314e-03 2.57847598e-04 2.37252039e-04 3.18119079e-02 8.19202105e-04 4.37920389e-04 5.32149861e-04 2.94656609e-03 4.91422452e-02 3.76081556e-01 6.57172561e-01 6.89376056e-01 6.62607253e-01 6.39908552e-01 6.37000680e-01 6.49839699e-01 6.69059992e-01 6.87755585e-01 7.03652978e-01 7.14883089e-01 7.19519973e-01 7.25694716e-01 7.42702723e-01 7.63119638e-01 7.93469131e-01 8.60526919e-01 9.31105435e-01 9.59292889e-01 9.66801763e-01 9.71715152e-01 7.07898915e-01 9.20936873e-04 3.14878533e-04 2.71293626e-04 5.25264861e-03 4.62696131e-04 3.79454432e-04 5.45525400e-04 8.16758256e-03 1.71063140e-01 6.07199848e-01 7.00581849e-01 6.67494595e-01 6.23891711e-01 6.04307353e-01 6.07504666e-01 6.23207688e-01 6.41982675e-01 6.59305632e-01 6.77180409e-01 7.00223923e-01 7.26855934e-01 7.54658163e-01 7.93652952e-01 8.49249184e-01 9.06441629e-01 9.46846008e-01 9.63886857e-01 9.58016574e-01 9.29823875e-01 7.72451401e-01 6.28093397e-03 5.08191995e-04 4.07533196e-04 4.70633036e-04 6.98188145e-04 2.71508470e-04 2.70961522e-04 6.64383871e-04 3.25610787e-02 4.60653991e-01 6.94279075e-01 6.81640983e-01 6.23867631e-01 5.84513426e-01 5.74934900e-01 5.83996594e-01 6.00409448e-01 6.17541134e-01 6.33510292e-01 6.51621997e-01 6.81213200e-01 7.29246795e-01 7.87601948e-01 8.48866403e-01 9.10475910e-01 9.53424752e-01 9.72032309e-01 9.70463991e-01 8.94653440e-01 3.55470300e-01 1.28522404e-02 1.22394389e-03 4.97136847e-04 5.27806813e-04 1.71296229e-03 2.84577545e-04 2.49584758e-04 1.86825564e-04 1.10984768e-03 1.12054527e-01 6.45633042e-01 6.94801152e-01 6.35918796e-01 5.79294026e-01 5.52154243e-01 5.50105631e-01 5.60493588e-01 5.74568868e-01 5.89795709e-01 6.07265294e-01 6.29657567e-01 6.63922906e-01 7.22480059e-01 8.02920997e-01 8.79794300e-01 9.36480761e-01 9.67607558e-01 9.79140520e-01 9.72388446e-01 7.64431238e-01 1.09778587e-02 1.78982993e-03 8.35501065e-04 7.14813592e-04 1.12471310e-03 1.67496782e-02 2.41839225e-04 2.70531280e-04 3.62583261e-04 4.50228015e-03 4.03054148e-01 6.87338233e-01 6.55132651e-01 5.85315347e-01 5.41053653e-01 5.24021387e-01 5.24239123e-01 5.31854510e-01 5.41769803e-01 5.54692566e-01 5.74584663e-01 6.05172813e-01 6.48902476e-01 7.11541414e-01 7.95744479e-01 8.79114687e-01 9.37012374e-01 9.67728138e-01 9.79511201e-01 9.77149427e-01 8.75678241e-01 4.56372313e-02 2.28515128e-03 2.00899853e-03 2.57636746e-03 1.81319211e-02 1.11731321e-01 1.94487875e-04 2.24305462e-04 6.48426649e-04 4.99004349e-02 5.97844481e-01 6.62093580e-01 6.00396931e-01 5.39535880e-01 5.06995380e-01 4.95140314e-01 4.94175911e-01 4.97783750e-01 5.03713071e-01 5.13878942e-01 5.33463359e-01 5.68405569e-01 6.21018410e-01 6.88476682e-01 7.67961681e-01 8.49742293e-01 9.14137781e-01 9.52038288e-01 9.71468151e-01 9.76905763e-01 9.55774248e-01 6.14799201e-01 5.67419492e-02 7.57363737e-02 3.04517835e-01 7.00014949e-01 7.59473562e-01 1.74903995e-04 1.80354284e-04 1.85889937e-03 3.46567303e-01 6.30949557e-01 6.12806261e-01 5.44715583e-01 4.97329086e-01 4.73152280e-01 4.63334113e-01 4.60577130e-01 4.61232513e-01 4.64522004e-01 4.72210348e-01 4.88766134e-01 5.20442426e-01 5.71421981e-01 6.38142526e-01 7.12583482e-01 7.88621783e-01 8.57388914e-01 9.08836842e-01 9.41490471e-01 9.61603165e-01 9.67798531e-01 9.54503536e-01 9.28105772e-01 9.55548882e-01 9.84823823e-01 9.91638124e-01 9.66093838e-01 1.67687627e-04 1.74392262e-04 2.93562580e-02 5.38821816e-01 6.00723505e-01 5.50435781e-01 4.91512686e-01 4.56192970e-01 4.38154578e-01 4.29602623e-01 4.25833464e-01 4.24891055e-01 4.26725954e-01 4.32760984e-01 4.46010828e-01 4.70806241e-01 5.10634184e-01 5.64005077e-01 6.24895692e-01 6.88288808e-01 7.52030373e-01 8.10637414e-01 8.57108891e-01 8.94932747e-01 9.24151599e-01 9.44155037e-01 9.55991387e-01 9.68740106e-01 9.78014171e-01 9.81237352e-01 9.62577999e-01 1.61633288e-04 1.65107864e-04 2.62604237e-01 5.75534940e-01 5.45163870e-01 4.84468609e-01 4.41904157e-01 4.17604268e-01 4.04146075e-01 3.96572292e-01 3.92210782e-01 3.90199661e-01 3.91079843e-01 3.96229833e-01 4.07511592e-01 4.26870674e-01 4.55028296e-01 4.89633679e-01 5.26327550e-01 5.62981308e-01 6.01301193e-01 6.41588330e-01 6.79594398e-01 7.12917745e-01 7.47468889e-01 7.83325136e-01 8.12327683e-01 8.44267666e-01 8.73240232e-01 8.90009522e-01 9.06394422e-01 1.56993498e-04 1.63044679e-04 4.93973672e-01 5.28017998e-01 4.72723305e-01 4.27036434e-01 4.01645809e-01 3.85941386e-01 3.75101924e-01 3.67524952e-01 3.62161309e-01 3.58893692e-01 3.58719081e-01 3.63102317e-01 3.73278201e-01 3.89636755e-01 4.10728008e-01 4.32475358e-01 4.49833959e-01 4.60357100e-01 4.64836180e-01 4.64374959e-01 4.57695663e-01 4.42049921e-01 4.13738608e-01 3.79650265e-01 3.62445474e-01 3.89714122e-01 4.77410853e-01 5.57453096e-01 7.87651479e-01 1.48750158e-04 1.55401736e-04 6.22581184e-01 4.56027180e-01 4.15722072e-01 3.95680606e-01 3.80653590e-01 3.66111577e-01 3.52835774e-01 3.41767699e-01 3.33130926e-01 3.27545196e-01 3.26424479e-01 3.31387043e-01 3.43484282e-01 3.62578362e-01 3.86744618e-01 4.11944091e-01 4.32699323e-01 4.43282276e-01 4.36819166e-01 4.05003041e-01 3.43606651e-01 2.60395855e-01 1.78382486e-01 1.25054002e-01 1.14228539e-01 1.42626017e-01 1.94781363e-01 2.47423172e-01 6.47620618e-01 2.30963749e-04 1.62830547e-04 9.02454972e-01 6.73001468e-01 6.86892390e-01 6.86539650e-01 6.77879453e-01 6.66521728e-01 6.55159056e-01 6.44617975e-01 6.35170758e-01 6.27653241e-01 6.23752773e-01 6.25288904e-01 6.33203030e-01 6.47012353e-01 6.64862394e-01 6.83845341e-01 7.00503707e-01 7.11029828e-01 7.10172236e-01 6.89685822e-01 6.37869358e-01 5.43211639e-01 4.12028402e-01 2.92675346e-01 2.46519879e-01 2.95370191e-01 3.92624110e-01 4.22241509e-01 6.29494488e-01 
