# vtk DataFile Version 2.0
results_case1_non_linear/iter6.vtk, Created by Freefem++ 
ASCII
DATASET UNSTRUCTURED_GRID
POINTS 961 float
0 0 0
0.033333333 0 0
0.066666667 0 0
0.1 0 0
0.13333333 0 0
0.16666667 0 0
0.2 0 0
0.23333333 0 0
0.26666667 0 0
0.3 0 0
0.33333333 0 0
0.36666667 0 0
0.4 0 0
0.43333333 0 0
0.46666667 0 0
0.5 0 0
0.53333333 0 0
0.56666667 0 0
0.6 0 0
0.63333333 0 0
0.66666667 0 0
0.7 0 0
0.73333333 0 0
0.76666667 0 0
0.8 0 0
0.83333333 0 0
0.86666667 0 0
0.9 0 0
0.93333333 0 0
0.96666667 0 0
1 0 0
0 0.033333333 0
0.033333333 0.033333333 0
0.066666667 0.033333333 0
0.1 0.033333333 0
0.13333333 0.033333333 0
0.16666667 0.033333333 0
0.2 0.033333333 0
0.23333333 0.033333333 0
0.26666667 0.033333333 0
0.3 0.033333333 0
0.33333333 0.033333333 0
0.36666667 0.033333333 0
0.4 0.033333333 0
0.43333333 0.033333333 0
0.46666667 0.033333333 0
0.5 0.033333333 0
0.53333333 0.033333333 0
0.56666667 0.033333333 0
0.6 0.033333333 0
0.63333333 0.033333333 0
0.66666667 0.033333333 0
0.7 0.033333333 0
0.73333333 0.033333333 0
0.76666667 0.033333333 0
0.8 0.033333333 0
0.83333333 0.033333333 0
0.86666667 0.033333333 0
0.9 0.033333333 0
0.93333333 0.033333333 0
0.96666667 0.033333333 0
1 0.033333333 0
0 0.066666667 0
0.033333333 0.066666667 0
0.066666667 0.066666667 0
0.1 0.066666667 0
0.13333333 0.066666667 0
0.16666667 0.066666667 0
0.2 0.066666667 0
0.23333333 0.066666667 0
0.26666667 0.066666667 0
0.3 0.066666667 0
0.33333333 0.066666667 0
0.36666667 0.066666667 0
0.4 0.066666667 0
0.43333333 0.066666667 0
0.46666667 0.066666667 0
0.5 0.066666667 0
0.53333333 0.066666667 0
0.56666667 0.066666667 0
0.6 0.066666667 0
0.63333333 0.066666667 0
0.66666667 0.066666667 0
0.7 0.066666667 0
0.73333333 0.066666667 0
0.76666667 0.066666667 0
0.8 0.066666667 0
0.83333333 0.066666667 0
0.86666667 0.066666667 0
0.9 0.066666667 0
0.93333333 0.066666667 0
0.96666667 0.066666667 0
1 0.066666667 0
0 0.1 0
0.033333333 0.1 0
0.066666667 0.1 0
0.1 0.1 0
0.13333333 0.1 0
0.16666667 0.1 0
0.2 0.1 0
0.23333333 0.1 0
0.26666667 0.1 0
0.3 0.1 0
0.33333333 0.1 0
0.36666667 0.1 0
0.4 0.1 0
0.43333333 0.1 0
0.46666667 0.1 0
0.5 0.1 0
0.53333333 0.1 0
0.56666667 0.1 0
0.6 0.1 0
0.63333333 0.1 0
0.66666667 0.1 0
0.7 0.1 0
0.73333333 0.1 0
0.76666667 0.1 0
0.8 0.1 0
0.83333333 0.1 0
0.86666667 0.1 0
0.9 0.1 0
0.93333333 0.1 0
0.96666667 0.1 0
1 0.1 0
0 0.13333333 0
0.033333333 0.13333333 0
0.066666667 0.13333333 0
0.1 0.13333333 0
0.13333333 0.13333333 0
0.16666667 0.13333333 0
0.2 0.13333333 0
0.23333333 0.13333333 0
0.26666667 0.13333333 0
0.3 0.13333333 0
0.33333333 0.13333333 0
0.36666667 0.13333333 0
0.4 0.13333333 0
0.43333333 0.13333333 0
0.46666667 0.13333333 0
0.5 0.13333333 0
0.53333333 0.13333333 0
0.56666667 0.13333333 0
0.6 0.13333333 0
0.63333333 0.13333333 0
0.66666667 0.13333333 0
0.7 0.13333333 0
0.73333333 0.13333333 0
0.76666667 0.13333333 0
0.8 0.13333333 0
0.83333333 0.13333333 0
0.86666667 0.13333333 0
0.9 0.13333333 0
0.93333333 0.13333333 0
0.96666667 0.13333333 0
1 0.13333333 0
0 0.16666667 0
0.033333333 0.16666667 0
0.066666667 0.16666667 0
0.1 0.16666667 0
0.13333333 0.16666667 0
0.16666667 0.16666667 0
0.2 0.16666667 0
0.23333333 0.16666667 0
0.26666667 0.16666667 0
0.3 0.16666667 0
0.33333333 0.16666667 0
0.36666667 0.16666667 0
0.4 0.16666667 0
0.43333333 0.16666667 0
0.46666667 0.16666667 0
0.5 0.16666667 0
0.53333333 0.16666667 0
0.56666667 0.16666667 0
0.6 0.16666667 0
0.63333333 0.16666667 0
0.66666667 0.16666667 0
0.7 0.16666667 0
0.73333333 0.16666667 0
0.76666667 0.16666667 0
0.8 0.16666667 0
0.83333333 0.16666667 0
0.86666667 0.16666667 0
0.9 0.16666667 0
0.93333333 0.16666667 0
0.96666667 0.16666667 0
1 0.16666667 0
0 0.2 0
0.033333333 0.2 0
0.066666667 0.2 0
0.1 0.2 0
0.13333333 0.2 0
0.16666667 0.2 0
0.2 0.2 0
0.23333333 0.2 0
0.26666667 0.2 0
0.3 0.2 0
0.33333333 0.2 0
0.36666667 0.2 0
0.4 0.2 0
0.43333333 0.2 0
0.46666667 0.2 0
0.5 0.2 0
0.53333333 0.2 0
0.56666667 0.2 0
0.6 0.2 0
0.63333333 0.2 0
0.66666667 0.2 0
0.7 0.2 0
0.73333333 0.2 0
0.76666667 0.2 0
0.8 0.2 0
0.83333333 0.2 0
0.86666667 0.2 0
0.9 0.2 0
0.93333333 0.2 0
0.96666667 0.2 0
1 0.2 0
0 0.23333333 0
0.033333333 0.23333333 0
0.066666667 0.23333333 0
0.1 0.23333333 0
0.13333333 0.23333333 0
0.16666667 0.23333333 0
0.2 0.23333333 0
0.23333333 0.23333333 0
0.26666667 0.23333333 0
0.3 0.23333333 0
0.33333333 0.23333333 0
0.36666667 0.23333333 0
0.4 0.23333333 0
0.43333333 0.23333333 0
0.46666667 0.23333333 0
0.5 0.23333333 0
0.53333333 0.23333333 0
0.56666667 0.23333333 0
0.6 0.23333333 0
0.63333333 0.23333333 0
0.66666667 0.23333333 0
0.7 0.23333333 0
0.73333333 0.23333333 0
0.76666667 0.23333333 0
0.8 0.23333333 0
0.83333333 0.23333333 0
0.86666667 0.23333333 0
0.9 0.23333333 0
0.93333333 0.23333333 0
0.96666667 0.23333333 0
1 0.23333333 0
0 0.26666667 0
0.033333333 0.26666667 0
0.066666667 0.26666667 0
0.1 0.26666667 0
0.13333333 0.26666667 0
0.16666667 0.26666667 0
0.2 0.26666667 0
0.23333333 0.26666667 0
0.26666667 0.26666667 0
0.3 0.26666667 0
0.33333333 0.26666667 0
0.36666667 0.26666667 0
0.4 0.26666667 0
0.43333333 0.26666667 0
0.46666667 0.26666667 0
0.5 0.26666667 0
0.53333333 0.26666667 0
0.56666667 0.26666667 0
0.6 0.26666667 0
0.63333333 0.26666667 0
0.66666667 0.26666667 0
0.7 0.26666667 0
0.73333333 0.26666667 0
0.76666667 0.26666667 0
0.8 0.26666667 0
0.83333333 0.26666667 0
0.86666667 0.26666667 0
0.9 0.26666667 0
0.93333333 0.26666667 0
0.96666667 0.26666667 0
1 0.26666667 0
0 0.3 0
0.033333333 0.3 0
0.066666667 0.3 0
0.1 0.3 0
0.13333333 0.3 0
0.16666667 0.3 0
0.2 0.3 0
0.23333333 0.3 0
0.26666667 0.3 0
0.3 0.3 0
0.33333333 0.3 0
0.36666667 0.3 0
0.4 0.3 0
0.43333333 0.3 0
0.46666667 0.3 0
0.5 0.3 0
0.53333333 0.3 0
0.56666667 0.3 0
0.6 0.3 0
0.63333333 0.3 0
0.66666667 0.3 0
0.7 0.3 0
0.73333333 0.3 0
0.76666667 0.3 0
0.8 0.3 0
0.83333333 0.3 0
0.86666667 0.3 0
0.9 0.3 0
0.93333333 0.3 0
0.96666667 0.3 0
1 0.3 0
0 0.33333333 0
0.033333333 0.33333333 0
0.066666667 0.33333333 0
0.1 0.33333333 0
0.13333333 0.33333333 0
0.16666667 0.33333333 0
0.2 0.33333333 0
0.23333333 0.33333333 0
0.26666667 0.33333333 0
0.3 0.33333333 0
0.33333333 0.33333333 0
0.36666667 0.33333333 0
0.4 0.33333333 0
0.43333333 0.33333333 0
0.46666667 0.33333333 0
0.5 0.33333333 0
0.53333333 0.33333333 0
0.56666667 0.33333333 0
0.6 0.33333333 0
0.63333333 0.33333333 0
0.66666667 0.33333333 0
0.7 0.33333333 0
0.73333333 0.33333333 0
0.76666667 0.33333333 0
0.8 0.33333333 0
0.83333333 0.33333333 0
0.86666667 0.33333333 0
0.9 0.33333333 0
0.93333333 0.33333333 0
0.96666667 0.33333333 0
1 0.33333333 0
0 0.36666667 0
0.033333333 0.36666667 0
0.066666667 0.36666667 0
0.1 0.36666667 0
0.13333333 0.36666667 0
0.16666667 0.36666667 0
0.2 0.36666667 0
0.23333333 0.36666667 0
0.26666667 0.36666667 0
0.3 0.36666667 0
0.33333333 0.36666667 0
0.36666667 0.36666667 0
0.4 0.36666667 0
0.43333333 0.36666667 0
0.46666667 0.36666667 0
0.5 0.36666667 0
0.53333333 0.36666667 0
0.56666667 0.36666667 0
0.6 0.36666667 0
0.63333333 0.36666667 0
0.66666667 0.36666667 0
0.7 0.36666667 0
0.73333333 0.36666667 0
0.76666667 0.36666667 0
0.8 0.36666667 0
0.83333333 0.36666667 0
0.86666667 0.36666667 0
0.9 0.36666667 0
0.93333333 0.36666667 0
0.96666667 0.36666667 0
1 0.36666667 0
0 0.4 0
0.033333333 0.4 0
0.066666667 0.4 0
0.1 0.4 0
0.13333333 0.4 0
0.16666667 0.4 0
0.2 0.4 0
0.23333333 0.4 0
0.26666667 0.4 0
0.3 0.4 0
0.33333333 0.4 0
0.36666667 0.4 0
0.4 0.4 0
0.43333333 0.4 0
0.46666667 0.4 0
0.5 0.4 0
0.53333333 0.4 0
0.56666667 0.4 0
0.6 0.4 0
0.63333333 0.4 0
0.66666667 0.4 0
0.7 0.4 0
0.73333333 0.4 0
0.76666667 0.4 0
0.8 0.4 0
0.83333333 0.4 0
0.86666667 0.4 0
0.9 0.4 0
0.93333333 0.4 0
0.96666667 0.4 0
1 0.4 0
0 0.43333333 0
0.033333333 0.43333333 0
0.066666667 0.43333333 0
0.1 0.43333333 0
0.13333333 0.43333333 0
0.16666667 0.43333333 0
0.2 0.43333333 0
0.23333333 0.43333333 0
0.26666667 0.43333333 0
0.3 0.43333333 0
0.33333333 0.43333333 0
0.36666667 0.43333333 0
0.4 0.43333333 0
0.43333333 0.43333333 0
0.46666667 0.43333333 0
0.5 0.43333333 0
0.53333333 0.43333333 0
0.56666667 0.43333333 0
0.6 0.43333333 0
0.63333333 0.43333333 0
0.66666667 0.43333333 0
0.7 0.43333333 0
0.73333333 0.43333333 0
0.76666667 0.43333333 0
0.8 0.43333333 0
0.83333333 0.43333333 0
0.86666667 0.43333333 0
0.9 0.43333333 0
0.93333333 0.43333333 0
0.96666667 0.43333333 0
1 0.43333333 0
0 0.46666667 0
0.033333333 0.46666667 0
0.066666667 0.46666667 0
0.1 0.46666667 0
0.13333333 0.46666667 0
0.16666667 0.46666667 0
0.2 0.46666667 0
0.23333333 0.46666667 0
0.26666667 0.46666667 0
0.3 0.46666667 0
0.33333333 0.46666667 0
0.36666667 0.46666667 0
0.4 0.46666667 0
0.43333333 0.46666667 0
0.46666667 0.46666667 0
0.5 0.46666667 0
0.53333333 0.46666667 0
0.56666667 0.46666667 0
0.6 0.46666667 0
0.63333333 0.46666667 0
0.66666667 0.46666667 0
0.7 0.46666667 0
0.73333333 0.46666667 0
0.76666667 0.46666667 0
0.8 0.46666667 0
0.83333333 0.46666667 0
0.86666667 0.46666667 0
0.9 0.46666667 0
0.93333333 0.46666667 0
0.96666667 0.46666667 0
1 0.46666667 0
0 0.5 0
0.033333333 0.5 0
0.066666667 0.5 0
0.1 0.5 0
0.13333333 0.5 0
0.16666667 0.5 0
0.2 0.5 0
0.23333333 0.5 0
0.26666667 0.5 0
0.3 0.5 0
0.33333333 0.5 0
0.36666667 0.5 0
0.4 0.5 0
0.43333333 0.5 0
0.46666667 0.5 0
0.5 0.5 0
0.53333333 0.5 0
0.56666667 0.5 0
0.6 0.5 0
0.63333333 0.5 0
0.66666667 0.5 0
0.7 0.5 0
0.73333333 0.5 0
0.76666667 0.5 0
0.8 0.5 0
0.83333333 0.5 0
0.86666667 0.5 0
0.9 0.5 0
0.93333333 0.5 0
0.96666667 0.5 0
1 0.5 0
0 0.53333333 0
0.033333333 0.53333333 0
0.066666667 0.53333333 0
0.1 0.53333333 0
0.13333333 0.53333333 0
0.16666667 0.53333333 0
0.2 0.53333333 0
0.23333333 0.53333333 0
0.26666667 0.53333333 0
0.3 0.53333333 0
0.33333333 0.53333333 0
0.36666667 0.53333333 0
0.4 0.53333333 0
0.43333333 0.53333333 0
0.46666667 0.53333333 0
0.5 0.53333333 0
0.53333333 0.53333333 0
0.56666667 0.53333333 0
0.6 0.53333333 0
0.63333333 0.53333333 0
0.66666667 0.53333333 0
0.7 0.53333333 0
0.73333333 0.53333333 0
0.76666667 0.53333333 0
[...]
CELL_DATA 1920
Scalars  Label int 1
LOOKUP_TABLE FreeFempp_table
0
0
0
0
0
0
0
0
0
0
0
0
0
0
0
0
0
0
0
0
0
0
0
0
0
0
0
0
0
0
0
0
0
0
0
0
0
0
0
0
0
0
0
0
0
0
0
0
0
0
0
0
0
0
0
0
0
0
0
0
0
0
0
0
0
0
0
0
0
0
0
0
0
0
0
0
0
0
0
0
0
0
0
0
0
0
0
0
0
0
0
0
0
0
0
0
0
0
0
0
0
0
0
0
0
0
0
0
0
0
0
0
0
0
0
0
0
0
0
0
0
0
0
0
0
0
0
0
0
0
0
0
0
0
0
0
0
0
0
0
0
0
0
0
0
0
0
0
0
0
0
0
0
0
0
0
0
0
0
0
0
0
0
0
0
0
0
0
0
0
0
0
0
0
0
0
0
0
0
0
0
0
0
0
0
0
0
0
0
0
0
0
0
0
0
0
0
0
0
0
0
0
0
0
0
0
0
0
0
0
0
0
0
0
0
0
0
0
0
0
0
0
0
0
0
0
0
0
0
0
0
0
0
0
0
0
0
0
0
0
0
0
0
0
0
0
0
0
0
0
0
0
0
0
0
0
0
0
0
0
0
0
0
0
0
0
0
0
0
0
0
0
0
0
0
0
0
0
0
0
0
0
0
0
0
0
0
0
0
0
0
0
0
0
0
0
0
0
0
0
0
0
0
0
0
0
0
0
0
0
0
0
0
0
0
0
0
0
0
0
0
0
0
0
0
0
0
0
0
0
0
0
0
0
0
0
0
0
0
0
0
0
0
0
0
0
0
0
0
0
0
0
0
0
0
0
0
0
0
0
0
0
0
0
0
0
0
0
0
0
0
0
0
0
0
0
0
0
0
0
0
0
0
0
0
0
0
0
0
0
0
0
0
0
0
0
0
0
0
0
0
0
0
0
0
0
0
0
0
0
0
0
0
0
0
0
0
0
0
0
0
0
0
0
0
0
0
0
0
0
0
0
0
0
0
0
0
0
0
0
0
0
0
0
0
0
0
0
0
0
0
0
0
0
0
0
0
0
0
0
0
0
0
0
0
0
0
0
0
0
0
0
0
0
0
0
0
0
0
0
0
0
0
0
0
0
0
0
0
0
0
0
0
0
0
0
0
0
0
0
0
0
0
0
0
0
0
0
0
0
0
0
0
0
0
0
0
0
0
0
0
0
0
0
0
0
0
0
0
0
0
0
0
0
0
0
0
0
0
0
0
0
0
0
0
0
0
0
0
0
0
0
0
0
0
0
0
0
0
0
0
0
0
0
0
0
0
0
0
0
0
0
0
0
0
0
0
0
0
0
0
0
0
0
0
0
0
0
0
0
0
0
0
0
0
0
0
0
0
0
0
0
0
0
0
0
0
0
0
0
0
0
0
0
0
0
0
0
0
0
0
0
0
0
0
0
0
0
0
0
0
0
0
0
0
0
0
0
0
0
0
0
0
0
0
0
0
0
0
0
0
0
0
0
0
0
0
0
0
0
0
0
0
0
0
0
0
0
0
0
0
0
0
0
0
0
0
0
0
0
0
0
0
0
0
0
0
0
0
0
0
0
0
0
0
0
0
0
0
0
0
0
0
0
0
0
0
0
0
0
0
0
0
0
0
0
0
0
0
0
0
0
0
0
0
0
0
0
0
0
0
0
0
0
0
0
0
0
0
0
0
0
0
0
0
0
0
0
0
0
0
0
0
0
0
0
0
0
0
0
0
0
0
0
0
0
0
0
0
0
0
0
0
0
0
0
0
0
0
0
0
0
0
0
0
0
0
0
0
0
0
0
0
0
0
0
0
0
0
0
0
0
0
0
0
0
0
0
0
0
0
0
0
0
0
0
0
0
0
0
0
0
0
0
0
0
0
0
0
0
0
0
0
0
0
0
0
0
0
0
0
0
0
0
0
0
0
0
0
0
0
0
0
0
0
0
0
0
0
0
0
0
0
0
0
0
0
0
0
0
0
0
0
0
0
0
0
0
0
0
0
0
0
0
0
0
0
0
0
0
0
0
0
0
0
0
0
0
0
0
0
0
0
0
0
0
0
0
0
0
0
0
0
0
0
0
0
0
0
0
0
0
0
0
0
0
0
0
0
0
0
0
0
0
0
0
0
0
0
0
0
0
0
0
0
0
0
0
0
0
0
0
0
0
0
0
0
0
0
0
0
0
0
0
0
0
0
0
0
0
0
0
0
0
0
0
0
0
0
0
0
0
0
0
0
0
0
0
0
0
0
0
0
0
0
0
0
0
0
0
0
0
0
0
0
0
0
0
0
0
0
0
0
0
0
0
0
0
0
0
0
0
0
0
0
0
0
0
0
0
0
0
0
0
0
0
0
0
0
0
0
0
0
0
0
0
0
0
0
0
0
0
0
0
0
0
0
0
0
0
0
0
0
0
0
0
0
0
0
0
0
0
0
0
0
0
0
0
0
0
0
0
0
0
0
0
0
0
0
0
0
0
0
0
0
0
0
0
0
0
0
0
0
0
0
0
0
0
0
0
0
0
0
0
0
0
0
0
0
0
0
0
0
0
0
0
0
0
0
0
0
0
0
0
0
0
0
0
0
0
0
0
0
0
0
0
0
0
0
0
0
0
0
0
0
0
0
0
0
0
0
0
0
0
0
0
0
0
0
0
0
0
0
0
0
0
0
0
0
0
0
0
0
0
0
0
0
0
0
0
0
0
0
0
0
0
0
0
0
0
0
0
0
0
0
0
0
0
0
0
0
0
0
0
0
0
0
0
0
0
0
0
0
0
0
0
0
0
0
0
0
0
0
0
0
0
0
0
0
0
0
0
0
0
0
0
0
0
0
0
0
0
0
0
0
0
0
0
0
0
0
0
0
0
0
0
0
0
0
0
0
0
0
0
0
0
0
0
0
0
0
0
0
0
0
0
0
0
0
0
0
0
0
0
0
0
0
0
0
0
0
0
0
0
0
0
0
0
0
0
0
0
0
0
0
0
0
0
0
0
0
0
0
0
0
0
0
0
0
0
0
0
0
0
0
0
0
0
0
0
0
0
0
0
0
0
0
0
0
0
0
0
0
0
0
0
0
0
0
0
0
0
0
0
0
0
0
0
0
0
0
0
0
0
0
0
0
0
0
0
0
0
0
0
0
0
0
0
0
0
0
0
0
0
0
0
0
0
0
0
0
0
0
0
0
0
0
0
0
0
0
0
0
0
0
0
0
0
0
0
0
0
0
0
0
0
0
0
0
0
0
0
0
0
0
0
0
0
0
0
0
0
0
0
0
0
0
0
0
0
0
0
0
0
0
0
0
0
0
0
0
0
0
0
0
0
0
0
0
0
0
0
0
0
0
0
0
0
0
0
0
0
0
0
0
0
0
0
0
0
0
0
0
0
0
0
0
0
0
0
0
0
0
0
0
0
0
0
0
0
0
0
0
0
0
0
0
0
0
0
0
0
0
0
0
0
0
0
0
0
0
0
0
0
0
0
0
0
0
0
0
0
0
0
0
0
0
0
0
0
0
0
0
0
0
0
0
0
0
0
0
0
0
0
0
0
0
0
0
0
0
0
0
0
0
0
0
0
0
0
0
0
0
0
0
0
0
0
0
0
0
0
0
0
0
0
0
0
0
0
0
0
0
0
0
0
0
0
0
0
0
0
0
0
0
0
0
0
0
0
0
0
0
0
0
0
0
0
0
0
0
0
0
0
0
0
0
0
0
0
0
0
0
0
0
0
0
0
0
0
0
0
0
0
0
0
0
0
0
0
0
0
0
0
0
0
0
0
0
0
0
0
0
0
0
0
0
0
0
0
0
0
0
0
0
0
0
0
0
0
0
0
0
0
0
0
0
0
0
0
0
0
0
0
0
0
0
0
0
0
0
0
0
0
0
0
0
0
0
0
0
0
0
0
0
0
0
0
0
0
0
0
0
0
0
0
0
0
0
0
0
0
0
0
0
0
0
0
0
0
0
0
0
0
0
0
0
0
0
0
0
0
0
0
0
0
0
0
0
0
0
0
0
0
0
0
0
0
0
0
0
0
0
0
0
0
0
0
0
0
0
0
0
0
0
0
0
0
0
0
1
1
1
1
1
1
1
1
1
1
1
1
1
1
1
1
1
1
1
1
1
1
1
1
1
1
1
1
1
1
2
2
2
2
2
2
2
2
2
2
2
2
2
2
2
2
2
2
2
2
2
2
2
2
2
2
2
2
2
2
3
3
3
3
3
3
3
3
3
3
3
3
3
3
3
3
3
3
3
3
3
3
3
3
3
3
3
3
3
3
4
4
4
4
4
4
4
4
4
4
4
4
4
4
4
4
4
4
4
4
4
4
4
4
4
4
4
4
4
4

LOOKUP_TABLE FreeFempp_table 5
1.00000000 0.00000000 0.00000000 1.00000000
1.00000000 1.00000000 0.00000000 1.00000000
1.00000000 0.00000000 1.00000000 1.00000000
0.00000000 1.00000000 0.00000000 1.00000000
0.00000000 1.00000000 1.00000000 1.00000000

POINT_DATA 961
FIELD FieldData 1
Density 1 961 float
6.17721975e-02 5.03418036e-02 4.33481857e-02 4.02703024e-02 3.98489386e-02 4.09050137e-02 4.27085683e-02 4.48592864e-02 4.71284576e-02 4.93981726e-02 5.16147353e-02 5.37571572e-02 5.58197573e-02 5.78147583e-02 5.98034710e-02 6.17297441e-02 6.30636662e-02 6.25997856e-02 5.95494546e-02 6.17561005e-02 8.78515244e-02 1.35740221e-01 1.83699921e-01 2.08689690e-01 2.03287885e-01 1.79703414e-01 1.53032213e-01 1.25916541e-01 8.11161995e-02 7.24689588e-02 1.08765021e-01 7.05748126e-02 5.11041060e-02 4.57059927e-02 4.04657125e-02 3.84511687e-02 3.85233425e-02 3.96274067e-02 4.12252620e-02 4.30484191e-02 4.49581221e-02 4.68835123e-02 4.87880521e-02 5.06350026e-02 5.23700379e-02 5.39625697e-02 5.52831031e-02 5.49984798e-02 4.83472608e-02 2.72870548e-02 1.20678609e-02 1.39707355e-02 1.15054958e-01 2.42630139e-01 3.20376366e-01 3.16391706e-01 2.60996133e-01 1.98087096e-01 1.46276399e-01 8.43988955e-02 5.49826808e-02 7.51519054e-02 9.00139809e-02 7.94432238e-02 1.01611547e-01 1.27474323e-01 1.45985246e-01 1.60254270e-01 1.72594905e-01 1.83716178e-01 1.93791315e-01 2.02769533e-01 2.10496649e-01 2.16772705e-01 2.21402779e-01 2.24278167e-01 2.25434124e-01 2.24801615e-01 2.21663430e-01 2.14053795e-01 1.97097987e-01 1.69427276e-01 1.54002503e-01 1.74691662e-01 2.18541458e-01 2.48861998e-01 2.42893860e-01 2.15849400e-01 1.86023906e-01 1.58781305e-01 1.17913306e-01 5.48742376e-02 6.36558309e-02 9.27872509e-02 8.38938355e-02 1.24063723e-01 1.55958548e-01 1.78660914e-01 1.98609233e-01 2.17280194e-01 2.34823123e-01 2.51077980e-01 2.65802890e-01 2.78735906e-01 2.89624542e-01 2.98244059e-01 3.04411918e-01 3.08000863e-01 3.08931410e-01 3.07103574e-01 3.02234888e-01 2.93600768e-01 2.80515403e-01 2.65884221e-01 2.58889407e-01 2.65837342e-01 2.74901092e-01 2.66203105e-01 2.38660946e-01 2.05435142e-01 1.74841255e-01 1.38726071e-01 5.63197099e-02 5.85613884e-02 9.67831016e-02 8.44843686e-02 1.36767924e-01 1.76098421e-01 2.05627874e-01 2.32793435e-01 2.58698642e-01 2.83234894e-01 3.06028098e-01 3.26674908e-01 3.44801277e-01 3.60078722e-01 3.72231871e-01 3.81043822e-01 3.86359036e-01 3.88080269e-01 3.86153072e-01 3.80535543e-01 3.71183962e-01 3.58235866e-01 3.42699409e-01 3.27037960e-01 3.13687980e-01 3.00749183e-01 2.81729758e-01 2.54388303e-01 2.22621232e-01 1.90511525e-01 1.52624428e-01 5.82592189e-02 5.83316162e-02 1.04873158e-01 9.03471038e-02 1.47905007e-01 1.95012853e-01 2.32149258e-01 2.66788542e-01 2.99959004e-01 3.31413954e-01 3.60636503e-01 3.87091488e-01 4.10296261e-01 4.29838657e-01 4.45381194e-01 4.56662416e-01 4.63496447e-01 4.65770632e-01 4.63440567e-01 4.56525028e-01 4.45117027e-01 4.29459125e-01 4.10125554e-01 3.88141662e-01 3.64609301e-01 3.39513600e-01 3.11190248e-01 2.78630883e-01 2.43078932e-01 2.06482157e-01 1.64375678e-01 6.05081543e-02 5.99587299e-02 1.18579417e-01 1.07552513e-01 1.61523417e-01 2.14241251e-01 2.58571178e-01 3.00267041e-01 3.40339899e-01 3.78387809e-01 4.13741708e-01 4.45733368e-01 4.73770469e-01 4.97356415e-01 5.16093612e-01 5.29681563e-01 5.37911832e-01 5.40661931e-01 5.37889719e-01 5.29632330e-01 5.16016543e-01 4.97294515e-01 4.73903477e-01 4.46489722e-01 4.15775299e-01 3.82192910e-01 3.45698386e-01 3.06350082e-01 2.64911830e-01 2.22424999e-01 1.75106764e-01 6.29881024e-02 6.23630583e-02 1.39233097e-01 1.43762186e-01 1.82852462e-01 2.35599846e-01 2.84938455e-01 3.32648337e-01 3.78975332e-01 4.23120320e-01 4.64173615e-01 5.01303256e-01 5.33798993e-01 5.61083019e-01 5.82709730e-01 5.98358810e-01 6.07821405e-01 6.10982478e-01 6.07805490e-01 5.98327696e-01 5.82671404e-01 5.61071455e-01 5.33908486e-01 5.01718342e-01 4.65139151e-01 4.24788773e-01 3.81204128e-01 3.34990591e-01 2.86996961e-01 2.38095105e-01 1.85225993e-01 6.56430423e-02 6.51249513e-02 1.67009145e-01 2.03827560e-01 2.15134382e-01 2.60948867e-01 3.11148733e-01 3.63276094e-01 4.15018052e-01 4.64653045e-01 5.10871649e-01 5.52627802e-01 5.89080453e-01 6.19576156e-01 6.43643856e-01 6.60981655e-01 6.71426415e-01 6.74908876e-01 6.71412110e-01 6.60955071e-01 6.43612444e-01 6.19560540e-01 5.89124560e-01 5.52798688e-01 5.11224568e-01 4.65138525e-01 4.15339977e-01 3.62723768e-01 3.08318704e-01 2.53121942e-01 1.94800347e-01 6.85610771e-02 6.80506378e-02 1.98881984e-01 2.82331079e-01 2.54324466e-01 2.89841235e-01 3.36408794e-01 3.91318619e-01 4.47635740e-01 5.02118409e-01 5.52898228e-01 5.98671436e-01 6.38453007e-01 6.71519339e-01 6.97404981e-01 7.15889037e-01 7.26938903e-01 7.30607450e-01 7.26927757e-01 7.15868592e-01 6.97380364e-01 6.71501040e-01 6.38455689e-01 5.98701179e-01 5.52910566e-01 5.01924574e-01 4.46711510e-01 3.88359487e-01 3.28080952e-01 2.67086476e-01 2.03700364e-01 7.19498023e-02 7.10534081e-02 2.25304589e-01 3.57174337e-01 2.86460400e-01 3.16503167e-01 3.58533591e-01 4.15678799e-01 4.76027101e-01 5.34762979e-01 5.89462101e-01 6.38566315e-01 6.80939436e-01 7.15786159e-01 7.42677629e-01 7.61562824e-01 7.72678435e-01 7.76335418e-01 7.72672117e-01 7.61551797e-01 7.42665410e-01 7.15777278e-01 6.80933714e-01 6.38540864e-01 5.89324355e-01 5.34243584e-01 4.74419445e-01 4.11103189e-01 3.45679134e-01 2.79580414e-01 2.11692780e-01 7.59822801e-02 7.41524920e-02 2.29314849e-01 3.93302441e-01 2.96243399e-01 3.31489623e-01 3.74611288e-01 4.35263276e-01 4.99533743e-01 5.61994970e-01 6.19948506e-01 6.71653271e-01 7.15820193e-01 7.51563787e-01 7.78510451e-01 7.96885669e-01 8.07382703e-01 8.10769618e-01 8.07381690e-01 7.96885252e-01 7.78513670e-01 7.51573026e-01 7.15830803e-01 6.71635091e-01 6.19800866e-01 5.61440289e-01 4.97838259e-01 4.30399626e-01 3.60658258e-01 2.90241182e-01 2.18471780e-01 8.09783340e-02 7.74796605e-02 1.99093476e-01 3.61203283e-01 2.82188267e-01 3.30634475e-01 3.83549303e-01 4.49629068e-01 5.17796755e-01 5.83420932e-01 6.43935084e-01 6.97512805e-01 7.42709279e-01 7.78515697e-01 8.04611206e-01 8.21565688e-01 8.30726385e-01 8.33563566e-01 8.30729902e-01 8.21574509e-01 8.04628670e-01 7.78544903e-01 7.42747664e-01 6.97537243e-01 6.43866658e-01 5.83040714e-01 5.16523719e-01 4.45864350e-01 3.72705221e-01 2.98788458e-01 2.23709092e-01 8.83049220e-02 8.14693496e-02 1.50046006e-01 2.70827234e-01 2.58332521e-01 3.21289092e-01 3.87403578e-01 4.59224820e-01 5.30764878e-01 5.98824322e-01 6.61173046e-01 7.15957999e-01 7.61580944e-01 7.96886623e-01 8.21563900e-01 8.36522341e-01 8.43824208e-01 8.45874429e-01 8.43830764e-01 8.36537540e-01 8.21591675e-01 7.96932340e-01 7.61647463e-01 7.16036677e-01 6.61222517e-01 5.98720789e-01 5.30178070e-01 4.57277179e-01 3.81726980e-01 3.05236787e-01 2.27751642e-01 1.03180319e-01 8.74804705e-02 1.11887492e-01 1.77626669e-01 2.40137085e-01 3.13886106e-01 3.88978422e-01 4.64729071e-01 5.38496196e-01 6.08089089e-01 6.71537340e-01 7.26975501e-01 7.72683859e-01 8.07378411e-01 8.30721557e-01 8.43821526e-01 8.49227905e-01 8.49459410e-01 8.49236310e-01 8.43840361e-01 8.30755651e-01 8.07435691e-01 7.72773921e-01 7.27106750e-01 6.71710014e-01 6.08281553e-01 5.38634002e-01 4.64609772e-01 3.88082504e-01 3.10884029e-01 2.33840883e-01 1.38883978e-01 9.94227305e-02 9.26763192e-02 1.20655365e-01 2.32272610e-01 3.10943425e-01 3.89081538e-01 4.66339082e-01 5.40972471e-01 6.11135721e-01 6.74971521e-01 7.30623305e-01 7.76331365e-01 8.10760260e-01 8.33555043e-01 8.45868349e-01 8.49455953e-01 8.49458039e-01 8.49465191e-01 8.45889091e-01 8.33592951e-01 8.10825825e-01 7.76441216e-01 7.30802834e-01 6.75262332e-01 6.11616254e-01 5.41815341e-01 4.67973471e-01 3.92627239e-01 3.19398999e-01 2.48207986e-01 2.12681413e-01 1.25701576e-01 8.40972587e-02 9.53502506e-02 2.29967073e-01 3.08998555e-01 3.86869490e-01 4.63830322e-01 5.38109541e-01 6.07914746e-01 6.71452284e-01 7.26930380e-01 7.72658765e-01 8.07364821e-01 8.30714941e-01 8.43818963e-01 8.49227488e-01 8.49460006e-01 8.49237323e-01 8.43841255e-01 8.30756485e-01 8.07438612e-01 7.72787929e-01 7.27156222e-01 6.71855330e-01 6.08669639e-01 5.39642036e-01 4.67290461e-01 3.95539105e-01 3.32680941e-01 2.73223072e-01 3.17435831e-01 1.72060862e-01 7.95051903e-02 8.47589672e-02 2.27843732e-01 3.05285484e-01 3.81546944e-01 4.56995577e-01 5.29871345e-01 5.98434925e-01 6.60984576e-01 7.15857148e-01 7.61523843e-01 7.96854675e-01 8.21547449e-01 8.36515367e-01 8.43822658e-01 8.45875978e-01 8.43833685e-01 8.36540580e-01 8.21594536e-01 7.96939015e-01 7.61673689e-01 7.16126680e-01 6.61484599e-01 5.99415064e-01 5.31959176e-01 4.61958259e-01 3.94739449e-01 3.43760878e-01 2.99051076e-01 3.97309899e-01 2.20692471e-01 7.62200579e-02 7.89493322e-02 2.24131674e-01 2.99206078e-01 3.72910321e-01 4.45828646e-01 5.16331971e-01 5.82789004e-01 6.43625438e-01 6.97343051e-01 7.42610335e-01 7.78458178e-01 8.04580092e-01 8.21551442e-01 8.30722809e-01 8.33566427e-01 8.30736041e-01 8.21581602e-01 8.04635525e-01 7.78555632e-01 7.42781043e-01 6.97647393e-01 6.44187093e-01 5.83883166e-01 5.18636048e-01 4.51217622e-01 3.87087554e-01 3.40473980e-01 3.06677341e-01 4.00372088e-01 2.39321113e-01 7.33367354e-02 7.46150762e-02 2.18965441e-01 2.90897250e-01 3.61083478e-01 4.30486202e-01 4.97678459e-01 5.61170161e-01 6.19525969e-01 6.71411335e-01 7.15673804e-01 7.51475692e-01 7.78460801e-01 7.96861827e-01 8.07376146e-01 8.10774267e-01 8.07392716e-01 7.96898663e-01 7.78526425e-01 7.51586676e-01 7.15860963e-01 6.71732903e-01 6.20096624e-01 5.62230587e-01 4.99778569e-01 4.35026884e-01 3.72060865e-01 3.20617318e-01 2.84629881e-01 3.32465470e-01 2.21156329e-01 7.05300570e-02 7.10302070e-02 2.12736085e-01 2.80657470e-01 3.46330881e-01 4.11235064e-01 4.74200934e-01 5.33884943e-01 5.88974297e-01 6.38268590e-01 6.80751383e-01 7.15669334e-01 7.42609799e-01 7.61529326e-01 7.72668958e-01 7.76342273e-01 7.72689164e-01 7.61573195e-01 7.42685199e-01 7.15791106e-01 6.80946469e-01 6.38585389e-01 5.89501023e-01 5.34787476e-01 4.75807726e-01 4.14252520e-01 3.52458835e-01 2.94415176e-01 2.43874177e-01 2.35315651e-01 1.84276491e-01 6.76598027e-02 6.80883452e-02 2.05817044e-01 2.68868417e-01 3.29001576e-01 3.88424844e-01 4.46286887e-01 5.01363397e-01 5.52421987e-01 5.98356426e-01 6.38244808e-01 6.71386540e-01 6.97326243e-01 7.15849578e-01 7.26928055e-01 7.30617046e-01 7.26951182e-01 7.15898752e-01 6.97407961e-01 6.71512902e-01 6.38436794e-01 5.98648667e-01 5.52869678e-01 5.02049387e-01 4.47326630e-01 3.89964730e-01 3.31200898e-01 2.71615237e-01 2.07879692e-01 1.51581079e-01 1.46643460e-01 6.46452084e-02 6.56333715e-02 1.98603764e-01 2.55994797e-01 3.09505701e-01 3.62473041e-01 4.14420694e-01 4.64166135e-01 5.10493040e-01 5.52351296e-01 5.88889480e-01 6.19451761e-01 6.43569589e-01 6.60944998e-01 6.71418309e-01 6.74922585e-01 6.71442151e-01 6.60994947e-01 6.43650651e-01 6.19572997e-01 5.89065850e-01 5.52604735e-01 5.10849774e-01 4.64640796e-01 4.14968938e-01 3.62888604e-01 3.09252769e-01 2.53785521e-01 1.88691005e-01 1.03178039e-01 1.17373720e-01 6.14012219e-02 6.34215325e-02 1.91572607e-01 2.42564991e-01 2.88277686e-01 3.33855718e-01 3.79192889e-01 4.22993362e-01 4.63979751e-01 5.01135409e-01 5.33676505e-01 5.61002195e-01 5.82662821e-01 5.98339260e-01 6.07824504e-01 6.11005127e-01 6.07845664e-01 5.98382950e-01 5.82732439e-01 5.61104000e-01 5.33820629e-01 5.01335740e-01 4.64245826e-01 4.23297584e-01 3.79379153e-01 3.33461463e-01 2.86349714e-01 2.37844422e-01 1.80972725e-01 8.61450508e-02 9.94976908e-02 5.78161851e-02 6.08689636e-02 1.85400978e-01 2.29092583e-01 2.65714586e-01 3.03118855e-01 3.41331750e-01 3.78702015e-01 4.13835973e-01 4.45761681e-01 4.73780513e-01 4.97363806e-01 5.16105473e-01 5.29702485e-01 5.37945211e-01 5.40710986e-01 5.37959456e-01 5.29731154e-01 5.16149223e-01 4.97424990e-01 4.73864675e-01 4.45878953e-01 4.13995534e-01 3.78872484e-01 3.41292202e-01 3.02118093e-01 2.62099802e-01 2.20988855e-01 1.74069658e-01 8.31822380e-02 9.14463699e-02 5.37162758e-02 5.71247861e-02 1.81150004e-01 2.15889081e-01 2.42132500e-01 2.70957619e-01 3.01772863e-01 3.32332224e-01 3.61172765e-01 3.87430072e-01 4.10519212e-01 4.29994315e-01 4.45503056e-01 4.56774235e-01 4.63614941e-01 4.65909541e-01 4.63618815e-01 4.56779629e-01 4.45505410e-01 4.29987460e-01 4.10497636e-01 3.87394816e-01 3.61139834e-01 3.32321167e-01 3.01630825e-01 2.69612134e-01 2.36447111e-01 2.01568976e-01 1.62635416e-01 8.19872767e-02 8.83100182e-02 4.94169369e-02 5.23313358e-02 1.80100650e-01 2.02752143e-01 2.17922524e-01 2.38432974e-01 2.61752814e-01 2.85122633e-01 3.07256281e-01 3.27492625e-01 3.45367938e-01 3.60505641e-01 3.72597992e-01 3.81405532e-01 3.86757553e-01 3.88551116e-01 3.86750162e-01 3.81384492e-01 3.72549415e-01 3.60405892e-01 3.45182687e-01 3.27183038e-01 3.06805789e-01 2.84605473e-01 2.61374474e-01 2.37522572e-01 2.10530907e-01 1.78160876e-01 1.45495579e-01 8.10150355e-02 8.65845159e-02 4.71921787e-02 4.65261750e-02 1.82025895e-01 1.88982055e-01 1.94192171e-01 2.07205072e-01 2.22762853e-01 2.38449618e-01 2.53526717e-01 2.67543733e-01 2.80092359e-01 2.90818244e-01 2.99437881e-01 3.05739045e-01 3.09575289e-01 3.10859680e-01 3.09560627e-01 3.05699050e-01 2.99346864e-01 2.90626496e-01 2.79712290e-01 2.66837329e-01 2.52318233e-01 2.36644208e-01 2.20786199e-01 2.06641376e-01 1.90693423e-01 1.47805437e-01 1.11859493e-01 8.01597014e-02 8.56840834e-02 6.05537668e-02 4.52470146e-02 1.80343345e-01 1.75335810e-01 1.73067614e-01 1.78748384e-01 1.85919181e-01 1.93682671e-01 2.01795503e-01 2.09785223e-01 2.17182100e-01 2.23623499e-01 2.28853509e-01 2.32698545e-01 2.35046312e-01 2.35832363e-01 2.35032409e-01 2.32657805e-01 2.28752494e-01 2.23390087e-01 2.16670766e-01 2.08720312e-01 1.99701667e-01 1.89872503e-01 1.79816604e-01 1.71644017e-01 1.72332793e-01 1.58362776e-01 4.72101644e-02 6.31181672e-02 8.46147016e-02 2.74721831e-02 1.20049223e-01 1.79375142e-01 1.66047931e-01 1.53972283e-01 1.51619449e-01 1.51417330e-01 1.52818158e-01 1.55279517e-01 1.58174515e-01 1.61054745e-01 1.63644195e-01 1.65778518e-01 1.67359263e-01 1.68327779e-01 1.68651611e-01 1.68317571e-01 1.67327598e-01 1.65694803e-01 1.63437665e-01 1.60569474e-01 1.57080323e-01 1.52908370e-01 1.47894010e-01 1.41676813e-01 1.33609012e-01 1.26353487e-01 1.38382033e-01 1.26044244e-01 6.90968633e-02 9.98365358e-02 6.15947247e-02 4.36682701e-02 2.23149121e-01 1.48136064e-01 1.38528869e-01 1.32885233e-01 1.30158693e-01 1.28883272e-01 1.28283769e-01 1.28003031e-01 1.27873942e-01 1.27815932e-01 1.27790347e-01 1.27779245e-01 1.27774552e-01 1.27772778e-01 1.27772361e-01 1.27772316e-01 1.27771035e-01 1.27764523e-01 1.27742231e-01 1.27678186e-01 1.27511233e-01 1.27101496e-01 1.26122624e-01 1.23731136e-01 1.17652126e-01 1.07651271e-01 1.25513434e-01 3.22789431e-01 1.02312542e-01 
