# vtk DataFile Version 2.0
results/iter1.vtk, Created by Freefem++ 
ASCII
DATASET UNSTRUCTURED_GRID
POINTS 961 float
0 0 0
0.033333333 0 0
0.066666667 0 0
0.1 0 0
0.13333333 0 0
0.16666667 0 0
0.2 0 0
0.23333333 0 0
0.26666667 0 0
0.3 0 0
0.33333333 0 0
0.36666667 0 0
0.4 0 0
0.43333333 0 0
0.46666667 0 0
0.5 0 0
0.53333333 0 0
0.56666667 0 0
0.6 0 0
0.63333333 0 0
0.66666667 0 0
0.7 0 0
0.73333333 0 0
0.76666667 0 0
0.8 0 0
0.83333333 0 0
0.86666667 0 0
0.9 0 0
0.93333333 0 0
0.96666667 0 0
1 0 0
0 0.033333333 0
0.033333333 0.033333333 0
0.066666667 0.033333333 0
0.1 0.033333333 0
0.13333333 0.033333333 0
0.16666667 0.033333333 0
0.2 0.033333333 0
0.23333333 0.033333333 0
0.26666667 0.033333333 0
0.3 0.033333333 0
0.33333333 0.033333333 0
0.36666667 0.033333333 0
0.4 0.033333333 0
0.43333333 0.033333333 0
0.46666667 0.033333333 0
0.5 0.033333333 0
0.53333333 0.033333333 0
0.56666667 0.033333333 0
0.6 0.033333333 0
0.63333333 0.033333333 0
0.66666667 0.033333333 0
0.7 0.033333333 0
0.73333333 0.033333333 0
0.76666667 0.033333333 0
0.8 0.033333333 0
0.83333333 0.033333333 0
0.86666667 0.033333333 0
0.9 0.033333333 0
0.93333333 0.033333333 0
0.96666667 0.033333333 0
1 0.033333333 0
0 0.066666667 0
0.033333333 0.066666667 0
0.066666667 0.066666667 0
0.1 0.066666667 0
0.13333333 0.066666667 0
0.16666667 0.066666667 0
0.2 0.066666667 0
0.23333333 0.066666667 0
0.26666667 0.066666667 0
0.3 0.066666667 0
0.33333333 0.066666667 0
0.36666667 0.066666667 0
0.4 0.066666667 0
0.43333333 0.066666667 0
0.46666667 0.066666667 0
0.5 0.066666667 0
0.53333333 0.066666667 0
0.56666667 0.066666667 0
0.6 0.066666667 0
0.63333333 0.066666667 0
0.66666667 0.066666667 0
0.7 0.066666667 0
0.73333333 0.066666667 0
0.76666667 0.066666667 0
0.8 0.066666667 0
0.83333333 0.066666667 0
0.86666667 0.066666667 0
0.9 0.066666667 0
0.93333333 0.066666667 0
0.96666667 0.066666667 0
1 0.066666667 0
0 0.1 0
0.033333333 0.1 0
0.066666667 0.1 0
0.1 0.1 0
0.13333333 0.1 0
0.16666667 0.1 0
0.2 0.1 0
0.23333333 0.1 0
0.26666667 0.1 0
0.3 0.1 0
0.33333333 0.1 0
0.36666667 0.1 0
0.4 0.1 0
0.43333333 0.1 0
0.46666667 0.1 0
0.5 0.1 0
0.53333333 0.1 0
0.56666667 0.1 0
0.6 0.1 0
0.63333333 0.1 0
0.66666667 0.1 0
0.7 0.1 0
0.73333333 0.1 0
0.76666667 0.1 0
0.8 0.1 0
0.83333333 0.1 0
0.86666667 0.1 0
0.9 0.1 0
0.93333333 0.1 0
0.96666667 0.1 0
1 0.1 0
0 0.13333333 0
0.033333333 0.13333333 0
0.066666667 0.13333333 0
0.1 0.13333333 0
0.13333333 0.13333333 0
0.16666667 0.13333333 0
0.2 0.13333333 0
0.23333333 0.13333333 0
0.26666667 0.13333333 0
0.3 0.13333333 0
0.33333333 0.13333333 0
0.36666667 0.13333333 0
0.4 0.13333333 0
0.43333333 0.13333333 0
0.46666667 0.13333333 0
0.5 0.13333333 0
0.53333333 0.13333333 0
0.56666667 0.13333333 0
0.6 0.13333333 0
0.63333333 0.13333333 0
0.66666667 0.13333333 0
0.7 0.13333333 0
0.73333333 0.13333333 0
0.76666667 0.13333333 0
0.8 0.13333333 0
0.83333333 0.13333333 0
0.86666667 0.13333333 0
0.9 0.13333333 0
0.93333333 0.13333333 0
0.96666667 0.13333333 0
1 0.13333333 0
0 0.16666667 0
0.033333333 0.16666667 0
0.066666667 0.16666667 0
0.1 0.16666667 0
0.13333333 0.16666667 0
0.16666667 0.16666667 0
0.2 0.16666667 0
0.23333333 0.16666667 0
0.26666667 0.16666667 0
0.3 0.16666667 0
0.33333333 0.16666667 0
0.36666667 0.16666667 0
0.4 0.16666667 0
0.43333333 0.16666667 0
0.46666667 0.16666667 0
0.5 0.16666667 0
0.53333333 0.16666667 0
0.56666667 0.16666667 0
0.6 0.16666667 0
0.63333333 0.16666667 0
0.66666667 0.16666667 0
0.7 0.16666667 0
0.73333333 0.16666667 0
0.76666667 0.16666667 0
0.8 0.16666667 0
0.83333333 0.16666667 0
0.86666667 0.16666667 0
0.9 0.16666667 0
0.93333333 0.16666667 0
0.96666667 0.16666667 0
1 0.16666667 0
0 0.2 0
0.033333333 0.2 0
0.066666667 0.2 0
0.1 0.2 0
0.13333333 0.2 0
0.16666667 0.2 0
0.2 0.2 0
0.23333333 0.2 0
0.26666667 0.2 0
0.3 0.2 0
0.33333333 0.2 0
0.36666667 0.2 0
0.4 0.2 0
0.43333333 0.2 0
0.46666667 0.2 0
0.5 0.2 0
0.53333333 0.2 0
0.56666667 0.2 0
0.6 0.2 0
0.63333333 0.2 0
0.66666667 0.2 0
0.7 0.2 0
0.73333333 0.2 0
0.76666667 0.2 0
0.8 0.2 0
0.83333333 0.2 0
0.86666667 0.2 0
0.9 0.2 0
0.93333333 0.2 0
0.96666667 0.2 0
1 0.2 0
0 0.23333333 0
0.033333333 0.23333333 0
0.066666667 0.23333333 0
0.1 0.23333333 0
0.13333333 0.23333333 0
0.16666667 0.23333333 0
0.2 0.23333333 0
0.23333333 0.23333333 0
0.26666667 0.23333333 0
0.3 0.23333333 0
0.33333333 0.23333333 0
0.36666667 0.23333333 0
0.4 0.23333333 0
0.43333333 0.23333333 0
0.46666667 0.23333333 0
0.5 0.23333333 0
0.53333333 0.23333333 0
0.56666667 0.23333333 0
0.6 0.23333333 0
0.63333333 0.23333333 0
0.66666667 0.23333333 0
0.7 0.23333333 0
0.73333333 0.23333333 0
0.76666667 0.23333333 0
0.8 0.23333333 0
0.83333333 0.23333333 0
0.86666667 0.23333333 0
0.9 0.23333333 0
0.93333333 0.23333333 0
0.96666667 0.23333333 0
1 0.23333333 0
0 0.26666667 0
0.033333333 0.26666667 0
0.066666667 0.26666667 0
0.1 0.26666667 0
0.13333333 0.26666667 0
0.16666667 0.26666667 0
0.2 0.26666667 0
0.23333333 0.26666667 0
0.26666667 0.26666667 0
0.3 0.26666667 0
0.33333333 0.26666667 0
0.36666667 0.26666667 0
0.4 0.26666667 0
0.43333333 0.26666667 0
0.46666667 0.26666667 0
0.5 0.26666667 0
0.53333333 0.26666667 0
0.56666667 0.26666667 0
0.6 0.26666667 0
0.63333333 0.26666667 0
0.66666667 0.26666667 0
0.7 0.26666667 0
0.73333333 0.26666667 0
0.76666667 0.26666667 0
0.8 0.26666667 0
0.83333333 0.26666667 0
0.86666667 0.26666667 0
0.9 0.26666667 0
0.93333333 0.26666667 0
0.96666667 0.26666667 0
1 0.26666667 0
0 0.3 0
0.033333333 0.3 0
0.066666667 0.3 0
0.1 0.3 0
0.13333333 0.3 0
0.16666667 0.3 0
0.2 0.3 0
0.23333333 0.3 0
0.26666667 0.3 0
0.3 0.3 0
0.33333333 0.3 0
0.36666667 0.3 0
0.4 0.3 0
0.43333333 0.3 0
0.46666667 0.3 0
0.5 0.3 0
0.53333333 0.3 0
0.56666667 0.3 0
0.6 0.3 0
0.63333333 0.3 0
0.66666667 0.3 0
0.7 0.3 0
0.73333333 0.3 0
0.76666667 0.3 0
0.8 0.3 0
0.83333333 0.3 0
0.86666667 0.3 0
0.9 0.3 0
0.93333333 0.3 0
0.96666667 0.3 0
1 0.3 0
0 0.33333333 0
0.033333333 0.33333333 0
0.066666667 0.33333333 0
0.1 0.33333333 0
0.13333333 0.33333333 0
0.16666667 0.33333333 0
0.2 0.33333333 0
0.23333333 0.33333333 0
0.26666667 0.33333333 0
0.3 0.33333333 0
0.33333333 0.33333333 0
0.36666667 0.33333333 0
0.4 0.33333333 0
0.43333333 0.33333333 0
0.46666667 0.33333333 0
0.5 0.33333333 0
0.53333333 0.33333333 0
0.56666667 0.33333333 0
0.6 0.33333333 0
0.63333333 0.33333333 0
0.66666667 0.33333333 0
0.7 0.33333333 0
0.73333333 0.33333333 0
0.76666667 0.33333333 0
0.8 0.33333333 0
0.83333333 0.33333333 0
0.86666667 0.33333333 0
0.9 0.33333333 0
0.93333333 0.33333333 0
0.96666667 0.33333333 0
1 0.33333333 0
0 0.36666667 0
0.033333333 0.36666667 0
0.066666667 0.36666667 0
0.1 0.36666667 0
0.13333333 0.36666667 0
0.16666667 0.36666667 0
0.2 0.36666667 0
0.23333333 0.36666667 0
0.26666667 0.36666667 0
0.3 0.36666667 0
0.33333333 0.36666667 0
0.36666667 0.36666667 0
0.4 0.36666667 0
0.43333333 0.36666667 0
0.46666667 0.36666667 0
0.5 0.36666667 0
0.53333333 0.36666667 0
0.56666667 0.36666667 0
0.6 0.36666667 0
0.63333333 0.36666667 0
0.66666667 0.36666667 0
0.7 0.36666667 0
0.73333333 0.36666667 0
0.76666667 0.36666667 0
0.8 0.36666667 0
0.83333333 0.36666667 0
0.86666667 0.36666667 0
0.9 0.36666667 0
0.93333333 0.36666667 0
0.96666667 0.36666667 0
1 0.36666667 0
0 0.4 0
0.033333333 0.4 0
0.066666667 0.4 0
0.1 0.4 0
0.13333333 0.4 0
0.16666667 0.4 0
0.2 0.4 0
0.23333333 0.4 0
0.26666667 0.4 0
0.3 0.4 0
0.33333333 0.4 0
0.36666667 0.4 0
0.4 0.4 0
0.43333333 0.4 0
0.46666667 0.4 0
0.5 0.4 0
0.53333333 0.4 0
0.56666667 0.4 0
0.6 0.4 0
0.63333333 0.4 0
0.66666667 0.4 0
0.7 0.4 0
0.73333333 0.4 0
0.76666667 0.4 0
0.8 0.4 0
0.83333333 0.4 0
0.86666667 0.4 0
0.9 0.4 0
0.93333333 0.4 0
0.96666667 0.4 0
1 0.4 0
0 0.43333333 0
0.033333333 0.43333333 0
0.066666667 0.43333333 0
0.1 0.43333333 0
0.13333333 0.43333333 0
0.16666667 0.43333333 0
0.2 0.43333333 0
0.23333333 0.43333333 0
0.26666667 0.43333333 0
0.3 0.43333333 0
0.33333333 0.43333333 0
0.36666667 0.43333333 0
0.4 0.43333333 0
0.43333333 0.43333333 0
0.46666667 0.43333333 0
0.5 0.43333333 0
0.53333333 0.43333333 0
0.56666667 0.43333333 0
0.6 0.43333333 0
0.63333333 0.43333333 0
0.66666667 0.43333333 0
0.7 0.43333333 0
0.73333333 0.43333333 0
0.76666667 0.43333333 0
0.8 0.43333333 0
0.83333333 0.43333333 0
0.86666667 0.43333333 0
0.9 0.43333333 0
0.93333333 0.43333333 0
0.96666667 0.43333333 0
1 0.43333333 0
0 0.46666667 0
0.033333333 0.46666667 0
0.066666667 0.46666667 0
0.1 0.46666667 0
0.13333333 0.46666667 0
0.16666667 0.46666667 0
0.2 0.46666667 0
0.23333333 0.46666667 0
0.26666667 0.46666667 0
0.3 0.46666667 0
0.33333333 0.46666667 0
0.36666667 0.46666667 0
0.4 0.46666667 0
0.43333333 0.46666667 0
0.46666667 0.46666667 0
0.5 0.46666667 0
0.53333333 0.46666667 0
0.56666667 0.46666667 0
0.6 0.46666667 0
0.63333333 0.46666667 0
0.66666667 0.46666667 0
0.7 0.46666667 0
0.73333333 0.46666667 0
0.76666667 0.46666667 0
0.8 0.46666667 0
0.83333333 0.46666667 0
0.86666667 0.46666667 0
0.9 0.46666667 0
0.93333333 0.46666667 0
0.96666667 0.46666667 0
1 0.46666667 0
0 0.5 0
0.033333333 0.5 0
0.066666667 0.5 0
0.1 0.5 0
0.13333333 0.5 0
0.16666667 0.5 0
0.2 0.5 0
0.23333333 0.5 0
0.26666667 0.5 0
0.3 0.5 0
0.33333333 0.5 0
0.36666667 0.5 0
0.4 0.5 0
0.43333333 0.5 0
0.46666667 0.5 0
0.5 0.5 0
0.53333333 0.5 0
0.56666667 0.5 0
0.6 0.5 0
0.63333333 0.5 0
0.66666667 0.5 0
0.7 0.5 0
0.73333333 0.5 0
0.76666667 0.5 0
0.8 0.5 0
0.83333333 0.5 0
0.86666667 0.5 0
0.9 0.5 0
0.93333333 0.5 0
0.96666667 0.5 0
1 0.5 0
0 0.53333333 0
0.033333333 0.53333333 0
0.066666667 0.53333333 0
0.1 0.53333333 0
0.13333333 0.53333333 0
0.16666667 0.53333333 0
0.2 0.53333333 0
0.23333333 0.53333333 0
0.26666667 0.53333333 0
0.3 0.53333333 0
0.33333333 0.53333333 0
0.36666667 0.53333333 0
0.4 0.53333333 0
0.43333333 0.53333333 0
0.46666667 0.53333333 0
0.5 0.53333333 0
0.53333333 0.53333333 0
0.56666667 0.53333333 0
0.6 0.53333333 0
0.63333333 0.53333333 0
0.66666667 0.53333333 0
0.7 0.53333333 0
0.73333333 0.53333333 0
0.76666667 0.53333333 0
0.8 0.53333333 0
[...]
CELL_DATA 1920
Scalars  Label int 1
LOOKUP_TABLE FreeFempp_table
0
0
0
0
0
0
0
0
0
0
0
0
0
0
0
0
0
0
0
0
0
0
0
0
0
0
0
0
0
0
0
0
0
0
0
0
0
0
0
0
0
0
0
0
0
0
0
0
0
0
0
0
0
0
0
0
0
0
0
0
0
0
0
0
0
0
0
0
0
0
0
0
0
0
0
0
0
0
0
0
0
0
0
0
0
0
0
0
0
0
0
0
0
0
0
0
0
0
0
0
0
0
0
0
0
0
0
0
0
0
0
0
0
0
0
0
0
0
0
0
0
0
0
0
0
0
0
0
0
0
0
0
0
0
0
0
0
0
0
0
0
0
0
0
0
0
0
0
0
0
0
0
0
0
0
0
0
0
0
0
0
0
0
0
0
0
0
0
0
0
0
0
0
0
0
0
0
0
0
0
0
0
0
0
0
0
0
0
0
0
0
0
0
0
0
0
0
0
0
0
0
0
0
0
0
0
0
0
0
0
0
0
0
0
0
0
0
0
0
0
0
0
0
0
0
0
0
0
0
0
0
0
0
0
0
0
0
0
0
0
0
0
0
0
0
0
0
0
0
0
0
0
0
0
0
0
0
0
0
0
0
0
0
0
0
0
0
0
0
0
0
0
0
0
0
0
0
0
0
0
0
0
0
0
0
0
0
0
0
0
0
0
0
0
0
0
0
0
0
0
0
0
0
0
0
0
0
0
0
0
0
0
0
0
0
0
0
0
0
0
0
0
0
0
0
0
0
0
0
0
0
0
0
0
0
0
0
0
0
0
0
0
0
0
0
0
0
0
0
0
0
0
0
0
0
0
0
0
0
0
0
0
0
0
0
0
0
0
0
0
0
0
0
0
0
0
0
0
0
0
0
0
0
0
0
0
0
0
0
0
0
0
0
0
0
0
0
0
0
0
0
0
0
0
0
0
0
0
0
0
0
0
0
0
0
0
0
0
0
0
0
0
0
0
0
0
0
0
0
0
0
0
0
0
0
0
0
0
0
0
0
0
0
0
0
0
0
0
0
0
0
0
0
0
0
0
0
0
0
0
0
0
0
0
0
0
0
0
0
0
0
0
0
0
0
0
0
0
0
0
0
0
0
0
0
0
0
0
0
0
0
0
0
0
0
0
0
0
0
0
0
0
0
0
0
0
0
0
0
0
0
0
0
0
0
0
0
0
0
0
0
0
0
0
0
0
0
0
0
0
0
0
0
0
0
0
0
0
0
0
0
0
0
0
0
0
0
0
0
0
0
0
0
0
0
0
0
0
0
0
0
0
0
0
0
0
0
0
0
0
0
0
0
0
0
0
0
0
0
0
0
0
0
0
0
0
0
0
0
0
0
0
0
0
0
0
0
0
0
0
0
0
0
0
0
0
0
0
0
0
0
0
0
0
0
0
0
0
0
0
0
0
0
0
0
0
0
0
0
0
0
0
0
0
0
0
0
0
0
0
0
0
0
0
0
0
0
0
0
0
0
0
0
0
0
0
0
0
0
0
0
0
0
0
0
0
0
0
0
0
0
0
0
0
0
0
0
0
0
0
0
0
0
0
0
0
0
0
0
0
0
0
0
0
0
0
0
0
0
0
0
0
0
0
0
0
0
0
0
0
0
0
0
0
0
0
0
0
0
0
0
0
0
0
0
0
0
0
0
0
0
0
0
0
0
0
0
0
0
0
0
0
0
0
0
0
0
0
0
0
0
0
0
0
0
0
0
0
0
0
0
0
0
0
0
0
0
0
0
0
0
0
0
0
0
0
0
0
0
0
0
0
0
0
0
0
0
0
0
0
0
0
0
0
0
0
0
0
0
0
0
0
0
0
0
0
0
0
0
0
0
0
0
0
0
0
0
0
0
0
0
0
0
0
0
0
0
0
0
0
0
0
0
0
0
0
0
0
0
0
0
0
0
0
0
0
0
0
0
0
0
0
0
0
0
0
0
0
0
0
0
0
0
0
0
0
0
0
0
0
0
0
0
0
0
0
0
0
0
0
0
0
0
0
0
0
0
0
0
0
0
0
0
0
0
0
0
0
0
0
0
0
0
0
0
0
0
0
0
0
0
0
0
0
0
0
0
0
0
0
0
0
0
0
0
0
0
0
0
0
0
0
0
0
0
0
0
0
0
0
0
0
0
0
0
0
0
0
0
0
0
0
0
0
0
0
0
0
0
0
0
0
0
0
0
0
0
0
0
0
0
0
0
0
0
0
0
0
0
0
0
0
0
0
0
0
0
0
0
0
0
0
0
0
0
0
0
0
0
0
0
0
0
0
0
0
0
0
0
0
0
0
0
0
0
0
0
0
0
0
0
0
0
0
0
0
0
0
0
0
0
0
0
0
0
0
0
0
0
0
0
0
0
0
0
0
0
0
0
0
0
0
0
0
0
0
0
0
0
0
0
0
0
0
0
0
0
0
0
0
0
0
0
0
0
0
0
0
0
0
0
0
0
0
0
0
0
0
0
0
0
0
0
0
0
0
0
0
0
0
0
0
0
0
0
0
0
0
0
0
0
0
0
0
0
0
0
0
0
0
0
0
0
0
0
0
0
0
0
0
0
0
0
0
0
0
0
0
0
0
0
0
0
0
0
0
0
0
0
0
0
0
0
0
0
0
0
0
0
0
0
0
0
0
0
0
0
0
0
0
0
0
0
0
0
0
0
0
0
0
0
0
0
0
0
0
0
0
0
0
0
0
0
0
0
0
0
0
0
0
0
0
0
0
0
0
0
0
0
0
0
0
0
0
0
0
0
0
0
0
0
0
0
0
0
0
0
0
0
0
0
0
0
0
0
0
0
0
0
0
0
0
0
0
0
0
0
0
0
0
0
0
0
0
0
0
0
0
0
0
0
0
0
0
0
0
0
0
0
0
0
0
0
0
0
0
0
0
0
0
0
0
0
0
0
0
0
0
0
0
0
0
0
0
0
0
0
0
0
0
0
0
0
0
0
0
0
0
0
0
0
0
0
0
0
0
0
0
0
0
0
0
0
0
0
0
0
0
0
0
0
0
0
0
0
0
0
0
0
0
0
0
0
0
0
0
0
0
0
0
0
0
0
0
0
0
0
0
0
0
0
0
0
0
0
0
0
0
0
0
0
0
0
0
0
0
0
0
0
0
0
0
0
0
0
0
0
0
0
0
0
0
0
0
0
0
0
0
0
0
0
0
0
0
0
0
0
0
0
0
0
0
0
0
0
0
0
0
0
0
0
0
0
0
0
0
0
0
0
0
0
0
0
0
0
0
0
0
0
0
0
0
0
0
0
0
0
0
0
0
0
0
0
0
0
0
0
0
0
0
0
0
0
0
0
0
0
0
0
0
0
0
0
0
0
0
0
0
0
0
0
0
0
0
0
0
0
0
0
0
0
0
0
0
0
0
0
0
0
0
0
0
0
0
0
0
0
0
0
0
0
0
0
0
0
0
0
0
0
0
0
0
0
0
0
0
0
0
0
0
0
0
0
0
0
0
0
0
0
0
0
0
0
0
0
0
0
0
0
0
0
0
0
0
0
0
0
0
0
0
0
0
0
0
0
0
0
0
0
0
0
0
0
0
0
0
0
0
0
0
0
0
0
0
0
0
0
0
0
0
0
0
0
0
0
0
0
0
0
0
0
0
0
0
0
0
0
0
0
0
0
0
0
0
0
0
0
0
0
0
0
0
0
0
0
0
0
0
0
0
0
0
0
0
0
0
0
0
0
0
0
0
0
0
0
0
0
0
0
0
0
0
0
0
0
0
0
0
0
0
0
0
0
0
0
0
0
0
0
0
0
0
0
0
0
0
0
0
0
0
0
0
0
0
0
0
0
0
0
0
0
0
0
0
0
0
0
0
0
0
0
0
0
0
0
0
0
0
0
0
0
0
0
0
0
0
0
0
0
0
0
0
0
0
0
0
0
0
0
0
0
0
0
0
0
0
0
0
0
0
0
0
0
0
0
0
0
0
0
0
0
0
0
0
0
0
0
0
0
0
0
0
0
0
0
0
0
0
0
0
0
0
0
0
0
0
0
0
0
0
0
0
0
0
0
0
0
0
0
0
0
0
0
0
0
0
0
0
0
0
1
1
1
1
1
1
1
1
1
1
1
1
1
1
1
1
1
1
1
1
1
1
1
1
1
1
1
1
1
1
2
2
2
2
2
2
2
2
2
2
2
2
2
2
2
2
2
2
2
2
2
2
2
2
2
2
2
2
2
2
3
3
3
3
3
3
3
3
3
3
3
3
3
3
3
3
3
3
3
3
3
3
3
3
3
3
3
3
3
3
4
4
4
4
4
4
4
4
4
4
4
4
4
4
4
4
4
4
4
4
4
4
4
4
4
4
4
4
4
4

LOOKUP_TABLE FreeFempp_table 5
1.00000000 0.00000000 0.00000000 1.00000000
1.00000000 1.00000000 0.00000000 1.00000000
1.00000000 0.00000000 1.00000000 1.00000000
0.00000000 1.00000000 0.00000000 1.00000000
0.00000000 1.00000000 1.00000000 1.00000000

POINT_DATA 961
FIELD FieldData 1
Density 1 961 float
1.55501682e-02 1.33091370e-02 1.65850613e-02 1.96963344e-02 2.21376847e-02 2.46557575e-02 2.75323763e-02 3.08632776e-02 3.46723050e-02 3.89326923e-02 4.35695723e-02 4.84607778e-02 5.34400195e-02 5.83034381e-02 6.28194138e-02 6.67412803e-02 6.98223487e-02 7.18328282e-02 7.25780353e-02 7.19176903e-02 6.97854161e-02 6.62077516e-02 6.13201931e-02 5.53757586e-02 4.87348661e-02 4.18062955e-02 3.47423851e-02 2.57477276e-02 1.51428264e-02 1.41400760e-02 2.99651772e-02 1.17934356e-02 7.73560023e-03 1.20669417e-02 1.70889739e-02 2.01954842e-02 2.40253583e-02 3.02261338e-02 3.98265161e-02 5.27960919e-02 6.82761595e-02 8.51149932e-02 1.02210157e-01 1.18623435e-01 1.33583158e-01 1.46453768e-01 1.56705379e-01 1.63892493e-01 1.67642891e-01 1.67656362e-01 1.63712710e-01 1.55691639e-01 1.43609807e-01 1.27687916e-01 1.08470455e-01 8.70206282e-02 6.51358813e-02 4.51561622e-02 2.74009127e-02 1.10149058e-02 6.54520653e-03 1.38095394e-02 1.36116603e-02 9.68560856e-03 2.27522105e-02 4.90534678e-02 7.38923624e-02 9.54072773e-02 1.14999935e-01 1.33112758e-01 1.49780676e-01 1.64888084e-01 1.78278193e-01 1.89792484e-01 1.99285030e-01 2.06627980e-01 2.11713895e-01 2.14456737e-01 2.14792490e-01 2.12679431e-01 2.08099097e-01 2.01057360e-01 1.91586107e-01 1.79744899e-01 1.65621847e-01 1.49329856e-01 1.30988017e-01 1.10659517e-01 8.81753340e-02 6.22807145e-02 2.38598492e-02 6.47128467e-03 1.11299455e-02 1.65979229e-02 1.41493510e-02 4.90888208e-02 9.15097296e-02 1.23449981e-01 1.52306393e-01 1.79134205e-01 2.03947037e-01 2.26578221e-01 2.46810883e-01 2.64424920e-01 2.79219359e-01 2.91021705e-01 2.99692333e-01 3.05126399e-01 3.07255000e-01 3.06045294e-01 3.01500708e-01 2.93660581e-01 2.82600015e-01 2.68429130e-01 2.51292169e-01 2.31365532e-01 2.08853409e-01 1.83975816e-01 1.56938389e-01 1.27810389e-01 9.58523899e-02 4.99417596e-02 9.53711197e-03 1.12705212e-02 1.94636863e-02 1.80881582e-02 7.46695176e-02 1.23716906e-01 1.63373306e-01 2.00641096e-01 2.35740930e-01 2.68316239e-01 2.97999322e-01 3.24457645e-01 3.47396046e-01 3.66558909e-01 3.81732702e-01 3.92748475e-01 3.99483383e-01 4.01861787e-01 3.99855554e-01 3.93484086e-01 3.82814080e-01 3.67959023e-01 3.49078119e-01 3.26374978e-01 3.00095916e-01 2.70527899e-01 2.37994760e-01 2.02841535e-01 1.65346548e-01 1.25134662e-01 7.22913146e-02 1.16518168e-02 1.18751675e-02 2.21352037e-02 2.21760310e-02 9.59807038e-02 1.52349576e-01 2.00539708e-01 2.46255741e-01 2.89412469e-01 3.29503566e-01 3.66036206e-01 3.98579240e-01 4.26761746e-01 4.50269520e-01 4.68844265e-01 4.82284009e-01 4.90443885e-01 4.93236423e-01 4.90631610e-01 4.82656807e-01 4.69396651e-01 4.50992823e-01 4.27643627e-01 3.99603218e-01 3.67180496e-01 3.30738485e-01 2.90691793e-01 2.47492164e-01 2.01540872e-01 1.52623594e-01 9.20315608e-02 1.22269588e-02 1.26814432e-02 2.45876815e-02 2.74072308e-02 1.14855640e-01 1.78852022e-01 2.35472664e-01 2.89280683e-01 3.40057969e-01 3.87219757e-01 4.30189699e-01 4.68456715e-01 5.01580894e-01 5.29192269e-01 5.50989389e-01 5.66739321e-01 5.76276720e-01 5.79503119e-01 5.76385677e-01 5.66956758e-01 5.51314414e-01 5.29622912e-01 5.02113938e-01 4.69086289e-01 4.30905402e-01 3.88001978e-01 3.40867132e-01 2.90031850e-01 2.35970512e-01 1.78554431e-01 1.10072121e-01 1.22100692e-02 1.37455026e-02 2.67222337e-02 3.39081623e-02 1.31952018e-01 2.03321204e-01 2.67885417e-01 3.29254538e-01 3.87111962e-01 4.40816373e-01 4.89727557e-01 5.33268690e-01 5.70939958e-01 6.02321863e-01 6.27076089e-01 6.44945145e-01 6.55750036e-01 6.59386277e-01 6.55819714e-01 6.45084977e-01 6.27286911e-01 6.02604687e-01 5.71295023e-01 5.33694148e-01 4.90216821e-01 4.41353112e-01 3.87659401e-01 3.29731643e-01 2.68102825e-01 2.02721223e-01 1.26689851e-01 1.22767594e-02 1.50026623e-02 2.84371730e-02 4.11606394e-02 1.47358790e-01 2.25581363e-01 2.97408372e-01 3.65683556e-01 4.29993391e-01 4.89642560e-01 5.43935001e-01 5.92236519e-01 6.33994341e-01 6.68746114e-01 6.96125269e-01 7.15862095e-01 7.27778554e-01 7.31776714e-01 7.27826178e-01 7.15958297e-01 6.96271837e-01 6.68945193e-01 6.34247601e-01 5.92543721e-01 5.44291139e-01 4.90033001e-01 4.30384398e-01 3.66000384e-01 2.97472835e-01 2.24839315e-01 1.41941577e-01 1.34312492e-02 1.64470319e-02 2.96547804e-02 4.82155085e-02 1.60964608e-01 2.45404467e-01 3.23701262e-01 3.98130208e-01 4.68184650e-01 5.33113778e-01 5.92167914e-01 6.44658208e-01 6.89980865e-01 7.27633595e-01 7.57229805e-01 7.78506875e-01 7.91318476e-01 7.95604944e-01 7.91352391e-01 7.78575897e-01 7.57336378e-01 7.27780581e-01 6.90170646e-01 6.44891262e-01 5.92440248e-01 5.33412695e-01 4.68480349e-01 3.98356110e-01 3.23694468e-01 2.44636372e-01 1.55737728e-01 1.65884830e-02 1.80678722e-02 3.03287618e-02 5.40657863e-02 1.72615930e-01 2.62568027e-01 3.46467555e-01 4.26221162e-01 5.01242459e-01 5.70726037e-01 6.33868396e-01 6.89923704e-01 7.38230944e-01 7.78239489e-01 8.09543431e-01 8.31913412e-01 8.45297754e-01 8.49753439e-01 8.45322013e-01 8.31963718e-01 8.09622705e-01 7.78351367e-01 7.38378406e-01 6.90107763e-01 6.34086132e-01 5.70967019e-01 5.01481652e-01 4.26401824e-01 3.46446931e-01 2.61869550e-01 1.67927101e-01 2.20024288e-02 1.98389739e-02 3.04454770e-02 5.79385124e-02 1.82174310e-01 2.76876390e-01 3.65455538e-01 4.49643850e-01 5.28796613e-01 6.02058470e-01 6.68572009e-01 7.27527976e-01 7.78190672e-01 8.19933116e-01 8.52299154e-01 8.75107229e-01 8.88525844e-01 8.92935574e-01 8.88542712e-01 8.75143230e-01 8.52358401e-01 8.20020020e-01 7.78308630e-01 7.27678537e-01 6.68753564e-01 6.02263331e-01 5.29005349e-01 4.49811012e-01 3.65464270e-01 2.76329756e-01 1.78344145e-01 2.92218942e-02 2.17149854e-02 3.00208200e-02 5.93776368e-02 1.89532697e-01 2.88169116e-01 3.80459219e-01 4.68144238e-01 5.50547659e-01 6.26773238e-01 6.95911646e-01 7.57083356e-01 8.09453070e-01 8.52257609e-01 8.84896398e-01 9.07192111e-01 9.19736087e-01 9.23707247e-01 9.19746995e-01 9.07216787e-01 8.84940326e-01 8.52325916e-01 8.09549630e-01 7.57210433e-01 6.96069181e-01 6.26956701e-01 5.50743937e-01 4.68320817e-01 3.80530626e-01 2.87843138e-01 1.86831087e-01 3.73856351e-02 2.36297939e-02 2.90940721e-02 5.82054295e-02 1.94618627e-01 2.96324849e-01 3.91319960e-01 4.81526494e-01 5.66265941e-01 6.44614220e-01 7.15617836e-01 7.78326809e-01 8.31788123e-01 8.75031233e-01 9.07158792e-01 9.27862346e-01 9.38590705e-01 9.41926062e-01 9.38597322e-01 9.27878857e-01 9.07191277e-01 8.75085533e-01 8.31868768e-01 7.78436959e-01 7.15759337e-01 6.44786298e-01 5.66462338e-01 4.81729120e-01 3.91479284e-01 2.96272874e-01 1.93248376e-01 4.55063581e-02 2.54956093e-02 2.77207401e-02 5.44595309e-02 1.97394401e-01 3.01263481e-01 3.97928268e-01 4.89653498e-01 5.75790346e-01 6.55404270e-01 7.27512777e-01 7.91111469e-01 8.45142782e-01 8.88420641e-01 9.19676363e-01 9.38566923e-01 9.49181616e-01 9.49836373e-01 9.49185669e-01 9.38578486e-01 9.19701278e-01 8.88464749e-01 8.45211267e-01 7.91208923e-01 7.27643490e-01 6.55571580e-01 5.75995505e-01 4.89893645e-01 3.98192972e-01 3.01520973e-01 1.97479829e-01 5.26269674e-02 2.72024330e-02 2.59663556e-02 4.83502187e-02 1.97857618e-01 3.02947879e-01 4.00225163e-01 4.92447078e-01 5.79027057e-01 6.59040749e-01 7.31498837e-01 7.95376301e-01 8.49571764e-01 8.92802715e-01 9.23622429e-01 9.41881597e-01 9.49817479e-01 9.49814439e-01 9.49821234e-01 9.41891193e-01 9.23642635e-01 8.92839491e-01 8.49630833e-01 7.95463979e-01 7.31622219e-01 6.59207761e-01 5.79246581e-01 4.92732078e-01 4.00605083e-01 3.03530484e-01 1.99435472e-01 5.78814186e-02 2.86188163e-02 2.39026956e-02 4.02523763e-02 1.96043238e-01 3.01385641e-01 3.98203462e-01 4.89888340e-01 5.75948536e-01 6.55491412e-01 7.27545440e-01 7.91106582e-01 8.45114529e-01 8.88380170e-01 9.19632792e-01 9.38526869e-01 9.49147344e-01 9.49801862e-01 9.49150801e-01 9.38535631e-01 9.19650137e-01 8.88411462e-01 8.45166147e-01 7.91186512e-01 7.27663815e-01 6.55660808e-01 5.76185763e-01 4.90221709e-01 3.98700744e-01 3.02287698e-01 1.99054152e-01 6.05183356e-02 2.95957513e-02 2.16071736e-02 3.07379682e-02 1.92027345e-01 2.96631187e-01 3.91908824e-01 4.82017905e-01 5.66592932e-01 6.44792497e-01 7.15683937e-01 7.78316736e-01 8.31730902e-01 8.74948740e-01 9.07067657e-01 9.27773952e-01 9.38509345e-01 9.41847324e-01 9.38512325e-01 9.27781343e-01 9.07082319e-01 8.74975383e-01 8.31776142e-01 7.78390229e-01 7.15798557e-01 6.44965529e-01 5.66848814e-01 4.82399404e-01 3.92518014e-01 2.97824860e-01 1.96307078e-01 5.99335469e-02 2.99760532e-02 1.91652011e-02 2.06503756e-02 1.85932815e-01 2.88787812e-01 3.81440192e-01 4.68935341e-01 5.51063657e-01 6.27050400e-01 6.96013272e-01 7.57068336e-01 8.09367001e-01 8.52133036e-01 8.84755492e-01 9.07048702e-01 9.19595420e-01 9.23565805e-01 9.19597447e-01 9.07054305e-01 8.84766996e-01 8.52154732e-01 8.09405923e-01 7.57135272e-01 6.96123838e-01 6.27226233e-01 5.51336765e-01 4.69361156e-01 3.82148474e-01 2.90223598e-01 1.91204146e-01 5.57528399e-02 2.96116564e-02 1.66737586e-02 1.11986510e-02 1.77935451e-01 2.78008699e-01 3.66948903e-01 4.50797766e-01 5.29529274e-01 6.02444053e-01 6.68711722e-01 7.27509201e-01 7.78077900e-01 8.19769740e-01 8.52112353e-01 8.74912083e-01 8.88327777e-01 8.92732382e-01 8.88329089e-01 8.74915898e-01 8.52120757e-01 8.19786608e-01 7.78110325e-01 7.27568686e-01 6.68816149e-01 6.02619708e-01 5.29815316e-01 4.51260567e-01 3.67737293e-01 2.79618502e-01 1.83804929e-01 4.80153412e-02 2.83905137e-02 1.42408879e-02 3.96199478e-03 1.68267593e-01 2.64495790e-01 3.48635525e-01 4.27816361e-01 5.02221942e-01 5.71228385e-01 6.34047866e-01 6.89903259e-01 7.38095999e-01 7.78044462e-01 8.09320092e-01 8.31677854e-01 8.45055044e-01 8.49501610e-01 8.45056355e-01 8.31681192e-01 8.09326947e-01 7.78057933e-01 7.38122404e-01 6.89954162e-01 6.34142876e-01 5.71398318e-01 5.02513647e-01 4.28305656e-01 3.49480927e-01 2.66199827e-01 1.74236909e-01 3.75045650e-02 2.62721628e-02 1.19703440e-02 4.87711310e-04 1.57213911e-01 2.48493299e-01 3.26742440e-01 4.00250942e-01 4.69435960e-01 5.33736050e-01 5.92387080e-01 6.44639373e-01 6.89831316e-01 7.27417588e-01 7.56982565e-01 7.78244853e-01 7.91046202e-01 7.95319617e-01 7.91048765e-01 7.78250158e-01 7.56991029e-01 7.27430820e-01 6.89853847e-01 6.44681394e-01 5.92468679e-01 5.33892274e-01 4.69722062e-01 4.00753021e-01 3.27620804e-01 2.50212044e-01 1.62722692e-01 2.61316039e-02 2.33256593e-02 9.91978496e-03 1.05535879e-03 1.45097166e-01 2.30275139e-01 3.01542312e-01 3.68404031e-01 4.31528002e-01 4.90381479e-01 5.44194520e-01 5.92227221e-01 6.33843064e-01 6.68523967e-01 6.95868731e-01 7.15587020e-01 7.27488518e-01 7.31468499e-01 7.27493882e-01 7.15597391e-01 6.95883274e-01 6.68542206e-01 6.33866489e-01 5.92262447e-01 5.44259429e-01 4.90513176e-01 4.31791544e-01 3.68900180e-01 3.02431464e-01 2.31944218e-01 1.49613723e-01 1.67111214e-02 1.97543930e-02 8.05338100e-03 3.38059384e-03 1.32275090e-01 2.10135460e-01 2.73327798e-01 3.32621634e-01 3.88925940e-01 4.41670567e-01 4.90040153e-01 5.33291340e-01 5.70811868e-01 6.02115452e-01 6.26826346e-01 6.44666672e-01 6.55446231e-01 6.59054816e-01 6.55456007e-01 6.44685388e-01 6.26852334e-01 6.02146029e-01 5.70844531e-01 5.33326447e-01 4.90088195e-01 4.41764921e-01 3.89140069e-01 3.33081007e-01 2.74206996e-01 2.11716622e-01 1.35418266e-01 1.10102268e-02 1.58817936e-02 6.29575225e-03 4.56925668e-03 1.19227052e-01 1.88426971e-01 2.42425188e-01 2.93317407e-01 3.42157871e-01 3.88223588e-01 4.30610418e-01 4.68569756e-01 5.01524866e-01 5.29034317e-01 5.50761282e-01 5.66455603e-01 5.75943530e-01 5.79122543e-01 5.75958788e-01 5.66485465e-01 5.50804019e-01 5.29086113e-01 5.01579463e-01 4.68619227e-01 4.30650711e-01 3.88271153e-01 3.42282027e-01 2.93678284e-01 2.43261054e-01 1.89914986e-01 1.20908998e-01 7.94378482e-03 1.20711522e-02 4.89760423e-03 4.84136771e-03 1.06814221e-01 1.65708348e-01 2.09266275e-01 2.51048863e-01 2.91918308e-01 3.30818862e-01 3.66729438e-01 3.98918390e-01 4.26870018e-01 4.50205952e-01 4.68640566e-01 4.81960416e-01 4.90015835e-01 4.92717803e-01 4.90036875e-01 4.82002616e-01 4.68703598e-01 4.50287461e-01 4.26963061e-01 3.99007976e-01 3.66791636e-01 3.30832005e-01 2.91907609e-01 2.51185209e-01 2.09938884e-01 1.67153299e-01 1.07408747e-01 6.18728576e-03 8.58440157e-03 3.51928384e-03 4.80189594e-03 9.61676016e-02 1.42745003e-01 1.74513862e-01 2.06681415e-01 2.39193574e-01 2.70463198e-01 2.99389690e-01 3.25320542e-01 3.47838193e-01 3.66642982e-01 3.81505430e-01 3.92250210e-01 3.98752183e-01 4.00936276e-01 3.98778021e-01 3.92303526e-01 3.81589055e-01 3.66759479e-01 3.47986370e-01 3.25487614e-01 2.99537718e-01 2.70515412e-01 2.39052594e-01 2.06374586e-01 1.74561694e-01 1.43974975e-01 9.67306569e-02 5.49224857e-03 5.72582986e-03 2.36243452e-03 3.19650979e-03 8.74534473e-02 1.19747460e-01 1.39263973e-01 1.61721095e-01 1.85475513e-01 2.08491638e-01 2.29794085e-01 2.48912677e-01 2.65552253e-01 2.79484838e-01 2.90523529e-01 2.98519880e-01 3.03366393e-01 3.04998368e-01 3.03395152e-01 2.98580766e-01 2.90623486e-01 2.79634655e-01 2.65764922e-01 2.49196008e-01 2.30126858e-01 2.08766401e-01 1.85402676e-01 1.60809666e-01 1.37593657e-01 1.20225489e-01 9.07319188e-02 3.65737244e-03 3.41802323e-03 8.06947704e-04 2.83037196e-03 7.93838426e-02 9.60744098e-02 1.05668753e-01 1.18888065e-01 1.33003101e-01 1.46664053e-01 1.59456238e-01 1.71135440e-01 1.81467533e-01 1.90233126e-01 1.97245702e-01 2.02360049e-01 2.05474079e-01 2.06528053e-01 2.05503568e-01 2.02423528e-01 1.97353363e-01 1.90403298e-01 1.81730360e-01 1.71535224e-01 1.60039693e-01 1.47412255e-01 1.33605048e-01 1.18258208e-01 1.02062047e-01 9.40607041e-02 8.92379954e-02 2.36071227e-03 1.61628122e-03 1.93620726e-04 1.00503257e-03 8.10903311e-02 7.86632597e-02 7.93575346e-02 8.21010023e-02 8.46906453e-02 8.77257437e-02 9.13325697e-02 9.52246338e-02 9.90481302e-02 1.02509089e-01 1.05392024e-01 1.07548550e-01 1.08883180e-01 1.09343171e-01 1.08912840e-01 1.07612051e-01 1.05498701e-01 1.02675624e-01 9.93032157e-02 9.56183374e-02 9.19565260e-02 8.87562260e-02 8.64679813e-02 8.51878524e-02 8.40226412e-02 8.39302242e-02 1.22789882e-01 1.27031421e-03 1.58072740e-04 8.78730323e-03 7.38493772e-03 9.00820419e-02 6.14334755e-02 5.82090355e-02 5.47182411e-02 5.13899028e-02 4.90944907e-02 4.77030352e-02 4.68840972e-02 4.63962294e-02 4.60987426e-02 4.59144302e-02 4.58013415e-02 4.57368866e-02 4.57096100e-02 4.57153022e-02 4.57556508e-02 4.58387546e-02 4.59818393e-02 4.62173074e-02 4.66051288e-02 4.72574681e-02 4.83859926e-02 5.03800064e-02 5.38699068e-02 5.94772212e-02 6.61181062e-02 7.76355788e-02 1.20588904e-02 9.50788322e-04 
