# vtk DataFile Version 2.0
results/iter3.vtk, Created by Freefem++ 
ASCII
DATASET UNSTRUCTURED_GRID
POINTS 961 float
0 0 0
0.033333333 0 0
0.066666667 0 0
0.1 0 0
0.13333333 0 0
0.16666667 0 0
0.2 0 0
0.23333333 0 0
0.26666667 0 0
0.3 0 0
0.33333333 0 0
0.36666667 0 0
0.4 0 0
0.43333333 0 0
0.46666667 0 0
0.5 0 0
0.53333333 0 0
0.56666667 0 0
0.6 0 0
0.63333333 0 0
0.66666667 0 0
0.7 0 0
0.73333333 0 0
0.76666667 0 0
0.8 0 0
0.83333333 0 0
0.86666667 0 0
0.9 0 0
0.93333333 0 0
0.96666667 0 0
1 0 0
0 0.033333333 0
0.033333333 0.033333333 0
0.066666667 0.033333333 0
0.1 0.033333333 0
0.13333333 0.033333333 0
0.16666667 0.033333333 0
0.2 0.033333333 0
0.23333333 0.033333333 0
0.26666667 0.033333333 0
0.3 0.033333333 0
0.33333333 0.033333333 0
0.36666667 0.033333333 0
0.4 0.033333333 0
0.43333333 0.033333333 0
0.46666667 0.033333333 0
0.5 0.033333333 0
0.53333333 0.033333333 0
0.56666667 0.033333333 0
0.6 0.033333333 0
0.63333333 0.033333333 0
0.66666667 0.033333333 0
0.7 0.033333333 0
0.73333333 0.033333333 0
0.76666667 0.033333333 0
0.8 0.033333333 0
0.83333333 0.033333333 0
0.86666667 0.033333333 0
0.9 0.033333333 0
0.93333333 0.033333333 0
0.96666667 0.033333333 0
1 0.033333333 0
0 0.066666667 0
0.033333333 0.066666667 0
0.066666667 0.066666667 0
0.1 0.066666667 0
0.13333333 0.066666667 0
0.16666667 0.066666667 0
0.2 0.066666667 0
0.23333333 0.066666667 0
0.26666667 0.066666667 0
0.3 0.066666667 0
0.33333333 0.066666667 0
0.36666667 0.066666667 0
0.4 0.066666667 0
0.43333333 0.066666667 0
0.46666667 0.066666667 0
0.5 0.066666667 0
0.53333333 0.066666667 0
0.56666667 0.066666667 0
0.6 0.066666667 0
0.63333333 0.066666667 0
0.66666667 0.066666667 0
0.7 0.066666667 0
0.73333333 0.066666667 0
0.76666667 0.066666667 0
0.8 0.066666667 0
0.83333333 0.066666667 0
0.86666667 0.066666667 0
0.9 0.066666667 0
0.93333333 0.066666667 0
0.96666667 0.066666667 0
1 0.066666667 0
0 0.1 0
0.033333333 0.1 0
0.066666667 0.1 0
0.1 0.1 0
0.13333333 0.1 0
0.16666667 0.1 0
0.2 0.1 0
0.23333333 0.1 0
0.26666667 0.1 0
0.3 0.1 0
0.33333333 0.1 0
0.36666667 0.1 0
0.4 0.1 0
0.43333333 0.1 0
0.46666667 0.1 0
0.5 0.1 0
0.53333333 0.1 0
0.56666667 0.1 0
0.6 0.1 0
0.63333333 0.1 0
0.66666667 0.1 0
0.7 0.1 0
0.73333333 0.1 0
0.76666667 0.1 0
0.8 0.1 0
0.83333333 0.1 0
0.86666667 0.1 0
0.9 0.1 0
0.93333333 0.1 0
0.96666667 0.1 0
1 0.1 0
0 0.13333333 0
0.033333333 0.13333333 0
0.066666667 0.13333333 0
0.1 0.13333333 0
0.13333333 0.13333333 0
0.16666667 0.13333333 0
0.2 0.13333333 0
0.23333333 0.13333333 0
0.26666667 0.13333333 0
0.3 0.13333333 0
0.33333333 0.13333333 0
0.36666667 0.13333333 0
0.4 0.13333333 0
0.43333333 0.13333333 0
0.46666667 0.13333333 0
0.5 0.13333333 0
0.53333333 0.13333333 0
0.56666667 0.13333333 0
0.6 0.13333333 0
0.63333333 0.13333333 0
0.66666667 0.13333333 0
0.7 0.13333333 0
0.73333333 0.13333333 0
0.76666667 0.13333333 0
0.8 0.13333333 0
0.83333333 0.13333333 0
0.86666667 0.13333333 0
0.9 0.13333333 0
0.93333333 0.13333333 0
0.96666667 0.13333333 0
1 0.13333333 0
0 0.16666667 0
0.033333333 0.16666667 0
0.066666667 0.16666667 0
0.1 0.16666667 0
0.13333333 0.16666667 0
0.16666667 0.16666667 0
0.2 0.16666667 0
0.23333333 0.16666667 0
0.26666667 0.16666667 0
0.3 0.16666667 0
0.33333333 0.16666667 0
0.36666667 0.16666667 0
0.4 0.16666667 0
0.43333333 0.16666667 0
0.46666667 0.16666667 0
0.5 0.16666667 0
0.53333333 0.16666667 0
0.56666667 0.16666667 0
0.6 0.16666667 0
0.63333333 0.16666667 0
0.66666667 0.16666667 0
0.7 0.16666667 0
0.73333333 0.16666667 0
0.76666667 0.16666667 0
0.8 0.16666667 0
0.83333333 0.16666667 0
0.86666667 0.16666667 0
0.9 0.16666667 0
0.93333333 0.16666667 0
0.96666667 0.16666667 0
1 0.16666667 0
0 0.2 0
0.033333333 0.2 0
0.066666667 0.2 0
0.1 0.2 0
0.13333333 0.2 0
0.16666667 0.2 0
0.2 0.2 0
0.23333333 0.2 0
0.26666667 0.2 0
0.3 0.2 0
0.33333333 0.2 0
0.36666667 0.2 0
0.4 0.2 0
0.43333333 0.2 0
0.46666667 0.2 0
0.5 0.2 0
0.53333333 0.2 0
0.56666667 0.2 0
0.6 0.2 0
0.63333333 0.2 0
0.66666667 0.2 0
0.7 0.2 0
0.73333333 0.2 0
0.76666667 0.2 0
0.8 0.2 0
0.83333333 0.2 0
0.86666667 0.2 0
0.9 0.2 0
0.93333333 0.2 0
0.96666667 0.2 0
1 0.2 0
0 0.23333333 0
0.033333333 0.23333333 0
0.066666667 0.23333333 0
0.1 0.23333333 0
0.13333333 0.23333333 0
0.16666667 0.23333333 0
0.2 0.23333333 0
0.23333333 0.23333333 0
0.26666667 0.23333333 0
0.3 0.23333333 0
0.33333333 0.23333333 0
0.36666667 0.23333333 0
0.4 0.23333333 0
0.43333333 0.23333333 0
0.46666667 0.23333333 0
0.5 0.23333333 0
0.53333333 0.23333333 0
0.56666667 0.23333333 0
0.6 0.23333333 0
0.63333333 0.23333333 0
0.66666667 0.23333333 0
0.7 0.23333333 0
0.73333333 0.23333333 0
0.76666667 0.23333333 0
0.8 0.23333333 0
0.83333333 0.23333333 0
0.86666667 0.23333333 0
0.9 0.23333333 0
0.93333333 0.23333333 0
0.96666667 0.23333333 0
1 0.23333333 0
0 0.26666667 0
0.033333333 0.26666667 0
0.066666667 0.26666667 0
0.1 0.26666667 0
0.13333333 0.26666667 0
0.16666667 0.26666667 0
0.2 0.26666667 0
0.23333333 0.26666667 0
0.26666667 0.26666667 0
0.3 0.26666667 0
0.33333333 0.26666667 0
0.36666667 0.26666667 0
0.4 0.26666667 0
0.43333333 0.26666667 0
0.46666667 0.26666667 0
0.5 0.26666667 0
0.53333333 0.26666667 0
0.56666667 0.26666667 0
0.6 0.26666667 0
0.63333333 0.26666667 0
0.66666667 0.26666667 0
0.7 0.26666667 0
0.73333333 0.26666667 0
0.76666667 0.26666667 0
0.8 0.26666667 0
0.83333333 0.26666667 0
0.86666667 0.26666667 0
0.9 0.26666667 0
0.93333333 0.26666667 0
0.96666667 0.26666667 0
1 0.26666667 0
0 0.3 0
0.033333333 0.3 0
0.066666667 0.3 0
0.1 0.3 0
0.13333333 0.3 0
0.16666667 0.3 0
0.2 0.3 0
0.23333333 0.3 0
0.26666667 0.3 0
0.3 0.3 0
0.33333333 0.3 0
0.36666667 0.3 0
0.4 0.3 0
0.43333333 0.3 0
0.46666667 0.3 0
0.5 0.3 0
0.53333333 0.3 0
0.56666667 0.3 0
0.6 0.3 0
0.63333333 0.3 0
0.66666667 0.3 0
0.7 0.3 0
0.73333333 0.3 0
0.76666667 0.3 0
0.8 0.3 0
0.83333333 0.3 0
0.86666667 0.3 0
0.9 0.3 0
0.93333333 0.3 0
0.96666667 0.3 0
1 0.3 0
0 0.33333333 0
0.033333333 0.33333333 0
0.066666667 0.33333333 0
0.1 0.33333333 0
0.13333333 0.33333333 0
0.16666667 0.33333333 0
0.2 0.33333333 0
0.23333333 0.33333333 0
0.26666667 0.33333333 0
0.3 0.33333333 0
0.33333333 0.33333333 0
0.36666667 0.33333333 0
0.4 0.33333333 0
0.43333333 0.33333333 0
0.46666667 0.33333333 0
0.5 0.33333333 0
0.53333333 0.33333333 0
0.56666667 0.33333333 0
0.6 0.33333333 0
0.63333333 0.33333333 0
0.66666667 0.33333333 0
0.7 0.33333333 0
0.73333333 0.33333333 0
0.76666667 0.33333333 0
0.8 0.33333333 0
0.83333333 0.33333333 0
0.86666667 0.33333333 0
0.9 0.33333333 0
0.93333333 0.33333333 0
0.96666667 0.33333333 0
1 0.33333333 0
0 0.36666667 0
0.033333333 0.36666667 0
0.066666667 0.36666667 0
0.1 0.36666667 0
0.13333333 0.36666667 0
0.16666667 0.36666667 0
0.2 0.36666667 0
0.23333333 0.36666667 0
0.26666667 0.36666667 0
0.3 0.36666667 0
0.33333333 0.36666667 0
0.36666667 0.36666667 0
0.4 0.36666667 0
0.43333333 0.36666667 0
0.46666667 0.36666667 0
0.5 0.36666667 0
0.53333333 0.36666667 0
0.56666667 0.36666667 0
0.6 0.36666667 0
0.63333333 0.36666667 0
0.66666667 0.36666667 0
0.7 0.36666667 0
0.73333333 0.36666667 0
0.76666667 0.36666667 0
0.8 0.36666667 0
0.83333333 0.36666667 0
0.86666667 0.36666667 0
0.9 0.36666667 0
0.93333333 0.36666667 0
0.96666667 0.36666667 0
1 0.36666667 0
0 0.4 0
0.033333333 0.4 0
0.066666667 0.4 0
0.1 0.4 0
0.13333333 0.4 0
0.16666667 0.4 0
0.2 0.4 0
0.23333333 0.4 0
0.26666667 0.4 0
0.3 0.4 0
0.33333333 0.4 0
0.36666667 0.4 0
0.4 0.4 0
0.43333333 0.4 0
0.46666667 0.4 0
0.5 0.4 0
0.53333333 0.4 0
0.56666667 0.4 0
0.6 0.4 0
0.63333333 0.4 0
0.66666667 0.4 0
0.7 0.4 0
0.73333333 0.4 0
0.76666667 0.4 0
0.8 0.4 0
0.83333333 0.4 0
0.86666667 0.4 0
0.9 0.4 0
0.93333333 0.4 0
0.96666667 0.4 0
1 0.4 0
0 0.43333333 0
0.033333333 0.43333333 0
0.066666667 0.43333333 0
0.1 0.43333333 0
0.13333333 0.43333333 0
0.16666667 0.43333333 0
0.2 0.43333333 0
0.23333333 0.43333333 0
0.26666667 0.43333333 0
0.3 0.43333333 0
0.33333333 0.43333333 0
0.36666667 0.43333333 0
0.4 0.43333333 0
0.43333333 0.43333333 0
0.46666667 0.43333333 0
0.5 0.43333333 0
0.53333333 0.43333333 0
0.56666667 0.43333333 0
0.6 0.43333333 0
0.63333333 0.43333333 0
0.66666667 0.43333333 0
0.7 0.43333333 0
0.73333333 0.43333333 0
0.76666667 0.43333333 0
0.8 0.43333333 0
0.83333333 0.43333333 0
0.86666667 0.43333333 0
0.9 0.43333333 0
0.93333333 0.43333333 0
0.96666667 0.43333333 0
1 0.43333333 0
0 0.46666667 0
0.033333333 0.46666667 0
0.066666667 0.46666667 0
0.1 0.46666667 0
0.13333333 0.46666667 0
0.16666667 0.46666667 0
0.2 0.46666667 0
0.23333333 0.46666667 0
0.26666667 0.46666667 0
0.3 0.46666667 0
0.33333333 0.46666667 0
0.36666667 0.46666667 0
0.4 0.46666667 0
0.43333333 0.46666667 0
0.46666667 0.46666667 0
0.5 0.46666667 0
0.53333333 0.46666667 0
0.56666667 0.46666667 0
0.6 0.46666667 0
0.63333333 0.46666667 0
0.66666667 0.46666667 0
0.7 0.46666667 0
0.73333333 0.46666667 0
0.76666667 0.46666667 0
0.8 0.46666667 0
0.83333333 0.46666667 0
0.86666667 0.46666667 0
0.9 0.46666667 0
0.93333333 0.46666667 0
0.96666667 0.46666667 0
1 0.46666667 0
0 0.5 0
0.033333333 0.5 0
0.066666667 0.5 0
0.1 0.5 0
0.13333333 0.5 0
0.16666667 0.5 0
0.2 0.5 0
0.23333333 0.5 0
0.26666667 0.5 0
0.3 0.5 0
0.33333333 0.5 0
0.36666667 0.5 0
0.4 0.5 0
0.43333333 0.5 0
0.46666667 0.5 0
0.5 0.5 0
0.53333333 0.5 0
0.56666667 0.5 0
0.6 0.5 0
0.63333333 0.5 0
0.66666667 0.5 0
0.7 0.5 0
0.73333333 0.5 0
0.76666667 0.5 0
0.8 0.5 0
0.83333333 0.5 0
0.86666667 0.5 0
0.9 0.5 0
0.93333333 0.5 0
0.96666667 0.5 0
1 0.5 0
0 0.53333333 0
0.033333333 0.53333333 0
0.066666667 0.53333333 0
0.1 0.53333333 0
0.13333333 0.53333333 0
0.16666667 0.53333333 0
0.2 0.53333333 0
0.23333333 0.53333333 0
0.26666667 0.53333333 0
0.3 0.53333333 0
0.33333333 0.53333333 0
0.36666667 0.53333333 0
0.4 0.53333333 0
0.43333333 0.53333333 0
0.46666667 0.53333333 0
0.5 0.53333333 0
0.53333333 0.53333333 0
0.56666667 0.53333333 0
0.6 0.53333333 0
0.63333333 0.53333333 0
0.66666667 0.53333333 0
0.7 0.53333333 0
0.73333333 0.53333333 0
0.76666667 0.53333333 0
0.8 0.53333333 0
[...]
CELL_DATA 1920
Scalars  Label int 1
LOOKUP_TABLE FreeFempp_table
0
0
0
0
0
0
0
0
0
0
0
0
0
0
0
0
0
0
0
0
0
0
0
0
0
0
0
0
0
0
0
0
0
0
0
0
0
0
0
0
0
0
0
0
0
0
0
0
0
0
0
0
0
0
0
0
0
0
0
0
0
0
0
0
0
0
0
0
0
0
0
0
0
0
0
0
0
0
0
0
0
0
0
0
0
0
0
0
0
0
0
0
0
0
0
0
0
0
0
0
0
0
0
0
0
0
0
0
0
0
0
0
0
0
0
0
0
0
0
0
0
0
0
0
0
0
0
0
0
0
0
0
0
0
0
0
0
0
0
0
0
0
0
0
0
0
0
0
0
0
0
0
0
0
0
0
0
0
0
0
0
0
0
0
0
0
0
0
0
0
0
0
0
0
0
0
0
0
0
0
0
0
0
0
0
0
0
0
0
0
0
0
0
0
0
0
0
0
0
0
0
0
0
0
0
0
0
0
0
0
0
0
0
0
0
0
0
0
0
0
0
0
0
0
0
0
0
0
0
0
0
0
0
0
0
0
0
0
0
0
0
0
0
0
0
0
0
0
0
0
0
0
0
0
0
0
0
0
0
0
0
0
0
0
0
0
0
0
0
0
0
0
0
0
0
0
0
0
0
0
0
0
0
0
0
0
0
0
0
0
0
0
0
0
0
0
0
0
0
0
0
0
0
0
0
0
0
0
0
0
0
0
0
0
0
0
0
0
0
0
0
0
0
0
0
0
0
0
0
0
0
0
0
0
0
0
0
0
0
0
0
0
0
0
0
0
0
0
0
0
0
0
0
0
0
0
0
0
0
0
0
0
0
0
0
0
0
0
0
0
0
0
0
0
0
0
0
0
0
0
0
0
0
0
0
0
0
0
0
0
0
0
0
0
0
0
0
0
0
0
0
0
0
0
0
0
0
0
0
0
0
0
0
0
0
0
0
0
0
0
0
0
0
0
0
0
0
0
0
0
0
0
0
0
0
0
0
0
0
0
0
0
0
0
0
0
0
0
0
0
0
0
0
0
0
0
0
0
0
0
0
0
0
0
0
0
0
0
0
0
0
0
0
0
0
0
0
0
0
0
0
0
0
0
0
0
0
0
0
0
0
0
0
0
0
0
0
0
0
0
0
0
0
0
0
0
0
0
0
0
0
0
0
0
0
0
0
0
0
0
0
0
0
0
0
0
0
0
0
0
0
0
0
0
0
0
0
0
0
0
0
0
0
0
0
0
0
0
0
0
0
0
0
0
0
0
0
0
0
0
0
0
0
0
0
0
0
0
0
0
0
0
0
0
0
0
0
0
0
0
0
0
0
0
0
0
0
0
0
0
0
0
0
0
0
0
0
0
0
0
0
0
0
0
0
0
0
0
0
0
0
0
0
0
0
0
0
0
0
0
0
0
0
0
0
0
0
0
0
0
0
0
0
0
0
0
0
0
0
0
0
0
0
0
0
0
0
0
0
0
0
0
0
0
0
0
0
0
0
0
0
0
0
0
0
0
0
0
0
0
0
0
0
0
0
0
0
0
0
0
0
0
0
0
0
0
0
0
0
0
0
0
0
0
0
0
0
0
0
0
0
0
0
0
0
0
0
0
0
0
0
0
0
0
0
0
0
0
0
0
0
0
0
0
0
0
0
0
0
0
0
0
0
0
0
0
0
0
0
0
0
0
0
0
0
0
0
0
0
0
0
0
0
0
0
0
0
0
0
0
0
0
0
0
0
0
0
0
0
0
0
0
0
0
0
0
0
0
0
0
0
0
0
0
0
0
0
0
0
0
0
0
0
0
0
0
0
0
0
0
0
0
0
0
0
0
0
0
0
0
0
0
0
0
0
0
0
0
0
0
0
0
0
0
0
0
0
0
0
0
0
0
0
0
0
0
0
0
0
0
0
0
0
0
0
0
0
0
0
0
0
0
0
0
0
0
0
0
0
0
0
0
0
0
0
0
0
0
0
0
0
0
0
0
0
0
0
0
0
0
0
0
0
0
0
0
0
0
0
0
0
0
0
0
0
0
0
0
0
0
0
0
0
0
0
0
0
0
0
0
0
0
0
0
0
0
0
0
0
0
0
0
0
0
0
0
0
0
0
0
0
0
0
0
0
0
0
0
0
0
0
0
0
0
0
0
0
0
0
0
0
0
0
0
0
0
0
0
0
0
0
0
0
0
0
0
0
0
0
0
0
0
0
0
0
0
0
0
0
0
0
0
0
0
0
0
0
0
0
0
0
0
0
0
0
0
0
0
0
0
0
0
0
0
0
0
0
0
0
0
0
0
0
0
0
0
0
0
0
0
0
0
0
0
0
0
0
0
0
0
0
0
0
0
0
0
0
0
0
0
0
0
0
0
0
0
0
0
0
0
0
0
0
0
0
0
0
0
0
0
0
0
0
0
0
0
0
0
0
0
0
0
0
0
0
0
0
0
0
0
0
0
0
0
0
0
0
0
0
0
0
0
0
0
0
0
0
0
0
0
0
0
0
0
0
0
0
0
0
0
0
0
0
0
0
0
0
0
0
0
0
0
0
0
0
0
0
0
0
0
0
0
0
0
0
0
0
0
0
0
0
0
0
0
0
0
0
0
0
0
0
0
0
0
0
0
0
0
0
0
0
0
0
0
0
0
0
0
0
0
0
0
0
0
0
0
0
0
0
0
0
0
0
0
0
0
0
0
0
0
0
0
0
0
0
0
0
0
0
0
0
0
0
0
0
0
0
0
0
0
0
0
0
0
0
0
0
0
0
0
0
0
0
0
0
0
0
0
0
0
0
0
0
0
0
0
0
0
0
0
0
0
0
0
0
0
0
0
0
0
0
0
0
0
0
0
0
0
0
0
0
0
0
0
0
0
0
0
0
0
0
0
0
0
0
0
0
0
0
0
0
0
0
0
0
0
0
0
0
0
0
0
0
0
0
0
0
0
0
0
0
0
0
0
0
0
0
0
0
0
0
0
0
0
0
0
0
0
0
0
0
0
0
0
0
0
0
0
0
0
0
0
0
0
0
0
0
0
0
0
0
0
0
0
0
0
0
0
0
0
0
0
0
0
0
0
0
0
0
0
0
0
0
0
0
0
0
0
0
0
0
0
0
0
0
0
0
0
0
0
0
0
0
0
0
0
0
0
0
0
0
0
0
0
0
0
0
0
0
0
0
0
0
0
0
0
0
0
0
0
0
0
0
0
0
0
0
0
0
0
0
0
0
0
0
0
0
0
0
0
0
0
0
0
0
0
0
0
0
0
0
0
0
0
0
0
0
0
0
0
0
0
0
0
0
0
0
0
0
0
0
0
0
0
0
0
0
0
0
0
0
0
0
0
0
0
0
0
0
0
0
0
0
0
0
0
0
0
0
0
0
0
0
0
0
0
0
0
0
0
0
0
0
0
0
0
0
0
0
0
0
0
0
0
0
0
0
0
0
0
0
0
0
0
0
0
0
0
0
0
0
0
0
0
0
0
0
0
0
0
0
0
0
0
0
0
0
0
0
0
0
0
0
0
0
0
0
0
0
0
0
0
0
0
0
0
0
0
0
0
0
0
0
0
0
0
0
0
0
0
0
0
0
0
0
0
0
0
0
0
0
0
0
0
0
0
0
0
0
0
0
0
0
0
0
0
0
0
0
0
0
0
0
0
0
0
0
0
0
0
0
0
0
0
0
0
0
0
0
0
0
0
0
0
0
0
0
0
0
0
0
0
0
0
0
0
0
0
0
0
0
0
0
0
0
0
0
0
0
0
0
0
0
0
0
0
0
0
0
0
0
0
0
0
0
0
0
0
0
0
0
0
0
0
0
0
0
0
0
0
0
0
0
0
0
0
0
0
0
0
0
0
0
0
0
0
0
0
0
0
0
0
0
0
0
0
0
0
0
0
0
0
0
0
0
0
0
0
0
0
0
0
0
0
0
0
0
0
0
0
0
0
0
0
0
0
0
0
0
0
0
0
0
0
0
0
0
0
0
0
0
0
0
0
0
0
0
0
0
0
0
0
0
0
0
0
0
0
0
0
0
0
0
0
0
0
0
0
0
0
0
0
0
0
0
0
0
0
0
0
1
1
1
1
1
1
1
1
1
1
1
1
1
1
1
1
1
1
1
1
1
1
1
1
1
1
1
1
1
1
2
2
2
2
2
2
2
2
2
2
2
2
2
2
2
2
2
2
2
2
2
2
2
2
2
2
2
2
2
2
3
3
3
3
3
3
3
3
3
3
3
3
3
3
3
3
3
3
3
3
3
3
3
3
3
3
3
3
3
3
4
4
4
4
4
4
4
4
4
4
4
4
4
4
4
4
4
4
4
4
4
4
4
4
4
4
4
4
4
4

LOOKUP_TABLE FreeFempp_table 5
1.00000000 0.00000000 0.00000000 1.00000000
1.00000000 1.00000000 0.00000000 1.00000000
1.00000000 0.00000000 1.00000000 1.00000000
0.00000000 1.00000000 0.00000000 1.00000000
0.00000000 1.00000000 1.00000000 1.00000000

POINT_DATA 961
FIELD FieldData 1
Density 1 961 float
5.60839213e-02 4.24496382e-02 3.43778320e-02 2.96873190e-02 2.76045576e-02 2.68857777e-02 2.79868133e-02 3.08858603e-02 3.44856866e-02 3.73666957e-02 3.89755480e-02 4.04383577e-02 4.30747345e-02 4.58291024e-02 4.85707447e-02 5.53726219e-02 6.68693408e-02 8.58039409e-02 1.15499005e-01 1.47120208e-01 1.73381910e-01 1.88745141e-01 1.89587697e-01 1.77323788e-01 1.57782197e-01 1.37493208e-01 1.19136371e-01 9.65479389e-02 6.08973950e-02 6.27306476e-02 1.00318223e-01 5.34161180e-02 3.14755440e-02 3.25289890e-02 2.90661380e-02 2.72202343e-02 2.65276190e-02 2.69847419e-02 2.80149970e-02 2.77574845e-02 2.55059432e-02 2.43608262e-02 2.66386550e-02 2.84888428e-02 2.47865878e-02 1.96579229e-02 1.96332671e-02 3.02987657e-02 6.20161667e-02 1.07052594e-01 1.73780158e-01 2.43668437e-01 2.88791209e-01 2.95547813e-01 2.67211944e-01 2.19766900e-01 1.71822131e-01 1.33944735e-01 1.00498252e-01 5.37115149e-02 3.69519740e-02 6.90719634e-02 7.97413588e-02 5.25141880e-02 6.35931790e-02 8.23418945e-02 1.01069339e-01 1.19914196e-01 1.38159513e-01 1.54147044e-01 1.66281208e-01 1.74255341e-01 1.79402173e-01 1.83677748e-01 1.88481972e-01 1.93345875e-01 1.95286393e-01 1.93131953e-01 1.90073147e-01 1.84154838e-01 1.77532211e-01 1.84859395e-01 2.08452567e-01 2.29705229e-01 2.32983962e-01 2.18939170e-01 1.95949063e-01 1.71438351e-01 1.48230866e-01 1.23713404e-01 7.43392333e-02 3.62339467e-02 5.59742451e-02 1.07637718e-01 8.39878619e-02 9.80402157e-02 1.23786747e-01 1.48271546e-01 1.71790138e-01 1.93827644e-01 2.14199975e-01 2.32660815e-01 2.48995185e-01 2.63076574e-01 2.74849534e-01 2.84296572e-01 2.91329116e-01 2.95661241e-01 2.96975702e-01 2.95243502e-01 2.90440232e-01 2.82536864e-01 2.73643613e-01 2.69255936e-01 2.69259632e-01 2.64826179e-01 2.49045998e-01 2.23905131e-01 1.95602387e-01 1.68359593e-01 1.41972512e-01 9.99066830e-02 3.61993238e-02 4.55729142e-02 1.31878823e-01 1.10418849e-01 1.16773844e-01 1.49676800e-01 1.80703521e-01 2.11291060e-01 2.40866810e-01 2.68841207e-01 2.94681311e-01 3.17932785e-01 3.38226587e-01 3.55267853e-01 3.68822128e-01 3.78692985e-01 3.84709179e-01 3.86758834e-01 3.84831935e-01 3.78996700e-01 3.69440705e-01 3.56754363e-01 3.42171639e-01 3.26287985e-01 3.07547331e-01 2.83813864e-01 2.55096167e-01 2.23555952e-01 1.91578165e-01 1.59964621e-01 1.17016509e-01 3.76365110e-02 4.12065350e-02 1.57409444e-01 1.42058954e-01 1.33178979e-01 1.72357202e-01 2.11400479e-01 2.50001907e-01 2.87512064e-01 3.23062032e-01 3.55901390e-01 3.85420948e-01 4.11136538e-01 4.32667941e-01 4.49721724e-01 4.62077111e-01 4.69578475e-01 4.72139269e-01 4.69746321e-01 4.62458134e-01 4.50426549e-01 4.33948994e-01 4.13478017e-01 3.89371425e-01 3.61579835e-01 3.29856753e-01 2.94449687e-01 2.56447285e-01 2.17429981e-01 1.78497270e-01 1.30836025e-01 3.94068323e-02 4.05264907e-02 1.85147092e-01 1.87403485e-01 1.52296200e-01 1.94978431e-01 2.41668671e-01 2.87964463e-01 3.32947344e-01 3.75516891e-01 4.14747208e-01 4.49910402e-01 4.80444491e-01 5.05922973e-01 5.26031494e-01 5.40549338e-01 5.49334466e-01 5.52312076e-01 5.49467146e-01 5.40841639e-01 5.26545107e-01 5.06771326e-01 4.81799126e-01 4.51938748e-01 4.17475641e-01 3.78729850e-01 3.36246967e-01 2.90966123e-01 2.44211420e-01 1.97221413e-01 1.43358007e-01 4.17765118e-02 4.15323302e-02 2.12589607e-01 2.47906938e-01 1.76049694e-01 2.19358325e-01 2.71380067e-01 3.24330866e-01 3.76015902e-01 4.24897790e-01 4.69834179e-01 5.09977579e-01 5.44700265e-01 5.73549092e-01 5.96215844e-01 6.12510383e-01 6.22331858e-01 6.25638723e-01 6.22425199e-01 6.12712204e-01 5.96558332e-01 5.74083269e-01 5.45488775e-01 5.11064649e-01 4.71191555e-01 4.26372856e-01 3.77304494e-01 3.24955553e-01 2.70613670e-01 2.15650588e-01 1.55145094e-01 4.47329320e-02 4.34331186e-02 2.34833091e-01 3.13487142e-01 2.02715054e-01 2.46613130e-01 3.00081968e-01 3.58215153e-01 4.15715426e-01 4.70155180e-01 5.20073891e-01 5.64484119e-01 6.02693796e-01 6.34239078e-01 6.58851147e-01 6.76421106e-01 6.86947286e-01 6.90469265e-01 6.87010884e-01 6.76557064e-01 6.59076452e-01 6.34576380e-01 6.03162646e-01 5.65079987e-01 5.20733297e-01 4.70703095e-01 4.15772349e-01 3.56968790e-01 2.95617968e-01 2.33236462e-01 1.66374609e-01 4.80157398e-02 4.59740870e-02 2.45590851e-01 3.65563929e-01 2.26017848e-01 2.74430931e-01 3.26502532e-01 3.88668805e-01 4.51198846e-01 5.10462224e-01 5.64621210e-01 6.12536728e-01 6.53448939e-01 6.86895311e-01 7.12688565e-01 7.30879009e-01 7.41662145e-01 7.45242238e-01 7.41705775e-01 7.30971873e-01 7.12840676e-01 6.87117100e-01 6.53742135e-01 6.12876534e-01 5.64923644e-01 5.10519862e-01 4.50525522e-01 3.86042058e-01 3.18465710e-01 2.49463797e-01 1.76872984e-01 5.11824600e-02 4.89814207e-02 2.38659486e-01 3.85356456e-01 2.38496438e-01 2.96088427e-01 3.48460436e-01 4.14720058e-01 4.81782585e-01 5.45194030e-01 6.02848947e-01 6.53477430e-01 6.96244895e-01 7.30693996e-01 7.56770074e-01 7.74791360e-01 7.85285890e-01 7.88730621e-01 7.85316646e-01 7.74857283e-01 7.56878674e-01 7.30851471e-01 6.96447492e-01 6.53695226e-01 6.02994621e-01 5.45053601e-01 4.80828673e-01 4.11514014e-01 3.38596106e-01 2.63891131e-01 1.86277851e-01 5.42157218e-02 5.23557179e-02 2.10164636e-01 3.59698266e-01 2.37248033e-01 3.05267066e-01 3.64305079e-01 4.35723275e-01 5.07015646e-01 5.73925972e-01 6.34338737e-01 6.86896920e-01 7.30677664e-01 7.65228987e-01 7.90691197e-01 8.07777464e-01 8.17476869e-01 8.20621014e-01 8.17499459e-01 8.07826698e-01 7.90774226e-01 7.65352130e-01 7.30838120e-01 6.87069654e-01 6.34449661e-01 5.73792338e-01 5.06180704e-01 4.32919890e-01 3.55593950e-01 2.76157558e-01 1.94247574e-01 5.79854883e-02 5.63381910e-02 1.64540067e-01 2.87727743e-01 2.27006957e-01 3.03496420e-01 3.74566108e-01 4.51678544e-01 5.26709855e-01 5.96414745e-01 6.58864498e-01 7.12642014e-01 7.56721377e-01 7.90664077e-01 8.14880311e-01 8.30674112e-01 8.39424789e-01 8.42202604e-01 8.39442611e-01 8.30713391e-01 8.14948201e-01 7.90768743e-01 7.56864786e-01 7.12809563e-01 6.59006238e-01 5.96405268e-01 5.26242495e-01 4.49941248e-01 3.69167805e-01 2.85977632e-01 2.00525045e-01 6.52841330e-02 6.19555824e-02 1.18530668e-01 1.94554120e-01 2.16406152e-01 2.99581796e-01 3.81272018e-01 4.62984502e-01 5.40836513e-01 6.12541676e-01 6.76350951e-01 7.30783343e-01 7.74708629e-01 8.07723105e-01 8.30648661e-01 8.45112979e-01 8.52802873e-01 8.55273128e-01 8.52817774e-01 8.45146418e-01 8.30707967e-01 8.07817698e-01 7.74846733e-01 7.30963051e-01 6.76550269e-01 6.12698555e-01 5.40801764e-01 4.62396979e-01 3.79195571e-01 2.93215960e-01 2.05166787e-01 8.33577737e-02 7.15181902e-02 8.68022218e-02 1.19707011e-01 2.10892275e-01 2.98789650e-01 3.85597110e-01 4.69863802e-01 5.49368858e-01 6.22245848e-01 6.86812520e-01 7.41524160e-01 7.85171509e-01 8.17396760e-01 8.39375854e-01 8.52780581e-01 8.60825300e-01 8.61344576e-01 8.60838532e-01 8.52810860e-01 8.39430392e-01 8.17486227e-01 7.85310090e-01 7.41723359e-01 6.87078595e-01 6.22576773e-01 5.49749851e-01 4.70258445e-01 3.85913819e-01 2.98697889e-01 2.09954008e-01 1.26446307e-01 8.95096064e-02 6.94126040e-02 7.88543969e-02 2.09302008e-01 2.99268275e-01 3.87169927e-01 4.72188145e-01 5.52227616e-01 6.25485122e-01 6.90288126e-01 7.45067060e-01 7.88584471e-01 8.20512176e-01 8.42128634e-01 8.55228126e-01 8.61322582e-01 8.61323595e-01 8.61335695e-01 8.55257213e-01 8.42180967e-01 8.20600748e-01 7.88728058e-01 7.45290875e-01 6.90627277e-01 6.25999212e-01 5.53040683e-01 4.73600864e-01 3.89974773e-01 3.05760086e-01 2.18711838e-01 2.09045574e-01 1.22800566e-01 6.04661442e-02 6.20386824e-02 2.07980543e-01 2.97890842e-01 3.85234714e-01 4.69744414e-01 5.49337983e-01 6.22232199e-01 6.86791480e-01 7.41492331e-01 7.85133243e-01 8.17357361e-01 8.39337707e-01 8.52744699e-01 8.60792041e-01 8.61311078e-01 8.60805094e-01 8.52773905e-01 8.39390397e-01 8.17448139e-01 7.85286486e-01 7.41745472e-01 6.87208056e-01 6.22935951e-01 5.50611734e-01 4.72345054e-01 3.91467094e-01 3.16151112e-01 2.33198777e-01 3.19176525e-01 1.73934698e-01 5.56263961e-02 5.64491637e-02 2.04964295e-01 2.93763459e-01 3.79491538e-01 4.62453723e-01 5.40688097e-01 6.12484455e-01 6.76295757e-01 7.30712175e-01 7.74626374e-01 8.07639241e-01 8.30568135e-01 8.45037222e-01 8.52731287e-01 8.55203032e-01 8.52744699e-01 8.45067501e-01 8.30623746e-01 8.07736278e-01 7.74793029e-01 7.30995774e-01 6.76782548e-01 6.13349676e-01 5.42343438e-01 4.66045529e-01 3.88752013e-01 3.23233545e-01 2.48097822e-01 4.10064042e-01 2.28867844e-01 5.22931777e-02 5.43462522e-02 1.99969426e-01 2.86923677e-01 3.69978309e-01 4.50376451e-01 5.26341975e-01 5.96277714e-01 6.58757806e-01 7.12520897e-01 7.56587267e-01 7.90528536e-01 8.14751744e-01 8.30552936e-01 8.39309454e-01 8.42088401e-01 8.39324117e-01 8.30586374e-01 8.14812958e-01 7.90634692e-01 7.56768346e-01 7.12829173e-01 6.59289658e-01 5.97226143e-01 5.28145492e-01 4.54210371e-01 3.79595429e-01 3.16663086e-01 2.53137857e-01 4.40121949e-01 2.63951898e-01 4.85654548e-02 5.24376929e-02 1.93266749e-01 2.77592748e-01 3.56875837e-01 4.33671445e-01 5.06438315e-01 5.73707044e-01 6.34174168e-01 6.86719596e-01 7.30486870e-01 7.65037537e-01 7.90508747e-01 8.07606936e-01 8.17314923e-01 8.20459127e-01 8.17332387e-01 8.07645857e-01 7.90578246e-01 7.65154183e-01 7.30679810e-01 6.87039554e-01 6.34712040e-01 5.74633777e-01 5.08106470e-01 4.36915308e-01 3.64044398e-01 2.96808392e-01 2.40272433e-01 3.97271514e-01 2.65859783e-01 4.46620211e-02 4.78639454e-02 1.85516059e-01 2.66080111e-01 3.40448499e-01 4.12576020e-01 4.81193930e-01 5.44952631e-01 6.02643490e-01 6.53249800e-01 6.96001768e-01 7.30451345e-01 7.56538451e-01 7.74573207e-01 7.85077095e-01 7.88522482e-01 7.85098433e-01 7.74619520e-01 7.56617546e-01 7.30577946e-01 6.96201205e-01 6.53565347e-01 6.03148043e-01 5.45768499e-01 4.82532650e-01 4.14831668e-01 3.44443023e-01 2.73910850e-01 2.12768048e-01 2.96615392e-01 2.36420497e-01 4.11627516e-02 4.34561297e-02 1.77217752e-01 2.52758563e-01 3.21033478e-01 3.87403011e-01 4.50913668e-01 5.10305703e-01 5.64416766e-01 6.12281978e-01 6.53172731e-01 6.86620653e-01 7.12426960e-01 7.30631769e-01 7.41423488e-01 7.45001256e-01 7.41449058e-01 7.30685651e-01 7.12515116e-01 6.86754346e-01 6.53371572e-01 6.12578332e-01 5.64859867e-01 5.10962009e-01 4.51857686e-01 3.88694435e-01 3.22682649e-01 2.54683316e-01 1.86554685e-01 1.85371444e-01 1.88937411e-01 3.78523022e-02 3.97539772e-02 1.68802083e-01 2.38118500e-01 2.99058199e-01 3.58551502e-01 4.16008592e-01 4.70195621e-01 5.19929171e-01 5.64245939e-01 6.02424383e-01 6.33970976e-01 6.58596396e-01 6.76179349e-01 6.86710417e-01 6.90223873e-01 6.86739385e-01 6.76238894e-01 6.58690155e-01 6.34106219e-01 6.02614284e-01 5.64511299e-01 5.20296216e-01 4.70679224e-01 4.16564137e-01 3.58989924e-01 2.99005538e-01 2.37377062e-01 1.71041369e-01 1.15159780e-01 1.41086102e-01 3.46950851e-02 3.65325212e-02 1.60980999e-01 2.22831741e-01 2.75055617e-01 3.26525778e-01 3.77028376e-01 4.25225109e-01 4.69826162e-01 5.09830117e-01 5.44508934e-01 5.73353827e-01 5.96028149e-01 6.12327933e-01 6.22144699e-01 6.25431120e-01 6.22174859e-01 6.12388551e-01 5.96120417e-01 5.73480725e-01 5.44677019e-01 5.10050356e-01 4.70107317e-01 4.25540358e-01 3.77217650e-01 3.26117605e-01 2.73207754e-01 2.19283149e-01 1.60866469e-01 8.53889361e-02 1.04825892e-01 3.16890925e-02 3.37081701e-02 1.54910952e-01 2.07813054e-01 2.49671161e-01 2.91979104e-01 3.34729552e-01 3.76234680e-01 4.15005326e-01 4.49987650e-01 4.80457813e-01 5.05914748e-01 5.26011527e-01 5.40514350e-01 5.49275339e-01 5.52213609e-01 5.49303174e-01 5.40568829e-01 5.26090503e-01 5.06015837e-01 4.80580211e-01 4.50133532e-01 4.15174752e-01 3.76381814e-01 3.34590077e-01 2.90656477e-01 2.45328501e-01 1.99339256e-01 1.49781629e-01 7.45896772e-02 8.16268623e-02 2.87769437e-02 3.11982110e-02 1.52184382e-01 1.94110379e-01 2.23617509e-01 2.55814075e-01 2.90219605e-01 3.24426889e-01 3.56704533e-01 3.85986984e-01 4.11594450e-01 4.33063716e-01 4.50066060e-01 4.62368608e-01 4.69814867e-01 4.72314268e-01 4.69836146e-01 4.62407678e-01 4.50115502e-01 4.33111757e-01 4.11626309e-01 3.85989517e-01 3.56672585e-01 3.24341118e-01 2.89832234e-01 2.53727496e-01 2.15832308e-01 1.76668301e-01 1.36544004e-01 6.67724609e-02 6.74846247e-02 2.56075468e-02 2.89309416e-02 1.54000670e-01 1.81981727e-01 1.97486579e-01 2.19409406e-01 2.45238557e-01 2.71593720e-01 2.96675920e-01 3.19553733e-01 3.39659214e-01 3.56592923e-01 3.70056361e-01 3.79828423e-01 3.85755360e-01 3.87745678e-01 3.85767043e-01 3.79844427e-01 3.70059609e-01 3.56552690e-01 3.39527756e-01 3.19270402e-01 2.96194106e-01 2.70940065e-01 2.44483024e-01 2.17533886e-01 1.87137157e-01 1.49539158e-01 1.17267229e-01 5.59217930e-02 5.50538935e-02 2.17790399e-02 2.67116278e-02 1.59073666e-01 1.69055521e-01 1.71845794e-01 1.85156643e-01 2.02605247e-01 2.20461085e-01 2.37506449e-01 2.53213555e-01 2.67187417e-01 2.79086858e-01 2.88629740e-01 2.95599252e-01 2.99843043e-01 3.01269859e-01 2.99846113e-01 2.95592636e-01 2.88581580e-01 2.78932720e-01 2.66810209e-01 2.52426416e-01 2.36079171e-01 2.18288466e-01 2.00119108e-01 1.83431983e-01 1.67191267e-01 1.31342381e-01 9.03463215e-02 4.02186848e-02 4.07192260e-02 9.62306000e-03 2.44285259e-02 1.59427971e-01 1.53017595e-01 1.49684027e-01 1.57230824e-01 1.66277632e-01 1.74830362e-01 1.83107957e-01 1.91116616e-01 1.98576599e-01 2.05148086e-01 2.10540861e-01 2.14538842e-01 2.16995671e-01 2.17825621e-01 2.16996238e-01 2.14522555e-01 2.10461095e-01 2.04900965e-01 1.97950378e-01 1.89722180e-01 1.80344701e-01 1.70082256e-01 1.59726501e-01 1.51328996e-01 1.48945361e-01 1.48341343e-01 1.13878876e-01 3.26635204e-02 2.93661058e-02 9.24863759e-03 1.06834127e-02 1.60017267e-01 1.46360904e-01 1.39667571e-01 1.39747947e-01 1.39043868e-01 1.38591215e-01 1.39166042e-01 1.40594810e-01 1.42437980e-01 1.44317299e-01 1.45976260e-01 1.47253200e-01 1.48051307e-01 1.48322701e-01 1.48046091e-01 1.47224560e-01 1.45874426e-01 1.44023523e-01 1.41693667e-01 1.38877481e-01 1.35536969e-01 1.31687835e-01 1.27766192e-01 1.25455365e-01 1.28712252e-01 1.44062877e-01 1.72299042e-01 2.20844671e-01 2.29253862e-02 4.53463867e-02 1.60998087e-02 1.78854108e-01 1.41775265e-01 1.37104243e-01 1.30715296e-01 1.25328854e-01 1.21826947e-01 1.19825959e-01 1.18751228e-01 1.18185468e-01 1.17884696e-01 1.17720701e-01 1.17629908e-01 1.17581934e-01 1.17562778e-01 1.17566526e-01 1.17591135e-01 1.17635511e-01 1.17695831e-01 1.17759451e-01 1.17796302e-01 1.17754489e-01 1.17586389e-01 1.17387950e-01 1.17869742e-01 1.21073641e-01 1.28441855e-01 1.42462388e-01 5.68078160e-01 1.64161041e-01 
