# vtk DataFile Version 2.0
results_case1_non_linear/10_density.vtk, Created by Freefem++ 
ASCII
DATASET UNSTRUCTURED_GRID
POINTS 961 float
0 0 0
0.033333333 0 0
0.066666667 0 0
0.1 0 0
0.13333333 0 0
0.16666667 0 0
0.2 0 0
0.23333333 0 0
0.26666667 0 0
0.3 0 0
0.33333333 0 0
0.36666667 0 0
0.4 0 0
0.43333333 0 0
0.46666667 0 0
0.5 0 0
0.53333333 0 0
0.56666667 0 0
0.6 0 0
0.63333333 0 0
0.66666667 0 0
0.7 0 0
0.73333333 0 0
0.76666667 0 0
0.8 0 0
0.83333333 0 0
0.86666667 0 0
0.9 0 0
0.93333333 0 0
0.96666667 0 0
1 0 0
0 0.033333333 0
0.033333333 0.033333333 0
0.066666667 0.033333333 0
0.1 0.033333333 0
0.13333333 0.033333333 0
0.16666667 0.033333333 0
0.2 0.033333333 0
0.23333333 0.033333333 0
0.26666667 0.033333333 0
0.3 0.033333333 0
0.33333333 0.033333333 0
0.36666667 0.033333333 0
0.4 0.033333333 0
0.43333333 0.033333333 0
0.46666667 0.033333333 0
0.5 0.033333333 0
0.53333333 0.033333333 0
0.56666667 0.033333333 0
0.6 0.033333333 0
0.63333333 0.033333333 0
0.66666667 0.033333333 0
0.7 0.033333333 0
0.73333333 0.033333333 0
0.76666667 0.033333333 0
0.8 0.033333333 0
0.83333333 0.033333333 0
0.86666667 0.033333333 0
0.9 0.033333333 0
0.93333333 0.033333333 0
0.96666667 0.033333333 0
1 0.033333333 0
0 0.066666667 0
0.033333333 0.066666667 0
0.066666667 0.066666667 0
0.1 0.066666667 0
0.13333333 0.066666667 0
0.16666667 0.066666667 0
0.2 0.066666667 0
0.23333333 0.066666667 0
0.26666667 0.066666667 0
0.3 0.066666667 0
0.33333333 0.066666667 0
0.36666667 0.066666667 0
0.4 0.066666667 0
0.43333333 0.066666667 0
0.46666667 0.066666667 0
0.5 0.066666667 0
0.53333333 0.066666667 0
0.56666667 0.066666667 0
0.6 0.066666667 0
0.63333333 0.066666667 0
0.66666667 0.066666667 0
0.7 0.066666667 0
0.73333333 0.066666667 0
0.76666667 0.066666667 0
0.8 0.066666667 0
0.83333333 0.066666667 0
0.86666667 0.066666667 0
0.9 0.066666667 0
0.93333333 0.066666667 0
0.96666667 0.066666667 0
1 0.066666667 0
0 0.1 0
0.033333333 0.1 0
0.066666667 0.1 0
0.1 0.1 0
0.13333333 0.1 0
0.16666667 0.1 0
0.2 0.1 0
0.23333333 0.1 0
0.26666667 0.1 0
0.3 0.1 0
0.33333333 0.1 0
0.36666667 0.1 0
0.4 0.1 0
0.43333333 0.1 0
0.46666667 0.1 0
0.5 0.1 0
0.53333333 0.1 0
0.56666667 0.1 0
0.6 0.1 0
0.63333333 0.1 0
0.66666667 0.1 0
0.7 0.1 0
0.73333333 0.1 0
0.76666667 0.1 0
0.8 0.1 0
0.83333333 0.1 0
0.86666667 0.1 0
0.9 0.1 0
0.93333333 0.1 0
0.96666667 0.1 0
1 0.1 0
0 0.13333333 0
0.033333333 0.13333333 0
0.066666667 0.13333333 0
0.1 0.13333333 0
0.13333333 0.13333333 0
0.16666667 0.13333333 0
0.2 0.13333333 0
0.23333333 0.13333333 0
0.26666667 0.13333333 0
0.3 0.13333333 0
0.33333333 0.13333333 0
0.36666667 0.13333333 0
0.4 0.13333333 0
0.43333333 0.13333333 0
0.46666667 0.13333333 0
0.5 0.13333333 0
0.53333333 0.13333333 0
0.56666667 0.13333333 0
0.6 0.13333333 0
0.63333333 0.13333333 0
0.66666667 0.13333333 0
0.7 0.13333333 0
0.73333333 0.13333333 0
0.76666667 0.13333333 0
0.8 0.13333333 0
0.83333333 0.13333333 0
0.86666667 0.13333333 0
0.9 0.13333333 0
0.93333333 0.13333333 0
0.96666667 0.13333333 0
1 0.13333333 0
0 0.16666667 0
0.033333333 0.16666667 0
0.066666667 0.16666667 0
0.1 0.16666667 0
0.13333333 0.16666667 0
0.16666667 0.16666667 0
0.2 0.16666667 0
0.23333333 0.16666667 0
0.26666667 0.16666667 0
0.3 0.16666667 0
0.33333333 0.16666667 0
0.36666667 0.16666667 0
0.4 0.16666667 0
0.43333333 0.16666667 0
0.46666667 0.16666667 0
0.5 0.16666667 0
0.53333333 0.16666667 0
0.56666667 0.16666667 0
0.6 0.16666667 0
0.63333333 0.16666667 0
0.66666667 0.16666667 0
0.7 0.16666667 0
0.73333333 0.16666667 0
0.76666667 0.16666667 0
0.8 0.16666667 0
0.83333333 0.16666667 0
0.86666667 0.16666667 0
0.9 0.16666667 0
0.93333333 0.16666667 0
0.96666667 0.16666667 0
1 0.16666667 0
0 0.2 0
0.033333333 0.2 0
0.066666667 0.2 0
0.1 0.2 0
0.13333333 0.2 0
0.16666667 0.2 0
0.2 0.2 0
0.23333333 0.2 0
0.26666667 0.2 0
0.3 0.2 0
0.33333333 0.2 0
0.36666667 0.2 0
0.4 0.2 0
0.43333333 0.2 0
0.46666667 0.2 0
0.5 0.2 0
0.53333333 0.2 0
0.56666667 0.2 0
0.6 0.2 0
0.63333333 0.2 0
0.66666667 0.2 0
0.7 0.2 0
0.73333333 0.2 0
0.76666667 0.2 0
0.8 0.2 0
0.83333333 0.2 0
0.86666667 0.2 0
0.9 0.2 0
0.93333333 0.2 0
0.96666667 0.2 0
1 0.2 0
0 0.23333333 0
0.033333333 0.23333333 0
0.066666667 0.23333333 0
0.1 0.23333333 0
0.13333333 0.23333333 0
0.16666667 0.23333333 0
0.2 0.23333333 0
0.23333333 0.23333333 0
0.26666667 0.23333333 0
0.3 0.23333333 0
0.33333333 0.23333333 0
0.36666667 0.23333333 0
0.4 0.23333333 0
0.43333333 0.23333333 0
0.46666667 0.23333333 0
0.5 0.23333333 0
0.53333333 0.23333333 0
0.56666667 0.23333333 0
0.6 0.23333333 0
0.63333333 0.23333333 0
0.66666667 0.23333333 0
0.7 0.23333333 0
0.73333333 0.23333333 0
0.76666667 0.23333333 0
0.8 0.23333333 0
0.83333333 0.23333333 0
0.86666667 0.23333333 0
0.9 0.23333333 0
0.93333333 0.23333333 0
0.96666667 0.23333333 0
1 0.23333333 0
0 0.26666667 0
0.033333333 0.26666667 0
0.066666667 0.26666667 0
0.1 0.26666667 0
0.13333333 0.26666667 0
0.16666667 0.26666667 0
0.2 0.26666667 0
0.23333333 0.26666667 0
0.26666667 0.26666667 0
0.3 0.26666667 0
0.33333333 0.26666667 0
0.36666667 0.26666667 0
0.4 0.26666667 0
0.43333333 0.26666667 0
0.46666667 0.26666667 0
0.5 0.26666667 0
0.53333333 0.26666667 0
0.56666667 0.26666667 0
0.6 0.26666667 0
0.63333333 0.26666667 0
0.66666667 0.26666667 0
0.7 0.26666667 0
0.73333333 0.26666667 0
0.76666667 0.26666667 0
0.8 0.26666667 0
0.83333333 0.26666667 0
0.86666667 0.26666667 0
0.9 0.26666667 0
0.93333333 0.26666667 0
0.96666667 0.26666667 0
1 0.26666667 0
0 0.3 0
0.033333333 0.3 0
0.066666667 0.3 0
0.1 0.3 0
0.13333333 0.3 0
0.16666667 0.3 0
0.2 0.3 0
0.23333333 0.3 0
0.26666667 0.3 0
0.3 0.3 0
0.33333333 0.3 0
0.36666667 0.3 0
0.4 0.3 0
0.43333333 0.3 0
0.46666667 0.3 0
0.5 0.3 0
0.53333333 0.3 0
0.56666667 0.3 0
0.6 0.3 0
0.63333333 0.3 0
0.66666667 0.3 0
0.7 0.3 0
0.73333333 0.3 0
0.76666667 0.3 0
0.8 0.3 0
0.83333333 0.3 0
0.86666667 0.3 0
0.9 0.3 0
0.93333333 0.3 0
0.96666667 0.3 0
1 0.3 0
0 0.33333333 0
0.033333333 0.33333333 0
0.066666667 0.33333333 0
0.1 0.33333333 0
0.13333333 0.33333333 0
0.16666667 0.33333333 0
0.2 0.33333333 0
0.23333333 0.33333333 0
0.26666667 0.33333333 0
0.3 0.33333333 0
0.33333333 0.33333333 0
0.36666667 0.33333333 0
0.4 0.33333333 0
0.43333333 0.33333333 0
0.46666667 0.33333333 0
0.5 0.33333333 0
0.53333333 0.33333333 0
0.56666667 0.33333333 0
0.6 0.33333333 0
0.63333333 0.33333333 0
0.66666667 0.33333333 0
0.7 0.33333333 0
0.73333333 0.33333333 0
0.76666667 0.33333333 0
0.8 0.33333333 0
0.83333333 0.33333333 0
0.86666667 0.33333333 0
0.9 0.33333333 0
0.93333333 0.33333333 0
0.96666667 0.33333333 0
1 0.33333333 0
0 0.36666667 0
0.033333333 0.36666667 0
0.066666667 0.36666667 0
0.1 0.36666667 0
0.13333333 0.36666667 0
0.16666667 0.36666667 0
0.2 0.36666667 0
0.23333333 0.36666667 0
0.26666667 0.36666667 0
0.3 0.36666667 0
0.33333333 0.36666667 0
0.36666667 0.36666667 0
0.4 0.36666667 0
0.43333333 0.36666667 0
0.46666667 0.36666667 0
0.5 0.36666667 0
0.53333333 0.36666667 0
0.56666667 0.36666667 0
0.6 0.36666667 0
0.63333333 0.36666667 0
0.66666667 0.36666667 0
0.7 0.36666667 0
0.73333333 0.36666667 0
0.76666667 0.36666667 0
0.8 0.36666667 0
0.83333333 0.36666667 0
0.86666667 0.36666667 0
0.9 0.36666667 0
0.93333333 0.36666667 0
0.96666667 0.36666667 0
1 0.36666667 0
0 0.4 0
0.033333333 0.4 0
0.066666667 0.4 0
0.1 0.4 0
0.13333333 0.4 0
0.16666667 0.4 0
0.2 0.4 0
0.23333333 0.4 0
0.26666667 0.4 0
0.3 0.4 0
0.33333333 0.4 0
0.36666667 0.4 0
0.4 0.4 0
0.43333333 0.4 0
0.46666667 0.4 0
0.5 0.4 0
0.53333333 0.4 0
0.56666667 0.4 0
0.6 0.4 0
0.63333333 0.4 0
0.66666667 0.4 0
0.7 0.4 0
0.73333333 0.4 0
0.76666667 0.4 0
0.8 0.4 0
0.83333333 0.4 0
0.86666667 0.4 0
0.9 0.4 0
0.93333333 0.4 0
0.96666667 0.4 0
1 0.4 0
0 0.43333333 0
0.033333333 0.43333333 0
0.066666667 0.43333333 0
0.1 0.43333333 0
0.13333333 0.43333333 0
0.16666667 0.43333333 0
0.2 0.43333333 0
0.23333333 0.43333333 0
0.26666667 0.43333333 0
0.3 0.43333333 0
0.33333333 0.43333333 0
0.36666667 0.43333333 0
0.4 0.43333333 0
0.43333333 0.43333333 0
0.46666667 0.43333333 0
0.5 0.43333333 0
0.53333333 0.43333333 0
0.56666667 0.43333333 0
0.6 0.43333333 0
0.63333333 0.43333333 0
0.66666667 0.43333333 0
0.7 0.43333333 0
0.73333333 0.43333333 0
0.76666667 0.43333333 0
0.8 0.43333333 0
0.83333333 0.43333333 0
0.86666667 0.43333333 0
0.9 0.43333333 0
0.93333333 0.43333333 0
0.96666667 0.43333333 0
1 0.43333333 0
0 0.46666667 0
0.033333333 0.46666667 0
0.066666667 0.46666667 0
0.1 0.46666667 0
0.13333333 0.46666667 0
0.16666667 0.46666667 0
0.2 0.46666667 0
0.23333333 0.46666667 0
0.26666667 0.46666667 0
0.3 0.46666667 0
0.33333333 0.46666667 0
0.36666667 0.46666667 0
0.4 0.46666667 0
0.43333333 0.46666667 0
0.46666667 0.46666667 0
0.5 0.46666667 0
0.53333333 0.46666667 0
0.56666667 0.46666667 0
0.6 0.46666667 0
0.63333333 0.46666667 0
0.66666667 0.46666667 0
0.7 0.46666667 0
0.73333333 0.46666667 0
0.76666667 0.46666667 0
0.8 0.46666667 0
0.83333333 0.46666667 0
0.86666667 0.46666667 0
0.9 0.46666667 0
0.93333333 0.46666667 0
0.96666667 0.46666667 0
1 0.46666667 0
0 0.5 0
0.033333333 0.5 0
0.066666667 0.5 0
0.1 0.5 0
0.13333333 0.5 0
0.16666667 0.5 0
0.2 0.5 0
0.23333333 0.5 0
0.26666667 0.5 0
0.3 0.5 0
0.33333333 0.5 0
0.36666667 0.5 0
0.4 0.5 0
0.43333333 0.5 0
0.46666667 0.5 0
0.5 0.5 0
0.53333333 0.5 0
0.56666667 0.5 0
0.6 0.5 0
0.63333333 0.5 0
0.66666667 0.5 0
0.7 0.5 0
0.73333333 0.5 0
0.76666667 0.5 0
0.8 0.5 0
0.83333333 0.5 0
0.86666667 0.5 0
0.9 0.5 0
0.93333333 0.5 0
0.96666667 0.5 0
1 0.5 0
0 0.53333333 0
0.033333333 0.53333333 0
0.066666667 0.53333333 0
0.1 0.53333333 0
0.13333333 0.53333333 0
0.16666667 0.53333333 0
0.2 0.53333333 0
0.23333333 0.53333333 0
0.26666667 0.53333333 0
0.3 0.53333333 0
0.33333333 0.53333333 0
0.36666667 0.53333333 0
0.4 0.53333333 0
0.43333333 0.53333333 0
0.46666667 0.53333333 0
0.5 0.53333333 0
0.53333333 0.53333333 0
0.56666667 0.53333333 0
0.6 0.53333333 0
0.63333333 0.53333333 0
0.66666667 0.53333333 0
0.7 0.53333333 0
0.73333333 0.53333333 0
0.76666667 0.53333333 0
[...]
CELL_DATA 1920
Scalars  Label int 1
LOOKUP_TABLE FreeFempp_table
0
0
0
0
0
0
0
0
0
0
0
0
0
0
0
0
0
0
0
0
0
0
0
0
0
0
0
0
0
0
0
0
0
0
0
0
0
0
0
0
0
0
0
0
0
0
0
0
0
0
0
0
0
0
0
0
0
0
0
0
0
0
0
0
0
0
0
0
0
0
0
0
0
0
0
0
0
0
0
0
0
0
0
0
0
0
0
0
0
0
0
0
0
0
0
0
0
0
0
0
0
0
0
0
0
0
0
0
0
0
0
0
0
0
0
0
0
0
0
0
0
0
0
0
0
0
0
0
0
0
0
0
0
0
0
0
0
0
0
0
0
0
0
0
0
0
0
0
0
0
0
0
0
0
0
0
0
0
0
0
0
0
0
0
0
0
0
0
0
0
0
0
0
0
0
0
0
0
0
0
0
0
0
0
0
0
0
0
0
0
0
0
0
0
0
0
0
0
0
0
0
0
0
0
0
0
0
0
0
0
0
0
0
0
0
0
0
0
0
0
0
0
0
0
0
0
0
0
0
0
0
0
0
0
0
0
0
0
0
0
0
0
0
0
0
0
0
0
0
0
0
0
0
0
0
0
0
0
0
0
0
0
0
0
0
0
0
0
0
0
0
0
0
0
0
0
0
0
0
0
0
0
0
0
0
0
0
0
0
0
0
0
0
0
0
0
0
0
0
0
0
0
0
0
0
0
0
0
0
0
0
0
0
0
0
0
0
0
0
0
0
0
0
0
0
0
0
0
0
0
0
0
0
0
0
0
0
0
0
0
0
0
0
0
0
0
0
0
0
0
0
0
0
0
0
0
0
0
0
0
0
0
0
0
0
0
0
0
0
0
0
0
0
0
0
0
0
0
0
0
0
0
0
0
0
0
0
0
0
0
0
0
0
0
0
0
0
0
0
0
0
0
0
0
0
0
0
0
0
0
0
0
0
0
0
0
0
0
0
0
0
0
0
0
0
0
0
0
0
0
0
0
0
0
0
0
0
0
0
0
0
0
0
0
0
0
0
0
0
0
0
0
0
0
0
0
0
0
0
0
0
0
0
0
0
0
0
0
0
0
0
0
0
0
0
0
0
0
0
0
0
0
0
0
0
0
0
0
0
0
0
0
0
0
0
0
0
0
0
0
0
0
0
0
0
0
0
0
0
0
0
0
0
0
0
0
0
0
0
0
0
0
0
0
0
0
0
0
0
0
0
0
0
0
0
0
0
0
0
0
0
0
0
0
0
0
0
0
0
0
0
0
0
0
0
0
0
0
0
0
0
0
0
0
0
0
0
0
0
0
0
0
0
0
0
0
0
0
0
0
0
0
0
0
0
0
0
0
0
0
0
0
0
0
0
0
0
0
0
0
0
0
0
0
0
0
0
0
0
0
0
0
0
0
0
0
0
0
0
0
0
0
0
0
0
0
0
0
0
0
0
0
0
0
0
0
0
0
0
0
0
0
0
0
0
0
0
0
0
0
0
0
0
0
0
0
0
0
0
0
0
0
0
0
0
0
0
0
0
0
0
0
0
0
0
0
0
0
0
0
0
0
0
0
0
0
0
0
0
0
0
0
0
0
0
0
0
0
0
0
0
0
0
0
0
0
0
0
0
0
0
0
0
0
0
0
0
0
0
0
0
0
0
0
0
0
0
0
0
0
0
0
0
0
0
0
0
0
0
0
0
0
0
0
0
0
0
0
0
0
0
0
0
0
0
0
0
0
0
0
0
0
0
0
0
0
0
0
0
0
0
0
0
0
0
0
0
0
0
0
0
0
0
0
0
0
0
0
0
0
0
0
0
0
0
0
0
0
0
0
0
0
0
0
0
0
0
0
0
0
0
0
0
0
0
0
0
0
0
0
0
0
0
0
0
0
0
0
0
0
0
0
0
0
0
0
0
0
0
0
0
0
0
0
0
0
0
0
0
0
0
0
0
0
0
0
0
0
0
0
0
0
0
0
0
0
0
0
0
0
0
0
0
0
0
0
0
0
0
0
0
0
0
0
0
0
0
0
0
0
0
0
0
0
0
0
0
0
0
0
0
0
0
0
0
0
0
0
0
0
0
0
0
0
0
0
0
0
0
0
0
0
0
0
0
0
0
0
0
0
0
0
0
0
0
0
0
0
0
0
0
0
0
0
0
0
0
0
0
0
0
0
0
0
0
0
0
0
0
0
0
0
0
0
0
0
0
0
0
0
0
0
0
0
0
0
0
0
0
0
0
0
0
0
0
0
0
0
0
0
0
0
0
0
0
0
0
0
0
0
0
0
0
0
0
0
0
0
0
0
0
0
0
0
0
0
0
0
0
0
0
0
0
0
0
0
0
0
0
0
0
0
0
0
0
0
0
0
0
0
0
0
0
0
0
0
0
0
0
0
0
0
0
0
0
0
0
0
0
0
0
0
0
0
0
0
0
0
0
0
0
0
0
0
0
0
0
0
0
0
0
0
0
0
0
0
0
0
0
0
0
0
0
0
0
0
0
0
0
0
0
0
0
0
0
0
0
0
0
0
0
0
0
0
0
0
0
0
0
0
0
0
0
0
0
0
0
0
0
0
0
0
0
0
0
0
0
0
0
0
0
0
0
0
0
0
0
0
0
0
0
0
0
0
0
0
0
0
0
0
0
0
0
0
0
0
0
0
0
0
0
0
0
0
0
0
0
0
0
0
0
0
0
0
0
0
0
0
0
0
0
0
0
0
0
0
0
0
0
0
0
0
0
0
0
0
0
0
0
0
0
0
0
0
0
0
0
0
0
0
0
0
0
0
0
0
0
0
0
0
0
0
0
0
0
0
0
0
0
0
0
0
0
0
0
0
0
0
0
0
0
0
0
0
0
0
0
0
0
0
0
0
0
0
0
0
0
0
0
0
0
0
0
0
0
0
0
0
0
0
0
0
0
0
0
0
0
0
0
0
0
0
0
0
0
0
0
0
0
0
0
0
0
0
0
0
0
0
0
0
0
0
0
0
0
0
0
0
0
0
0
0
0
0
0
0
0
0
0
0
0
0
0
0
0
0
0
0
0
0
0
0
0
0
0
0
0
0
0
0
0
0
0
0
0
0
0
0
0
0
0
0
0
0
0
0
0
0
0
0
0
0
0
0
0
0
0
0
0
0
0
0
0
0
0
0
0
0
0
0
0
0
0
0
0
0
0
0
0
0
0
0
0
0
0
0
0
0
0
0
0
0
0
0
0
0
0
0
0
0
0
0
0
0
0
0
0
0
0
0
0
0
0
0
0
0
0
0
0
0
0
0
0
0
0
0
0
0
0
0
0
0
0
0
0
0
0
0
0
0
0
0
0
0
0
0
0
0
0
0
0
0
0
0
0
0
0
0
0
0
0
0
0
0
0
0
0
0
0
0
0
0
0
0
0
0
0
0
0
0
0
0
0
0
0
0
0
0
0
0
0
0
0
0
0
0
0
0
0
0
0
0
0
0
0
0
0
0
0
0
0
0
0
0
0
0
0
0
0
0
0
0
0
0
0
0
0
0
0
0
0
0
0
0
0
0
0
0
0
0
0
0
0
0
0
0
0
0
0
0
0
0
0
0
0
0
0
0
0
0
0
0
0
0
0
0
0
0
0
0
0
0
0
0
0
0
0
0
0
0
0
0
0
0
0
0
0
0
0
0
0
0
0
0
0
0
0
0
0
0
0
0
0
0
0
0
0
0
0
0
0
0
0
0
0
0
0
0
0
0
0
0
0
0
0
0
0
0
0
0
0
0
0
0
0
0
0
0
0
0
0
0
0
0
0
0
0
0
0
0
0
0
0
0
0
0
0
0
0
0
0
0
0
0
0
0
0
0
0
0
0
0
0
0
0
0
0
0
0
0
0
0
0
0
0
0
0
0
0
0
0
0
0
0
0
0
0
0
0
0
0
0
0
0
0
0
0
0
0
0
0
0
0
0
0
0
0
0
0
0
0
0
0
0
0
0
0
0
0
0
0
0
0
0
0
0
0
0
0
0
0
0
0
0
0
0
0
0
0
0
0
0
0
0
0
0
0
0
0
0
0
0
0
0
0
0
0
0
0
0
0
0
0
0
0
0
0
0
0
0
1
1
1
1
1
1
1
1
1
1
1
1
1
1
1
1
1
1
1
1
1
1
1
1
1
1
1
1
1
1
2
2
2
2
2
2
2
2
2
2
2
2
2
2
2
2
2
2
2
2
2
2
2
2
2
2
2
2
2
2
3
3
3
3
3
3
3
3
3
3
3
3
3
3
3
3
3
3
3
3
3
3
3
3
3
3
3
3
3
3
4
4
4
4
4
4
4
4
4
4
4
4
4
4
4
4
4
4
4
4
4
4
4
4
4
4
4
4
4
4

LOOKUP_TABLE FreeFempp_table 5
1.00000000 0.00000000 0.00000000 1.00000000
1.00000000 1.00000000 0.00000000 1.00000000
1.00000000 0.00000000 1.00000000 1.00000000
0.00000000 1.00000000 0.00000000 1.00000000
0.00000000 1.00000000 1.00000000 1.00000000

POINT_DATA 961
FIELD FieldData 1
Density 1 961 float
1.44925714e-03 1.41276757e-03 1.40111754e-03 1.36821845e-03 1.23012671e-03 8.80646694e-04 4.32736269e-04 2.04947908e-04 2.00617287e-04 6.02487649e-04 9.27655771e-03 8.20058361e-02 4.14377570e-01 8.04126322e-01 9.09264565e-01 8.99404585e-01 8.34669054e-01 7.68848121e-01 7.51593947e-01 7.63515472e-01 7.74520099e-01 7.76563525e-01 7.74363816e-01 7.68955350e-01 7.64038503e-01 7.59908915e-01 7.55845904e-01 7.51681089e-01 7.47729242e-01 7.45121062e-01 7.43339777e-01 5.46686410e-04 5.94043813e-04 6.07493625e-04 6.17663783e-04 5.83049434e-04 4.50236024e-04 2.89802963e-04 1.96246401e-04 1.91824365e-04 3.93019873e-04 3.79257975e-03 3.81544568e-02 3.01295578e-01 7.76309371e-01 9.15427029e-01 9.08708096e-01 8.29148114e-01 7.33278096e-01 7.00282991e-01 7.13848114e-01 7.32753634e-01 7.40574002e-01 7.44025469e-01 7.41515398e-01 7.40118325e-01 7.38970339e-01 7.36835420e-01 7.33713865e-01 7.30558276e-01 7.29511321e-01 7.31099844e-01 1.28508243e-03 1.17620861e-03 1.20344164e-03 1.38881349e-03 1.47667981e-03 9.50675923e-04 4.51569736e-04 2.74126563e-04 2.40799054e-04 3.14901583e-04 7.88657810e-04 4.23824089e-03 8.15500095e-02 6.14881933e-01 8.93558383e-01 8.92084002e-01 7.29005516e-01 4.81217802e-01 3.66188556e-01 3.59444201e-01 4.12913501e-01 4.92279917e-01 5.61730683e-01 5.96057534e-01 6.30522072e-01 6.53960407e-01 6.66708708e-01 6.72168136e-01 6.74546003e-01 6.79445624e-01 6.86992049e-01 2.56706960e-02 2.17409227e-02 2.19676234e-02 2.81330217e-02 4.12658937e-02 2.47128308e-02 5.49690984e-03 1.72746740e-03 1.02460524e-03 9.09404131e-04 9.50894144e-04 1.42648583e-03 8.64798017e-03 2.28242502e-01 8.05708706e-01 8.60836804e-01 5.04805446e-01 9.59683806e-02 2.89175455e-02 1.96400434e-02 2.45723110e-02 5.05420640e-02 1.18944973e-01 2.08559170e-01 3.53566885e-01 4.62367654e-01 5.25053442e-01 5.58118224e-01 5.76752722e-01 5.94573319e-01 6.11825824e-01 1.57427013e-01 1.45710766e-01 1.41153380e-01 1.51336655e-01 1.69675276e-01 1.43401921e-01 7.54782483e-02 3.72080691e-02 2.37019956e-02 1.76060777e-02 1.07965060e-02 4.20742435e-03 4.70195850e-03 2.28687096e-02 4.07982767e-01 8.12021554e-01 5.81878960e-01 5.73724173e-02 7.79259531e-03 3.37093300e-03 2.74278945e-03 3.29420390e-03 5.09814825e-03 1.08832307e-02 6.12153001e-02 1.92245841e-01 3.17270756e-01 3.97629082e-01 4.45716619e-01 4.83597189e-01 5.12843966e-01 3.28708559e-01 3.10265183e-01 2.97383845e-01 2.97274262e-01 2.96904385e-01 2.75071889e-01 2.29175419e-01 1.84704512e-01 1.53433770e-01 1.27824455e-01 9.50150266e-02 5.26763871e-02 2.74909139e-02 1.30973812e-02 3.64653729e-02 3.87729764e-01 6.72055900e-01 2.72866726e-01 3.28598619e-02 1.05458954e-02 6.44826377e-03 4.81627975e-03 3.51122068e-03 2.83041946e-03 5.64895151e-03 3.64863947e-02 1.27303556e-01 2.29304567e-01 3.06326300e-01 3.65547508e-01 4.05230731e-01 4.45239753e-01 4.23994452e-01 4.07474488e-01 4.01846737e-01 3.96763474e-01 3.84444922e-01 3.64586771e-01 3.43872339e-01 3.24755788e-01 3.02275389e-01 2.67038882e-01 2.12118879e-01 1.44044995e-01 6.11894950e-02 1.77286901e-02 2.82378476e-02 1.71370566e-01 4.11881208e-01 3.81677508e-01 2.35707089e-01 1.67581469e-01 1.15994319e-01 5.33281416e-02 1.30528677e-02 4.03018063e-03 5.35239838e-03 2.94310264e-02 9.86410901e-02 1.82302579e-01 2.56612957e-01 3.02633464e-01 5.16015172e-01 4.95371610e-01 4.79121327e-01 4.72710848e-01 4.68636274e-01 4.63699818e-01 4.58158135e-01 4.53949541e-01 4.50591058e-01 4.44176078e-01 4.28669035e-01 3.96918714e-01 3.38413328e-01 2.29617700e-01 8.53473768e-02 1.68496165e-02 1.25223389e-02 3.02579366e-02 1.56965122e-01 2.88655549e-01 3.68523955e-01 4.22743261e-01 3.33698779e-01 1.42388612e-01 2.35445034e-02 4.93860990e-03 5.36032813e-03 2.57339831e-02 8.46176147e-02 1.61327422e-01 2.09488243e-01 5.61365545e-01 5.42737424e-01 5.28302431e-01 5.22820055e-01 5.20635486e-01 5.20168960e-01 5.21665871e-01 5.25738120e-01 5.31660259e-01 5.37096739e-01 5.38840711e-01 5.32886505e-01 5.11440217e-01 4.54557002e-01 3.26224774e-01 1.23912312e-01 2.15044562e-02 9.71128698e-03 9.46994405e-03 1.29981600e-02 2.19814759e-02 7.64739066e-02 1.09190412e-01 9.97913331e-02 8.82539079e-02 2.99258940e-02 5.91567531e-03 4.87043941e-03 2.37822942e-02 8.27387869e-02 1.27403393e-01 5.91385782e-01 5.74921429e-01 5.62419713e-01 5.57998657e-01 5.57154000e-01 5.58891833e-01 5.63329101e-01 5.70660651e-01 5.80362678e-01 5.91186702e-01 6.01642489e-01 6.10126615e-01 6.13731742e-01 6.05342388e-01 5.69417715e-01 4.71930027e-01 2.71461457e-01 1.00671835e-01 2.05581393e-02 7.54181203e-03 4.15986264e-03 5.48600219e-03 8.06667190e-03 1.16749043e-02 3.35014500e-02 1.56657666e-01 4.56006564e-02 3.99515871e-03 4.94919484e-03 3.24732363e-02 6.54094964e-02 6.09814584e-01 5.94995975e-01 5.83823621e-01 5.79925835e-01 5.79488993e-01 5.81696749e-01 5.86509466e-01 5.93947470e-01 6.03667021e-01 6.15017593e-01 6.27372026e-01 6.40298426e-01 6.53207779e-01 6.64559901e-01 6.71024084e-01 6.65841639e-01 6.32806242e-01 5.47347665e-01 3.48337978e-01 1.42638490e-01 2.79250201e-02 1.55806774e-02 1.52771436e-02 1.98985450e-02 4.63189371e-02 2.47245803e-01 2.44721040e-01 8.44002981e-03 2.86829867e-03 1.33885564e-02 3.01823318e-02 6.17997229e-01 6.03952527e-01 5.93157649e-01 5.88997543e-01 5.88001490e-01 5.89336216e-01 5.92795908e-01 5.98278403e-01 6.05526149e-01 6.14181101e-01 6.24014378e-01 6.35098815e-01 6.47754788e-01 6.62317812e-01 6.78859413e-01 6.96639419e-01 7.12654829e-01 7.19836473e-01 7.01662004e-01 6.47759676e-01 5.10956824e-01 4.17737067e-01 3.86459529e-01 3.96752745e-01 4.43972796e-01 5.98486066e-01 5.58167338e-01 2.56701335e-02 2.28300598e-03 4.16726433e-03 8.26353580e-03 6.16786599e-01 6.02508008e-01 5.91028214e-01 5.85803688e-01 5.83411515e-01 5.82884848e-01 5.83842874e-01 5.86058140e-01 5.89269340e-01 5.93218565e-01 5.97811818e-01 6.03269875e-01 6.10171914e-01 6.19382977e-01 6.31849229e-01 6.48079574e-01 6.67161882e-01 6.85839355e-01 6.98604465e-01 7.02623844e-01 6.95355296e-01 6.97303176e-01 6.92491114e-01 6.93112195e-01 7.20235586e-01 7.90020943e-01 7.59265423e-01 1.45519182e-01 2.51683127e-03 7.88596051e-04 9.67572851e-04 6.07175350e-01 5.91674387e-01 5.78491986e-01 5.71516693e-01 5.67117691e-01 5.64112425e-01 5.61941087e-01 5.60241818e-01 5.58691740e-01 5.57028413e-01 5.55160224e-01 5.53284049e-01 5.51942706e-01 5.51987290e-01 5.54393351e-01 5.59827685e-01 5.67989886e-01 5.77211976e-01 5.85120738e-01 5.90724826e-01 5.95549107e-01 6.07442796e-01 6.25942051e-01 6.62948966e-01 7.36547112e-01 8.21298957e-01 7.82644451e-01 1.92647368e-01 2.64440780e-03 3.61507031e-04 2.70151999e-04 5.90443373e-01 5.72857738e-01 5.57107091e-01 5.47892690e-01 5.41164458e-01 5.35466671e-01 5.30073941e-01 5.24501085e-01 5.18352866e-01 5.11342645e-01 5.03370881e-01 4.94608402e-01 4.85539287e-01 4.76920962e-01 4.69624490e-01 4.64333534e-01 4.61213320e-01 4.59911495e-01 4.60283101e-01 4.63639915e-01 4.73701030e-01 4.97444272e-01 5.44093907e-01 6.27632856e-01 7.43947983e-01 8.27589095e-01 7.31940985e-01 1.28931805e-01 1.96330366e-03 2.76928389e-04 1.98324939e-04 5.68000078e-01 5.47662556e-01 5.28701782e-01 5.17013013e-01 5.07966578e-01 4.99793231e-01 4.91627783e-01 4.82888281e-01 4.73127037e-01 4.62067723e-01 4.49658722e-01 4.36123729e-01 4.21982616e-01 4.08005923e-01 3.95091623e-01 3.84094000e-01 3.75725389e-01 3.70750576e-01 3.70618284e-01 3.78361404e-01 3.99537534e-01 4.43245322e-01 5.22004247e-01 6.42217875e-01 7.68839002e-01 8.17595303e-01 5.99559784e-01 5.31943440e-02 1.23523595e-03 2.50511424e-04 1.95740082e-04 5.41188121e-01 5.17622352e-01 4.95046109e-01 4.80925947e-01 4.69908953e-01 4.59847838e-01 4.49791133e-01 4.39100057e-01 4.27258760e-01 4.14018720e-01 3.99422675e-01 3.83795142e-01 3.67738396e-01 3.52084965e-01 3.37812185e-01 3.25969994e-01 3.17717284e-01 3.14595193e-01 3.19120586e-01 3.35686415e-01 3.71750623e-01 4.38695103e-01 5.47547340e-01 6.86111867e-01 7.92500257e-01 7.78073967e-01 3.85017306e-01 1.72125958e-02 7.62950629e-04 2.48773809e-04 2.22755509e-04 5.11106968e-01 4.83996838e-01 4.57509339e-01 4.41257209e-01 4.29076046e-01 4.18117285e-01 4.07235384e-01 3.95932019e-01 3.83652061e-01 3.70106965e-01 3.55418891e-01 3.40001285e-01 3.24518502e-01 3.09843987e-01 2.97015339e-01 2.87240624e-01 2.82030195e-01 2.83551306e-01 2.95307845e-01 3.23215634e-01 3.76825064e-01 4.68219131e-01 5.99258363e-01 7.32924461e-01 7.98672736e-01 6.90383494e-01 1.85206637e-01 6.51983637e-03 5.57964842e-04 2.80864799e-04 3.07202776e-04 4.78161514e-01 4.47430193e-01 4.16906834e-01 3.98841232e-01 3.86472583e-01 3.76077175e-01 3.65798175e-01 3.55164140e-01 3.43825817e-01 3.31454724e-01 3.18210512e-01 3.04558665e-01 2.91189939e-01 2.78995216e-01 2.69064128e-01 2.62763381e-01 2.61961281e-01 2.69497007e-01 2.90016234e-01 3.31163108e-01 4.04036105e-01 5.17440617e-01 6.56373680e-01 7.65782475e-01 7.79569507e-01 5.48156202e-01 7.94465318e-02 3.43118003e-03 5.23225695e-04 3.72508744e-04 5.25103067e-04 4.43450302e-01 4.09379154e-01 3.75275612e-01 3.55712712e-01 3.43515903e-01 3.34657639e-01 3.26289326e-01 3.17523777e-01 3.08176190e-01 2.97966897e-01 2.87103236e-01 2.76089489e-01 2.65629560e-01 2.56630301e-01 2.50249863e-01 2.48048216e-01 2.52310038e-01 2.66643703e-01 2.96947539e-01 3.52395803e-01 4.43827629e-01 5.71663141e-01 7.03048885e-01 7.79342353e-01 7.35346198e-01 3.94198418e-01 4.10852879e-02 2.66363448e-03 6.42198895e-04 6.06191752e-04 1.05746207e-03 4.08706158e-01 3.71760190e-01 3.34489614e-01 3.13795775e-01 3.02105278e-01 2.94988513e-01 2.89116889e-01 2.83018559e-01 2.76350170e-01 2.68878907e-01 2.60884196e-01 2.52921253e-01 2.45718047e-01 2.40211099e-01 2.37648562e-01 2.39815280e-01 2.49450088e-01 2.70948470e-01 3.11322063e-01 3.80444795e-01 4.86264855e-01 6.17985070e-01 7.31880605e-01 7.75200546e-01 6.75677419e-01 2.87976265e-01 3.06419116e-02 3.12770531e-03 1.06714026e-03 1.26744388e-03 2.43854057e-03 3.74916464e-01 3.35546881e-01 2.95598119e-01 2.74039179e-01 2.63107926e-01 2.57888108e-01 2.54570663e-01 2.51397848e-01 2.47677237e-01 2.43179321e-01 2.38247335e-01 2.33493328e-01 2.29681253e-01 2.27786824e-01 2.29153588e-01 2.35787153e-01 2.50843018e-01 2.79359519e-01 3.28992188e-01 4.09026682e-01 5.22442877e-01 6.48743510e-01 7.42235124e-01 7.57435918e-01 6.17397904e-01 2.41520062e-01 3.34900022e-02 5.33395726e-03 2.39500473e-03 3.27648595e-03 6.21782755e-03 3.42298836e-01 3.01043659e-01 2.59043485e-01 2.36940145e-01 2.26896793e-01 2.23590538e-01 2.22688749e-01 2.22305477e-01 2.21438721e-01 2.19870076e-01 2.17996731e-01 2.16480330e-01 2.16117069e-01 2.17911616e-01 2.23278135e-01 2.34384984e-01 2.54670143e-01 2.89502442e-01 3.46477151e-01 4.33042616e-01 5.46805561e-01 6.62002504e-01 7.36590922e-01 7.30711341e-01 5.73912442e-01 2.39142179e-01 4.84823324e-02 1.16425538e-02 6.48562843e-03 9.16984864e-03 1.60377733e-02 3.10643762e-01 2.68107831e-01 2.24819556e-01 2.02713594e-01 1.93692252e-01 1.92090064e-01 1.93322465e-01 1.95317328e-01 1.96962401e-01 1.98077634e-01 1.99119806e-01 2.00792730e-01 2.03910738e-01 2.09480241e-01 2.18932435e-01 2.34490782e-01 2.59661496e-01 2.99723297e-01 3.61464739e-01 4.49750572e-01 5.58015287e-01 6.59731746e-01 7.18560278e-01 6.99630797e-01 5.48263371e-01 2.65624136e-01 7.99462050e-02 2.75285114e-02 1.79345608e-02 2.42640022e-02 3.80468890e-02 2.79669225e-01 2.36499175e-01 1.92824349e-01 1.71436921e-01 1.63680777e-01 1.63429543e-01 1.66292131e-01 1.70065969e-01 1.73713386e-01 1.77125335e-01 1.80822775e-01 1.85552925e-01 1.92141443e-01 2.01574281e-01 2.15240598e-01 2.35287502e-01 2.65032947e-01 3.09215397e-01 3.73210400e-01 4.59194750e-01 5.58288932e-01 6.46220267e-01 6.92749739e-01 6.68740094e-01 5.37467122e-01 3.09717208e-01 1.32069916e-01 6.14294484e-02 4.47885655e-02 5.61630391e-02 7.89263546e-02 2.49684721e-01 2.06511319e-01 1.63432807e-01 1.43374220e-01 1.37005553e-01 1.37728587e-01 1.41565099e-01 1.46437734e-01 1.51473835e-01 1.56672597e-01 1.62626892e-01 1.70139730e-01 1.80067077e-01 1.93389505e-01 2.11430758e-01 2.36152261e-01 2.70436257e-01 3.18074912e-01 3.82647663e-01 4.63954061e-01 5.52411377e-01 6.27501607e-01 6.65128529e-01 6.42763257e-01 5.38292408e-01 3.63224417e-01 2.04257309e-01 1.20565109e-01 9.57110748e-02 1.11444175e-01 1.42334357e-01 2.21983135e-01 1.79487988e-01 1.37744695e-01 1.19256951e-01 1.14035115e-01 1.15292847e-01 1.19474255e-01 1.24796867e-01 1.30580962e-01 1.36959031e-01 1.44609377e-01 1.54415339e-01 1.67318538e-01 1.84372723e-01 2.06898108e-01 2.36654684e-01 2.75932670e-01 3.27284724e-01 3.92286062e-01 4.68713462e-01 5.47208548e-01 6.11436546e-01 6.43368602e-01 6.27167523e-01 5.50710440e-01 4.22443211e-01 2.91295648e-01 2.05841690e-01 1.74605474e-01 1.91462964e-01 2.26292223e-01 1.98736668e-01 1.57533020e-01 1.17427692e-01 1.00290105e-01 9.56676006e-02 9.69197378e-02 1.00978471e-01 1.06258087e-01 1.12238035e-01 1.19185291e-01 1.27866760e-01 1.39272302e-01 1.54507086e-01 1.74833268e-01 2.01741248e-01 2.36947045e-01 2.82206297e-01 3.38744462e-01 4.06018496e-01 4.79867876e-01 5.51268280e-01 6.07691050e-01 6.36740685e-01 6.28523886e-01 5.76989949e-01 4.87560242e-01 3.86975765e-01 3.10096800e-01 2.76040643e-01 2.89446265e-01 3.22382271e-01 1.84080318e-01 1.43880218e-01 1.04916252e-01 8.83864388e-02 8.35998133e-02 8.44560042e-02 8.81841779e-02 9.32117477e-02 9.90914777e-02 1.06196202e-01 1.15372188e-01 1.27729535e-01 1.44594967e-01 1.67565212e-01 1.98520258e-01 2.39438683e-01 2.91859329e-01 3.55880618e-01 4.28833872e-01 5.04383683e-01 5.73227048e-01 6.25578642e-01 6.53650641e-01 6.52290583e-01 6.19062245e-01 5.57514012e-01 4.82634127e-01 4.18047011e-01 3.83771062e-01 3.90148014e-01 4.16541398e-01 1.91163301e-01 1.48320377e-01 1.07210763e-01 8.94038156e-02 8.33426788e-02 8.36704448e-02 8.72844234e-02 9.23502222e-02 9.83672068e-02 1.05782039e-01 1.15534328e-01 1.28867045e-01 1.47323817e-01 1.72820672e-01 2.07626611e-01 2.54029989e-01 3.13472450e-01 3.85126710e-01 4.64481235e-01 5.43286443e-01 6.11816585e-01 6.62109613e-01 6.89539015e-01 6.92071736e-01 6.69329584e-01 6.24030471e-01 5.65601587e-01 5.10701299e-01 4.76831079e-01 4.75026011e-01 4.93077427e-01 2.07220167e-01 1.71204001e-01 1.24859922e-01 1.04310133e-01 9.62666422e-02 9.61132571e-02 1.00057855e-01 1.05703391e-01 1.12361588e-01 1.20526545e-01 1.31245285e-01 1.45870104e-01 1.66044042e-01 1.93751082e-01 2.31240019e-01 2.80588716e-01 3.42730045e-01 4.16053206e-01 4.95304853e-01 5.72086811e-01 6.37434423e-01 6.84736311e-01 7.10696459e-01 7.14289188e-01 6.95739031e-01 6.57482266e-01 6.06997311e-01 5.57884872e-01 5.25477529e-01 5.19696534e-01 5.35735548e-01 
