# vtk DataFile Version 2.0
results/iter1.vtk, Created by Freefem++ 
ASCII
DATASET UNSTRUCTURED_GRID
POINTS 961 float
0 0 0
0.033333333 0 0
0.066666667 0 0
0.1 0 0
0.13333333 0 0
0.16666667 0 0
0.2 0 0
0.23333333 0 0
0.26666667 0 0
0.3 0 0
0.33333333 0 0
0.36666667 0 0
0.4 0 0
0.43333333 0 0
0.46666667 0 0
0.5 0 0
0.53333333 0 0
0.56666667 0 0
0.6 0 0
0.63333333 0 0
0.66666667 0 0
0.7 0 0
0.73333333 0 0
0.76666667 0 0
0.8 0 0
0.83333333 0 0
0.86666667 0 0
0.9 0 0
0.93333333 0 0
0.96666667 0 0
1 0 0
0 0.033333333 0
0.033333333 0.033333333 0
0.066666667 0.033333333 0
0.1 0.033333333 0
0.13333333 0.033333333 0
0.16666667 0.033333333 0
0.2 0.033333333 0
0.23333333 0.033333333 0
0.26666667 0.033333333 0
0.3 0.033333333 0
0.33333333 0.033333333 0
0.36666667 0.033333333 0
0.4 0.033333333 0
0.43333333 0.033333333 0
0.46666667 0.033333333 0
0.5 0.033333333 0
0.53333333 0.033333333 0
0.56666667 0.033333333 0
0.6 0.033333333 0
0.63333333 0.033333333 0
0.66666667 0.033333333 0
0.7 0.033333333 0
0.73333333 0.033333333 0
0.76666667 0.033333333 0
0.8 0.033333333 0
0.83333333 0.033333333 0
0.86666667 0.033333333 0
0.9 0.033333333 0
0.93333333 0.033333333 0
0.96666667 0.033333333 0
1 0.033333333 0
0 0.066666667 0
0.033333333 0.066666667 0
0.066666667 0.066666667 0
0.1 0.066666667 0
0.13333333 0.066666667 0
0.16666667 0.066666667 0
0.2 0.066666667 0
0.23333333 0.066666667 0
0.26666667 0.066666667 0
0.3 0.066666667 0
0.33333333 0.066666667 0
0.36666667 0.066666667 0
0.4 0.066666667 0
0.43333333 0.066666667 0
0.46666667 0.066666667 0
0.5 0.066666667 0
0.53333333 0.066666667 0
0.56666667 0.066666667 0
0.6 0.066666667 0
0.63333333 0.066666667 0
0.66666667 0.066666667 0
0.7 0.066666667 0
0.73333333 0.066666667 0
0.76666667 0.066666667 0
0.8 0.066666667 0
0.83333333 0.066666667 0
0.86666667 0.066666667 0
0.9 0.066666667 0
0.93333333 0.066666667 0
0.96666667 0.066666667 0
1 0.066666667 0
0 0.1 0
0.033333333 0.1 0
0.066666667 0.1 0
0.1 0.1 0
0.13333333 0.1 0
0.16666667 0.1 0
0.2 0.1 0
0.23333333 0.1 0
0.26666667 0.1 0
0.3 0.1 0
0.33333333 0.1 0
0.36666667 0.1 0
0.4 0.1 0
0.43333333 0.1 0
0.46666667 0.1 0
0.5 0.1 0
0.53333333 0.1 0
0.56666667 0.1 0
0.6 0.1 0
0.63333333 0.1 0
0.66666667 0.1 0
0.7 0.1 0
0.73333333 0.1 0
0.76666667 0.1 0
0.8 0.1 0
0.83333333 0.1 0
0.86666667 0.1 0
0.9 0.1 0
0.93333333 0.1 0
0.96666667 0.1 0
1 0.1 0
0 0.13333333 0
0.033333333 0.13333333 0
0.066666667 0.13333333 0
0.1 0.13333333 0
0.13333333 0.13333333 0
0.16666667 0.13333333 0
0.2 0.13333333 0
0.23333333 0.13333333 0
0.26666667 0.13333333 0
0.3 0.13333333 0
0.33333333 0.13333333 0
0.36666667 0.13333333 0
0.4 0.13333333 0
0.43333333 0.13333333 0
0.46666667 0.13333333 0
0.5 0.13333333 0
0.53333333 0.13333333 0
0.56666667 0.13333333 0
0.6 0.13333333 0
0.63333333 0.13333333 0
0.66666667 0.13333333 0
0.7 0.13333333 0
0.73333333 0.13333333 0
0.76666667 0.13333333 0
0.8 0.13333333 0
0.83333333 0.13333333 0
0.86666667 0.13333333 0
0.9 0.13333333 0
0.93333333 0.13333333 0
0.96666667 0.13333333 0
1 0.13333333 0
0 0.16666667 0
0.033333333 0.16666667 0
0.066666667 0.16666667 0
0.1 0.16666667 0
0.13333333 0.16666667 0
0.16666667 0.16666667 0
0.2 0.16666667 0
0.23333333 0.16666667 0
0.26666667 0.16666667 0
0.3 0.16666667 0
0.33333333 0.16666667 0
0.36666667 0.16666667 0
0.4 0.16666667 0
0.43333333 0.16666667 0
0.46666667 0.16666667 0
0.5 0.16666667 0
0.53333333 0.16666667 0
0.56666667 0.16666667 0
0.6 0.16666667 0
0.63333333 0.16666667 0
0.66666667 0.16666667 0
0.7 0.16666667 0
0.73333333 0.16666667 0
0.76666667 0.16666667 0
0.8 0.16666667 0
0.83333333 0.16666667 0
0.86666667 0.16666667 0
0.9 0.16666667 0
0.93333333 0.16666667 0
0.96666667 0.16666667 0
1 0.16666667 0
0 0.2 0
0.033333333 0.2 0
0.066666667 0.2 0
0.1 0.2 0
0.13333333 0.2 0
0.16666667 0.2 0
0.2 0.2 0
0.23333333 0.2 0
0.26666667 0.2 0
0.3 0.2 0
0.33333333 0.2 0
0.36666667 0.2 0
0.4 0.2 0
0.43333333 0.2 0
0.46666667 0.2 0
0.5 0.2 0
0.53333333 0.2 0
0.56666667 0.2 0
0.6 0.2 0
0.63333333 0.2 0
0.66666667 0.2 0
0.7 0.2 0
0.73333333 0.2 0
0.76666667 0.2 0
0.8 0.2 0
0.83333333 0.2 0
0.86666667 0.2 0
0.9 0.2 0
0.93333333 0.2 0
0.96666667 0.2 0
1 0.2 0
0 0.23333333 0
0.033333333 0.23333333 0
0.066666667 0.23333333 0
0.1 0.23333333 0
0.13333333 0.23333333 0
0.16666667 0.23333333 0
0.2 0.23333333 0
0.23333333 0.23333333 0
0.26666667 0.23333333 0
0.3 0.23333333 0
0.33333333 0.23333333 0
0.36666667 0.23333333 0
0.4 0.23333333 0
0.43333333 0.23333333 0
0.46666667 0.23333333 0
0.5 0.23333333 0
0.53333333 0.23333333 0
0.56666667 0.23333333 0
0.6 0.23333333 0
0.63333333 0.23333333 0
0.66666667 0.23333333 0
0.7 0.23333333 0
0.73333333 0.23333333 0
0.76666667 0.23333333 0
0.8 0.23333333 0
0.83333333 0.23333333 0
0.86666667 0.23333333 0
0.9 0.23333333 0
0.93333333 0.23333333 0
0.96666667 0.23333333 0
1 0.23333333 0
0 0.26666667 0
0.033333333 0.26666667 0
0.066666667 0.26666667 0
0.1 0.26666667 0
0.13333333 0.26666667 0
0.16666667 0.26666667 0
0.2 0.26666667 0
0.23333333 0.26666667 0
0.26666667 0.26666667 0
0.3 0.26666667 0
0.33333333 0.26666667 0
0.36666667 0.26666667 0
0.4 0.26666667 0
0.43333333 0.26666667 0
0.46666667 0.26666667 0
0.5 0.26666667 0
0.53333333 0.26666667 0
0.56666667 0.26666667 0
0.6 0.26666667 0
0.63333333 0.26666667 0
0.66666667 0.26666667 0
0.7 0.26666667 0
0.73333333 0.26666667 0
0.76666667 0.26666667 0
0.8 0.26666667 0
0.83333333 0.26666667 0
0.86666667 0.26666667 0
0.9 0.26666667 0
0.93333333 0.26666667 0
0.96666667 0.26666667 0
1 0.26666667 0
0 0.3 0
0.033333333 0.3 0
0.066666667 0.3 0
0.1 0.3 0
0.13333333 0.3 0
0.16666667 0.3 0
0.2 0.3 0
0.23333333 0.3 0
0.26666667 0.3 0
0.3 0.3 0
0.33333333 0.3 0
0.36666667 0.3 0
0.4 0.3 0
0.43333333 0.3 0
0.46666667 0.3 0
0.5 0.3 0
0.53333333 0.3 0
0.56666667 0.3 0
0.6 0.3 0
0.63333333 0.3 0
0.66666667 0.3 0
0.7 0.3 0
0.73333333 0.3 0
0.76666667 0.3 0
0.8 0.3 0
0.83333333 0.3 0
0.86666667 0.3 0
0.9 0.3 0
0.93333333 0.3 0
0.96666667 0.3 0
1 0.3 0
0 0.33333333 0
0.033333333 0.33333333 0
0.066666667 0.33333333 0
0.1 0.33333333 0
0.13333333 0.33333333 0
0.16666667 0.33333333 0
0.2 0.33333333 0
0.23333333 0.33333333 0
0.26666667 0.33333333 0
0.3 0.33333333 0
0.33333333 0.33333333 0
0.36666667 0.33333333 0
0.4 0.33333333 0
0.43333333 0.33333333 0
0.46666667 0.33333333 0
0.5 0.33333333 0
0.53333333 0.33333333 0
0.56666667 0.33333333 0
0.6 0.33333333 0
0.63333333 0.33333333 0
0.66666667 0.33333333 0
0.7 0.33333333 0
0.73333333 0.33333333 0
0.76666667 0.33333333 0
0.8 0.33333333 0
0.83333333 0.33333333 0
0.86666667 0.33333333 0
0.9 0.33333333 0
0.93333333 0.33333333 0
0.96666667 0.33333333 0
1 0.33333333 0
0 0.36666667 0
0.033333333 0.36666667 0
0.066666667 0.36666667 0
0.1 0.36666667 0
0.13333333 0.36666667 0
0.16666667 0.36666667 0
0.2 0.36666667 0
0.23333333 0.36666667 0
0.26666667 0.36666667 0
0.3 0.36666667 0
0.33333333 0.36666667 0
0.36666667 0.36666667 0
0.4 0.36666667 0
0.43333333 0.36666667 0
0.46666667 0.36666667 0
0.5 0.36666667 0
0.53333333 0.36666667 0
0.56666667 0.36666667 0
0.6 0.36666667 0
0.63333333 0.36666667 0
0.66666667 0.36666667 0
0.7 0.36666667 0
0.73333333 0.36666667 0
0.76666667 0.36666667 0
0.8 0.36666667 0
0.83333333 0.36666667 0
0.86666667 0.36666667 0
0.9 0.36666667 0
0.93333333 0.36666667 0
0.96666667 0.36666667 0
1 0.36666667 0
0 0.4 0
0.033333333 0.4 0
0.066666667 0.4 0
0.1 0.4 0
0.13333333 0.4 0
0.16666667 0.4 0
0.2 0.4 0
0.23333333 0.4 0
0.26666667 0.4 0
0.3 0.4 0
0.33333333 0.4 0
0.36666667 0.4 0
0.4 0.4 0
0.43333333 0.4 0
0.46666667 0.4 0
0.5 0.4 0
0.53333333 0.4 0
0.56666667 0.4 0
0.6 0.4 0
0.63333333 0.4 0
0.66666667 0.4 0
0.7 0.4 0
0.73333333 0.4 0
0.76666667 0.4 0
0.8 0.4 0
0.83333333 0.4 0
0.86666667 0.4 0
0.9 0.4 0
0.93333333 0.4 0
0.96666667 0.4 0
1 0.4 0
0 0.43333333 0
0.033333333 0.43333333 0
0.066666667 0.43333333 0
0.1 0.43333333 0
0.13333333 0.43333333 0
0.16666667 0.43333333 0
0.2 0.43333333 0
0.23333333 0.43333333 0
0.26666667 0.43333333 0
0.3 0.43333333 0
0.33333333 0.43333333 0
0.36666667 0.43333333 0
0.4 0.43333333 0
0.43333333 0.43333333 0
0.46666667 0.43333333 0
0.5 0.43333333 0
0.53333333 0.43333333 0
0.56666667 0.43333333 0
0.6 0.43333333 0
0.63333333 0.43333333 0
0.66666667 0.43333333 0
0.7 0.43333333 0
0.73333333 0.43333333 0
0.76666667 0.43333333 0
0.8 0.43333333 0
0.83333333 0.43333333 0
0.86666667 0.43333333 0
0.9 0.43333333 0
0.93333333 0.43333333 0
0.96666667 0.43333333 0
1 0.43333333 0
0 0.46666667 0
0.033333333 0.46666667 0
0.066666667 0.46666667 0
0.1 0.46666667 0
0.13333333 0.46666667 0
0.16666667 0.46666667 0
0.2 0.46666667 0
0.23333333 0.46666667 0
0.26666667 0.46666667 0
0.3 0.46666667 0
0.33333333 0.46666667 0
0.36666667 0.46666667 0
0.4 0.46666667 0
0.43333333 0.46666667 0
0.46666667 0.46666667 0
0.5 0.46666667 0
0.53333333 0.46666667 0
0.56666667 0.46666667 0
0.6 0.46666667 0
0.63333333 0.46666667 0
0.66666667 0.46666667 0
0.7 0.46666667 0
0.73333333 0.46666667 0
0.76666667 0.46666667 0
0.8 0.46666667 0
0.83333333 0.46666667 0
0.86666667 0.46666667 0
0.9 0.46666667 0
0.93333333 0.46666667 0
0.96666667 0.46666667 0
1 0.46666667 0
0 0.5 0
0.033333333 0.5 0
0.066666667 0.5 0
0.1 0.5 0
0.13333333 0.5 0
0.16666667 0.5 0
0.2 0.5 0
0.23333333 0.5 0
0.26666667 0.5 0
0.3 0.5 0
0.33333333 0.5 0
0.36666667 0.5 0
0.4 0.5 0
0.43333333 0.5 0
0.46666667 0.5 0
0.5 0.5 0
0.53333333 0.5 0
0.56666667 0.5 0
0.6 0.5 0
0.63333333 0.5 0
0.66666667 0.5 0
0.7 0.5 0
0.73333333 0.5 0
0.76666667 0.5 0
0.8 0.5 0
0.83333333 0.5 0
0.86666667 0.5 0
0.9 0.5 0
0.93333333 0.5 0
0.96666667 0.5 0
1 0.5 0
0 0.53333333 0
0.033333333 0.53333333 0
0.066666667 0.53333333 0
0.1 0.53333333 0
0.13333333 0.53333333 0
0.16666667 0.53333333 0
0.2 0.53333333 0
0.23333333 0.53333333 0
0.26666667 0.53333333 0
0.3 0.53333333 0
0.33333333 0.53333333 0
0.36666667 0.53333333 0
0.4 0.53333333 0
0.43333333 0.53333333 0
0.46666667 0.53333333 0
0.5 0.53333333 0
0.53333333 0.53333333 0
0.56666667 0.53333333 0
0.6 0.53333333 0
0.63333333 0.53333333 0
0.66666667 0.53333333 0
0.7 0.53333333 0
0.73333333 0.53333333 0
0.76666667 0.53333333 0
0.8 0.53333333 0
[...]
CELL_DATA 1920
Scalars  Label int 1
LOOKUP_TABLE FreeFempp_table
0
0
0
0
0
0
0
0
0
0
0
0
0
0
0
0
0
0
0
0
0
0
0
0
0
0
0
0
0
0
0
0
0
0
0
0
0
0
0
0
0
0
0
0
0
0
0
0
0
0
0
0
0
0
0
0
0
0
0
0
0
0
0
0
0
0
0
0
0
0
0
0
0
0
0
0
0
0
0
0
0
0
0
0
0
0
0
0
0
0
0
0
0
0
0
0
0
0
0
0
0
0
0
0
0
0
0
0
0
0
0
0
0
0
0
0
0
0
0
0
0
0
0
0
0
0
0
0
0
0
0
0
0
0
0
0
0
0
0
0
0
0
0
0
0
0
0
0
0
0
0
0
0
0
0
0
0
0
0
0
0
0
0
0
0
0
0
0
0
0
0
0
0
0
0
0
0
0
0
0
0
0
0
0
0
0
0
0
0
0
0
0
0
0
0
0
0
0
0
0
0
0
0
0
0
0
0
0
0
0
0
0
0
0
0
0
0
0
0
0
0
0
0
0
0
0
0
0
0
0
0
0
0
0
0
0
0
0
0
0
0
0
0
0
0
0
0
0
0
0
0
0
0
0
0
0
0
0
0
0
0
0
0
0
0
0
0
0
0
0
0
0
0
0
0
0
0
0
0
0
0
0
0
0
0
0
0
0
0
0
0
0
0
0
0
0
0
0
0
0
0
0
0
0
0
0
0
0
0
0
0
0
0
0
0
0
0
0
0
0
0
0
0
0
0
0
0
0
0
0
0
0
0
0
0
0
0
0
0
0
0
0
0
0
0
0
0
0
0
0
0
0
0
0
0
0
0
0
0
0
0
0
0
0
0
0
0
0
0
0
0
0
0
0
0
0
0
0
0
0
0
0
0
0
0
0
0
0
0
0
0
0
0
0
0
0
0
0
0
0
0
0
0
0
0
0
0
0
0
0
0
0
0
0
0
0
0
0
0
0
0
0
0
0
0
0
0
0
0
0
0
0
0
0
0
0
0
0
0
0
0
0
0
0
0
0
0
0
0
0
0
0
0
0
0
0
0
0
0
0
0
0
0
0
0
0
0
0
0
0
0
0
0
0
0
0
0
0
0
0
0
0
0
0
0
0
0
0
0
0
0
0
0
0
0
0
0
0
0
0
0
0
0
0
0
0
0
0
0
0
0
0
0
0
0
0
0
0
0
0
0
0
0
0
0
0
0
0
0
0
0
0
0
0
0
0
0
0
0
0
0
0
0
0
0
0
0
0
0
0
0
0
0
0
0
0
0
0
0
0
0
0
0
0
0
0
0
0
0
0
0
0
0
0
0
0
0
0
0
0
0
0
0
0
0
0
0
0
0
0
0
0
0
0
0
0
0
0
0
0
0
0
0
0
0
0
0
0
0
0
0
0
0
0
0
0
0
0
0
0
0
0
0
0
0
0
0
0
0
0
0
0
0
0
0
0
0
0
0
0
0
0
0
0
0
0
0
0
0
0
0
0
0
0
0
0
0
0
0
0
0
0
0
0
0
0
0
0
0
0
0
0
0
0
0
0
0
0
0
0
0
0
0
0
0
0
0
0
0
0
0
0
0
0
0
0
0
0
0
0
0
0
0
0
0
0
0
0
0
0
0
0
0
0
0
0
0
0
0
0
0
0
0
0
0
0
0
0
0
0
0
0
0
0
0
0
0
0
0
0
0
0
0
0
0
0
0
0
0
0
0
0
0
0
0
0
0
0
0
0
0
0
0
0
0
0
0
0
0
0
0
0
0
0
0
0
0
0
0
0
0
0
0
0
0
0
0
0
0
0
0
0
0
0
0
0
0
0
0
0
0
0
0
0
0
0
0
0
0
0
0
0
0
0
0
0
0
0
0
0
0
0
0
0
0
0
0
0
0
0
0
0
0
0
0
0
0
0
0
0
0
0
0
0
0
0
0
0
0
0
0
0
0
0
0
0
0
0
0
0
0
0
0
0
0
0
0
0
0
0
0
0
0
0
0
0
0
0
0
0
0
0
0
0
0
0
0
0
0
0
0
0
0
0
0
0
0
0
0
0
0
0
0
0
0
0
0
0
0
0
0
0
0
0
0
0
0
0
0
0
0
0
0
0
0
0
0
0
0
0
0
0
0
0
0
0
0
0
0
0
0
0
0
0
0
0
0
0
0
0
0
0
0
0
0
0
0
0
0
0
0
0
0
0
0
0
0
0
0
0
0
0
0
0
0
0
0
0
0
0
0
0
0
0
0
0
0
0
0
0
0
0
0
0
0
0
0
0
0
0
0
0
0
0
0
0
0
0
0
0
0
0
0
0
0
0
0
0
0
0
0
0
0
0
0
0
0
0
0
0
0
0
0
0
0
0
0
0
0
0
0
0
0
0
0
0
0
0
0
0
0
0
0
0
0
0
0
0
0
0
0
0
0
0
0
0
0
0
0
0
0
0
0
0
0
0
0
0
0
0
0
0
0
0
0
0
0
0
0
0
0
0
0
0
0
0
0
0
0
0
0
0
0
0
0
0
0
0
0
0
0
0
0
0
0
0
0
0
0
0
0
0
0
0
0
0
0
0
0
0
0
0
0
0
0
0
0
0
0
0
0
0
0
0
0
0
0
0
0
0
0
0
0
0
0
0
0
0
0
0
0
0
0
0
0
0
0
0
0
0
0
0
0
0
0
0
0
0
0
0
0
0
0
0
0
0
0
0
0
0
0
0
0
0
0
0
0
0
0
0
0
0
0
0
0
0
0
0
0
0
0
0
0
0
0
0
0
0
0
0
0
0
0
0
0
0
0
0
0
0
0
0
0
0
0
0
0
0
0
0
0
0
0
0
0
0
0
0
0
0
0
0
0
0
0
0
0
0
0
0
0
0
0
0
0
0
0
0
0
0
0
0
0
0
0
0
0
0
0
0
0
0
0
0
0
0
0
0
0
0
0
0
0
0
0
0
0
0
0
0
0
0
0
0
0
0
0
0
0
0
0
0
0
0
0
0
0
0
0
0
0
0
0
0
0
0
0
0
0
0
0
0
0
0
0
0
0
0
0
0
0
0
0
0
0
0
0
0
0
0
0
0
0
0
0
0
0
0
0
0
0
0
0
0
0
0
0
0
0
0
0
0
0
0
0
0
0
0
0
0
0
0
0
0
0
0
0
0
0
0
0
0
0
0
0
0
0
0
0
0
0
0
0
0
0
0
0
0
0
0
0
0
0
0
0
0
0
0
0
0
0
0
0
0
0
0
0
0
0
0
0
0
0
0
0
0
0
0
0
0
0
0
0
0
0
0
0
0
0
0
0
0
0
0
0
0
0
0
0
0
0
0
0
0
0
0
0
0
0
0
0
0
0
0
0
0
0
0
0
0
0
0
0
0
0
0
0
0
0
0
0
0
0
0
0
0
0
0
0
0
0
0
0
0
0
0
0
0
0
0
0
0
0
0
0
0
0
0
0
0
0
0
0
0
0
0
0
0
0
0
0
0
0
0
0
0
0
0
0
0
0
0
0
0
0
0
0
0
0
0
0
0
0
0
0
0
0
0
0
0
0
0
0
0
0
0
0
0
0
0
0
0
0
0
0
0
0
0
0
0
0
0
0
0
0
0
0
0
0
0
0
0
0
0
0
0
0
0
0
0
0
0
0
0
0
0
0
0
0
0
0
0
0
0
0
0
0
0
0
0
0
0
0
0
0
0
0
0
0
0
0
0
0
0
0
0
0
0
0
0
0
0
0
0
0
0
0
0
0
0
0
0
0
0
0
0
0
0
0
0
0
0
0
0
0
0
0
0
0
0
0
0
0
0
0
0
0
0
0
0
0
0
0
0
0
0
0
0
0
0
0
0
0
0
0
0
0
0
0
0
0
0
0
0
0
0
0
0
0
0
0
0
0
0
0
0
0
0
0
0
0
0
0
0
0
0
0
0
0
0
0
0
0
0
0
0
0
0
0
0
0
0
0
0
0
0
0
0
0
0
0
0
0
0
0
0
0
0
0
0
0
0
0
0
0
0
0
0
0
0
0
0
0
0
0
0
0
0
0
0
0
0
0
0
0
0
0
0
0
0
0
0
0
0
0
0
0
0
0
0
1
1
1
1
1
1
1
1
1
1
1
1
1
1
1
1
1
1
1
1
1
1
1
1
1
1
1
1
1
1
2
2
2
2
2
2
2
2
2
2
2
2
2
2
2
2
2
2
2
2
2
2
2
2
2
2
2
2
2
2
3
3
3
3
3
3
3
3
3
3
3
3
3
3
3
3
3
3
3
3
3
3
3
3
3
3
3
3
3
3
4
4
4
4
4
4
4
4
4
4
4
4
4
4
4
4
4
4
4
4
4
4
4
4
4
4
4
4
4
4

LOOKUP_TABLE FreeFempp_table 5
1.00000000 0.00000000 0.00000000 1.00000000
1.00000000 1.00000000 0.00000000 1.00000000
1.00000000 0.00000000 1.00000000 1.00000000
0.00000000 1.00000000 0.00000000 1.00000000
0.00000000 1.00000000 1.00000000 1.00000000

POINT_DATA 961
FIELD FieldData 1
Density 1 961 float
3.03332031e-01 2.56711602e-01 2.71170110e-01 3.11108142e-01 3.51525187e-01 3.88606936e-01 4.21767741e-01 4.50712413e-01 4.74739432e-01 4.92882699e-01 5.04327357e-01 5.08822203e-01 5.06860793e-01 4.99609560e-01 4.88650918e-01 4.75583851e-01 4.61745620e-01 4.48086709e-01 4.35137182e-01 4.23018575e-01 4.11471784e-01 3.99893135e-01 3.87390822e-01 3.72883976e-01 3.55273396e-01 3.33639205e-01 3.07234913e-01 2.75259525e-01 2.41447553e-01 2.77678132e-01 3.63170981e-01 2.52303928e-01 1.94323480e-01 2.27535054e-01 2.88368046e-01 3.43426734e-01 3.93366039e-01 4.37310278e-01 4.73170251e-01 4.99844432e-01 5.17598391e-01 5.27539372e-01 5.31196654e-01 5.30377626e-01 5.26877582e-01 5.21878958e-01 5.15484869e-01 5.06792367e-01 4.94403690e-01 4.77077931e-01 4.54383552e-01 4.27356154e-01 3.98914576e-01 3.72996360e-01 3.51474017e-01 3.31299573e-01 3.06608260e-01 2.73479432e-01 2.30120525e-01 1.73841059e-01 1.59652233e-01 2.76515245e-01 2.58970261e-01 2.19164699e-01 2.61530638e-01 3.48006070e-01 3.90713513e-01 4.07298088e-01 4.14051443e-01 4.17193234e-01 4.18847024e-01 4.19734925e-01 4.20133144e-01 4.20184135e-01 4.19987291e-01 4.19616789e-01 4.19115633e-01 4.18504149e-01 4.17795449e-01 4.17006016e-01 4.16161001e-01 4.15291995e-01 4.14423466e-01 4.13544893e-01 4.12557423e-01 4.11157787e-01 4.08543676e-01 4.02616918e-01 3.87730777e-01 3.48125488e-01 2.43078783e-01 1.66087419e-01 2.31810912e-01 2.86911428e-01 2.62067795e-01 3.37959945e-01 3.97091359e-01 4.11197662e-01 4.14900512e-01 4.15586174e-01 4.15261149e-01 4.14579213e-01 4.13795054e-01 4.13026899e-01 4.12336290e-01 4.11757380e-01 4.11309361e-01 4.11002070e-01 4.10838813e-01 4.10819322e-01 4.10941839e-01 4.11203474e-01 4.11599249e-01 4.12119299e-01 4.12741691e-01 4.13415849e-01 4.14027065e-01 4.14313823e-01 4.13623542e-01 4.10008371e-01 3.96112472e-01 3.31790447e-01 2.04507768e-01 2.43577793e-01 3.13817829e-01 2.90591449e-01 3.76764119e-01 4.09338772e-01 4.14326727e-01 4.15062249e-01 4.14422661e-01 4.13200051e-01 4.11804646e-01 4.10474390e-01 4.09325719e-01 4.08398598e-01 4.07693416e-01 4.07195300e-01 4.06887233e-01 4.06756490e-01 4.06798393e-01 4.07017678e-01 4.07428473e-01 4.08051521e-01 4.08907324e-01 4.10001814e-01 4.11300123e-01 4.12685335e-01 4.13907170e-01 4.14512962e-01 4.13530588e-01 4.07056510e-01 3.67600948e-01 2.28292495e-01 2.53787160e-01 3.36910456e-01 3.12149227e-01 3.92867237e-01 4.12871093e-01 4.14801538e-01 4.13940400e-01 4.12232637e-01 4.10343587e-01 4.08615649e-01 4.07191515e-01 4.06093925e-01 4.05289173e-01 4.04726326e-01 4.04356569e-01 4.04141694e-01 4.04057264e-01 4.04094398e-01 4.04260278e-01 4.04578567e-01 4.05088335e-01 4.05841231e-01 4.06893015e-01 4.08283174e-01 4.09991801e-01 4.11862165e-01 4.13480312e-01 4.13921148e-01 4.10213828e-01 3.82258624e-01 2.41493925e-01 2.63177246e-01 3.55178952e-01 3.31656188e-01 4.00073260e-01 4.13748592e-01 4.14189577e-01 4.12226051e-01 4.09807503e-01 4.07644808e-01 4.05958176e-01 4.04745936e-01 4.03927237e-01 4.03406858e-01 4.03098375e-01 4.02930319e-01 4.02848125e-01 4.02816743e-01 4.02823329e-01 4.02878672e-01 4.03016329e-01 4.03290182e-01 4.03772235e-01 4.04550552e-01 4.05722469e-01 4.07367945e-01 4.09473062e-01 4.11751390e-01 4.13257927e-01 4.11106825e-01 3.89234245e-01 2.51474798e-01 2.73129195e-01 3.68014991e-01 3.48724008e-01 4.03795630e-01 4.13644731e-01 4.13016081e-01 4.10349399e-01 4.07654911e-01 4.05563563e-01 4.04141933e-01 4.03276712e-01 4.02829021e-01 4.02674377e-01 4.02702034e-01 4.02810842e-01 4.02914196e-01 4.02951896e-01 4.02901798e-01 4.02784258e-01 4.02657896e-01 4.02608097e-01 4.02735144e-01 4.03149247e-01 4.03973758e-01 4.05342877e-01 4.07352775e-01 4.09879565e-01 4.12094980e-01 4.11144704e-01 3.93301338e-01 2.61132598e-01 2.83392698e-01 3.75427485e-01 3.61365527e-01 4.05933827e-01 4.13125515e-01 4.11638558e-01 4.08614874e-01 4.05964345e-01 4.04141217e-01 4.03087020e-01 4.02641505e-01 4.02658522e-01 4.03001964e-01 4.03521746e-01 4.04053539e-01 4.04444396e-01 4.04586077e-01 4.04439181e-01 4.04041618e-01 4.03500319e-01 4.02966857e-01 4.02604133e-01 4.02560413e-01 4.02968884e-01 4.03969258e-01 4.05704588e-01 4.08183157e-01 4.10779834e-01 4.10828054e-01 3.96143705e-01 2.71271318e-01 2.93561190e-01 3.78085971e-01 3.68767321e-01 4.07170415e-01 4.12431419e-01 4.10294265e-01 4.07167226e-01 4.04735893e-01 4.03265536e-01 4.02633369e-01 4.02695924e-01 4.03330058e-01 4.04373080e-01 4.05591518e-01 4.06716555e-01 4.07505304e-01 4.07788485e-01 4.07504261e-01 4.06713367e-01 4.05583978e-01 4.04357761e-01 4.03301895e-01 4.02647495e-01 4.02553737e-01 4.03136909e-01 4.04524773e-01 4.06796277e-01 4.09536809e-01 4.10393804e-01 3.98385108e-01 2.82051802e-01 3.03452432e-01 3.76994550e-01 3.71317029e-01 4.07782555e-01 4.11689252e-01 4.09110844e-01 4.06037629e-01 4.03895169e-01 4.02802557e-01 4.02638286e-01 4.03318912e-01 4.04737890e-01 4.06659365e-01 4.08740580e-01 4.10630077e-01 4.11985725e-01 4.12486732e-01 4.11987036e-01 4.10631895e-01 4.08741355e-01 4.06656623e-01 4.04727489e-01 4.03294235e-01 4.02589202e-01 4.02712673e-01 4.03734535e-01 4.05739486e-01 4.08482015e-01 4.09970164e-01 4.00278628e-01 2.93448955e-01 3.13059539e-01 3.73136371e-01 3.69746208e-01 4.07912970e-01 4.10974354e-01 4.08139497e-01 4.05200034e-01 4.03352797e-01 4.02632385e-01 4.02968973e-01 4.04349893e-01 4.06647295e-01 4.09548134e-01 4.12760019e-01 4.16048437e-01 4.18796182e-01 4.19915259e-01 4.18798685e-01 4.16052938e-01 4.12765622e-01 4.09553409e-01 4.06649232e-01 4.04343098e-01 4.02944833e-01 4.02577162e-01 4.03242111e-01 4.04980600e-01 4.07658219e-01 4.09627765e-01 4.01939809e-01 3.05342495e-01 3.22439134e-01 3.67317408e-01 3.64741266e-01 4.07657862e-01 4.10333395e-01 4.07389373e-01 4.04609203e-01 4.03026849e-01 4.02647674e-01 4.03477848e-01 4.05557096e-01 4.08716559e-01 4.12747711e-01 4.17955965e-01 4.24717486e-01 4.31596458e-01 4.34713453e-01 4.31599677e-01 4.24723655e-01 4.17964637e-01 4.12758410e-01 4.08727437e-01 4.05564129e-01 4.03474569e-01 4.02623773e-01 4.02964711e-01 4.04471368e-01 4.07068819e-01 4.09404218e-01 4.03425723e-01 3.17517251e-01 3.31640750e-01 3.60154361e-01 3.56944501e-01 4.07093436e-01 4.09796685e-01 4.06852245e-01 4.04220849e-01 4.02849257e-01 4.02749807e-01 4.04002368e-01 4.06672865e-01 4.10595089e-01 4.16024089e-01 4.24704731e-01 4.38778967e-01 4.55550700e-01 4.63336200e-01 4.55554575e-01 4.38786834e-01 4.24716204e-01 4.16039050e-01 4.10612762e-01 4.06690985e-01 4.04016912e-01 4.02754515e-01 4.02834058e-01 4.04165953e-01 4.06701505e-01 4.09318686e-01 4.04761851e-01 3.29650521e-01 3.40671808e-01 3.52068901e-01 3.46969366e-01 4.06281412e-01 4.09385622e-01 4.06517208e-01 4.04000521e-01 4.02767956e-01 4.02853936e-01 4.04390782e-01 4.07455176e-01 4.11941141e-01 4.18760091e-01 4.31569695e-01 4.55534965e-01 4.76912260e-01 4.76126045e-01 4.76917863e-01 4.55545306e-01 4.31584150e-01 4.18778658e-01 4.11964208e-01 4.07482475e-01 4.04420972e-01 4.02885169e-01 4.02798444e-01 4.04029340e-01 4.06542242e-01 4.09381062e-01 4.05951500e-01 3.41277212e-01 3.49464238e-01 3.43261600e-01 3.35311383e-01 4.05269295e-01 4.09117967e-01 4.06378478e-01 4.03927386e-01 4.02749628e-01 4.02900815e-01 4.04535443e-01 4.07735080e-01 4.12433982e-01 4.19867694e-01 4.34671819e-01 4.63302821e-01 4.76101905e-01 4.76099968e-01 4.76108909e-01 4.63315666e-01 4.34689254e-01 4.19889331e-01 4.12461579e-01 4.07770395e-01 4.04580027e-01 4.02957439e-01 4.02825236e-01 4.04040605e-01 4.06582892e-01 4.09598172e-01 4.06979978e-01 3.51716131e-01 3.57812583e-01 3.33717525e-01 3.22281122e-01 4.04091388e-01 4.09012944e-01 4.06440169e-01 4.03996289e-01 4.02782589e-01 4.02868301e-01 4.04396892e-01 4.07450795e-01 4.11927760e-01 4.18740451e-01 4.31544453e-01 4.55503970e-01 4.76871163e-01 4.76082146e-01 4.76878822e-01 4.55518275e-01 4.31563675e-01 4.18764561e-01 4.11959499e-01 4.07493800e-01 4.04455662e-01 4.02950346e-01 4.02903706e-01 4.04194951e-01 4.06825662e-01 4.09978479e-01 4.07816917e-01 3.60014319e-01 3.65289301e-01 3.23254973e-01 3.08043927e-01 4.02772129e-01 4.09097224e-01 4.06719923e-01 4.04219091e-01 4.02878165e-01 4.02776033e-01 4.04012412e-01 4.06663120e-01 4.10568237e-01 4.15985644e-01 4.24657971e-01 4.38723862e-01 4.55489874e-01 4.63274896e-01 4.55497354e-01 4.38737750e-01 4.24677432e-01 4.16011572e-01 4.10604119e-01 4.06714171e-01 4.04086083e-01 4.02884692e-01 4.03046429e-01 4.04504806e-01 4.07286108e-01 4.10536855e-01 4.08418775e-01 3.64970028e-01 3.71176094e-01 3.11572552e-01 2.92693079e-01 4.01334077e-01 4.09413189e-01 4.07252550e-01 4.04625863e-01 4.03070033e-01 4.02680904e-01 4.03487593e-01 4.05540168e-01 4.08676714e-01 4.12692308e-01 4.17891651e-01 4.24647301e-01 4.31521922e-01 4.34638113e-01 4.31528181e-01 4.24659610e-01 4.17910576e-01 4.12719756e-01 4.08716947e-01 4.05600041e-01 4.03577626e-01 4.02818471e-01 4.03288484e-01 4.05001104e-01 4.07996863e-01 4.11302567e-01 4.08736348e-01 3.65099788e-01 3.74424994e-01 2.98259169e-01 2.76267409e-01 3.99815738e-01 4.10032302e-01 4.08094019e-01 4.05265987e-01 4.03411895e-01 4.02665555e-01 4.02971834e-01 4.04323071e-01 4.06595737e-01 4.09479678e-01 4.12682444e-01 4.15967077e-01 4.18713599e-01 4.19833064e-01 4.18718934e-01 4.15978342e-01 4.12701160e-01 4.09508854e-01 4.06640828e-01 4.04392868e-01 4.03080225e-01 4.02835339e-01 4.03685242e-01 4.05734807e-01 4.09012139e-01 4.12332684e-01 4.08729225e-01 3.58331203e-01 3.73622298e-01 2.82781810e-01 2.58720189e-01 3.98308784e-01 4.11079735e-01 4.09326345e-01 4.06207949e-01 4.03975457e-01 4.02826101e-01 4.02624816e-01 4.03277725e-01 4.04675782e-01 4.06583279e-01 4.08657044e-01 4.10543919e-01 4.11899567e-01 4.12401855e-01 4.11904842e-01 4.10555422e-01 4.08676893e-01 4.06615406e-01 4.04726863e-01 4.03358817e-01 4.02753741e-01 4.03032124e-01 4.04310077e-01 4.06776696e-01 4.10412818e-01 4.13735926e-01 4.08385634e-01 3.41767490e-01 3.67015928e-01 2.64499843e-01 2.39900246e-01 3.97030503e-01 4.12779182e-01 4.11063075e-01 4.07535315e-01 4.04848516e-01 4.03266966e-01 4.02590305e-01 4.02633041e-01 4.03256655e-01 4.04294103e-01 4.05510545e-01 4.06636089e-01 4.07426804e-01 4.07712877e-01 4.07432884e-01 4.06649321e-01 4.05533373e-01 4.04330909e-01 4.03315216e-01 4.02726620e-01 4.02741224e-01 4.03512359e-01 4.05251116e-01 4.08213168e-01 4.12313908e-01 4.15719956e-01 4.07760859e-01 3.12922359e-01 3.52778822e-01 2.42759436e-01 2.19599500e-01 3.96457225e-01 4.15537268e-01 4.13454175e-01 4.09332275e-01 4.06129181e-01 4.04104948e-01 4.02996451e-01 4.02545094e-01 4.02568579e-01 4.02920157e-01 4.03447449e-01 4.03985888e-01 4.04382765e-01 4.04530406e-01 4.04390424e-01 4.04002309e-01 4.03475106e-01 4.02963638e-01 4.02636111e-01 4.02651489e-01 4.03168023e-01 4.04387653e-01 4.06601161e-01 4.10128891e-01 4.14875478e-01 4.18688804e-01 4.07064021e-01 2.72903502e-01 3.29466850e-01 2.17081875e-01 1.97724745e-01 3.97557616e-01 4.20096010e-01 4.16690439e-01 4.11649168e-01 4.07904565e-01 4.05471951e-01 4.03981328e-01 4.03128922e-01 4.02709723e-01 4.02580768e-01 4.02628243e-01 4.02752101e-01 4.02867526e-01 4.02916104e-01 4.02877212e-01 4.02772605e-01 4.02662039e-01 4.02632415e-01 4.02787209e-01 4.03246731e-01 4.04166609e-01 4.05776560e-01 4.08425748e-01 4.12559777e-01 4.18314308e-01 4.23434347e-01 4.06875342e-01 2.27591351e-01 2.96438694e-01 1.87334836e-01 1.74664378e-01 4.02186275e-01 4.27792549e-01 4.21013981e-01 4.14447755e-01 4.10200238e-01 4.07489419e-01 4.05705363e-01 4.04521644e-01 4.03752625e-01 4.03275698e-01 4.03000623e-01 4.02857959e-01 4.02796239e-01 4.02783155e-01 4.02807921e-01 4.02882546e-01 4.03040797e-01 4.03335959e-01 4.03840005e-01 4.04647589e-01 4.05890256e-01 4.07776505e-01 4.10694003e-01 4.15392429e-01 4.22884583e-01 4.31488752e-01 4.08789068e-01 1.84886113e-01 2.54479796e-01 1.53663427e-01 1.51610270e-01 4.13734853e-01 4.40921813e-01 4.26757991e-01 4.17587310e-01 4.12915021e-01 4.10171181e-01 4.08267736e-01 4.06855851e-01 4.05810773e-01 4.05059427e-01 4.04542476e-01 4.04211193e-01 4.04029548e-01 4.03975606e-01 4.04042482e-01 4.04238552e-01 4.04587209e-01 4.05126244e-01 4.05905932e-01 4.06986117e-01 4.08437461e-01 4.10383046e-01 4.13210809e-01 4.18240070e-01 4.28662002e-01 4.45601642e-01 4.17411566e-01 1.52890876e-01 2.06583604e-01 1.16533488e-01 1.29188195e-01 4.38046604e-01 4.62891191e-01 4.34485734e-01 4.21113968e-01 4.15884197e-01 4.13242787e-01 4.11404043e-01 4.09948379e-01 4.08791184e-01 4.07901436e-01 4.07250136e-01 4.06809330e-01 4.06556636e-01 4.06478107e-01 4.06569541e-01 4.06836718e-01 4.07295376e-01 4.07969981e-01 4.08890575e-01 4.10085291e-01 4.11570668e-01 4.13375139e-01 4.15799052e-01 4.20658946e-01 4.34704989e-01 4.69019741e-01 4.45461243e-01 1.32390216e-01 1.57337293e-01 7.89206177e-02 1.04175873e-01 4.82166976e-01 4.97021288e-01 4.45823878e-01 4.26520646e-01 4.19482410e-01 4.16070998e-01 4.13977146e-01 4.12553191e-01 4.11543518e-01 4.10814285e-01 4.10291761e-01 4.09937382e-01 4.09732372e-01 4.09668744e-01 4.09744829e-01 4.09964085e-01 4.10336822e-01 4.10885453e-01 4.11654860e-01 4.12728608e-01 4.14244115e-01 4.16384101e-01 4.19370979e-01 4.24225271e-01 4.38844472e-01 4.97244596e-01 5.24091780e-01 1.15556046e-01 1.11140423e-01 6.15682155e-02 8.15287083e-02 5.13900638e-01 5.49264252e-01 4.68504637e-01 4.39494401e-01 4.25562590e-01 4.17975754e-01 4.13952261e-01 4.11947817e-01 4.11014318e-01 4.10609454e-01 4.10447657e-01 4.10390049e-01 4.10374463e-01 4.10376608e-01 4.10391212e-01 4.10426974e-01 4.10513014e-01 4.10720229e-01 4.11206514e-01 4.12301660e-01 4.14641738e-01 4.19292271e-01 4.27450120e-01 4.38495755e-01 4.49853271e-01 5.04538178e-01 6.80661559e-01 1.08579591e-01 7.90590942e-02 7.40268752e-02 5.84620051e-02 9.87243354e-01 6.17721081e-01 5.15347302e-01 4.62529302e-01 4.30473953e-01 4.14346546e-01 4.07259613e-01 4.04476434e-01 4.03563648e-01 4.03403699e-01 4.03507382e-01 4.03665423e-01 4.03790921e-01 4.03851628e-01 4.03843731e-01 4.03786480e-01 4.03733909e-01 4.03810531e-01 4.04295444e-01 4.05807972e-01 4.09691364e-01 4.18703586e-01 4.37798798e-01 4.73058432e-01 5.26828349e-01 6.03545547e-01 4.79884446e-01 9.70055237e-02 8.08440670e-02 1.20854355e-01 9.29026678e-02 6.52793944e-01 5.78715920e-01 5.51587939e-01 4.78284270e-01 4.28864002e-01 4.07147467e-01 3.98569286e-01 3.95235449e-01 3.93914640e-01 3.93370450e-01 3.93134475e-01 3.93026382e-01 3.92974794e-01 3.92951041e-01 3.92945111e-01 3.92958194e-01 3.93004924e-01 3.93126965e-01 3.93431395e-01 3.94190282e-01 3.96092832e-01 4.00875002e-01 4.12837803e-01 4.42042679e-01 5.05663931e-01 5.83415926e-01 4.94162410e-01 1.63146570e-01 1.06461786e-01 
