# vtk DataFile Version 2.0
results_case1_non_linear/iter11.vtk, Created by Freefem++ 
ASCII
DATASET UNSTRUCTURED_GRID
POINTS 961 float
0 0 0
0.033333333 0 0
0.066666667 0 0
0.1 0 0
0.13333333 0 0
0.16666667 0 0
0.2 0 0
0.23333333 0 0
0.26666667 0 0
0.3 0 0
0.33333333 0 0
0.36666667 0 0
0.4 0 0
0.43333333 0 0
0.46666667 0 0
0.5 0 0
0.53333333 0 0
0.56666667 0 0
0.6 0 0
0.63333333 0 0
0.66666667 0 0
0.7 0 0
0.73333333 0 0
0.76666667 0 0
0.8 0 0
0.83333333 0 0
0.86666667 0 0
0.9 0 0
0.93333333 0 0
0.96666667 0 0
1 0 0
0 0.033333333 0
0.033333333 0.033333333 0
0.066666667 0.033333333 0
0.1 0.033333333 0
0.13333333 0.033333333 0
0.16666667 0.033333333 0
0.2 0.033333333 0
0.23333333 0.033333333 0
0.26666667 0.033333333 0
0.3 0.033333333 0
0.33333333 0.033333333 0
0.36666667 0.033333333 0
0.4 0.033333333 0
0.43333333 0.033333333 0
0.46666667 0.033333333 0
0.5 0.033333333 0
0.53333333 0.033333333 0
0.56666667 0.033333333 0
0.6 0.033333333 0
0.63333333 0.033333333 0
0.66666667 0.033333333 0
0.7 0.033333333 0
0.73333333 0.033333333 0
0.76666667 0.033333333 0
0.8 0.033333333 0
0.83333333 0.033333333 0
0.86666667 0.033333333 0
0.9 0.033333333 0
0.93333333 0.033333333 0
0.96666667 0.033333333 0
1 0.033333333 0
0 0.066666667 0
0.033333333 0.066666667 0
0.066666667 0.066666667 0
0.1 0.066666667 0
0.13333333 0.066666667 0
0.16666667 0.066666667 0
0.2 0.066666667 0
0.23333333 0.066666667 0
0.26666667 0.066666667 0
0.3 0.066666667 0
0.33333333 0.066666667 0
0.36666667 0.066666667 0
0.4 0.066666667 0
0.43333333 0.066666667 0
0.46666667 0.066666667 0
0.5 0.066666667 0
0.53333333 0.066666667 0
0.56666667 0.066666667 0
0.6 0.066666667 0
0.63333333 0.066666667 0
0.66666667 0.066666667 0
0.7 0.066666667 0
0.73333333 0.066666667 0
0.76666667 0.066666667 0
0.8 0.066666667 0
0.83333333 0.066666667 0
0.86666667 0.066666667 0
0.9 0.066666667 0
0.93333333 0.066666667 0
0.96666667 0.066666667 0
1 0.066666667 0
0 0.1 0
0.033333333 0.1 0
0.066666667 0.1 0
0.1 0.1 0
0.13333333 0.1 0
0.16666667 0.1 0
0.2 0.1 0
0.23333333 0.1 0
0.26666667 0.1 0
0.3 0.1 0
0.33333333 0.1 0
0.36666667 0.1 0
0.4 0.1 0
0.43333333 0.1 0
0.46666667 0.1 0
0.5 0.1 0
0.53333333 0.1 0
0.56666667 0.1 0
0.6 0.1 0
0.63333333 0.1 0
0.66666667 0.1 0
0.7 0.1 0
0.73333333 0.1 0
0.76666667 0.1 0
0.8 0.1 0
0.83333333 0.1 0
0.86666667 0.1 0
0.9 0.1 0
0.93333333 0.1 0
0.96666667 0.1 0
1 0.1 0
0 0.13333333 0
0.033333333 0.13333333 0
0.066666667 0.13333333 0
0.1 0.13333333 0
0.13333333 0.13333333 0
0.16666667 0.13333333 0
0.2 0.13333333 0
0.23333333 0.13333333 0
0.26666667 0.13333333 0
0.3 0.13333333 0
0.33333333 0.13333333 0
0.36666667 0.13333333 0
0.4 0.13333333 0
0.43333333 0.13333333 0
0.46666667 0.13333333 0
0.5 0.13333333 0
0.53333333 0.13333333 0
0.56666667 0.13333333 0
0.6 0.13333333 0
0.63333333 0.13333333 0
0.66666667 0.13333333 0
0.7 0.13333333 0
0.73333333 0.13333333 0
0.76666667 0.13333333 0
0.8 0.13333333 0
0.83333333 0.13333333 0
0.86666667 0.13333333 0
0.9 0.13333333 0
0.93333333 0.13333333 0
0.96666667 0.13333333 0
1 0.13333333 0
0 0.16666667 0
0.033333333 0.16666667 0
0.066666667 0.16666667 0
0.1 0.16666667 0
0.13333333 0.16666667 0
0.16666667 0.16666667 0
0.2 0.16666667 0
0.23333333 0.16666667 0
0.26666667 0.16666667 0
0.3 0.16666667 0
0.33333333 0.16666667 0
0.36666667 0.16666667 0
0.4 0.16666667 0
0.43333333 0.16666667 0
0.46666667 0.16666667 0
0.5 0.16666667 0
0.53333333 0.16666667 0
0.56666667 0.16666667 0
0.6 0.16666667 0
0.63333333 0.16666667 0
0.66666667 0.16666667 0
0.7 0.16666667 0
0.73333333 0.16666667 0
0.76666667 0.16666667 0
0.8 0.16666667 0
0.83333333 0.16666667 0
0.86666667 0.16666667 0
0.9 0.16666667 0
0.93333333 0.16666667 0
0.96666667 0.16666667 0
1 0.16666667 0
0 0.2 0
0.033333333 0.2 0
0.066666667 0.2 0
0.1 0.2 0
0.13333333 0.2 0
0.16666667 0.2 0
0.2 0.2 0
0.23333333 0.2 0
0.26666667 0.2 0
0.3 0.2 0
0.33333333 0.2 0
0.36666667 0.2 0
0.4 0.2 0
0.43333333 0.2 0
0.46666667 0.2 0
0.5 0.2 0
0.53333333 0.2 0
0.56666667 0.2 0
0.6 0.2 0
0.63333333 0.2 0
0.66666667 0.2 0
0.7 0.2 0
0.73333333 0.2 0
0.76666667 0.2 0
0.8 0.2 0
0.83333333 0.2 0
0.86666667 0.2 0
0.9 0.2 0
0.93333333 0.2 0
0.96666667 0.2 0
1 0.2 0
0 0.23333333 0
0.033333333 0.23333333 0
0.066666667 0.23333333 0
0.1 0.23333333 0
0.13333333 0.23333333 0
0.16666667 0.23333333 0
0.2 0.23333333 0
0.23333333 0.23333333 0
0.26666667 0.23333333 0
0.3 0.23333333 0
0.33333333 0.23333333 0
0.36666667 0.23333333 0
0.4 0.23333333 0
0.43333333 0.23333333 0
0.46666667 0.23333333 0
0.5 0.23333333 0
0.53333333 0.23333333 0
0.56666667 0.23333333 0
0.6 0.23333333 0
0.63333333 0.23333333 0
0.66666667 0.23333333 0
0.7 0.23333333 0
0.73333333 0.23333333 0
0.76666667 0.23333333 0
0.8 0.23333333 0
0.83333333 0.23333333 0
0.86666667 0.23333333 0
0.9 0.23333333 0
0.93333333 0.23333333 0
0.96666667 0.23333333 0
1 0.23333333 0
0 0.26666667 0
0.033333333 0.26666667 0
0.066666667 0.26666667 0
0.1 0.26666667 0
0.13333333 0.26666667 0
0.16666667 0.26666667 0
0.2 0.26666667 0
0.23333333 0.26666667 0
0.26666667 0.26666667 0
0.3 0.26666667 0
0.33333333 0.26666667 0
0.36666667 0.26666667 0
0.4 0.26666667 0
0.43333333 0.26666667 0
0.46666667 0.26666667 0
0.5 0.26666667 0
0.53333333 0.26666667 0
0.56666667 0.26666667 0
0.6 0.26666667 0
0.63333333 0.26666667 0
0.66666667 0.26666667 0
0.7 0.26666667 0
0.73333333 0.26666667 0
0.76666667 0.26666667 0
0.8 0.26666667 0
0.83333333 0.26666667 0
0.86666667 0.26666667 0
0.9 0.26666667 0
0.93333333 0.26666667 0
0.96666667 0.26666667 0
1 0.26666667 0
0 0.3 0
0.033333333 0.3 0
0.066666667 0.3 0
0.1 0.3 0
0.13333333 0.3 0
0.16666667 0.3 0
0.2 0.3 0
0.23333333 0.3 0
0.26666667 0.3 0
0.3 0.3 0
0.33333333 0.3 0
0.36666667 0.3 0
0.4 0.3 0
0.43333333 0.3 0
0.46666667 0.3 0
0.5 0.3 0
0.53333333 0.3 0
0.56666667 0.3 0
0.6 0.3 0
0.63333333 0.3 0
0.66666667 0.3 0
0.7 0.3 0
0.73333333 0.3 0
0.76666667 0.3 0
0.8 0.3 0
0.83333333 0.3 0
0.86666667 0.3 0
0.9 0.3 0
0.93333333 0.3 0
0.96666667 0.3 0
1 0.3 0
0 0.33333333 0
0.033333333 0.33333333 0
0.066666667 0.33333333 0
0.1 0.33333333 0
0.13333333 0.33333333 0
0.16666667 0.33333333 0
0.2 0.33333333 0
0.23333333 0.33333333 0
0.26666667 0.33333333 0
0.3 0.33333333 0
0.33333333 0.33333333 0
0.36666667 0.33333333 0
0.4 0.33333333 0
0.43333333 0.33333333 0
0.46666667 0.33333333 0
0.5 0.33333333 0
0.53333333 0.33333333 0
0.56666667 0.33333333 0
0.6 0.33333333 0
0.63333333 0.33333333 0
0.66666667 0.33333333 0
0.7 0.33333333 0
0.73333333 0.33333333 0
0.76666667 0.33333333 0
0.8 0.33333333 0
0.83333333 0.33333333 0
0.86666667 0.33333333 0
0.9 0.33333333 0
0.93333333 0.33333333 0
0.96666667 0.33333333 0
1 0.33333333 0
0 0.36666667 0
0.033333333 0.36666667 0
0.066666667 0.36666667 0
0.1 0.36666667 0
0.13333333 0.36666667 0
0.16666667 0.36666667 0
0.2 0.36666667 0
0.23333333 0.36666667 0
0.26666667 0.36666667 0
0.3 0.36666667 0
0.33333333 0.36666667 0
0.36666667 0.36666667 0
0.4 0.36666667 0
0.43333333 0.36666667 0
0.46666667 0.36666667 0
0.5 0.36666667 0
0.53333333 0.36666667 0
0.56666667 0.36666667 0
0.6 0.36666667 0
0.63333333 0.36666667 0
0.66666667 0.36666667 0
0.7 0.36666667 0
0.73333333 0.36666667 0
0.76666667 0.36666667 0
0.8 0.36666667 0
0.83333333 0.36666667 0
0.86666667 0.36666667 0
0.9 0.36666667 0
0.93333333 0.36666667 0
0.96666667 0.36666667 0
1 0.36666667 0
0 0.4 0
0.033333333 0.4 0
0.066666667 0.4 0
0.1 0.4 0
0.13333333 0.4 0
0.16666667 0.4 0
0.2 0.4 0
0.23333333 0.4 0
0.26666667 0.4 0
0.3 0.4 0
0.33333333 0.4 0
0.36666667 0.4 0
0.4 0.4 0
0.43333333 0.4 0
0.46666667 0.4 0
0.5 0.4 0
0.53333333 0.4 0
0.56666667 0.4 0
0.6 0.4 0
0.63333333 0.4 0
0.66666667 0.4 0
0.7 0.4 0
0.73333333 0.4 0
0.76666667 0.4 0
0.8 0.4 0
0.83333333 0.4 0
0.86666667 0.4 0
0.9 0.4 0
0.93333333 0.4 0
0.96666667 0.4 0
1 0.4 0
0 0.43333333 0
0.033333333 0.43333333 0
0.066666667 0.43333333 0
0.1 0.43333333 0
0.13333333 0.43333333 0
0.16666667 0.43333333 0
0.2 0.43333333 0
0.23333333 0.43333333 0
0.26666667 0.43333333 0
0.3 0.43333333 0
0.33333333 0.43333333 0
0.36666667 0.43333333 0
0.4 0.43333333 0
0.43333333 0.43333333 0
0.46666667 0.43333333 0
0.5 0.43333333 0
0.53333333 0.43333333 0
0.56666667 0.43333333 0
0.6 0.43333333 0
0.63333333 0.43333333 0
0.66666667 0.43333333 0
0.7 0.43333333 0
0.73333333 0.43333333 0
0.76666667 0.43333333 0
0.8 0.43333333 0
0.83333333 0.43333333 0
0.86666667 0.43333333 0
0.9 0.43333333 0
0.93333333 0.43333333 0
0.96666667 0.43333333 0
1 0.43333333 0
0 0.46666667 0
0.033333333 0.46666667 0
0.066666667 0.46666667 0
0.1 0.46666667 0
0.13333333 0.46666667 0
0.16666667 0.46666667 0
0.2 0.46666667 0
0.23333333 0.46666667 0
0.26666667 0.46666667 0
0.3 0.46666667 0
0.33333333 0.46666667 0
0.36666667 0.46666667 0
0.4 0.46666667 0
0.43333333 0.46666667 0
0.46666667 0.46666667 0
0.5 0.46666667 0
0.53333333 0.46666667 0
0.56666667 0.46666667 0
0.6 0.46666667 0
0.63333333 0.46666667 0
0.66666667 0.46666667 0
0.7 0.46666667 0
0.73333333 0.46666667 0
0.76666667 0.46666667 0
0.8 0.46666667 0
0.83333333 0.46666667 0
0.86666667 0.46666667 0
0.9 0.46666667 0
0.93333333 0.46666667 0
0.96666667 0.46666667 0
1 0.46666667 0
0 0.5 0
0.033333333 0.5 0
0.066666667 0.5 0
0.1 0.5 0
0.13333333 0.5 0
0.16666667 0.5 0
0.2 0.5 0
0.23333333 0.5 0
0.26666667 0.5 0
0.3 0.5 0
0.33333333 0.5 0
0.36666667 0.5 0
0.4 0.5 0
0.43333333 0.5 0
0.46666667 0.5 0
0.5 0.5 0
0.53333333 0.5 0
0.56666667 0.5 0
0.6 0.5 0
0.63333333 0.5 0
0.66666667 0.5 0
0.7 0.5 0
0.73333333 0.5 0
0.76666667 0.5 0
0.8 0.5 0
0.83333333 0.5 0
0.86666667 0.5 0
0.9 0.5 0
0.93333333 0.5 0
0.96666667 0.5 0
1 0.5 0
0 0.53333333 0
0.033333333 0.53333333 0
0.066666667 0.53333333 0
0.1 0.53333333 0
0.13333333 0.53333333 0
0.16666667 0.53333333 0
0.2 0.53333333 0
0.23333333 0.53333333 0
0.26666667 0.53333333 0
0.3 0.53333333 0
0.33333333 0.53333333 0
0.36666667 0.53333333 0
0.4 0.53333333 0
0.43333333 0.53333333 0
0.46666667 0.53333333 0
0.5 0.53333333 0
0.53333333 0.53333333 0
0.56666667 0.53333333 0
0.6 0.53333333 0
0.63333333 0.53333333 0
0.66666667 0.53333333 0
0.7 0.53333333 0
0.73333333 0.53333333 0
0.76666667 0.53333333 0
[...]
CELL_DATA 1920
Scalars  Label int 1
LOOKUP_TABLE FreeFempp_table
0
0
0
0
0
0
0
0
0
0
0
0
0
0
0
0
0
0
0
0
0
0
0
0
0
0
0
0
0
0
0
0
0
0
0
0
0
0
0
0
0
0
0
0
0
0
0
0
0
0
0
0
0
0
0
0
0
0
0
0
0
0
0
0
0
0
0
0
0
0
0
0
0
0
0
0
0
0
0
0
0
0
0
0
0
0
0
0
0
0
0
0
0
0
0
0
0
0
0
0
0
0
0
0
0
0
0
0
0
0
0
0
0
0
0
0
0
0
0
0
0
0
0
0
0
0
0
0
0
0
0
0
0
0
0
0
0
0
0
0
0
0
0
0
0
0
0
0
0
0
0
0
0
0
0
0
0
0
0
0
0
0
0
0
0
0
0
0
0
0
0
0
0
0
0
0
0
0
0
0
0
0
0
0
0
0
0
0
0
0
0
0
0
0
0
0
0
0
0
0
0
0
0
0
0
0
0
0
0
0
0
0
0
0
0
0
0
0
0
0
0
0
0
0
0
0
0
0
0
0
0
0
0
0
0
0
0
0
0
0
0
0
0
0
0
0
0
0
0
0
0
0
0
0
0
0
0
0
0
0
0
0
0
0
0
0
0
0
0
0
0
0
0
0
0
0
0
0
0
0
0
0
0
0
0
0
0
0
0
0
0
0
0
0
0
0
0
0
0
0
0
0
0
0
0
0
0
0
0
0
0
0
0
0
0
0
0
0
0
0
0
0
0
0
0
0
0
0
0
0
0
0
0
0
0
0
0
0
0
0
0
0
0
0
0
0
0
0
0
0
0
0
0
0
0
0
0
0
0
0
0
0
0
0
0
0
0
0
0
0
0
0
0
0
0
0
0
0
0
0
0
0
0
0
0
0
0
0
0
0
0
0
0
0
0
0
0
0
0
0
0
0
0
0
0
0
0
0
0
0
0
0
0
0
0
0
0
0
0
0
0
0
0
0
0
0
0
0
0
0
0
0
0
0
0
0
0
0
0
0
0
0
0
0
0
0
0
0
0
0
0
0
0
0
0
0
0
0
0
0
0
0
0
0
0
0
0
0
0
0
0
0
0
0
0
0
0
0
0
0
0
0
0
0
0
0
0
0
0
0
0
0
0
0
0
0
0
0
0
0
0
0
0
0
0
0
0
0
0
0
0
0
0
0
0
0
0
0
0
0
0
0
0
0
0
0
0
0
0
0
0
0
0
0
0
0
0
0
0
0
0
0
0
0
0
0
0
0
0
0
0
0
0
0
0
0
0
0
0
0
0
0
0
0
0
0
0
0
0
0
0
0
0
0
0
0
0
0
0
0
0
0
0
0
0
0
0
0
0
0
0
0
0
0
0
0
0
0
0
0
0
0
0
0
0
0
0
0
0
0
0
0
0
0
0
0
0
0
0
0
0
0
0
0
0
0
0
0
0
0
0
0
0
0
0
0
0
0
0
0
0
0
0
0
0
0
0
0
0
0
0
0
0
0
0
0
0
0
0
0
0
0
0
0
0
0
0
0
0
0
0
0
0
0
0
0
0
0
0
0
0
0
0
0
0
0
0
0
0
0
0
0
0
0
0
0
0
0
0
0
0
0
0
0
0
0
0
0
0
0
0
0
0
0
0
0
0
0
0
0
0
0
0
0
0
0
0
0
0
0
0
0
0
0
0
0
0
0
0
0
0
0
0
0
0
0
0
0
0
0
0
0
0
0
0
0
0
0
0
0
0
0
0
0
0
0
0
0
0
0
0
0
0
0
0
0
0
0
0
0
0
0
0
0
0
0
0
0
0
0
0
0
0
0
0
0
0
0
0
0
0
0
0
0
0
0
0
0
0
0
0
0
0
0
0
0
0
0
0
0
0
0
0
0
0
0
0
0
0
0
0
0
0
0
0
0
0
0
0
0
0
0
0
0
0
0
0
0
0
0
0
0
0
0
0
0
0
0
0
0
0
0
0
0
0
0
0
0
0
0
0
0
0
0
0
0
0
0
0
0
0
0
0
0
0
0
0
0
0
0
0
0
0
0
0
0
0
0
0
0
0
0
0
0
0
0
0
0
0
0
0
0
0
0
0
0
0
0
0
0
0
0
0
0
0
0
0
0
0
0
0
0
0
0
0
0
0
0
0
0
0
0
0
0
0
0
0
0
0
0
0
0
0
0
0
0
0
0
0
0
0
0
0
0
0
0
0
0
0
0
0
0
0
0
0
0
0
0
0
0
0
0
0
0
0
0
0
0
0
0
0
0
0
0
0
0
0
0
0
0
0
0
0
0
0
0
0
0
0
0
0
0
0
0
0
0
0
0
0
0
0
0
0
0
0
0
0
0
0
0
0
0
0
0
0
0
0
0
0
0
0
0
0
0
0
0
0
0
0
0
0
0
0
0
0
0
0
0
0
0
0
0
0
0
0
0
0
0
0
0
0
0
0
0
0
0
0
0
0
0
0
0
0
0
0
0
0
0
0
0
0
0
0
0
0
0
0
0
0
0
0
0
0
0
0
0
0
0
0
0
0
0
0
0
0
0
0
0
0
0
0
0
0
0
0
0
0
0
0
0
0
0
0
0
0
0
0
0
0
0
0
0
0
0
0
0
0
0
0
0
0
0
0
0
0
0
0
0
0
0
0
0
0
0
0
0
0
0
0
0
0
0
0
0
0
0
0
0
0
0
0
0
0
0
0
0
0
0
0
0
0
0
0
0
0
0
0
0
0
0
0
0
0
0
0
0
0
0
0
0
0
0
0
0
0
0
0
0
0
0
0
0
0
0
0
0
0
0
0
0
0
0
0
0
0
0
0
0
0
0
0
0
0
0
0
0
0
0
0
0
0
0
0
0
0
0
0
0
0
0
0
0
0
0
0
0
0
0
0
0
0
0
0
0
0
0
0
0
0
0
0
0
0
0
0
0
0
0
0
0
0
0
0
0
0
0
0
0
0
0
0
0
0
0
0
0
0
0
0
0
0
0
0
0
0
0
0
0
0
0
0
0
0
0
0
0
0
0
0
0
0
0
0
0
0
0
0
0
0
0
0
0
0
0
0
0
0
0
0
0
0
0
0
0
0
0
0
0
0
0
0
0
0
0
0
0
0
0
0
0
0
0
0
0
0
0
0
0
0
0
0
0
0
0
0
0
0
0
0
0
0
0
0
0
0
0
0
0
0
0
0
0
0
0
0
0
0
0
0
0
0
0
0
0
0
0
0
0
0
0
0
0
0
0
0
0
0
0
0
0
0
0
0
0
0
0
0
0
0
0
0
0
0
0
0
0
0
0
0
0
0
0
0
0
0
0
0
0
0
0
0
0
0
0
0
0
0
0
0
0
0
0
0
0
0
0
0
0
0
0
0
0
0
0
0
0
0
0
0
0
0
0
0
0
0
0
0
0
0
0
0
0
0
0
0
0
0
0
0
0
0
0
0
0
0
0
0
0
0
0
0
0
0
0
0
0
0
0
0
0
0
0
0
0
0
0
0
0
0
0
0
0
0
0
0
0
0
0
0
0
0
0
0
0
0
0
0
0
0
0
0
0
0
0
0
0
0
0
0
0
0
0
0
0
0
0
0
0
0
0
0
0
0
0
0
0
0
0
0
0
0
0
0
0
0
0
0
0
0
0
0
0
0
0
0
0
0
0
0
0
0
0
0
0
0
0
0
0
0
0
0
0
0
0
0
0
0
0
0
0
0
0
0
0
0
0
0
0
0
0
0
0
0
0
0
0
0
0
0
0
0
0
0
0
0
0
0
0
0
0
0
0
0
0
0
0
0
0
0
0
0
0
0
0
0
0
0
0
0
0
0
0
0
0
0
0
0
0
0
0
0
0
0
0
0
0
0
0
0
0
0
0
0
0
0
0
0
0
0
0
0
0
0
0
0
0
0
0
0
0
0
0
0
0
0
0
0
0
0
0
0
0
0
0
0
0
0
0
0
0
0
0
0
0
0
0
0
0
0
0
0
0
0
0
0
0
0
0
0
0
0
0
0
0
0
0
0
0
0
0
0
0
0
0
0
0
0
0
0
0
0
0
0
0
0
0
0
0
0
0
0
0
0
0
0
0
0
0
0
0
1
1
1
1
1
1
1
1
1
1
1
1
1
1
1
1
1
1
1
1
1
1
1
1
1
1
1
1
1
1
2
2
2
2
2
2
2
2
2
2
2
2
2
2
2
2
2
2
2
2
2
2
2
2
2
2
2
2
2
2
3
3
3
3
3
3
3
3
3
3
3
3
3
3
3
3
3
3
3
3
3
3
3
3
3
3
3
3
3
3
4
4
4
4
4
4
4
4
4
4
4
4
4
4
4
4
4
4
4
4
4
4
4
4
4
4
4
4
4
4

LOOKUP_TABLE FreeFempp_table 5
1.00000000 0.00000000 0.00000000 1.00000000
1.00000000 1.00000000 0.00000000 1.00000000
1.00000000 0.00000000 1.00000000 1.00000000
0.00000000 1.00000000 0.00000000 1.00000000
0.00000000 1.00000000 1.00000000 1.00000000

POINT_DATA 961
FIELD FieldData 1
Density 1 961 float
3.77978086e-01 4.49857146e-01 4.82228935e-01 5.08023858e-01 5.18398106e-01 5.16409755e-01 5.11308193e-01 5.05117416e-01 4.95287776e-01 4.88353640e-01 4.76888806e-01 4.62975293e-01 4.42609698e-01 3.93910259e-01 3.56357455e-01 3.19057226e-01 2.71842062e-01 2.45929003e-01 3.01673949e-01 4.17876065e-01 4.47454900e-01 4.30113584e-01 4.56356257e-01 4.77727652e-01 4.84073848e-01 4.88628536e-01 4.96265858e-01 5.04306853e-01 5.08661509e-01 5.09610534e-01 4.89740312e-01 1.75520517e-02 1.98877137e-02 2.75104977e-02 3.31512913e-02 4.07368168e-02 5.44681773e-02 7.76297972e-02 1.10869311e-01 1.49588808e-01 1.84213921e-01 2.09734067e-01 2.27331057e-01 2.32573763e-01 2.25256339e-01 2.13884220e-01 2.01976135e-01 1.86809361e-01 1.74890965e-01 2.00749144e-01 3.27126890e-01 4.11982000e-01 4.03064340e-01 4.18308049e-01 4.71311539e-01 4.90825295e-01 5.24136305e-01 5.27072668e-01 5.40026486e-01 5.53082943e-01 5.57290018e-01 5.06585360e-01 1.54852029e-02 1.00003118e-02 1.19051887e-02 1.24497591e-02 1.31182056e-02 1.38207544e-02 1.47000654e-02 1.63342729e-02 1.93367451e-02 2.41557639e-02 3.16430330e-02 4.44947369e-02 6.64568171e-02 9.21488553e-02 1.13429554e-01 1.27583250e-01 1.35599464e-01 1.40376776e-01 1.56815335e-01 2.20036998e-01 3.51391584e-01 3.87871206e-01 4.08174008e-01 4.63727713e-01 4.87783909e-01 5.17178833e-01 5.28795183e-01 5.36671162e-01 5.46519101e-01 5.49205124e-01 5.01061678e-01 4.50427011e-02 1.96804404e-02 1.66483708e-02 1.45474430e-02 1.39879277e-02 1.37855634e-02 1.34234671e-02 1.30308950e-02 1.29097449e-02 1.31328581e-02 1.37476688e-02 1.53438728e-02 1.95191950e-02 2.76119839e-02 4.27301861e-02 6.40540123e-02 8.53243917e-02 1.01927467e-01 1.16643831e-01 1.46427304e-01 2.14175388e-01 3.13561440e-01 3.66403490e-01 4.47312832e-01 4.87461239e-01 5.09822726e-01 5.31360686e-01 5.35191000e-01 5.44564664e-01 5.47036946e-01 5.00023365e-01 5.23651063e-01 5.54781854e-01 3.03881109e-01 1.78441942e-01 9.93212909e-02 6.22304454e-02 4.48246859e-02 3.39779630e-02 2.63276175e-02 2.12481245e-02 1.79698672e-02 1.58513095e-02 1.50310481e-02 1.55205196e-02 1.91491973e-02 2.87568644e-02 4.55640741e-02 6.66624978e-02 8.65638256e-02 1.07871599e-01 1.45303801e-01 2.08416760e-01 2.90480316e-01 3.97368461e-01 4.86133724e-01 5.08166730e-01 5.33585668e-01 5.34466743e-01 5.43756545e-01 5.45955539e-01 4.99426633e-01 6.00619614e-01 6.71955943e-01 6.68656230e-01 6.55279458e-01 6.18717730e-01 5.86278856e-01 5.60298562e-01 5.57084978e-01 5.24731040e-01 3.28080624e-01 1.97900459e-01 9.86606777e-02 4.57694717e-02 2.49407627e-02 1.85786523e-02 1.85277611e-02 2.50859298e-02 3.91740799e-02 5.85397668e-02 8.06370080e-02 1.09674655e-01 1.53687298e-01 2.13207915e-01 3.20855200e-01 4.69143033e-01 5.11475146e-01 5.34188569e-01 5.34470260e-01 5.43952823e-01 5.46068788e-01 4.99292791e-01 6.27168417e-01 7.31977105e-01 7.14302838e-01 7.14285970e-01 7.03393579e-01 6.89931750e-01 6.70793176e-01 6.51722848e-01 6.33848369e-01 6.14825308e-01 5.82607448e-01 5.40809572e-01 4.81125027e-01 2.27626204e-01 5.81708774e-02 2.70336214e-02 2.15520728e-02 2.55183000e-02 3.77103351e-02 5.57494685e-02 8.10895786e-02 1.16900690e-01 1.62870809e-01 2.44466126e-01 4.11924034e-01 5.12911677e-01 5.29901683e-01 5.35332143e-01 5.45491278e-01 5.47762752e-01 4.99831736e-01 6.03298306e-01 7.30022132e-01 7.12096572e-01 7.10658431e-01 7.15188324e-01 7.15803087e-01 7.11079717e-01 6.98567390e-01 6.83295548e-01 6.66450977e-01 6.48048997e-01 6.17484927e-01 5.82782745e-01 5.59094250e-01 4.27435964e-01 1.13111109e-01 3.62353362e-02 2.55673118e-02 2.74364427e-02 3.84754613e-02 5.67695536e-02 8.57694745e-02 1.25422955e-01 1.87163368e-01 3.29531759e-01 5.03097594e-01 5.24308264e-01 5.37602842e-01 5.48591375e-01 5.51244259e-01 5.01155257e-01 5.54966986e-01 6.59710944e-01 6.12812877e-01 6.16941452e-01 6.53175533e-01 6.86218321e-01 7.02820480e-01 7.07572758e-01 7.02936947e-01 6.93533778e-01 6.80585206e-01 6.61910057e-01 6.37191713e-01 6.08916402e-01 5.67801654e-01 4.96825337e-01 1.59431785e-01 4.48005535e-02 2.90569104e-02 2.96297930e-02 4.04954366e-02 5.98333851e-02 9.21938494e-02 1.45018905e-01 2.56498277e-01 4.59722579e-01 5.29644608e-01 5.42785406e-01 5.53542018e-01 5.56640923e-01 5.03362179e-01 5.32133579e-01 5.80368936e-01 4.37234879e-01 4.15050864e-01 4.89295810e-01 5.40777147e-01 6.01707041e-01 6.69673562e-01 6.97145104e-01 7.02544987e-01 6.98433936e-01 6.87443435e-01 6.69899881e-01 6.47102714e-01 6.18160546e-01 5.76981604e-01 5.16834557e-01 1.87920257e-01 5.07541671e-02 3.18249799e-02 3.22629549e-02 4.30270247e-02 6.30228966e-02 1.06001593e-01 2.01283097e-01 3.97324443e-01 5.28494298e-01 5.51098585e-01 5.60624063e-01 5.63773155e-01 5.06533206e-01 5.32226205e-01 5.61994851e-01 2.91916013e-01 2.15800896e-01 2.68069476e-01 3.63847762e-01 4.88878101e-01 5.87765515e-01 6.62087500e-01 6.88363492e-01 6.97386265e-01 6.96964681e-01 6.89258695e-01 6.74968243e-01 6.54595077e-01 6.27451241e-01 5.89433432e-01 5.20684659e-01 1.85297921e-01 5.37909679e-02 3.48709226e-02 3.54627632e-02 4.50162441e-02 6.99157789e-02 1.47146359e-01 3.41568798e-01 5.17062664e-01 5.56224227e-01 5.69108963e-01 5.72139621e-01 5.10446429e-01 5.34581244e-01 5.65918803e-01 2.32625499e-01 1.48311868e-01 1.68526456e-01 2.48336121e-01 4.34277982e-01 5.48148394e-01 6.28155112e-01 6.55296862e-01 6.75549805e-01 6.88679457e-01 6.92619443e-01 6.88328028e-01 6.77557528e-01 6.61004901e-01 6.38351619e-01 5.99319816e-01 4.93347436e-01 1.64827943e-01 5.58573119e-02 3.84214856e-02 3.79190184e-02 4.80414480e-02 9.44348499e-02 2.57364959e-01 5.05365670e-01 5.61217010e-01 5.78146040e-01 5.81507444e-01 5.14801800e-01 5.35304427e-01 5.73975444e-01 2.22360775e-01 1.09750181e-01 1.30022541e-01 2.21605778e-01 4.67279613e-01 5.91895223e-01 6.09648526e-01 6.11197650e-01 6.32220030e-01 6.59017146e-01 6.76757753e-01 6.84252262e-01 6.84323132e-01 6.78965032e-01 6.68738008e-01 6.52250528e-01 6.15346789e-01 4.18077886e-01 1.37950003e-01 5.69605529e-02 4.02569659e-02 3.94521691e-02 6.03642948e-02 1.69096902e-01 4.82138544e-01 5.64428270e-01 5.89382589e-01 5.91937721e-01 5.19676030e-01 5.34502029e-01 5.77790797e-01 2.21993446e-01 8.38047266e-02 9.68409404e-02 2.22491249e-01 5.46411157e-01 6.23466969e-01 5.84956825e-01 5.59414923e-01 5.68107247e-01 6.05410159e-01 6.41220510e-01 6.63221180e-01 6.75592721e-01 6.81368947e-01 6.82164609e-01 6.78499103e-01 6.70786798e-01 6.20223343e-01 3.26160192e-01 1.16202928e-01 5.48391640e-02 3.93253826e-02 4.50823829e-02 1.02601185e-01 3.61066222e-01 5.60592890e-01 6.01337850e-01 6.04338050e-01 5.25313199e-01 5.32983959e-01 5.78435540e-01 2.35187531e-01 7.00369924e-02 7.39709660e-02 2.05054328e-01 6.05990946e-01 6.37205720e-01 5.48777163e-01 4.71332610e-01 4.71561819e-01 5.21055639e-01 6.01104438e-01 6.46147609e-01 6.67009175e-01 6.78225994e-01 6.85352802e-01 6.90140426e-01 6.93294525e-01 6.87129736e-01 6.07422590e-01 2.52170086e-01 9.64283869e-02 4.86300290e-02 3.98875251e-02 6.66202158e-02 2.32743382e-01 5.58651567e-01 6.16378605e-01 6.18437648e-01 5.32093585e-01 5.31027555e-01 5.77951849e-01 2.64090717e-01 6.55391961e-02 5.91698773e-02 1.58011228e-01 6.01294696e-01 6.43819928e-01 4.87845540e-01 3.81372064e-01 3.15090299e-01 3.37870747e-01 4.53922212e-01 5.94194114e-01 6.59751952e-01 6.81145012e-01 6.87728763e-01 6.94132149e-01 7.02646911e-01 7.11237848e-01 7.10842848e-01 5.37909985e-01 2.02193499e-01 7.54736140e-02 4.21398655e-02 4.97144721e-02 1.47876129e-01 4.70234573e-01 6.32473588e-01 6.36663079e-01 5.40042460e-01 5.28195918e-01 5.77004373e-01 3.05422485e-01 6.93606436e-02 5.03557324e-02 1.07334808e-01 5.92913806e-01 6.59119785e-01 4.93148923e-01 2.85360664e-01 2.05242053e-01 2.27370679e-01 2.71397650e-01 3.51116270e-01 5.35931349e-01 6.64946973e-01 6.92168295e-01 6.95369303e-01 7.03141868e-01 7.14677930e-01 7.32664287e-01 7.31694877e-01 4.49368387e-01 1.56021610e-01 5.59282526e-02 4.25879695e-02 9.11594331e-02 3.88558179e-01 6.36022389e-01 6.58316672e-01 5.51220596e-01 5.23547888e-01 5.74954391e-01 3.55854601e-01 8.30726400e-02 4.54604439e-02 7.35392198e-02 5.08704484e-01 6.96742117e-01 4.92300868e-01 2.36319527e-01 1.93580270e-01 2.16545448e-01 2.02606857e-01 2.20575079e-01 3.10957372e-01 4.91408378e-01 6.60107434e-01 6.91917062e-01 6.98738217e-01 7.09875703e-01 7.26911247e-01 7.51471460e-01 7.41038978e-01 3.88703525e-01 1.07196137e-01 4.56052311e-02 5.74134849e-02 2.65330195e-01 6.22494698e-01 6.79340780e-01 5.67714572e-01 5.17252505e-01 5.71377814e-01 4.06324506e-01 1.12651825e-01 4.45902161e-02 5.35653979e-02 2.95531094e-01 7.19250619e-01 5.30525982e-01 2.03475758e-01 1.96490392e-01 2.02122420e-01 1.68793961e-01 1.59466818e-01 1.86510354e-01 2.58381128e-01 4.03731078e-01 6.41777456e-01 6.83960855e-01 6.98082149e-01 7.16267824e-01 7.40488350e-01 7.67730713e-01 7.50333548e-01 3.44248205e-01 7.00456202e-02 4.76933345e-02 1.32273152e-01 6.10654771e-01 6.97419405e-01 5.87683320e-01 5.07962286e-01 5.60037255e-01 4.70663905e-01 1.68921530e-01 5.09673618e-02 4.31535766e-02 1.36899590e-01 6.63071811e-01 6.36580467e-01 1.92318693e-01 1.84711635e-01 1.29038125e-01 1.14866205e-01 1.18489571e-01 1.29386917e-01 1.53000176e-01 2.08907798e-01 3.61971825e-01 6.19924128e-01 6.70913339e-01 6.96048796e-01 7.23147571e-01 7.53456950e-01 7.82423794e-01 7.61400819e-01 2.57537484e-01 5.70867434e-02 6.79298341e-02 5.11774600e-01 7.28039384e-01 6.06175900e-01 4.99325901e-01 5.45655847e-01 5.19370794e-01 2.54238218e-01 7.10079446e-02 4.04687375e-02 6.78559020e-02 4.30718660e-01 7.00324774e-01 4.27792937e-01 2.00301141e-01 8.96991044e-02 6.72737136e-02 7.16176257e-02 8.57087374e-02 9.79822502e-02 1.13290086e-01 1.64359212e-01 3.25796485e-01 5.93029559e-01 6.55443966e-01 6.94407225e-01 7.30234146e-01 7.66741753e-01 7.98970163e-01 7.73407578e-01 1.53743327e-01 7.15168566e-02 1.94799647e-01 7.61875689e-01 6.35615230e-01 4.90202993e-01 5.32279551e-01 5.23707211e-01 3.58802706e-01 1.21513367e-01 4.72559221e-02 4.72780429e-02 1.51670411e-01 6.24855936e-01 6.49529934e-01 3.43818098e-01 1.48881957e-01 6.32433221e-02 4.91964705e-02 5.23073003e-02 6.03364930e-02 6.36780113e-02 7.25432709e-02 1.17864944e-01 2.81175971e-01 5.67043066e-01 6.37452781e-01 6.91243529e-01 7.36449838e-01 7.81420648e-01 8.17787826e-01 7.73851037e-01 1.36902422e-01 1.57412365e-01 7.11292863e-01 6.49792552e-01 4.84648466e-01 5.17961621e-01 5.33984601e-01 4.37068909e-01 2.06136018e-01 7.19997957e-02 4.48894873e-02 7.23031089e-02 2.99924076e-01 6.54712737e-01 6.20259821e-01 4.42177027e-01 1.37314066e-01 5.71097694e-02 4.18686159e-02 4.20249365e-02 4.23726700e-02 3.97918560e-02 4.37207855e-02 7.03742504e-02 1.84281290e-01 5.20287275e-01 6.04826152e-01 6.74297631e-01 7.37352014e-01 7.92248607e-01 8.34259212e-01 8.05252671e-01 1.51527539e-01 7.83948660e-01 6.87222123e-01 4.84020233e-01 5.17834187e-01 5.29484153e-01 4.88508821e-01 2.98866630e-01 1.29320368e-01 5.75447828e-02 5.37736453e-02 1.20910168e-01 4.80305314e-01 6.46338463e-01 6.30372524e-01 4.79528010e-01 1.41411915e-01 5.81399873e-02 4.21867259e-02 3.80085558e-02 3.19866277e-02 2.45460700e-02 2.17815675e-02 2.57202089e-02 4.64628711e-02 1.56795904e-01 5.21816611e-01 6.10473692e-01 6.93390369e-01 7.73696065e-01 8.40636730e-01 8.44550729e-01 8.59758377e-01 7.50487924e-01 4.85499918e-01 5.22718251e-01 5.20899117e-01 5.14798045e-01 4.04261947e-01 2.16657430e-01 9.90157425e-02 5.77613115e-02 6.95730150e-02 1.86422408e-01 5.16509414e-01 6.22639000e-01 6.71203732e-01 4.47449356e-01 1.48400947e-01 7.10995942e-02 5.08212522e-02 4.10504639e-02 2.98638549e-02 1.92412864e-02 1.29336352e-02 1.01808785e-02 1.01050055e-02 1.37880212e-02 2.58950423e-02 8.56504515e-02 5.46651661e-01 6.69475377e-01 7.80277610e-01 8.28490794e-01 7.38202691e-01 4.89283890e-01 5.05208671e-01 5.18955290e-01 5.00942051e-01 4.76747602e-01 3.30384403e-01 1.89412490e-01 9.48246419e-02 6.57776967e-02 8.68301094e-02 2.25680530e-01 5.12247443e-01 6.17440403e-01 6.92123592e-01 3.76637697e-01 1.68310523e-01 9.95259210e-02 7.02926293e-02 5.17417639e-02 3.90523970e-02 2.51594763e-02 1.48185370e-02 1.01150135e-02 8.70055426e-03 7.44076259e-03 6.67425711e-03 5.54700056e-03 3.55398306e-03 2.63739467e-01 6.11834645e-01 5.99308431e-01 4.95539516e-01 5.06441832e-01 5.23434639e-01 4.96876568e-01 4.94739354e-01 4.26998258e-01 3.17075610e-01 2.06729785e-01 1.13528095e-01 8.21557194e-02 1.03226319e-01 2.22096354e-01 4.72693473e-01 6.06855869e-01 6.76814735e-01 3.85654598e-01 2.05032155e-01 1.32437140e-01 9.36009660e-02 8.89757276e-02 1.20300323e-01 1.13175116e-01 7.48503357e-02 3.41222286e-02 1.53242908e-02 8.64055566e-03 3.50484322e-03 2.86678900e-03 3.44593846e-03 7.78491935e-03 1.43083632e-02 5.00502229e-01 5.19389391e-01 5.27159870e-01 5.21876156e-01 5.11688590e-01 5.00147283e-01 4.59834486e-01 3.79699767e-01 2.82637596e-01 1.75135419e-01 1.20213799e-01 1.39896289e-01 2.38200933e-01 4.35820043e-01 5.96844196e-01 6.43375397e-01 4.42415208e-01 2.44625017e-01 1.49529859e-01 1.25233456e-01 1.43066853e-01 3.97706717e-01 4.48576391e-01 5.35166979e-01 6.08351946e-01 6.40071452e-01 5.61393142e-01 2.27411855e-02 6.52139494e-03 7.97802582e-03 8.70669726e-03 5.10821164e-01 5.58813989e-01 5.52509487e-01 5.47598004e-01 5.71865916e-01 5.62302530e-01 5.74202657e-01 5.71254551e-01 5.40915072e-01 4.84012663e-01 3.52831006e-01 2.42179975e-01 2.49174520e-01 3.15437049e-01 5.00556409e-01 5.71196377e-01 5.99146485e-01 5.29262245e-01 3.54659349e-01 1.41045615e-01 9.01229456e-02 4.05805781e-02 1.33509740e-01 3.60932827e-01 4.61457878e-01 5.57807982e-01 5.83454907e-01 6.07445836e-01 6.62465572e-01 2.84455389e-01 6.55103028e-02 5.50088227e-01 6.07444346e-01 6.02008581e-01 5.98168612e-01 5.98375678e-01 6.01418972e-01 6.07056439e-01 6.26453876e-01 6.54350877e-01 6.83302104e-01 7.03914583e-01 7.09735870e-01 6.90827250e-01 6.75210476e-01 7.02115178e-01 6.61803007e-01 6.34519696e-01 6.05404258e-01 5.72218716e-01 6.26699984e-01 2.11501241e-01 3.85886952e-02 2.74142753e-02 1.25352323e-01 4.34216708e-01 4.59223509e-01 4.55367327e-01 4.73996520e-01 4.95922446e-01 6.17481768e-01 6.97918415e-01 5.02740264e-01 5.61704755e-01 5.51663280e-01 5.48415422e-01 5.42133391e-01 5.35974145e-01 5.29454529e-01 5.32031834e-01 5.43585718e-01 5.62782109e-01 5.89351475e-01 6.19091272e-01 6.64509356e-01 7.04161763e-01 7.01209486e-01 6.73588276e-01 6.54860079e-01 6.29159570e-01 5.96894979e-01 6.24630868e-01 5.90002656e-01 6.64418042e-01 3.37068327e-02 4.41705734e-02 5.62793016e-01 4.66029793e-01 4.41310585e-01 4.35427368e-01 4.44378614e-01 4.73669797e-01 5.07616878e-01 
