# vtk DataFile Version 2.0
results_case1_non_linear/iter9.vtk, Created by Freefem++ 
ASCII
DATASET UNSTRUCTURED_GRID
POINTS 961 float
0 0 0
0.033333333 0 0
0.066666667 0 0
0.1 0 0
0.13333333 0 0
0.16666667 0 0
0.2 0 0
0.23333333 0 0
0.26666667 0 0
0.3 0 0
0.33333333 0 0
0.36666667 0 0
0.4 0 0
0.43333333 0 0
0.46666667 0 0
0.5 0 0
0.53333333 0 0
0.56666667 0 0
0.6 0 0
0.63333333 0 0
0.66666667 0 0
0.7 0 0
0.73333333 0 0
0.76666667 0 0
0.8 0 0
0.83333333 0 0
0.86666667 0 0
0.9 0 0
0.93333333 0 0
0.96666667 0 0
1 0 0
0 0.033333333 0
0.033333333 0.033333333 0
0.066666667 0.033333333 0
0.1 0.033333333 0
0.13333333 0.033333333 0
0.16666667 0.033333333 0
0.2 0.033333333 0
0.23333333 0.033333333 0
0.26666667 0.033333333 0
0.3 0.033333333 0
0.33333333 0.033333333 0
0.36666667 0.033333333 0
0.4 0.033333333 0
0.43333333 0.033333333 0
0.46666667 0.033333333 0
0.5 0.033333333 0
0.53333333 0.033333333 0
0.56666667 0.033333333 0
0.6 0.033333333 0
0.63333333 0.033333333 0
0.66666667 0.033333333 0
0.7 0.033333333 0
0.73333333 0.033333333 0
0.76666667 0.033333333 0
0.8 0.033333333 0
0.83333333 0.033333333 0
0.86666667 0.033333333 0
0.9 0.033333333 0
0.93333333 0.033333333 0
0.96666667 0.033333333 0
1 0.033333333 0
0 0.066666667 0
0.033333333 0.066666667 0
0.066666667 0.066666667 0
0.1 0.066666667 0
0.13333333 0.066666667 0
0.16666667 0.066666667 0
0.2 0.066666667 0
0.23333333 0.066666667 0
0.26666667 0.066666667 0
0.3 0.066666667 0
0.33333333 0.066666667 0
0.36666667 0.066666667 0
0.4 0.066666667 0
0.43333333 0.066666667 0
0.46666667 0.066666667 0
0.5 0.066666667 0
0.53333333 0.066666667 0
0.56666667 0.066666667 0
0.6 0.066666667 0
0.63333333 0.066666667 0
0.66666667 0.066666667 0
0.7 0.066666667 0
0.73333333 0.066666667 0
0.76666667 0.066666667 0
0.8 0.066666667 0
0.83333333 0.066666667 0
0.86666667 0.066666667 0
0.9 0.066666667 0
0.93333333 0.066666667 0
0.96666667 0.066666667 0
1 0.066666667 0
0 0.1 0
0.033333333 0.1 0
0.066666667 0.1 0
0.1 0.1 0
0.13333333 0.1 0
0.16666667 0.1 0
0.2 0.1 0
0.23333333 0.1 0
0.26666667 0.1 0
0.3 0.1 0
0.33333333 0.1 0
0.36666667 0.1 0
0.4 0.1 0
0.43333333 0.1 0
0.46666667 0.1 0
0.5 0.1 0
0.53333333 0.1 0
0.56666667 0.1 0
0.6 0.1 0
0.63333333 0.1 0
0.66666667 0.1 0
0.7 0.1 0
0.73333333 0.1 0
0.76666667 0.1 0
0.8 0.1 0
0.83333333 0.1 0
0.86666667 0.1 0
0.9 0.1 0
0.93333333 0.1 0
0.96666667 0.1 0
1 0.1 0
0 0.13333333 0
0.033333333 0.13333333 0
0.066666667 0.13333333 0
0.1 0.13333333 0
0.13333333 0.13333333 0
0.16666667 0.13333333 0
0.2 0.13333333 0
0.23333333 0.13333333 0
0.26666667 0.13333333 0
0.3 0.13333333 0
0.33333333 0.13333333 0
0.36666667 0.13333333 0
0.4 0.13333333 0
0.43333333 0.13333333 0
0.46666667 0.13333333 0
0.5 0.13333333 0
0.53333333 0.13333333 0
0.56666667 0.13333333 0
0.6 0.13333333 0
0.63333333 0.13333333 0
0.66666667 0.13333333 0
0.7 0.13333333 0
0.73333333 0.13333333 0
0.76666667 0.13333333 0
0.8 0.13333333 0
0.83333333 0.13333333 0
0.86666667 0.13333333 0
0.9 0.13333333 0
0.93333333 0.13333333 0
0.96666667 0.13333333 0
1 0.13333333 0
0 0.16666667 0
0.033333333 0.16666667 0
0.066666667 0.16666667 0
0.1 0.16666667 0
0.13333333 0.16666667 0
0.16666667 0.16666667 0
0.2 0.16666667 0
0.23333333 0.16666667 0
0.26666667 0.16666667 0
0.3 0.16666667 0
0.33333333 0.16666667 0
0.36666667 0.16666667 0
0.4 0.16666667 0
0.43333333 0.16666667 0
0.46666667 0.16666667 0
0.5 0.16666667 0
0.53333333 0.16666667 0
0.56666667 0.16666667 0
0.6 0.16666667 0
0.63333333 0.16666667 0
0.66666667 0.16666667 0
0.7 0.16666667 0
0.73333333 0.16666667 0
0.76666667 0.16666667 0
0.8 0.16666667 0
0.83333333 0.16666667 0
0.86666667 0.16666667 0
0.9 0.16666667 0
0.93333333 0.16666667 0
0.96666667 0.16666667 0
1 0.16666667 0
0 0.2 0
0.033333333 0.2 0
0.066666667 0.2 0
0.1 0.2 0
0.13333333 0.2 0
0.16666667 0.2 0
0.2 0.2 0
0.23333333 0.2 0
0.26666667 0.2 0
0.3 0.2 0
0.33333333 0.2 0
0.36666667 0.2 0
0.4 0.2 0
0.43333333 0.2 0
0.46666667 0.2 0
0.5 0.2 0
0.53333333 0.2 0
0.56666667 0.2 0
0.6 0.2 0
0.63333333 0.2 0
0.66666667 0.2 0
0.7 0.2 0
0.73333333 0.2 0
0.76666667 0.2 0
0.8 0.2 0
0.83333333 0.2 0
0.86666667 0.2 0
0.9 0.2 0
0.93333333 0.2 0
0.96666667 0.2 0
1 0.2 0
0 0.23333333 0
0.033333333 0.23333333 0
0.066666667 0.23333333 0
0.1 0.23333333 0
0.13333333 0.23333333 0
0.16666667 0.23333333 0
0.2 0.23333333 0
0.23333333 0.23333333 0
0.26666667 0.23333333 0
0.3 0.23333333 0
0.33333333 0.23333333 0
0.36666667 0.23333333 0
0.4 0.23333333 0
0.43333333 0.23333333 0
0.46666667 0.23333333 0
0.5 0.23333333 0
0.53333333 0.23333333 0
0.56666667 0.23333333 0
0.6 0.23333333 0
0.63333333 0.23333333 0
0.66666667 0.23333333 0
0.7 0.23333333 0
0.73333333 0.23333333 0
0.76666667 0.23333333 0
0.8 0.23333333 0
0.83333333 0.23333333 0
0.86666667 0.23333333 0
0.9 0.23333333 0
0.93333333 0.23333333 0
0.96666667 0.23333333 0
1 0.23333333 0
0 0.26666667 0
0.033333333 0.26666667 0
0.066666667 0.26666667 0
0.1 0.26666667 0
0.13333333 0.26666667 0
0.16666667 0.26666667 0
0.2 0.26666667 0
0.23333333 0.26666667 0
0.26666667 0.26666667 0
0.3 0.26666667 0
0.33333333 0.26666667 0
0.36666667 0.26666667 0
0.4 0.26666667 0
0.43333333 0.26666667 0
0.46666667 0.26666667 0
0.5 0.26666667 0
0.53333333 0.26666667 0
0.56666667 0.26666667 0
0.6 0.26666667 0
0.63333333 0.26666667 0
0.66666667 0.26666667 0
0.7 0.26666667 0
0.73333333 0.26666667 0
0.76666667 0.26666667 0
0.8 0.26666667 0
0.83333333 0.26666667 0
0.86666667 0.26666667 0
0.9 0.26666667 0
0.93333333 0.26666667 0
0.96666667 0.26666667 0
1 0.26666667 0
0 0.3 0
0.033333333 0.3 0
0.066666667 0.3 0
0.1 0.3 0
0.13333333 0.3 0
0.16666667 0.3 0
0.2 0.3 0
0.23333333 0.3 0
0.26666667 0.3 0
0.3 0.3 0
0.33333333 0.3 0
0.36666667 0.3 0
0.4 0.3 0
0.43333333 0.3 0
0.46666667 0.3 0
0.5 0.3 0
0.53333333 0.3 0
0.56666667 0.3 0
0.6 0.3 0
0.63333333 0.3 0
0.66666667 0.3 0
0.7 0.3 0
0.73333333 0.3 0
0.76666667 0.3 0
0.8 0.3 0
0.83333333 0.3 0
0.86666667 0.3 0
0.9 0.3 0
0.93333333 0.3 0
0.96666667 0.3 0
1 0.3 0
0 0.33333333 0
0.033333333 0.33333333 0
0.066666667 0.33333333 0
0.1 0.33333333 0
0.13333333 0.33333333 0
0.16666667 0.33333333 0
0.2 0.33333333 0
0.23333333 0.33333333 0
0.26666667 0.33333333 0
0.3 0.33333333 0
0.33333333 0.33333333 0
0.36666667 0.33333333 0
0.4 0.33333333 0
0.43333333 0.33333333 0
0.46666667 0.33333333 0
0.5 0.33333333 0
0.53333333 0.33333333 0
0.56666667 0.33333333 0
0.6 0.33333333 0
0.63333333 0.33333333 0
0.66666667 0.33333333 0
0.7 0.33333333 0
0.73333333 0.33333333 0
0.76666667 0.33333333 0
0.8 0.33333333 0
0.83333333 0.33333333 0
0.86666667 0.33333333 0
0.9 0.33333333 0
0.93333333 0.33333333 0
0.96666667 0.33333333 0
1 0.33333333 0
0 0.36666667 0
0.033333333 0.36666667 0
0.066666667 0.36666667 0
0.1 0.36666667 0
0.13333333 0.36666667 0
0.16666667 0.36666667 0
0.2 0.36666667 0
0.23333333 0.36666667 0
0.26666667 0.36666667 0
0.3 0.36666667 0
0.33333333 0.36666667 0
0.36666667 0.36666667 0
0.4 0.36666667 0
0.43333333 0.36666667 0
0.46666667 0.36666667 0
0.5 0.36666667 0
0.53333333 0.36666667 0
0.56666667 0.36666667 0
0.6 0.36666667 0
0.63333333 0.36666667 0
0.66666667 0.36666667 0
0.7 0.36666667 0
0.73333333 0.36666667 0
0.76666667 0.36666667 0
0.8 0.36666667 0
0.83333333 0.36666667 0
0.86666667 0.36666667 0
0.9 0.36666667 0
0.93333333 0.36666667 0
0.96666667 0.36666667 0
1 0.36666667 0
0 0.4 0
0.033333333 0.4 0
0.066666667 0.4 0
0.1 0.4 0
0.13333333 0.4 0
0.16666667 0.4 0
0.2 0.4 0
0.23333333 0.4 0
0.26666667 0.4 0
0.3 0.4 0
0.33333333 0.4 0
0.36666667 0.4 0
0.4 0.4 0
0.43333333 0.4 0
0.46666667 0.4 0
0.5 0.4 0
0.53333333 0.4 0
0.56666667 0.4 0
0.6 0.4 0
0.63333333 0.4 0
0.66666667 0.4 0
0.7 0.4 0
0.73333333 0.4 0
0.76666667 0.4 0
0.8 0.4 0
0.83333333 0.4 0
0.86666667 0.4 0
0.9 0.4 0
0.93333333 0.4 0
0.96666667 0.4 0
1 0.4 0
0 0.43333333 0
0.033333333 0.43333333 0
0.066666667 0.43333333 0
0.1 0.43333333 0
0.13333333 0.43333333 0
0.16666667 0.43333333 0
0.2 0.43333333 0
0.23333333 0.43333333 0
0.26666667 0.43333333 0
0.3 0.43333333 0
0.33333333 0.43333333 0
0.36666667 0.43333333 0
0.4 0.43333333 0
0.43333333 0.43333333 0
0.46666667 0.43333333 0
0.5 0.43333333 0
0.53333333 0.43333333 0
0.56666667 0.43333333 0
0.6 0.43333333 0
0.63333333 0.43333333 0
0.66666667 0.43333333 0
0.7 0.43333333 0
0.73333333 0.43333333 0
0.76666667 0.43333333 0
0.8 0.43333333 0
0.83333333 0.43333333 0
0.86666667 0.43333333 0
0.9 0.43333333 0
0.93333333 0.43333333 0
0.96666667 0.43333333 0
1 0.43333333 0
0 0.46666667 0
0.033333333 0.46666667 0
0.066666667 0.46666667 0
0.1 0.46666667 0
0.13333333 0.46666667 0
0.16666667 0.46666667 0
0.2 0.46666667 0
0.23333333 0.46666667 0
0.26666667 0.46666667 0
0.3 0.46666667 0
0.33333333 0.46666667 0
0.36666667 0.46666667 0
0.4 0.46666667 0
0.43333333 0.46666667 0
0.46666667 0.46666667 0
0.5 0.46666667 0
0.53333333 0.46666667 0
0.56666667 0.46666667 0
0.6 0.46666667 0
0.63333333 0.46666667 0
0.66666667 0.46666667 0
0.7 0.46666667 0
0.73333333 0.46666667 0
0.76666667 0.46666667 0
0.8 0.46666667 0
0.83333333 0.46666667 0
0.86666667 0.46666667 0
0.9 0.46666667 0
0.93333333 0.46666667 0
0.96666667 0.46666667 0
1 0.46666667 0
0 0.5 0
0.033333333 0.5 0
0.066666667 0.5 0
0.1 0.5 0
0.13333333 0.5 0
0.16666667 0.5 0
0.2 0.5 0
0.23333333 0.5 0
0.26666667 0.5 0
0.3 0.5 0
0.33333333 0.5 0
0.36666667 0.5 0
0.4 0.5 0
0.43333333 0.5 0
0.46666667 0.5 0
0.5 0.5 0
0.53333333 0.5 0
0.56666667 0.5 0
0.6 0.5 0
0.63333333 0.5 0
0.66666667 0.5 0
0.7 0.5 0
0.73333333 0.5 0
0.76666667 0.5 0
0.8 0.5 0
0.83333333 0.5 0
0.86666667 0.5 0
0.9 0.5 0
0.93333333 0.5 0
0.96666667 0.5 0
1 0.5 0
0 0.53333333 0
0.033333333 0.53333333 0
0.066666667 0.53333333 0
0.1 0.53333333 0
0.13333333 0.53333333 0
0.16666667 0.53333333 0
0.2 0.53333333 0
0.23333333 0.53333333 0
0.26666667 0.53333333 0
0.3 0.53333333 0
0.33333333 0.53333333 0
0.36666667 0.53333333 0
0.4 0.53333333 0
0.43333333 0.53333333 0
0.46666667 0.53333333 0
0.5 0.53333333 0
0.53333333 0.53333333 0
0.56666667 0.53333333 0
0.6 0.53333333 0
0.63333333 0.53333333 0
0.66666667 0.53333333 0
0.7 0.53333333 0
0.73333333 0.53333333 0
0.76666667 0.53333333 0
[...]
CELL_DATA 1920
Scalars  Label int 1
LOOKUP_TABLE FreeFempp_table
0
0
0
0
0
0
0
0
0
0
0
0
0
0
0
0
0
0
0
0
0
0
0
0
0
0
0
0
0
0
0
0
0
0
0
0
0
0
0
0
0
0
0
0
0
0
0
0
0
0
0
0
0
0
0
0
0
0
0
0
0
0
0
0
0
0
0
0
0
0
0
0
0
0
0
0
0
0
0
0
0
0
0
0
0
0
0
0
0
0
0
0
0
0
0
0
0
0
0
0
0
0
0
0
0
0
0
0
0
0
0
0
0
0
0
0
0
0
0
0
0
0
0
0
0
0
0
0
0
0
0
0
0
0
0
0
0
0
0
0
0
0
0
0
0
0
0
0
0
0
0
0
0
0
0
0
0
0
0
0
0
0
0
0
0
0
0
0
0
0
0
0
0
0
0
0
0
0
0
0
0
0
0
0
0
0
0
0
0
0
0
0
0
0
0
0
0
0
0
0
0
0
0
0
0
0
0
0
0
0
0
0
0
0
0
0
0
0
0
0
0
0
0
0
0
0
0
0
0
0
0
0
0
0
0
0
0
0
0
0
0
0
0
0
0
0
0
0
0
0
0
0
0
0
0
0
0
0
0
0
0
0
0
0
0
0
0
0
0
0
0
0
0
0
0
0
0
0
0
0
0
0
0
0
0
0
0
0
0
0
0
0
0
0
0
0
0
0
0
0
0
0
0
0
0
0
0
0
0
0
0
0
0
0
0
0
0
0
0
0
0
0
0
0
0
0
0
0
0
0
0
0
0
0
0
0
0
0
0
0
0
0
0
0
0
0
0
0
0
0
0
0
0
0
0
0
0
0
0
0
0
0
0
0
0
0
0
0
0
0
0
0
0
0
0
0
0
0
0
0
0
0
0
0
0
0
0
0
0
0
0
0
0
0
0
0
0
0
0
0
0
0
0
0
0
0
0
0
0
0
0
0
0
0
0
0
0
0
0
0
0
0
0
0
0
0
0
0
0
0
0
0
0
0
0
0
0
0
0
0
0
0
0
0
0
0
0
0
0
0
0
0
0
0
0
0
0
0
0
0
0
0
0
0
0
0
0
0
0
0
0
0
0
0
0
0
0
0
0
0
0
0
0
0
0
0
0
0
0
0
0
0
0
0
0
0
0
0
0
0
0
0
0
0
0
0
0
0
0
0
0
0
0
0
0
0
0
0
0
0
0
0
0
0
0
0
0
0
0
0
0
0
0
0
0
0
0
0
0
0
0
0
0
0
0
0
0
0
0
0
0
0
0
0
0
0
0
0
0
0
0
0
0
0
0
0
0
0
0
0
0
0
0
0
0
0
0
0
0
0
0
0
0
0
0
0
0
0
0
0
0
0
0
0
0
0
0
0
0
0
0
0
0
0
0
0
0
0
0
0
0
0
0
0
0
0
0
0
0
0
0
0
0
0
0
0
0
0
0
0
0
0
0
0
0
0
0
0
0
0
0
0
0
0
0
0
0
0
0
0
0
0
0
0
0
0
0
0
0
0
0
0
0
0
0
0
0
0
0
0
0
0
0
0
0
0
0
0
0
0
0
0
0
0
0
0
0
0
0
0
0
0
0
0
0
0
0
0
0
0
0
0
0
0
0
0
0
0
0
0
0
0
0
0
0
0
0
0
0
0
0
0
0
0
0
0
0
0
0
0
0
0
0
0
0
0
0
0
0
0
0
0
0
0
0
0
0
0
0
0
0
0
0
0
0
0
0
0
0
0
0
0
0
0
0
0
0
0
0
0
0
0
0
0
0
0
0
0
0
0
0
0
0
0
0
0
0
0
0
0
0
0
0
0
0
0
0
0
0
0
0
0
0
0
0
0
0
0
0
0
0
0
0
0
0
0
0
0
0
0
0
0
0
0
0
0
0
0
0
0
0
0
0
0
0
0
0
0
0
0
0
0
0
0
0
0
0
0
0
0
0
0
0
0
0
0
0
0
0
0
0
0
0
0
0
0
0
0
0
0
0
0
0
0
0
0
0
0
0
0
0
0
0
0
0
0
0
0
0
0
0
0
0
0
0
0
0
0
0
0
0
0
0
0
0
0
0
0
0
0
0
0
0
0
0
0
0
0
0
0
0
0
0
0
0
0
0
0
0
0
0
0
0
0
0
0
0
0
0
0
0
0
0
0
0
0
0
0
0
0
0
0
0
0
0
0
0
0
0
0
0
0
0
0
0
0
0
0
0
0
0
0
0
0
0
0
0
0
0
0
0
0
0
0
0
0
0
0
0
0
0
0
0
0
0
0
0
0
0
0
0
0
0
0
0
0
0
0
0
0
0
0
0
0
0
0
0
0
0
0
0
0
0
0
0
0
0
0
0
0
0
0
0
0
0
0
0
0
0
0
0
0
0
0
0
0
0
0
0
0
0
0
0
0
0
0
0
0
0
0
0
0
0
0
0
0
0
0
0
0
0
0
0
0
0
0
0
0
0
0
0
0
0
0
0
0
0
0
0
0
0
0
0
0
0
0
0
0
0
0
0
0
0
0
0
0
0
0
0
0
0
0
0
0
0
0
0
0
0
0
0
0
0
0
0
0
0
0
0
0
0
0
0
0
0
0
0
0
0
0
0
0
0
0
0
0
0
0
0
0
0
0
0
0
0
0
0
0
0
0
0
0
0
0
0
0
0
0
0
0
0
0
0
0
0
0
0
0
0
0
0
0
0
0
0
0
0
0
0
0
0
0
0
0
0
0
0
0
0
0
0
0
0
0
0
0
0
0
0
0
0
0
0
0
0
0
0
0
0
0
0
0
0
0
0
0
0
0
0
0
0
0
0
0
0
0
0
0
0
0
0
0
0
0
0
0
0
0
0
0
0
0
0
0
0
0
0
0
0
0
0
0
0
0
0
0
0
0
0
0
0
0
0
0
0
0
0
0
0
0
0
0
0
0
0
0
0
0
0
0
0
0
0
0
0
0
0
0
0
0
0
0
0
0
0
0
0
0
0
0
0
0
0
0
0
0
0
0
0
0
0
0
0
0
0
0
0
0
0
0
0
0
0
0
0
0
0
0
0
0
0
0
0
0
0
0
0
0
0
0
0
0
0
0
0
0
0
0
0
0
0
0
0
0
0
0
0
0
0
0
0
0
0
0
0
0
0
0
0
0
0
0
0
0
0
0
0
0
0
0
0
0
0
0
0
0
0
0
0
0
0
0
0
0
0
0
0
0
0
0
0
0
0
0
0
0
0
0
0
0
0
0
0
0
0
0
0
0
0
0
0
0
0
0
0
0
0
0
0
0
0
0
0
0
0
0
0
0
0
0
0
0
0
0
0
0
0
0
0
0
0
0
0
0
0
0
0
0
0
0
0
0
0
0
0
0
0
0
0
0
0
0
0
0
0
0
0
0
0
0
0
0
0
0
0
0
0
0
0
0
0
0
0
0
0
0
0
0
0
0
0
0
0
0
0
0
0
0
0
0
0
0
0
0
0
0
0
0
0
0
0
0
0
0
0
0
0
0
0
0
0
0
0
0
0
0
0
0
0
0
0
0
0
0
0
0
0
0
0
0
0
0
0
0
0
0
0
0
0
0
0
0
0
0
0
0
0
0
0
0
0
0
0
0
0
0
0
0
0
0
0
0
0
0
0
0
0
0
0
0
0
0
0
0
0
0
0
0
0
0
0
0
0
0
0
0
0
0
0
0
0
0
0
0
0
0
0
0
0
0
0
0
0
0
0
0
0
0
0
0
0
0
0
0
0
0
0
0
0
0
0
0
0
0
0
0
0
0
0
0
0
0
0
0
0
0
0
0
0
0
0
0
0
0
0
0
0
0
0
0
0
0
0
0
0
0
0
0
0
0
0
0
0
0
0
0
0
0
0
0
0
0
0
0
0
0
0
0
0
0
0
0
0
0
0
0
0
0
0
0
0
0
0
0
0
0
0
0
0
0
0
0
0
0
0
0
0
0
0
0
0
0
0
0
0
0
0
0
0
0
0
0
0
0
0
0
0
0
0
0
0
0
0
0
0
0
0
0
0
0
0
0
0
0
0
0
0
0
0
0
0
0
0
0
0
0
0
0
0
0
0
0
0
0
0
0
0
0
0
0
1
1
1
1
1
1
1
1
1
1
1
1
1
1
1
1
1
1
1
1
1
1
1
1
1
1
1
1
1
1
2
2
2
2
2
2
2
2
2
2
2
2
2
2
2
2
2
2
2
2
2
2
2
2
2
2
2
2
2
2
3
3
3
3
3
3
3
3
3
3
3
3
3
3
3
3
3
3
3
3
3
3
3
3
3
3
3
3
3
3
4
4
4
4
4
4
4
4
4
4
4
4
4
4
4
4
4
4
4
4
4
4
4
4
4
4
4
4
4
4

LOOKUP_TABLE FreeFempp_table 5
1.00000000 0.00000000 0.00000000 1.00000000
1.00000000 1.00000000 0.00000000 1.00000000
1.00000000 0.00000000 1.00000000 1.00000000
0.00000000 1.00000000 0.00000000 1.00000000
0.00000000 1.00000000 1.00000000 1.00000000

POINT_DATA 961
FIELD FieldData 1
Density 1 961 float
8.12984407e-02 7.63901845e-02 7.67674744e-02 7.68923312e-02 7.69526064e-02 7.69742504e-02 7.69615173e-02 7.69082531e-02 7.67847225e-02 7.64955506e-02 7.57591426e-02 7.37137571e-02 6.90149069e-02 7.79627487e-02 9.13584530e-01 9.10913289e-01 9.18132544e-01 9.11704600e-01 9.02540982e-01 8.94496858e-01 8.87023687e-01 8.76694560e-01 8.33159804e-01 6.28535926e-01 4.19541359e-01 2.90124506e-01 2.30431318e-01 2.07063302e-01 1.98326111e-01 2.38689557e-01 1.02519743e-01 7.43702576e-02 6.03066199e-02 6.09745532e-02 6.12383783e-02 6.13369606e-02 6.13415390e-02 6.12621494e-02 6.10873997e-02 6.07820787e-02 6.02703318e-02 5.94317205e-02 5.81775159e-02 5.68289533e-02 5.89962974e-02 9.33439657e-02 9.22946155e-01 9.61425230e-02 9.76633877e-02 9.09512997e-01 9.08604681e-01 9.08775926e-01 9.08977985e-01 9.09427762e-01 9.10265505e-01 8.97505879e-01 8.72687757e-01 8.45589876e-01 8.27392459e-01 8.16461146e-01 8.37853909e-01 2.61274576e-01 7.35481307e-02 5.84973954e-02 5.87418787e-02 5.87236509e-02 5.87371513e-02 5.86520284e-02 5.84261902e-02 5.80336154e-02 5.74390739e-02 5.65685816e-02 5.52639589e-02 5.31678014e-02 4.94558550e-02 4.50096764e-02 6.00974336e-02 9.22339022e-01 9.07106996e-01 7.75658712e-02 6.68400154e-02 6.00020960e-02 4.84605096e-02 4.67131622e-02 5.43652214e-02 7.31076971e-02 2.80607820e-01 3.07839364e-01 4.28555995e-01 5.17616510e-01 5.67620099e-01 5.47699749e-01 1.86144844e-01 7.30525702e-02 5.79229854e-02 5.82876094e-02 5.82506023e-02 5.81909753e-02 5.79717606e-02 5.74990474e-02 5.67223318e-02 5.56047745e-02 5.40758036e-02 5.19696698e-02 4.89205234e-02 4.41544577e-02 3.74607816e-02 3.56065743e-02 5.80146834e-02 9.11078334e-01 9.04680550e-01 7.35686123e-02 5.37389256e-02 3.37192342e-02 2.28572637e-02 1.75369009e-02 1.70053672e-02 1.91400331e-02 3.01590543e-02 4.50342670e-02 5.68345375e-02 6.36088923e-02 6.66721016e-02 8.39929357e-02 7.25553185e-02 5.73236868e-02 5.78408912e-02 5.79224639e-02 5.79229780e-02 5.76230064e-02 5.68775907e-02 5.56332208e-02 5.38934171e-02 5.16526364e-02 4.88212593e-02 4.51613441e-02 4.02229950e-02 3.35997976e-02 2.78809741e-02 2.94591952e-02 4.87848930e-02 9.10015285e-01 9.24739480e-01 9.95013341e-02 6.98330551e-02 4.65575904e-02 2.51192972e-02 1.80875994e-02 1.15756616e-02 1.00478269e-02 1.40991202e-02 2.84075551e-02 4.25009876e-02 4.86806296e-02 6.56614900e-02 7.21444190e-02 5.67457490e-02 5.73575944e-02 5.76781221e-02 5.79155721e-02 5.76617010e-02 5.66838570e-02 5.49422204e-02 5.25379926e-02 4.96158823e-02 4.62427735e-02 4.23200019e-02 3.75689641e-02 3.16029154e-02 2.46714093e-02 1.96756180e-02 1.92918815e-02 3.23827453e-02 7.11907148e-02 9.30216789e-01 9.28278744e-01 9.14183259e-01 9.12778556e-01 7.50333667e-02 4.07962613e-02 1.69339031e-02 1.02977287e-02 1.10287797e-02 2.50112470e-02 4.20976281e-02 6.23786077e-02 7.30680376e-02 5.75159714e-02 5.78998290e-02 5.83342724e-02 5.88533133e-02 5.88106513e-02 5.78516163e-02 5.59097566e-02 5.31309880e-02 4.97693866e-02 4.60448712e-02 4.20268886e-02 3.75658907e-02 3.23500261e-02 2.60812603e-02 1.92245953e-02 1.39499307e-02 1.38985189e-02 2.37792712e-02 4.51114736e-02 9.09051359e-01 9.10458386e-01 9.14206624e-01 9.33730423e-01 9.31206048e-01 9.14608836e-01 4.02139165e-02 1.26166446e-02 1.06205363e-02 2.89010890e-02 5.81554249e-02 8.11948329e-02 6.73766583e-02 6.69006556e-02 6.57480583e-02 6.48677051e-02 6.41992688e-02 6.35797605e-02 6.26986995e-02 6.11190870e-02 5.84522299e-02 5.45809902e-02 4.97462600e-02 4.43840362e-02 3.87782604e-02 3.26400064e-02 2.59135105e-02 1.91125795e-02 1.42997317e-02 1.41068725e-02 1.35943834e-02 1.88047532e-02 3.81424911e-02 6.12937845e-02 8.82795155e-02 1.19203165e-01 9.35735643e-01 9.24836576e-01 4.26627100e-02 9.52042639e-03 1.31587787e-02 4.92658131e-02 1.14109404e-01 1.13904968e-01 1.17590629e-01 1.10012062e-01 1.00807056e-01 9.38001797e-02 9.10758078e-02 9.26742777e-02 9.63357687e-02 9.88912806e-02 9.77032259e-02 9.21834335e-02 8.37469548e-02 7.33038783e-02 6.14057034e-02 4.86365035e-02 3.82862650e-02 3.03386152e-02 2.37129293e-02 1.63336098e-02 1.37164388e-02 1.91092528e-02 3.25562954e-02 6.75107390e-02 1.03903510e-01 1.19316243e-01 1.17786460e-01 9.28328514e-01 1.63491927e-02 9.44087189e-03 3.15232202e-02 7.04902947e-01 8.95865381e-01 8.98419321e-01 9.05224144e-01 9.09154534e-01 9.10441995e-01 9.10425961e-01 9.09448504e-01 9.06955421e-01 9.02517915e-01 8.96439552e-01 8.88863146e-01 8.77192557e-01 8.49933028e-01 7.76033342e-01 6.04173064e-01 3.32941324e-01 1.29972249e-01 8.35235193e-02 5.64073920e-02 3.33467461e-02 3.27566415e-02 4.80072610e-02 8.01009759e-02 1.07633315e-01 1.21362202e-01 9.90180820e-02 9.33214962e-01 5.85444532e-02 9.35099367e-03 1.57020539e-02 8.99245083e-01 9.08385873e-01 9.08155143e-01 9.08081055e-01 9.08019245e-01 9.07951117e-01 9.07867670e-01 9.07771468e-01 9.07674432e-01 9.07579899e-01 9.07487869e-01 9.07400727e-01 9.07324791e-01 9.09144402e-01 9.11430776e-01 9.09091592e-01 8.95956337e-01 8.65958393e-01 7.75482774e-01 5.85136294e-01 3.07117671e-01 1.29431590e-01 8.92200842e-02 1.00574605e-01 1.23741202e-01 1.26896098e-01 1.07175827e-01 9.19968247e-01 9.29272771e-01 9.45981685e-03 9.51565430e-03 9.10100758e-01 9.09822643e-01 9.09469366e-01 9.09355521e-01 9.09337819e-01 9.09358799e-01 9.09338713e-01 9.09244418e-01 9.09119546e-01 9.09016073e-01 9.08938706e-01 9.08881664e-01 9.08838511e-01 9.08810437e-01 9.08794224e-01 9.08802509e-01 9.08856034e-01 9.08939302e-01 9.09040928e-01 9.09165919e-01 9.09190238e-01 9.09972429e-01 9.08510447e-01 9.73272622e-02 1.21749870e-01 1.74318448e-01 1.55773610e-01 9.35313344e-01 9.38963652e-01 9.63538047e-03 9.53588448e-03 4.52013433e-01 9.10000563e-01 9.11206841e-01 9.09341276e-01 9.09496784e-01 9.09700513e-01 9.09914494e-01 9.11172628e-01 9.13526535e-01 9.11219239e-01 9.09609675e-01 9.10284758e-01 9.12458539e-01 9.13707316e-01 9.10268962e-01 9.10307646e-01 9.10390675e-01 9.10557508e-01 9.10749376e-01 9.10887897e-01 9.11015153e-01 9.11185086e-01 9.11401808e-01 9.12275970e-01 9.14896369e-01 1.15391344e-01 1.89475656e-01 1.78106800e-01 9.63081777e-01 9.76165477e-03 9.66250151e-03 9.19965729e-02 9.13421288e-02 9.11331996e-02 9.11581889e-02 9.13556144e-02 9.19518247e-02 1.05314195e-01 1.81767672e-01 3.14630002e-01 4.36077654e-01 5.15086114e-01 5.67218065e-01 6.07570529e-01 6.48782551e-01 6.94579005e-01 7.41421402e-01 7.81426251e-01 8.08333933e-01 8.26274574e-01 8.52494478e-01 8.86337459e-01 9.13209975e-01 9.09052730e-01 9.08229887e-01 9.11129117e-01 9.15564060e-01 9.18763518e-01 9.35900629e-01 9.54435349e-01 1.06227985e-02 9.75557324e-03 9.08506066e-02 8.79415497e-02 8.77344683e-02 8.75800475e-02 8.76248255e-02 8.79517868e-02 8.82570371e-02 8.87790695e-02 8.96629989e-02 9.03448164e-02 9.07355100e-02 9.09168199e-02 9.09237415e-02 8.71470645e-02 9.27173048e-02 1.00421317e-01 1.06696054e-01 1.07444033e-01 9.88562703e-02 8.55766833e-02 8.77743438e-02 8.25671032e-02 8.05458874e-02 8.44457522e-02 5.96100152e-01 9.02992368e-01 9.09703732e-01 9.13893998e-01 9.27541852e-01 1.19017456e-02 1.07936384e-02 9.07121450e-02 8.77920687e-02 8.75798240e-02 8.73391852e-02 8.72241855e-02 8.72670114e-02 8.69854763e-02 8.63113850e-02 8.62475634e-02 8.67727995e-02 8.73468891e-02 8.76575261e-02 8.76624733e-02 8.74616355e-02 8.70556086e-02 8.64228383e-02 8.56496766e-02 8.48260969e-02 8.42129961e-02 8.39323550e-02 8.19260702e-02 8.07371736e-02 7.88286552e-02 8.32850263e-02 8.13642442e-02 1.08876564e-01 9.07538414e-01 9.12531197e-01 9.16485548e-01 1.27448151e-02 1.17584299e-02 9.04270336e-02 8.73962715e-02 8.71784389e-02 8.68884847e-02 8.66580456e-02 8.65627304e-02 8.64415169e-02 8.63431618e-02 8.66422579e-02 8.71839598e-02 8.76482055e-02 8.78810659e-02 8.78575444e-02 8.76338482e-02 8.71548504e-02 8.62881914e-02 8.50153193e-02 8.36880133e-02 8.31380188e-02 8.33330303e-02 8.47661570e-02 8.63094181e-02 9.05556902e-02 7.54952610e-01 9.01493013e-01 9.01547611e-01 9.08183098e-01 9.11549866e-01 9.09223080e-01 1.46732815e-02 1.27718234e-02 8.98632854e-02 8.65180269e-02 8.62741694e-02 8.59384537e-02 8.56335387e-02 8.55157375e-02 8.56480673e-02 8.61011371e-02 8.68582204e-02 8.76262486e-02 8.81154314e-02 8.82937685e-02 8.82180780e-02 8.79156142e-02 8.73368382e-02 8.64005834e-02 8.53775740e-02 8.34697708e-02 8.35537761e-02 8.65608454e-02 8.84639323e-02 9.22707841e-02 8.82587075e-01 9.05340731e-01 9.06173289e-01 9.08143103e-01 9.09567893e-01 9.08672571e-01 8.03733841e-02 1.87950432e-02 1.51698189e-02 8.88415277e-02 8.48400816e-02 8.45090672e-02 8.40900913e-02 8.37272331e-02 8.37147459e-02 8.43243897e-02 8.55363235e-02 8.68835002e-02 8.80053639e-02 8.86002705e-02 8.87561664e-02 8.86447355e-02 8.83066654e-02 8.76742750e-02 8.66942257e-02 8.52825567e-02 8.57905596e-02 8.72676820e-02 9.01944861e-02 1.50197476e-01 9.07118201e-01 9.06524539e-01 9.07134116e-01 9.08285975e-01 9.09014761e-01 8.81425619e-01 9.01614726e-02 6.71806857e-02 3.49108540e-02 2.44640280e-02 8.71424824e-02 8.20146352e-02 8.15309510e-02 8.05675834e-02 7.99465775e-02 8.03545117e-02 8.20367858e-02 8.46197978e-02 8.67829695e-02 8.83725435e-02 8.91051590e-02 8.92354846e-02 8.91055316e-02 8.87939706e-02 8.81759152e-02 8.72272700e-02 8.74865875e-02 8.89669880e-02 9.21453089e-02 4.54821944e-01 9.11093771e-01 9.07419562e-01 9.07329559e-01 9.07797754e-01 9.10679877e-01 5.45108497e-01 9.22297910e-02 8.41769502e-02 7.05787092e-02 5.64301237e-02 6.13670833e-02 8.45367685e-02 7.77088106e-02 7.73683712e-02 7.62526020e-02 7.18589723e-02 7.38073662e-02 7.82695413e-02 8.33804682e-02 8.66618231e-02 8.87700766e-02 8.96305591e-02 8.97069648e-02 8.95456225e-02 8.93770605e-02 8.89161825e-02 8.90984461e-02 9.04262662e-02 1.28349945e-01 7.33803272e-01 9.10334289e-01 9.07808185e-01 9.06982183e-01 9.06360865e-01 9.05950487e-01 2.11209521e-01 9.14038941e-02 8.75138864e-02 8.19029510e-02 7.62075186e-02 7.49489889e-02 7.96157718e-02 8.11567754e-02 7.18373358e-02 7.14426860e-02 6.97153956e-02 7.16620386e-02 7.31445476e-02 7.98569024e-02 8.21336955e-02 8.67743194e-02 8.92275795e-02 9.01134908e-02 9.01674852e-02 8.99005011e-02 8.98809880e-02 9.05548260e-02 9.16973501e-02 1.34038329e-01 7.10805058e-01 9.08942997e-01 9.07917500e-01 9.06442344e-01 9.04847085e-01 8.90122294e-01 1.19855970e-01 9.07493159e-02 8.83638263e-02 8.39080364e-02 8.11990947e-02 8.04815665e-02 7.93646723e-02 8.52306262e-02 7.88645521e-02 6.66263029e-02 6.51951581e-02 5.99263348e-02 7.20938221e-02 8.45381692e-02 1.11710899e-01 8.68827701e-02 8.75382796e-02 8.98106471e-02 9.05006304e-02 9.03384164e-02 9.07572359e-02 9.14372578e-02 9.27043408e-02 1.22148752e-01 4.97222066e-01 8.80547941e-01 9.07704830e-01 9.10431743e-01 9.01853740e-01 8.33258331e-01 1.17490873e-01 9.08615515e-02 8.89124349e-02 8.59626979e-02 8.37037936e-02 8.20408240e-02 8.09426382e-02 8.05239007e-02 8.65478888e-02 8.11775997e-02 6.72380254e-02 6.44386783e-02 5.79666793e-02 6.98358640e-02 9.58474576e-02 9.00967300e-01 9.12694559e-02 8.98762345e-02 9.04893503e-02 9.12342593e-02 9.15942043e-02 9.21604931e-02 1.12520300e-01 2.01564893e-01 4.19521898e-01 7.61039853e-01 8.47327650e-01 8.54432642e-01 8.49435568e-01 7.42327094e-01 1.78350747e-01 9.10627991e-02 8.94945636e-02 8.78542960e-02 8.62804651e-02 8.40360820e-02 8.18917975e-02 8.05709884e-02 8.04106146e-02 8.70023891e-02 8.68749544e-02 7.39493519e-02 7.12702200e-02 6.94704577e-02 7.69941211e-02 8.90518308e-01 9.05852973e-01 9.04819220e-02 9.11349878e-02 9.16760117e-02 9.22745615e-02 1.08233124e-01 2.02628791e-01 5.53199589e-01 7.17301011e-01 7.06242263e-01 7.27721572e-01 6.87663257e-01 6.60867214e-01 6.25454485e-01 3.79376620e-01 8.95420164e-02 8.94776210e-02 8.88098702e-02 8.79189298e-02 8.67843404e-02 8.47735330e-02 8.15213025e-02 7.93328956e-02 7.98044205e-02 8.75174552e-02 9.02433619e-02 6.14884458e-02 5.96083850e-02 7.81433731e-02 8.44679773e-02 9.06590343e-01 8.92947018e-01 9.56324637e-02 8.70016813e-02 9.23737884e-02 1.07782088e-01 3.29955935e-01 5.41372001e-01 8.28001201e-01 8.66824269e-01 7.90044308e-01 6.89562380e-01 5.72829366e-01 5.10742843e-01 4.72846031e-01 3.07177305e-01 9.61698815e-02 8.85084495e-02 8.84732753e-02 8.83528516e-02 8.71172473e-02 8.70137736e-02 8.67923647e-02 8.58674645e-02 8.56229812e-02 8.88000950e-02 2.30942115e-01 5.74453250e-02 3.59380506e-02 5.68928346e-02 9.12175030e-02 9.00838554e-01 8.51763636e-02 8.26237574e-02 1.15397491e-01 5.58783293e-01 8.25557888e-01 8.13958228e-01 7.35486507e-01 8.45791519e-01 8.85187447e-01 8.30921888e-01 7.15308547e-01 6.00335777e-01 5.03813744e-01 4.77969527e-01 4.34990227e-01 2.33048975e-01 9.03322771e-02 9.15045068e-02 9.19159278e-02 9.16072130e-02 9.11144093e-02 8.85632932e-02 1.85721606e-01 4.07807469e-01 1.09192938e-01 1.25824064e-01 1.13740772e-01 8.45282376e-02 7.51377270e-02 8.50559473e-01 8.85846257e-01 9.05138850e-02 8.91901553e-02 8.93492281e-01 9.01383936e-01 9.05004621e-01 9.10004854e-01 8.78396988e-01 8.90609145e-01 9.02118564e-01 8.86021256e-01 8.05877507e-01 7.04917848e-01 5.87599277e-01 5.75942278e-01 6.59170151e-01 7.38849282e-01 7.13373721e-01 4.57701176e-01 2.10652575e-01 1.53891534e-01 3.42192441e-01 8.54085684e-01 8.15613568e-01 8.27340543e-01 1.96304724e-01 9.69015732e-02 2.75219709e-01 1.87152714e-01 1.01042688e-01 8.86035562e-01 9.30610821e-02 9.72597599e-02 8.76132622e-02 8.98044586e-01 9.06457007e-01 9.06731129e-01 9.11507308e-01 8.23939145e-01 8.82158637e-01 9.07428265e-01 9.10987139e-01 8.91034126e-01 8.50246012e-01 7.81367958e-01 7.82550514e-01 8.30146909e-01 8.73948455e-01 8.93070519e-01 9.02405441e-01 9.09137964e-01 9.16384518e-01 9.06183600e-01 8.81036878e-01 8.24768126e-01 7.99910724e-01 2.13148177e-01 1.41872406e-01 3.41755748e-01 3.00797701e-01 7.96753764e-02 8.80565703e-01 8.84616971e-02 9.86066461e-02 1.02791801e-01 1.01346605e-01 9.06671226e-01 9.06982541e-01 9.07897949e-01 8.93077552e-01 8.86957407e-01 9.08990741e-01 9.08966124e-01 9.08919990e-01 9.08936799e-01 9.11860883e-01 9.05993700e-01 8.97620499e-01 8.75450015e-01 7.67792046e-01 4.69280809e-01 2.27719799e-01 1.55779570e-01 1.66003391e-01 2.19786376e-01 3.60492468e-01 4.41239148e-01 1.57795340e-01 1.04962386e-01 1.88033417e-01 2.60511160e-01 2.74882287e-01 1.34700522e-01 8.97877067e-02 9.25673917e-02 1.10815093e-01 1.10119708e-01 9.06892717e-01 9.06425714e-01 8.99831653e-01 3.56250465e-01 2.98875600e-01 9.09779310e-01 9.07990873e-01 9.08026159e-01 9.10713136e-01 8.54628861e-01 7.48312116e-01 5.95100999e-01 2.98437715e-01 1.15564719e-01 9.43004414e-02 9.44173411e-02 9.37042907e-02 9.33635235e-02 9.28515196e-02 8.97257477e-02 8.96878317e-02 9.02407765e-02 
