# vtk DataFile Version 2.0
results_case1_non_linear/iter10.vtk, Created by Freefem++ 
ASCII
DATASET UNSTRUCTURED_GRID
POINTS 961 float
0 0 0
0.033333333 0 0
0.066666667 0 0
0.1 0 0
0.13333333 0 0
0.16666667 0 0
0.2 0 0
0.23333333 0 0
0.26666667 0 0
0.3 0 0
0.33333333 0 0
0.36666667 0 0
0.4 0 0
0.43333333 0 0
0.46666667 0 0
0.5 0 0
0.53333333 0 0
0.56666667 0 0
0.6 0 0
0.63333333 0 0
0.66666667 0 0
0.7 0 0
0.73333333 0 0
0.76666667 0 0
0.8 0 0
0.83333333 0 0
0.86666667 0 0
0.9 0 0
0.93333333 0 0
0.96666667 0 0
1 0 0
0 0.033333333 0
0.033333333 0.033333333 0
0.066666667 0.033333333 0
0.1 0.033333333 0
0.13333333 0.033333333 0
0.16666667 0.033333333 0
0.2 0.033333333 0
0.23333333 0.033333333 0
0.26666667 0.033333333 0
0.3 0.033333333 0
0.33333333 0.033333333 0
0.36666667 0.033333333 0
0.4 0.033333333 0
0.43333333 0.033333333 0
0.46666667 0.033333333 0
0.5 0.033333333 0
0.53333333 0.033333333 0
0.56666667 0.033333333 0
0.6 0.033333333 0
0.63333333 0.033333333 0
0.66666667 0.033333333 0
0.7 0.033333333 0
0.73333333 0.033333333 0
0.76666667 0.033333333 0
0.8 0.033333333 0
0.83333333 0.033333333 0
0.86666667 0.033333333 0
0.9 0.033333333 0
0.93333333 0.033333333 0
0.96666667 0.033333333 0
1 0.033333333 0
0 0.066666667 0
0.033333333 0.066666667 0
0.066666667 0.066666667 0
0.1 0.066666667 0
0.13333333 0.066666667 0
0.16666667 0.066666667 0
0.2 0.066666667 0
0.23333333 0.066666667 0
0.26666667 0.066666667 0
0.3 0.066666667 0
0.33333333 0.066666667 0
0.36666667 0.066666667 0
0.4 0.066666667 0
0.43333333 0.066666667 0
0.46666667 0.066666667 0
0.5 0.066666667 0
0.53333333 0.066666667 0
0.56666667 0.066666667 0
0.6 0.066666667 0
0.63333333 0.066666667 0
0.66666667 0.066666667 0
0.7 0.066666667 0
0.73333333 0.066666667 0
0.76666667 0.066666667 0
0.8 0.066666667 0
0.83333333 0.066666667 0
0.86666667 0.066666667 0
0.9 0.066666667 0
0.93333333 0.066666667 0
0.96666667 0.066666667 0
1 0.066666667 0
0 0.1 0
0.033333333 0.1 0
0.066666667 0.1 0
0.1 0.1 0
0.13333333 0.1 0
0.16666667 0.1 0
0.2 0.1 0
0.23333333 0.1 0
0.26666667 0.1 0
0.3 0.1 0
0.33333333 0.1 0
0.36666667 0.1 0
0.4 0.1 0
0.43333333 0.1 0
0.46666667 0.1 0
0.5 0.1 0
0.53333333 0.1 0
0.56666667 0.1 0
0.6 0.1 0
0.63333333 0.1 0
0.66666667 0.1 0
0.7 0.1 0
0.73333333 0.1 0
0.76666667 0.1 0
0.8 0.1 0
0.83333333 0.1 0
0.86666667 0.1 0
0.9 0.1 0
0.93333333 0.1 0
0.96666667 0.1 0
1 0.1 0
0 0.13333333 0
0.033333333 0.13333333 0
0.066666667 0.13333333 0
0.1 0.13333333 0
0.13333333 0.13333333 0
0.16666667 0.13333333 0
0.2 0.13333333 0
0.23333333 0.13333333 0
0.26666667 0.13333333 0
0.3 0.13333333 0
0.33333333 0.13333333 0
0.36666667 0.13333333 0
0.4 0.13333333 0
0.43333333 0.13333333 0
0.46666667 0.13333333 0
0.5 0.13333333 0
0.53333333 0.13333333 0
0.56666667 0.13333333 0
0.6 0.13333333 0
0.63333333 0.13333333 0
0.66666667 0.13333333 0
0.7 0.13333333 0
0.73333333 0.13333333 0
0.76666667 0.13333333 0
0.8 0.13333333 0
0.83333333 0.13333333 0
0.86666667 0.13333333 0
0.9 0.13333333 0
0.93333333 0.13333333 0
0.96666667 0.13333333 0
1 0.13333333 0
0 0.16666667 0
0.033333333 0.16666667 0
0.066666667 0.16666667 0
0.1 0.16666667 0
0.13333333 0.16666667 0
0.16666667 0.16666667 0
0.2 0.16666667 0
0.23333333 0.16666667 0
0.26666667 0.16666667 0
0.3 0.16666667 0
0.33333333 0.16666667 0
0.36666667 0.16666667 0
0.4 0.16666667 0
0.43333333 0.16666667 0
0.46666667 0.16666667 0
0.5 0.16666667 0
0.53333333 0.16666667 0
0.56666667 0.16666667 0
0.6 0.16666667 0
0.63333333 0.16666667 0
0.66666667 0.16666667 0
0.7 0.16666667 0
0.73333333 0.16666667 0
0.76666667 0.16666667 0
0.8 0.16666667 0
0.83333333 0.16666667 0
0.86666667 0.16666667 0
0.9 0.16666667 0
0.93333333 0.16666667 0
0.96666667 0.16666667 0
1 0.16666667 0
0 0.2 0
0.033333333 0.2 0
0.066666667 0.2 0
0.1 0.2 0
0.13333333 0.2 0
0.16666667 0.2 0
0.2 0.2 0
0.23333333 0.2 0
0.26666667 0.2 0
0.3 0.2 0
0.33333333 0.2 0
0.36666667 0.2 0
0.4 0.2 0
0.43333333 0.2 0
0.46666667 0.2 0
0.5 0.2 0
0.53333333 0.2 0
0.56666667 0.2 0
0.6 0.2 0
0.63333333 0.2 0
0.66666667 0.2 0
0.7 0.2 0
0.73333333 0.2 0
0.76666667 0.2 0
0.8 0.2 0
0.83333333 0.2 0
0.86666667 0.2 0
0.9 0.2 0
0.93333333 0.2 0
0.96666667 0.2 0
1 0.2 0
0 0.23333333 0
0.033333333 0.23333333 0
0.066666667 0.23333333 0
0.1 0.23333333 0
0.13333333 0.23333333 0
0.16666667 0.23333333 0
0.2 0.23333333 0
0.23333333 0.23333333 0
0.26666667 0.23333333 0
0.3 0.23333333 0
0.33333333 0.23333333 0
0.36666667 0.23333333 0
0.4 0.23333333 0
0.43333333 0.23333333 0
0.46666667 0.23333333 0
0.5 0.23333333 0
0.53333333 0.23333333 0
0.56666667 0.23333333 0
0.6 0.23333333 0
0.63333333 0.23333333 0
0.66666667 0.23333333 0
0.7 0.23333333 0
0.73333333 0.23333333 0
0.76666667 0.23333333 0
0.8 0.23333333 0
0.83333333 0.23333333 0
0.86666667 0.23333333 0
0.9 0.23333333 0
0.93333333 0.23333333 0
0.96666667 0.23333333 0
1 0.23333333 0
0 0.26666667 0
0.033333333 0.26666667 0
0.066666667 0.26666667 0
0.1 0.26666667 0
0.13333333 0.26666667 0
0.16666667 0.26666667 0
0.2 0.26666667 0
0.23333333 0.26666667 0
0.26666667 0.26666667 0
0.3 0.26666667 0
0.33333333 0.26666667 0
0.36666667 0.26666667 0
0.4 0.26666667 0
0.43333333 0.26666667 0
0.46666667 0.26666667 0
0.5 0.26666667 0
0.53333333 0.26666667 0
0.56666667 0.26666667 0
0.6 0.26666667 0
0.63333333 0.26666667 0
0.66666667 0.26666667 0
0.7 0.26666667 0
0.73333333 0.26666667 0
0.76666667 0.26666667 0
0.8 0.26666667 0
0.83333333 0.26666667 0
0.86666667 0.26666667 0
0.9 0.26666667 0
0.93333333 0.26666667 0
0.96666667 0.26666667 0
1 0.26666667 0
0 0.3 0
0.033333333 0.3 0
0.066666667 0.3 0
0.1 0.3 0
0.13333333 0.3 0
0.16666667 0.3 0
0.2 0.3 0
0.23333333 0.3 0
0.26666667 0.3 0
0.3 0.3 0
0.33333333 0.3 0
0.36666667 0.3 0
0.4 0.3 0
0.43333333 0.3 0
0.46666667 0.3 0
0.5 0.3 0
0.53333333 0.3 0
0.56666667 0.3 0
0.6 0.3 0
0.63333333 0.3 0
0.66666667 0.3 0
0.7 0.3 0
0.73333333 0.3 0
0.76666667 0.3 0
0.8 0.3 0
0.83333333 0.3 0
0.86666667 0.3 0
0.9 0.3 0
0.93333333 0.3 0
0.96666667 0.3 0
1 0.3 0
0 0.33333333 0
0.033333333 0.33333333 0
0.066666667 0.33333333 0
0.1 0.33333333 0
0.13333333 0.33333333 0
0.16666667 0.33333333 0
0.2 0.33333333 0
0.23333333 0.33333333 0
0.26666667 0.33333333 0
0.3 0.33333333 0
0.33333333 0.33333333 0
0.36666667 0.33333333 0
0.4 0.33333333 0
0.43333333 0.33333333 0
0.46666667 0.33333333 0
0.5 0.33333333 0
0.53333333 0.33333333 0
0.56666667 0.33333333 0
0.6 0.33333333 0
0.63333333 0.33333333 0
0.66666667 0.33333333 0
0.7 0.33333333 0
0.73333333 0.33333333 0
0.76666667 0.33333333 0
0.8 0.33333333 0
0.83333333 0.33333333 0
0.86666667 0.33333333 0
0.9 0.33333333 0
0.93333333 0.33333333 0
0.96666667 0.33333333 0
1 0.33333333 0
0 0.36666667 0
0.033333333 0.36666667 0
0.066666667 0.36666667 0
0.1 0.36666667 0
0.13333333 0.36666667 0
0.16666667 0.36666667 0
0.2 0.36666667 0
0.23333333 0.36666667 0
0.26666667 0.36666667 0
0.3 0.36666667 0
0.33333333 0.36666667 0
0.36666667 0.36666667 0
0.4 0.36666667 0
0.43333333 0.36666667 0
0.46666667 0.36666667 0
0.5 0.36666667 0
0.53333333 0.36666667 0
0.56666667 0.36666667 0
0.6 0.36666667 0
0.63333333 0.36666667 0
0.66666667 0.36666667 0
0.7 0.36666667 0
0.73333333 0.36666667 0
0.76666667 0.36666667 0
0.8 0.36666667 0
0.83333333 0.36666667 0
0.86666667 0.36666667 0
0.9 0.36666667 0
0.93333333 0.36666667 0
0.96666667 0.36666667 0
1 0.36666667 0
0 0.4 0
0.033333333 0.4 0
0.066666667 0.4 0
0.1 0.4 0
0.13333333 0.4 0
0.16666667 0.4 0
0.2 0.4 0
0.23333333 0.4 0
0.26666667 0.4 0
0.3 0.4 0
0.33333333 0.4 0
0.36666667 0.4 0
0.4 0.4 0
0.43333333 0.4 0
0.46666667 0.4 0
0.5 0.4 0
0.53333333 0.4 0
0.56666667 0.4 0
0.6 0.4 0
0.63333333 0.4 0
0.66666667 0.4 0
0.7 0.4 0
0.73333333 0.4 0
0.76666667 0.4 0
0.8 0.4 0
0.83333333 0.4 0
0.86666667 0.4 0
0.9 0.4 0
0.93333333 0.4 0
0.96666667 0.4 0
1 0.4 0
0 0.43333333 0
0.033333333 0.43333333 0
0.066666667 0.43333333 0
0.1 0.43333333 0
0.13333333 0.43333333 0
0.16666667 0.43333333 0
0.2 0.43333333 0
0.23333333 0.43333333 0
0.26666667 0.43333333 0
0.3 0.43333333 0
0.33333333 0.43333333 0
0.36666667 0.43333333 0
0.4 0.43333333 0
0.43333333 0.43333333 0
0.46666667 0.43333333 0
0.5 0.43333333 0
0.53333333 0.43333333 0
0.56666667 0.43333333 0
0.6 0.43333333 0
0.63333333 0.43333333 0
0.66666667 0.43333333 0
0.7 0.43333333 0
0.73333333 0.43333333 0
0.76666667 0.43333333 0
0.8 0.43333333 0
0.83333333 0.43333333 0
0.86666667 0.43333333 0
0.9 0.43333333 0
0.93333333 0.43333333 0
0.96666667 0.43333333 0
1 0.43333333 0
0 0.46666667 0
0.033333333 0.46666667 0
0.066666667 0.46666667 0
0.1 0.46666667 0
0.13333333 0.46666667 0
0.16666667 0.46666667 0
0.2 0.46666667 0
0.23333333 0.46666667 0
0.26666667 0.46666667 0
0.3 0.46666667 0
0.33333333 0.46666667 0
0.36666667 0.46666667 0
0.4 0.46666667 0
0.43333333 0.46666667 0
0.46666667 0.46666667 0
0.5 0.46666667 0
0.53333333 0.46666667 0
0.56666667 0.46666667 0
0.6 0.46666667 0
0.63333333 0.46666667 0
0.66666667 0.46666667 0
0.7 0.46666667 0
0.73333333 0.46666667 0
0.76666667 0.46666667 0
0.8 0.46666667 0
0.83333333 0.46666667 0
0.86666667 0.46666667 0
0.9 0.46666667 0
0.93333333 0.46666667 0
0.96666667 0.46666667 0
1 0.46666667 0
0 0.5 0
0.033333333 0.5 0
0.066666667 0.5 0
0.1 0.5 0
0.13333333 0.5 0
0.16666667 0.5 0
0.2 0.5 0
0.23333333 0.5 0
0.26666667 0.5 0
0.3 0.5 0
0.33333333 0.5 0
0.36666667 0.5 0
0.4 0.5 0
0.43333333 0.5 0
0.46666667 0.5 0
0.5 0.5 0
0.53333333 0.5 0
0.56666667 0.5 0
0.6 0.5 0
0.63333333 0.5 0
0.66666667 0.5 0
0.7 0.5 0
0.73333333 0.5 0
0.76666667 0.5 0
0.8 0.5 0
0.83333333 0.5 0
0.86666667 0.5 0
0.9 0.5 0
0.93333333 0.5 0
0.96666667 0.5 0
1 0.5 0
0 0.53333333 0
0.033333333 0.53333333 0
0.066666667 0.53333333 0
0.1 0.53333333 0
0.13333333 0.53333333 0
0.16666667 0.53333333 0
0.2 0.53333333 0
0.23333333 0.53333333 0
0.26666667 0.53333333 0
0.3 0.53333333 0
0.33333333 0.53333333 0
0.36666667 0.53333333 0
0.4 0.53333333 0
0.43333333 0.53333333 0
0.46666667 0.53333333 0
0.5 0.53333333 0
0.53333333 0.53333333 0
0.56666667 0.53333333 0
0.6 0.53333333 0
0.63333333 0.53333333 0
0.66666667 0.53333333 0
0.7 0.53333333 0
0.73333333 0.53333333 0
0.76666667 0.53333333 0
[...]
CELL_DATA 1920
Scalars  Label int 1
LOOKUP_TABLE FreeFempp_table
0
0
0
0
0
0
0
0
0
0
0
0
0
0
0
0
0
0
0
0
0
0
0
0
0
0
0
0
0
0
0
0
0
0
0
0
0
0
0
0
0
0
0
0
0
0
0
0
0
0
0
0
0
0
0
0
0
0
0
0
0
0
0
0
0
0
0
0
0
0
0
0
0
0
0
0
0
0
0
0
0
0
0
0
0
0
0
0
0
0
0
0
0
0
0
0
0
0
0
0
0
0
0
0
0
0
0
0
0
0
0
0
0
0
0
0
0
0
0
0
0
0
0
0
0
0
0
0
0
0
0
0
0
0
0
0
0
0
0
0
0
0
0
0
0
0
0
0
0
0
0
0
0
0
0
0
0
0
0
0
0
0
0
0
0
0
0
0
0
0
0
0
0
0
0
0
0
0
0
0
0
0
0
0
0
0
0
0
0
0
0
0
0
0
0
0
0
0
0
0
0
0
0
0
0
0
0
0
0
0
0
0
0
0
0
0
0
0
0
0
0
0
0
0
0
0
0
0
0
0
0
0
0
0
0
0
0
0
0
0
0
0
0
0
0
0
0
0
0
0
0
0
0
0
0
0
0
0
0
0
0
0
0
0
0
0
0
0
0
0
0
0
0
0
0
0
0
0
0
0
0
0
0
0
0
0
0
0
0
0
0
0
0
0
0
0
0
0
0
0
0
0
0
0
0
0
0
0
0
0
0
0
0
0
0
0
0
0
0
0
0
0
0
0
0
0
0
0
0
0
0
0
0
0
0
0
0
0
0
0
0
0
0
0
0
0
0
0
0
0
0
0
0
0
0
0
0
0
0
0
0
0
0
0
0
0
0
0
0
0
0
0
0
0
0
0
0
0
0
0
0
0
0
0
0
0
0
0
0
0
0
0
0
0
0
0
0
0
0
0
0
0
0
0
0
0
0
0
0
0
0
0
0
0
0
0
0
0
0
0
0
0
0
0
0
0
0
0
0
0
0
0
0
0
0
0
0
0
0
0
0
0
0
0
0
0
0
0
0
0
0
0
0
0
0
0
0
0
0
0
0
0
0
0
0
0
0
0
0
0
0
0
0
0
0
0
0
0
0
0
0
0
0
0
0
0
0
0
0
0
0
0
0
0
0
0
0
0
0
0
0
0
0
0
0
0
0
0
0
0
0
0
0
0
0
0
0
0
0
0
0
0
0
0
0
0
0
0
0
0
0
0
0
0
0
0
0
0
0
0
0
0
0
0
0
0
0
0
0
0
0
0
0
0
0
0
0
0
0
0
0
0
0
0
0
0
0
0
0
0
0
0
0
0
0
0
0
0
0
0
0
0
0
0
0
0
0
0
0
0
0
0
0
0
0
0
0
0
0
0
0
0
0
0
0
0
0
0
0
0
0
0
0
0
0
0
0
0
0
0
0
0
0
0
0
0
0
0
0
0
0
0
0
0
0
0
0
0
0
0
0
0
0
0
0
0
0
0
0
0
0
0
0
0
0
0
0
0
0
0
0
0
0
0
0
0
0
0
0
0
0
0
0
0
0
0
0
0
0
0
0
0
0
0
0
0
0
0
0
0
0
0
0
0
0
0
0
0
0
0
0
0
0
0
0
0
0
0
0
0
0
0
0
0
0
0
0
0
0
0
0
0
0
0
0
0
0
0
0
0
0
0
0
0
0
0
0
0
0
0
0
0
0
0
0
0
0
0
0
0
0
0
0
0
0
0
0
0
0
0
0
0
0
0
0
0
0
0
0
0
0
0
0
0
0
0
0
0
0
0
0
0
0
0
0
0
0
0
0
0
0
0
0
0
0
0
0
0
0
0
0
0
0
0
0
0
0
0
0
0
0
0
0
0
0
0
0
0
0
0
0
0
0
0
0
0
0
0
0
0
0
0
0
0
0
0
0
0
0
0
0
0
0
0
0
0
0
0
0
0
0
0
0
0
0
0
0
0
0
0
0
0
0
0
0
0
0
0
0
0
0
0
0
0
0
0
0
0
0
0
0
0
0
0
0
0
0
0
0
0
0
0
0
0
0
0
0
0
0
0
0
0
0
0
0
0
0
0
0
0
0
0
0
0
0
0
0
0
0
0
0
0
0
0
0
0
0
0
0
0
0
0
0
0
0
0
0
0
0
0
0
0
0
0
0
0
0
0
0
0
0
0
0
0
0
0
0
0
0
0
0
0
0
0
0
0
0
0
0
0
0
0
0
0
0
0
0
0
0
0
0
0
0
0
0
0
0
0
0
0
0
0
0
0
0
0
0
0
0
0
0
0
0
0
0
0
0
0
0
0
0
0
0
0
0
0
0
0
0
0
0
0
0
0
0
0
0
0
0
0
0
0
0
0
0
0
0
0
0
0
0
0
0
0
0
0
0
0
0
0
0
0
0
0
0
0
0
0
0
0
0
0
0
0
0
0
0
0
0
0
0
0
0
0
0
0
0
0
0
0
0
0
0
0
0
0
0
0
0
0
0
0
0
0
0
0
0
0
0
0
0
0
0
0
0
0
0
0
0
0
0
0
0
0
0
0
0
0
0
0
0
0
0
0
0
0
0
0
0
0
0
0
0
0
0
0
0
0
0
0
0
0
0
0
0
0
0
0
0
0
0
0
0
0
0
0
0
0
0
0
0
0
0
0
0
0
0
0
0
0
0
0
0
0
0
0
0
0
0
0
0
0
0
0
0
0
0
0
0
0
0
0
0
0
0
0
0
0
0
0
0
0
0
0
0
0
0
0
0
0
0
0
0
0
0
0
0
0
0
0
0
0
0
0
0
0
0
0
0
0
0
0
0
0
0
0
0
0
0
0
0
0
0
0
0
0
0
0
0
0
0
0
0
0
0
0
0
0
0
0
0
0
0
0
0
0
0
0
0
0
0
0
0
0
0
0
0
0
0
0
0
0
0
0
0
0
0
0
0
0
0
0
0
0
0
0
0
0
0
0
0
0
0
0
0
0
0
0
0
0
0
0
0
0
0
0
0
0
0
0
0
0
0
0
0
0
0
0
0
0
0
0
0
0
0
0
0
0
0
0
0
0
0
0
0
0
0
0
0
0
0
0
0
0
0
0
0
0
0
0
0
0
0
0
0
0
0
0
0
0
0
0
0
0
0
0
0
0
0
0
0
0
0
0
0
0
0
0
0
0
0
0
0
0
0
0
0
0
0
0
0
0
0
0
0
0
0
0
0
0
0
0
0
0
0
0
0
0
0
0
0
0
0
0
0
0
0
0
0
0
0
0
0
0
0
0
0
0
0
0
0
0
0
0
0
0
0
0
0
0
0
0
0
0
0
0
0
0
0
0
0
0
0
0
0
0
0
0
0
0
0
0
0
0
0
0
0
0
0
0
0
0
0
0
0
0
0
0
0
0
0
0
0
0
0
0
0
0
0
0
0
0
0
0
0
0
0
0
0
0
0
0
0
0
0
0
0
0
0
0
0
0
0
0
0
0
0
0
0
0
0
0
0
0
0
0
0
0
0
0
0
0
0
0
0
0
0
0
0
0
0
0
0
0
0
0
0
0
0
0
0
0
0
0
0
0
0
0
0
0
0
0
0
0
0
0
0
0
0
0
0
0
0
0
0
0
0
0
0
0
0
0
0
0
0
0
0
0
0
0
0
0
0
0
0
0
0
0
0
0
0
0
0
0
0
0
0
0
0
0
0
0
0
0
0
0
0
0
0
0
0
0
0
0
0
0
0
0
0
0
0
0
0
0
0
0
0
0
0
0
0
0
0
0
0
0
0
0
0
0
0
0
0
0
0
0
0
0
0
0
0
0
0
0
0
0
0
0
0
0
0
0
0
0
0
0
0
0
0
0
0
0
0
0
0
0
0
0
0
0
0
0
0
0
0
0
0
0
0
0
0
0
0
0
0
0
0
0
0
0
0
0
0
0
0
0
0
0
0
0
0
0
0
0
0
0
0
0
0
0
0
0
0
0
0
0
0
0
0
0
0
0
0
0
0
0
0
0
0
0
0
0
0
0
0
0
0
0
0
0
0
0
0
0
0
0
0
0
0
0
0
0
0
0
0
0
0
0
0
0
0
0
0
0
0
0
0
0
0
0
1
1
1
1
1
1
1
1
1
1
1
1
1
1
1
1
1
1
1
1
1
1
1
1
1
1
1
1
1
1
2
2
2
2
2
2
2
2
2
2
2
2
2
2
2
2
2
2
2
2
2
2
2
2
2
2
2
2
2
2
3
3
3
3
3
3
3
3
3
3
3
3
3
3
3
3
3
3
3
3
3
3
3
3
3
3
3
3
3
3
4
4
4
4
4
4
4
4
4
4
4
4
4
4
4
4
4
4
4
4
4
4
4
4
4
4
4
4
4
4

LOOKUP_TABLE FreeFempp_table 5
1.00000000 0.00000000 0.00000000 1.00000000
1.00000000 1.00000000 0.00000000 1.00000000
1.00000000 0.00000000 1.00000000 1.00000000
0.00000000 1.00000000 0.00000000 1.00000000
0.00000000 1.00000000 1.00000000 1.00000000

POINT_DATA 961
FIELD FieldData 1
Density 1 961 float
8.12670290e-02 7.63494968e-02 7.67293498e-02 7.68551379e-02 7.69161060e-02 7.69384950e-02 7.69265890e-02 7.68741146e-02 7.67510310e-02 7.64613301e-02 7.57221058e-02 7.36686289e-02 6.89575002e-02 7.79294521e-02 9.13597643e-01 9.10911739e-01 9.18129683e-01 9.11713779e-01 9.02544737e-01 8.94499898e-01 8.87026489e-01 8.76697302e-01 8.33162665e-01 6.28538847e-01 4.19544280e-01 2.90127099e-01 2.30433434e-01 2.07065031e-01 1.98327735e-01 2.38694936e-01 1.02520704e-01 7.43157938e-02 6.02185391e-02 6.08912222e-02 6.11571223e-02 6.12569824e-02 6.12627566e-02 6.11846857e-02 6.10113032e-02 6.07070252e-02 6.01953194e-02 5.93547225e-02 5.80953360e-02 5.67399822e-02 5.89213818e-02 9.33404788e-02 9.22960639e-01 9.61072966e-02 9.76362899e-02 9.09518003e-01 9.08608675e-01 9.08780217e-01 9.08982575e-01 9.09433007e-01 9.10272062e-01 8.97514403e-01 8.72697771e-01 8.45599890e-01 8.27401757e-01 8.16469967e-01 8.37875724e-01 2.61283100e-01 7.34879747e-02 5.83968088e-02 5.86432107e-02 5.86249940e-02 5.86391389e-02 5.85547537e-02 5.83297387e-02 5.79379834e-02 5.73440120e-02 5.64733446e-02 5.51670119e-02 5.30663133e-02 4.93460670e-02 4.49049324e-02 6.00448176e-02 9.22365665e-01 9.07060683e-01 7.74451792e-02 6.66786283e-02 5.98718561e-02 4.83238958e-02 4.65971529e-02 5.42928055e-02 7.30783790e-02 2.80608147e-01 3.07842076e-01 4.28560466e-01 5.17621934e-01 5.67626417e-01 5.47709644e-01 1.86151624e-01 7.29894936e-02 5.78189604e-02 5.81859425e-02 5.81482202e-02 5.80882467e-02 5.78686781e-02 5.73954172e-02 5.66178299e-02 5.54989278e-02 5.39678484e-02 5.18582948e-02 4.88033295e-02 4.40268368e-02 3.73223051e-02 3.54958698e-02 5.79796061e-02 9.11103964e-01 9.04656053e-01 7.34326914e-02 5.35842180e-02 3.35264094e-02 2.25988813e-02 1.72272846e-02 1.66904889e-02 1.88606177e-02 3.00312042e-02 4.49902676e-02 5.68165518e-02 6.35983124e-02 6.66627809e-02 8.39898586e-02 7.24898204e-02 5.72169796e-02 5.77374734e-02 5.78186065e-02 5.78185432e-02 5.75173460e-02 5.67698106e-02 5.55223860e-02 5.37787341e-02 5.15334159e-02 4.86966968e-02 4.50299233e-02 4.00808081e-02 3.34396400e-02 2.77145654e-02 2.93437988e-02 4.87532020e-02 9.10081327e-01 9.24760401e-01 9.94541794e-02 6.97418377e-02 4.64117415e-02 2.48854030e-02 1.77893601e-02 1.11854579e-02 9.70420334e-03 1.37723507e-02 2.82917190e-02 4.24593501e-02 4.86541428e-02 6.56476989e-02 7.20781088e-02 5.66377528e-02 5.72534390e-02 5.75742573e-02 5.78117408e-02 5.75565957e-02 5.65756448e-02 5.48291020e-02 5.24187498e-02 4.94900495e-02 4.61103953e-02 4.21809778e-02 3.74213606e-02 3.14388946e-02 2.44795978e-02 1.94776077e-02 1.91467032e-02 3.23234536e-02 7.12109581e-02 9.30259824e-01 9.28281188e-01 9.14197147e-01 9.12797987e-01 7.50173554e-02 4.06862423e-02 1.66335404e-02 9.87638719e-03 1.06000174e-02 2.48579234e-02 4.20475677e-02 6.23569228e-02 7.30104595e-02 5.74172251e-02 5.78039400e-02 5.82381189e-02 5.87574802e-02 5.87143786e-02 5.77531941e-02 5.58072403e-02 5.30229323e-02 4.96551171e-02 4.59244773e-02 4.19010185e-02 3.74348611e-02 3.22112776e-02 2.59242672e-02 1.90329272e-02 1.37303481e-02 1.36966081e-02 2.36375257e-02 4.50622514e-02 9.09062505e-01 9.10468042e-01 9.14215803e-01 9.33753848e-01 9.31235433e-01 9.14618254e-01 4.01008464e-02 1.22185703e-02 1.01909935e-02 2.87775937e-02 5.81242256e-02 8.11630413e-02 6.73124269e-02 6.68377578e-02 6.56829402e-02 6.48008659e-02 6.41313642e-02 6.35112524e-02 6.26294985e-02 6.10486753e-02 5.83799556e-02 5.45063913e-02 4.96692844e-02 4.43048440e-02 3.86963189e-02 3.25522795e-02 2.58100294e-02 1.89680532e-02 1.40852416e-02 1.38331270e-02 1.33188302e-02 1.85640641e-02 3.79732586e-02 6.11476637e-02 8.81752893e-02 1.19166903e-01 9.35681701e-01 9.24826860e-01 4.25649732e-02 9.68289003e-03 1.28224706e-02 4.92081866e-02 1.14101090e-01 1.13882691e-01 1.17568947e-01 1.09989718e-01 1.00782797e-01 9.37741101e-02 9.10486728e-02 9.26469788e-02 9.63091105e-02 9.88656133e-02 9.76783708e-02 9.21588913e-02 8.37221742e-02 7.32784569e-02 6.13790564e-02 4.86068912e-02 3.82453017e-02 3.02652698e-02 2.35705767e-02 1.61051452e-02 1.34322690e-02 1.88441798e-02 3.23381387e-02 6.73250630e-02 1.03810906e-01 1.19275145e-01 1.17752694e-01 9.28424478e-01 1.60820391e-02 9.62809473e-03 3.13744918e-02 7.04904556e-01 8.95867884e-01 8.98421645e-01 9.05226529e-01 9.09156799e-01 9.10444140e-01 9.10427988e-01 9.09450412e-01 9.06957150e-01 9.02519524e-01 8.96440983e-01 8.88864398e-01 8.77193689e-01 8.49933922e-01 7.76034057e-01 6.04173541e-01 3.32941324e-01 1.29968688e-01 8.35107788e-02 5.63729592e-02 3.32562476e-02 3.26178670e-02 4.78378311e-02 7.99618065e-02 1.07559249e-01 1.21334322e-01 9.89854857e-02 9.33252275e-01 5.85275926e-02 9.56448913e-03 1.53568983e-02 8.99248302e-01 9.08391058e-01 9.08159733e-01 9.08085525e-01 9.08023596e-01 9.07955348e-01 9.07871723e-01 9.07775342e-01 9.07678127e-01 9.07583416e-01 9.07491148e-01 9.07403827e-01 9.07327712e-01 9.09147143e-01 9.11433399e-01 9.09094155e-01 8.95958781e-01 8.65960479e-01 7.75484324e-01 5.85137010e-01 3.07117015e-01 1.29419520e-01 8.91882181e-02 1.00533850e-01 1.23716794e-01 1.26892775e-01 1.07175089e-01 9.19976056e-01 9.29339230e-01 9.64011159e-03 9.68100037e-03 9.10105884e-01 9.09830034e-01 9.09476042e-01 9.09361899e-01 9.09344137e-01 9.09365118e-01 9.09344912e-01 9.09250379e-01 9.09125209e-01 9.09021497e-01 9.08943892e-01 9.08886731e-01 9.08843338e-01 9.08815205e-01 9.08798873e-01 9.08807218e-01 9.08860803e-01 9.08944249e-01 9.09045935e-01 9.09170687e-01 9.09194231e-01 9.09974873e-01 9.08510268e-01 9.73219424e-02 1.21752098e-01 1.74351230e-01 1.55798748e-01 9.35320973e-01 9.39026117e-01 9.76368692e-03 9.69338417e-03 4.52016473e-01 9.10007894e-01 9.11212564e-01 9.09347236e-01 9.09502983e-01 9.09707010e-01 9.09921288e-01 9.11179483e-01 9.13533151e-01 9.11225617e-01 9.09615993e-01 9.10291076e-01 9.12464857e-01 9.13713634e-01 9.10275221e-01 9.10313904e-01 9.10397112e-01 9.10564363e-01 9.10756707e-01 9.10895765e-01 9.11023557e-01 9.11193848e-01 9.11410034e-01 9.12280142e-01 9.14892614e-01 1.15397573e-01 1.89499468e-01 1.78124875e-01 9.63193655e-01 9.85425524e-03 9.78295319e-03 9.19912830e-02 9.13347378e-02 9.11257192e-02 9.11511034e-02 9.13491026e-02 9.19464678e-02 1.05310701e-01 1.81766406e-01 3.14631134e-01 4.36079949e-01 5.15088975e-01 5.67221344e-01 6.07574284e-01 6.48786604e-01 6.94583356e-01 7.41425991e-01 7.81431139e-01 8.08339238e-01 8.26280475e-01 8.52501094e-01 8.86345029e-01 9.13218856e-01 9.09063101e-01 9.08240736e-01 9.11137640e-01 9.15564299e-01 9.18762565e-01 9.35911536e-01 9.54525411e-01 1.04318634e-02 9.85240936e-03 9.08422843e-02 8.79250988e-02 8.77179503e-02 8.75638723e-02 8.76092389e-02 8.79372209e-02 8.82437974e-02 8.87670740e-02 8.96522552e-02 9.03352425e-02 9.07266214e-02 9.09082294e-02 9.09150988e-02 8.71384367e-02 9.27081257e-02 1.00411497e-01 1.06685445e-01 1.07432380e-01 9.88436788e-02 8.55630785e-02 8.77568275e-02 8.25373977e-02 8.05121213e-02 8.44295025e-02 5.96071780e-01 9.02996838e-01 9.09709275e-01 9.13907826e-01 9.27584589e-01 1.17157651e-02 1.05828848e-02 9.07038301e-02 8.77757221e-02 8.75633135e-02 8.73226598e-02 8.72079208e-02 8.72512311e-02 8.69700313e-02 8.62949342e-02 8.62294436e-02 8.67541730e-02 8.73287544e-02 8.76398012e-02 8.76446366e-02 8.74432623e-02 8.70361775e-02 8.64017829e-02 8.56266767e-02 8.48009810e-02 8.41861740e-02 8.39045197e-02 8.18931460e-02 8.07019249e-02 7.87898824e-02 8.32578093e-02 8.13423321e-02 1.08867995e-01 9.07548666e-01 9.12548244e-01 9.16508079e-01 1.25709912e-02 1.15692830e-02 9.04188603e-02 8.73802602e-02 8.71621817e-02 8.68719667e-02 8.66414383e-02 8.65462571e-02 8.64252523e-02 8.63266289e-02 8.66250619e-02 8.71664360e-02 8.76308009e-02 8.78637657e-02 8.78399760e-02 8.76155496e-02 8.71350989e-02 8.62658992e-02 8.49894881e-02 8.36586654e-02 8.31075162e-02 8.33031237e-02 8.47399980e-02 8.62886906e-02 9.05475840e-02 7.54951298e-01 9.01489079e-01 9.01547015e-01 9.08195078e-01 9.11566913e-01 9.09234583e-01 1.44938016e-02 1.25949131e-02 8.98553804e-02 8.65024030e-02 8.62580165e-02 8.59216750e-02 8.56162533e-02 8.54982957e-02 8.56309682e-02 8.60845521e-02 8.68419260e-02 8.76101181e-02 8.80994052e-02 8.82776603e-02 8.82015228e-02 8.78980756e-02 8.73175561e-02 8.63785297e-02 8.53524804e-02 8.34397897e-02 8.35242942e-02 8.65398198e-02 8.84489566e-02 9.22661573e-02 8.82588863e-01 9.05342758e-01 9.06176984e-01 9.08151329e-01 9.09580112e-01 9.08682466e-01 8.03274438e-02 1.85804665e-02 1.49632981e-02 8.88341814e-02 8.48251656e-02 8.44930783e-02 8.40727761e-02 8.37086439e-02 8.36956128e-02 8.43059942e-02 8.55195075e-02 8.68679062e-02 8.79904330e-02 8.85855705e-02 8.87413248e-02 8.86293501e-02 8.82901922e-02 8.76559019e-02 8.66730586e-02 8.52573067e-02 8.57668743e-02 8.72490332e-02 9.01842192e-02 1.50194943e-01 9.07123268e-01 9.06529248e-01 9.07139242e-01 9.08293188e-01 9.09024239e-01 8.81432950e-01 9.01428163e-02 6.70777187e-02 3.47184502e-02 2.42627673e-02 8.71364176e-02 8.20016116e-02 8.15159753e-02 8.05497542e-02 7.99256861e-02 8.03322420e-02 8.20160732e-02 8.46026167e-02 8.67681727e-02 8.83588567e-02 8.90917704e-02 8.92219022e-02 8.90913978e-02 8.87788311e-02 8.81590247e-02 8.72074887e-02 8.74676332e-02 8.89526531e-02 9.21407342e-02 4.54824239e-01 9.11101162e-01 9.07426596e-01 9.07334566e-01 9.07802284e-01 9.10685897e-01 5.45112669e-01 9.22205076e-02 8.41292962e-02 7.04715252e-02 5.62781990e-02 6.12321235e-02 8.45329091e-02 7.76998550e-02 7.73576275e-02 7.62376487e-02 7.18381479e-02 7.37823620e-02 7.82459229e-02 8.33630189e-02 8.66482258e-02 8.87578279e-02 8.96184891e-02 8.96945670e-02 8.95327106e-02 8.93635601e-02 8.89012814e-02 8.90842453e-02 9.04159844e-02 1.28346696e-01 7.33807147e-01 9.10341799e-01 9.07815516e-01 9.06985700e-01 9.06360626e-01 9.05949950e-01 2.11205840e-01 9.13915634e-02 8.74843076e-02 8.18461031e-02 7.61246383e-02 7.48634934e-02 7.95527399e-02 8.11556131e-02 7.18339980e-02 7.14390874e-02 6.97104409e-02 7.16516152e-02 7.31269568e-02 7.98367709e-02 8.21174532e-02 8.67624879e-02 8.92169103e-02 9.01025981e-02 9.01561230e-02 8.98885727e-02 8.98691863e-02 9.05449465e-02 9.16911066e-02 1.34037852e-01 7.10810959e-01 9.08951044e-01 9.07924354e-01 9.06443834e-01 9.04842377e-01 8.90115499e-01 1.19849563e-01 9.07354206e-02 8.83397684e-02 8.38642716e-02 8.11434016e-02 8.04233253e-02 7.93046877e-02 8.51950049e-02 7.88668990e-02 6.66297227e-02 6.52001873e-02 5.99295422e-02 7.20966011e-02 8.45393538e-02 1.11704305e-01 8.68724361e-02 8.75287801e-02 8.98013338e-02 9.04904082e-02 9.03275535e-02 9.07476395e-02 9.14301127e-02 9.27022696e-02 1.22153834e-01 4.97235447e-01 8.80561411e-01 9.07713294e-01 9.10432875e-01 9.01845098e-01 8.33245575e-01 1.17482498e-01 9.08482820e-02 8.88905525e-02 8.59291181e-02 8.36609155e-02 8.19915608e-02 8.08906630e-02 8.04726407e-02 8.65197256e-02 8.11844990e-02 6.72497898e-02 6.44524768e-02 5.79828285e-02 6.98433593e-02 9.58504677e-02 9.00967598e-01 9.12633836e-02 8.98670778e-02 9.04802531e-02 9.12256688e-02 9.15867239e-02 9.21552256e-02 1.12518698e-01 2.01571673e-01 4.19545323e-01 7.61068404e-01 8.47343683e-01 8.54435682e-01 8.49425554e-01 7.42304325e-01 1.78336442e-01 9.10505056e-02 8.94750655e-02 8.78278166e-02 8.62477347e-02 8.39949697e-02 8.18436295e-02 8.05197582e-02 8.03605095e-02 8.69765878e-02 8.68812576e-02 7.39637241e-02 7.12836906e-02 6.94826171e-02 7.70062283e-02 8.90518725e-01 9.05852258e-01 9.04697850e-02 9.11257938e-02 9.16688591e-02 9.22688320e-02 1.08230069e-01 2.02628136e-01 5.53202152e-01 7.17309535e-01 7.06264853e-01 7.27744937e-01 6.87671661e-01 6.60859525e-01 6.25422597e-01 3.79331350e-01 8.95206779e-02 8.94584730e-02 8.87873918e-02 8.78927708e-02 8.67536590e-02 8.47360939e-02 8.14734846e-02 7.92792886e-02 7.97535554e-02 8.74936581e-02 9.02456045e-02 6.14938177e-02 5.96136786e-02 7.81479925e-02 8.44725966e-02 9.06588674e-01 8.92902315e-01 9.56118703e-02 8.69802907e-02 9.23685953e-02 1.07778259e-01 3.29952687e-01 5.41371524e-01 8.28003228e-01 8.66828084e-01 7.90051758e-01 6.89570725e-01 5.72829962e-01 5.10731816e-01 4.72811580e-01 3.07120770e-01 9.61368978e-02 8.84856358e-02 8.84504020e-02 8.83291364e-02 8.70886073e-02 8.69850218e-02 8.67643133e-02 8.58376622e-02 8.55936483e-02 8.87816474e-02 2.30942711e-01 5.74478135e-02 3.59390229e-02 5.68988174e-02 9.12177265e-02 9.00823712e-01 8.51373747e-02 8.25878903e-02 1.15364194e-01 5.58766484e-01 8.25549781e-01 8.13951969e-01 7.35483050e-01 8.45790625e-01 8.85187924e-01 8.30923498e-01 7.15310574e-01 6.00335062e-01 5.03807068e-01 4.77950305e-01 4.34948593e-01 2.33013719e-01 9.03182998e-02 9.14944410e-02 9.19072926e-02 9.15971547e-02 9.11026448e-02 8.85561481e-02 1.85719311e-01 4.07826722e-01 1.09195426e-01 1.25813574e-01 1.13730200e-01 8.44887719e-02 7.51285180e-02 8.50552201e-01 8.85832191e-01 9.04669240e-02 8.91543627e-02 8.93449128e-01 9.01370406e-01 9.05000865e-01 9.10003245e-01 8.78396094e-01 8.90608907e-01 9.02119219e-01 8.86022627e-01 8.05879295e-01 7.04919279e-01 5.87599218e-01 5.75939476e-01 6.59163117e-01 7.38841593e-01 7.13374078e-01 4.57712859e-01 2.10670874e-01 1.53915331e-01 3.42218071e-01 8.54107201e-01 8.15633535e-01 8.27393651e-01 1.96324140e-01 9.68542248e-02 2.75147080e-01 1.87026873e-01 1.00973338e-01 8.86022806e-01 9.30538028e-02 9.72204879e-02 8.75558630e-02 8.98045897e-01 9.06457722e-01 9.06732857e-01 9.11511242e-01 8.23944688e-01 8.82163405e-01 9.07432795e-01 9.10992026e-01 8.91039491e-01 8.50252330e-01 7.81375825e-01 7.82560349e-01 8.30158293e-01 8.73960733e-01 8.93087804e-01 9.02436018e-01 9.09184575e-01 9.16441917e-01 9.06237364e-01 8.81066740e-01 8.24787915e-01 7.99942791e-01 2.13166565e-01 1.41773984e-01 3.41574907e-01 3.00625175e-01 7.95719698e-02 8.80543172e-01 8.84550810e-02 9.85944271e-02 1.02772377e-01 1.01345606e-01 9.06673133e-01 9.06985283e-01 9.07903910e-01 8.93090785e-01 8.86969745e-01 9.09000814e-01 9.08976316e-01 9.08930302e-01 9.08947468e-01 9.11872625e-01 9.06006992e-01 8.97634625e-01 8.75463605e-01 7.67805517e-01 4.69295114e-01 2.27731988e-01 1.55788079e-01 1.66010752e-01 2.19793037e-01 3.60497564e-01 4.41243619e-01 1.57799557e-01 1.04934506e-01 1.87945202e-01 2.60471404e-01 2.74797708e-01 1.34691566e-01 8.97932276e-02 9.25659984e-02 1.10832371e-01 1.10144861e-01 9.06896293e-01 9.06426609e-01 8.99833858e-01 3.56255054e-01 2.98881710e-01 9.09786344e-01 9.07997429e-01 9.08033013e-01 9.10719633e-01 8.54634643e-01 7.48317063e-01 5.95105171e-01 2.98440635e-01 1.15566716e-01 9.43023711e-02 9.44189057e-02 9.37038437e-02 9.33623835e-02 9.28520039e-02 8.97268504e-02 8.96882266e-02 9.02407095e-02 
