# vtk DataFile Version 2.0
results_case1_non_linear/iter6.vtk, Created by Freefem++ 
ASCII
DATASET UNSTRUCTURED_GRID
POINTS 961 float
0 0 0
0.033333333 0 0
0.066666667 0 0
0.1 0 0
0.13333333 0 0
0.16666667 0 0
0.2 0 0
0.23333333 0 0
0.26666667 0 0
0.3 0 0
0.33333333 0 0
0.36666667 0 0
0.4 0 0
0.43333333 0 0
0.46666667 0 0
0.5 0 0
0.53333333 0 0
0.56666667 0 0
0.6 0 0
0.63333333 0 0
0.66666667 0 0
0.7 0 0
0.73333333 0 0
0.76666667 0 0
0.8 0 0
0.83333333 0 0
0.86666667 0 0
0.9 0 0
0.93333333 0 0
0.96666667 0 0
1 0 0
0 0.033333333 0
0.033333333 0.033333333 0
0.066666667 0.033333333 0
0.1 0.033333333 0
0.13333333 0.033333333 0
0.16666667 0.033333333 0
0.2 0.033333333 0
0.23333333 0.033333333 0
0.26666667 0.033333333 0
0.3 0.033333333 0
0.33333333 0.033333333 0
0.36666667 0.033333333 0
0.4 0.033333333 0
0.43333333 0.033333333 0
0.46666667 0.033333333 0
0.5 0.033333333 0
0.53333333 0.033333333 0
0.56666667 0.033333333 0
0.6 0.033333333 0
0.63333333 0.033333333 0
0.66666667 0.033333333 0
0.7 0.033333333 0
0.73333333 0.033333333 0
0.76666667 0.033333333 0
0.8 0.033333333 0
0.83333333 0.033333333 0
0.86666667 0.033333333 0
0.9 0.033333333 0
0.93333333 0.033333333 0
0.96666667 0.033333333 0
1 0.033333333 0
0 0.066666667 0
0.033333333 0.066666667 0
0.066666667 0.066666667 0
0.1 0.066666667 0
0.13333333 0.066666667 0
0.16666667 0.066666667 0
0.2 0.066666667 0
0.23333333 0.066666667 0
0.26666667 0.066666667 0
0.3 0.066666667 0
0.33333333 0.066666667 0
0.36666667 0.066666667 0
0.4 0.066666667 0
0.43333333 0.066666667 0
0.46666667 0.066666667 0
0.5 0.066666667 0
0.53333333 0.066666667 0
0.56666667 0.066666667 0
0.6 0.066666667 0
0.63333333 0.066666667 0
0.66666667 0.066666667 0
0.7 0.066666667 0
0.73333333 0.066666667 0
0.76666667 0.066666667 0
0.8 0.066666667 0
0.83333333 0.066666667 0
0.86666667 0.066666667 0
0.9 0.066666667 0
0.93333333 0.066666667 0
0.96666667 0.066666667 0
1 0.066666667 0
0 0.1 0
0.033333333 0.1 0
0.066666667 0.1 0
0.1 0.1 0
0.13333333 0.1 0
0.16666667 0.1 0
0.2 0.1 0
0.23333333 0.1 0
0.26666667 0.1 0
0.3 0.1 0
0.33333333 0.1 0
0.36666667 0.1 0
0.4 0.1 0
0.43333333 0.1 0
0.46666667 0.1 0
0.5 0.1 0
0.53333333 0.1 0
0.56666667 0.1 0
0.6 0.1 0
0.63333333 0.1 0
0.66666667 0.1 0
0.7 0.1 0
0.73333333 0.1 0
0.76666667 0.1 0
0.8 0.1 0
0.83333333 0.1 0
0.86666667 0.1 0
0.9 0.1 0
0.93333333 0.1 0
0.96666667 0.1 0
1 0.1 0
0 0.13333333 0
0.033333333 0.13333333 0
0.066666667 0.13333333 0
0.1 0.13333333 0
0.13333333 0.13333333 0
0.16666667 0.13333333 0
0.2 0.13333333 0
0.23333333 0.13333333 0
0.26666667 0.13333333 0
0.3 0.13333333 0
0.33333333 0.13333333 0
0.36666667 0.13333333 0
0.4 0.13333333 0
0.43333333 0.13333333 0
0.46666667 0.13333333 0
0.5 0.13333333 0
0.53333333 0.13333333 0
0.56666667 0.13333333 0
0.6 0.13333333 0
0.63333333 0.13333333 0
0.66666667 0.13333333 0
0.7 0.13333333 0
0.73333333 0.13333333 0
0.76666667 0.13333333 0
0.8 0.13333333 0
0.83333333 0.13333333 0
0.86666667 0.13333333 0
0.9 0.13333333 0
0.93333333 0.13333333 0
0.96666667 0.13333333 0
1 0.13333333 0
0 0.16666667 0
0.033333333 0.16666667 0
0.066666667 0.16666667 0
0.1 0.16666667 0
0.13333333 0.16666667 0
0.16666667 0.16666667 0
0.2 0.16666667 0
0.23333333 0.16666667 0
0.26666667 0.16666667 0
0.3 0.16666667 0
0.33333333 0.16666667 0
0.36666667 0.16666667 0
0.4 0.16666667 0
0.43333333 0.16666667 0
0.46666667 0.16666667 0
0.5 0.16666667 0
0.53333333 0.16666667 0
0.56666667 0.16666667 0
0.6 0.16666667 0
0.63333333 0.16666667 0
0.66666667 0.16666667 0
0.7 0.16666667 0
0.73333333 0.16666667 0
0.76666667 0.16666667 0
0.8 0.16666667 0
0.83333333 0.16666667 0
0.86666667 0.16666667 0
0.9 0.16666667 0
0.93333333 0.16666667 0
0.96666667 0.16666667 0
1 0.16666667 0
0 0.2 0
0.033333333 0.2 0
0.066666667 0.2 0
0.1 0.2 0
0.13333333 0.2 0
0.16666667 0.2 0
0.2 0.2 0
0.23333333 0.2 0
0.26666667 0.2 0
0.3 0.2 0
0.33333333 0.2 0
0.36666667 0.2 0
0.4 0.2 0
0.43333333 0.2 0
0.46666667 0.2 0
0.5 0.2 0
0.53333333 0.2 0
0.56666667 0.2 0
0.6 0.2 0
0.63333333 0.2 0
0.66666667 0.2 0
0.7 0.2 0
0.73333333 0.2 0
0.76666667 0.2 0
0.8 0.2 0
0.83333333 0.2 0
0.86666667 0.2 0
0.9 0.2 0
0.93333333 0.2 0
0.96666667 0.2 0
1 0.2 0
0 0.23333333 0
0.033333333 0.23333333 0
0.066666667 0.23333333 0
0.1 0.23333333 0
0.13333333 0.23333333 0
0.16666667 0.23333333 0
0.2 0.23333333 0
0.23333333 0.23333333 0
0.26666667 0.23333333 0
0.3 0.23333333 0
0.33333333 0.23333333 0
0.36666667 0.23333333 0
0.4 0.23333333 0
0.43333333 0.23333333 0
0.46666667 0.23333333 0
0.5 0.23333333 0
0.53333333 0.23333333 0
0.56666667 0.23333333 0
0.6 0.23333333 0
0.63333333 0.23333333 0
0.66666667 0.23333333 0
0.7 0.23333333 0
0.73333333 0.23333333 0
0.76666667 0.23333333 0
0.8 0.23333333 0
0.83333333 0.23333333 0
0.86666667 0.23333333 0
0.9 0.23333333 0
0.93333333 0.23333333 0
0.96666667 0.23333333 0
1 0.23333333 0
0 0.26666667 0
0.033333333 0.26666667 0
0.066666667 0.26666667 0
0.1 0.26666667 0
0.13333333 0.26666667 0
0.16666667 0.26666667 0
0.2 0.26666667 0
0.23333333 0.26666667 0
0.26666667 0.26666667 0
0.3 0.26666667 0
0.33333333 0.26666667 0
0.36666667 0.26666667 0
0.4 0.26666667 0
0.43333333 0.26666667 0
0.46666667 0.26666667 0
0.5 0.26666667 0
0.53333333 0.26666667 0
0.56666667 0.26666667 0
0.6 0.26666667 0
0.63333333 0.26666667 0
0.66666667 0.26666667 0
0.7 0.26666667 0
0.73333333 0.26666667 0
0.76666667 0.26666667 0
0.8 0.26666667 0
0.83333333 0.26666667 0
0.86666667 0.26666667 0
0.9 0.26666667 0
0.93333333 0.26666667 0
0.96666667 0.26666667 0
1 0.26666667 0
0 0.3 0
0.033333333 0.3 0
0.066666667 0.3 0
0.1 0.3 0
0.13333333 0.3 0
0.16666667 0.3 0
0.2 0.3 0
0.23333333 0.3 0
0.26666667 0.3 0
0.3 0.3 0
0.33333333 0.3 0
0.36666667 0.3 0
0.4 0.3 0
0.43333333 0.3 0
0.46666667 0.3 0
0.5 0.3 0
0.53333333 0.3 0
0.56666667 0.3 0
0.6 0.3 0
0.63333333 0.3 0
0.66666667 0.3 0
0.7 0.3 0
0.73333333 0.3 0
0.76666667 0.3 0
0.8 0.3 0
0.83333333 0.3 0
0.86666667 0.3 0
0.9 0.3 0
0.93333333 0.3 0
0.96666667 0.3 0
1 0.3 0
0 0.33333333 0
0.033333333 0.33333333 0
0.066666667 0.33333333 0
0.1 0.33333333 0
0.13333333 0.33333333 0
0.16666667 0.33333333 0
0.2 0.33333333 0
0.23333333 0.33333333 0
0.26666667 0.33333333 0
0.3 0.33333333 0
0.33333333 0.33333333 0
0.36666667 0.33333333 0
0.4 0.33333333 0
0.43333333 0.33333333 0
0.46666667 0.33333333 0
0.5 0.33333333 0
0.53333333 0.33333333 0
0.56666667 0.33333333 0
0.6 0.33333333 0
0.63333333 0.33333333 0
0.66666667 0.33333333 0
0.7 0.33333333 0
0.73333333 0.33333333 0
0.76666667 0.33333333 0
0.8 0.33333333 0
0.83333333 0.33333333 0
0.86666667 0.33333333 0
0.9 0.33333333 0
0.93333333 0.33333333 0
0.96666667 0.33333333 0
1 0.33333333 0
0 0.36666667 0
0.033333333 0.36666667 0
0.066666667 0.36666667 0
0.1 0.36666667 0
0.13333333 0.36666667 0
0.16666667 0.36666667 0
0.2 0.36666667 0
0.23333333 0.36666667 0
0.26666667 0.36666667 0
0.3 0.36666667 0
0.33333333 0.36666667 0
0.36666667 0.36666667 0
0.4 0.36666667 0
0.43333333 0.36666667 0
0.46666667 0.36666667 0
0.5 0.36666667 0
0.53333333 0.36666667 0
0.56666667 0.36666667 0
0.6 0.36666667 0
0.63333333 0.36666667 0
0.66666667 0.36666667 0
0.7 0.36666667 0
0.73333333 0.36666667 0
0.76666667 0.36666667 0
0.8 0.36666667 0
0.83333333 0.36666667 0
0.86666667 0.36666667 0
0.9 0.36666667 0
0.93333333 0.36666667 0
0.96666667 0.36666667 0
1 0.36666667 0
0 0.4 0
0.033333333 0.4 0
0.066666667 0.4 0
0.1 0.4 0
0.13333333 0.4 0
0.16666667 0.4 0
0.2 0.4 0
0.23333333 0.4 0
0.26666667 0.4 0
0.3 0.4 0
0.33333333 0.4 0
0.36666667 0.4 0
0.4 0.4 0
0.43333333 0.4 0
0.46666667 0.4 0
0.5 0.4 0
0.53333333 0.4 0
0.56666667 0.4 0
0.6 0.4 0
0.63333333 0.4 0
0.66666667 0.4 0
0.7 0.4 0
0.73333333 0.4 0
0.76666667 0.4 0
0.8 0.4 0
0.83333333 0.4 0
0.86666667 0.4 0
0.9 0.4 0
0.93333333 0.4 0
0.96666667 0.4 0
1 0.4 0
0 0.43333333 0
0.033333333 0.43333333 0
0.066666667 0.43333333 0
0.1 0.43333333 0
0.13333333 0.43333333 0
0.16666667 0.43333333 0
0.2 0.43333333 0
0.23333333 0.43333333 0
0.26666667 0.43333333 0
0.3 0.43333333 0
0.33333333 0.43333333 0
0.36666667 0.43333333 0
0.4 0.43333333 0
0.43333333 0.43333333 0
0.46666667 0.43333333 0
0.5 0.43333333 0
0.53333333 0.43333333 0
0.56666667 0.43333333 0
0.6 0.43333333 0
0.63333333 0.43333333 0
0.66666667 0.43333333 0
0.7 0.43333333 0
0.73333333 0.43333333 0
0.76666667 0.43333333 0
0.8 0.43333333 0
0.83333333 0.43333333 0
0.86666667 0.43333333 0
0.9 0.43333333 0
0.93333333 0.43333333 0
0.96666667 0.43333333 0
1 0.43333333 0
0 0.46666667 0
0.033333333 0.46666667 0
0.066666667 0.46666667 0
0.1 0.46666667 0
0.13333333 0.46666667 0
0.16666667 0.46666667 0
0.2 0.46666667 0
0.23333333 0.46666667 0
0.26666667 0.46666667 0
0.3 0.46666667 0
0.33333333 0.46666667 0
0.36666667 0.46666667 0
0.4 0.46666667 0
0.43333333 0.46666667 0
0.46666667 0.46666667 0
0.5 0.46666667 0
0.53333333 0.46666667 0
0.56666667 0.46666667 0
0.6 0.46666667 0
0.63333333 0.46666667 0
0.66666667 0.46666667 0
0.7 0.46666667 0
0.73333333 0.46666667 0
0.76666667 0.46666667 0
0.8 0.46666667 0
0.83333333 0.46666667 0
0.86666667 0.46666667 0
0.9 0.46666667 0
0.93333333 0.46666667 0
0.96666667 0.46666667 0
1 0.46666667 0
0 0.5 0
0.033333333 0.5 0
0.066666667 0.5 0
0.1 0.5 0
0.13333333 0.5 0
0.16666667 0.5 0
0.2 0.5 0
0.23333333 0.5 0
0.26666667 0.5 0
0.3 0.5 0
0.33333333 0.5 0
0.36666667 0.5 0
0.4 0.5 0
0.43333333 0.5 0
0.46666667 0.5 0
0.5 0.5 0
0.53333333 0.5 0
0.56666667 0.5 0
0.6 0.5 0
0.63333333 0.5 0
0.66666667 0.5 0
0.7 0.5 0
0.73333333 0.5 0
0.76666667 0.5 0
0.8 0.5 0
0.83333333 0.5 0
0.86666667 0.5 0
0.9 0.5 0
0.93333333 0.5 0
0.96666667 0.5 0
1 0.5 0
0 0.53333333 0
0.033333333 0.53333333 0
0.066666667 0.53333333 0
0.1 0.53333333 0
0.13333333 0.53333333 0
0.16666667 0.53333333 0
0.2 0.53333333 0
0.23333333 0.53333333 0
0.26666667 0.53333333 0
0.3 0.53333333 0
0.33333333 0.53333333 0
0.36666667 0.53333333 0
0.4 0.53333333 0
0.43333333 0.53333333 0
0.46666667 0.53333333 0
0.5 0.53333333 0
0.53333333 0.53333333 0
0.56666667 0.53333333 0
0.6 0.53333333 0
0.63333333 0.53333333 0
0.66666667 0.53333333 0
0.7 0.53333333 0
0.73333333 0.53333333 0
0.76666667 0.53333333 0
[...]
CELL_DATA 1920
Scalars  Label int 1
LOOKUP_TABLE FreeFempp_table
0
0
0
0
0
0
0
0
0
0
0
0
0
0
0
0
0
0
0
0
0
0
0
0
0
0
0
0
0
0
0
0
0
0
0
0
0
0
0
0
0
0
0
0
0
0
0
0
0
0
0
0
0
0
0
0
0
0
0
0
0
0
0
0
0
0
0
0
0
0
0
0
0
0
0
0
0
0
0
0
0
0
0
0
0
0
0
0
0
0
0
0
0
0
0
0
0
0
0
0
0
0
0
0
0
0
0
0
0
0
0
0
0
0
0
0
0
0
0
0
0
0
0
0
0
0
0
0
0
0
0
0
0
0
0
0
0
0
0
0
0
0
0
0
0
0
0
0
0
0
0
0
0
0
0
0
0
0
0
0
0
0
0
0
0
0
0
0
0
0
0
0
0
0
0
0
0
0
0
0
0
0
0
0
0
0
0
0
0
0
0
0
0
0
0
0
0
0
0
0
0
0
0
0
0
0
0
0
0
0
0
0
0
0
0
0
0
0
0
0
0
0
0
0
0
0
0
0
0
0
0
0
0
0
0
0
0
0
0
0
0
0
0
0
0
0
0
0
0
0
0
0
0
0
0
0
0
0
0
0
0
0
0
0
0
0
0
0
0
0
0
0
0
0
0
0
0
0
0
0
0
0
0
0
0
0
0
0
0
0
0
0
0
0
0
0
0
0
0
0
0
0
0
0
0
0
0
0
0
0
0
0
0
0
0
0
0
0
0
0
0
0
0
0
0
0
0
0
0
0
0
0
0
0
0
0
0
0
0
0
0
0
0
0
0
0
0
0
0
0
0
0
0
0
0
0
0
0
0
0
0
0
0
0
0
0
0
0
0
0
0
0
0
0
0
0
0
0
0
0
0
0
0
0
0
0
0
0
0
0
0
0
0
0
0
0
0
0
0
0
0
0
0
0
0
0
0
0
0
0
0
0
0
0
0
0
0
0
0
0
0
0
0
0
0
0
0
0
0
0
0
0
0
0
0
0
0
0
0
0
0
0
0
0
0
0
0
0
0
0
0
0
0
0
0
0
0
0
0
0
0
0
0
0
0
0
0
0
0
0
0
0
0
0
0
0
0
0
0
0
0
0
0
0
0
0
0
0
0
0
0
0
0
0
0
0
0
0
0
0
0
0
0
0
0
0
0
0
0
0
0
0
0
0
0
0
0
0
0
0
0
0
0
0
0
0
0
0
0
0
0
0
0
0
0
0
0
0
0
0
0
0
0
0
0
0
0
0
0
0
0
0
0
0
0
0
0
0
0
0
0
0
0
0
0
0
0
0
0
0
0
0
0
0
0
0
0
0
0
0
0
0
0
0
0
0
0
0
0
0
0
0
0
0
0
0
0
0
0
0
0
0
0
0
0
0
0
0
0
0
0
0
0
0
0
0
0
0
0
0
0
0
0
0
0
0
0
0
0
0
0
0
0
0
0
0
0
0
0
0
0
0
0
0
0
0
0
0
0
0
0
0
0
0
0
0
0
0
0
0
0
0
0
0
0
0
0
0
0
0
0
0
0
0
0
0
0
0
0
0
0
0
0
0
0
0
0
0
0
0
0
0
0
0
0
0
0
0
0
0
0
0
0
0
0
0
0
0
0
0
0
0
0
0
0
0
0
0
0
0
0
0
0
0
0
0
0
0
0
0
0
0
0
0
0
0
0
0
0
0
0
0
0
0
0
0
0
0
0
0
0
0
0
0
0
0
0
0
0
0
0
0
0
0
0
0
0
0
0
0
0
0
0
0
0
0
0
0
0
0
0
0
0
0
0
0
0
0
0
0
0
0
0
0
0
0
0
0
0
0
0
0
0
0
0
0
0
0
0
0
0
0
0
0
0
0
0
0
0
0
0
0
0
0
0
0
0
0
0
0
0
0
0
0
0
0
0
0
0
0
0
0
0
0
0
0
0
0
0
0
0
0
0
0
0
0
0
0
0
0
0
0
0
0
0
0
0
0
0
0
0
0
0
0
0
0
0
0
0
0
0
0
0
0
0
0
0
0
0
0
0
0
0
0
0
0
0
0
0
0
0
0
0
0
0
0
0
0
0
0
0
0
0
0
0
0
0
0
0
0
0
0
0
0
0
0
0
0
0
0
0
0
0
0
0
0
0
0
0
0
0
0
0
0
0
0
0
0
0
0
0
0
0
0
0
0
0
0
0
0
0
0
0
0
0
0
0
0
0
0
0
0
0
0
0
0
0
0
0
0
0
0
0
0
0
0
0
0
0
0
0
0
0
0
0
0
0
0
0
0
0
0
0
0
0
0
0
0
0
0
0
0
0
0
0
0
0
0
0
0
0
0
0
0
0
0
0
0
0
0
0
0
0
0
0
0
0
0
0
0
0
0
0
0
0
0
0
0
0
0
0
0
0
0
0
0
0
0
0
0
0
0
0
0
0
0
0
0
0
0
0
0
0
0
0
0
0
0
0
0
0
0
0
0
0
0
0
0
0
0
0
0
0
0
0
0
0
0
0
0
0
0
0
0
0
0
0
0
0
0
0
0
0
0
0
0
0
0
0
0
0
0
0
0
0
0
0
0
0
0
0
0
0
0
0
0
0
0
0
0
0
0
0
0
0
0
0
0
0
0
0
0
0
0
0
0
0
0
0
0
0
0
0
0
0
0
0
0
0
0
0
0
0
0
0
0
0
0
0
0
0
0
0
0
0
0
0
0
0
0
0
0
0
0
0
0
0
0
0
0
0
0
0
0
0
0
0
0
0
0
0
0
0
0
0
0
0
0
0
0
0
0
0
0
0
0
0
0
0
0
0
0
0
0
0
0
0
0
0
0
0
0
0
0
0
0
0
0
0
0
0
0
0
0
0
0
0
0
0
0
0
0
0
0
0
0
0
0
0
0
0
0
0
0
0
0
0
0
0
0
0
0
0
0
0
0
0
0
0
0
0
0
0
0
0
0
0
0
0
0
0
0
0
0
0
0
0
0
0
0
0
0
0
0
0
0
0
0
0
0
0
0
0
0
0
0
0
0
0
0
0
0
0
0
0
0
0
0
0
0
0
0
0
0
0
0
0
0
0
0
0
0
0
0
0
0
0
0
0
0
0
0
0
0
0
0
0
0
0
0
0
0
0
0
0
0
0
0
0
0
0
0
0
0
0
0
0
0
0
0
0
0
0
0
0
0
0
0
0
0
0
0
0
0
0
0
0
0
0
0
0
0
0
0
0
0
0
0
0
0
0
0
0
0
0
0
0
0
0
0
0
0
0
0
0
0
0
0
0
0
0
0
0
0
0
0
0
0
0
0
0
0
0
0
0
0
0
0
0
0
0
0
0
0
0
0
0
0
0
0
0
0
0
0
0
0
0
0
0
0
0
0
0
0
0
0
0
0
0
0
0
0
0
0
0
0
0
0
0
0
0
0
0
0
0
0
0
0
0
0
0
0
0
0
0
0
0
0
0
0
0
0
0
0
0
0
0
0
0
0
0
0
0
0
0
0
0
0
0
0
0
0
0
0
0
0
0
0
0
0
0
0
0
0
0
0
0
0
0
0
0
0
0
0
0
0
0
0
0
0
0
0
0
0
0
0
0
0
0
0
0
0
0
0
0
0
0
0
0
0
0
0
0
0
0
0
0
0
0
0
0
0
0
0
0
0
0
0
0
0
0
0
0
0
0
0
0
0
0
0
0
0
0
0
0
0
0
0
0
0
0
0
0
0
0
0
0
0
0
0
0
0
0
0
0
0
0
0
0
0
0
0
0
0
0
0
0
0
0
0
0
0
0
0
0
0
0
0
0
0
0
0
0
0
0
0
0
0
0
0
0
0
0
0
0
0
0
0
0
0
0
0
0
0
0
0
0
0
0
0
0
0
0
0
0
0
0
0
0
0
0
0
0
0
0
0
0
0
0
0
0
0
0
0
0
0
0
0
0
0
0
0
0
0
0
0
0
0
0
0
0
0
0
0
0
0
0
0
0
0
0
0
0
0
0
0
0
0
0
0
0
0
0
0
0
0
0
0
0
0
0
0
0
0
0
0
0
0
0
0
0
0
0
0
0
0
0
0
0
0
0
0
0
0
0
0
0
0
0
0
1
1
1
1
1
1
1
1
1
1
1
1
1
1
1
1
1
1
1
1
1
1
1
1
1
1
1
1
1
1
2
2
2
2
2
2
2
2
2
2
2
2
2
2
2
2
2
2
2
2
2
2
2
2
2
2
2
2
2
2
3
3
3
3
3
3
3
3
3
3
3
3
3
3
3
3
3
3
3
3
3
3
3
3
3
3
3
3
3
3
4
4
4
4
4
4
4
4
4
4
4
4
4
4
4
4
4
4
4
4
4
4
4
4
4
4
4
4
4
4

LOOKUP_TABLE FreeFempp_table 5
1.00000000 0.00000000 0.00000000 1.00000000
1.00000000 1.00000000 0.00000000 1.00000000
1.00000000 0.00000000 1.00000000 1.00000000
0.00000000 1.00000000 0.00000000 1.00000000
0.00000000 1.00000000 1.00000000 1.00000000

POINT_DATA 961
FIELD FieldData 1
Density 1 961 float
1.10652632e-04 1.10676629e-04 1.10671368e-04 1.10667082e-04 1.10663816e-04 1.10661153e-04 1.10658650e-04 1.10655928e-04 1.10652581e-04 1.10648027e-04 1.10641588e-04 1.10632944e-04 1.10623027e-04 1.10624744e-04 9.97731924e-01 9.99401748e-01 9.99442756e-01 9.97894943e-01 9.71627533e-01 9.61104512e-01 9.48867500e-01 9.30540025e-01 8.66230369e-01 6.33765876e-01 4.11974996e-01 2.72951841e-01 2.06436813e-01 1.79535404e-01 1.69131950e-01 2.12887481e-01 3.22472490e-02 1.10682544e-04 1.10760055e-04 1.10749272e-04 1.10739966e-04 1.10732974e-04 1.10727524e-04 1.10722758e-04 1.10717978e-04 1.10712594e-04 1.10706038e-04 1.10698107e-04 1.10690533e-04 1.10691493e-04 1.10663153e-04 1.15169045e-04 9.99868631e-01 1.12309652e-04 1.10851885e-04 9.93236959e-01 9.92587626e-01 9.95752752e-01 9.96702194e-01 9.96650100e-01 9.90411401e-01 9.61804688e-01 9.16680276e-01 8.76116514e-01 8.52674842e-01 8.39260101e-01 8.53928804e-01 2.35384226e-01 1.10686000e-04 1.10762739e-04 1.10749585e-04 1.10739980e-04 1.10733439e-04 1.10728601e-04 1.10724490e-04 1.10720561e-04 1.10716574e-04 1.10712557e-04 1.10709465e-04 1.10711371e-04 1.10731431e-04 1.10794994e-04 1.10898465e-04 9.99861002e-01 9.99862671e-01 1.11519534e-04 1.10812900e-04 1.10722023e-04 1.10721441e-04 1.10763634e-04 1.10773348e-04 1.13186201e-04 2.75881737e-01 2.98370808e-01 4.21911776e-01 5.13938010e-01 5.65780103e-01 5.41185200e-01 1.49697140e-01 1.10692956e-04 1.10765781e-04 1.10747671e-04 1.10737725e-04 1.10732202e-04 1.10728441e-04 1.10725348e-04 1.10722656e-04 1.10720597e-04 1.10720008e-04 1.10723180e-04 1.10736226e-04 1.10773144e-04 1.10855377e-04 1.10968336e-04 1.10990310e-04 9.99855280e-01 9.99868751e-01 1.11344256e-04 1.10783323e-04 1.10819943e-04 1.10989502e-04 1.11322275e-04 1.11291105e-04 1.11206995e-04 1.11035726e-04 1.10766305e-04 1.10636080e-04 1.20305711e-04 5.16638393e-04 3.00101773e-03 1.10707711e-04 1.10768480e-04 1.10743094e-04 1.10733956e-04 1.10730405e-04 1.10728201e-04 1.10726374e-04 1.10725086e-04 1.10725137e-04 1.10728171e-04 1.10737703e-04 1.10761350e-04 1.10813999e-04 1.10917797e-04 1.11090041e-04 1.11227077e-04 1.10951725e-04 9.99832392e-01 9.99860585e-01 1.16723153e-04 1.11103436e-04 1.10818459e-04 1.11094319e-04 1.11322981e-04 1.11428875e-04 1.11547073e-04 1.11283036e-04 1.11081194e-04 1.10773006e-04 1.10413814e-04 1.12917958e-04 1.10743233e-04 1.10767010e-04 1.10733345e-04 1.10728412e-04 1.10728288e-04 1.10728026e-04 1.10727487e-04 1.10727502e-04 1.10729372e-04 1.10735375e-04 1.10749766e-04 1.10780631e-04 1.10842338e-04 1.10956571e-04 1.11147441e-04 1.11445603e-04 1.10793560e-04 1.10119414e-04 1.10460518e-04 9.99851763e-01 9.99870658e-01 9.99849081e-01 9.99848008e-01 1.10729146e-04 1.10963170e-04 1.11521149e-04 1.11687623e-04 1.11354282e-04 1.11189780e-04 1.10662135e-04 1.10542926e-04 1.10682246e-04 1.10755151e-04 1.10714405e-04 1.10720743e-04 1.10725385e-04 1.10726985e-04 1.10727378e-04 1.10728084e-04 1.10730696e-04 1.10737521e-04 1.10752189e-04 1.10779838e-04 1.10824411e-04 1.10875582e-04 1.10868976e-04 1.10645633e-04 1.10234658e-04 1.08412692e-04 1.12209891e-04 1.11178539e-04 9.99441504e-01 9.99746084e-01 9.99840081e-01 9.99860048e-01 9.99858260e-01 9.99850273e-01 1.11260080e-04 1.11301772e-04 1.11320194e-04 1.10931811e-04 1.10693756e-04 1.44794743e-04 1.10619352e-04 1.10641551e-04 1.10658388e-04 1.10664092e-04 1.10665700e-04 1.10665984e-04 1.10666144e-04 1.10666988e-04 1.10669527e-04 1.10675290e-04 1.10686546e-04 1.10705369e-04 1.10728608e-04 1.10728775e-04 1.10595160e-04 1.10008717e-04 1.08848668e-04 1.10178858e-04 1.07646636e-04 1.11693080e-04 1.11846326e-04 1.10962384e-04 1.10902132e-04 1.11397829e-04 9.99858975e-01 9.99875665e-01 1.11060210e-04 1.11940208e-04 1.11391630e-04 1.10868146e-04 5.60660176e-02 6.68206811e-02 7.47476593e-02 6.15716018e-02 4.56009582e-02 3.52773704e-02 3.22485194e-02 3.52143310e-02 4.19526361e-02 4.81392778e-02 4.84517813e-02 4.17164229e-02 3.21964994e-02 2.30887420e-02 1.52218733e-02 9.18365363e-03 4.54225065e-03 1.17200182e-03 1.19101533e-04 1.08270448e-04 1.08355125e-04 1.15332550e-04 1.11866073e-04 1.10927038e-04 1.10740853e-04 1.11375564e-04 1.13860289e-04 9.99841034e-01 1.11741610e-04 1.11907066e-04 1.11161928e-04 7.18470514e-01 9.64094520e-01 9.67648029e-01 9.75982606e-01 9.80918586e-01 9.83101189e-01 9.83185053e-01 9.81585801e-01 9.78340685e-01 9.73137558e-01 9.65479612e-01 9.53969479e-01 9.33665335e-01 8.91446352e-01 7.99475372e-01 6.11788452e-01 3.31017166e-01 1.19583137e-01 4.36382033e-02 2.00470388e-02 3.45922634e-03 1.10506771e-04 1.10868903e-04 1.10794164e-04 1.10723529e-04 1.10747431e-04 1.11465059e-04 9.99874711e-01 1.10361150e-04 1.07870685e-04 1.10603454e-04 9.68065798e-01 9.98041213e-01 9.97297645e-01 9.97569025e-01 9.97616112e-01 9.97440875e-01 9.97013390e-01 9.96314585e-01 9.95355904e-01 9.94231939e-01 9.93079007e-01 9.91954684e-01 9.90742028e-01 9.89113748e-01 9.86388505e-01 9.80456948e-01 9.63973939e-01 9.13736105e-01 7.97342181e-01 5.89662850e-01 2.99933463e-01 9.42032710e-02 1.10669665e-04 1.10684152e-04 1.10709341e-04 1.10902307e-04 1.11061461e-04 9.99858201e-01 9.99832332e-01 1.00369492e-04 1.03244143e-04 9.80354428e-01 9.99153495e-01 9.98757482e-01 9.98884499e-01 9.98807132e-01 9.98514473e-01 9.97978449e-01 9.97054815e-01 9.95797813e-01 9.94551778e-01 9.93700743e-01 9.93438423e-01 9.93703663e-01 9.94309247e-01 9.95025635e-01 9.95595694e-01 9.95715797e-01 9.95112479e-01 9.94467497e-01 9.94212031e-01 9.93177593e-01 9.89469945e-01 9.93103683e-01 2.29432990e-04 1.17992407e-04 1.11037858e-04 1.11266949e-04 9.90605295e-01 9.99833703e-01 1.07311687e-04 1.02357088e-04 4.46791202e-01 9.94619310e-01 9.88909125e-01 9.92278636e-01 9.93483484e-01 9.93032396e-01 9.91865396e-01 9.89425898e-01 9.85211194e-01 9.80867088e-01 9.78809834e-01 9.79595363e-01 9.82548177e-01 9.86481845e-01 9.90251780e-01 9.93195355e-01 9.95204151e-01 9.96520042e-01 9.97545660e-01 9.98407602e-01 9.98951733e-01 9.99188304e-01 9.99314547e-01 9.99463439e-01 9.98999953e-01 3.13593596e-02 1.11547975e-04 1.56880604e-04 9.99827623e-01 1.14580951e-04 1.11304485e-04 1.45021637e-04 1.46238366e-04 1.35552255e-04 1.48588224e-04 2.51689751e-04 1.75268634e-03 3.79339382e-02 1.50246322e-01 3.00662130e-01 4.30013746e-01 5.13117969e-01 5.67820787e-01 6.10214353e-01 6.53845668e-01 7.03041136e-01 7.54538536e-01 8.00006628e-01 8.31759989e-01 8.53760779e-01 8.88759315e-01 9.43924427e-01 9.83490586e-01 9.97427940e-01 9.99402344e-01 9.99798179e-01 9.99742389e-01 9.77818131e-01 9.80634868e-01 9.99840617e-01 1.15048802e-04 1.15885923e-04 1.10645356e-04 1.10662550e-04 1.10644411e-04 1.10624511e-04 1.10605382e-04 1.10649125e-04 1.18573043e-04 2.14327723e-04 8.03503382e-04 1.84727274e-03 3.49092390e-03 5.76914148e-03 9.40108672e-03 1.56328641e-02 2.38746405e-02 3.36780548e-02 4.35409844e-02 4.53483872e-02 3.26413736e-02 1.31528713e-02 2.78157042e-03 4.51218133e-04 2.00029011e-04 4.12926689e-04 6.43962920e-01 9.99503374e-01 9.99732316e-01 9.99784052e-01 9.99839604e-01 1.13667375e-04 1.14899638e-04 1.10667133e-04 1.10733708e-04 1.10705339e-04 1.10667963e-04 1.10632260e-04 1.10611029e-04 1.10589011e-04 1.10570065e-04 1.14234390e-04 1.28787593e-04 1.47642771e-04 1.66760015e-04 2.08358033e-04 2.96523678e-04 3.74544295e-04 3.96955846e-04 4.22916084e-04 4.44778387e-04 4.04033839e-04 3.16690479e-04 2.46458279e-04 2.55866704e-04 2.11757404e-04 1.92074629e-04 4.52545966e-04 5.16964123e-02 9.99264598e-01 9.99773562e-01 9.99743521e-01 1.12647802e-04 1.13420916e-04 1.10658497e-04 1.10719724e-04 1.10694848e-04 1.10660825e-04 1.10627640e-04 1.10607289e-04 1.10593435e-04 1.10563968e-04 1.10548179e-04 1.10535155e-04 1.10527501e-04 1.10521207e-04 1.10511312e-04 1.11714311e-04 1.17826974e-04 1.26239785e-04 1.35314287e-04 1.42231278e-04 1.42631528e-04 1.47680694e-04 1.80314993e-04 3.28868307e-04 3.85273760e-03 7.77881324e-01 9.98309195e-01 9.99515474e-01 9.99569833e-01 9.99636173e-01 9.95505273e-01 1.11893678e-04 1.12447873e-04 1.10645837e-04 1.10689405e-04 1.10662208e-04 1.10632609e-04 1.10604858e-04 1.10587986e-04 1.10577064e-04 1.10560039e-04 1.10549670e-04 1.10521476e-04 1.10491907e-04 1.10468478e-04 1.10432113e-04 1.10375782e-04 1.10304711e-04 1.12198395e-04 1.16920251e-04 1.23141741e-04 1.35795315e-04 1.77590075e-04 4.85508324e-04 2.21619606e-02 9.44292605e-01 9.98921394e-01 9.99538422e-01 9.99339879e-01 9.98398781e-01 9.95291054e-01 1.10539986e-04 1.11288005e-04 1.11712579e-04 1.10621906e-04 1.10639608e-04 1.10597088e-04 1.10544926e-04 1.10544315e-04 1.10547684e-04 1.10547204e-04 1.10548681e-04 1.10550820e-04 1.10525310e-04 1.10498258e-04 1.10481436e-04 1.10469038e-04 1.10446999e-04 1.10395325e-04 1.12773916e-04 1.20548117e-04 1.38797739e-04 2.02044524e-04 1.00557937e-03 1.10839933e-01 9.78449464e-01 9.99143004e-01 9.99471962e-01 9.99081016e-01 9.95459020e-01 9.37962830e-01 7.55989272e-03 1.10551686e-04 1.10712172e-04 1.11010813e-04 1.11004498e-04 1.10557958e-04 1.10504123e-04 1.10418201e-04 1.10466193e-04 1.10570189e-04 1.10999805e-04 1.10643312e-04 1.10554436e-04 1.10538225e-04 1.10530418e-04 1.10528257e-04 1.10528126e-04 1.11669033e-04 1.20626275e-04 1.41491721e-04 1.88628968e-04 4.53150278e-04 6.88929111e-03 4.52001184e-01 9.87650812e-01 9.99022007e-01 9.99346137e-01 9.98784781e-01 9.88823116e-01 5.45465529e-01 4.29180218e-03 1.10544737e-04 1.10580695e-04 1.10574183e-04 1.10612149e-04 1.11048743e-04 1.10533962e-04 1.10461318e-04 1.10385910e-04 1.10440546e-04 1.20921417e-04 1.42368342e-04 1.30259185e-04 1.25153732e-04 1.23890437e-04 1.23396734e-04 1.23434205e-04 1.29653243e-04 1.59828822e-04 2.68196454e-04 6.94411458e-04 4.29973938e-03 7.75382072e-02 7.50181079e-01 9.88707483e-01 9.98251081e-01 9.98778045e-01 9.97874498e-01 9.77488995e-01 1.86296552e-01 1.56191434e-03 1.12903952e-04 1.10582732e-04 1.10594920e-04 1.10588240e-04 1.10591391e-04 1.10891182e-04 1.10657566e-04 1.10581808e-04 1.10525856e-04 1.10496883e-04 1.55069269e-04 6.70449634e-04 2.19350259e-04 1.58317504e-04 1.55244459e-04 1.55772388e-04 1.67812497e-04 2.09001635e-04 3.74229392e-04 1.05088588e-03 5.35967480e-03 8.53782892e-02 7.23739505e-01 9.79078948e-01 9.95197892e-01 9.96504545e-01 9.93705750e-01 9.58819747e-01 6.32515848e-02 7.82660849e-04 1.43330399e-04 1.10582281e-04 1.10598303e-04 1.10599816e-04 1.10601046e-04 1.10598507e-04 1.10876026e-04 1.10927111e-04 1.10858062e-04 1.10788431e-04 1.10619811e-04 2.61286186e-04 5.86293451e-02 2.40657071e-04 1.45046593e-04 1.64880781e-04 2.06306591e-04 3.07611743e-04 6.44750427e-04 2.29494646e-03 1.02279698e-02 6.26729578e-02 4.91758585e-01 9.33538973e-01 9.77324009e-01 9.83921587e-01 9.75418985e-01 8.74072552e-01 6.01347573e-02 2.11170860e-04 1.15110168e-04 1.10586887e-04 1.10598558e-04 1.10598943e-04 1.10608693e-04 1.10614368e-04 1.10604902e-04 1.10902838e-04 1.11294248e-04 1.11242618e-04 1.11081135e-04 1.10769608e-04 2.93723643e-02 9.71693039e-01 2.16598521e-04 1.23176811e-04 1.69627834e-04 5.06584882e-04 1.75193790e-03 7.89378118e-03 4.88351397e-02 1.71444297e-01 4.04123992e-01 7.69375086e-01 8.80838096e-01 8.96685421e-01 8.95374537e-01 7.70492017e-01 1.51364610e-01 6.75925112e-04 1.10578345e-04 1.10591434e-04 1.10590059e-04 1.10602115e-04 1.10608671e-04 1.10598048e-04 1.10599991e-04 1.10602530e-04 1.16977651e-04 1.11316782e-04 1.11489768e-04 1.11131019e-04 1.10878122e-04 9.57044065e-01 9.99105990e-01 6.10682066e-04 1.23992460e-04 1.67539649e-04 3.75997229e-03 4.21524383e-02 1.75938562e-01 5.55151999e-01 7.28899002e-01 7.10120499e-01 7.33971834e-01 6.97034776e-01 6.74967289e-01 6.47431254e-01 3.91720057e-01 2.27649268e-02 2.02999290e-04 1.10603694e-04 1.10593886e-04 1.10594490e-04 1.10593101e-04 1.10597910e-04 1.10596346e-04 1.10586865e-04 1.22262412e-04 1.49789194e-04 1.11645160e-04 1.12179609e-04 1.11086811e-04 1.10803623e-04 9.78959739e-01 9.96424258e-01 3.31505463e-02 2.34749765e-04 3.91036301e-04 4.16767485e-02 3.19977075e-01 5.43685019e-01 8.61056685e-01 9.14711595e-01 8.12304139e-01 6.99104428e-01 5.77610433e-01 5.16824365e-01 4.86628026e-01 3.18851441e-01 3.43006514e-02 3.09019524e-04 1.10616202e-04 1.10587003e-04 1.10584398e-04 1.10571753e-04 1.10559529e-04 1.27196108e-04 1.87972342e-04 4.40457341e-04 2.08194897e-01 1.12839807e-04 1.14503011e-04 1.12198642e-04 1.25829116e-04 9.92126524e-01 2.91369483e-03 8.27741623e-03 7.77488798e-02 5.70144236e-01 8.62465918e-01 8.46953869e-01 7.54264593e-01 8.85937691e-01 9.47799206e-01 8.65280151e-01 7.30167627e-01 6.07377291e-01 5.07600605e-01 4.85435188e-01 4.49541450e-01 2.26102456e-01 9.41811688e-03 1.66011261e-04 1.10459769e-04 1.16596064e-04 2.08304424e-04 1.24741448e-02 1.55776307e-01 3.93336296e-01 4.15390469e-02 6.81384951e-02 1.14718481e-04 1.16435418e-04 1.13425645e-04 8.95089030e-01 9.55010414e-01 1.39718308e-04 2.04896962e-04 9.75398123e-01 9.99132037e-01 9.97865796e-01 9.84482169e-01 9.36466217e-01 9.57331002e-01 9.72930789e-01 9.48996544e-01 8.34035277e-01 7.19009817e-01 5.93346119e-01 5.82075000e-01 6.72719836e-01 7.60280907e-01 7.28594363e-01 4.50547397e-01 1.77742690e-01 1.03763603e-01 3.21494102e-01 8.88063431e-01 8.38089883e-01 8.35714519e-01 1.59503326e-01 1.11636184e-02 1.54981739e-04 1.18382362e-04 1.13795715e-04 9.54538405e-01 1.38502452e-03 1.11144123e-04 1.13671056e-04 9.67397809e-01 9.99624312e-01 9.99152839e-01 9.84694779e-01 8.54661226e-01 9.40521896e-01 9.91644561e-01 9.87798274e-01 9.55847502e-01 8.89472246e-01 8.02545786e-01 8.03147793e-01 8.60500455e-01 9.22787666e-01 9.53878582e-01 9.62944508e-01 9.66436625e-01 9.72514153e-01 9.59190309e-01 9.25410986e-01 8.49403322e-01 8.12550426e-01 1.79539621e-01 2.39781514e-02 5.00751717e-04 2.28604884e-04 1.11319554e-04 9.49263692e-01 4.29477281e-04 1.10321773e-04 1.10775749e-04 3.49217206e-02 9.99576867e-01 9.99139428e-01 9.94193733e-01 9.55750704e-01 9.45551753e-01 9.98321056e-01 9.99179661e-01 9.97997701e-01 9.93189335e-01 9.81880784e-01 9.74161386e-01 9.63145614e-01 9.25457597e-01 7.85122752e-01 4.62392151e-01 2.00099677e-01 1.13763705e-01 1.27908126e-01 1.93687245e-01 3.50168347e-01 4.36997265e-01 1.17581353e-01 4.79735248e-03 1.70943225e-04 2.75916798e-04 3.06240171e-01 8.91042650e-02 2.51615117e-03 1.19370772e-04 1.11024128e-04 2.07154997e-04 9.92070258e-01 9.96465385e-01 9.69621420e-01 3.45427483e-01 2.82624960e-01 9.80267048e-01 9.96459842e-01 9.96458948e-01 9.81958449e-01 8.96197438e-01 7.66188622e-01 5.99991560e-01 2.83956647e-01 5.26400395e-02 7.75240082e-03 2.24850955e-03 2.06603459e-03 4.89924988e-03 1.05391368e-02 1.45450281e-02 1.57362670e-02 1.72981266e-02 
