# vtk DataFile Version 2.0
results_case1_non_linear/iter4.vtk, Created by Freefem++ 
ASCII
DATASET UNSTRUCTURED_GRID
POINTS 961 float
0 0 0
0.033333333 0 0
0.066666667 0 0
0.1 0 0
0.13333333 0 0
0.16666667 0 0
0.2 0 0
0.23333333 0 0
0.26666667 0 0
0.3 0 0
0.33333333 0 0
0.36666667 0 0
0.4 0 0
0.43333333 0 0
0.46666667 0 0
0.5 0 0
0.53333333 0 0
0.56666667 0 0
0.6 0 0
0.63333333 0 0
0.66666667 0 0
0.7 0 0
0.73333333 0 0
0.76666667 0 0
0.8 0 0
0.83333333 0 0
0.86666667 0 0
0.9 0 0
0.93333333 0 0
0.96666667 0 0
1 0 0
0 0.033333333 0
0.033333333 0.033333333 0
0.066666667 0.033333333 0
0.1 0.033333333 0
0.13333333 0.033333333 0
0.16666667 0.033333333 0
0.2 0.033333333 0
0.23333333 0.033333333 0
0.26666667 0.033333333 0
0.3 0.033333333 0
0.33333333 0.033333333 0
0.36666667 0.033333333 0
0.4 0.033333333 0
0.43333333 0.033333333 0
0.46666667 0.033333333 0
0.5 0.033333333 0
0.53333333 0.033333333 0
0.56666667 0.033333333 0
0.6 0.033333333 0
0.63333333 0.033333333 0
0.66666667 0.033333333 0
0.7 0.033333333 0
0.73333333 0.033333333 0
0.76666667 0.033333333 0
0.8 0.033333333 0
0.83333333 0.033333333 0
0.86666667 0.033333333 0
0.9 0.033333333 0
0.93333333 0.033333333 0
0.96666667 0.033333333 0
1 0.033333333 0
0 0.066666667 0
0.033333333 0.066666667 0
0.066666667 0.066666667 0
0.1 0.066666667 0
0.13333333 0.066666667 0
0.16666667 0.066666667 0
0.2 0.066666667 0
0.23333333 0.066666667 0
0.26666667 0.066666667 0
0.3 0.066666667 0
0.33333333 0.066666667 0
0.36666667 0.066666667 0
0.4 0.066666667 0
0.43333333 0.066666667 0
0.46666667 0.066666667 0
0.5 0.066666667 0
0.53333333 0.066666667 0
0.56666667 0.066666667 0
0.6 0.066666667 0
0.63333333 0.066666667 0
0.66666667 0.066666667 0
0.7 0.066666667 0
0.73333333 0.066666667 0
0.76666667 0.066666667 0
0.8 0.066666667 0
0.83333333 0.066666667 0
0.86666667 0.066666667 0
0.9 0.066666667 0
0.93333333 0.066666667 0
0.96666667 0.066666667 0
1 0.066666667 0
0 0.1 0
0.033333333 0.1 0
0.066666667 0.1 0
0.1 0.1 0
0.13333333 0.1 0
0.16666667 0.1 0
0.2 0.1 0
0.23333333 0.1 0
0.26666667 0.1 0
0.3 0.1 0
0.33333333 0.1 0
0.36666667 0.1 0
0.4 0.1 0
0.43333333 0.1 0
0.46666667 0.1 0
0.5 0.1 0
0.53333333 0.1 0
0.56666667 0.1 0
0.6 0.1 0
0.63333333 0.1 0
0.66666667 0.1 0
0.7 0.1 0
0.73333333 0.1 0
0.76666667 0.1 0
0.8 0.1 0
0.83333333 0.1 0
0.86666667 0.1 0
0.9 0.1 0
0.93333333 0.1 0
0.96666667 0.1 0
1 0.1 0
0 0.13333333 0
0.033333333 0.13333333 0
0.066666667 0.13333333 0
0.1 0.13333333 0
0.13333333 0.13333333 0
0.16666667 0.13333333 0
0.2 0.13333333 0
0.23333333 0.13333333 0
0.26666667 0.13333333 0
0.3 0.13333333 0
0.33333333 0.13333333 0
0.36666667 0.13333333 0
0.4 0.13333333 0
0.43333333 0.13333333 0
0.46666667 0.13333333 0
0.5 0.13333333 0
0.53333333 0.13333333 0
0.56666667 0.13333333 0
0.6 0.13333333 0
0.63333333 0.13333333 0
0.66666667 0.13333333 0
0.7 0.13333333 0
0.73333333 0.13333333 0
0.76666667 0.13333333 0
0.8 0.13333333 0
0.83333333 0.13333333 0
0.86666667 0.13333333 0
0.9 0.13333333 0
0.93333333 0.13333333 0
0.96666667 0.13333333 0
1 0.13333333 0
0 0.16666667 0
0.033333333 0.16666667 0
0.066666667 0.16666667 0
0.1 0.16666667 0
0.13333333 0.16666667 0
0.16666667 0.16666667 0
0.2 0.16666667 0
0.23333333 0.16666667 0
0.26666667 0.16666667 0
0.3 0.16666667 0
0.33333333 0.16666667 0
0.36666667 0.16666667 0
0.4 0.16666667 0
0.43333333 0.16666667 0
0.46666667 0.16666667 0
0.5 0.16666667 0
0.53333333 0.16666667 0
0.56666667 0.16666667 0
0.6 0.16666667 0
0.63333333 0.16666667 0
0.66666667 0.16666667 0
0.7 0.16666667 0
0.73333333 0.16666667 0
0.76666667 0.16666667 0
0.8 0.16666667 0
0.83333333 0.16666667 0
0.86666667 0.16666667 0
0.9 0.16666667 0
0.93333333 0.16666667 0
0.96666667 0.16666667 0
1 0.16666667 0
0 0.2 0
0.033333333 0.2 0
0.066666667 0.2 0
0.1 0.2 0
0.13333333 0.2 0
0.16666667 0.2 0
0.2 0.2 0
0.23333333 0.2 0
0.26666667 0.2 0
0.3 0.2 0
0.33333333 0.2 0
0.36666667 0.2 0
0.4 0.2 0
0.43333333 0.2 0
0.46666667 0.2 0
0.5 0.2 0
0.53333333 0.2 0
0.56666667 0.2 0
0.6 0.2 0
0.63333333 0.2 0
0.66666667 0.2 0
0.7 0.2 0
0.73333333 0.2 0
0.76666667 0.2 0
0.8 0.2 0
0.83333333 0.2 0
0.86666667 0.2 0
0.9 0.2 0
0.93333333 0.2 0
0.96666667 0.2 0
1 0.2 0
0 0.23333333 0
0.033333333 0.23333333 0
0.066666667 0.23333333 0
0.1 0.23333333 0
0.13333333 0.23333333 0
0.16666667 0.23333333 0
0.2 0.23333333 0
0.23333333 0.23333333 0
0.26666667 0.23333333 0
0.3 0.23333333 0
0.33333333 0.23333333 0
0.36666667 0.23333333 0
0.4 0.23333333 0
0.43333333 0.23333333 0
0.46666667 0.23333333 0
0.5 0.23333333 0
0.53333333 0.23333333 0
0.56666667 0.23333333 0
0.6 0.23333333 0
0.63333333 0.23333333 0
0.66666667 0.23333333 0
0.7 0.23333333 0
0.73333333 0.23333333 0
0.76666667 0.23333333 0
0.8 0.23333333 0
0.83333333 0.23333333 0
0.86666667 0.23333333 0
0.9 0.23333333 0
0.93333333 0.23333333 0
0.96666667 0.23333333 0
1 0.23333333 0
0 0.26666667 0
0.033333333 0.26666667 0
0.066666667 0.26666667 0
0.1 0.26666667 0
0.13333333 0.26666667 0
0.16666667 0.26666667 0
0.2 0.26666667 0
0.23333333 0.26666667 0
0.26666667 0.26666667 0
0.3 0.26666667 0
0.33333333 0.26666667 0
0.36666667 0.26666667 0
0.4 0.26666667 0
0.43333333 0.26666667 0
0.46666667 0.26666667 0
0.5 0.26666667 0
0.53333333 0.26666667 0
0.56666667 0.26666667 0
0.6 0.26666667 0
0.63333333 0.26666667 0
0.66666667 0.26666667 0
0.7 0.26666667 0
0.73333333 0.26666667 0
0.76666667 0.26666667 0
0.8 0.26666667 0
0.83333333 0.26666667 0
0.86666667 0.26666667 0
0.9 0.26666667 0
0.93333333 0.26666667 0
0.96666667 0.26666667 0
1 0.26666667 0
0 0.3 0
0.033333333 0.3 0
0.066666667 0.3 0
0.1 0.3 0
0.13333333 0.3 0
0.16666667 0.3 0
0.2 0.3 0
0.23333333 0.3 0
0.26666667 0.3 0
0.3 0.3 0
0.33333333 0.3 0
0.36666667 0.3 0
0.4 0.3 0
0.43333333 0.3 0
0.46666667 0.3 0
0.5 0.3 0
0.53333333 0.3 0
0.56666667 0.3 0
0.6 0.3 0
0.63333333 0.3 0
0.66666667 0.3 0
0.7 0.3 0
0.73333333 0.3 0
0.76666667 0.3 0
0.8 0.3 0
0.83333333 0.3 0
0.86666667 0.3 0
0.9 0.3 0
0.93333333 0.3 0
0.96666667 0.3 0
1 0.3 0
0 0.33333333 0
0.033333333 0.33333333 0
0.066666667 0.33333333 0
0.1 0.33333333 0
0.13333333 0.33333333 0
0.16666667 0.33333333 0
0.2 0.33333333 0
0.23333333 0.33333333 0
0.26666667 0.33333333 0
0.3 0.33333333 0
0.33333333 0.33333333 0
0.36666667 0.33333333 0
0.4 0.33333333 0
0.43333333 0.33333333 0
0.46666667 0.33333333 0
0.5 0.33333333 0
0.53333333 0.33333333 0
0.56666667 0.33333333 0
0.6 0.33333333 0
0.63333333 0.33333333 0
0.66666667 0.33333333 0
0.7 0.33333333 0
0.73333333 0.33333333 0
0.76666667 0.33333333 0
0.8 0.33333333 0
0.83333333 0.33333333 0
0.86666667 0.33333333 0
0.9 0.33333333 0
0.93333333 0.33333333 0
0.96666667 0.33333333 0
1 0.33333333 0
0 0.36666667 0
0.033333333 0.36666667 0
0.066666667 0.36666667 0
0.1 0.36666667 0
0.13333333 0.36666667 0
0.16666667 0.36666667 0
0.2 0.36666667 0
0.23333333 0.36666667 0
0.26666667 0.36666667 0
0.3 0.36666667 0
0.33333333 0.36666667 0
0.36666667 0.36666667 0
0.4 0.36666667 0
0.43333333 0.36666667 0
0.46666667 0.36666667 0
0.5 0.36666667 0
0.53333333 0.36666667 0
0.56666667 0.36666667 0
0.6 0.36666667 0
0.63333333 0.36666667 0
0.66666667 0.36666667 0
0.7 0.36666667 0
0.73333333 0.36666667 0
0.76666667 0.36666667 0
0.8 0.36666667 0
0.83333333 0.36666667 0
0.86666667 0.36666667 0
0.9 0.36666667 0
0.93333333 0.36666667 0
0.96666667 0.36666667 0
1 0.36666667 0
0 0.4 0
0.033333333 0.4 0
0.066666667 0.4 0
0.1 0.4 0
0.13333333 0.4 0
0.16666667 0.4 0
0.2 0.4 0
0.23333333 0.4 0
0.26666667 0.4 0
0.3 0.4 0
0.33333333 0.4 0
0.36666667 0.4 0
0.4 0.4 0
0.43333333 0.4 0
0.46666667 0.4 0
0.5 0.4 0
0.53333333 0.4 0
0.56666667 0.4 0
0.6 0.4 0
0.63333333 0.4 0
0.66666667 0.4 0
0.7 0.4 0
0.73333333 0.4 0
0.76666667 0.4 0
0.8 0.4 0
0.83333333 0.4 0
0.86666667 0.4 0
0.9 0.4 0
0.93333333 0.4 0
0.96666667 0.4 0
1 0.4 0
0 0.43333333 0
0.033333333 0.43333333 0
0.066666667 0.43333333 0
0.1 0.43333333 0
0.13333333 0.43333333 0
0.16666667 0.43333333 0
0.2 0.43333333 0
0.23333333 0.43333333 0
0.26666667 0.43333333 0
0.3 0.43333333 0
0.33333333 0.43333333 0
0.36666667 0.43333333 0
0.4 0.43333333 0
0.43333333 0.43333333 0
0.46666667 0.43333333 0
0.5 0.43333333 0
0.53333333 0.43333333 0
0.56666667 0.43333333 0
0.6 0.43333333 0
0.63333333 0.43333333 0
0.66666667 0.43333333 0
0.7 0.43333333 0
0.73333333 0.43333333 0
0.76666667 0.43333333 0
0.8 0.43333333 0
0.83333333 0.43333333 0
0.86666667 0.43333333 0
0.9 0.43333333 0
0.93333333 0.43333333 0
0.96666667 0.43333333 0
1 0.43333333 0
0 0.46666667 0
0.033333333 0.46666667 0
0.066666667 0.46666667 0
0.1 0.46666667 0
0.13333333 0.46666667 0
0.16666667 0.46666667 0
0.2 0.46666667 0
0.23333333 0.46666667 0
0.26666667 0.46666667 0
0.3 0.46666667 0
0.33333333 0.46666667 0
0.36666667 0.46666667 0
0.4 0.46666667 0
0.43333333 0.46666667 0
0.46666667 0.46666667 0
0.5 0.46666667 0
0.53333333 0.46666667 0
0.56666667 0.46666667 0
0.6 0.46666667 0
0.63333333 0.46666667 0
0.66666667 0.46666667 0
0.7 0.46666667 0
0.73333333 0.46666667 0
0.76666667 0.46666667 0
0.8 0.46666667 0
0.83333333 0.46666667 0
0.86666667 0.46666667 0
0.9 0.46666667 0
0.93333333 0.46666667 0
0.96666667 0.46666667 0
1 0.46666667 0
0 0.5 0
0.033333333 0.5 0
0.066666667 0.5 0
0.1 0.5 0
0.13333333 0.5 0
0.16666667 0.5 0
0.2 0.5 0
0.23333333 0.5 0
0.26666667 0.5 0
0.3 0.5 0
0.33333333 0.5 0
0.36666667 0.5 0
0.4 0.5 0
0.43333333 0.5 0
0.46666667 0.5 0
0.5 0.5 0
0.53333333 0.5 0
0.56666667 0.5 0
0.6 0.5 0
0.63333333 0.5 0
0.66666667 0.5 0
0.7 0.5 0
0.73333333 0.5 0
0.76666667 0.5 0
0.8 0.5 0
0.83333333 0.5 0
0.86666667 0.5 0
0.9 0.5 0
0.93333333 0.5 0
0.96666667 0.5 0
1 0.5 0
0 0.53333333 0
0.033333333 0.53333333 0
0.066666667 0.53333333 0
0.1 0.53333333 0
0.13333333 0.53333333 0
0.16666667 0.53333333 0
0.2 0.53333333 0
0.23333333 0.53333333 0
0.26666667 0.53333333 0
0.3 0.53333333 0
0.33333333 0.53333333 0
0.36666667 0.53333333 0
0.4 0.53333333 0
0.43333333 0.53333333 0
0.46666667 0.53333333 0
0.5 0.53333333 0
0.53333333 0.53333333 0
0.56666667 0.53333333 0
0.6 0.53333333 0
0.63333333 0.53333333 0
0.66666667 0.53333333 0
0.7 0.53333333 0
0.73333333 0.53333333 0
0.76666667 0.53333333 0
[...]
CELL_DATA 1920
Scalars  Label int 1
LOOKUP_TABLE FreeFempp_table
0
0
0
0
0
0
0
0
0
0
0
0
0
0
0
0
0
0
0
0
0
0
0
0
0
0
0
0
0
0
0
0
0
0
0
0
0
0
0
0
0
0
0
0
0
0
0
0
0
0
0
0
0
0
0
0
0
0
0
0
0
0
0
0
0
0
0
0
0
0
0
0
0
0
0
0
0
0
0
0
0
0
0
0
0
0
0
0
0
0
0
0
0
0
0
0
0
0
0
0
0
0
0
0
0
0
0
0
0
0
0
0
0
0
0
0
0
0
0
0
0
0
0
0
0
0
0
0
0
0
0
0
0
0
0
0
0
0
0
0
0
0
0
0
0
0
0
0
0
0
0
0
0
0
0
0
0
0
0
0
0
0
0
0
0
0
0
0
0
0
0
0
0
0
0
0
0
0
0
0
0
0
0
0
0
0
0
0
0
0
0
0
0
0
0
0
0
0
0
0
0
0
0
0
0
0
0
0
0
0
0
0
0
0
0
0
0
0
0
0
0
0
0
0
0
0
0
0
0
0
0
0
0
0
0
0
0
0
0
0
0
0
0
0
0
0
0
0
0
0
0
0
0
0
0
0
0
0
0
0
0
0
0
0
0
0
0
0
0
0
0
0
0
0
0
0
0
0
0
0
0
0
0
0
0
0
0
0
0
0
0
0
0
0
0
0
0
0
0
0
0
0
0
0
0
0
0
0
0
0
0
0
0
0
0
0
0
0
0
0
0
0
0
0
0
0
0
0
0
0
0
0
0
0
0
0
0
0
0
0
0
0
0
0
0
0
0
0
0
0
0
0
0
0
0
0
0
0
0
0
0
0
0
0
0
0
0
0
0
0
0
0
0
0
0
0
0
0
0
0
0
0
0
0
0
0
0
0
0
0
0
0
0
0
0
0
0
0
0
0
0
0
0
0
0
0
0
0
0
0
0
0
0
0
0
0
0
0
0
0
0
0
0
0
0
0
0
0
0
0
0
0
0
0
0
0
0
0
0
0
0
0
0
0
0
0
0
0
0
0
0
0
0
0
0
0
0
0
0
0
0
0
0
0
0
0
0
0
0
0
0
0
0
0
0
0
0
0
0
0
0
0
0
0
0
0
0
0
0
0
0
0
0
0
0
0
0
0
0
0
0
0
0
0
0
0
0
0
0
0
0
0
0
0
0
0
0
0
0
0
0
0
0
0
0
0
0
0
0
0
0
0
0
0
0
0
0
0
0
0
0
0
0
0
0
0
0
0
0
0
0
0
0
0
0
0
0
0
0
0
0
0
0
0
0
0
0
0
0
0
0
0
0
0
0
0
0
0
0
0
0
0
0
0
0
0
0
0
0
0
0
0
0
0
0
0
0
0
0
0
0
0
0
0
0
0
0
0
0
0
0
0
0
0
0
0
0
0
0
0
0
0
0
0
0
0
0
0
0
0
0
0
0
0
0
0
0
0
0
0
0
0
0
0
0
0
0
0
0
0
0
0
0
0
0
0
0
0
0
0
0
0
0
0
0
0
0
0
0
0
0
0
0
0
0
0
0
0
0
0
0
0
0
0
0
0
0
0
0
0
0
0
0
0
0
0
0
0
0
0
0
0
0
0
0
0
0
0
0
0
0
0
0
0
0
0
0
0
0
0
0
0
0
0
0
0
0
0
0
0
0
0
0
0
0
0
0
0
0
0
0
0
0
0
0
0
0
0
0
0
0
0
0
0
0
0
0
0
0
0
0
0
0
0
0
0
0
0
0
0
0
0
0
0
0
0
0
0
0
0
0
0
0
0
0
0
0
0
0
0
0
0
0
0
0
0
0
0
0
0
0
0
0
0
0
0
0
0
0
0
0
0
0
0
0
0
0
0
0
0
0
0
0
0
0
0
0
0
0
0
0
0
0
0
0
0
0
0
0
0
0
0
0
0
0
0
0
0
0
0
0
0
0
0
0
0
0
0
0
0
0
0
0
0
0
0
0
0
0
0
0
0
0
0
0
0
0
0
0
0
0
0
0
0
0
0
0
0
0
0
0
0
0
0
0
0
0
0
0
0
0
0
0
0
0
0
0
0
0
0
0
0
0
0
0
0
0
0
0
0
0
0
0
0
0
0
0
0
0
0
0
0
0
0
0
0
0
0
0
0
0
0
0
0
0
0
0
0
0
0
0
0
0
0
0
0
0
0
0
0
0
0
0
0
0
0
0
0
0
0
0
0
0
0
0
0
0
0
0
0
0
0
0
0
0
0
0
0
0
0
0
0
0
0
0
0
0
0
0
0
0
0
0
0
0
0
0
0
0
0
0
0
0
0
0
0
0
0
0
0
0
0
0
0
0
0
0
0
0
0
0
0
0
0
0
0
0
0
0
0
0
0
0
0
0
0
0
0
0
0
0
0
0
0
0
0
0
0
0
0
0
0
0
0
0
0
0
0
0
0
0
0
0
0
0
0
0
0
0
0
0
0
0
0
0
0
0
0
0
0
0
0
0
0
0
0
0
0
0
0
0
0
0
0
0
0
0
0
0
0
0
0
0
0
0
0
0
0
0
0
0
0
0
0
0
0
0
0
0
0
0
0
0
0
0
0
0
0
0
0
0
0
0
0
0
0
0
0
0
0
0
0
0
0
0
0
0
0
0
0
0
0
0
0
0
0
0
0
0
0
0
0
0
0
0
0
0
0
0
0
0
0
0
0
0
0
0
0
0
0
0
0
0
0
0
0
0
0
0
0
0
0
0
0
0
0
0
0
0
0
0
0
0
0
0
0
0
0
0
0
0
0
0
0
0
0
0
0
0
0
0
0
0
0
0
0
0
0
0
0
0
0
0
0
0
0
0
0
0
0
0
0
0
0
0
0
0
0
0
0
0
0
0
0
0
0
0
0
0
0
0
0
0
0
0
0
0
0
0
0
0
0
0
0
0
0
0
0
0
0
0
0
0
0
0
0
0
0
0
0
0
0
0
0
0
0
0
0
0
0
0
0
0
0
0
0
0
0
0
0
0
0
0
0
0
0
0
0
0
0
0
0
0
0
0
0
0
0
0
0
0
0
0
0
0
0
0
0
0
0
0
0
0
0
0
0
0
0
0
0
0
0
0
0
0
0
0
0
0
0
0
0
0
0
0
0
0
0
0
0
0
0
0
0
0
0
0
0
0
0
0
0
0
0
0
0
0
0
0
0
0
0
0
0
0
0
0
0
0
0
0
0
0
0
0
0
0
0
0
0
0
0
0
0
0
0
0
0
0
0
0
0
0
0
0
0
0
0
0
0
0
0
0
0
0
0
0
0
0
0
0
0
0
0
0
0
0
0
0
0
0
0
0
0
0
0
0
0
0
0
0
0
0
0
0
0
0
0
0
0
0
0
0
0
0
0
0
0
0
0
0
0
0
0
0
0
0
0
0
0
0
0
0
0
0
0
0
0
0
0
0
0
0
0
0
0
0
0
0
0
0
0
0
0
0
0
0
0
0
0
0
0
0
0
0
0
0
0
0
0
0
0
0
0
0
0
0
0
0
0
0
0
0
0
0
0
0
0
0
0
0
0
0
0
0
0
0
0
0
0
0
0
0
0
0
0
0
0
0
0
0
0
0
0
0
0
0
0
0
0
0
0
0
0
0
0
0
0
0
0
0
0
0
0
0
0
0
0
0
0
0
0
0
0
0
0
0
0
0
0
0
0
0
0
0
0
0
0
0
0
0
0
0
0
0
0
0
0
0
0
0
0
0
0
0
0
0
0
0
0
0
0
0
0
0
0
0
0
0
0
0
0
0
0
0
0
0
0
0
0
0
0
0
0
0
0
0
0
0
0
0
0
0
0
0
0
0
0
0
0
0
0
0
0
0
0
0
0
0
0
0
0
0
0
0
0
0
0
0
0
0
0
0
0
0
0
0
0
0
0
0
0
0
0
0
0
0
0
0
0
0
0
0
0
0
0
0
0
0
0
0
0
0
0
0
0
0
0
0
0
0
0
0
0
0
0
0
0
0
0
0
0
0
0
0
0
0
0
0
0
0
0
0
0
0
0
0
0
0
0
0
0
0
0
0
0
0
0
0
0
0
0
0
0
0
0
0
0
0
0
1
1
1
1
1
1
1
1
1
1
1
1
1
1
1
1
1
1
1
1
1
1
1
1
1
1
1
1
1
1
2
2
2
2
2
2
2
2
2
2
2
2
2
2
2
2
2
2
2
2
2
2
2
2
2
2
2
2
2
2
3
3
3
3
3
3
3
3
3
3
3
3
3
3
3
3
3
3
3
3
3
3
3
3
3
3
3
3
3
3
4
4
4
4
4
4
4
4
4
4
4
4
4
4
4
4
4
4
4
4
4
4
4
4
4
4
4
4
4
4

LOOKUP_TABLE FreeFempp_table 5
1.00000000 0.00000000 0.00000000 1.00000000
1.00000000 1.00000000 0.00000000 1.00000000
1.00000000 0.00000000 1.00000000 1.00000000
0.00000000 1.00000000 0.00000000 1.00000000
0.00000000 1.00000000 1.00000000 1.00000000

POINT_DATA 961
FIELD FieldData 1
Density 1 961 float
4.24679602e-03 2.67226039e-03 5.38880238e-03 5.42894937e-03 4.76527354e-03 4.35661618e-03 3.60456761e-03 1.09889614e-03 1.66566344e-04 1.66647733e-04 1.66583632e-04 1.66409300e-04 7.32534041e-04 3.05222441e-03 6.70202374e-01 9.99613404e-01 9.99729335e-01 9.98994827e-01 9.99803126e-01 9.99636471e-01 9.99402583e-01 9.99136150e-01 9.98505354e-01 9.97354150e-01 9.95196342e-01 9.91315961e-01 9.85991001e-01 9.80482340e-01 9.74921346e-01 9.77902830e-01 8.25814664e-01 1.68093393e-04 1.67529797e-04 1.91990941e-04 5.47593983e-04 5.93357545e-04 5.53708582e-04 4.25429811e-04 1.91209983e-04 1.67660750e-04 1.67068763e-04 1.66971091e-04 1.66625774e-04 2.12608866e-04 3.79255012e-04 3.01990821e-03 9.99842286e-01 8.15651357e-01 1.67780265e-04 9.98658180e-01 9.99836087e-01 9.99823868e-01 9.99822080e-01 9.99769568e-01 9.99654830e-01 9.99495983e-01 9.99207139e-01 9.98531222e-01 9.97525215e-01 9.96481895e-01 9.96013224e-01 9.77807879e-01 1.69949068e-04 1.69903855e-04 1.69226812e-04 1.70322150e-04 1.71963606e-04 1.73727662e-04 1.74219880e-04 1.72334694e-04 1.69670573e-04 1.68159400e-04 1.67700477e-04 1.68279803e-04 1.68007769e-04 2.92262150e-04 2.15260472e-04 2.14033145e-02 9.99772370e-01 1.68931161e-04 1.67129663e-04 1.66926460e-04 1.67178325e-04 1.67058766e-04 2.49461504e-04 9.01408866e-02 9.37097728e-01 9.87799883e-01 9.89261389e-01 9.77025211e-01 9.50280368e-01 9.09109354e-01 8.91068637e-01 1.68592829e-04 1.69979787e-04 1.68735947e-04 1.69836916e-04 1.71269261e-04 1.72957167e-04 1.74328990e-04 1.73831460e-04 1.70642030e-04 1.68010025e-04 1.67734950e-04 1.68966188e-04 1.72050059e-04 1.71785839e-04 1.67024991e-04 1.66761558e-04 9.99839962e-01 9.99837697e-01 1.66876722e-04 1.67333332e-04 1.68075770e-04 1.68826926e-04 1.72480082e-04 1.69764739e-04 1.67359787e-04 1.66922793e-04 1.66714846e-04 2.46599526e-03 2.26644818e-02 1.99822187e-02 2.14957759e-01 8.46620998e-04 1.67617865e-04 1.67086735e-04 1.72549800e-04 2.07965146e-04 2.41320624e-04 2.81735818e-04 3.20800493e-04 3.31768999e-04 2.95309612e-04 2.19248541e-04 1.66768106e-04 1.67995880e-04 1.69963809e-04 1.67943945e-04 1.63289777e-04 1.69335486e-04 1.65618854e-04 9.99828160e-01 1.75979323e-04 1.68336308e-04 1.67157239e-04 1.70470244e-04 1.71838474e-04 1.68707586e-04 1.67843027e-04 1.67603954e-04 1.67247563e-04 1.66684375e-04 2.53797829e-04 2.81811762e-03 2.67891726e-03 2.28397927e-04 2.07799647e-04 2.31324942e-04 2.60498608e-04 3.03334935e-04 3.62210936e-04 4.42883262e-04 5.41356276e-04 6.71683112e-04 7.95137777e-04 7.45767320e-04 5.74288890e-04 2.80031149e-04 1.62468423e-04 1.57573479e-04 1.57377712e-04 1.68451123e-04 1.89175742e-04 9.99896049e-01 9.99882936e-01 9.99832332e-01 9.99831617e-01 1.65738660e-04 1.66789818e-04 1.67676655e-04 1.67765931e-04 1.67599792e-04 1.67018618e-04 1.66872269e-04 1.66667596e-04 1.93653069e-02 7.25190213e-04 6.60390127e-04 7.28741754e-04 8.02786846e-04 9.08040151e-04 1.07470108e-03 1.33121677e-03 1.69770967e-03 2.20877933e-03 2.68048653e-03 2.73700897e-03 2.80311145e-03 3.11091961e-03 2.49203178e-03 1.15205499e-03 2.47919903e-04 1.54536363e-04 1.75904614e-04 2.14256201e-04 9.99675274e-01 9.99836147e-01 9.99834478e-01 9.99831975e-01 9.99830365e-01 6.34497032e-04 1.67165112e-04 1.67334190e-04 1.67012768e-04 1.66991915e-04 1.66814585e-04 2.16164812e-01 1.27475159e-02 1.12910308e-02 1.07066361e-02 9.91352554e-03 9.79385246e-03 1.07563781e-02 1.31438179e-02 1.71901938e-02 2.25369800e-02 2.64165495e-02 2.66179442e-02 2.68684700e-02 2.94283796e-02 3.11608650e-02 3.03475857e-02 1.86048169e-02 6.00766344e-03 9.05593159e-04 2.04676544e-04 2.16631743e-04 1.70257816e-04 1.67228442e-04 1.66603568e-04 3.16393853e-04 9.99845207e-01 9.75420475e-01 1.92900465e-04 1.67036589e-04 1.67045728e-04 1.66810569e-04 7.37297297e-01 5.89139998e-01 5.34935117e-01 4.60896820e-01 3.86235654e-01 3.32663000e-01 3.11018676e-01 3.18933815e-01 3.44853789e-01 3.69613796e-01 3.71729851e-01 3.52314264e-01 3.36995780e-01 3.34916681e-01 3.45677286e-01 3.74407381e-01 3.89079481e-01 3.13211203e-01 1.17334142e-01 1.26987211e-02 2.01089380e-04 1.79644441e-04 1.69318912e-04 1.67224833e-04 1.66741011e-04 1.67856109e-04 9.99838352e-01 9.99610603e-01 1.66969548e-04 1.67230333e-04 1.66855199e-04 9.09841061e-01 9.66893196e-01 9.57203746e-01 9.43138957e-01 9.25595582e-01 9.07147467e-01 8.90871584e-01 8.80377769e-01 8.74580681e-01 8.67977798e-01 8.55060458e-01 8.36991370e-01 8.22958112e-01 8.20359826e-01 8.34079206e-01 8.65366101e-01 9.02183890e-01 9.31200981e-01 9.44569111e-01 9.30480897e-01 6.25717103e-01 1.67586695e-04 1.67307036e-04 1.66874874e-04 1.66754020e-04 1.66637648e-04 4.00073943e-04 9.99829352e-01 1.66053971e-04 1.67226070e-04 1.66856335e-04 9.26741064e-01 9.85861659e-01 9.81463075e-01 9.76060033e-01 9.69860256e-01 9.63263869e-01 9.57173288e-01 9.52517986e-01 9.48908687e-01 9.44541633e-01 9.37695026e-01 9.28853393e-01 9.21352506e-01 9.19432521e-01 9.26733792e-01 9.43192303e-01 9.62901711e-01 9.79529977e-01 9.90284443e-01 9.95407879e-01 9.98500586e-01 9.97955263e-01 1.66723898e-04 1.66712067e-04 1.66715035e-04 1.66662474e-04 1.66885016e-04 9.99834836e-01 3.19779647e-04 1.68654267e-04 1.67012782e-04 8.48325551e-01 9.68923450e-01 9.59487796e-01 9.49205637e-01 9.41089392e-01 9.35642004e-01 9.33855236e-01 9.35597956e-01 9.38161254e-01 9.38099504e-01 9.33569729e-01 9.25025642e-01 9.15060759e-01 9.07755315e-01 9.08005595e-01 9.19044375e-01 9.39424038e-01 9.63374019e-01 9.83124793e-01 9.94033635e-01 9.98308539e-01 9.99792397e-01 9.99836326e-01 1.66567566e-04 1.66642072e-04 1.66701691e-04 1.67249178e-04 9.92283344e-01 9.99834895e-01 1.72180924e-04 1.69616644e-04 4.25320625e-01 5.60152411e-01 5.10366678e-01 4.87977982e-01 5.20001888e-01 5.90676367e-01 6.83631599e-01 7.72704244e-01 8.33252549e-01 8.61081123e-01 8.64045560e-01 8.49674106e-01 8.23910654e-01 7.92913198e-01 7.63947070e-01 7.44392514e-01 7.41532803e-01 7.65289187e-01 8.24928880e-01 9.09631848e-01 9.72329855e-01 9.97428000e-01 9.99741256e-01 9.99836326e-01 9.91672218e-01 1.66961647e-04 1.67950566e-04 2.09308392e-03 9.99841452e-01 1.75833193e-04 1.73560446e-04 3.99103649e-02 5.35546523e-03 4.47307806e-03 5.59002953e-03 1.01300953e-02 2.51690708e-02 7.72102624e-02 2.23020330e-01 4.36546326e-01 5.77721357e-01 6.18158996e-01 5.92994392e-01 5.30738592e-01 4.52695549e-01 3.75159144e-01 3.07505369e-01 2.52929181e-01 2.11965308e-01 1.85084328e-01 1.74794480e-01 1.85665101e-01 2.67421454e-01 6.43984854e-01 9.67468023e-01 9.94749069e-01 9.56712484e-01 8.74127895e-02 9.99844432e-01 9.99838471e-01 1.76505011e-04 1.76182584e-04 4.06579534e-03 3.25095520e-04 2.56622327e-04 2.87554692e-04 4.25676437e-04 9.32477473e-04 3.43540590e-03 1.88380089e-02 8.39645639e-02 1.88748121e-01 2.41241336e-01 2.25678429e-01 1.78500473e-01 1.29478961e-01 9.11146179e-02 6.48267940e-02 4.79665324e-02 3.74151394e-02 3.06457225e-02 2.56626494e-02 2.05011237e-02 1.46223474e-02 1.04699228e-02 8.35173763e-03 9.01436526e-03 3.68613452e-02 9.96795714e-01 9.99836862e-01 9.99836326e-01 1.75109759e-04 1.75915542e-04 1.15027337e-03 1.66541373e-04 1.66549682e-04 1.66548372e-04 1.66539568e-04 2.16665328e-04 5.60406537e-04 2.86895712e-03 1.65812448e-02 4.99733537e-02 7.31679127e-02 6.92223310e-02 5.24871312e-02 3.60854752e-02 2.42792480e-02 1.68854259e-02 1.26500912e-02 1.04841366e-02 9.67889279e-03 9.70372837e-03 9.74728167e-03 8.73894058e-03 7.20163248e-03 7.25098373e-03 1.42679764e-02 2.71138042e-01 9.99485433e-01 9.99836028e-01 9.99836147e-01 1.73260283e-04 1.74383415e-04 6.43592561e-04 1.66570229e-04 1.66577520e-04 1.66583064e-04 1.66576428e-04 1.66548954e-04 2.50244746e-04 1.07232912e-03 6.37205038e-03 2.09725592e-02 3.23371515e-02 3.11892070e-02 2.37053223e-02 1.62111465e-02 1.08603342e-02 7.60210119e-03 5.84898191e-03 5.12659270e-03 5.21489140e-03 6.12751208e-03 8.05955846e-03 1.14962310e-02 1.92401353e-02 5.53980097e-02 4.78745461e-01 9.94494975e-01 9.99836087e-01 9.99835968e-01 9.98590589e-01 1.71610489e-04 1.72657936e-04 5.14756539e-04 1.66621336e-04 1.66625643e-04 1.66616781e-04 1.66605751e-04 1.66575293e-04 1.88554608e-04 7.45526166e-04 4.55814647e-03 1.51418447e-02 2.33361796e-02 2.26093382e-02 1.72416214e-02 1.17900213e-02 7.92362727e-03 5.63380774e-03 4.48973430e-03 4.18487890e-03 4.71327407e-03 6.61141798e-03 1.20962113e-02 3.17878611e-02 1.40390813e-01 7.02097595e-01 9.89290297e-01 9.99533772e-01 9.99836087e-01 9.99836028e-01 1.66601487e-04 1.69603343e-04 1.71079708e-04 4.89112572e-04 1.66664177e-04 1.66690385e-04 1.66669197e-04 1.66649465e-04 1.66592246e-04 1.82226067e-04 8.12581333e-04 5.27432561e-03 1.65236630e-02 2.43704841e-02 2.34524980e-02 1.80557556e-02 1.25421537e-02 8.64065904e-03 6.40249904e-03 5.44337649e-03 5.60317328e-03 7.43114715e-03 1.39694093e-02 4.27980013e-02 2.22123727e-01 7.97019243e-01 9.87598419e-01 9.99000669e-01 9.99831259e-01 9.99836147e-01 9.98858571e-01 1.66680868e-04 1.67198901e-04 1.68304265e-04 4.94133390e-04 1.66699538e-04 1.66765050e-04 1.66740574e-04 1.66712649e-04 1.66615486e-04 2.14812550e-04 1.32476282e-03 8.52101296e-03 2.25680675e-02 3.08084078e-02 2.98861805e-02 2.41566766e-02 1.79337431e-02 1.33859608e-02 1.09695727e-02 1.06593585e-02 1.32346731e-02 2.34355964e-02 6.97399005e-02 3.32963288e-01 8.61064136e-01 9.87263262e-01 9.98429656e-01 9.99695837e-01 9.99836266e-01 9.99836266e-01 1.66528887e-04 1.66678452e-04 1.66842743e-04 1.66771541e-04 5.04998490e-04 1.66755359e-04 1.66869562e-04 1.66839716e-04 1.66753758e-04 1.66650498e-04 3.55758792e-04 3.13826487e-03 1.54900877e-02 3.08553502e-02 3.89904231e-02 4.00090553e-02 3.65122370e-02 3.15347761e-02 2.78708898e-02 2.77313851e-02 3.42703462e-02 5.79276867e-02 1.47505358e-01 4.89471138e-01 9.05958474e-01 9.89013255e-01 9.97971714e-01 9.99477565e-01 9.99801636e-01 9.99830723e-01 4.96878028e-01 1.66544793e-04 1.66594356e-04 1.66682643e-04 1.66631231e-04 5.57817926e-04 1.66860467e-04 1.67065096e-04 1.67052363e-04 1.66787795e-04 1.66667320e-04 1.00155349e-03 8.78420845e-03 2.40295194e-02 3.50119956e-02 4.27742675e-02 4.93188575e-02 5.46778403e-02 5.97107671e-02 6.80753514e-02 8.87642428e-02 1.45664379e-01 3.06614608e-01 6.51786566e-01 9.26766813e-01 9.89406407e-01 9.97839570e-01 9.99317229e-01 9.99685109e-01 9.99729872e-01 9.94529009e-01 1.66542464e-04 1.66553364e-04 1.66570462e-04 1.66576196e-04 1.66568658e-04 6.83756196e-04 1.67008839e-04 1.67363847e-04 1.67372636e-04 1.66951431e-04 2.79314787e-04 4.50481009e-03 1.91142876e-02 2.63154339e-02 3.05401441e-02 3.83354984e-02 5.17856702e-02 7.24764913e-02 1.03802793e-01 1.55738533e-01 2.55611986e-01 4.55234796e-01 7.42593586e-01 9.31942105e-01 9.86683488e-01 9.97103631e-01 9.99159217e-01 9.99644816e-01 9.99687433e-01 9.96170998e-01 1.66570302e-04 1.66541271e-04 1.66545768e-04 1.66559461e-04 1.66552869e-04 1.66545302e-04 1.04887353e-03 1.67264618e-04 1.67710095e-04 1.67350139e-04 1.67079037e-04 1.20016339e-03 1.83128770e-02 2.41751727e-02 2.00575050e-02 2.10092645e-02 2.83009522e-02 4.51770611e-02 7.96662122e-02 1.47362456e-01 2.74177164e-01 4.85176265e-01 7.40257204e-01 9.14129734e-01 9.78296995e-01 9.94644940e-01 9.98517454e-01 9.99513030e-01 9.99750376e-01 9.99546945e-01 7.50693865e-03 1.66562299e-04 1.66537851e-04 1.66541169e-04 1.66541227e-04 1.66540354e-04 1.71279025e-04 2.45093415e-03 1.68016180e-04 1.68992003e-04 1.67521852e-04 1.73278866e-04 1.04400683e-02 3.62816267e-02 1.80733297e-02 1.18095316e-02 1.23400362e-02 1.79793797e-02 3.29776593e-02 7.07719326e-02 1.63063124e-01 3.55066776e-01 6.28588319e-01 8.50276351e-01 9.53846991e-01 9.87351120e-01 9.96505558e-01 9.98945951e-01 9.99618232e-01 9.99770045e-01 9.99365330e-01 1.51098752e-03 1.66551312e-04 1.66535043e-04 1.66536280e-04 1.66534184e-04 1.66533311e-04 1.07651064e-03 1.10491086e-02 1.69020903e-04 1.71096865e-04 1.68643746e-04 5.22012473e-04 6.00945354e-02 3.13819461e-02 9.45613347e-03 6.13521412e-03 6.75046956e-03 1.03719281e-02 2.05696970e-02 5.02658039e-02 1.38287604e-01 3.53209972e-01 6.59919024e-01 8.73435795e-01 9.60801244e-01 9.88715529e-01 9.96734798e-01 9.98940587e-01 9.99558568e-01 9.99680519e-01 9.99122620e-01 1.03151336e-01 1.66654703e-04 1.66575890e-04 1.72649248e-04 1.02701061e-03 5.68648279e-02 2.22360760e-01 8.20525438e-02 1.69606355e-04 1.72090906e-04 1.69440696e-04 5.57405083e-03 9.59052742e-02 1.35851502e-02 4.18906379e-03 3.14200763e-03 3.68131534e-03 5.69055183e-03 1.12319794e-02 2.83434615e-02 8.71740356e-02 2.70161122e-01 6.01344168e-01 8.53830218e-01 9.54338968e-01 9.86122668e-01 9.95644629e-01 9.98448968e-01 9.99276400e-01 9.99463320e-01 9.99033988e-01 9.88549948e-01 4.67097372e-01 5.88154972e-01 9.84550953e-01 9.96912777e-01 9.98264194e-01 9.79353189e-01 3.90087008e-01 1.70365733e-04 1.71565858e-04 1.69418417e-04 1.15882672e-01 4.12952825e-02 4.16964991e-03 1.92131579e-03 1.74584275e-03 2.11692322e-03 3.09685641e-03 5.55281760e-03 1.28494203e-02 3.95179056e-02 1.47039309e-01 4.56324637e-01 7.96639562e-01 9.38890398e-01 9.80368257e-01 9.92913783e-01 9.97072875e-01 9.98528242e-01 9.98989820e-01 9.98940766e-01 9.98314857e-01 9.97336626e-01 9.97439206e-01 9.98055995e-01 9.98360574e-01 9.98715878e-01 9.90894794e-01 2.48552456e-01 1.77861337e-04 1.71096064e-04 1.68745333e-04 4.20890421e-01 7.99360219e-03 1.60358078e-03 1.13276113e-03 1.16746710e-03 1.36349956e-03 1.75303407e-03 2.61116540e-03 4.87666903e-03 1.25582553e-02 4.75844555e-02 2.24896088e-01 6.63630307e-01 9.18207049e-01 9.77854550e-01 9.91882503e-01 9.96210992e-01 9.97881830e-01 9.98582840e-01 9.98810172e-01 9.98720884e-01 9.98277724e-01 9.97328758e-01 9.95947301e-01 9.94768441e-01 9.95414257e-01 9.79828596e-01 9.57404673e-01 1.86008998e-04 1.81564261e-04 2.50023702e-04 4.38687146e-01 3.57606518e-03 1.29102299e-03 1.06295734e-03 1.01465359e-03 9.91779612e-04 1.02807465e-03 1.20751804e-03 1.73549866e-03 3.41894920e-03 1.10778306e-02 7.05567077e-02 5.05866110e-01 9.34301257e-01 9.90188360e-01 9.97130811e-01 9.98634398e-01 9.99088645e-01 9.99202073e-01 9.99105871e-01 9.98716891e-01 9.97579575e-01 9.93701637e-01 9.78723645e-01 9.34753835e-01 9.18156147e-01 9.10632730e-01 2.40964442e-01 1.76095360e-04 1.81659474e-04 9.95702922e-01 9.67548490e-01 1.15471132e-01 4.15522493e-02 2.36904118e-02 1.60782915e-02 1.18362010e-02 9.78281908e-03 9.67650022e-03 1.21459048e-02 2.04269290e-02 4.81003560e-02 1.53006390e-01 4.72718209e-01 8.33979487e-01 9.59795892e-01 9.87483084e-01 9.94266510e-01 9.96169150e-01 9.96312082e-01 9.94879246e-01 9.89954650e-01 9.74391878e-01 9.26086485e-01 7.95542717e-01 5.78710675e-01 4.23083335e-01 5.64738035e-01 
