# vtk DataFile Version 2.0
results_case1_non_linear/iter0.vtk, Created by Freefem++ 
ASCII
DATASET UNSTRUCTURED_GRID
POINTS 961 float
0 0 0
0.033333333 0 0
0.066666667 0 0
0.1 0 0
0.13333333 0 0
0.16666667 0 0
0.2 0 0
0.23333333 0 0
0.26666667 0 0
0.3 0 0
0.33333333 0 0
0.36666667 0 0
0.4 0 0
0.43333333 0 0
0.46666667 0 0
0.5 0 0
0.53333333 0 0
0.56666667 0 0
0.6 0 0
0.63333333 0 0
0.66666667 0 0
0.7 0 0
0.73333333 0 0
0.76666667 0 0
0.8 0 0
0.83333333 0 0
0.86666667 0 0
0.9 0 0
0.93333333 0 0
0.96666667 0 0
1 0 0
0 0.033333333 0
0.033333333 0.033333333 0
0.066666667 0.033333333 0
0.1 0.033333333 0
0.13333333 0.033333333 0
0.16666667 0.033333333 0
0.2 0.033333333 0
0.23333333 0.033333333 0
0.26666667 0.033333333 0
0.3 0.033333333 0
0.33333333 0.033333333 0
0.36666667 0.033333333 0
0.4 0.033333333 0
0.43333333 0.033333333 0
0.46666667 0.033333333 0
0.5 0.033333333 0
0.53333333 0.033333333 0
0.56666667 0.033333333 0
0.6 0.033333333 0
0.63333333 0.033333333 0
0.66666667 0.033333333 0
0.7 0.033333333 0
0.73333333 0.033333333 0
0.76666667 0.033333333 0
0.8 0.033333333 0
0.83333333 0.033333333 0
0.86666667 0.033333333 0
0.9 0.033333333 0
0.93333333 0.033333333 0
0.96666667 0.033333333 0
1 0.033333333 0
0 0.066666667 0
0.033333333 0.066666667 0
0.066666667 0.066666667 0
0.1 0.066666667 0
0.13333333 0.066666667 0
0.16666667 0.066666667 0
0.2 0.066666667 0
0.23333333 0.066666667 0
0.26666667 0.066666667 0
0.3 0.066666667 0
0.33333333 0.066666667 0
0.36666667 0.066666667 0
0.4 0.066666667 0
0.43333333 0.066666667 0
0.46666667 0.066666667 0
0.5 0.066666667 0
0.53333333 0.066666667 0
0.56666667 0.066666667 0
0.6 0.066666667 0
0.63333333 0.066666667 0
0.66666667 0.066666667 0
0.7 0.066666667 0
0.73333333 0.066666667 0
0.76666667 0.066666667 0
0.8 0.066666667 0
0.83333333 0.066666667 0
0.86666667 0.066666667 0
0.9 0.066666667 0
0.93333333 0.066666667 0
0.96666667 0.066666667 0
1 0.066666667 0
0 0.1 0
0.033333333 0.1 0
0.066666667 0.1 0
0.1 0.1 0
0.13333333 0.1 0
0.16666667 0.1 0
0.2 0.1 0
0.23333333 0.1 0
0.26666667 0.1 0
0.3 0.1 0
0.33333333 0.1 0
0.36666667 0.1 0
0.4 0.1 0
0.43333333 0.1 0
0.46666667 0.1 0
0.5 0.1 0
0.53333333 0.1 0
0.56666667 0.1 0
0.6 0.1 0
0.63333333 0.1 0
0.66666667 0.1 0
0.7 0.1 0
0.73333333 0.1 0
0.76666667 0.1 0
0.8 0.1 0
0.83333333 0.1 0
0.86666667 0.1 0
0.9 0.1 0
0.93333333 0.1 0
0.96666667 0.1 0
1 0.1 0
0 0.13333333 0
0.033333333 0.13333333 0
0.066666667 0.13333333 0
0.1 0.13333333 0
0.13333333 0.13333333 0
0.16666667 0.13333333 0
0.2 0.13333333 0
0.23333333 0.13333333 0
0.26666667 0.13333333 0
0.3 0.13333333 0
0.33333333 0.13333333 0
0.36666667 0.13333333 0
0.4 0.13333333 0
0.43333333 0.13333333 0
0.46666667 0.13333333 0
0.5 0.13333333 0
0.53333333 0.13333333 0
0.56666667 0.13333333 0
0.6 0.13333333 0
0.63333333 0.13333333 0
0.66666667 0.13333333 0
0.7 0.13333333 0
0.73333333 0.13333333 0
0.76666667 0.13333333 0
0.8 0.13333333 0
0.83333333 0.13333333 0
0.86666667 0.13333333 0
0.9 0.13333333 0
0.93333333 0.13333333 0
0.96666667 0.13333333 0
1 0.13333333 0
0 0.16666667 0
0.033333333 0.16666667 0
0.066666667 0.16666667 0
0.1 0.16666667 0
0.13333333 0.16666667 0
0.16666667 0.16666667 0
0.2 0.16666667 0
0.23333333 0.16666667 0
0.26666667 0.16666667 0
0.3 0.16666667 0
0.33333333 0.16666667 0
0.36666667 0.16666667 0
0.4 0.16666667 0
0.43333333 0.16666667 0
0.46666667 0.16666667 0
0.5 0.16666667 0
0.53333333 0.16666667 0
0.56666667 0.16666667 0
0.6 0.16666667 0
0.63333333 0.16666667 0
0.66666667 0.16666667 0
0.7 0.16666667 0
0.73333333 0.16666667 0
0.76666667 0.16666667 0
0.8 0.16666667 0
0.83333333 0.16666667 0
0.86666667 0.16666667 0
0.9 0.16666667 0
0.93333333 0.16666667 0
0.96666667 0.16666667 0
1 0.16666667 0
0 0.2 0
0.033333333 0.2 0
0.066666667 0.2 0
0.1 0.2 0
0.13333333 0.2 0
0.16666667 0.2 0
0.2 0.2 0
0.23333333 0.2 0
0.26666667 0.2 0
0.3 0.2 0
0.33333333 0.2 0
0.36666667 0.2 0
0.4 0.2 0
0.43333333 0.2 0
0.46666667 0.2 0
0.5 0.2 0
0.53333333 0.2 0
0.56666667 0.2 0
0.6 0.2 0
0.63333333 0.2 0
0.66666667 0.2 0
0.7 0.2 0
0.73333333 0.2 0
0.76666667 0.2 0
0.8 0.2 0
0.83333333 0.2 0
0.86666667 0.2 0
0.9 0.2 0
0.93333333 0.2 0
0.96666667 0.2 0
1 0.2 0
0 0.23333333 0
0.033333333 0.23333333 0
0.066666667 0.23333333 0
0.1 0.23333333 0
0.13333333 0.23333333 0
0.16666667 0.23333333 0
0.2 0.23333333 0
0.23333333 0.23333333 0
0.26666667 0.23333333 0
0.3 0.23333333 0
0.33333333 0.23333333 0
0.36666667 0.23333333 0
0.4 0.23333333 0
0.43333333 0.23333333 0
0.46666667 0.23333333 0
0.5 0.23333333 0
0.53333333 0.23333333 0
0.56666667 0.23333333 0
0.6 0.23333333 0
0.63333333 0.23333333 0
0.66666667 0.23333333 0
0.7 0.23333333 0
0.73333333 0.23333333 0
0.76666667 0.23333333 0
0.8 0.23333333 0
0.83333333 0.23333333 0
0.86666667 0.23333333 0
0.9 0.23333333 0
0.93333333 0.23333333 0
0.96666667 0.23333333 0
1 0.23333333 0
0 0.26666667 0
0.033333333 0.26666667 0
0.066666667 0.26666667 0
0.1 0.26666667 0
0.13333333 0.26666667 0
0.16666667 0.26666667 0
0.2 0.26666667 0
0.23333333 0.26666667 0
0.26666667 0.26666667 0
0.3 0.26666667 0
0.33333333 0.26666667 0
0.36666667 0.26666667 0
0.4 0.26666667 0
0.43333333 0.26666667 0
0.46666667 0.26666667 0
0.5 0.26666667 0
0.53333333 0.26666667 0
0.56666667 0.26666667 0
0.6 0.26666667 0
0.63333333 0.26666667 0
0.66666667 0.26666667 0
0.7 0.26666667 0
0.73333333 0.26666667 0
0.76666667 0.26666667 0
0.8 0.26666667 0
0.83333333 0.26666667 0
0.86666667 0.26666667 0
0.9 0.26666667 0
0.93333333 0.26666667 0
0.96666667 0.26666667 0
1 0.26666667 0
0 0.3 0
0.033333333 0.3 0
0.066666667 0.3 0
0.1 0.3 0
0.13333333 0.3 0
0.16666667 0.3 0
0.2 0.3 0
0.23333333 0.3 0
0.26666667 0.3 0
0.3 0.3 0
0.33333333 0.3 0
0.36666667 0.3 0
0.4 0.3 0
0.43333333 0.3 0
0.46666667 0.3 0
0.5 0.3 0
0.53333333 0.3 0
0.56666667 0.3 0
0.6 0.3 0
0.63333333 0.3 0
0.66666667 0.3 0
0.7 0.3 0
0.73333333 0.3 0
0.76666667 0.3 0
0.8 0.3 0
0.83333333 0.3 0
0.86666667 0.3 0
0.9 0.3 0
0.93333333 0.3 0
0.96666667 0.3 0
1 0.3 0
0 0.33333333 0
0.033333333 0.33333333 0
0.066666667 0.33333333 0
0.1 0.33333333 0
0.13333333 0.33333333 0
0.16666667 0.33333333 0
0.2 0.33333333 0
0.23333333 0.33333333 0
0.26666667 0.33333333 0
0.3 0.33333333 0
0.33333333 0.33333333 0
0.36666667 0.33333333 0
0.4 0.33333333 0
0.43333333 0.33333333 0
0.46666667 0.33333333 0
0.5 0.33333333 0
0.53333333 0.33333333 0
0.56666667 0.33333333 0
0.6 0.33333333 0
0.63333333 0.33333333 0
0.66666667 0.33333333 0
0.7 0.33333333 0
0.73333333 0.33333333 0
0.76666667 0.33333333 0
0.8 0.33333333 0
0.83333333 0.33333333 0
0.86666667 0.33333333 0
0.9 0.33333333 0
0.93333333 0.33333333 0
0.96666667 0.33333333 0
1 0.33333333 0
0 0.36666667 0
0.033333333 0.36666667 0
0.066666667 0.36666667 0
0.1 0.36666667 0
0.13333333 0.36666667 0
0.16666667 0.36666667 0
0.2 0.36666667 0
0.23333333 0.36666667 0
0.26666667 0.36666667 0
0.3 0.36666667 0
0.33333333 0.36666667 0
0.36666667 0.36666667 0
0.4 0.36666667 0
0.43333333 0.36666667 0
0.46666667 0.36666667 0
0.5 0.36666667 0
0.53333333 0.36666667 0
0.56666667 0.36666667 0
0.6 0.36666667 0
0.63333333 0.36666667 0
0.66666667 0.36666667 0
0.7 0.36666667 0
0.73333333 0.36666667 0
0.76666667 0.36666667 0
0.8 0.36666667 0
0.83333333 0.36666667 0
0.86666667 0.36666667 0
0.9 0.36666667 0
0.93333333 0.36666667 0
0.96666667 0.36666667 0
1 0.36666667 0
0 0.4 0
0.033333333 0.4 0
0.066666667 0.4 0
0.1 0.4 0
0.13333333 0.4 0
0.16666667 0.4 0
0.2 0.4 0
0.23333333 0.4 0
0.26666667 0.4 0
0.3 0.4 0
0.33333333 0.4 0
0.36666667 0.4 0
0.4 0.4 0
0.43333333 0.4 0
0.46666667 0.4 0
0.5 0.4 0
0.53333333 0.4 0
0.56666667 0.4 0
0.6 0.4 0
0.63333333 0.4 0
0.66666667 0.4 0
0.7 0.4 0
0.73333333 0.4 0
0.76666667 0.4 0
0.8 0.4 0
0.83333333 0.4 0
0.86666667 0.4 0
0.9 0.4 0
0.93333333 0.4 0
0.96666667 0.4 0
1 0.4 0
0 0.43333333 0
0.033333333 0.43333333 0
0.066666667 0.43333333 0
0.1 0.43333333 0
0.13333333 0.43333333 0
0.16666667 0.43333333 0
0.2 0.43333333 0
0.23333333 0.43333333 0
0.26666667 0.43333333 0
0.3 0.43333333 0
0.33333333 0.43333333 0
0.36666667 0.43333333 0
0.4 0.43333333 0
0.43333333 0.43333333 0
0.46666667 0.43333333 0
0.5 0.43333333 0
0.53333333 0.43333333 0
0.56666667 0.43333333 0
0.6 0.43333333 0
0.63333333 0.43333333 0
0.66666667 0.43333333 0
0.7 0.43333333 0
0.73333333 0.43333333 0
0.76666667 0.43333333 0
0.8 0.43333333 0
0.83333333 0.43333333 0
0.86666667 0.43333333 0
0.9 0.43333333 0
0.93333333 0.43333333 0
0.96666667 0.43333333 0
1 0.43333333 0
0 0.46666667 0
0.033333333 0.46666667 0
0.066666667 0.46666667 0
0.1 0.46666667 0
0.13333333 0.46666667 0
0.16666667 0.46666667 0
0.2 0.46666667 0
0.23333333 0.46666667 0
0.26666667 0.46666667 0
0.3 0.46666667 0
0.33333333 0.46666667 0
0.36666667 0.46666667 0
0.4 0.46666667 0
0.43333333 0.46666667 0
0.46666667 0.46666667 0
0.5 0.46666667 0
0.53333333 0.46666667 0
0.56666667 0.46666667 0
0.6 0.46666667 0
0.63333333 0.46666667 0
0.66666667 0.46666667 0
0.7 0.46666667 0
0.73333333 0.46666667 0
0.76666667 0.46666667 0
0.8 0.46666667 0
0.83333333 0.46666667 0
0.86666667 0.46666667 0
0.9 0.46666667 0
0.93333333 0.46666667 0
0.96666667 0.46666667 0
1 0.46666667 0
0 0.5 0
0.033333333 0.5 0
0.066666667 0.5 0
0.1 0.5 0
0.13333333 0.5 0
0.16666667 0.5 0
0.2 0.5 0
0.23333333 0.5 0
0.26666667 0.5 0
0.3 0.5 0
0.33333333 0.5 0
0.36666667 0.5 0
0.4 0.5 0
0.43333333 0.5 0
0.46666667 0.5 0
0.5 0.5 0
0.53333333 0.5 0
0.56666667 0.5 0
0.6 0.5 0
0.63333333 0.5 0
0.66666667 0.5 0
0.7 0.5 0
0.73333333 0.5 0
0.76666667 0.5 0
0.8 0.5 0
0.83333333 0.5 0
0.86666667 0.5 0
0.9 0.5 0
0.93333333 0.5 0
0.96666667 0.5 0
1 0.5 0
0 0.53333333 0
0.033333333 0.53333333 0
0.066666667 0.53333333 0
0.1 0.53333333 0
0.13333333 0.53333333 0
0.16666667 0.53333333 0
0.2 0.53333333 0
0.23333333 0.53333333 0
0.26666667 0.53333333 0
0.3 0.53333333 0
0.33333333 0.53333333 0
0.36666667 0.53333333 0
0.4 0.53333333 0
0.43333333 0.53333333 0
0.46666667 0.53333333 0
0.5 0.53333333 0
0.53333333 0.53333333 0
0.56666667 0.53333333 0
0.6 0.53333333 0
0.63333333 0.53333333 0
0.66666667 0.53333333 0
0.7 0.53333333 0
0.73333333 0.53333333 0
0.76666667 0.53333333 0
[...]
CELL_DATA 1920
Scalars  Label int 1
LOOKUP_TABLE FreeFempp_table
0
0
0
0
0
0
0
0
0
0
0
0
0
0
0
0
0
0
0
0
0
0
0
0
0
0
0
0
0
0
0
0
0
0
0
0
0
0
0
0
0
0
0
0
0
0
0
0
0
0
0
0
0
0
0
0
0
0
0
0
0
0
0
0
0
0
0
0
0
0
0
0
0
0
0
0
0
0
0
0
0
0
0
0
0
0
0
0
0
0
0
0
0
0
0
0
0
0
0
0
0
0
0
0
0
0
0
0
0
0
0
0
0
0
0
0
0
0
0
0
0
0
0
0
0
0
0
0
0
0
0
0
0
0
0
0
0
0
0
0
0
0
0
0
0
0
0
0
0
0
0
0
0
0
0
0
0
0
0
0
0
0
0
0
0
0
0
0
0
0
0
0
0
0
0
0
0
0
0
0
0
0
0
0
0
0
0
0
0
0
0
0
0
0
0
0
0
0
0
0
0
0
0
0
0
0
0
0
0
0
0
0
0
0
0
0
0
0
0
0
0
0
0
0
0
0
0
0
0
0
0
0
0
0
0
0
0
0
0
0
0
0
0
0
0
0
0
0
0
0
0
0
0
0
0
0
0
0
0
0
0
0
0
0
0
0
0
0
0
0
0
0
0
0
0
0
0
0
0
0
0
0
0
0
0
0
0
0
0
0
0
0
0
0
0
0
0
0
0
0
0
0
0
0
0
0
0
0
0
0
0
0
0
0
0
0
0
0
0
0
0
0
0
0
0
0
0
0
0
0
0
0
0
0
0
0
0
0
0
0
0
0
0
0
0
0
0
0
0
0
0
0
0
0
0
0
0
0
0
0
0
0
0
0
0
0
0
0
0
0
0
0
0
0
0
0
0
0
0
0
0
0
0
0
0
0
0
0
0
0
0
0
0
0
0
0
0
0
0
0
0
0
0
0
0
0
0
0
0
0
0
0
0
0
0
0
0
0
0
0
0
0
0
0
0
0
0
0
0
0
0
0
0
0
0
0
0
0
0
0
0
0
0
0
0
0
0
0
0
0
0
0
0
0
0
0
0
0
0
0
0
0
0
0
0
0
0
0
0
0
0
0
0
0
0
0
0
0
0
0
0
0
0
0
0
0
0
0
0
0
0
0
0
0
0
0
0
0
0
0
0
0
0
0
0
0
0
0
0
0
0
0
0
0
0
0
0
0
0
0
0
0
0
0
0
0
0
0
0
0
0
0
0
0
0
0
0
0
0
0
0
0
0
0
0
0
0
0
0
0
0
0
0
0
0
0
0
0
0
0
0
0
0
0
0
0
0
0
0
0
0
0
0
0
0
0
0
0
0
0
0
0
0
0
0
0
0
0
0
0
0
0
0
0
0
0
0
0
0
0
0
0
0
0
0
0
0
0
0
0
0
0
0
0
0
0
0
0
0
0
0
0
0
0
0
0
0
0
0
0
0
0
0
0
0
0
0
0
0
0
0
0
0
0
0
0
0
0
0
0
0
0
0
0
0
0
0
0
0
0
0
0
0
0
0
0
0
0
0
0
0
0
0
0
0
0
0
0
0
0
0
0
0
0
0
0
0
0
0
0
0
0
0
0
0
0
0
0
0
0
0
0
0
0
0
0
0
0
0
0
0
0
0
0
0
0
0
0
0
0
0
0
0
0
0
0
0
0
0
0
0
0
0
0
0
0
0
0
0
0
0
0
0
0
0
0
0
0
0
0
0
0
0
0
0
0
0
0
0
0
0
0
0
0
0
0
0
0
0
0
0
0
0
0
0
0
0
0
0
0
0
0
0
0
0
0
0
0
0
0
0
0
0
0
0
0
0
0
0
0
0
0
0
0
0
0
0
0
0
0
0
0
0
0
0
0
0
0
0
0
0
0
0
0
0
0
0
0
0
0
0
0
0
0
0
0
0
0
0
0
0
0
0
0
0
0
0
0
0
0
0
0
0
0
0
0
0
0
0
0
0
0
0
0
0
0
0
0
0
0
0
0
0
0
0
0
0
0
0
0
0
0
0
0
0
0
0
0
0
0
0
0
0
0
0
0
0
0
0
0
0
0
0
0
0
0
0
0
0
0
0
0
0
0
0
0
0
0
0
0
0
0
0
0
0
0
0
0
0
0
0
0
0
0
0
0
0
0
0
0
0
0
0
0
0
0
0
0
0
0
0
0
0
0
0
0
0
0
0
0
0
0
0
0
0
0
0
0
0
0
0
0
0
0
0
0
0
0
0
0
0
0
0
0
0
0
0
0
0
0
0
0
0
0
0
0
0
0
0
0
0
0
0
0
0
0
0
0
0
0
0
0
0
0
0
0
0
0
0
0
0
0
0
0
0
0
0
0
0
0
0
0
0
0
0
0
0
0
0
0
0
0
0
0
0
0
0
0
0
0
0
0
0
0
0
0
0
0
0
0
0
0
0
0
0
0
0
0
0
0
0
0
0
0
0
0
0
0
0
0
0
0
0
0
0
0
0
0
0
0
0
0
0
0
0
0
0
0
0
0
0
0
0
0
0
0
0
0
0
0
0
0
0
0
0
0
0
0
0
0
0
0
0
0
0
0
0
0
0
0
0
0
0
0
0
0
0
0
0
0
0
0
0
0
0
0
0
0
0
0
0
0
0
0
0
0
0
0
0
0
0
0
0
0
0
0
0
0
0
0
0
0
0
0
0
0
0
0
0
0
0
0
0
0
0
0
0
0
0
0
0
0
0
0
0
0
0
0
0
0
0
0
0
0
0
0
0
0
0
0
0
0
0
0
0
0
0
0
0
0
0
0
0
0
0
0
0
0
0
0
0
0
0
0
0
0
0
0
0
0
0
0
0
0
0
0
0
0
0
0
0
0
0
0
0
0
0
0
0
0
0
0
0
0
0
0
0
0
0
0
0
0
0
0
0
0
0
0
0
0
0
0
0
0
0
0
0
0
0
0
0
0
0
0
0
0
0
0
0
0
0
0
0
0
0
0
0
0
0
0
0
0
0
0
0
0
0
0
0
0
0
0
0
0
0
0
0
0
0
0
0
0
0
0
0
0
0
0
0
0
0
0
0
0
0
0
0
0
0
0
0
0
0
0
0
0
0
0
0
0
0
0
0
0
0
0
0
0
0
0
0
0
0
0
0
0
0
0
0
0
0
0
0
0
0
0
0
0
0
0
0
0
0
0
0
0
0
0
0
0
0
0
0
0
0
0
0
0
0
0
0
0
0
0
0
0
0
0
0
0
0
0
0
0
0
0
0
0
0
0
0
0
0
0
0
0
0
0
0
0
0
0
0
0
0
0
0
0
0
0
0
0
0
0
0
0
0
0
0
0
0
0
0
0
0
0
0
0
0
0
0
0
0
0
0
0
0
0
0
0
0
0
0
0
0
0
0
0
0
0
0
0
0
0
0
0
0
0
0
0
0
0
0
0
0
0
0
0
0
0
0
0
0
0
0
0
0
0
0
0
0
0
0
0
0
0
0
0
0
0
0
0
0
0
0
0
0
0
0
0
0
0
0
0
0
0
0
0
0
0
0
0
0
0
0
0
0
0
0
0
0
0
0
0
0
0
0
0
0
0
0
0
0
0
0
0
0
0
0
0
0
0
0
0
0
0
0
0
0
0
0
0
0
0
0
0
0
0
0
0
0
0
0
0
0
0
0
0
0
0
0
0
0
0
0
0
0
0
0
0
0
0
0
0
0
0
0
0
0
0
0
0
0
0
0
0
0
0
0
0
0
0
0
0
0
0
0
0
0
0
0
0
0
0
0
0
0
0
0
0
0
0
0
0
0
0
0
0
0
0
0
0
0
0
0
0
0
0
0
0
0
0
0
0
0
0
0
0
0
0
0
0
0
0
0
0
0
0
0
0
0
0
0
0
0
0
0
0
0
0
0
0
0
0
0
0
0
0
0
0
0
0
0
0
0
0
0
0
0
0
0
0
0
0
0
0
0
0
0
0
0
0
0
0
0
0
0
0
0
0
0
0
0
0
0
0
0
0
0
0
0
0
0
0
0
0
0
0
0
0
0
0
0
0
0
0
0
0
0
0
0
0
0
0
0
0
0
0
0
0
0
0
0
0
0
0
0
0
0
0
1
1
1
1
1
1
1
1
1
1
1
1
1
1
1
1
1
1
1
1
1
1
1
1
1
1
1
1
1
1
2
2
2
2
2
2
2
2
2
2
2
2
2
2
2
2
2
2
2
2
2
2
2
2
2
2
2
2
2
2
3
3
3
3
3
3
3
3
3
3
3
3
3
3
3
3
3
3
3
3
3
3
3
3
3
3
3
3
3
3
4
4
4
4
4
4
4
4
4
4
4
4
4
4
4
4
4
4
4
4
4
4
4
4
4
4
4
4
4
4

LOOKUP_TABLE FreeFempp_table 5
1.00000000 0.00000000 0.00000000 1.00000000
1.00000000 1.00000000 0.00000000 1.00000000
1.00000000 0.00000000 1.00000000 1.00000000
0.00000000 1.00000000 0.00000000 1.00000000
0.00000000 1.00000000 1.00000000 1.00000000

POINT_DATA 961
FIELD FieldData 1
Density 1 961 float
1.94047596e-02 1.68055296e-02 1.74196493e-02 1.80581585e-02 1.86929498e-02 1.92886498e-02 1.98780671e-02 2.05798168e-02 2.13295389e-02 2.30091624e-02 2.88619734e-02 2.38593340e-01 4.65113163e-01 5.82888842e-01 6.02470458e-01 5.64812064e-01 4.91441786e-01 3.90995145e-01 2.65812129e-01 1.70217022e-01 1.40257686e-01 1.69975623e-01 2.37734705e-01 3.18820715e-01 3.89616668e-01 4.26812500e-01 4.08017784e-01 3.04217935e-01 3.09547838e-02 3.25883962e-02 2.61868596e-01 2.80741379e-02 1.44106997e-02 1.68693531e-02 1.75241362e-02 1.83183122e-02 1.90523397e-02 1.96653642e-02 2.01712232e-02 2.05411036e-02 2.01614220e-02 1.56268477e-02 1.68511253e-02 2.56524496e-02 2.89212286e-01 6.17326140e-01 6.47809386e-01 5.75394452e-01 4.22180891e-01 1.71047553e-01 7.63581991e-02 6.66966066e-02 7.30826333e-02 1.18630864e-01 2.41492853e-01 3.97487491e-01 4.87167656e-01 4.68880832e-01 3.52583140e-01 4.06382941e-02 1.69172790e-02 5.52932248e-02 1.15555048e-01 1.09026685e-01 1.92707106e-01 2.72601426e-01 2.99685210e-01 3.11010808e-01 3.17494065e-01 3.21312517e-01 3.18315655e-01 2.76992351e-01 1.21406913e-01 2.69389469e-02 1.90745834e-02 2.06082109e-02 3.17515172e-02 3.21677178e-02 3.48807499e-02 4.60272506e-02 5.80057763e-02 9.02512595e-02 1.69942319e-01 2.50243872e-01 3.19686472e-01 3.97859812e-01 4.76864398e-01 5.11836529e-01 4.90923584e-01 4.39866126e-01 3.21952701e-01 1.95027348e-02 2.67449487e-02 1.28651932e-01 1.11867823e-01 2.62796015e-01 3.37570280e-01 3.59084725e-01 3.70587707e-01 3.79488409e-01 3.86213809e-01 3.89082253e-01 3.83774340e-01 3.60157281e-01 2.99172401e-01 1.57774076e-01 2.70224195e-02 2.76344102e-02 2.69450620e-02 2.83348579e-02 2.54523158e-02 4.00824696e-02 8.29231367e-02 3.06116551e-01 4.73333806e-01 5.23186028e-01 5.42878866e-01 5.50613582e-01 5.37354112e-01 4.97817516e-01 4.44877893e-01 3.95066023e-01 2.37232056e-02 2.31403261e-02 1.65083855e-01 1.29769534e-01 2.90599436e-01 3.58958423e-01 3.79158080e-01 3.89755607e-01 3.96558374e-01 4.00652587e-01 4.01485711e-01 3.97568882e-01 3.86694908e-01 3.66395473e-01 3.32296669e-01 2.77805239e-01 2.12793633e-01 1.42418370e-01 8.08009729e-02 6.34365305e-02 1.23931319e-01 2.16437742e-01 4.01131123e-01 5.01377642e-01 5.32769680e-01 5.37502944e-01 5.31492352e-01 5.16420901e-01 4.89724606e-01 4.50857311e-01 4.09884691e-01 2.61681639e-02 2.42572837e-02 2.33538076e-01 1.62487283e-01 3.30671877e-01 3.84114385e-01 4.02013451e-01 4.11007792e-01 4.15726840e-01 4.17991608e-01 4.18166280e-01 4.15809155e-01 4.10164684e-01 4.00656670e-01 3.86787474e-01 3.67812723e-01 3.43623847e-01 3.12355667e-01 2.83105940e-01 2.63456017e-01 2.70588040e-01 3.38453978e-01 4.30349410e-01 4.91599292e-01 5.18401206e-01 5.25181293e-01 5.21720886e-01 5.11015296e-01 4.91574377e-01 4.59504008e-01 4.10483450e-01 2.87200827e-02 2.62665115e-02 3.16273510e-01 2.18447834e-01 4.01718050e-01 4.22879457e-01 4.34056908e-01 4.38607574e-01 4.40099120e-01 4.40155745e-01 4.39276606e-01 4.37268257e-01 4.33701426e-01 4.28306997e-01 4.21072155e-01 4.12049949e-01 4.01137382e-01 3.87617618e-01 3.73912126e-01 3.63744378e-01 3.66781265e-01 3.98329198e-01 4.44761217e-01 4.82283086e-01 5.03873646e-01 5.12535274e-01 5.12505829e-01 5.06117046e-01 4.92982358e-01 4.67107564e-01 4.07226354e-01 3.10363695e-02 2.83342749e-02 3.93551201e-01 3.02080065e-01 4.90523994e-01 4.71318901e-01 4.72778887e-01 4.70275849e-01 4.67123777e-01 4.63951707e-01 4.60856855e-01 4.57532912e-01 4.53581303e-01 4.48767066e-01 4.43081051e-01 4.36613113e-01 4.29382861e-01 4.21388716e-01 4.13867235e-01 4.09434438e-01 4.13510978e-01 4.31511194e-01 4.57305193e-01 4.80266273e-01 4.95626837e-01 5.03270268e-01 5.04658043e-01 5.01317739e-01 4.93379235e-01 4.73249316e-01 4.05329525e-01 3.33504975e-02 3.03890593e-02 4.52654481e-01 3.97535622e-01 5.66081285e-01 5.17217636e-01 5.09277344e-01 4.99607772e-01 4.91700202e-01 4.85040486e-01 4.79270518e-01 4.73958999e-01 4.68741477e-01 4.63430226e-01 4.58005279e-01 4.52530295e-01 4.47118312e-01 4.42101032e-01 4.38490391e-01 4.38015223e-01 4.43102896e-01 4.54880923e-01 4.69806731e-01 4.83129084e-01 4.92498547e-01 4.97472405e-01 4.98510242e-01 4.96555895e-01 4.91869956e-01 4.76406962e-01 4.05898452e-01 3.58504280e-02 3.25022563e-02 4.76206362e-01 4.61876214e-01 6.00292981e-01 5.45095265e-01 5.32205880e-01 5.18998563e-01 5.08529007e-01 4.99783903e-01 4.92301613e-01 4.85711724e-01 4.79771227e-01 4.74376172e-01 4.69504535e-01 4.65175360e-01 4.61523861e-01 4.58988249e-01 4.58364964e-01 4.60459530e-01 4.65670079e-01 4.73328948e-01 4.81346488e-01 4.87858981e-01 4.92158473e-01 4.94163185e-01 4.94028270e-01 4.92141068e-01 4.88446593e-01 4.75597680e-01 4.07644719e-01 3.85431796e-02 3.47601175e-02 4.41731721e-01 4.45309579e-01 5.72825670e-01 5.40437281e-01 5.32566786e-01 5.22888184e-01 5.14139235e-01 5.06193519e-01 4.99129087e-01 4.92939711e-01 4.87622738e-01 4.83187914e-01 4.79610413e-01 4.76860434e-01 4.75065976e-01 4.74665225e-01 4.76191550e-01 4.79655951e-01 4.84239846e-01 4.88623917e-01 4.91663843e-01 4.93061185e-01 4.93149817e-01 4.92296129e-01 4.90647882e-01 4.88081753e-01 4.83786523e-01 4.70981151e-01 4.06266659e-01 4.11999524e-02 3.72081064e-02 3.43121469e-01 3.39507341e-01 4.76468027e-01 4.96989280e-01 5.08521676e-01 5.10352194e-01 5.08026242e-01 5.04041791e-01 4.99753207e-01 4.95833397e-01 4.92629170e-01 4.90270346e-01 4.88705069e-01 4.87862140e-01 4.87866372e-01 4.89175737e-01 4.92145717e-01 4.96194720e-01 4.99848276e-01 5.01677871e-01 5.01153588e-01 4.98746544e-01 4.95306462e-01 4.91542608e-01 4.87834930e-01 4.83924240e-01 4.78201896e-01 4.62857693e-01 3.92929286e-01 4.35560755e-02 3.99886146e-02 2.23910436e-01 2.24544942e-01 3.47807467e-01 4.31086928e-01 4.69725549e-01 4.86680001e-01 4.93153572e-01 4.94928598e-01 4.94887292e-01 4.94481295e-01 4.94425774e-01 4.94930029e-01 4.95853812e-01 4.97042954e-01 4.98716325e-01 5.01226127e-01 5.05149662e-01 5.09564102e-01 5.12596846e-01 5.12947261e-01 5.10438442e-01 5.05735040e-01 4.99679029e-01 4.92997080e-01 4.86286342e-01 4.79570180e-01 4.70789701e-01 4.49357659e-01 3.59769523e-01 4.73271124e-02 4.38094176e-02 1.49768472e-01 1.62884101e-01 2.62344867e-01 3.79476219e-01 4.34410244e-01 4.61619824e-01 4.75136876e-01 4.82142061e-01 4.86284643e-01 4.89507765e-01 4.92779702e-01 4.96305615e-01 4.99763519e-01 5.02865851e-01 5.06048560e-01 5.09581983e-01 5.14008284e-01 5.18986523e-01 5.22235692e-01 5.22540331e-01 5.19913554e-01 5.14867723e-01 5.07854342e-01 4.99161482e-01 4.89048004e-01 4.77335364e-01 4.61389691e-01 4.28087354e-01 3.13390374e-01 5.66658042e-02 5.00375107e-02 1.04325190e-01 1.22000702e-01 2.42447942e-01 3.62321258e-01 4.14986938e-01 4.43211108e-01 4.59429264e-01 4.69425648e-01 4.76435721e-01 4.82406199e-01 4.88375187e-01 4.94497597e-01 5.00179172e-01 5.04926920e-01 5.09695530e-01 5.13149023e-01 5.19104064e-01 5.24288118e-01 5.28576910e-01 5.30183256e-01 5.29220998e-01 5.25972366e-01 5.20428836e-01 5.12231529e-01 5.00679076e-01 4.84102726e-01 4.57800865e-01 4.08485770e-01 2.79345334e-01 7.60847405e-02 6.22036196e-02 6.97189793e-02 8.45661238e-02 2.67998129e-01 3.69399041e-01 4.09476638e-01 4.33094323e-01 4.48500454e-01 4.59165692e-01 4.67412442e-01 4.74875033e-01 4.82510060e-01 4.90436316e-01 4.97908324e-01 5.04109085e-01 5.08677065e-01 5.12690663e-01 5.19320846e-01 5.25883615e-01 5.31253278e-01 5.34961045e-01 5.36839426e-01 5.37076116e-01 5.35435259e-01 5.31207860e-01 5.22944391e-01 5.07479250e-01 4.77888644e-01 4.21502262e-01 2.94960409e-01 1.05299972e-01 8.89177844e-02 5.35513349e-02 6.49356544e-02 3.10808390e-01 3.80548239e-01 4.09191221e-01 4.28152472e-01 4.41623747e-01 4.51672047e-01 4.60002244e-01 4.67917413e-01 4.76218611e-01 4.84995842e-01 4.93561506e-01 5.00883818e-01 5.07243216e-01 5.11949778e-01 5.18650532e-01 5.24019599e-01 5.29987931e-01 5.35509765e-01 5.40393710e-01 5.44702649e-01 5.48275173e-01 5.50577402e-01 5.50282955e-01 5.44246316e-01 5.26033521e-01 4.85228419e-01 3.97366822e-01 1.63782328e-01 1.52067900e-01 4.76862453e-02 6.04162775e-02 3.39847118e-01 3.88097644e-01 4.09740716e-01 4.25376773e-01 4.36966151e-01 4.46010232e-01 4.53896224e-01 4.61661011e-01 4.69929039e-01 4.78765100e-01 4.87603545e-01 4.95516002e-01 5.02029121e-01 5.07835090e-01 5.13303101e-01 5.18663704e-01 5.24556816e-01 5.30967534e-01 5.37938952e-01 5.45534968e-01 5.53803027e-01 5.62663198e-01 5.71450651e-01 5.78033209e-01 5.78419447e-01 5.66374123e-01 5.61937988e-01 3.25322479e-01 2.92427629e-01 4.43516932e-02 5.53394035e-02 3.48455101e-01 3.94878417e-01 4.11485821e-01 4.23690557e-01 4.33227479e-01 4.41128194e-01 4.48389500e-01 4.55736369e-01 4.63580251e-01 4.71941084e-01 4.80387151e-01 4.88191009e-01 4.94776160e-01 5.00231862e-01 5.05166054e-01 5.09907782e-01 5.15222847e-01 5.21575570e-01 5.29222846e-01 5.38350105e-01 5.49208283e-01 5.62105715e-01 5.76906860e-01 5.92148364e-01 6.05428994e-01 6.12128079e-01 6.81508362e-01 5.21429420e-01 4.70812827e-01 4.11912501e-02 4.90107164e-02 3.49697173e-01 4.03732240e-01 4.15339679e-01 4.22958881e-01 4.29831237e-01 4.36358720e-01 4.42902833e-01 4.49741840e-01 4.57009375e-01 4.64634746e-01 4.72283393e-01 4.79419917e-01 4.85559821e-01 4.90588337e-01 4.94841576e-01 4.98870671e-01 5.03367960e-01 5.08933723e-01 5.15921950e-01 5.24587095e-01 5.35282731e-01 5.48475146e-01 5.64150572e-01 5.80680668e-01 5.95297337e-01 6.03732526e-01 6.94859087e-01 5.29964209e-01 5.55940270e-01 3.78844626e-02 4.35348563e-02 3.53490680e-01 4.14600343e-01 4.20931727e-01 4.22960460e-01 4.26493078e-01 4.31365550e-01 4.37118441e-01 4.43453342e-01 4.50167537e-01 4.57057834e-01 4.63837594e-01 4.70130503e-01 4.75589573e-01 4.80085462e-01 4.83805448e-01 4.87182707e-01 4.90783244e-01 4.95101839e-01 5.00454485e-01 5.07062376e-01 5.15225887e-01 5.25344253e-01 5.37245750e-01 5.48616529e-01 5.54765642e-01 5.51627874e-01 6.07256889e-01 3.70052665e-01 5.04457355e-01 3.47058140e-02 3.86665203e-02 3.62423122e-01 4.26214695e-01 4.26962852e-01 4.22987521e-01 4.22836602e-01 4.25929278e-01 4.30896997e-01 4.36799020e-01 4.43079799e-01 4.49392706e-01 4.55462068e-01 4.61021245e-01 4.65843201e-01 4.69831079e-01 4.73081797e-01 4.75862443e-01 4.78527993e-01 4.81388777e-01 4.84626859e-01 4.88335311e-01 4.92649347e-01 4.97806072e-01 5.03553331e-01 5.07259607e-01 5.02513647e-01 4.83735442e-01 4.71624345e-01 2.43339330e-01 3.78315955e-01 3.18017565e-02 3.44503187e-02 3.76345545e-01 4.36716318e-01 4.31660235e-01 4.21896607e-01 4.18323874e-01 4.19866115e-01 4.24207538e-01 4.29794669e-01 4.35769320e-01 4.41672713e-01 4.47231561e-01 4.52245712e-01 4.56563354e-01 4.60109562e-01 4.62914467e-01 4.65100646e-01 4.66831297e-01 4.68231082e-01 4.69327867e-01 4.70064282e-01 4.70404923e-01 4.70496327e-01 4.70399708e-01 4.68397588e-01 4.58740741e-01 4.33999211e-01 3.81309271e-01 1.90900490e-01 2.58845955e-01 2.90603898e-02 3.10820434e-02 3.93250644e-01 4.43527788e-01 4.32911724e-01 4.18460160e-01 4.12512600e-01 4.13155973e-01 4.17172492e-01 4.22554046e-01 4.28269506e-01 4.33821291e-01 4.38958585e-01 4.43527997e-01 4.47418720e-01 4.50560212e-01 4.52930152e-01 4.54544336e-01 4.55424011e-01 4.55549568e-01 4.54826534e-01 4.53094631e-01 4.50233072e-01 4.46435392e-01 4.42394823e-01 4.38316733e-01 4.31348145e-01 4.14134175e-01 3.58649522e-01 1.60187379e-01 1.99914336e-01 2.59442572e-02 2.83194408e-02 4.09720004e-01 4.44207162e-01 4.28894520e-01 4.12042946e-01 4.05530542e-01 4.06203747e-01 4.10196334e-01 4.15356547e-01 4.20686334e-01 4.25756425e-01 4.30377722e-01 4.34442967e-01 4.37867433e-01 4.40578729e-01 4.42518562e-01 4.43633586e-01 4.43852782e-01 4.43060189e-01 4.41084236e-01 4.37725604e-01 4.32870954e-01 4.26826686e-01 4.20848131e-01 4.16963041e-01 4.15726721e-01 4.10665005e-01 3.65020692e-01 1.32276759e-01 1.69396147e-01 2.11791713e-02 2.48106793e-02 4.24609691e-01 4.38100338e-01 4.19380069e-01 4.03473407e-01 3.98547113e-01 4.00060922e-01 4.04046834e-01 4.08663541e-01 4.13205832e-01 4.17431742e-01 4.21250969e-01 4.24600989e-01 4.27411944e-01 4.29607302e-01 4.31108296e-01 4.31827307e-01 4.31649625e-01 4.30414528e-01 4.27918762e-01 4.23965335e-01 4.18482810e-01 4.11828339e-01 4.05437946e-01 4.02241170e-01 4.05256629e-01 4.10197765e-01 3.76999617e-01 1.04313530e-01 1.40491590e-01 1.75203495e-02 2.07347143e-02 4.46388394e-01 4.28581536e-01 4.07375306e-01 3.95684630e-01 3.93918663e-01 3.96337718e-01 3.99666399e-01 4.02925432e-01 4.05956417e-01 4.08776343e-01 4.11384761e-01 4.13732141e-01 4.15736228e-01 4.17303711e-01 4.18342143e-01 4.18756872e-01 4.18437272e-01 4.17242169e-01 4.15005475e-01 4.11586434e-01 4.06963617e-01 4.01383132e-01 3.95862311e-01 3.93268287e-01 3.98319453e-01 4.11472827e-01 4.07229960e-01 7.88567737e-02 1.12084202e-01 1.72113851e-02 5.35186231e-02 5.07225215e-01 4.31223691e-01 4.01070327e-01 3.93535852e-01 3.94388407e-01 3.96265417e-01 3.97378147e-01 3.98060024e-01 3.98753792e-01 3.99641186e-01 4.00707066e-01 4.01841104e-01 4.02905196e-01 4.03768480e-01 4.04320419e-01 4.04470742e-01 4.04143333e-01 4.03273374e-01 4.01822209e-01 3.99827659e-01 3.97465318e-01 3.94951254e-01 3.92297566e-01 3.90934616e-01 3.99655521e-01 4.34587747e-01 5.03932714e-01 6.10806346e-02 8.83717835e-02 1.38672190e-02 2.00027470e-02 5.85096896e-01 4.86063510e-01 4.14222717e-01 4.00584936e-01 3.99555981e-01 3.98097903e-01 3.95472437e-01 3.92937481e-01 3.91113877e-01 3.90072644e-01 3.89650404e-01 3.89624953e-01 3.89788032e-01 3.89968216e-01 3.90034258e-01 3.89893383e-01 3.89494330e-01 3.88843179e-01 3.88043612e-01 3.87378097e-01 3.87436092e-01 3.89144927e-01 3.93173665e-01 3.99892062e-01 4.27241951e-01 5.28854311e-01 5.52944720e-01 5.05425483e-02 7.57770017e-02 1.21849636e-02 1.50228487e-02 7.21910775e-01 5.83846152e-01 4.40963626e-01 4.04540688e-01 3.99592042e-01 3.95655423e-01 3.90916198e-01 3.86731356e-01 3.83612305e-01 3.81507188e-01 3.80180538e-01 3.79377991e-01 3.78878683e-01 3.78502905e-01 3.78106266e-01 3.77574503e-01 3.76827866e-01 3.75844002e-01 3.74707073e-01 3.73695135e-01 3.73463780e-01 3.75600457e-01 3.84501398e-01 4.13488984e-01 4.99680609e-01 5.91410160e-01 6.51838779e-01 4.07575965e-02 7.89231956e-02 4.44105230e-02 3.06122098e-02 7.55530477e-01 3.82185638e-01 4.19799834e-01 4.10925388e-01 4.13531244e-01 4.14512813e-01 4.13576305e-01 4.11993086e-01 4.10496682e-01 4.09323245e-01 4.08479035e-01 4.07891005e-01 4.07469332e-01 4.07127380e-01 4.06784654e-01 4.06364858e-01 4.05796766e-01 4.05025214e-01 4.04038459e-01 4.02915835e-01 4.01900321e-01 4.01572973e-01 4.03488278e-01 4.11744744e-01 4.35619205e-01 5.00636518e-01 6.70947909e-01 8.05940628e-02 6.27359524e-02 
