# vtk DataFile Version 2.0
results_case1_non_linear/iter1.vtk, Created by Freefem++ 
ASCII
DATASET UNSTRUCTURED_GRID
POINTS 961 float
0 0 0
0.033333333 0 0
0.066666667 0 0
0.1 0 0
0.13333333 0 0
0.16666667 0 0
0.2 0 0
0.23333333 0 0
0.26666667 0 0
0.3 0 0
0.33333333 0 0
0.36666667 0 0
0.4 0 0
0.43333333 0 0
0.46666667 0 0
0.5 0 0
0.53333333 0 0
0.56666667 0 0
0.6 0 0
0.63333333 0 0
0.66666667 0 0
0.7 0 0
0.73333333 0 0
0.76666667 0 0
0.8 0 0
0.83333333 0 0
0.86666667 0 0
0.9 0 0
0.93333333 0 0
0.96666667 0 0
1 0 0
0 0.033333333 0
0.033333333 0.033333333 0
0.066666667 0.033333333 0
0.1 0.033333333 0
0.13333333 0.033333333 0
0.16666667 0.033333333 0
0.2 0.033333333 0
0.23333333 0.033333333 0
0.26666667 0.033333333 0
0.3 0.033333333 0
0.33333333 0.033333333 0
0.36666667 0.033333333 0
0.4 0.033333333 0
0.43333333 0.033333333 0
0.46666667 0.033333333 0
0.5 0.033333333 0
0.53333333 0.033333333 0
0.56666667 0.033333333 0
0.6 0.033333333 0
0.63333333 0.033333333 0
0.66666667 0.033333333 0
0.7 0.033333333 0
0.73333333 0.033333333 0
0.76666667 0.033333333 0
0.8 0.033333333 0
0.83333333 0.033333333 0
0.86666667 0.033333333 0
0.9 0.033333333 0
0.93333333 0.033333333 0
0.96666667 0.033333333 0
1 0.033333333 0
0 0.066666667 0
0.033333333 0.066666667 0
0.066666667 0.066666667 0
0.1 0.066666667 0
0.13333333 0.066666667 0
0.16666667 0.066666667 0
0.2 0.066666667 0
0.23333333 0.066666667 0
0.26666667 0.066666667 0
0.3 0.066666667 0
0.33333333 0.066666667 0
0.36666667 0.066666667 0
0.4 0.066666667 0
0.43333333 0.066666667 0
0.46666667 0.066666667 0
0.5 0.066666667 0
0.53333333 0.066666667 0
0.56666667 0.066666667 0
0.6 0.066666667 0
0.63333333 0.066666667 0
0.66666667 0.066666667 0
0.7 0.066666667 0
0.73333333 0.066666667 0
0.76666667 0.066666667 0
0.8 0.066666667 0
0.83333333 0.066666667 0
0.86666667 0.066666667 0
0.9 0.066666667 0
0.93333333 0.066666667 0
0.96666667 0.066666667 0
1 0.066666667 0
0 0.1 0
0.033333333 0.1 0
0.066666667 0.1 0
0.1 0.1 0
0.13333333 0.1 0
0.16666667 0.1 0
0.2 0.1 0
0.23333333 0.1 0
0.26666667 0.1 0
0.3 0.1 0
0.33333333 0.1 0
0.36666667 0.1 0
0.4 0.1 0
0.43333333 0.1 0
0.46666667 0.1 0
0.5 0.1 0
0.53333333 0.1 0
0.56666667 0.1 0
0.6 0.1 0
0.63333333 0.1 0
0.66666667 0.1 0
0.7 0.1 0
0.73333333 0.1 0
0.76666667 0.1 0
0.8 0.1 0
0.83333333 0.1 0
0.86666667 0.1 0
0.9 0.1 0
0.93333333 0.1 0
0.96666667 0.1 0
1 0.1 0
0 0.13333333 0
0.033333333 0.13333333 0
0.066666667 0.13333333 0
0.1 0.13333333 0
0.13333333 0.13333333 0
0.16666667 0.13333333 0
0.2 0.13333333 0
0.23333333 0.13333333 0
0.26666667 0.13333333 0
0.3 0.13333333 0
0.33333333 0.13333333 0
0.36666667 0.13333333 0
0.4 0.13333333 0
0.43333333 0.13333333 0
0.46666667 0.13333333 0
0.5 0.13333333 0
0.53333333 0.13333333 0
0.56666667 0.13333333 0
0.6 0.13333333 0
0.63333333 0.13333333 0
0.66666667 0.13333333 0
0.7 0.13333333 0
0.73333333 0.13333333 0
0.76666667 0.13333333 0
0.8 0.13333333 0
0.83333333 0.13333333 0
0.86666667 0.13333333 0
0.9 0.13333333 0
0.93333333 0.13333333 0
0.96666667 0.13333333 0
1 0.13333333 0
0 0.16666667 0
0.033333333 0.16666667 0
0.066666667 0.16666667 0
0.1 0.16666667 0
0.13333333 0.16666667 0
0.16666667 0.16666667 0
0.2 0.16666667 0
0.23333333 0.16666667 0
0.26666667 0.16666667 0
0.3 0.16666667 0
0.33333333 0.16666667 0
0.36666667 0.16666667 0
0.4 0.16666667 0
0.43333333 0.16666667 0
0.46666667 0.16666667 0
0.5 0.16666667 0
0.53333333 0.16666667 0
0.56666667 0.16666667 0
0.6 0.16666667 0
0.63333333 0.16666667 0
0.66666667 0.16666667 0
0.7 0.16666667 0
0.73333333 0.16666667 0
0.76666667 0.16666667 0
0.8 0.16666667 0
0.83333333 0.16666667 0
0.86666667 0.16666667 0
0.9 0.16666667 0
0.93333333 0.16666667 0
0.96666667 0.16666667 0
1 0.16666667 0
0 0.2 0
0.033333333 0.2 0
0.066666667 0.2 0
0.1 0.2 0
0.13333333 0.2 0
0.16666667 0.2 0
0.2 0.2 0
0.23333333 0.2 0
0.26666667 0.2 0
0.3 0.2 0
0.33333333 0.2 0
0.36666667 0.2 0
0.4 0.2 0
0.43333333 0.2 0
0.46666667 0.2 0
0.5 0.2 0
0.53333333 0.2 0
0.56666667 0.2 0
0.6 0.2 0
0.63333333 0.2 0
0.66666667 0.2 0
0.7 0.2 0
0.73333333 0.2 0
0.76666667 0.2 0
0.8 0.2 0
0.83333333 0.2 0
0.86666667 0.2 0
0.9 0.2 0
0.93333333 0.2 0
0.96666667 0.2 0
1 0.2 0
0 0.23333333 0
0.033333333 0.23333333 0
0.066666667 0.23333333 0
0.1 0.23333333 0
0.13333333 0.23333333 0
0.16666667 0.23333333 0
0.2 0.23333333 0
0.23333333 0.23333333 0
0.26666667 0.23333333 0
0.3 0.23333333 0
0.33333333 0.23333333 0
0.36666667 0.23333333 0
0.4 0.23333333 0
0.43333333 0.23333333 0
0.46666667 0.23333333 0
0.5 0.23333333 0
0.53333333 0.23333333 0
0.56666667 0.23333333 0
0.6 0.23333333 0
0.63333333 0.23333333 0
0.66666667 0.23333333 0
0.7 0.23333333 0
0.73333333 0.23333333 0
0.76666667 0.23333333 0
0.8 0.23333333 0
0.83333333 0.23333333 0
0.86666667 0.23333333 0
0.9 0.23333333 0
0.93333333 0.23333333 0
0.96666667 0.23333333 0
1 0.23333333 0
0 0.26666667 0
0.033333333 0.26666667 0
0.066666667 0.26666667 0
0.1 0.26666667 0
0.13333333 0.26666667 0
0.16666667 0.26666667 0
0.2 0.26666667 0
0.23333333 0.26666667 0
0.26666667 0.26666667 0
0.3 0.26666667 0
0.33333333 0.26666667 0
0.36666667 0.26666667 0
0.4 0.26666667 0
0.43333333 0.26666667 0
0.46666667 0.26666667 0
0.5 0.26666667 0
0.53333333 0.26666667 0
0.56666667 0.26666667 0
0.6 0.26666667 0
0.63333333 0.26666667 0
0.66666667 0.26666667 0
0.7 0.26666667 0
0.73333333 0.26666667 0
0.76666667 0.26666667 0
0.8 0.26666667 0
0.83333333 0.26666667 0
0.86666667 0.26666667 0
0.9 0.26666667 0
0.93333333 0.26666667 0
0.96666667 0.26666667 0
1 0.26666667 0
0 0.3 0
0.033333333 0.3 0
0.066666667 0.3 0
0.1 0.3 0
0.13333333 0.3 0
0.16666667 0.3 0
0.2 0.3 0
0.23333333 0.3 0
0.26666667 0.3 0
0.3 0.3 0
0.33333333 0.3 0
0.36666667 0.3 0
0.4 0.3 0
0.43333333 0.3 0
0.46666667 0.3 0
0.5 0.3 0
0.53333333 0.3 0
0.56666667 0.3 0
0.6 0.3 0
0.63333333 0.3 0
0.66666667 0.3 0
0.7 0.3 0
0.73333333 0.3 0
0.76666667 0.3 0
0.8 0.3 0
0.83333333 0.3 0
0.86666667 0.3 0
0.9 0.3 0
0.93333333 0.3 0
0.96666667 0.3 0
1 0.3 0
0 0.33333333 0
0.033333333 0.33333333 0
0.066666667 0.33333333 0
0.1 0.33333333 0
0.13333333 0.33333333 0
0.16666667 0.33333333 0
0.2 0.33333333 0
0.23333333 0.33333333 0
0.26666667 0.33333333 0
0.3 0.33333333 0
0.33333333 0.33333333 0
0.36666667 0.33333333 0
0.4 0.33333333 0
0.43333333 0.33333333 0
0.46666667 0.33333333 0
0.5 0.33333333 0
0.53333333 0.33333333 0
0.56666667 0.33333333 0
0.6 0.33333333 0
0.63333333 0.33333333 0
0.66666667 0.33333333 0
0.7 0.33333333 0
0.73333333 0.33333333 0
0.76666667 0.33333333 0
0.8 0.33333333 0
0.83333333 0.33333333 0
0.86666667 0.33333333 0
0.9 0.33333333 0
0.93333333 0.33333333 0
0.96666667 0.33333333 0
1 0.33333333 0
0 0.36666667 0
0.033333333 0.36666667 0
0.066666667 0.36666667 0
0.1 0.36666667 0
0.13333333 0.36666667 0
0.16666667 0.36666667 0
0.2 0.36666667 0
0.23333333 0.36666667 0
0.26666667 0.36666667 0
0.3 0.36666667 0
0.33333333 0.36666667 0
0.36666667 0.36666667 0
0.4 0.36666667 0
0.43333333 0.36666667 0
0.46666667 0.36666667 0
0.5 0.36666667 0
0.53333333 0.36666667 0
0.56666667 0.36666667 0
0.6 0.36666667 0
0.63333333 0.36666667 0
0.66666667 0.36666667 0
0.7 0.36666667 0
0.73333333 0.36666667 0
0.76666667 0.36666667 0
0.8 0.36666667 0
0.83333333 0.36666667 0
0.86666667 0.36666667 0
0.9 0.36666667 0
0.93333333 0.36666667 0
0.96666667 0.36666667 0
1 0.36666667 0
0 0.4 0
0.033333333 0.4 0
0.066666667 0.4 0
0.1 0.4 0
0.13333333 0.4 0
0.16666667 0.4 0
0.2 0.4 0
0.23333333 0.4 0
0.26666667 0.4 0
0.3 0.4 0
0.33333333 0.4 0
0.36666667 0.4 0
0.4 0.4 0
0.43333333 0.4 0
0.46666667 0.4 0
0.5 0.4 0
0.53333333 0.4 0
0.56666667 0.4 0
0.6 0.4 0
0.63333333 0.4 0
0.66666667 0.4 0
0.7 0.4 0
0.73333333 0.4 0
0.76666667 0.4 0
0.8 0.4 0
0.83333333 0.4 0
0.86666667 0.4 0
0.9 0.4 0
0.93333333 0.4 0
0.96666667 0.4 0
1 0.4 0
0 0.43333333 0
0.033333333 0.43333333 0
0.066666667 0.43333333 0
0.1 0.43333333 0
0.13333333 0.43333333 0
0.16666667 0.43333333 0
0.2 0.43333333 0
0.23333333 0.43333333 0
0.26666667 0.43333333 0
0.3 0.43333333 0
0.33333333 0.43333333 0
0.36666667 0.43333333 0
0.4 0.43333333 0
0.43333333 0.43333333 0
0.46666667 0.43333333 0
0.5 0.43333333 0
0.53333333 0.43333333 0
0.56666667 0.43333333 0
0.6 0.43333333 0
0.63333333 0.43333333 0
0.66666667 0.43333333 0
0.7 0.43333333 0
0.73333333 0.43333333 0
0.76666667 0.43333333 0
0.8 0.43333333 0
0.83333333 0.43333333 0
0.86666667 0.43333333 0
0.9 0.43333333 0
0.93333333 0.43333333 0
0.96666667 0.43333333 0
1 0.43333333 0
0 0.46666667 0
0.033333333 0.46666667 0
0.066666667 0.46666667 0
0.1 0.46666667 0
0.13333333 0.46666667 0
0.16666667 0.46666667 0
0.2 0.46666667 0
0.23333333 0.46666667 0
0.26666667 0.46666667 0
0.3 0.46666667 0
0.33333333 0.46666667 0
0.36666667 0.46666667 0
0.4 0.46666667 0
0.43333333 0.46666667 0
0.46666667 0.46666667 0
0.5 0.46666667 0
0.53333333 0.46666667 0
0.56666667 0.46666667 0
0.6 0.46666667 0
0.63333333 0.46666667 0
0.66666667 0.46666667 0
0.7 0.46666667 0
0.73333333 0.46666667 0
0.76666667 0.46666667 0
0.8 0.46666667 0
0.83333333 0.46666667 0
0.86666667 0.46666667 0
0.9 0.46666667 0
0.93333333 0.46666667 0
0.96666667 0.46666667 0
1 0.46666667 0
0 0.5 0
0.033333333 0.5 0
0.066666667 0.5 0
0.1 0.5 0
0.13333333 0.5 0
0.16666667 0.5 0
0.2 0.5 0
0.23333333 0.5 0
0.26666667 0.5 0
0.3 0.5 0
0.33333333 0.5 0
0.36666667 0.5 0
0.4 0.5 0
0.43333333 0.5 0
0.46666667 0.5 0
0.5 0.5 0
0.53333333 0.5 0
0.56666667 0.5 0
0.6 0.5 0
0.63333333 0.5 0
0.66666667 0.5 0
0.7 0.5 0
0.73333333 0.5 0
0.76666667 0.5 0
0.8 0.5 0
0.83333333 0.5 0
0.86666667 0.5 0
0.9 0.5 0
0.93333333 0.5 0
0.96666667 0.5 0
1 0.5 0
0 0.53333333 0
0.033333333 0.53333333 0
0.066666667 0.53333333 0
0.1 0.53333333 0
0.13333333 0.53333333 0
0.16666667 0.53333333 0
0.2 0.53333333 0
0.23333333 0.53333333 0
0.26666667 0.53333333 0
0.3 0.53333333 0
0.33333333 0.53333333 0
0.36666667 0.53333333 0
0.4 0.53333333 0
0.43333333 0.53333333 0
0.46666667 0.53333333 0
0.5 0.53333333 0
0.53333333 0.53333333 0
0.56666667 0.53333333 0
0.6 0.53333333 0
0.63333333 0.53333333 0
0.66666667 0.53333333 0
0.7 0.53333333 0
0.73333333 0.53333333 0
0.76666667 0.53333333 0
[...]
CELL_DATA 1920
Scalars  Label int 1
LOOKUP_TABLE FreeFempp_table
0
0
0
0
0
0
0
0
0
0
0
0
0
0
0
0
0
0
0
0
0
0
0
0
0
0
0
0
0
0
0
0
0
0
0
0
0
0
0
0
0
0
0
0
0
0
0
0
0
0
0
0
0
0
0
0
0
0
0
0
0
0
0
0
0
0
0
0
0
0
0
0
0
0
0
0
0
0
0
0
0
0
0
0
0
0
0
0
0
0
0
0
0
0
0
0
0
0
0
0
0
0
0
0
0
0
0
0
0
0
0
0
0
0
0
0
0
0
0
0
0
0
0
0
0
0
0
0
0
0
0
0
0
0
0
0
0
0
0
0
0
0
0
0
0
0
0
0
0
0
0
0
0
0
0
0
0
0
0
0
0
0
0
0
0
0
0
0
0
0
0
0
0
0
0
0
0
0
0
0
0
0
0
0
0
0
0
0
0
0
0
0
0
0
0
0
0
0
0
0
0
0
0
0
0
0
0
0
0
0
0
0
0
0
0
0
0
0
0
0
0
0
0
0
0
0
0
0
0
0
0
0
0
0
0
0
0
0
0
0
0
0
0
0
0
0
0
0
0
0
0
0
0
0
0
0
0
0
0
0
0
0
0
0
0
0
0
0
0
0
0
0
0
0
0
0
0
0
0
0
0
0
0
0
0
0
0
0
0
0
0
0
0
0
0
0
0
0
0
0
0
0
0
0
0
0
0
0
0
0
0
0
0
0
0
0
0
0
0
0
0
0
0
0
0
0
0
0
0
0
0
0
0
0
0
0
0
0
0
0
0
0
0
0
0
0
0
0
0
0
0
0
0
0
0
0
0
0
0
0
0
0
0
0
0
0
0
0
0
0
0
0
0
0
0
0
0
0
0
0
0
0
0
0
0
0
0
0
0
0
0
0
0
0
0
0
0
0
0
0
0
0
0
0
0
0
0
0
0
0
0
0
0
0
0
0
0
0
0
0
0
0
0
0
0
0
0
0
0
0
0
0
0
0
0
0
0
0
0
0
0
0
0
0
0
0
0
0
0
0
0
0
0
0
0
0
0
0
0
0
0
0
0
0
0
0
0
0
0
0
0
0
0
0
0
0
0
0
0
0
0
0
0
0
0
0
0
0
0
0
0
0
0
0
0
0
0
0
0
0
0
0
0
0
0
0
0
0
0
0
0
0
0
0
0
0
0
0
0
0
0
0
0
0
0
0
0
0
0
0
0
0
0
0
0
0
0
0
0
0
0
0
0
0
0
0
0
0
0
0
0
0
0
0
0
0
0
0
0
0
0
0
0
0
0
0
0
0
0
0
0
0
0
0
0
0
0
0
0
0
0
0
0
0
0
0
0
0
0
0
0
0
0
0
0
0
0
0
0
0
0
0
0
0
0
0
0
0
0
0
0
0
0
0
0
0
0
0
0
0
0
0
0
0
0
0
0
0
0
0
0
0
0
0
0
0
0
0
0
0
0
0
0
0
0
0
0
0
0
0
0
0
0
0
0
0
0
0
0
0
0
0
0
0
0
0
0
0
0
0
0
0
0
0
0
0
0
0
0
0
0
0
0
0
0
0
0
0
0
0
0
0
0
0
0
0
0
0
0
0
0
0
0
0
0
0
0
0
0
0
0
0
0
0
0
0
0
0
0
0
0
0
0
0
0
0
0
0
0
0
0
0
0
0
0
0
0
0
0
0
0
0
0
0
0
0
0
0
0
0
0
0
0
0
0
0
0
0
0
0
0
0
0
0
0
0
0
0
0
0
0
0
0
0
0
0
0
0
0
0
0
0
0
0
0
0
0
0
0
0
0
0
0
0
0
0
0
0
0
0
0
0
0
0
0
0
0
0
0
0
0
0
0
0
0
0
0
0
0
0
0
0
0
0
0
0
0
0
0
0
0
0
0
0
0
0
0
0
0
0
0
0
0
0
0
0
0
0
0
0
0
0
0
0
0
0
0
0
0
0
0
0
0
0
0
0
0
0
0
0
0
0
0
0
0
0
0
0
0
0
0
0
0
0
0
0
0
0
0
0
0
0
0
0
0
0
0
0
0
0
0
0
0
0
0
0
0
0
0
0
0
0
0
0
0
0
0
0
0
0
0
0
0
0
0
0
0
0
0
0
0
0
0
0
0
0
0
0
0
0
0
0
0
0
0
0
0
0
0
0
0
0
0
0
0
0
0
0
0
0
0
0
0
0
0
0
0
0
0
0
0
0
0
0
0
0
0
0
0
0
0
0
0
0
0
0
0
0
0
0
0
0
0
0
0
0
0
0
0
0
0
0
0
0
0
0
0
0
0
0
0
0
0
0
0
0
0
0
0
0
0
0
0
0
0
0
0
0
0
0
0
0
0
0
0
0
0
0
0
0
0
0
0
0
0
0
0
0
0
0
0
0
0
0
0
0
0
0
0
0
0
0
0
0
0
0
0
0
0
0
0
0
0
0
0
0
0
0
0
0
0
0
0
0
0
0
0
0
0
0
0
0
0
0
0
0
0
0
0
0
0
0
0
0
0
0
0
0
0
0
0
0
0
0
0
0
0
0
0
0
0
0
0
0
0
0
0
0
0
0
0
0
0
0
0
0
0
0
0
0
0
0
0
0
0
0
0
0
0
0
0
0
0
0
0
0
0
0
0
0
0
0
0
0
0
0
0
0
0
0
0
0
0
0
0
0
0
0
0
0
0
0
0
0
0
0
0
0
0
0
0
0
0
0
0
0
0
0
0
0
0
0
0
0
0
0
0
0
0
0
0
0
0
0
0
0
0
0
0
0
0
0
0
0
0
0
0
0
0
0
0
0
0
0
0
0
0
0
0
0
0
0
0
0
0
0
0
0
0
0
0
0
0
0
0
0
0
0
0
0
0
0
0
0
0
0
0
0
0
0
0
0
0
0
0
0
0
0
0
0
0
0
0
0
0
0
0
0
0
0
0
0
0
0
0
0
0
0
0
0
0
0
0
0
0
0
0
0
0
0
0
0
0
0
0
0
0
0
0
0
0
0
0
0
0
0
0
0
0
0
0
0
0
0
0
0
0
0
0
0
0
0
0
0
0
0
0
0
0
0
0
0
0
0
0
0
0
0
0
0
0
0
0
0
0
0
0
0
0
0
0
0
0
0
0
0
0
0
0
0
0
0
0
0
0
0
0
0
0
0
0
0
0
0
0
0
0
0
0
0
0
0
0
0
0
0
0
0
0
0
0
0
0
0
0
0
0
0
0
0
0
0
0
0
0
0
0
0
0
0
0
0
0
0
0
0
0
0
0
0
0
0
0
0
0
0
0
0
0
0
0
0
0
0
0
0
0
0
0
0
0
0
0
0
0
0
0
0
0
0
0
0
0
0
0
0
0
0
0
0
0
0
0
0
0
0
0
0
0
0
0
0
0
0
0
0
0
0
0
0
0
0
0
0
0
0
0
0
0
0
0
0
0
0
0
0
0
0
0
0
0
0
0
0
0
0
0
0
0
0
0
0
0
0
0
0
0
0
0
0
0
0
0
0
0
0
0
0
0
0
0
0
0
0
0
0
0
0
0
0
0
0
0
0
0
0
0
0
0
0
0
0
0
0
0
0
0
0
0
0
0
0
0
0
0
0
0
0
0
0
0
0
0
0
0
0
0
0
0
0
0
0
0
0
0
0
0
0
0
0
0
0
0
0
0
0
0
0
0
0
0
0
0
0
0
0
0
0
0
0
0
0
0
0
0
0
0
0
0
0
0
0
0
0
0
0
0
0
0
0
0
0
0
0
0
0
0
0
0
0
0
0
0
0
0
0
0
0
0
0
0
0
0
0
0
0
0
0
0
0
0
0
0
0
0
0
0
0
0
0
0
0
0
0
0
0
0
0
0
0
0
0
0
0
0
0
0
0
0
0
0
0
0
0
0
0
0
0
0
0
0
0
0
0
0
0
0
0
0
0
0
0
0
0
0
0
0
0
0
0
0
0
0
0
0
0
0
0
0
0
0
0
0
0
0
0
0
0
0
0
0
0
0
0
0
0
0
0
0
0
0
0
0
0
0
0
0
0
0
0
0
0
0
0
0
0
0
0
0
0
0
0
0
0
0
0
0
0
0
0
1
1
1
1
1
1
1
1
1
1
1
1
1
1
1
1
1
1
1
1
1
1
1
1
1
1
1
1
1
1
2
2
2
2
2
2
2
2
2
2
2
2
2
2
2
2
2
2
2
2
2
2
2
2
2
2
2
2
2
2
3
3
3
3
3
3
3
3
3
3
3
3
3
3
3
3
3
3
3
3
3
3
3
3
3
3
3
3
3
3
4
4
4
4
4
4
4
4
4
4
4
4
4
4
4
4
4
4
4
4
4
4
4
4
4
4
4
4
4
4

LOOKUP_TABLE FreeFempp_table 5
1.00000000 0.00000000 0.00000000 1.00000000
1.00000000 1.00000000 0.00000000 1.00000000
1.00000000 0.00000000 1.00000000 1.00000000
0.00000000 1.00000000 0.00000000 1.00000000
0.00000000 1.00000000 1.00000000 1.00000000

POINT_DATA 961
FIELD FieldData 1
Density 1 961 float
3.04293986e-02 2.97778696e-02 3.09216268e-02 3.17449234e-02 3.24053317e-02 3.28641385e-02 3.31847332e-02 3.35370861e-02 3.38004306e-02 3.46248001e-02 3.88754569e-02 2.38867283e-01 4.65054065e-01 5.82708418e-01 6.02268338e-01 5.64653039e-01 4.91369039e-01 3.91155720e-01 2.68601686e-01 1.78367987e-01 1.52942970e-01 1.84722051e-01 2.52323866e-01 3.29318136e-01 3.93504560e-01 4.24982727e-01 4.04723227e-01 3.03450018e-01 3.96451950e-02 4.05566469e-02 2.62164950e-01 3.77007239e-02 2.80518383e-02 3.01264264e-02 3.12006120e-02 3.21242400e-02 3.28268670e-02 3.32285427e-02 3.33836377e-02 3.32366265e-02 3.20036337e-02 2.96321753e-02 3.00756954e-02 3.41625810e-02 2.89287359e-01 6.17012680e-01 6.47460938e-01 5.75152159e-01 4.22322869e-01 1.79026708e-01 8.64645168e-02 7.69521445e-02 8.53163600e-02 1.35479987e-01 2.60897398e-01 4.09736544e-01 4.88143474e-01 4.64222401e-01 3.49636763e-01 4.69928160e-02 3.01692262e-02 5.93021773e-02 1.24654979e-01 1.17167056e-01 1.94298297e-01 2.73220390e-01 3.00132275e-01 3.11387062e-01 3.17800194e-01 3.21542174e-01 3.18483710e-01 2.77181894e-01 1.22350186e-01 3.61758918e-02 3.18082012e-02 3.37114893e-02 4.17839922e-02 4.07196432e-02 4.18654010e-02 5.36679700e-02 6.82889670e-02 1.02495112e-01 1.80081561e-01 2.57054418e-01 3.28113317e-01 4.08736765e-01 4.83912349e-01 5.12208402e-01 4.88233685e-01 4.37676966e-01 3.21498483e-01 3.13424505e-02 3.60271819e-02 1.38158932e-01 1.22747250e-01 2.64860719e-01 3.38298619e-01 3.59594882e-01 3.71020049e-01 3.79846096e-01 3.86490345e-01 3.89285266e-01 3.83934557e-01 3.60315710e-01 2.99363106e-01 1.58326909e-01 3.57061513e-02 3.77926119e-02 3.66089717e-02 3.63022499e-02 3.30163687e-02 4.94296998e-02 9.17932317e-02 3.10647607e-01 4.74741578e-01 5.24995625e-01 5.45245409e-01 5.51961482e-01 5.36646903e-01 4.95746136e-01 4.42936689e-01 3.94220233e-01 3.37173305e-02 3.34764160e-02 1.73966065e-01 1.40408874e-01 2.92974114e-01 3.59792888e-01 3.79681200e-01 3.90144348e-01 3.96853626e-01 4.00872618e-01 4.01644945e-01 3.97685617e-01 3.86795491e-01 3.66493315e-01 3.32368404e-01 2.77853668e-01 2.12919235e-01 1.42900854e-01 8.22095200e-02 6.53469339e-02 1.25334442e-01 2.17938334e-01 4.02554959e-01 5.02312779e-01 5.33638537e-01 5.38290024e-01 5.31664073e-01 5.15541494e-01 4.87925559e-01 4.48887110e-01 4.08723593e-01 3.61927859e-02 3.45455371e-02 2.41457373e-01 1.72548443e-01 3.33737403e-01 3.85162532e-01 4.02573198e-01 4.11328048e-01 4.15900290e-01 4.18067694e-01 4.18171197e-01 4.15758938e-01 4.10073370e-01 4.00529712e-01 3.86604786e-01 3.67526978e-01 3.43200922e-01 3.11814457e-01 2.82469332e-01 2.62808055e-01 2.70307332e-01 3.38884979e-01 4.31186289e-01 4.92380798e-01 5.19013464e-01 5.25548458e-01 5.21577358e-01 5.10098755e-01 4.89896923e-01 4.57514822e-01 4.09120262e-01 3.86071466e-02 3.65149975e-02 3.22103292e-01 2.26926282e-01 4.04954374e-01 4.23893064e-01 4.34504718e-01 4.38739479e-01 4.40040588e-01 4.39978451e-01 4.39018726e-01 4.36950624e-01 4.33337510e-01 4.27901864e-01 4.20614243e-01 4.11508083e-01 4.00475085e-01 3.86822253e-01 3.73016536e-01 3.62873256e-01 3.66220683e-01 3.98394316e-01 4.45282578e-01 4.82863098e-01 5.04292965e-01 5.12666941e-01 5.12190044e-01 5.05203247e-01 4.91442382e-01 4.65184301e-01 4.05799568e-01 4.05600742e-02 3.83641012e-02 3.96174967e-01 3.07514191e-01 4.92686093e-01 4.71767336e-01 4.72791463e-01 4.70001727e-01 4.66677845e-01 4.63406563e-01 4.60254610e-01 4.56898212e-01 4.52929676e-01 4.48106229e-01 4.42407697e-01 4.35913116e-01 4.28640485e-01 4.20604646e-01 4.13078815e-01 4.08740103e-01 4.13071364e-01 4.31463599e-01 4.57566947e-01 4.80593145e-01 4.95830119e-01 5.03218949e-01 5.04234433e-01 5.00421941e-01 4.91965830e-01 4.71443772e-01 4.03942108e-01 4.23336960e-02 3.99830453e-02 4.51579928e-01 3.98390532e-01 5.66025078e-01 5.16639829e-01 5.08520007e-01 4.98724461e-01 4.90748525e-01 4.84067410e-01 4.78305966e-01 4.73021120e-01 4.67841268e-01 4.62572783e-01 4.57188725e-01 4.51747179e-01 4.46361989e-01 4.41376209e-01 4.37823206e-01 4.37459648e-01 4.42729950e-01 4.54731584e-01 4.69824433e-01 4.83183950e-01 4.92467344e-01 4.97251004e-01 4.98003453e-01 4.95680869e-01 4.90574598e-01 4.74761218e-01 4.04620171e-01 4.41826396e-02 4.15089168e-02 4.72378433e-01 4.57956493e-01 5.97866535e-01 5.43419838e-01 5.30584276e-01 5.17471850e-01 5.07081509e-01 4.98422652e-01 4.91032213e-01 4.84536827e-01 4.78690922e-01 4.73387837e-01 4.68602061e-01 4.64350253e-01 4.60768819e-01 4.58302289e-01 4.57756460e-01 4.59945858e-01 4.65269417e-01 4.73040700e-01 4.81132835e-01 4.87656891e-01 4.91901875e-01 4.93783861e-01 4.93450731e-01 4.91287649e-01 4.87261802e-01 4.74134177e-01 4.06512707e-01 4.61363010e-02 4.30786721e-02 4.37839538e-01 4.39424992e-01 5.69215238e-01 5.38136840e-01 5.30403912e-01 5.20944536e-01 5.12373269e-01 5.04589856e-01 4.97676402e-01 4.91628349e-01 4.86443579e-01 4.82131243e-01 4.78665084e-01 4.76014405e-01 4.74307865e-01 4.73986030e-01 4.75584298e-01 4.79114026e-01 4.83754188e-01 4.88179326e-01 4.91238385e-01 4.92631048e-01 4.92690206e-01 4.91772741e-01 4.90007907e-01 4.87253875e-01 4.82708514e-01 4.69701022e-01 4.05298233e-01 4.79767397e-02 4.47615981e-02 3.41522872e-01 3.35786343e-01 4.73623544e-01 4.94937211e-01 5.06451309e-01 5.08413494e-01 5.06239414e-01 5.02412975e-01 4.98278707e-01 4.94505942e-01 4.91439521e-01 4.89207357e-01 4.87755626e-01 4.87011790e-01 4.87100184e-01 4.88478601e-01 4.91500914e-01 4.95583028e-01 4.99249250e-01 5.01073837e-01 5.00534713e-01 4.98112619e-01 4.94661301e-01 4.90881801e-01 4.87132579e-01 4.83124346e-01 4.77234930e-01 4.61757034e-01 3.92143041e-01 4.95246425e-02 4.67376187e-02 2.24827453e-01 2.24229455e-01 3.46969754e-01 4.30008352e-01 4.68295783e-01 4.85140115e-01 4.91633713e-01 4.93487954e-01 4.93549913e-01 4.93255496e-01 4.93311554e-01 4.93921220e-01 4.94939327e-01 4.96208578e-01 4.97945517e-01 5.00501156e-01 5.04449308e-01 5.08864701e-01 5.11875570e-01 5.12188196e-01 5.09639382e-01 5.04909277e-01 4.98849839e-01 4.92186874e-01 4.85502392e-01 4.78789717e-01 4.69957471e-01 4.48481590e-01 3.59233260e-01 5.26626706e-02 4.98256870e-02 1.52838528e-01 1.65194973e-01 2.63126016e-01 3.79357696e-01 4.33717787e-01 4.60623562e-01 4.74025786e-01 4.81013119e-01 4.85186547e-01 4.88465250e-01 4.91804093e-01 4.95398462e-01 4.98918295e-01 5.02070487e-01 5.05286396e-01 5.08834839e-01 5.13255239e-01 5.18203318e-01 5.21400511e-01 5.21639049e-01 5.18946409e-01 5.13852954e-01 5.06826103e-01 4.98164237e-01 4.88129675e-01 4.76540685e-01 4.60749477e-01 4.27624553e-01 3.13341469e-01 6.16716892e-02 5.55334873e-02 1.09025046e-01 1.26201093e-01 2.43765533e-01 3.62602532e-01 4.14744049e-01 4.42647815e-01 4.58695620e-01 4.68612522e-01 4.75596309e-01 4.81571794e-01 4.87563193e-01 4.93715078e-01 4.99424070e-01 5.04190028e-01 5.08960247e-01 5.12399852e-01 5.18318176e-01 5.23445070e-01 5.27654886e-01 5.29167533e-01 5.28108776e-01 5.24778187e-01 5.19186854e-01 5.10997534e-01 4.99537587e-01 4.83191609e-01 4.57346350e-01 4.08695340e-01 2.80245423e-01 8.10758248e-02 6.74406439e-02 7.49819651e-02 8.94910768e-02 2.68946469e-01 3.69608074e-01 4.09371287e-01 4.32768852e-01 4.48024869e-01 4.58596647e-01 4.66790557e-01 4.74227279e-01 4.81853127e-01 4.89778191e-01 4.97249186e-01 5.03442049e-01 5.07989764e-01 5.11966467e-01 5.18537700e-01 5.25020599e-01 5.30289471e-01 5.33878624e-01 5.35628557e-01 5.35740256e-01 5.33996940e-01 5.29715896e-01 5.21492779e-01 5.06255567e-01 4.77269083e-01 4.21969056e-01 2.96655118e-01 1.10036165e-01 9.38785225e-02 5.93183972e-02 7.01432601e-02 3.11149508e-01 3.80604506e-01 4.09095049e-01 4.27928001e-01 4.41293329e-01 4.51262563e-01 4.59537566e-01 4.67415363e-01 4.75691080e-01 4.84448940e-01 4.92995441e-01 5.00293016e-01 5.06615758e-01 5.11271715e-01 5.17901123e-01 5.23181081e-01 5.29036820e-01 5.34424841e-01 5.39156914e-01 5.43303967e-01 5.46717584e-01 5.48885047e-01 5.48519611e-01 5.42561531e-01 5.24762034e-01 4.84962344e-01 3.98639441e-01 1.67392895e-01 1.56336904e-01 5.42814918e-02 6.63866475e-02 3.39890271e-01 3.88048619e-01 4.09624845e-01 4.25189465e-01 4.36711192e-01 4.45697874e-01 4.53537464e-01 4.61264968e-01 4.69502300e-01 4.78311181e-01 4.87122208e-01 4.95002478e-01 5.01473963e-01 5.07224083e-01 5.12619555e-01 5.17889500e-01 5.23670793e-01 5.29947937e-01 5.36763847e-01 5.44184864e-01 5.52264154e-01 5.60932279e-01 5.69543958e-01 5.76009095e-01 5.76426387e-01 5.64875126e-01 5.61071098e-01 3.25859129e-01 2.94941127e-01 5.17890677e-02 6.22854233e-02 3.48393261e-01 3.94759446e-01 4.11347657e-01 4.23517376e-01 4.33014721e-01 4.40876871e-01 4.48102325e-01 4.55416381e-01 4.63230073e-01 4.71562296e-01 4.79979157e-01 4.87750113e-01 4.94294971e-01 4.99699146e-01 5.04567564e-01 5.09227931e-01 5.14444172e-01 5.20679593e-01 5.28190076e-01 5.37160933e-01 5.47844768e-01 5.60553491e-01 5.75157642e-01 5.90201914e-01 6.03283346e-01 6.10035062e-01 6.78704798e-01 5.17386079e-01 4.69388187e-01 4.93338443e-02 5.67385331e-02 3.49591225e-01 4.03562337e-01 4.15182680e-01 4.22793895e-01 4.29646671e-01 4.36149389e-01 4.42666382e-01 4.49477613e-01 4.56717759e-01 4.64316159e-01 4.71937388e-01 4.79044199e-01 4.85149354e-01 4.90135223e-01 4.94335592e-01 4.98300225e-01 5.02720654e-01 5.08196771e-01 5.15082896e-01 5.23634076e-01 5.34205675e-01 5.47268093e-01 5.62815130e-01 5.79228580e-01 5.93734622e-01 6.02167249e-01 6.92852199e-01 5.27218044e-01 5.52659750e-01 4.65658382e-02 5.18403687e-02 3.53360951e-01 4.14395303e-01 4.20761585e-01 4.22803313e-01 4.26330477e-01 4.31187660e-01 4.36919868e-01 4.43231463e-01 4.49921608e-01 4.56787884e-01 4.63543594e-01 4.69811529e-01 4.75243062e-01 4.79706973e-01 4.83388960e-01 4.86721396e-01 4.90270287e-01 4.94531184e-01 4.99821872e-01 5.06366074e-01 5.14468312e-01 5.24535000e-01 5.36409676e-01 5.47807276e-01 5.54076135e-01 5.51171899e-01 6.07714832e-01 3.72958153e-01 5.04597127e-01 4.37704027e-02 4.73696478e-02 3.62278044e-01 4.25990731e-01 4.26786751e-01 4.22839195e-01 4.22692627e-01 4.25776362e-01 4.30728018e-01 4.36610520e-01 4.42870557e-01 4.49162751e-01 4.55211848e-01 4.60751027e-01 4.65552539e-01 4.69518483e-01 4.72745121e-01 4.75499272e-01 4.78136688e-01 4.80969369e-01 4.84182298e-01 4.87872690e-01 4.92181569e-01 4.97354954e-01 5.03158092e-01 5.06993651e-01 5.02502024e-01 4.84141469e-01 4.73668903e-01 2.50277340e-01 3.82772774e-01 4.11578566e-02 4.34360355e-02 3.76188010e-01 4.36487228e-01 4.31485534e-01 4.21758652e-01 4.18196529e-01 4.19734001e-01 4.24062729e-01 4.29633498e-01 4.35590535e-01 4.41476494e-01 4.47018743e-01 4.52017456e-01 4.56320733e-01 4.59853411e-01 4.62645620e-01 4.64820206e-01 4.66541618e-01 4.67936724e-01 4.69036847e-01 4.69789565e-01 4.70165789e-01 4.70320046e-01 4.70326006e-01 4.68488038e-01 4.59082752e-01 4.34725374e-01 3.83831173e-01 2.01157242e-01 2.66199768e-01 3.86342816e-02 4.03055772e-02 3.93081844e-01 4.43304479e-01 4.32745308e-01 4.18334365e-01 4.12400663e-01 4.13041800e-01 4.17048156e-01 4.22416091e-01 4.28116828e-01 4.33654249e-01 4.38778371e-01 4.43336368e-01 4.47217762e-01 4.50352311e-01 4.52718109e-01 4.54331607e-01 4.55215484e-01 4.55352426e-01 4.54651356e-01 4.52956736e-01 4.50153351e-01 4.46440518e-01 4.42516983e-01 4.38594103e-01 4.31815326e-01 4.14835364e-01 3.61106724e-01 1.74394563e-01 2.10471407e-01 3.55549976e-02 3.76510061e-02 4.09543067e-01 4.43998903e-01 4.28742826e-01 4.11930978e-01 4.05432671e-01 4.06104922e-01 4.10089433e-01 4.15238589e-01 4.20556515e-01 4.25615311e-01 4.30226743e-01 4.34284240e-01 4.37703639e-01 4.40413147e-01 4.42355007e-01 4.43476766e-01 4.43708688e-01 4.42936718e-01 4.40992087e-01 4.37678963e-01 4.32888061e-01 4.26928818e-01 4.21057254e-01 4.17297840e-01 4.16184276e-01 4.11204457e-01 3.66778225e-01 1.49762884e-01 1.84056729e-01 3.11846603e-02 3.39485109e-02 4.24430102e-01 4.37914938e-01 4.19248164e-01 4.03375477e-01 3.98460686e-01 3.99973899e-01 4.03953910e-01 4.08562541e-01 4.13096279e-01 4.17314291e-01 4.21127170e-01 4.24473077e-01 4.27282870e-01 4.29480612e-01 4.30988163e-01 4.31718707e-01 4.31558490e-01 4.30348068e-01 4.27885830e-01 4.23976392e-01 4.18549836e-01 4.11963671e-01 4.05652076e-01 4.02538747e-01 4.05616015e-01 4.10534859e-01 3.77798706e-01 1.21900566e-01 1.57753140e-01 3.15775946e-02 3.25308107e-02 4.46204633e-01 4.28422153e-01 4.07264084e-01 3.95597577e-01 3.93838555e-01 3.96257490e-01 3.99583310e-01 4.02838349e-01 4.05865103e-01 4.08681393e-01 4.11287516e-01 4.13634688e-01 4.15641338e-01 4.17214811e-01 4.18263167e-01 4.18692440e-01 4.18392628e-01 4.17223066e-01 4.15018022e-01 4.11636204e-01 4.07054424e-01 4.01516020e-01 3.96034986e-01 3.93474013e-01 3.98535609e-01 4.11631525e-01 4.07403618e-01 9.34284255e-02 1.28180772e-01 4.08828817e-02 7.67806396e-02 5.06994605e-01 4.31077212e-01 4.00971621e-01 3.93452018e-01 3.94307733e-01 3.96186739e-01 3.97301555e-01 3.97985131e-01 3.98680151e-01 3.99568915e-01 4.00637031e-01 4.01774913e-01 4.02845144e-01 4.03717548e-01 4.04282123e-01 4.04448926e-01 4.04142261e-01 4.03297305e-01 4.01874870e-01 3.99910659e-01 3.97575468e-01 3.95077854e-01 3.92423421e-01 3.91042143e-01 3.99731517e-01 4.34599072e-01 5.03834367e-01 7.23640323e-02 1.00376800e-01 5.15022278e-02 4.35667075e-02 5.84802747e-01 4.85874951e-01 4.14114535e-01 4.00494665e-01 3.99471015e-01 3.98020089e-01 3.95403028e-01 3.92875850e-01 3.91059041e-01 3.90024126e-01 3.89608413e-01 3.89590591e-01 3.89763176e-01 3.89955312e-01 3.90036255e-01 3.89913470e-01 3.89535666e-01 3.88908684e-01 3.88135135e-01 3.87495130e-01 3.87572587e-01 3.89284104e-01 3.93284500e-01 3.99940282e-01 4.27204669e-01 5.28692067e-01 5.52759767e-01 6.15567714e-02 8.48126262e-02 1.27399890e-02 3.52984406e-02 7.21435070e-01 5.83562493e-01 4.40828979e-01 4.04448777e-01 3.99511606e-01 3.95586431e-01 3.90859544e-01 3.86686325e-01 3.83577913e-01 3.81482899e-01 3.80166531e-01 3.79375368e-01 3.78889292e-01 3.78529221e-01 3.78151178e-01 3.77640933e-01 3.76918375e-01 3.75960052e-01 3.74848247e-01 3.73858035e-01 3.73640537e-01 3.75774950e-01 3.84641856e-01 4.13539350e-01 4.99569923e-01 5.91156065e-01 6.51527286e-01 5.73041290e-02 8.88844728e-02 3.20680253e-02 7.62999197e-03 7.55060852e-01 3.82212758e-01 4.19783652e-01 4.10921603e-01 4.13528800e-01 4.14513558e-01 4.13582146e-01 4.12004739e-01 4.10514295e-01 4.09346908e-01 4.08509105e-01 4.07928228e-01 4.07514781e-01 4.07182574e-01 4.06851351e-01 4.06444848e-01 4.05891597e-01 4.05135661e-01 4.04163867e-01 4.03053463e-01 4.02044743e-01 4.01715726e-01 4.03616846e-01 4.11839068e-01 4.35649186e-01 5.00567615e-01 6.70679748e-01 9.46105719e-02 7.64757842e-02 
