# vtk DataFile Version 2.0
results_case1_non_linear/iter5.vtk, Created by Freefem++ 
ASCII
DATASET UNSTRUCTURED_GRID
POINTS 961 float
0 0 0
0.033333333 0 0
0.066666667 0 0
0.1 0 0
0.13333333 0 0
0.16666667 0 0
0.2 0 0
0.23333333 0 0
0.26666667 0 0
0.3 0 0
0.33333333 0 0
0.36666667 0 0
0.4 0 0
0.43333333 0 0
0.46666667 0 0
0.5 0 0
0.53333333 0 0
0.56666667 0 0
0.6 0 0
0.63333333 0 0
0.66666667 0 0
0.7 0 0
0.73333333 0 0
0.76666667 0 0
0.8 0 0
0.83333333 0 0
0.86666667 0 0
0.9 0 0
0.93333333 0 0
0.96666667 0 0
1 0 0
0 0.033333333 0
0.033333333 0.033333333 0
0.066666667 0.033333333 0
0.1 0.033333333 0
0.13333333 0.033333333 0
0.16666667 0.033333333 0
0.2 0.033333333 0
0.23333333 0.033333333 0
0.26666667 0.033333333 0
0.3 0.033333333 0
0.33333333 0.033333333 0
0.36666667 0.033333333 0
0.4 0.033333333 0
0.43333333 0.033333333 0
0.46666667 0.033333333 0
0.5 0.033333333 0
0.53333333 0.033333333 0
0.56666667 0.033333333 0
0.6 0.033333333 0
0.63333333 0.033333333 0
0.66666667 0.033333333 0
0.7 0.033333333 0
0.73333333 0.033333333 0
0.76666667 0.033333333 0
0.8 0.033333333 0
0.83333333 0.033333333 0
0.86666667 0.033333333 0
0.9 0.033333333 0
0.93333333 0.033333333 0
0.96666667 0.033333333 0
1 0.033333333 0
0 0.066666667 0
0.033333333 0.066666667 0
0.066666667 0.066666667 0
0.1 0.066666667 0
0.13333333 0.066666667 0
0.16666667 0.066666667 0
0.2 0.066666667 0
0.23333333 0.066666667 0
0.26666667 0.066666667 0
0.3 0.066666667 0
0.33333333 0.066666667 0
0.36666667 0.066666667 0
0.4 0.066666667 0
0.43333333 0.066666667 0
0.46666667 0.066666667 0
0.5 0.066666667 0
0.53333333 0.066666667 0
0.56666667 0.066666667 0
0.6 0.066666667 0
0.63333333 0.066666667 0
0.66666667 0.066666667 0
0.7 0.066666667 0
0.73333333 0.066666667 0
0.76666667 0.066666667 0
0.8 0.066666667 0
0.83333333 0.066666667 0
0.86666667 0.066666667 0
0.9 0.066666667 0
0.93333333 0.066666667 0
0.96666667 0.066666667 0
1 0.066666667 0
0 0.1 0
0.033333333 0.1 0
0.066666667 0.1 0
0.1 0.1 0
0.13333333 0.1 0
0.16666667 0.1 0
0.2 0.1 0
0.23333333 0.1 0
0.26666667 0.1 0
0.3 0.1 0
0.33333333 0.1 0
0.36666667 0.1 0
0.4 0.1 0
0.43333333 0.1 0
0.46666667 0.1 0
0.5 0.1 0
0.53333333 0.1 0
0.56666667 0.1 0
0.6 0.1 0
0.63333333 0.1 0
0.66666667 0.1 0
0.7 0.1 0
0.73333333 0.1 0
0.76666667 0.1 0
0.8 0.1 0
0.83333333 0.1 0
0.86666667 0.1 0
0.9 0.1 0
0.93333333 0.1 0
0.96666667 0.1 0
1 0.1 0
0 0.13333333 0
0.033333333 0.13333333 0
0.066666667 0.13333333 0
0.1 0.13333333 0
0.13333333 0.13333333 0
0.16666667 0.13333333 0
0.2 0.13333333 0
0.23333333 0.13333333 0
0.26666667 0.13333333 0
0.3 0.13333333 0
0.33333333 0.13333333 0
0.36666667 0.13333333 0
0.4 0.13333333 0
0.43333333 0.13333333 0
0.46666667 0.13333333 0
0.5 0.13333333 0
0.53333333 0.13333333 0
0.56666667 0.13333333 0
0.6 0.13333333 0
0.63333333 0.13333333 0
0.66666667 0.13333333 0
0.7 0.13333333 0
0.73333333 0.13333333 0
0.76666667 0.13333333 0
0.8 0.13333333 0
0.83333333 0.13333333 0
0.86666667 0.13333333 0
0.9 0.13333333 0
0.93333333 0.13333333 0
0.96666667 0.13333333 0
1 0.13333333 0
0 0.16666667 0
0.033333333 0.16666667 0
0.066666667 0.16666667 0
0.1 0.16666667 0
0.13333333 0.16666667 0
0.16666667 0.16666667 0
0.2 0.16666667 0
0.23333333 0.16666667 0
0.26666667 0.16666667 0
0.3 0.16666667 0
0.33333333 0.16666667 0
0.36666667 0.16666667 0
0.4 0.16666667 0
0.43333333 0.16666667 0
0.46666667 0.16666667 0
0.5 0.16666667 0
0.53333333 0.16666667 0
0.56666667 0.16666667 0
0.6 0.16666667 0
0.63333333 0.16666667 0
0.66666667 0.16666667 0
0.7 0.16666667 0
0.73333333 0.16666667 0
0.76666667 0.16666667 0
0.8 0.16666667 0
0.83333333 0.16666667 0
0.86666667 0.16666667 0
0.9 0.16666667 0
0.93333333 0.16666667 0
0.96666667 0.16666667 0
1 0.16666667 0
0 0.2 0
0.033333333 0.2 0
0.066666667 0.2 0
0.1 0.2 0
0.13333333 0.2 0
0.16666667 0.2 0
0.2 0.2 0
0.23333333 0.2 0
0.26666667 0.2 0
0.3 0.2 0
0.33333333 0.2 0
0.36666667 0.2 0
0.4 0.2 0
0.43333333 0.2 0
0.46666667 0.2 0
0.5 0.2 0
0.53333333 0.2 0
0.56666667 0.2 0
0.6 0.2 0
0.63333333 0.2 0
0.66666667 0.2 0
0.7 0.2 0
0.73333333 0.2 0
0.76666667 0.2 0
0.8 0.2 0
0.83333333 0.2 0
0.86666667 0.2 0
0.9 0.2 0
0.93333333 0.2 0
0.96666667 0.2 0
1 0.2 0
0 0.23333333 0
0.033333333 0.23333333 0
0.066666667 0.23333333 0
0.1 0.23333333 0
0.13333333 0.23333333 0
0.16666667 0.23333333 0
0.2 0.23333333 0
0.23333333 0.23333333 0
0.26666667 0.23333333 0
0.3 0.23333333 0
0.33333333 0.23333333 0
0.36666667 0.23333333 0
0.4 0.23333333 0
0.43333333 0.23333333 0
0.46666667 0.23333333 0
0.5 0.23333333 0
0.53333333 0.23333333 0
0.56666667 0.23333333 0
0.6 0.23333333 0
0.63333333 0.23333333 0
0.66666667 0.23333333 0
0.7 0.23333333 0
0.73333333 0.23333333 0
0.76666667 0.23333333 0
0.8 0.23333333 0
0.83333333 0.23333333 0
0.86666667 0.23333333 0
0.9 0.23333333 0
0.93333333 0.23333333 0
0.96666667 0.23333333 0
1 0.23333333 0
0 0.26666667 0
0.033333333 0.26666667 0
0.066666667 0.26666667 0
0.1 0.26666667 0
0.13333333 0.26666667 0
0.16666667 0.26666667 0
0.2 0.26666667 0
0.23333333 0.26666667 0
0.26666667 0.26666667 0
0.3 0.26666667 0
0.33333333 0.26666667 0
0.36666667 0.26666667 0
0.4 0.26666667 0
0.43333333 0.26666667 0
0.46666667 0.26666667 0
0.5 0.26666667 0
0.53333333 0.26666667 0
0.56666667 0.26666667 0
0.6 0.26666667 0
0.63333333 0.26666667 0
0.66666667 0.26666667 0
0.7 0.26666667 0
0.73333333 0.26666667 0
0.76666667 0.26666667 0
0.8 0.26666667 0
0.83333333 0.26666667 0
0.86666667 0.26666667 0
0.9 0.26666667 0
0.93333333 0.26666667 0
0.96666667 0.26666667 0
1 0.26666667 0
0 0.3 0
0.033333333 0.3 0
0.066666667 0.3 0
0.1 0.3 0
0.13333333 0.3 0
0.16666667 0.3 0
0.2 0.3 0
0.23333333 0.3 0
0.26666667 0.3 0
0.3 0.3 0
0.33333333 0.3 0
0.36666667 0.3 0
0.4 0.3 0
0.43333333 0.3 0
0.46666667 0.3 0
0.5 0.3 0
0.53333333 0.3 0
0.56666667 0.3 0
0.6 0.3 0
0.63333333 0.3 0
0.66666667 0.3 0
0.7 0.3 0
0.73333333 0.3 0
0.76666667 0.3 0
0.8 0.3 0
0.83333333 0.3 0
0.86666667 0.3 0
0.9 0.3 0
0.93333333 0.3 0
0.96666667 0.3 0
1 0.3 0
0 0.33333333 0
0.033333333 0.33333333 0
0.066666667 0.33333333 0
0.1 0.33333333 0
0.13333333 0.33333333 0
0.16666667 0.33333333 0
0.2 0.33333333 0
0.23333333 0.33333333 0
0.26666667 0.33333333 0
0.3 0.33333333 0
0.33333333 0.33333333 0
0.36666667 0.33333333 0
0.4 0.33333333 0
0.43333333 0.33333333 0
0.46666667 0.33333333 0
0.5 0.33333333 0
0.53333333 0.33333333 0
0.56666667 0.33333333 0
0.6 0.33333333 0
0.63333333 0.33333333 0
0.66666667 0.33333333 0
0.7 0.33333333 0
0.73333333 0.33333333 0
0.76666667 0.33333333 0
0.8 0.33333333 0
0.83333333 0.33333333 0
0.86666667 0.33333333 0
0.9 0.33333333 0
0.93333333 0.33333333 0
0.96666667 0.33333333 0
1 0.33333333 0
0 0.36666667 0
0.033333333 0.36666667 0
0.066666667 0.36666667 0
0.1 0.36666667 0
0.13333333 0.36666667 0
0.16666667 0.36666667 0
0.2 0.36666667 0
0.23333333 0.36666667 0
0.26666667 0.36666667 0
0.3 0.36666667 0
0.33333333 0.36666667 0
0.36666667 0.36666667 0
0.4 0.36666667 0
0.43333333 0.36666667 0
0.46666667 0.36666667 0
0.5 0.36666667 0
0.53333333 0.36666667 0
0.56666667 0.36666667 0
0.6 0.36666667 0
0.63333333 0.36666667 0
0.66666667 0.36666667 0
0.7 0.36666667 0
0.73333333 0.36666667 0
0.76666667 0.36666667 0
0.8 0.36666667 0
0.83333333 0.36666667 0
0.86666667 0.36666667 0
0.9 0.36666667 0
0.93333333 0.36666667 0
0.96666667 0.36666667 0
1 0.36666667 0
0 0.4 0
0.033333333 0.4 0
0.066666667 0.4 0
0.1 0.4 0
0.13333333 0.4 0
0.16666667 0.4 0
0.2 0.4 0
0.23333333 0.4 0
0.26666667 0.4 0
0.3 0.4 0
0.33333333 0.4 0
0.36666667 0.4 0
0.4 0.4 0
0.43333333 0.4 0
0.46666667 0.4 0
0.5 0.4 0
0.53333333 0.4 0
0.56666667 0.4 0
0.6 0.4 0
0.63333333 0.4 0
0.66666667 0.4 0
0.7 0.4 0
0.73333333 0.4 0
0.76666667 0.4 0
0.8 0.4 0
0.83333333 0.4 0
0.86666667 0.4 0
0.9 0.4 0
0.93333333 0.4 0
0.96666667 0.4 0
1 0.4 0
0 0.43333333 0
0.033333333 0.43333333 0
0.066666667 0.43333333 0
0.1 0.43333333 0
0.13333333 0.43333333 0
0.16666667 0.43333333 0
0.2 0.43333333 0
0.23333333 0.43333333 0
0.26666667 0.43333333 0
0.3 0.43333333 0
0.33333333 0.43333333 0
0.36666667 0.43333333 0
0.4 0.43333333 0
0.43333333 0.43333333 0
0.46666667 0.43333333 0
0.5 0.43333333 0
0.53333333 0.43333333 0
0.56666667 0.43333333 0
0.6 0.43333333 0
0.63333333 0.43333333 0
0.66666667 0.43333333 0
0.7 0.43333333 0
0.73333333 0.43333333 0
0.76666667 0.43333333 0
0.8 0.43333333 0
0.83333333 0.43333333 0
0.86666667 0.43333333 0
0.9 0.43333333 0
0.93333333 0.43333333 0
0.96666667 0.43333333 0
1 0.43333333 0
0 0.46666667 0
0.033333333 0.46666667 0
0.066666667 0.46666667 0
0.1 0.46666667 0
0.13333333 0.46666667 0
0.16666667 0.46666667 0
0.2 0.46666667 0
0.23333333 0.46666667 0
0.26666667 0.46666667 0
0.3 0.46666667 0
0.33333333 0.46666667 0
0.36666667 0.46666667 0
0.4 0.46666667 0
0.43333333 0.46666667 0
0.46666667 0.46666667 0
0.5 0.46666667 0
0.53333333 0.46666667 0
0.56666667 0.46666667 0
0.6 0.46666667 0
0.63333333 0.46666667 0
0.66666667 0.46666667 0
0.7 0.46666667 0
0.73333333 0.46666667 0
0.76666667 0.46666667 0
0.8 0.46666667 0
0.83333333 0.46666667 0
0.86666667 0.46666667 0
0.9 0.46666667 0
0.93333333 0.46666667 0
0.96666667 0.46666667 0
1 0.46666667 0
0 0.5 0
0.033333333 0.5 0
0.066666667 0.5 0
0.1 0.5 0
0.13333333 0.5 0
0.16666667 0.5 0
0.2 0.5 0
0.23333333 0.5 0
0.26666667 0.5 0
0.3 0.5 0
0.33333333 0.5 0
0.36666667 0.5 0
0.4 0.5 0
0.43333333 0.5 0
0.46666667 0.5 0
0.5 0.5 0
0.53333333 0.5 0
0.56666667 0.5 0
0.6 0.5 0
0.63333333 0.5 0
0.66666667 0.5 0
0.7 0.5 0
0.73333333 0.5 0
0.76666667 0.5 0
0.8 0.5 0
0.83333333 0.5 0
0.86666667 0.5 0
0.9 0.5 0
0.93333333 0.5 0
0.96666667 0.5 0
1 0.5 0
0 0.53333333 0
0.033333333 0.53333333 0
0.066666667 0.53333333 0
0.1 0.53333333 0
0.13333333 0.53333333 0
0.16666667 0.53333333 0
0.2 0.53333333 0
0.23333333 0.53333333 0
0.26666667 0.53333333 0
0.3 0.53333333 0
0.33333333 0.53333333 0
0.36666667 0.53333333 0
0.4 0.53333333 0
0.43333333 0.53333333 0
0.46666667 0.53333333 0
0.5 0.53333333 0
0.53333333 0.53333333 0
0.56666667 0.53333333 0
0.6 0.53333333 0
0.63333333 0.53333333 0
0.66666667 0.53333333 0
0.7 0.53333333 0
0.73333333 0.53333333 0
0.76666667 0.53333333 0
[...]
CELL_DATA 1920
Scalars  Label int 1
LOOKUP_TABLE FreeFempp_table
0
0
0
0
0
0
0
0
0
0
0
0
0
0
0
0
0
0
0
0
0
0
0
0
0
0
0
0
0
0
0
0
0
0
0
0
0
0
0
0
0
0
0
0
0
0
0
0
0
0
0
0
0
0
0
0
0
0
0
0
0
0
0
0
0
0
0
0
0
0
0
0
0
0
0
0
0
0
0
0
0
0
0
0
0
0
0
0
0
0
0
0
0
0
0
0
0
0
0
0
0
0
0
0
0
0
0
0
0
0
0
0
0
0
0
0
0
0
0
0
0
0
0
0
0
0
0
0
0
0
0
0
0
0
0
0
0
0
0
0
0
0
0
0
0
0
0
0
0
0
0
0
0
0
0
0
0
0
0
0
0
0
0
0
0
0
0
0
0
0
0
0
0
0
0
0
0
0
0
0
0
0
0
0
0
0
0
0
0
0
0
0
0
0
0
0
0
0
0
0
0
0
0
0
0
0
0
0
0
0
0
0
0
0
0
0
0
0
0
0
0
0
0
0
0
0
0
0
0
0
0
0
0
0
0
0
0
0
0
0
0
0
0
0
0
0
0
0
0
0
0
0
0
0
0
0
0
0
0
0
0
0
0
0
0
0
0
0
0
0
0
0
0
0
0
0
0
0
0
0
0
0
0
0
0
0
0
0
0
0
0
0
0
0
0
0
0
0
0
0
0
0
0
0
0
0
0
0
0
0
0
0
0
0
0
0
0
0
0
0
0
0
0
0
0
0
0
0
0
0
0
0
0
0
0
0
0
0
0
0
0
0
0
0
0
0
0
0
0
0
0
0
0
0
0
0
0
0
0
0
0
0
0
0
0
0
0
0
0
0
0
0
0
0
0
0
0
0
0
0
0
0
0
0
0
0
0
0
0
0
0
0
0
0
0
0
0
0
0
0
0
0
0
0
0
0
0
0
0
0
0
0
0
0
0
0
0
0
0
0
0
0
0
0
0
0
0
0
0
0
0
0
0
0
0
0
0
0
0
0
0
0
0
0
0
0
0
0
0
0
0
0
0
0
0
0
0
0
0
0
0
0
0
0
0
0
0
0
0
0
0
0
0
0
0
0
0
0
0
0
0
0
0
0
0
0
0
0
0
0
0
0
0
0
0
0
0
0
0
0
0
0
0
0
0
0
0
0
0
0
0
0
0
0
0
0
0
0
0
0
0
0
0
0
0
0
0
0
0
0
0
0
0
0
0
0
0
0
0
0
0
0
0
0
0
0
0
0
0
0
0
0
0
0
0
0
0
0
0
0
0
0
0
0
0
0
0
0
0
0
0
0
0
0
0
0
0
0
0
0
0
0
0
0
0
0
0
0
0
0
0
0
0
0
0
0
0
0
0
0
0
0
0
0
0
0
0
0
0
0
0
0
0
0
0
0
0
0
0
0
0
0
0
0
0
0
0
0
0
0
0
0
0
0
0
0
0
0
0
0
0
0
0
0
0
0
0
0
0
0
0
0
0
0
0
0
0
0
0
0
0
0
0
0
0
0
0
0
0
0
0
0
0
0
0
0
0
0
0
0
0
0
0
0
0
0
0
0
0
0
0
0
0
0
0
0
0
0
0
0
0
0
0
0
0
0
0
0
0
0
0
0
0
0
0
0
0
0
0
0
0
0
0
0
0
0
0
0
0
0
0
0
0
0
0
0
0
0
0
0
0
0
0
0
0
0
0
0
0
0
0
0
0
0
0
0
0
0
0
0
0
0
0
0
0
0
0
0
0
0
0
0
0
0
0
0
0
0
0
0
0
0
0
0
0
0
0
0
0
0
0
0
0
0
0
0
0
0
0
0
0
0
0
0
0
0
0
0
0
0
0
0
0
0
0
0
0
0
0
0
0
0
0
0
0
0
0
0
0
0
0
0
0
0
0
0
0
0
0
0
0
0
0
0
0
0
0
0
0
0
0
0
0
0
0
0
0
0
0
0
0
0
0
0
0
0
0
0
0
0
0
0
0
0
0
0
0
0
0
0
0
0
0
0
0
0
0
0
0
0
0
0
0
0
0
0
0
0
0
0
0
0
0
0
0
0
0
0
0
0
0
0
0
0
0
0
0
0
0
0
0
0
0
0
0
0
0
0
0
0
0
0
0
0
0
0
0
0
0
0
0
0
0
0
0
0
0
0
0
0
0
0
0
0
0
0
0
0
0
0
0
0
0
0
0
0
0
0
0
0
0
0
0
0
0
0
0
0
0
0
0
0
0
0
0
0
0
0
0
0
0
0
0
0
0
0
0
0
0
0
0
0
0
0
0
0
0
0
0
0
0
0
0
0
0
0
0
0
0
0
0
0
0
0
0
0
0
0
0
0
0
0
0
0
0
0
0
0
0
0
0
0
0
0
0
0
0
0
0
0
0
0
0
0
0
0
0
0
0
0
0
0
0
0
0
0
0
0
0
0
0
0
0
0
0
0
0
0
0
0
0
0
0
0
0
0
0
0
0
0
0
0
0
0
0
0
0
0
0
0
0
0
0
0
0
0
0
0
0
0
0
0
0
0
0
0
0
0
0
0
0
0
0
0
0
0
0
0
0
0
0
0
0
0
0
0
0
0
0
0
0
0
0
0
0
0
0
0
0
0
0
0
0
0
0
0
0
0
0
0
0
0
0
0
0
0
0
0
0
0
0
0
0
0
0
0
0
0
0
0
0
0
0
0
0
0
0
0
0
0
0
0
0
0
0
0
0
0
0
0
0
0
0
0
0
0
0
0
0
0
0
0
0
0
0
0
0
0
0
0
0
0
0
0
0
0
0
0
0
0
0
0
0
0
0
0
0
0
0
0
0
0
0
0
0
0
0
0
0
0
0
0
0
0
0
0
0
0
0
0
0
0
0
0
0
0
0
0
0
0
0
0
0
0
0
0
0
0
0
0
0
0
0
0
0
0
0
0
0
0
0
0
0
0
0
0
0
0
0
0
0
0
0
0
0
0
0
0
0
0
0
0
0
0
0
0
0
0
0
0
0
0
0
0
0
0
0
0
0
0
0
0
0
0
0
0
0
0
0
0
0
0
0
0
0
0
0
0
0
0
0
0
0
0
0
0
0
0
0
0
0
0
0
0
0
0
0
0
0
0
0
0
0
0
0
0
0
0
0
0
0
0
0
0
0
0
0
0
0
0
0
0
0
0
0
0
0
0
0
0
0
0
0
0
0
0
0
0
0
0
0
0
0
0
0
0
0
0
0
0
0
0
0
0
0
0
0
0
0
0
0
0
0
0
0
0
0
0
0
0
0
0
0
0
0
0
0
0
0
0
0
0
0
0
0
0
0
0
0
0
0
0
0
0
0
0
0
0
0
0
0
0
0
0
0
0
0
0
0
0
0
0
0
0
0
0
0
0
0
0
0
0
0
0
0
0
0
0
0
0
0
0
0
0
0
0
0
0
0
0
0
0
0
0
0
0
0
0
0
0
0
0
0
0
0
0
0
0
0
0
0
0
0
0
0
0
0
0
0
0
0
0
0
0
0
0
0
0
0
0
0
0
0
0
0
0
0
0
0
0
0
0
0
0
0
0
0
0
0
0
0
0
0
0
0
0
0
0
0
0
0
0
0
0
0
0
0
0
0
0
0
0
0
0
0
0
0
0
0
0
0
0
0
0
0
0
0
0
0
0
0
0
0
0
0
0
0
0
0
0
0
0
0
0
0
0
0
0
0
0
0
0
0
0
0
0
0
0
0
0
0
0
0
0
0
0
0
0
0
0
0
0
0
0
0
0
0
0
0
0
0
0
0
0
0
0
0
0
0
0
0
0
0
0
0
0
0
0
0
0
0
0
0
0
0
0
0
0
0
0
0
0
0
0
0
0
0
0
0
0
0
0
0
0
0
0
0
0
0
0
0
0
0
0
0
0
0
0
0
0
0
0
0
0
0
0
0
0
0
0
0
0
0
0
0
0
0
0
0
0
0
0
0
0
0
0
0
0
0
0
0
0
0
0
0
0
0
0
0
0
0
0
0
0
0
0
0
0
0
0
0
0
0
0
0
0
0
0
0
0
0
0
0
0
0
0
0
0
0
0
0
0
0
0
0
0
0
0
0
0
1
1
1
1
1
1
1
1
1
1
1
1
1
1
1
1
1
1
1
1
1
1
1
1
1
1
1
1
1
1
2
2
2
2
2
2
2
2
2
2
2
2
2
2
2
2
2
2
2
2
2
2
2
2
2
2
2
2
2
2
3
3
3
3
3
3
3
3
3
3
3
3
3
3
3
3
3
3
3
3
3
3
3
3
3
3
3
3
3
3
4
4
4
4
4
4
4
4
4
4
4
4
4
4
4
4
4
4
4
4
4
4
4
4
4
4
4
4
4
4

LOOKUP_TABLE FreeFempp_table 5
1.00000000 0.00000000 0.00000000 1.00000000
1.00000000 1.00000000 0.00000000 1.00000000
1.00000000 0.00000000 1.00000000 1.00000000
0.00000000 1.00000000 0.00000000 1.00000000
0.00000000 1.00000000 1.00000000 1.00000000

POINT_DATA 961
FIELD FieldData 1
Density 1 961 float
6.87982468e-03 6.78758044e-03 6.78635156e-03 6.79248292e-03 6.80600991e-03 6.82662008e-03 6.85265940e-03 6.88109221e-03 6.90894667e-03 6.93751639e-03 6.97460491e-03 7.01732747e-03 9.57688224e-03 9.93612707e-01 9.93441045e-01 9.93390024e-01 1.12269975e-01 6.80433027e-03 7.06157647e-03 7.04892399e-03 7.03534717e-03 7.03496952e-03 7.00561237e-03 6.32107973e-01 9.90300477e-01 6.37808489e-03 6.74656359e-03 6.75698649e-03 6.69009192e-03 6.61438471e-03 6.89659966e-03 6.80758012e-03 6.56129979e-03 6.55707344e-03 6.56424509e-03 6.58412743e-03 6.61700033e-03 6.66112266e-03 6.71245204e-03 6.76361611e-03 6.81191683e-03 6.86428230e-03 6.91963453e-03 6.95826812e-03 6.99824560e-03 9.93114293e-01 9.92955863e-01 9.93567228e-01 6.41091494e-03 7.08333310e-03 7.05958623e-03 7.02071004e-03 6.99918997e-03 7.02064577e-03 6.41144719e-03 6.98066270e-03 9.92990613e-01 6.16863649e-03 6.17795391e-03 6.27157046e-03 6.18658401e-03 6.56813988e-03 6.81586098e-03 6.58112578e-03 6.58060983e-03 6.58799242e-03 6.60692994e-03 6.63805520e-03 6.67632837e-03 6.72096759e-03 6.77074539e-03 6.81708008e-03 6.85888529e-03 6.89578708e-03 6.91058813e-03 6.89277146e-03 6.92049321e-03 6.98043127e-03 6.99645933e-03 7.03359442e-03 7.08974432e-03 7.08049117e-03 7.04820920e-03 7.02912081e-03 7.01946532e-03 6.35461090e-03 9.92783487e-01 9.93526578e-01 2.94128917e-02 5.89543162e-03 5.96788246e-03 6.06167829e-03 6.48622587e-03 6.82244543e-03 6.59343740e-03 6.59193378e-03 6.59467932e-03 6.60318369e-03 6.61707716e-03 6.64510205e-03 6.62123738e-03 6.55519450e-03 6.72093593e-03 6.84213452e-03 6.87901350e-03 6.89526973e-03 6.89472491e-03 6.86775055e-03 6.90279156e-03 6.94572600e-03 6.97389524e-03 7.04051647e-03 7.08168605e-03 7.06058135e-03 9.64757148e-03 9.50375199e-01 9.92583632e-01 9.93575633e-01 9.93137240e-01 2.93936998e-01 6.14703353e-03 5.86451869e-03 6.05149567e-03 6.45262888e-03 6.82819821e-03 6.60872087e-03 6.59688050e-03 6.56396244e-03 6.54495647e-03 6.41673384e-03 6.25658035e-03 6.21664478e-03 6.23332802e-03 6.30275486e-03 6.50275080e-03 6.83912821e-03 6.88124308e-03 6.89915335e-03 6.90694991e-03 6.93599274e-03 6.96563395e-03 6.99218642e-03 7.02763349e-03 7.05987494e-03 6.84687821e-03 2.16499582e-01 9.88107741e-01 9.92156804e-01 9.92636919e-01 9.88453746e-01 1.71824157e-01 6.56493101e-03 5.80140995e-03 6.07606536e-03 6.48058625e-03 6.81322394e-03 6.58672117e-03 6.59921020e-03 6.60952087e-03 6.21179165e-03 6.17266074e-03 6.20931853e-03 6.24185149e-03 6.25606999e-03 6.24906318e-03 6.23875810e-03 6.27322309e-03 6.42907480e-03 6.85543893e-03 6.91379560e-03 6.95246551e-03 6.98084664e-03 7.00199557e-03 7.02369912e-03 7.04465946e-03 6.40384946e-03 5.77505790e-02 9.71732616e-01 9.89380002e-01 9.90522683e-01 9.83190119e-01 3.66447896e-01 7.71324290e-03 5.83978370e-03 6.02272339e-03 6.49320101e-03 6.79482985e-03 6.81634434e-03 6.26509450e-03 6.66302722e-03 7.36023998e-03 7.80959986e-03 7.83678144e-03 7.65738450e-03 7.41698919e-03 7.15733739e-03 6.89458940e-03 6.65531959e-03 6.46603806e-03 6.34623878e-03 6.32342184e-03 6.45446964e-03 6.78044884e-03 6.99674897e-03 7.01391324e-03 6.72361301e-03 6.67909021e-03 2.62008384e-02 8.40646386e-01 9.77154911e-01 9.83452320e-01 9.68912005e-01 5.13843238e-01 1.09726833e-02 5.88942878e-03 5.91457635e-03 6.45809341e-03 9.93590176e-01 1.48768034e-02 9.90318596e-01 8.01707745e-01 7.22609341e-01 3.17293257e-01 9.73726064e-02 3.90859209e-02 2.14765240e-02 1.44116664e-02 1.09384060e-02 9.02144518e-03 7.89664499e-03 7.20746163e-03 6.77488698e-03 6.50965935e-03 6.38725096e-03 6.37392793e-03 6.38612546e-03 6.46577496e-03 7.79844262e-03 2.97720022e-02 5.55236995e-01 9.34163749e-01 9.60280180e-01 9.30910468e-01 5.65569818e-01 1.92548931e-02 5.95142366e-03 5.85835334e-03 6.42784499e-03 9.94382262e-01 9.94258821e-01 9.93073404e-01 9.92948592e-01 9.91825461e-01 9.85316038e-01 9.54952002e-01 7.81952858e-01 3.22776675e-01 9.16065127e-02 3.60850170e-02 1.95185449e-02 1.29498737e-02 9.85813886e-03 8.27866700e-03 7.44540477e-03 7.02377968e-03 6.86528999e-03 6.99370122e-03 7.91512989e-03 1.33294640e-02 5.91994897e-02 4.31540012e-01 8.30715656e-01 8.90552521e-01 8.27787042e-01 4.92605954e-01 3.09254881e-02 6.01738179e-03 5.90413949e-03 6.45330176e-03 6.91537326e-03 7.64852762e-02 9.93418634e-01 9.93299782e-01 9.92800832e-01 9.90732312e-01 9.84224439e-01 9.59496319e-01 8.46500218e-01 4.86210346e-01 1.73446715e-01 6.91167712e-02 3.42134126e-02 1.99507046e-02 1.36249606e-02 1.08346380e-02 9.78663284e-03 9.87711269e-03 1.16010951e-02 1.85823347e-02 4.88346145e-02 1.67662874e-01 4.43147659e-01 6.93630099e-01 7.43790329e-01 6.24668062e-01 3.19908381e-01 3.21194157e-02 6.08567800e-03 6.03690324e-03 6.53315987e-03 9.01152380e-03 9.71663091e-03 9.91258800e-01 9.89018261e-01 9.88740921e-01 9.85767007e-01 9.78338301e-01 9.58241463e-01 8.99155736e-01 7.44037032e-01 5.06490052e-01 3.05023313e-01 1.62806273e-01 7.98959434e-02 4.39038202e-02 3.12619209e-02 3.00418567e-02 3.91101055e-02 6.86015487e-02 1.49028063e-01 2.98909813e-01 4.22899872e-01 5.01642346e-01 5.75737059e-01 5.55205047e-01 3.93469006e-01 1.62912652e-01 2.21769679e-02 6.17202418e-03 6.22060848e-03 6.63946709e-03 8.96520913e-03 1.36600211e-02 9.89746489e-03 3.85599919e-02 4.39440966e-01 8.07728946e-01 8.58004153e-01 8.35597754e-01 7.76419818e-01 7.03448951e-01 6.52070165e-01 6.23302221e-01 5.57642519e-01 4.21905577e-01 2.93861002e-01 2.54453033e-01 3.28811467e-01 5.25397837e-01 7.18693018e-01 8.02275300e-01 7.99372017e-01 7.19459355e-01 5.91432691e-01 4.93466437e-01 3.82862151e-01 2.17681170e-01 7.67718703e-02 1.33310016e-02 6.39449107e-03 6.42905990e-03 6.74575660e-03 9.25607327e-03 1.24711180e-02 1.15813464e-02 6.79388177e-03 9.46213584e-03 3.36540155e-02 1.01934850e-01 1.91645727e-01 2.70701319e-01 3.60967726e-01 4.87982154e-01 6.33064091e-01 7.34161258e-01 7.72756696e-01 7.92471468e-01 8.35350156e-01 9.04093266e-01 9.48299766e-01 9.64525878e-01 9.65924203e-01 9.53226328e-01 9.05396223e-01 7.52094746e-01 4.82201427e-01 2.60092109e-01 1.11757070e-01 3.39829475e-02 8.49576853e-03 6.84662396e-03 6.64286362e-03 6.83957897e-03 9.68657155e-03 1.25511605e-02 1.15376692e-02 7.99182430e-03 5.98829752e-03 8.66237469e-03 1.66874733e-02 2.83801183e-02 4.90667038e-02 9.41025093e-02 2.09500864e-01 4.51468229e-01 7.11577892e-01 8.50730836e-01 9.16381896e-01 9.50596213e-01 9.71114278e-01 9.81842875e-01 9.85583246e-01 9.85761225e-01 9.82551515e-01 9.71002460e-01 9.22778606e-01 6.84333265e-01 2.41344601e-01 6.23658709e-02 1.58580076e-02 6.72666775e-03 6.91078557e-03 6.81793131e-03 6.91863894e-03 9.95964091e-03 1.33106438e-02 1.13116223e-02 9.47300717e-03 6.90675573e-03 7.61212176e-03 1.23853199e-02 1.31553384e-02 1.84151027e-02 3.26966308e-02 7.99813941e-02 2.54731983e-01 6.14782453e-01 8.49427760e-01 9.39511836e-01 9.65152264e-01 9.81702089e-01 9.87382829e-01 9.89737511e-01 9.90299821e-01 9.89813745e-01 9.87790346e-01 9.81067121e-01 9.49474335e-01 6.79781854e-01 8.70277286e-02 1.13323964e-02 6.39388431e-03 6.94511691e-03 6.91442611e-03 6.96967263e-03 9.99216363e-03 1.34770041e-02 1.09496526e-02 8.20803456e-03 7.37660751e-03 9.24948603e-03 1.28180236e-02 8.71973671e-03 1.03049101e-02 1.64934378e-02 3.49503830e-02 1.15831822e-01 4.34166700e-01 7.96996593e-01 9.19325709e-01 9.60095346e-01 9.81517494e-01 9.88382161e-01 9.90750730e-01 9.91645157e-01 9.91921365e-01 9.91816998e-01 9.91188526e-01 9.89174485e-01 9.80496705e-01 8.56182635e-01 2.62380932e-02 6.42852904e-03 6.96466491e-03 6.95447018e-03 6.99603325e-03 9.70805343e-03 1.26048336e-02 9.50229075e-03 7.53676565e-03 8.51766951e-03 1.01605803e-02 8.78168177e-03 5.45604341e-03 6.70587737e-03 1.04659442e-02 1.84598416e-02 4.77316193e-02 1.98770776e-01 6.18813396e-01 8.86637866e-01 9.52365935e-01 9.79632378e-01 9.87044215e-01 9.90413904e-01 9.91840541e-01 9.92502689e-01 9.92833257e-01 9.92976725e-01 9.92963910e-01 9.92704153e-01 9.91552889e-01 9.77350533e-01 2.68862993e-02 6.78320136e-03 6.95942435e-03 7.00684451e-03 8.89831968e-03 1.02337748e-02 8.72060377e-03 7.58109009e-03 1.38604082e-02 1.53721040e-02 8.91815126e-03 5.64065203e-03 6.14253152e-03 8.37905984e-03 1.20837456e-02 2.25843955e-02 6.71429336e-02 2.75779605e-01 6.86823428e-01 9.01941299e-01 9.62140918e-01 9.80676174e-01 9.87931907e-01 9.90969479e-01 9.92335141e-01 9.93001223e-01 9.93346810e-01 9.93519664e-01 9.93583024e-01 9.93575573e-01 9.93483305e-01 9.92885947e-01 9.91617858e-01 6.96448702e-03 7.00170500e-03 7.49651249e-03 6.94511086e-03 8.09844304e-03 9.03408509e-03 2.94268858e-02 2.28357166e-02 9.23100300e-03 6.30918238e-03 6.51261071e-03 7.86942057e-03 9.44959559e-03 1.32450778e-02 2.55177449e-02 7.15511590e-02 2.43320659e-01 5.98280370e-01 8.55338156e-01 9.45280015e-01 9.75563109e-01 9.86613512e-01 9.90853488e-01 9.92544174e-01 9.93270457e-01 9.93572354e-01 9.93602216e-01 9.93441641e-01 9.93237019e-01 9.93206382e-01 9.92800534e-01 4.09259610e-02 6.74285227e-03 6.37523923e-03 5.08905808e-03 7.35704647e-03 1.30099356e-02 5.21639772e-02 2.09144615e-02 8.28669593e-03 6.35589613e-03 6.49581198e-03 7.61864055e-03 8.34885705e-03 9.54726897e-03 1.31127033e-02 2.27236580e-02 4.85992059e-02 1.19551226e-01 3.00937057e-01 6.13441944e-01 8.61303389e-01 9.55076337e-01 9.81896162e-01 9.89853621e-01 9.92415786e-01 9.93332803e-01 9.93602335e-01 9.93439436e-01 9.92959023e-01 9.92953181e-01 9.92882252e-01 9.92586792e-01 9.83861864e-01 5.79502806e-03 4.74184705e-03 6.34822110e-03 1.86992660e-02 4.28463630e-02 1.31389210e-02 7.63911055e-03 6.61612581e-03 6.62073633e-03 7.37458002e-03 7.81951752e-03 8.02989211e-03 9.01034474e-03 1.14968829e-02 1.64365806e-02 2.57359557e-02 4.39664796e-02 8.55147690e-02 2.03018010e-01 5.15004575e-01 8.50043237e-01 9.59967017e-01 9.84734237e-01 9.91079271e-01 9.92909312e-01 9.93469238e-01 9.93552268e-01 9.93521273e-01 9.92555678e-01 9.89945471e-01 9.92811978e-01 5.40090911e-03 4.79178503e-03 5.62715996e-03 2.09777486e-02 2.02987045e-02 8.73023178e-03 7.31684547e-03 7.01749604e-03 7.11678434e-03 7.47417705e-03 7.63201667e-03 7.32768001e-03 7.39716273e-03 8.24510213e-03 9.66703240e-03 1.17215570e-02 1.46336695e-02 1.92359313e-02 2.77942885e-02 4.64823879e-02 9.65170190e-02 2.51819581e-01 6.08863473e-01 8.87326181e-01 9.64467824e-01 9.79923546e-01 9.72541392e-01 6.29277110e-01 9.26949829e-02 6.59626676e-03 9.46833313e-01 5.24966838e-03 4.95999958e-03 5.39764808e-03 2.05971859e-02 1.18997060e-02 7.05670705e-03 6.71377080e-03 7.06976885e-03 7.41150975e-03 7.69706815e-03 7.69726140e-03 7.04104966e-03 6.61651744e-03 7.05833174e-03 7.80645059e-03 8.59925896e-03 9.43168532e-03 1.02479095e-02 1.13253715e-02 1.24575617e-02 1.42271295e-02 1.72645226e-02 1.89082660e-02 2.11319700e-02 2.50385012e-02 1.85557660e-02 5.88070136e-03 4.14486602e-03 4.89415601e-03 4.93666483e-03 6.25410536e-03 5.15930401e-03 5.11747645e-03 5.30947838e-03 2.08119843e-02 9.57923383e-03 6.49175467e-03 5.94213372e-03 6.53020060e-03 7.27255875e-03 7.69820996e-03 7.63937039e-03 6.81527471e-03 6.12490345e-03 6.41377736e-03 7.15073617e-03 7.68730976e-03 8.15218128e-03 8.81420914e-03 9.58488230e-03 8.95190891e-03 5.63602243e-03 1.23893265e-02 1.55820297e-02 8.71920493e-03 7.57644419e-03 6.68381853e-03 3.44971847e-03 2.84018670e-03 2.78888224e-03 2.33524130e-03 4.63486975e-03 4.99827554e-03 5.02006663e-03 6.24410762e-03 2.86664106e-02 7.70038273e-03 6.26032241e-03 5.44808526e-03 5.80573548e-03 6.92506973e-03 7.59438053e-03 7.52542960e-03 6.62338734e-03 5.73496008e-03 5.80490893e-03 6.63536973e-03 7.27612106e-03 7.52746686e-03 8.16912856e-03 1.02366889e-02 1.13363611e-02 6.06218260e-03 4.08168742e-03 2.08527260e-02 1.04489783e-02 1.09646264e-02 1.52846053e-02 6.19512470e-03 5.19547565e-03 4.75526741e-03 3.57537461e-03 3.90304788e-03 5.37386211e-03 5.05634863e-03 1.56374052e-02 4.98759970e-02 7.21383234e-03 6.61774864e-03 5.32540586e-03 5.25714690e-03 6.49763411e-03 7.34716840e-03 7.39750452e-03 6.70404453e-03 5.71708847e-03 5.36974752e-03 5.97135210e-03 6.76716398e-03 7.05653429e-03 7.06652133e-03 8.70465860e-03 1.26351435e-02 9.71764419e-03 4.16966481e-03 7.84679502e-03 1.30867586e-02 7.78977154e-03 1.22712851e-02 1.75893959e-02 1.82965714e-02 2.14105099e-02 2.08873078e-02 9.67436191e-03 5.85349090e-03 5.44436229e-03 1.69756021e-02 5.88982739e-02 7.82298204e-03 7.47049972e-03 5.68472221e-03 4.78645507e-03 6.09301776e-03 7.06389733e-03 7.11546186e-03 6.84171868e-03 6.10772846e-03 5.48873050e-03 5.57276094e-03 6.15307270e-03 6.55020960e-03 6.28998736e-03 6.38379622e-03 9.28705372e-03 1.27833504e-02 7.45063322e-03 4.64333361e-03 9.47139040e-03 1.10972552e-02 6.35332987e-03 7.46423146e-03 1.16145331e-02 1.69430543e-02 2.21096016e-02 1.49041684e-02 6.70145638e-03 6.27526501e-03 1.41473580e-02 1.53629510e-02 7.64556369e-03 7.43533811e-03 6.38267398e-03 4.35504969e-03 5.79078496e-03 6.92765089e-03 6.75850315e-03 6.70448877e-03 6.46049809e-03 6.02657208e-03 5.85304294e-03 6.06351672e-03 6.32729102e-03 6.12515025e-03 5.42165758e-03 5.91101591e-03 9.13966354e-03 1.11666145e-02 7.88482837e-03 7.40677863e-03 1.27299754e-02 7.60551216e-03 5.60540333e-03 5.90895489e-03 3.45432967e-01 8.90751090e-03 8.91022384e-03 5.51413139e-03 6.27710344e-03 9.93325651e-01 2.77787913e-02 6.27020374e-03 6.75634434e-03 6.74365042e-03 3.95777775e-03 5.63404709e-03 7.01718405e-03 6.24580868e-03 6.18441077e-03 6.35351613e-03 6.34321105e-03 6.34077238e-03 6.46550907e-03 6.62819296e-03 6.57438347e-03 6.04863977e-03 5.56802005e-03 6.54475531e-03 9.03260894e-03 9.65146255e-03 8.40755831e-03 8.90907552e-03 8.95587262e-03 6.64451020e-03 9.84994054e-01 9.92615938e-01 8.66413303e-03 8.63024592e-03 8.89267400e-03 5.67610748e-03 9.92956161e-01 9.93608296e-01 1.26744770e-02 1.10711399e-02 5.25874365e-03 3.39732249e-03 5.43094706e-03 6.83071464e-03 5.47409058e-03 5.43575501e-03 5.97587274e-03 6.29043346e-03 6.50516385e-03 6.77521760e-03 7.06748711e-03 7.25159654e-03 7.14244973e-03 6.65565068e-03 6.37763413e-03 7.03724846e-03 8.31288844e-03 8.14342685e-03 6.62920484e-03 5.93351759e-03 1.59736902e-01 9.93600488e-01 9.92956042e-01 1.09333117e-02 8.99921451e-03 2.29289696e-01 7.12128803e-02 9.92958605e-01 6.97660865e-03 1.03939008e-02 9.90162976e-03 6.66887825e-03 3.65349324e-03 4.76776389e-03 5.96028147e-03 5.24157844e-03 5.16652409e-03 5.94349718e-03 6.26734737e-03 6.35993108e-03 6.43684343e-03 6.52729161e-03 6.60302723e-03 6.59778807e-03 6.44061435e-03 6.15782663e-03 6.04923675e-03 6.50991499e-03 7.17623392e-03 6.80637266e-03 5.77814179e-03 5.92343742e-03 3.50149125e-01 9.92956579e-01 8.49818718e-03 9.48058069e-03 
