# vtk DataFile Version 2.0
results_case1_non_linear/iter2.vtk, Created by Freefem++ 
ASCII
DATASET UNSTRUCTURED_GRID
POINTS 961 float
0 0 0
0.033333333 0 0
0.066666667 0 0
0.1 0 0
0.13333333 0 0
0.16666667 0 0
0.2 0 0
0.23333333 0 0
0.26666667 0 0
0.3 0 0
0.33333333 0 0
0.36666667 0 0
0.4 0 0
0.43333333 0 0
0.46666667 0 0
0.5 0 0
0.53333333 0 0
0.56666667 0 0
0.6 0 0
0.63333333 0 0
0.66666667 0 0
0.7 0 0
0.73333333 0 0
0.76666667 0 0
0.8 0 0
0.83333333 0 0
0.86666667 0 0
0.9 0 0
0.93333333 0 0
0.96666667 0 0
1 0 0
0 0.033333333 0
0.033333333 0.033333333 0
0.066666667 0.033333333 0
0.1 0.033333333 0
0.13333333 0.033333333 0
0.16666667 0.033333333 0
0.2 0.033333333 0
0.23333333 0.033333333 0
0.26666667 0.033333333 0
0.3 0.033333333 0
0.33333333 0.033333333 0
0.36666667 0.033333333 0
0.4 0.033333333 0
0.43333333 0.033333333 0
0.46666667 0.033333333 0
0.5 0.033333333 0
0.53333333 0.033333333 0
0.56666667 0.033333333 0
0.6 0.033333333 0
0.63333333 0.033333333 0
0.66666667 0.033333333 0
0.7 0.033333333 0
0.73333333 0.033333333 0
0.76666667 0.033333333 0
0.8 0.033333333 0
0.83333333 0.033333333 0
0.86666667 0.033333333 0
0.9 0.033333333 0
0.93333333 0.033333333 0
0.96666667 0.033333333 0
1 0.033333333 0
0 0.066666667 0
0.033333333 0.066666667 0
0.066666667 0.066666667 0
0.1 0.066666667 0
0.13333333 0.066666667 0
0.16666667 0.066666667 0
0.2 0.066666667 0
0.23333333 0.066666667 0
0.26666667 0.066666667 0
0.3 0.066666667 0
0.33333333 0.066666667 0
0.36666667 0.066666667 0
0.4 0.066666667 0
0.43333333 0.066666667 0
0.46666667 0.066666667 0
0.5 0.066666667 0
0.53333333 0.066666667 0
0.56666667 0.066666667 0
0.6 0.066666667 0
0.63333333 0.066666667 0
0.66666667 0.066666667 0
0.7 0.066666667 0
0.73333333 0.066666667 0
0.76666667 0.066666667 0
0.8 0.066666667 0
0.83333333 0.066666667 0
0.86666667 0.066666667 0
0.9 0.066666667 0
0.93333333 0.066666667 0
0.96666667 0.066666667 0
1 0.066666667 0
0 0.1 0
0.033333333 0.1 0
0.066666667 0.1 0
0.1 0.1 0
0.13333333 0.1 0
0.16666667 0.1 0
0.2 0.1 0
0.23333333 0.1 0
0.26666667 0.1 0
0.3 0.1 0
0.33333333 0.1 0
0.36666667 0.1 0
0.4 0.1 0
0.43333333 0.1 0
0.46666667 0.1 0
0.5 0.1 0
0.53333333 0.1 0
0.56666667 0.1 0
0.6 0.1 0
0.63333333 0.1 0
0.66666667 0.1 0
0.7 0.1 0
0.73333333 0.1 0
0.76666667 0.1 0
0.8 0.1 0
0.83333333 0.1 0
0.86666667 0.1 0
0.9 0.1 0
0.93333333 0.1 0
0.96666667 0.1 0
1 0.1 0
0 0.13333333 0
0.033333333 0.13333333 0
0.066666667 0.13333333 0
0.1 0.13333333 0
0.13333333 0.13333333 0
0.16666667 0.13333333 0
0.2 0.13333333 0
0.23333333 0.13333333 0
0.26666667 0.13333333 0
0.3 0.13333333 0
0.33333333 0.13333333 0
0.36666667 0.13333333 0
0.4 0.13333333 0
0.43333333 0.13333333 0
0.46666667 0.13333333 0
0.5 0.13333333 0
0.53333333 0.13333333 0
0.56666667 0.13333333 0
0.6 0.13333333 0
0.63333333 0.13333333 0
0.66666667 0.13333333 0
0.7 0.13333333 0
0.73333333 0.13333333 0
0.76666667 0.13333333 0
0.8 0.13333333 0
0.83333333 0.13333333 0
0.86666667 0.13333333 0
0.9 0.13333333 0
0.93333333 0.13333333 0
0.96666667 0.13333333 0
1 0.13333333 0
0 0.16666667 0
0.033333333 0.16666667 0
0.066666667 0.16666667 0
0.1 0.16666667 0
0.13333333 0.16666667 0
0.16666667 0.16666667 0
0.2 0.16666667 0
0.23333333 0.16666667 0
0.26666667 0.16666667 0
0.3 0.16666667 0
0.33333333 0.16666667 0
0.36666667 0.16666667 0
0.4 0.16666667 0
0.43333333 0.16666667 0
0.46666667 0.16666667 0
0.5 0.16666667 0
0.53333333 0.16666667 0
0.56666667 0.16666667 0
0.6 0.16666667 0
0.63333333 0.16666667 0
0.66666667 0.16666667 0
0.7 0.16666667 0
0.73333333 0.16666667 0
0.76666667 0.16666667 0
0.8 0.16666667 0
0.83333333 0.16666667 0
0.86666667 0.16666667 0
0.9 0.16666667 0
0.93333333 0.16666667 0
0.96666667 0.16666667 0
1 0.16666667 0
0 0.2 0
0.033333333 0.2 0
0.066666667 0.2 0
0.1 0.2 0
0.13333333 0.2 0
0.16666667 0.2 0
0.2 0.2 0
0.23333333 0.2 0
0.26666667 0.2 0
0.3 0.2 0
0.33333333 0.2 0
0.36666667 0.2 0
0.4 0.2 0
0.43333333 0.2 0
0.46666667 0.2 0
0.5 0.2 0
0.53333333 0.2 0
0.56666667 0.2 0
0.6 0.2 0
0.63333333 0.2 0
0.66666667 0.2 0
0.7 0.2 0
0.73333333 0.2 0
0.76666667 0.2 0
0.8 0.2 0
0.83333333 0.2 0
0.86666667 0.2 0
0.9 0.2 0
0.93333333 0.2 0
0.96666667 0.2 0
1 0.2 0
0 0.23333333 0
0.033333333 0.23333333 0
0.066666667 0.23333333 0
0.1 0.23333333 0
0.13333333 0.23333333 0
0.16666667 0.23333333 0
0.2 0.23333333 0
0.23333333 0.23333333 0
0.26666667 0.23333333 0
0.3 0.23333333 0
0.33333333 0.23333333 0
0.36666667 0.23333333 0
0.4 0.23333333 0
0.43333333 0.23333333 0
0.46666667 0.23333333 0
0.5 0.23333333 0
0.53333333 0.23333333 0
0.56666667 0.23333333 0
0.6 0.23333333 0
0.63333333 0.23333333 0
0.66666667 0.23333333 0
0.7 0.23333333 0
0.73333333 0.23333333 0
0.76666667 0.23333333 0
0.8 0.23333333 0
0.83333333 0.23333333 0
0.86666667 0.23333333 0
0.9 0.23333333 0
0.93333333 0.23333333 0
0.96666667 0.23333333 0
1 0.23333333 0
0 0.26666667 0
0.033333333 0.26666667 0
0.066666667 0.26666667 0
0.1 0.26666667 0
0.13333333 0.26666667 0
0.16666667 0.26666667 0
0.2 0.26666667 0
0.23333333 0.26666667 0
0.26666667 0.26666667 0
0.3 0.26666667 0
0.33333333 0.26666667 0
0.36666667 0.26666667 0
0.4 0.26666667 0
0.43333333 0.26666667 0
0.46666667 0.26666667 0
0.5 0.26666667 0
0.53333333 0.26666667 0
0.56666667 0.26666667 0
0.6 0.26666667 0
0.63333333 0.26666667 0
0.66666667 0.26666667 0
0.7 0.26666667 0
0.73333333 0.26666667 0
0.76666667 0.26666667 0
0.8 0.26666667 0
0.83333333 0.26666667 0
0.86666667 0.26666667 0
0.9 0.26666667 0
0.93333333 0.26666667 0
0.96666667 0.26666667 0
1 0.26666667 0
0 0.3 0
0.033333333 0.3 0
0.066666667 0.3 0
0.1 0.3 0
0.13333333 0.3 0
0.16666667 0.3 0
0.2 0.3 0
0.23333333 0.3 0
0.26666667 0.3 0
0.3 0.3 0
0.33333333 0.3 0
0.36666667 0.3 0
0.4 0.3 0
0.43333333 0.3 0
0.46666667 0.3 0
0.5 0.3 0
0.53333333 0.3 0
0.56666667 0.3 0
0.6 0.3 0
0.63333333 0.3 0
0.66666667 0.3 0
0.7 0.3 0
0.73333333 0.3 0
0.76666667 0.3 0
0.8 0.3 0
0.83333333 0.3 0
0.86666667 0.3 0
0.9 0.3 0
0.93333333 0.3 0
0.96666667 0.3 0
1 0.3 0
0 0.33333333 0
0.033333333 0.33333333 0
0.066666667 0.33333333 0
0.1 0.33333333 0
0.13333333 0.33333333 0
0.16666667 0.33333333 0
0.2 0.33333333 0
0.23333333 0.33333333 0
0.26666667 0.33333333 0
0.3 0.33333333 0
0.33333333 0.33333333 0
0.36666667 0.33333333 0
0.4 0.33333333 0
0.43333333 0.33333333 0
0.46666667 0.33333333 0
0.5 0.33333333 0
0.53333333 0.33333333 0
0.56666667 0.33333333 0
0.6 0.33333333 0
0.63333333 0.33333333 0
0.66666667 0.33333333 0
0.7 0.33333333 0
0.73333333 0.33333333 0
0.76666667 0.33333333 0
0.8 0.33333333 0
0.83333333 0.33333333 0
0.86666667 0.33333333 0
0.9 0.33333333 0
0.93333333 0.33333333 0
0.96666667 0.33333333 0
1 0.33333333 0
0 0.36666667 0
0.033333333 0.36666667 0
0.066666667 0.36666667 0
0.1 0.36666667 0
0.13333333 0.36666667 0
0.16666667 0.36666667 0
0.2 0.36666667 0
0.23333333 0.36666667 0
0.26666667 0.36666667 0
0.3 0.36666667 0
0.33333333 0.36666667 0
0.36666667 0.36666667 0
0.4 0.36666667 0
0.43333333 0.36666667 0
0.46666667 0.36666667 0
0.5 0.36666667 0
0.53333333 0.36666667 0
0.56666667 0.36666667 0
0.6 0.36666667 0
0.63333333 0.36666667 0
0.66666667 0.36666667 0
0.7 0.36666667 0
0.73333333 0.36666667 0
0.76666667 0.36666667 0
0.8 0.36666667 0
0.83333333 0.36666667 0
0.86666667 0.36666667 0
0.9 0.36666667 0
0.93333333 0.36666667 0
0.96666667 0.36666667 0
1 0.36666667 0
0 0.4 0
0.033333333 0.4 0
0.066666667 0.4 0
0.1 0.4 0
0.13333333 0.4 0
0.16666667 0.4 0
0.2 0.4 0
0.23333333 0.4 0
0.26666667 0.4 0
0.3 0.4 0
0.33333333 0.4 0
0.36666667 0.4 0
0.4 0.4 0
0.43333333 0.4 0
0.46666667 0.4 0
0.5 0.4 0
0.53333333 0.4 0
0.56666667 0.4 0
0.6 0.4 0
0.63333333 0.4 0
0.66666667 0.4 0
0.7 0.4 0
0.73333333 0.4 0
0.76666667 0.4 0
0.8 0.4 0
0.83333333 0.4 0
0.86666667 0.4 0
0.9 0.4 0
0.93333333 0.4 0
0.96666667 0.4 0
1 0.4 0
0 0.43333333 0
0.033333333 0.43333333 0
0.066666667 0.43333333 0
0.1 0.43333333 0
0.13333333 0.43333333 0
0.16666667 0.43333333 0
0.2 0.43333333 0
0.23333333 0.43333333 0
0.26666667 0.43333333 0
0.3 0.43333333 0
0.33333333 0.43333333 0
0.36666667 0.43333333 0
0.4 0.43333333 0
0.43333333 0.43333333 0
0.46666667 0.43333333 0
0.5 0.43333333 0
0.53333333 0.43333333 0
0.56666667 0.43333333 0
0.6 0.43333333 0
0.63333333 0.43333333 0
0.66666667 0.43333333 0
0.7 0.43333333 0
0.73333333 0.43333333 0
0.76666667 0.43333333 0
0.8 0.43333333 0
0.83333333 0.43333333 0
0.86666667 0.43333333 0
0.9 0.43333333 0
0.93333333 0.43333333 0
0.96666667 0.43333333 0
1 0.43333333 0
0 0.46666667 0
0.033333333 0.46666667 0
0.066666667 0.46666667 0
0.1 0.46666667 0
0.13333333 0.46666667 0
0.16666667 0.46666667 0
0.2 0.46666667 0
0.23333333 0.46666667 0
0.26666667 0.46666667 0
0.3 0.46666667 0
0.33333333 0.46666667 0
0.36666667 0.46666667 0
0.4 0.46666667 0
0.43333333 0.46666667 0
0.46666667 0.46666667 0
0.5 0.46666667 0
0.53333333 0.46666667 0
0.56666667 0.46666667 0
0.6 0.46666667 0
0.63333333 0.46666667 0
0.66666667 0.46666667 0
0.7 0.46666667 0
0.73333333 0.46666667 0
0.76666667 0.46666667 0
0.8 0.46666667 0
0.83333333 0.46666667 0
0.86666667 0.46666667 0
0.9 0.46666667 0
0.93333333 0.46666667 0
0.96666667 0.46666667 0
1 0.46666667 0
0 0.5 0
0.033333333 0.5 0
0.066666667 0.5 0
0.1 0.5 0
0.13333333 0.5 0
0.16666667 0.5 0
0.2 0.5 0
0.23333333 0.5 0
0.26666667 0.5 0
0.3 0.5 0
0.33333333 0.5 0
0.36666667 0.5 0
0.4 0.5 0
0.43333333 0.5 0
0.46666667 0.5 0
0.5 0.5 0
0.53333333 0.5 0
0.56666667 0.5 0
0.6 0.5 0
0.63333333 0.5 0
0.66666667 0.5 0
0.7 0.5 0
0.73333333 0.5 0
0.76666667 0.5 0
0.8 0.5 0
0.83333333 0.5 0
0.86666667 0.5 0
0.9 0.5 0
0.93333333 0.5 0
0.96666667 0.5 0
1 0.5 0
0 0.53333333 0
0.033333333 0.53333333 0
0.066666667 0.53333333 0
0.1 0.53333333 0
0.13333333 0.53333333 0
0.16666667 0.53333333 0
0.2 0.53333333 0
0.23333333 0.53333333 0
0.26666667 0.53333333 0
0.3 0.53333333 0
0.33333333 0.53333333 0
0.36666667 0.53333333 0
0.4 0.53333333 0
0.43333333 0.53333333 0
0.46666667 0.53333333 0
0.5 0.53333333 0
0.53333333 0.53333333 0
0.56666667 0.53333333 0
0.6 0.53333333 0
0.63333333 0.53333333 0
0.66666667 0.53333333 0
0.7 0.53333333 0
0.73333333 0.53333333 0
0.76666667 0.53333333 0
[...]
CELL_DATA 1920
Scalars  Label int 1
LOOKUP_TABLE FreeFempp_table
0
0
0
0
0
0
0
0
0
0
0
0
0
0
0
0
0
0
0
0
0
0
0
0
0
0
0
0
0
0
0
0
0
0
0
0
0
0
0
0
0
0
0
0
0
0
0
0
0
0
0
0
0
0
0
0
0
0
0
0
0
0
0
0
0
0
0
0
0
0
0
0
0
0
0
0
0
0
0
0
0
0
0
0
0
0
0
0
0
0
0
0
0
0
0
0
0
0
0
0
0
0
0
0
0
0
0
0
0
0
0
0
0
0
0
0
0
0
0
0
0
0
0
0
0
0
0
0
0
0
0
0
0
0
0
0
0
0
0
0
0
0
0
0
0
0
0
0
0
0
0
0
0
0
0
0
0
0
0
0
0
0
0
0
0
0
0
0
0
0
0
0
0
0
0
0
0
0
0
0
0
0
0
0
0
0
0
0
0
0
0
0
0
0
0
0
0
0
0
0
0
0
0
0
0
0
0
0
0
0
0
0
0
0
0
0
0
0
0
0
0
0
0
0
0
0
0
0
0
0
0
0
0
0
0
0
0
0
0
0
0
0
0
0
0
0
0
0
0
0
0
0
0
0
0
0
0
0
0
0
0
0
0
0
0
0
0
0
0
0
0
0
0
0
0
0
0
0
0
0
0
0
0
0
0
0
0
0
0
0
0
0
0
0
0
0
0
0
0
0
0
0
0
0
0
0
0
0
0
0
0
0
0
0
0
0
0
0
0
0
0
0
0
0
0
0
0
0
0
0
0
0
0
0
0
0
0
0
0
0
0
0
0
0
0
0
0
0
0
0
0
0
0
0
0
0
0
0
0
0
0
0
0
0
0
0
0
0
0
0
0
0
0
0
0
0
0
0
0
0
0
0
0
0
0
0
0
0
0
0
0
0
0
0
0
0
0
0
0
0
0
0
0
0
0
0
0
0
0
0
0
0
0
0
0
0
0
0
0
0
0
0
0
0
0
0
0
0
0
0
0
0
0
0
0
0
0
0
0
0
0
0
0
0
0
0
0
0
0
0
0
0
0
0
0
0
0
0
0
0
0
0
0
0
0
0
0
0
0
0
0
0
0
0
0
0
0
0
0
0
0
0
0
0
0
0
0
0
0
0
0
0
0
0
0
0
0
0
0
0
0
0
0
0
0
0
0
0
0
0
0
0
0
0
0
0
0
0
0
0
0
0
0
0
0
0
0
0
0
0
0
0
0
0
0
0
0
0
0
0
0
0
0
0
0
0
0
0
0
0
0
0
0
0
0
0
0
0
0
0
0
0
0
0
0
0
0
0
0
0
0
0
0
0
0
0
0
0
0
0
0
0
0
0
0
0
0
0
0
0
0
0
0
0
0
0
0
0
0
0
0
0
0
0
0
0
0
0
0
0
0
0
0
0
0
0
0
0
0
0
0
0
0
0
0
0
0
0
0
0
0
0
0
0
0
0
0
0
0
0
0
0
0
0
0
0
0
0
0
0
0
0
0
0
0
0
0
0
0
0
0
0
0
0
0
0
0
0
0
0
0
0
0
0
0
0
0
0
0
0
0
0
0
0
0
0
0
0
0
0
0
0
0
0
0
0
0
0
0
0
0
0
0
0
0
0
0
0
0
0
0
0
0
0
0
0
0
0
0
0
0
0
0
0
0
0
0
0
0
0
0
0
0
0
0
0
0
0
0
0
0
0
0
0
0
0
0
0
0
0
0
0
0
0
0
0
0
0
0
0
0
0
0
0
0
0
0
0
0
0
0
0
0
0
0
0
0
0
0
0
0
0
0
0
0
0
0
0
0
0
0
0
0
0
0
0
0
0
0
0
0
0
0
0
0
0
0
0
0
0
0
0
0
0
0
0
0
0
0
0
0
0
0
0
0
0
0
0
0
0
0
0
0
0
0
0
0
0
0
0
0
0
0
0
0
0
0
0
0
0
0
0
0
0
0
0
0
0
0
0
0
0
0
0
0
0
0
0
0
0
0
0
0
0
0
0
0
0
0
0
0
0
0
0
0
0
0
0
0
0
0
0
0
0
0
0
0
0
0
0
0
0
0
0
0
0
0
0
0
0
0
0
0
0
0
0
0
0
0
0
0
0
0
0
0
0
0
0
0
0
0
0
0
0
0
0
0
0
0
0
0
0
0
0
0
0
0
0
0
0
0
0
0
0
0
0
0
0
0
0
0
0
0
0
0
0
0
0
0
0
0
0
0
0
0
0
0
0
0
0
0
0
0
0
0
0
0
0
0
0
0
0
0
0
0
0
0
0
0
0
0
0
0
0
0
0
0
0
0
0
0
0
0
0
0
0
0
0
0
0
0
0
0
0
0
0
0
0
0
0
0
0
0
0
0
0
0
0
0
0
0
0
0
0
0
0
0
0
0
0
0
0
0
0
0
0
0
0
0
0
0
0
0
0
0
0
0
0
0
0
0
0
0
0
0
0
0
0
0
0
0
0
0
0
0
0
0
0
0
0
0
0
0
0
0
0
0
0
0
0
0
0
0
0
0
0
0
0
0
0
0
0
0
0
0
0
0
0
0
0
0
0
0
0
0
0
0
0
0
0
0
0
0
0
0
0
0
0
0
0
0
0
0
0
0
0
0
0
0
0
0
0
0
0
0
0
0
0
0
0
0
0
0
0
0
0
0
0
0
0
0
0
0
0
0
0
0
0
0
0
0
0
0
0
0
0
0
0
0
0
0
0
0
0
0
0
0
0
0
0
0
0
0
0
0
0
0
0
0
0
0
0
0
0
0
0
0
0
0
0
0
0
0
0
0
0
0
0
0
0
0
0
0
0
0
0
0
0
0
0
0
0
0
0
0
0
0
0
0
0
0
0
0
0
0
0
0
0
0
0
0
0
0
0
0
0
0
0
0
0
0
0
0
0
0
0
0
0
0
0
0
0
0
0
0
0
0
0
0
0
0
0
0
0
0
0
0
0
0
0
0
0
0
0
0
0
0
0
0
0
0
0
0
0
0
0
0
0
0
0
0
0
0
0
0
0
0
0
0
0
0
0
0
0
0
0
0
0
0
0
0
0
0
0
0
0
0
0
0
0
0
0
0
0
0
0
0
0
0
0
0
0
0
0
0
0
0
0
0
0
0
0
0
0
0
0
0
0
0
0
0
0
0
0
0
0
0
0
0
0
0
0
0
0
0
0
0
0
0
0
0
0
0
0
0
0
0
0
0
0
0
0
0
0
0
0
0
0
0
0
0
0
0
0
0
0
0
0
0
0
0
0
0
0
0
0
0
0
0
0
0
0
0
0
0
0
0
0
0
0
0
0
0
0
0
0
0
0
0
0
0
0
0
0
0
0
0
0
0
0
0
0
0
0
0
0
0
0
0
0
0
0
0
0
0
0
0
0
0
0
0
0
0
0
0
0
0
0
0
0
0
0
0
0
0
0
0
0
0
0
0
0
0
0
0
0
0
0
0
0
0
0
0
0
0
0
0
0
0
0
0
0
0
0
0
0
0
0
0
0
0
0
0
0
0
0
0
0
0
0
0
0
0
0
0
0
0
0
0
0
0
0
0
0
0
0
0
0
0
0
0
0
0
0
0
0
0
0
0
0
0
0
0
0
0
0
0
0
0
0
0
0
0
0
0
0
0
0
0
0
0
0
0
0
0
0
0
0
0
0
0
0
0
0
0
0
0
0
0
0
0
0
0
0
0
0
0
0
0
0
0
0
0
0
0
0
0
0
0
0
0
0
0
0
0
0
0
0
0
0
0
0
0
0
0
0
0
0
0
0
0
0
0
0
0
0
0
0
0
0
0
0
0
0
0
0
0
0
0
0
0
0
0
0
0
0
0
0
0
0
0
0
0
0
0
0
0
0
0
0
0
0
0
0
0
0
0
0
0
0
0
0
0
0
0
0
0
0
0
0
0
0
0
0
0
0
0
0
0
0
0
0
0
0
0
0
0
0
0
0
0
0
0
0
0
0
0
0
0
0
0
0
0
0
0
0
0
0
0
0
0
0
0
0
0
0
0
0
0
0
0
0
0
0
0
0
0
0
0
0
0
0
0
0
0
0
0
0
0
0
0
0
0
0
0
0
0
0
0
0
1
1
1
1
1
1
1
1
1
1
1
1
1
1
1
1
1
1
1
1
1
1
1
1
1
1
1
1
1
1
2
2
2
2
2
2
2
2
2
2
2
2
2
2
2
2
2
2
2
2
2
2
2
2
2
2
2
2
2
2
3
3
3
3
3
3
3
3
3
3
3
3
3
3
3
3
3
3
3
3
3
3
3
3
3
3
3
3
3
3
4
4
4
4
4
4
4
4
4
4
4
4
4
4
4
4
4
4
4
4
4
4
4
4
4
4
4
4
4
4

LOOKUP_TABLE FreeFempp_table 5
1.00000000 0.00000000 0.00000000 1.00000000
1.00000000 1.00000000 0.00000000 1.00000000
1.00000000 0.00000000 1.00000000 1.00000000
0.00000000 1.00000000 0.00000000 1.00000000
0.00000000 1.00000000 1.00000000 1.00000000

POINT_DATA 961
FIELD FieldData 1
Density 1 961 float
6.63763564e-03 6.74569281e-03 6.25052443e-03 6.67247968e-03 7.03357114e-03 6.99297898e-03 6.83097541e-03 6.71244040e-03 6.63143862e-03 6.38054311e-03 6.42998377e-03 1.23267872e-02 2.61394918e-01 8.97633135e-01 9.28095818e-01 8.53862941e-01 4.33152765e-01 6.10717125e-02 1.62229240e-02 1.06481025e-02 9.61075351e-03 1.19851045e-02 4.10505123e-02 5.56835055e-01 7.74777353e-01 1.20031707e-01 4.37406264e-02 2.11643446e-02 6.24015462e-03 6.22078823e-03 1.34673007e-02 6.14500139e-03 6.38276944e-03 6.27185684e-03 6.34653959e-03 6.69986010e-03 6.88047754e-03 6.80494728e-03 6.66943798e-03 6.58404734e-03 6.60015130e-03 6.52855495e-03 6.41215872e-03 6.20147306e-03 1.61623396e-02 9.42770898e-01 9.62361932e-01 8.79835188e-01 1.00811839e-01 1.15014594e-02 8.26411881e-03 7.60799693e-03 7.66762951e-03 1.02755930e-02 1.73768416e-01 2.14678384e-02 9.72556531e-01 1.11116566e-01 2.78805010e-02 6.52181124e-03 6.61864225e-03 6.78857556e-03 6.90682465e-03 6.15485478e-03 6.13497244e-03 6.17242139e-03 8.11794307e-03 1.12084914e-02 1.40759991e-02 1.67441368e-02 1.70457698e-02 1.13620367e-02 6.49763877e-03 6.28847675e-03 6.50675688e-03 6.46165805e-03 6.22191606e-03 6.29192078e-03 6.65829005e-03 6.85493741e-03 7.20420713e-03 8.03791638e-03 9.31636058e-03 1.07996985e-02 1.55868540e-02 1.20493837e-01 9.52414215e-01 8.97905231e-01 3.70162666e-01 1.19658500e-01 1.81287825e-02 6.45072246e-03 6.33103447e-03 8.90691485e-03 7.54577061e-03 9.15610045e-03 1.48300817e-02 2.49507632e-02 3.61215807e-02 4.67163697e-02 5.55435568e-02 6.00044876e-02 5.55414110e-02 3.88075858e-02 1.83679890e-02 8.55230726e-03 6.26521884e-03 6.21953700e-03 6.14011288e-03 6.07160479e-03 6.23764796e-03 6.60305051e-03 7.44671607e-03 1.64276604e-02 2.62383908e-01 6.05297804e-01 8.09773982e-01 9.04578388e-01 8.33711326e-01 4.74656999e-01 1.49459302e-01 5.65407425e-02 6.12113997e-03 6.27957424e-03 1.15914820e-02 8.89329705e-03 1.31446132e-02 2.66816076e-02 4.33929935e-02 5.90936355e-02 7.13061243e-02 7.91752189e-02 8.13904926e-02 7.64858723e-02 6.43751770e-02 4.77222055e-02 3.09351459e-02 1.82802081e-02 1.21479398e-02 8.81630648e-03 7.42572593e-03 7.26842508e-03 8.09201878e-03 1.14429574e-02 5.96061647e-02 4.60653961e-01 7.10366309e-01 7.84260750e-01 8.02025437e-01 7.11734116e-01 4.51115698e-01 1.82618514e-01 7.81904906e-02 6.08139997e-03 6.13214774e-03 2.41672602e-02 1.22215562e-02 2.37492789e-02 5.30539826e-02 8.14343616e-02 1.03697069e-01 1.16721265e-01 1.22440219e-01 1.22273818e-01 1.16409481e-01 1.05052479e-01 8.95539373e-02 7.18461424e-02 5.38992696e-02 3.87848876e-02 2.75722872e-02 2.15073545e-02 1.80781968e-02 1.72172841e-02 2.68874485e-02 1.07878856e-01 4.03883398e-01 6.38306797e-01 7.25373328e-01 7.40223885e-01 6.72542036e-01 4.83205408e-01 2.33891919e-01 8.25888962e-02 6.04531867e-03 6.08412875e-03 1.61826089e-01 3.02901007e-02 9.81372669e-02 1.65919706e-01 2.09090456e-01 2.26113886e-01 2.26344019e-01 2.19274566e-01 2.08999082e-01 1.96033731e-01 1.80007890e-01 1.61292493e-01 1.40825227e-01 1.19312741e-01 9.74995643e-02 7.60728270e-02 5.92522472e-02 4.76273187e-02 4.37654927e-02 6.31980374e-02 1.54050380e-01 3.61811161e-01 5.55939734e-01 6.52793884e-01 6.74767554e-01 6.28417015e-01 5.00811279e-01 2.89259136e-01 8.15048665e-02 6.01382740e-03 6.05354970e-03 7.77019322e-01 2.92127162e-01 7.21255958e-01 5.42345643e-01 5.29350281e-01 4.77572918e-01 4.27973598e-01 3.83977264e-01 3.46246004e-01 3.12658608e-01 2.81076968e-01 2.50612527e-01 2.21246555e-01 1.92883477e-01 1.65102512e-01 1.37923330e-01 1.14478700e-01 9.81913507e-02 9.61167589e-02 1.26576498e-01 2.19568834e-01 3.73410434e-01 5.13896108e-01 5.93710363e-01 6.15028322e-01 5.85913420e-01 5.06515384e-01 3.39399040e-01 8.18522498e-02 5.98563394e-03 6.02497393e-03 7.21961141e-01 8.56788158e-01 9.53677535e-01 8.09927583e-01 7.69173741e-01 6.87254071e-01 6.10779345e-01 5.40623128e-01 4.78626579e-01 4.23883408e-01 3.75069469e-01 3.31506580e-01 2.92833656e-01 2.58403659e-01 2.27440834e-01 2.00150415e-01 1.79151714e-01 1.68781415e-01 1.77362561e-01 2.19410554e-01 3.04073870e-01 4.11471903e-01 5.01208663e-01 5.52690685e-01 5.65405905e-01 5.45551121e-01 4.97028410e-01 3.69849265e-01 8.50535557e-02 5.96128870e-03 5.99737326e-03 8.81688073e-02 3.71325582e-01 9.37051892e-01 8.32107365e-01 8.01479518e-01 7.39779890e-01 6.76589787e-01 6.12455130e-01 5.50291836e-01 4.91969675e-01 4.38953489e-01 3.92406911e-01 3.52700889e-01 3.19334656e-01 2.91858852e-01 2.71320820e-01 2.60740846e-01 2.64043987e-01 2.85993069e-01 3.30274969e-01 3.91537249e-01 4.53553557e-01 5.00187516e-01 5.24732947e-01 5.26935995e-01 5.09644747e-01 4.74015743e-01 3.71375889e-01 8.93948898e-02 5.97117795e-03 5.97494747e-03 3.12693082e-02 2.92247906e-02 7.38991141e-01 7.10510552e-01 7.07049966e-01 6.81930780e-01 6.46724641e-01 6.04660094e-01 5.59518218e-01 5.14594674e-01 4.72829401e-01 4.36451882e-01 4.06405151e-01 3.82669717e-01 3.65706444e-01 3.57840657e-01 3.62433642e-01 3.80647659e-01 4.09345210e-01 4.41899121e-01 4.70926851e-01 4.91690964e-01 5.02557695e-01 5.03758252e-01 4.95726168e-01 4.77636129e-01 4.43651259e-01 3.46801370e-01 8.79550725e-02 6.10091491e-03 6.01493940e-03 2.46299524e-02 2.07427051e-02 1.80646241e-01 3.81034881e-01 4.90583897e-01 5.40963531e-01 5.51731884e-01 5.42716980e-01 5.24640858e-01 5.03751814e-01 4.84069973e-01 4.67895031e-01 4.55906659e-01 4.48294878e-01 4.46339995e-01 4.53556567e-01 4.72888559e-01 5.00762761e-01 5.27058840e-01 5.41880667e-01 5.41571081e-01 5.29009938e-01 5.09608746e-01 4.88146126e-01 4.67358112e-01 4.45326477e-01 4.09031779e-01 3.03335160e-01 6.96039870e-02 6.28153328e-03 6.15272531e-03 1.55970817e-02 1.64886098e-02 3.66355740e-02 1.32491440e-01 2.71892130e-01 3.74452412e-01 4.27754372e-01 4.52495605e-01 4.63764846e-01 4.70310211e-01 4.76978540e-01 4.85505909e-01 4.95359629e-01 5.06014168e-01 5.19604087e-01 5.38944066e-01 5.68167865e-01 6.00220740e-01 6.21891856e-01 6.24820113e-01 6.07697904e-01 5.74472666e-01 5.31628847e-01 4.86517727e-01 4.45839822e-01 4.10890698e-01 3.64273667e-01 2.38043651e-01 4.17273529e-02 6.53126370e-03 6.34237705e-03 1.14306500e-02 1.27695370e-02 2.07689628e-02 6.96005225e-02 1.68274567e-01 2.58502275e-01 3.20271671e-01 3.62276882e-01 3.94084036e-01 4.22921479e-01 4.53078985e-01 4.84857649e-01 5.15314400e-01 5.42249084e-01 5.69052637e-01 5.97594678e-01 6.31067753e-01 6.66110218e-01 6.87802196e-01 6.89700484e-01 6.71615958e-01 6.35181844e-01 5.82858384e-01 5.19241631e-01 4.52280432e-01 3.87728959e-01 3.08311582e-01 1.57329738e-01 2.42575165e-02 6.89589698e-03 6.63602166e-03 9.17826686e-03 9.99076385e-03 1.73423402e-02 5.80447689e-02 1.34575337e-01 2.00867534e-01 2.50735044e-01 2.92226732e-01 3.30703676e-01 3.70956272e-01 4.16275620e-01 4.65598702e-01 5.12721777e-01 5.52723527e-01 5.92108130e-01 6.21150017e-01 6.65171981e-01 7.00733662e-01 7.27572262e-01 7.36740053e-01 7.29503274e-01 7.06347644e-01 6.65690541e-01 6.04785919e-01 5.22144437e-01 4.17359173e-01 2.79042453e-01 1.06090367e-01 1.79162268e-02 7.37106381e-03 7.09479861e-03 7.88949057e-03 8.40750616e-03 1.83456577e-02 6.18017279e-02 1.24002598e-01 1.73835322e-01 2.11621031e-01 2.45809421e-01 2.81588703e-01 3.23193192e-01 3.73863041e-01 4.32653129e-01 4.91822898e-01 5.42755842e-01 5.81614792e-01 6.15887344e-01 6.65887117e-01 7.10919917e-01 7.44191289e-01 7.64662981e-01 7.72853136e-01 7.70153522e-01 7.55330026e-01 7.24206626e-01 6.66999459e-01 5.59861362e-01 3.59892160e-01 1.19605690e-01 1.93038303e-02 8.03967379e-03 7.76192453e-03 7.12305633e-03 7.49879191e-03 2.44215783e-02 7.10766837e-02 1.20716922e-01 1.59685418e-01 1.89095318e-01 2.15974584e-01 2.45973602e-01 2.83473045e-01 3.32004458e-01 3.91713440e-01 4.56196964e-01 5.14831603e-01 5.67216039e-01 6.07318759e-01 6.59385860e-01 6.99339330e-01 7.38687634e-01 7.70465672e-01 7.94062793e-01 8.10380518e-01 8.19612324e-01 8.20916295e-01 8.10366869e-01 7.73427069e-01 6.59266174e-01 3.62935424e-01 5.99104986e-02 9.71242227e-03 9.17903520e-03 6.64484967e-03 6.89670583e-03 3.32456939e-02 7.92951211e-02 1.19712129e-01 1.50821358e-01 1.73665449e-01 1.94521204e-01 2.18835548e-01 2.50622511e-01 2.93195546e-01 3.47610980e-01 4.09820914e-01 4.70861763e-01 5.24345696e-01 5.73583066e-01 6.19992554e-01 6.63977802e-01 7.08138824e-01 7.50136197e-01 7.88188934e-01 8.21082830e-01 8.48331332e-01 8.69933248e-01 8.85219455e-01 8.91212165e-01 8.80375206e-01 8.33066165e-01 7.92546034e-01 2.35862471e-02 1.84094235e-02 6.41182670e-03 6.54485449e-03 3.75632420e-02 8.89681503e-02 1.22096896e-01 1.44522920e-01 1.60421923e-01 1.75967619e-01 1.95434630e-01 2.21674562e-01 2.57106006e-01 3.02925915e-01 3.57081980e-01 4.13577497e-01 4.65922445e-01 5.12740910e-01 5.57289720e-01 6.00910187e-01 6.47593737e-01 6.97814703e-01 7.49322236e-01 7.98652053e-01 8.42853189e-01 8.80132914e-01 9.09063280e-01 9.28365111e-01 9.38314557e-01 9.38147187e-01 9.70093846e-01 4.27251637e-01 2.01603517e-01 6.33255718e-03 6.38854736e-03 3.87375169e-02 1.04896419e-01 1.29346147e-01 1.39467448e-01 1.47251785e-01 1.57780632e-01 1.73186287e-01 1.94625854e-01 2.23253384e-01 2.59763241e-01 3.03111374e-01 3.49747598e-01 3.95033211e-01 4.36480939e-01 4.75328892e-01 5.14863074e-01 5.59382856e-01 6.11671090e-01 6.71036303e-01 7.33991086e-01 7.95839667e-01 8.51737916e-01 8.96829605e-01 9.28002954e-01 9.47295368e-01 9.52672839e-01 9.87417817e-01 9.49955285e-01 7.73815989e-01 6.31106598e-03 6.33606501e-03 4.09224033e-02 1.28661811e-01 1.40238076e-01 1.34300336e-01 1.33405492e-01 1.39408290e-01 1.51503339e-01 1.69054151e-01 1.92013681e-01 2.20411137e-01 2.53512055e-01 2.89264232e-01 3.24825734e-01 3.58235508e-01 3.89798373e-01 4.21974003e-01 4.58562970e-01 5.02897859e-01 5.56429505e-01 6.18599594e-01 6.87329233e-01 7.58602321e-01 8.24294746e-01 8.73802423e-01 9.04362738e-01 9.11243200e-01 9.86576974e-01 8.21480751e-01 9.64376509e-01 6.29434362e-03 6.29608426e-03 4.60296310e-02 1.59031123e-01 1.51050687e-01 1.27207324e-01 1.18610993e-01 1.21192239e-01 1.30830303e-01 1.45386428e-01 1.63976952e-01 1.86165601e-01 2.11290807e-01 2.38082990e-01 2.64847815e-01 2.90253460e-01 3.14144909e-01 3.37720394e-01 3.63120437e-01 3.92486691e-01 4.27175373e-01 4.67788279e-01 5.14875650e-01 5.69024920e-01 6.26038730e-01 6.65382028e-01 6.45921052e-01 5.26175618e-01 4.47969258e-01 6.52254075e-02 6.34383082e-01 6.48501515e-03 6.29184907e-03 5.59096448e-02 1.89783961e-01 1.55795023e-01 1.16266377e-01 1.02937229e-01 1.03784658e-01 1.11867197e-01 1.24154456e-01 1.39394224e-01 1.56985447e-01 1.76346883e-01 1.96612909e-01 2.16672897e-01 2.35526562e-01 2.52694041e-01 2.68351585e-01 2.83117026e-01 2.97542900e-01 3.11638504e-01 3.24809849e-01 3.36436212e-01 3.46718252e-01 3.53780925e-01 3.38139772e-01 2.53835350e-01 1.25737742e-01 4.41042297e-02 1.62160210e-02 3.56909335e-02 6.98696962e-03 6.50556898e-03 7.19318539e-02 2.05205172e-01 1.47153124e-01 1.00740887e-01 8.71458575e-02 8.80245939e-02 9.52755213e-02 1.05749972e-01 1.18242987e-01 1.32225186e-01 1.47247583e-01 1.62685156e-01 1.77720398e-01 1.91506058e-01 2.03370169e-01 2.12898493e-01 2.19833970e-01 2.23837674e-01 2.24286333e-01 2.20335767e-01 2.11509198e-01 1.98878840e-01 1.84556708e-01 1.63669810e-01 1.18398704e-01 6.10143542e-02 2.23985258e-02 9.80654173e-03 1.52803063e-02 8.39626696e-03 6.96454057e-03 8.90420824e-02 1.86437890e-01 1.22443907e-01 8.26424658e-02 7.28421360e-02 7.49075711e-02 8.16623643e-02 9.04813483e-02 1.00481801e-01 1.11334771e-01 1.22746959e-01 1.34268060e-01 1.45275071e-01 1.55059516e-01 1.62938029e-01 1.68306142e-01 1.70611605e-01 1.69299662e-01 1.63855702e-01 1.54055312e-01 1.40466720e-01 1.25185728e-01 1.11674577e-01 1.00571029e-01 8.30298215e-02 5.42428195e-02 2.21915785e-02 7.51411216e-03 1.04926527e-02 1.27604473e-02 8.11337866e-03 9.06207860e-02 1.35872602e-01 9.06038955e-02 6.63158149e-02 6.19533807e-02 6.54294416e-02 7.15707466e-02 7.85996020e-02 8.61042440e-02 9.40053836e-02 1.02156885e-01 1.10248320e-01 1.17825665e-01 1.24356449e-01 1.29295334e-01 1.32116958e-01 1.32315308e-01 1.29420236e-01 1.23127304e-01 1.13592707e-01 1.01778403e-01 8.96791965e-02 8.01619813e-02 7.50121623e-02 7.11156949e-02 6.04457036e-02 3.06205638e-02 6.95135863e-03 8.00557248e-03 2.67328639e-02 1.17536420e-02 9.27019566e-02 9.24599320e-02 6.64429888e-02 5.56780770e-02 5.60372993e-02 6.03939630e-02 6.53318539e-02 7.01211020e-02 7.49383122e-02 7.99464285e-02 8.50971267e-02 9.01707783e-02 9.48481485e-02 9.87704098e-02 1.01580024e-01 1.02937080e-01 1.02516599e-01 1.00017466e-01 9.52463299e-02 8.83349776e-02 8.00286308e-02 7.18197823e-02 6.58039749e-02 6.39595762e-02 6.69784844e-02 7.44371042e-02 6.21203594e-02 6.74799178e-03 6.52592210e-03 4.02043685e-02 1.89967118e-02 2.93598980e-01 1.02244221e-01 5.91203459e-02 5.30932955e-02 5.61680496e-02 6.00409023e-02 6.25462011e-02 6.43926859e-02 6.63555935e-02 6.86778799e-02 7.12707713e-02 7.39137679e-02 7.63536766e-02 7.83475339e-02 7.96811208e-02 8.01738724e-02 7.96749890e-02 7.80606195e-02 7.52562061e-02 7.13278353e-02 6.66770115e-02 6.22583851e-02 5.96023910e-02 6.05542511e-02 7.07289800e-02 1.30574912e-01 4.80919003e-01 5.74038783e-03 4.68321517e-03 1.41192954e-02 1.13599915e-02 8.47242773e-01 3.61856610e-01 7.74338171e-02 5.94022311e-02 6.11237735e-02 6.19798340e-02 6.08052313e-02 5.96399680e-02 5.92844151e-02 5.96867055e-02 6.05601445e-02 6.16159514e-02 6.26164749e-02 6.33768141e-02 6.37577847e-02 6.36612773e-02 6.30306304e-02 6.18569255e-02 6.01925179e-02 5.81830293e-02 5.61717935e-02 5.50131388e-02 5.68167418e-02 6.62229657e-02 1.16988234e-01 6.84451520e-01 8.00011396e-01 1.62006903e-03 2.09564320e-03 1.11673679e-03 4.22505615e-03 9.78824914e-01 8.93023133e-01 1.34740904e-01 6.22623004e-02 5.93941323e-02 5.82269095e-02 5.57938553e-02 5.40348813e-02 5.33248372e-02 5.33569232e-02 5.37623726e-02 5.42591177e-02 5.46524636e-02 5.48075847e-02 5.46256453e-02 5.40313572e-02 5.29749207e-02 5.14487810e-02 4.95143458e-02 4.73302230e-02 4.52043898e-02 4.39030901e-02 4.66798842e-02 7.48423114e-02 4.46995974e-01 9.07596648e-01 9.62103069e-01 3.28064524e-03 1.43910246e-03 9.45257023e-04 9.13370866e-04 9.83435571e-01 5.53421453e-02 1.01620205e-01 7.97249749e-02 8.22361186e-02 8.54792446e-02 8.58292356e-02 8.55290815e-02 8.56144354e-02 8.61168355e-02 8.67894143e-02 8.74000490e-02 8.77899453e-02 8.78536180e-02 8.75060633e-02 8.66599903e-02 8.52226615e-02 8.31189677e-02 8.03437680e-02 7.70329386e-02 7.35261217e-02 7.04638213e-02 6.95209950e-02 7.75975510e-02 1.27599716e-01 4.81424093e-01 9.69879270e-01 2.18665525e-02 2.78814952e-03 
