# vtk DataFile Version 2.0
results_case1_non_linear/iter3.vtk, Created by Freefem++ 
ASCII
DATASET UNSTRUCTURED_GRID
POINTS 961 float
0 0 0
0.033333333 0 0
0.066666667 0 0
0.1 0 0
0.13333333 0 0
0.16666667 0 0
0.2 0 0
0.23333333 0 0
0.26666667 0 0
0.3 0 0
0.33333333 0 0
0.36666667 0 0
0.4 0 0
0.43333333 0 0
0.46666667 0 0
0.5 0 0
0.53333333 0 0
0.56666667 0 0
0.6 0 0
0.63333333 0 0
0.66666667 0 0
0.7 0 0
0.73333333 0 0
0.76666667 0 0
0.8 0 0
0.83333333 0 0
0.86666667 0 0
0.9 0 0
0.93333333 0 0
0.96666667 0 0
1 0 0
0 0.033333333 0
0.033333333 0.033333333 0
0.066666667 0.033333333 0
0.1 0.033333333 0
0.13333333 0.033333333 0
0.16666667 0.033333333 0
0.2 0.033333333 0
0.23333333 0.033333333 0
0.26666667 0.033333333 0
0.3 0.033333333 0
0.33333333 0.033333333 0
0.36666667 0.033333333 0
0.4 0.033333333 0
0.43333333 0.033333333 0
0.46666667 0.033333333 0
0.5 0.033333333 0
0.53333333 0.033333333 0
0.56666667 0.033333333 0
0.6 0.033333333 0
0.63333333 0.033333333 0
0.66666667 0.033333333 0
0.7 0.033333333 0
0.73333333 0.033333333 0
0.76666667 0.033333333 0
0.8 0.033333333 0
0.83333333 0.033333333 0
0.86666667 0.033333333 0
0.9 0.033333333 0
0.93333333 0.033333333 0
0.96666667 0.033333333 0
1 0.033333333 0
0 0.066666667 0
0.033333333 0.066666667 0
0.066666667 0.066666667 0
0.1 0.066666667 0
0.13333333 0.066666667 0
0.16666667 0.066666667 0
0.2 0.066666667 0
0.23333333 0.066666667 0
0.26666667 0.066666667 0
0.3 0.066666667 0
0.33333333 0.066666667 0
0.36666667 0.066666667 0
0.4 0.066666667 0
0.43333333 0.066666667 0
0.46666667 0.066666667 0
0.5 0.066666667 0
0.53333333 0.066666667 0
0.56666667 0.066666667 0
0.6 0.066666667 0
0.63333333 0.066666667 0
0.66666667 0.066666667 0
0.7 0.066666667 0
0.73333333 0.066666667 0
0.76666667 0.066666667 0
0.8 0.066666667 0
0.83333333 0.066666667 0
0.86666667 0.066666667 0
0.9 0.066666667 0
0.93333333 0.066666667 0
0.96666667 0.066666667 0
1 0.066666667 0
0 0.1 0
0.033333333 0.1 0
0.066666667 0.1 0
0.1 0.1 0
0.13333333 0.1 0
0.16666667 0.1 0
0.2 0.1 0
0.23333333 0.1 0
0.26666667 0.1 0
0.3 0.1 0
0.33333333 0.1 0
0.36666667 0.1 0
0.4 0.1 0
0.43333333 0.1 0
0.46666667 0.1 0
0.5 0.1 0
0.53333333 0.1 0
0.56666667 0.1 0
0.6 0.1 0
0.63333333 0.1 0
0.66666667 0.1 0
0.7 0.1 0
0.73333333 0.1 0
0.76666667 0.1 0
0.8 0.1 0
0.83333333 0.1 0
0.86666667 0.1 0
0.9 0.1 0
0.93333333 0.1 0
0.96666667 0.1 0
1 0.1 0
0 0.13333333 0
0.033333333 0.13333333 0
0.066666667 0.13333333 0
0.1 0.13333333 0
0.13333333 0.13333333 0
0.16666667 0.13333333 0
0.2 0.13333333 0
0.23333333 0.13333333 0
0.26666667 0.13333333 0
0.3 0.13333333 0
0.33333333 0.13333333 0
0.36666667 0.13333333 0
0.4 0.13333333 0
0.43333333 0.13333333 0
0.46666667 0.13333333 0
0.5 0.13333333 0
0.53333333 0.13333333 0
0.56666667 0.13333333 0
0.6 0.13333333 0
0.63333333 0.13333333 0
0.66666667 0.13333333 0
0.7 0.13333333 0
0.73333333 0.13333333 0
0.76666667 0.13333333 0
0.8 0.13333333 0
0.83333333 0.13333333 0
0.86666667 0.13333333 0
0.9 0.13333333 0
0.93333333 0.13333333 0
0.96666667 0.13333333 0
1 0.13333333 0
0 0.16666667 0
0.033333333 0.16666667 0
0.066666667 0.16666667 0
0.1 0.16666667 0
0.13333333 0.16666667 0
0.16666667 0.16666667 0
0.2 0.16666667 0
0.23333333 0.16666667 0
0.26666667 0.16666667 0
0.3 0.16666667 0
0.33333333 0.16666667 0
0.36666667 0.16666667 0
0.4 0.16666667 0
0.43333333 0.16666667 0
0.46666667 0.16666667 0
0.5 0.16666667 0
0.53333333 0.16666667 0
0.56666667 0.16666667 0
0.6 0.16666667 0
0.63333333 0.16666667 0
0.66666667 0.16666667 0
0.7 0.16666667 0
0.73333333 0.16666667 0
0.76666667 0.16666667 0
0.8 0.16666667 0
0.83333333 0.16666667 0
0.86666667 0.16666667 0
0.9 0.16666667 0
0.93333333 0.16666667 0
0.96666667 0.16666667 0
1 0.16666667 0
0 0.2 0
0.033333333 0.2 0
0.066666667 0.2 0
0.1 0.2 0
0.13333333 0.2 0
0.16666667 0.2 0
0.2 0.2 0
0.23333333 0.2 0
0.26666667 0.2 0
0.3 0.2 0
0.33333333 0.2 0
0.36666667 0.2 0
0.4 0.2 0
0.43333333 0.2 0
0.46666667 0.2 0
0.5 0.2 0
0.53333333 0.2 0
0.56666667 0.2 0
0.6 0.2 0
0.63333333 0.2 0
0.66666667 0.2 0
0.7 0.2 0
0.73333333 0.2 0
0.76666667 0.2 0
0.8 0.2 0
0.83333333 0.2 0
0.86666667 0.2 0
0.9 0.2 0
0.93333333 0.2 0
0.96666667 0.2 0
1 0.2 0
0 0.23333333 0
0.033333333 0.23333333 0
0.066666667 0.23333333 0
0.1 0.23333333 0
0.13333333 0.23333333 0
0.16666667 0.23333333 0
0.2 0.23333333 0
0.23333333 0.23333333 0
0.26666667 0.23333333 0
0.3 0.23333333 0
0.33333333 0.23333333 0
0.36666667 0.23333333 0
0.4 0.23333333 0
0.43333333 0.23333333 0
0.46666667 0.23333333 0
0.5 0.23333333 0
0.53333333 0.23333333 0
0.56666667 0.23333333 0
0.6 0.23333333 0
0.63333333 0.23333333 0
0.66666667 0.23333333 0
0.7 0.23333333 0
0.73333333 0.23333333 0
0.76666667 0.23333333 0
0.8 0.23333333 0
0.83333333 0.23333333 0
0.86666667 0.23333333 0
0.9 0.23333333 0
0.93333333 0.23333333 0
0.96666667 0.23333333 0
1 0.23333333 0
0 0.26666667 0
0.033333333 0.26666667 0
0.066666667 0.26666667 0
0.1 0.26666667 0
0.13333333 0.26666667 0
0.16666667 0.26666667 0
0.2 0.26666667 0
0.23333333 0.26666667 0
0.26666667 0.26666667 0
0.3 0.26666667 0
0.33333333 0.26666667 0
0.36666667 0.26666667 0
0.4 0.26666667 0
0.43333333 0.26666667 0
0.46666667 0.26666667 0
0.5 0.26666667 0
0.53333333 0.26666667 0
0.56666667 0.26666667 0
0.6 0.26666667 0
0.63333333 0.26666667 0
0.66666667 0.26666667 0
0.7 0.26666667 0
0.73333333 0.26666667 0
0.76666667 0.26666667 0
0.8 0.26666667 0
0.83333333 0.26666667 0
0.86666667 0.26666667 0
0.9 0.26666667 0
0.93333333 0.26666667 0
0.96666667 0.26666667 0
1 0.26666667 0
0 0.3 0
0.033333333 0.3 0
0.066666667 0.3 0
0.1 0.3 0
0.13333333 0.3 0
0.16666667 0.3 0
0.2 0.3 0
0.23333333 0.3 0
0.26666667 0.3 0
0.3 0.3 0
0.33333333 0.3 0
0.36666667 0.3 0
0.4 0.3 0
0.43333333 0.3 0
0.46666667 0.3 0
0.5 0.3 0
0.53333333 0.3 0
0.56666667 0.3 0
0.6 0.3 0
0.63333333 0.3 0
0.66666667 0.3 0
0.7 0.3 0
0.73333333 0.3 0
0.76666667 0.3 0
0.8 0.3 0
0.83333333 0.3 0
0.86666667 0.3 0
0.9 0.3 0
0.93333333 0.3 0
0.96666667 0.3 0
1 0.3 0
0 0.33333333 0
0.033333333 0.33333333 0
0.066666667 0.33333333 0
0.1 0.33333333 0
0.13333333 0.33333333 0
0.16666667 0.33333333 0
0.2 0.33333333 0
0.23333333 0.33333333 0
0.26666667 0.33333333 0
0.3 0.33333333 0
0.33333333 0.33333333 0
0.36666667 0.33333333 0
0.4 0.33333333 0
0.43333333 0.33333333 0
0.46666667 0.33333333 0
0.5 0.33333333 0
0.53333333 0.33333333 0
0.56666667 0.33333333 0
0.6 0.33333333 0
0.63333333 0.33333333 0
0.66666667 0.33333333 0
0.7 0.33333333 0
0.73333333 0.33333333 0
0.76666667 0.33333333 0
0.8 0.33333333 0
0.83333333 0.33333333 0
0.86666667 0.33333333 0
0.9 0.33333333 0
0.93333333 0.33333333 0
0.96666667 0.33333333 0
1 0.33333333 0
0 0.36666667 0
0.033333333 0.36666667 0
0.066666667 0.36666667 0
0.1 0.36666667 0
0.13333333 0.36666667 0
0.16666667 0.36666667 0
0.2 0.36666667 0
0.23333333 0.36666667 0
0.26666667 0.36666667 0
0.3 0.36666667 0
0.33333333 0.36666667 0
0.36666667 0.36666667 0
0.4 0.36666667 0
0.43333333 0.36666667 0
0.46666667 0.36666667 0
0.5 0.36666667 0
0.53333333 0.36666667 0
0.56666667 0.36666667 0
0.6 0.36666667 0
0.63333333 0.36666667 0
0.66666667 0.36666667 0
0.7 0.36666667 0
0.73333333 0.36666667 0
0.76666667 0.36666667 0
0.8 0.36666667 0
0.83333333 0.36666667 0
0.86666667 0.36666667 0
0.9 0.36666667 0
0.93333333 0.36666667 0
0.96666667 0.36666667 0
1 0.36666667 0
0 0.4 0
0.033333333 0.4 0
0.066666667 0.4 0
0.1 0.4 0
0.13333333 0.4 0
0.16666667 0.4 0
0.2 0.4 0
0.23333333 0.4 0
0.26666667 0.4 0
0.3 0.4 0
0.33333333 0.4 0
0.36666667 0.4 0
0.4 0.4 0
0.43333333 0.4 0
0.46666667 0.4 0
0.5 0.4 0
0.53333333 0.4 0
0.56666667 0.4 0
0.6 0.4 0
0.63333333 0.4 0
0.66666667 0.4 0
0.7 0.4 0
0.73333333 0.4 0
0.76666667 0.4 0
0.8 0.4 0
0.83333333 0.4 0
0.86666667 0.4 0
0.9 0.4 0
0.93333333 0.4 0
0.96666667 0.4 0
1 0.4 0
0 0.43333333 0
0.033333333 0.43333333 0
0.066666667 0.43333333 0
0.1 0.43333333 0
0.13333333 0.43333333 0
0.16666667 0.43333333 0
0.2 0.43333333 0
0.23333333 0.43333333 0
0.26666667 0.43333333 0
0.3 0.43333333 0
0.33333333 0.43333333 0
0.36666667 0.43333333 0
0.4 0.43333333 0
0.43333333 0.43333333 0
0.46666667 0.43333333 0
0.5 0.43333333 0
0.53333333 0.43333333 0
0.56666667 0.43333333 0
0.6 0.43333333 0
0.63333333 0.43333333 0
0.66666667 0.43333333 0
0.7 0.43333333 0
0.73333333 0.43333333 0
0.76666667 0.43333333 0
0.8 0.43333333 0
0.83333333 0.43333333 0
0.86666667 0.43333333 0
0.9 0.43333333 0
0.93333333 0.43333333 0
0.96666667 0.43333333 0
1 0.43333333 0
0 0.46666667 0
0.033333333 0.46666667 0
0.066666667 0.46666667 0
0.1 0.46666667 0
0.13333333 0.46666667 0
0.16666667 0.46666667 0
0.2 0.46666667 0
0.23333333 0.46666667 0
0.26666667 0.46666667 0
0.3 0.46666667 0
0.33333333 0.46666667 0
0.36666667 0.46666667 0
0.4 0.46666667 0
0.43333333 0.46666667 0
0.46666667 0.46666667 0
0.5 0.46666667 0
0.53333333 0.46666667 0
0.56666667 0.46666667 0
0.6 0.46666667 0
0.63333333 0.46666667 0
0.66666667 0.46666667 0
0.7 0.46666667 0
0.73333333 0.46666667 0
0.76666667 0.46666667 0
0.8 0.46666667 0
0.83333333 0.46666667 0
0.86666667 0.46666667 0
0.9 0.46666667 0
0.93333333 0.46666667 0
0.96666667 0.46666667 0
1 0.46666667 0
0 0.5 0
0.033333333 0.5 0
0.066666667 0.5 0
0.1 0.5 0
0.13333333 0.5 0
0.16666667 0.5 0
0.2 0.5 0
0.23333333 0.5 0
0.26666667 0.5 0
0.3 0.5 0
0.33333333 0.5 0
0.36666667 0.5 0
0.4 0.5 0
0.43333333 0.5 0
0.46666667 0.5 0
0.5 0.5 0
0.53333333 0.5 0
0.56666667 0.5 0
0.6 0.5 0
0.63333333 0.5 0
0.66666667 0.5 0
0.7 0.5 0
0.73333333 0.5 0
0.76666667 0.5 0
0.8 0.5 0
0.83333333 0.5 0
0.86666667 0.5 0
0.9 0.5 0
0.93333333 0.5 0
0.96666667 0.5 0
1 0.5 0
0 0.53333333 0
0.033333333 0.53333333 0
0.066666667 0.53333333 0
0.1 0.53333333 0
0.13333333 0.53333333 0
0.16666667 0.53333333 0
0.2 0.53333333 0
0.23333333 0.53333333 0
0.26666667 0.53333333 0
0.3 0.53333333 0
0.33333333 0.53333333 0
0.36666667 0.53333333 0
0.4 0.53333333 0
0.43333333 0.53333333 0
0.46666667 0.53333333 0
0.5 0.53333333 0
0.53333333 0.53333333 0
0.56666667 0.53333333 0
0.6 0.53333333 0
0.63333333 0.53333333 0
0.66666667 0.53333333 0
0.7 0.53333333 0
0.73333333 0.53333333 0
0.76666667 0.53333333 0
[...]
CELL_DATA 1920
Scalars  Label int 1
LOOKUP_TABLE FreeFempp_table
0
0
0
0
0
0
0
0
0
0
0
0
0
0
0
0
0
0
0
0
0
0
0
0
0
0
0
0
0
0
0
0
0
0
0
0
0
0
0
0
0
0
0
0
0
0
0
0
0
0
0
0
0
0
0
0
0
0
0
0
0
0
0
0
0
0
0
0
0
0
0
0
0
0
0
0
0
0
0
0
0
0
0
0
0
0
0
0
0
0
0
0
0
0
0
0
0
0
0
0
0
0
0
0
0
0
0
0
0
0
0
0
0
0
0
0
0
0
0
0
0
0
0
0
0
0
0
0
0
0
0
0
0
0
0
0
0
0
0
0
0
0
0
0
0
0
0
0
0
0
0
0
0
0
0
0
0
0
0
0
0
0
0
0
0
0
0
0
0
0
0
0
0
0
0
0
0
0
0
0
0
0
0
0
0
0
0
0
0
0
0
0
0
0
0
0
0
0
0
0
0
0
0
0
0
0
0
0
0
0
0
0
0
0
0
0
0
0
0
0
0
0
0
0
0
0
0
0
0
0
0
0
0
0
0
0
0
0
0
0
0
0
0
0
0
0
0
0
0
0
0
0
0
0
0
0
0
0
0
0
0
0
0
0
0
0
0
0
0
0
0
0
0
0
0
0
0
0
0
0
0
0
0
0
0
0
0
0
0
0
0
0
0
0
0
0
0
0
0
0
0
0
0
0
0
0
0
0
0
0
0
0
0
0
0
0
0
0
0
0
0
0
0
0
0
0
0
0
0
0
0
0
0
0
0
0
0
0
0
0
0
0
0
0
0
0
0
0
0
0
0
0
0
0
0
0
0
0
0
0
0
0
0
0
0
0
0
0
0
0
0
0
0
0
0
0
0
0
0
0
0
0
0
0
0
0
0
0
0
0
0
0
0
0
0
0
0
0
0
0
0
0
0
0
0
0
0
0
0
0
0
0
0
0
0
0
0
0
0
0
0
0
0
0
0
0
0
0
0
0
0
0
0
0
0
0
0
0
0
0
0
0
0
0
0
0
0
0
0
0
0
0
0
0
0
0
0
0
0
0
0
0
0
0
0
0
0
0
0
0
0
0
0
0
0
0
0
0
0
0
0
0
0
0
0
0
0
0
0
0
0
0
0
0
0
0
0
0
0
0
0
0
0
0
0
0
0
0
0
0
0
0
0
0
0
0
0
0
0
0
0
0
0
0
0
0
0
0
0
0
0
0
0
0
0
0
0
0
0
0
0
0
0
0
0
0
0
0
0
0
0
0
0
0
0
0
0
0
0
0
0
0
0
0
0
0
0
0
0
0
0
0
0
0
0
0
0
0
0
0
0
0
0
0
0
0
0
0
0
0
0
0
0
0
0
0
0
0
0
0
0
0
0
0
0
0
0
0
0
0
0
0
0
0
0
0
0
0
0
0
0
0
0
0
0
0
0
0
0
0
0
0
0
0
0
0
0
0
0
0
0
0
0
0
0
0
0
0
0
0
0
0
0
0
0
0
0
0
0
0
0
0
0
0
0
0
0
0
0
0
0
0
0
0
0
0
0
0
0
0
0
0
0
0
0
0
0
0
0
0
0
0
0
0
0
0
0
0
0
0
0
0
0
0
0
0
0
0
0
0
0
0
0
0
0
0
0
0
0
0
0
0
0
0
0
0
0
0
0
0
0
0
0
0
0
0
0
0
0
0
0
0
0
0
0
0
0
0
0
0
0
0
0
0
0
0
0
0
0
0
0
0
0
0
0
0
0
0
0
0
0
0
0
0
0
0
0
0
0
0
0
0
0
0
0
0
0
0
0
0
0
0
0
0
0
0
0
0
0
0
0
0
0
0
0
0
0
0
0
0
0
0
0
0
0
0
0
0
0
0
0
0
0
0
0
0
0
0
0
0
0
0
0
0
0
0
0
0
0
0
0
0
0
0
0
0
0
0
0
0
0
0
0
0
0
0
0
0
0
0
0
0
0
0
0
0
0
0
0
0
0
0
0
0
0
0
0
0
0
0
0
0
0
0
0
0
0
0
0
0
0
0
0
0
0
0
0
0
0
0
0
0
0
0
0
0
0
0
0
0
0
0
0
0
0
0
0
0
0
0
0
0
0
0
0
0
0
0
0
0
0
0
0
0
0
0
0
0
0
0
0
0
0
0
0
0
0
0
0
0
0
0
0
0
0
0
0
0
0
0
0
0
0
0
0
0
0
0
0
0
0
0
0
0
0
0
0
0
0
0
0
0
0
0
0
0
0
0
0
0
0
0
0
0
0
0
0
0
0
0
0
0
0
0
0
0
0
0
0
0
0
0
0
0
0
0
0
0
0
0
0
0
0
0
0
0
0
0
0
0
0
0
0
0
0
0
0
0
0
0
0
0
0
0
0
0
0
0
0
0
0
0
0
0
0
0
0
0
0
0
0
0
0
0
0
0
0
0
0
0
0
0
0
0
0
0
0
0
0
0
0
0
0
0
0
0
0
0
0
0
0
0
0
0
0
0
0
0
0
0
0
0
0
0
0
0
0
0
0
0
0
0
0
0
0
0
0
0
0
0
0
0
0
0
0
0
0
0
0
0
0
0
0
0
0
0
0
0
0
0
0
0
0
0
0
0
0
0
0
0
0
0
0
0
0
0
0
0
0
0
0
0
0
0
0
0
0
0
0
0
0
0
0
0
0
0
0
0
0
0
0
0
0
0
0
0
0
0
0
0
0
0
0
0
0
0
0
0
0
0
0
0
0
0
0
0
0
0
0
0
0
0
0
0
0
0
0
0
0
0
0
0
0
0
0
0
0
0
0
0
0
0
0
0
0
0
0
0
0
0
0
0
0
0
0
0
0
0
0
0
0
0
0
0
0
0
0
0
0
0
0
0
0
0
0
0
0
0
0
0
0
0
0
0
0
0
0
0
0
0
0
0
0
0
0
0
0
0
0
0
0
0
0
0
0
0
0
0
0
0
0
0
0
0
0
0
0
0
0
0
0
0
0
0
0
0
0
0
0
0
0
0
0
0
0
0
0
0
0
0
0
0
0
0
0
0
0
0
0
0
0
0
0
0
0
0
0
0
0
0
0
0
0
0
0
0
0
0
0
0
0
0
0
0
0
0
0
0
0
0
0
0
0
0
0
0
0
0
0
0
0
0
0
0
0
0
0
0
0
0
0
0
0
0
0
0
0
0
0
0
0
0
0
0
0
0
0
0
0
0
0
0
0
0
0
0
0
0
0
0
0
0
0
0
0
0
0
0
0
0
0
0
0
0
0
0
0
0
0
0
0
0
0
0
0
0
0
0
0
0
0
0
0
0
0
0
0
0
0
0
0
0
0
0
0
0
0
0
0
0
0
0
0
0
0
0
0
0
0
0
0
0
0
0
0
0
0
0
0
0
0
0
0
0
0
0
0
0
0
0
0
0
0
0
0
0
0
0
0
0
0
0
0
0
0
0
0
0
0
0
0
0
0
0
0
0
0
0
0
0
0
0
0
0
0
0
0
0
0
0
0
0
0
0
0
0
0
0
0
0
0
0
0
0
0
0
0
0
0
0
0
0
0
0
0
0
0
0
0
0
0
0
0
0
0
0
0
0
0
0
0
0
0
0
0
0
0
0
0
0
0
0
0
0
0
0
0
0
0
0
0
0
0
0
0
0
0
0
0
0
0
0
0
0
0
0
0
0
0
0
0
0
0
0
0
0
0
0
0
0
0
0
0
0
0
0
0
0
0
0
0
0
0
0
0
0
0
0
0
0
0
0
0
0
0
0
0
0
0
0
0
0
0
0
0
0
0
0
0
0
0
0
0
0
0
0
0
0
0
0
0
0
0
0
0
0
0
0
0
0
0
0
0
0
0
0
0
0
0
0
0
0
0
0
0
0
0
0
0
0
0
0
0
0
0
0
0
0
0
0
0
0
0
0
0
0
0
0
0
0
0
0
0
0
0
0
0
0
0
0
0
0
0
0
0
0
0
0
0
0
0
0
0
0
0
0
0
0
0
0
0
0
0
0
0
0
0
0
0
0
0
0
0
0
0
0
0
0
0
0
0
0
0
0
0
0
0
0
0
0
0
0
0
0
0
0
0
0
0
0
1
1
1
1
1
1
1
1
1
1
1
1
1
1
1
1
1
1
1
1
1
1
1
1
1
1
1
1
1
1
2
2
2
2
2
2
2
2
2
2
2
2
2
2
2
2
2
2
2
2
2
2
2
2
2
2
2
2
2
2
3
3
3
3
3
3
3
3
3
3
3
3
3
3
3
3
3
3
3
3
3
3
3
3
3
3
3
3
3
3
4
4
4
4
4
4
4
4
4
4
4
4
4
4
4
4
4
4
4
4
4
4
4
4
4
4
4
4
4
4

LOOKUP_TABLE FreeFempp_table 5
1.00000000 0.00000000 0.00000000 1.00000000
1.00000000 1.00000000 0.00000000 1.00000000
1.00000000 0.00000000 1.00000000 1.00000000
0.00000000 1.00000000 0.00000000 1.00000000
0.00000000 1.00000000 1.00000000 1.00000000

POINT_DATA 961
FIELD FieldData 1
Density 1 961 float
2.82021286e-03 2.81972135e-03 2.81949178e-03 2.81887595e-03 2.81801377e-03 2.81760679e-03 2.81764427e-03 2.81762402e-03 2.81751505e-03 2.81788316e-03 2.81921681e-03 3.05124861e-03 1.15522578e-01 9.76984262e-01 9.85594749e-01 9.60633039e-01 3.64644140e-01 1.18054207e-02 3.52133741e-03 2.87435972e-03 2.82081822e-03 3.01410095e-03 7.70238088e-03 6.23911679e-01 9.15957332e-01 2.90183667e-02 8.11346807e-03 4.20021592e-03 2.81883334e-03 2.81835371e-03 3.18115973e-03 2.81982007e-03 2.81849620e-03 2.81822355e-03 2.81713461e-03 2.81488872e-03 2.81295460e-03 2.81224679e-03 2.81232386e-03 2.81280791e-03 2.81388639e-03 2.81617348e-03 2.81803962e-03 2.81884335e-03 3.51299066e-03 9.89063382e-01 9.93057311e-01 9.70959187e-01 2.25262698e-02 2.96228426e-03 2.82094092e-03 2.82050413e-03 2.82059610e-03 2.84298300e-03 5.37524931e-02 4.53532208e-03 9.95096207e-01 2.59234346e-02 5.24089579e-03 2.81569548e-03 2.81455298e-03 2.81790690e-03 2.81986943e-03 2.81848270e-03 2.81803240e-03 2.81753950e-03 2.81705405e-03 2.92720529e-03 3.24953208e-03 3.58423358e-03 3.62404785e-03 2.94296024e-03 2.81673507e-03 2.81759747e-03 2.81773880e-03 2.81844428e-03 2.81897536e-03 2.81997863e-03 2.82030064e-03 2.82045803e-03 2.82060262e-03 2.82098772e-03 2.82089715e-03 2.88981781e-03 3.45280115e-03 2.93635745e-02 9.91551876e-01 9.77295637e-01 2.52723873e-01 2.88607851e-02 3.76935373e-03 2.80931569e-03 2.81685474e-03 2.81993649e-03 2.81880936e-03 2.81857979e-03 3.34340101e-03 4.76972526e-03 6.66346680e-03 8.70201923e-03 1.05639240e-02 1.15605565e-02 1.05636083e-02 7.15994462e-03 3.80439102e-03 2.81824218e-03 2.81840307e-03 2.81795487e-03 2.81864451e-03 2.81949900e-03 2.81993719e-03 2.82018911e-03 2.82055233e-03 3.54793505e-03 1.16462752e-01 7.06415892e-01 9.38442707e-01 9.79248285e-01 9.51179862e-01 4.47623968e-01 4.08323519e-02 1.07801929e-02 2.80452264e-03 2.81140395e-03 2.97104660e-03 2.81946710e-03 3.14308074e-03 5.04525425e-03 8.04028101e-03 1.13549940e-02 1.42565547e-02 1.62816308e-02 1.68742780e-02 1.55748408e-02 1.25739099e-02 8.90777167e-03 5.75012900e-03 3.79287242e-03 3.03017139e-03 2.81914440e-03 2.81962566e-03 2.82005942e-03 2.82044150e-03 2.95591028e-03 1.14726983e-02 4.19209182e-01 8.55997682e-01 9.21761930e-01 9.33434486e-01 8.57187450e-01 3.99691135e-01 5.74840754e-02 1.60189532e-02 2.80419691e-03 2.80622416e-03 4.64945566e-03 3.03944177e-03 4.58653877e-03 1.00261467e-02 1.68887265e-02 2.34438293e-02 2.78176796e-02 2.98736654e-02 2.98101492e-02 2.77018007e-02 2.38720812e-02 1.91451553e-02 1.43880071e-02 1.02050360e-02 7.15568010e-03 5.18901134e-03 4.24960395e-03 3.76550318e-03 3.65034607e-03 5.07968618e-03 2.48103477e-02 3.10270548e-01 7.60938704e-01 8.71792138e-01 8.85968328e-01 8.09682667e-01 4.64775652e-01 9.18344408e-02 1.71967391e-02 2.80602020e-03 2.80535128e-03 4.65297103e-02 5.63437073e-03 2.17075590e-02 4.86541651e-02 7.38522634e-02 8.59576091e-02 8.61225352e-02 8.09102133e-02 7.37507120e-02 6.53882250e-02 5.60183451e-02 4.63124476e-02 3.70669328e-02 2.87117437e-02 2.14867834e-02 1.54569708e-02 1.13825249e-02 8.88155960e-03 8.10760725e-03 1.22953271e-02 4.29576635e-02 2.39975110e-01 6.14685774e-01 7.82675862e-01 8.12857449e-01 7.44626880e-01 5.01123607e-01 1.43618673e-01 1.69017874e-02 2.80816969e-03 2.80701113e-03 9.15686190e-01 1.46577001e-01 8.67601633e-01 5.87365806e-01 5.61008096e-01 4.54005539e-01 3.54946107e-01 2.75495023e-01 2.16150716e-01 1.70889467e-01 1.34810299e-01 1.05598874e-01 8.21414664e-02 6.33451939e-02 4.81157303e-02 3.58199626e-02 2.69804001e-02 2.16768067e-02 2.10485347e-02 3.13838646e-02 8.11611116e-02 2.58534968e-01 5.29647470e-01 6.85982764e-01 7.22793996e-01 6.70896649e-01 5.12894630e-01 2.06192493e-01 1.69948284e-02 2.81025819e-03 2.80908798e-03 8.63667309e-01 9.60810900e-01 9.91283178e-01 9.38164592e-01 9.10550594e-01 8.28957736e-01 7.15751231e-01 5.83382785e-01 4.55494165e-01 3.46397072e-01 2.59972781e-01 1.94800004e-01 1.47080198e-01 1.12270147e-01 8.65443572e-02 6.77257627e-02 5.54063693e-02 4.99524102e-02 5.44806533e-02 8.08570608e-02 1.60617575e-01 3.24364752e-01 5.03291726e-01 6.07917488e-01 6.32303298e-01 5.92780709e-01 4.93194044e-01 2.51937777e-01 1.78719331e-02 2.81216041e-03 2.81107682e-03 1.84150208e-02 2.49988317e-01 9.87599313e-01 9.50230539e-01 9.32892501e-01 8.85356188e-01 8.14998686e-01 7.18067229e-01 6.02077067e-01 4.82236177e-01 3.74522477e-01 2.88297534e-01 2.24280134e-01 1.78245246e-01 1.45712480e-01 1.24444872e-01 1.14504725e-01 1.17720842e-01 1.39925450e-01 1.93523601e-01 2.88175970e-01 4.05175328e-01 5.00880778e-01 5.51176190e-01 5.55180013e-01 5.19245505e-01 4.45635021e-01 2.54359245e-01 1.90967917e-02 2.81390455e-03 2.81289313e-03 5.80477668e-03 5.43105043e-03 8.84579062e-01 8.55820119e-01 8.51911604e-01 8.21818769e-01 7.72908568e-01 7.04302847e-01 6.19948566e-01 5.28662741e-01 4.41950142e-01 3.68839949e-01 3.12363952e-01 2.71222532e-01 2.44046643e-01 2.32298166e-01 2.39742577e-01 2.69312382e-01 3.19538683e-01 3.81399453e-01 4.39898849e-01 4.82954711e-01 5.05497515e-01 5.07617652e-01 4.90510732e-01 4.52896148e-01 3.84390086e-01 2.16714010e-01 1.86853986e-02 2.81554298e-03 2.81457650e-03 4.72117634e-03 4.13859962e-03 5.64037487e-02 2.70528436e-01 4.80491281e-01 5.83930850e-01 6.05225563e-01 5.86896777e-01 5.49781561e-01 5.06270111e-01 4.65128720e-01 4.31599498e-01 4.07185704e-01 3.92096579e-01 3.88579041e-01 4.03446525e-01 4.43140626e-01 5.01085460e-01 5.55606127e-01 5.85866809e-01 5.85343421e-01 5.59919596e-01 5.19897938e-01 4.75096434e-01 4.31938827e-01 3.87456506e-01 3.18569154e-01 1.59521401e-01 1.38291810e-02 2.81713810e-03 2.81617464e-03 3.44134634e-03 3.55507759e-03 6.76334230e-03 3.37458551e-02 1.25809357e-01 2.59764165e-01 3.54169518e-01 4.02320117e-01 4.24763769e-01 4.37813103e-01 4.51190978e-01 4.68506813e-01 4.88746643e-01 5.10859132e-01 5.39176524e-01 5.79073846e-01 6.37296438e-01 6.96988881e-01 7.34255910e-01 7.39137828e-01 7.10374832e-01 6.49958253e-01 5.65136075e-01 4.71733958e-01 3.88707817e-01 3.21756870e-01 2.42676154e-01 9.50740427e-02 7.71347946e-03 2.81868456e-03 2.81776674e-03 2.95516849e-03 3.10099265e-03 4.14542574e-03 1.38560180e-02 4.99104522e-02 1.12947829e-01 1.80603579e-01 2.40144715e-01 2.92496413e-01 3.44780296e-01 4.03402030e-01 4.68046069e-01 5.30993938e-01 5.86013436e-01 6.38940096e-01 6.92114174e-01 7.48957038e-01 8.01109374e-01 8.29475701e-01 8.31847191e-01 8.08707952e-01 7.55756378e-01 6.65707886e-01 5.39696872e-01 4.01928544e-01 2.81199127e-01 1.65306345e-01 4.43947650e-02 4.66271490e-03 2.81977211e-03 2.81932880e-03 2.82154419e-03 2.81999935e-03 3.66775389e-03 1.11207273e-02 3.45325135e-02 6.83844462e-02 1.05775908e-01 1.46882713e-01 1.94284409e-01 2.53883362e-01 3.32570285e-01 4.29032266e-01 5.26203692e-01 6.07507110e-01 6.82525516e-01 7.32969403e-01 7.99839497e-01 8.44917953e-01 8.73777270e-01 8.82676244e-01 8.75710785e-01 8.51373494e-01 8.00713181e-01 7.05431998e-01 5.45993149e-01 3.34904641e-01 1.32955685e-01 2.42137201e-02 3.74415866e-03 2.82014906e-03 2.82028085e-03 2.82141613e-03 2.81966152e-03 3.80041637e-03 1.19508049e-02 3.03567778e-02 5.25434427e-02 7.53394142e-02 1.01490118e-01 1.35409772e-01 1.84330940e-01 2.58620769e-01 3.63684893e-01 4.83094513e-01 5.87803602e-01 6.63411856e-01 7.24348009e-01 8.00921500e-01 8.56415451e-01 8.89558256e-01 9.06923890e-01 9.13274109e-01 9.11222637e-01 8.99308980e-01 8.70524049e-01 8.02746177e-01 6.22406304e-01 2.37112999e-01 2.88827159e-02 3.93643091e-03 2.82032066e-03 2.82062683e-03 2.82031274e-03 2.81925802e-03 4.68366453e-03 1.41545050e-02 2.91036367e-02 4.53820787e-02 6.10627681e-02 7.84175545e-02 1.01689696e-01 1.37421057e-01 1.96076721e-01 2.88556099e-01 4.10153002e-01 5.30783296e-01 6.36145353e-01 7.09791780e-01 7.91924894e-01 8.43402326e-01 8.84543598e-01 9.11480069e-01 9.28261817e-01 9.38432693e-01 9.43716288e-01 9.44457591e-01 9.38507736e-01 9.13941503e-01 7.92334557e-01 2.41695225e-01 1.15496349e-02 2.82067270e-03 2.82068737e-03 2.81850668e-03 2.81846058e-03 6.14252035e-03 1.62637774e-02 2.87557878e-02 4.13181372e-02 5.25292866e-02 6.44122884e-02 8.05047154e-02 1.05715908e-01 1.48008466e-01 2.18104571e-01 3.20770532e-01 4.39935148e-01 5.50408185e-01 6.48381412e-01 7.31343925e-01 7.98406243e-01 8.53448987e-01 8.94899309e-01 9.24357355e-01 9.44548786e-01 9.58154082e-01 9.67227280e-01 9.72852170e-01 9.74912822e-01 9.71223533e-01 9.51035261e-01 9.27581489e-01 4.59077721e-03 3.81615944e-03 2.81744357e-03 2.81732320e-03 6.92269485e-03 1.89543236e-02 2.96962224e-02 3.86434682e-02 4.59114946e-02 5.38179949e-02 6.49860501e-02 8.25580806e-02 1.11510701e-01 1.59208611e-01 2.32270464e-01 3.27715874e-01 4.29903537e-01 5.26531816e-01 6.16879880e-01 6.98676944e-01 7.74912477e-01 8.41740251e-01 8.94248962e-01 9.31318402e-01 9.55664873e-01 9.71071303e-01 9.80445564e-01 9.85651314e-01 9.88047302e-01 9.88033116e-01 9.94507253e-01 3.56158972e-01 6.93923309e-02 2.81704590e-03 2.81636487e-03 7.14363763e-03 2.38441061e-02 3.25256772e-02 3.65856588e-02 3.98709513e-02 4.46359664e-02 5.23183420e-02 6.44944087e-02 8.37468728e-02 1.13999426e-01 1.59490928e-01 2.21352667e-01 2.94455886e-01 3.71242791e-01 4.49217588e-01 5.31002402e-01 6.21086836e-01 7.17492521e-01 8.08196366e-01 8.80291939e-01 9.29574132e-01 9.59775865e-01 9.76779163e-01 9.85611200e-01 9.90093708e-01 9.91232276e-01 9.97034490e-01 9.90876853e-01 9.15183961e-01 2.81625683e-03 2.81537767e-03 7.55718164e-03 3.22758444e-02 3.69595438e-02 3.44677903e-02 3.40418220e-02 3.64610218e-02 4.17178683e-02 5.01992628e-02 6.29664212e-02 8.17326233e-02 1.08389169e-01 1.43807530e-01 1.86633185e-01 2.34155670e-01 2.85446882e-01 3.43521118e-01 4.15147305e-01 5.06327629e-01 6.15387857e-01 7.29295731e-01 8.29287827e-01 9.02284443e-01 9.46471512e-01 9.68886733e-01 9.79251623e-01 9.81364667e-01 9.97153044e-01 9.46375489e-01 9.93628860e-01 2.81619863e-03 2.81456928e-03 8.55923258e-03 4.53490466e-02 4.16096747e-02 3.15938741e-02 2.83936281e-02 2.93573905e-02 3.30360495e-02 3.90636511e-02 4.77042682e-02 5.95815629e-02 7.53676444e-02 9.53151733e-02 1.18863955e-01 1.44921124e-01 1.72969356e-01 2.04167143e-01 2.41740718e-01 2.90141463e-01 3.53446752e-01 4.33935523e-01 5.31192660e-01 6.39976084e-01 7.41617620e-01 8.00768495e-01 7.72966921e-01 5.55288911e-01 3.95665765e-01 1.30414786e-02 7.57168114e-01 2.82463711e-03 2.81676487e-03 1.06439479e-02 6.17234260e-02 4.36607674e-02 2.74731368e-02 2.30494570e-02 2.34074537e-02 2.61458904e-02 3.05571463e-02 3.65710109e-02 4.43649031e-02 5.41286245e-02 6.58404827e-02 7.91109651e-02 9.32652429e-02 1.07698321e-01 1.22239210e-01 1.37224376e-01 1.53111085e-01 1.69863418e-01 1.86640099e-01 2.02361509e-01 2.16990456e-01 2.27463320e-01 2.04791024e-01 1.08597793e-01 3.10443901e-02 8.17947462e-03 3.53066693e-03 6.61081355e-03 2.86388956e-03 2.83325906e-03 1.44316619e-02 7.12896213e-02 3.96333374e-02 2.22663023e-02 1.82867888e-02 1.86471343e-02 2.08527800e-02 2.41675377e-02 2.84340233e-02 3.36804911e-02 3.99354286e-02 4.70988043e-02 5.48618510e-02 6.27225339e-02 7.01004416e-02 7.64617249e-02 8.13462883e-02 8.42626989e-02 8.45824182e-02 8.16701427e-02 7.54462630e-02 6.71629682e-02 5.85987270e-02 4.74387184e-02 2.80812774e-02 1.15366979e-02 4.32773307e-03 2.81960773e-03 3.38341785e-03 2.98627093e-03 2.88772536e-03 1.90505683e-02 5.96528538e-02 2.96585634e-02 1.69888251e-02 1.44657400e-02 1.50936004e-02 1.69621222e-02 1.94740072e-02 2.24953871e-02 2.60262564e-02 3.00532859e-02 3.44729908e-02 3.90532650e-02 4.34386358e-02 4.71968129e-02 4.98775542e-02 5.10557480e-02 5.03692329e-02 4.76116464e-02 4.29105498e-02 3.69154029e-02 3.08496002e-02 2.60402225e-02 2.23671515e-02 1.69363897e-02 9.86673217e-03 4.25809808e-03 2.80675245e-03 2.80785095e-03 3.85706895e-03 2.97039934e-03 1.90609843e-02 3.48640569e-02 1.92762334e-02 1.28607117e-02 1.18480939e-02 1.27388341e-02 1.43120373e-02 1.61573365e-02 1.82133634e-02 2.04987768e-02 2.29999423e-02 2.56354138e-02 2.82489546e-02 3.06201205e-02 3.24889459e-02 3.35853584e-02 3.36584449e-02 3.25198956e-02 3.01297158e-02 2.67108642e-02 2.27953810e-02 1.91370696e-02 1.65107250e-02 1.51660601e-02 1.40021332e-02 1.12715624e-02 5.58708142e-03 2.80257943e-03 2.72286544e-03 1.04856929e-02 4.09652200e-03 1.95772201e-02 1.98397860e-02 1.30755175e-02 1.04779163e-02 1.05270240e-02 1.15511026e-02 1.27560301e-02 1.39484908e-02 1.51801556e-02 1.65047236e-02 1.79165509e-02 1.93574671e-02 2.07318179e-02 2.19199061e-02 2.27915049e-02 2.32179686e-02 2.30823178e-02 2.22949665e-02 2.08317339e-02 1.87997613e-02 1.64897423e-02 1.43507440e-02 1.28988065e-02 1.24968374e-02 1.31340278e-02 1.48710348e-02 1.19523490e-02 2.74429284e-03 2.62533594e-03 1.90603621e-02 8.40822421e-03 1.48309901e-01 2.32308395e-02 1.14911860e-02 9.95873939e-03 1.05608068e-02 1.14515340e-02 1.20675256e-02 1.25318710e-02 1.30245006e-02 1.36074480e-02 1.42615931e-02 1.49341403e-02 1.55619672e-02 1.60809774e-02 1.64313074e-02 1.65610593e-02 1.64284967e-02 1.60042364e-02 1.52789159e-02 1.42852012e-02 1.31373266e-02 1.20711559e-02 1.14604421e-02 1.17073534e-02 1.41171524e-02 3.29060629e-02 4.60516781e-01 2.60984711e-03 2.37387791e-03 8.12786166e-03 4.97042947e-03 9.57676113e-01 2.39617899e-01 1.57464501e-02 1.11913914e-02 1.15938354e-02 1.18627381e-02 1.16493972e-02 1.14269173e-02 1.13791851e-02 1.14938859e-02 1.17072500e-02 1.19559160e-02 1.21879149e-02 1.23623535e-02 1.24480091e-02 1.24231577e-02 1.22766225e-02 1.20096197e-02 1.16378879e-02 1.11952499e-02 1.07488483e-02 1.04634073e-02 1.08251898e-02 1.30095594e-02 2.79265679e-02 8.25387537e-01 9.32129443e-01 2.42092460e-03 1.90611999e-03 2.40641995e-03 4.31226427e-03 9.95800734e-01 9.75499094e-01 3.44201289e-02 1.16818687e-02 1.10298749e-02 1.09234974e-02 1.04748495e-02 1.01575060e-02 1.00590419e-02 1.01078497e-02 1.02230636e-02 1.03459414e-02 1.04376115e-02 1.04719205e-02 1.04300994e-02 1.02984756e-02 1.00694280e-02 9.74522904e-03 9.34308767e-03 8.89865682e-03 8.47026426e-03 8.18630867e-03 8.68286192e-03 1.51059814e-02 3.91742259e-01 9.80023623e-01 9.93009329e-01 3.02266609e-03 1.16689201e-03 1.12798193e-03 5.68216346e-05 9.96438742e-01 1.05210114e-02 2.27622539e-02 1.61961876e-02 1.66285820e-02 1.76567305e-02 1.78554934e-02 1.78555232e-02 1.79620292e-02 1.81763154e-02 1.84212308e-02 1.86293945e-02 1.87586136e-02 1.87837034e-02 1.86854564e-02 1.84437819e-02 1.80374775e-02 1.74518619e-02 1.66939460e-02 1.58103686e-02 1.48986932e-02 1.41170323e-02 1.38411792e-02 1.58409178e-02 3.17900032e-02 4.61565197e-01 9.94388819e-01 6.63936418e-03 2.84490688e-03 
