# vtk DataFile Version 2.0
results_case1_non_linear/iter11.vtk, Created by Freefem++ 
ASCII
DATASET UNSTRUCTURED_GRID
POINTS 961 float
0 0 0
0.033333333 0 0
0.066666667 0 0
0.1 0 0
0.13333333 0 0
0.16666667 0 0
0.2 0 0
0.23333333 0 0
0.26666667 0 0
0.3 0 0
0.33333333 0 0
0.36666667 0 0
0.4 0 0
0.43333333 0 0
0.46666667 0 0
0.5 0 0
0.53333333 0 0
0.56666667 0 0
0.6 0 0
0.63333333 0 0
0.66666667 0 0
0.7 0 0
0.73333333 0 0
0.76666667 0 0
0.8 0 0
0.83333333 0 0
0.86666667 0 0
0.9 0 0
0.93333333 0 0
0.96666667 0 0
1 0 0
0 0.033333333 0
0.033333333 0.033333333 0
0.066666667 0.033333333 0
0.1 0.033333333 0
0.13333333 0.033333333 0
0.16666667 0.033333333 0
0.2 0.033333333 0
0.23333333 0.033333333 0
0.26666667 0.033333333 0
0.3 0.033333333 0
0.33333333 0.033333333 0
0.36666667 0.033333333 0
0.4 0.033333333 0
0.43333333 0.033333333 0
0.46666667 0.033333333 0
0.5 0.033333333 0
0.53333333 0.033333333 0
0.56666667 0.033333333 0
0.6 0.033333333 0
0.63333333 0.033333333 0
0.66666667 0.033333333 0
0.7 0.033333333 0
0.73333333 0.033333333 0
0.76666667 0.033333333 0
0.8 0.033333333 0
0.83333333 0.033333333 0
0.86666667 0.033333333 0
0.9 0.033333333 0
0.93333333 0.033333333 0
0.96666667 0.033333333 0
1 0.033333333 0
0 0.066666667 0
0.033333333 0.066666667 0
0.066666667 0.066666667 0
0.1 0.066666667 0
0.13333333 0.066666667 0
0.16666667 0.066666667 0
0.2 0.066666667 0
0.23333333 0.066666667 0
0.26666667 0.066666667 0
0.3 0.066666667 0
0.33333333 0.066666667 0
0.36666667 0.066666667 0
0.4 0.066666667 0
0.43333333 0.066666667 0
0.46666667 0.066666667 0
0.5 0.066666667 0
0.53333333 0.066666667 0
0.56666667 0.066666667 0
0.6 0.066666667 0
0.63333333 0.066666667 0
0.66666667 0.066666667 0
0.7 0.066666667 0
0.73333333 0.066666667 0
0.76666667 0.066666667 0
0.8 0.066666667 0
0.83333333 0.066666667 0
0.86666667 0.066666667 0
0.9 0.066666667 0
0.93333333 0.066666667 0
0.96666667 0.066666667 0
1 0.066666667 0
0 0.1 0
0.033333333 0.1 0
0.066666667 0.1 0
0.1 0.1 0
0.13333333 0.1 0
0.16666667 0.1 0
0.2 0.1 0
0.23333333 0.1 0
0.26666667 0.1 0
0.3 0.1 0
0.33333333 0.1 0
0.36666667 0.1 0
0.4 0.1 0
0.43333333 0.1 0
0.46666667 0.1 0
0.5 0.1 0
0.53333333 0.1 0
0.56666667 0.1 0
0.6 0.1 0
0.63333333 0.1 0
0.66666667 0.1 0
0.7 0.1 0
0.73333333 0.1 0
0.76666667 0.1 0
0.8 0.1 0
0.83333333 0.1 0
0.86666667 0.1 0
0.9 0.1 0
0.93333333 0.1 0
0.96666667 0.1 0
1 0.1 0
0 0.13333333 0
0.033333333 0.13333333 0
0.066666667 0.13333333 0
0.1 0.13333333 0
0.13333333 0.13333333 0
0.16666667 0.13333333 0
0.2 0.13333333 0
0.23333333 0.13333333 0
0.26666667 0.13333333 0
0.3 0.13333333 0
0.33333333 0.13333333 0
0.36666667 0.13333333 0
0.4 0.13333333 0
0.43333333 0.13333333 0
0.46666667 0.13333333 0
0.5 0.13333333 0
0.53333333 0.13333333 0
0.56666667 0.13333333 0
0.6 0.13333333 0
0.63333333 0.13333333 0
0.66666667 0.13333333 0
0.7 0.13333333 0
0.73333333 0.13333333 0
0.76666667 0.13333333 0
0.8 0.13333333 0
0.83333333 0.13333333 0
0.86666667 0.13333333 0
0.9 0.13333333 0
0.93333333 0.13333333 0
0.96666667 0.13333333 0
1 0.13333333 0
0 0.16666667 0
0.033333333 0.16666667 0
0.066666667 0.16666667 0
0.1 0.16666667 0
0.13333333 0.16666667 0
0.16666667 0.16666667 0
0.2 0.16666667 0
0.23333333 0.16666667 0
0.26666667 0.16666667 0
0.3 0.16666667 0
0.33333333 0.16666667 0
0.36666667 0.16666667 0
0.4 0.16666667 0
0.43333333 0.16666667 0
0.46666667 0.16666667 0
0.5 0.16666667 0
0.53333333 0.16666667 0
0.56666667 0.16666667 0
0.6 0.16666667 0
0.63333333 0.16666667 0
0.66666667 0.16666667 0
0.7 0.16666667 0
0.73333333 0.16666667 0
0.76666667 0.16666667 0
0.8 0.16666667 0
0.83333333 0.16666667 0
0.86666667 0.16666667 0
0.9 0.16666667 0
0.93333333 0.16666667 0
0.96666667 0.16666667 0
1 0.16666667 0
0 0.2 0
0.033333333 0.2 0
0.066666667 0.2 0
0.1 0.2 0
0.13333333 0.2 0
0.16666667 0.2 0
0.2 0.2 0
0.23333333 0.2 0
0.26666667 0.2 0
0.3 0.2 0
0.33333333 0.2 0
0.36666667 0.2 0
0.4 0.2 0
0.43333333 0.2 0
0.46666667 0.2 0
0.5 0.2 0
0.53333333 0.2 0
0.56666667 0.2 0
0.6 0.2 0
0.63333333 0.2 0
0.66666667 0.2 0
0.7 0.2 0
0.73333333 0.2 0
0.76666667 0.2 0
0.8 0.2 0
0.83333333 0.2 0
0.86666667 0.2 0
0.9 0.2 0
0.93333333 0.2 0
0.96666667 0.2 0
1 0.2 0
0 0.23333333 0
0.033333333 0.23333333 0
0.066666667 0.23333333 0
0.1 0.23333333 0
0.13333333 0.23333333 0
0.16666667 0.23333333 0
0.2 0.23333333 0
0.23333333 0.23333333 0
0.26666667 0.23333333 0
0.3 0.23333333 0
0.33333333 0.23333333 0
0.36666667 0.23333333 0
0.4 0.23333333 0
0.43333333 0.23333333 0
0.46666667 0.23333333 0
0.5 0.23333333 0
0.53333333 0.23333333 0
0.56666667 0.23333333 0
0.6 0.23333333 0
0.63333333 0.23333333 0
0.66666667 0.23333333 0
0.7 0.23333333 0
0.73333333 0.23333333 0
0.76666667 0.23333333 0
0.8 0.23333333 0
0.83333333 0.23333333 0
0.86666667 0.23333333 0
0.9 0.23333333 0
0.93333333 0.23333333 0
0.96666667 0.23333333 0
1 0.23333333 0
0 0.26666667 0
0.033333333 0.26666667 0
0.066666667 0.26666667 0
0.1 0.26666667 0
0.13333333 0.26666667 0
0.16666667 0.26666667 0
0.2 0.26666667 0
0.23333333 0.26666667 0
0.26666667 0.26666667 0
0.3 0.26666667 0
0.33333333 0.26666667 0
0.36666667 0.26666667 0
0.4 0.26666667 0
0.43333333 0.26666667 0
0.46666667 0.26666667 0
0.5 0.26666667 0
0.53333333 0.26666667 0
0.56666667 0.26666667 0
0.6 0.26666667 0
0.63333333 0.26666667 0
0.66666667 0.26666667 0
0.7 0.26666667 0
0.73333333 0.26666667 0
0.76666667 0.26666667 0
0.8 0.26666667 0
0.83333333 0.26666667 0
0.86666667 0.26666667 0
0.9 0.26666667 0
0.93333333 0.26666667 0
0.96666667 0.26666667 0
1 0.26666667 0
0 0.3 0
0.033333333 0.3 0
0.066666667 0.3 0
0.1 0.3 0
0.13333333 0.3 0
0.16666667 0.3 0
0.2 0.3 0
0.23333333 0.3 0
0.26666667 0.3 0
0.3 0.3 0
0.33333333 0.3 0
0.36666667 0.3 0
0.4 0.3 0
0.43333333 0.3 0
0.46666667 0.3 0
0.5 0.3 0
0.53333333 0.3 0
0.56666667 0.3 0
0.6 0.3 0
0.63333333 0.3 0
0.66666667 0.3 0
0.7 0.3 0
0.73333333 0.3 0
0.76666667 0.3 0
0.8 0.3 0
0.83333333 0.3 0
0.86666667 0.3 0
0.9 0.3 0
0.93333333 0.3 0
0.96666667 0.3 0
1 0.3 0
0 0.33333333 0
0.033333333 0.33333333 0
0.066666667 0.33333333 0
0.1 0.33333333 0
0.13333333 0.33333333 0
0.16666667 0.33333333 0
0.2 0.33333333 0
0.23333333 0.33333333 0
0.26666667 0.33333333 0
0.3 0.33333333 0
0.33333333 0.33333333 0
0.36666667 0.33333333 0
0.4 0.33333333 0
0.43333333 0.33333333 0
0.46666667 0.33333333 0
0.5 0.33333333 0
0.53333333 0.33333333 0
0.56666667 0.33333333 0
0.6 0.33333333 0
0.63333333 0.33333333 0
0.66666667 0.33333333 0
0.7 0.33333333 0
0.73333333 0.33333333 0
0.76666667 0.33333333 0
0.8 0.33333333 0
0.83333333 0.33333333 0
0.86666667 0.33333333 0
0.9 0.33333333 0
0.93333333 0.33333333 0
0.96666667 0.33333333 0
1 0.33333333 0
0 0.36666667 0
0.033333333 0.36666667 0
0.066666667 0.36666667 0
0.1 0.36666667 0
0.13333333 0.36666667 0
0.16666667 0.36666667 0
0.2 0.36666667 0
0.23333333 0.36666667 0
0.26666667 0.36666667 0
0.3 0.36666667 0
0.33333333 0.36666667 0
0.36666667 0.36666667 0
0.4 0.36666667 0
0.43333333 0.36666667 0
0.46666667 0.36666667 0
0.5 0.36666667 0
0.53333333 0.36666667 0
0.56666667 0.36666667 0
0.6 0.36666667 0
0.63333333 0.36666667 0
0.66666667 0.36666667 0
0.7 0.36666667 0
0.73333333 0.36666667 0
0.76666667 0.36666667 0
0.8 0.36666667 0
0.83333333 0.36666667 0
0.86666667 0.36666667 0
0.9 0.36666667 0
0.93333333 0.36666667 0
0.96666667 0.36666667 0
1 0.36666667 0
0 0.4 0
0.033333333 0.4 0
0.066666667 0.4 0
0.1 0.4 0
0.13333333 0.4 0
0.16666667 0.4 0
0.2 0.4 0
0.23333333 0.4 0
0.26666667 0.4 0
0.3 0.4 0
0.33333333 0.4 0
0.36666667 0.4 0
0.4 0.4 0
0.43333333 0.4 0
0.46666667 0.4 0
0.5 0.4 0
0.53333333 0.4 0
0.56666667 0.4 0
0.6 0.4 0
0.63333333 0.4 0
0.66666667 0.4 0
0.7 0.4 0
0.73333333 0.4 0
0.76666667 0.4 0
0.8 0.4 0
0.83333333 0.4 0
0.86666667 0.4 0
0.9 0.4 0
0.93333333 0.4 0
0.96666667 0.4 0
1 0.4 0
0 0.43333333 0
0.033333333 0.43333333 0
0.066666667 0.43333333 0
0.1 0.43333333 0
0.13333333 0.43333333 0
0.16666667 0.43333333 0
0.2 0.43333333 0
0.23333333 0.43333333 0
0.26666667 0.43333333 0
0.3 0.43333333 0
0.33333333 0.43333333 0
0.36666667 0.43333333 0
0.4 0.43333333 0
0.43333333 0.43333333 0
0.46666667 0.43333333 0
0.5 0.43333333 0
0.53333333 0.43333333 0
0.56666667 0.43333333 0
0.6 0.43333333 0
0.63333333 0.43333333 0
0.66666667 0.43333333 0
0.7 0.43333333 0
0.73333333 0.43333333 0
0.76666667 0.43333333 0
0.8 0.43333333 0
0.83333333 0.43333333 0
0.86666667 0.43333333 0
0.9 0.43333333 0
0.93333333 0.43333333 0
0.96666667 0.43333333 0
1 0.43333333 0
0 0.46666667 0
0.033333333 0.46666667 0
0.066666667 0.46666667 0
0.1 0.46666667 0
0.13333333 0.46666667 0
0.16666667 0.46666667 0
0.2 0.46666667 0
0.23333333 0.46666667 0
0.26666667 0.46666667 0
0.3 0.46666667 0
0.33333333 0.46666667 0
0.36666667 0.46666667 0
0.4 0.46666667 0
0.43333333 0.46666667 0
0.46666667 0.46666667 0
0.5 0.46666667 0
0.53333333 0.46666667 0
0.56666667 0.46666667 0
0.6 0.46666667 0
0.63333333 0.46666667 0
0.66666667 0.46666667 0
0.7 0.46666667 0
0.73333333 0.46666667 0
0.76666667 0.46666667 0
0.8 0.46666667 0
0.83333333 0.46666667 0
0.86666667 0.46666667 0
0.9 0.46666667 0
0.93333333 0.46666667 0
0.96666667 0.46666667 0
1 0.46666667 0
0 0.5 0
0.033333333 0.5 0
0.066666667 0.5 0
0.1 0.5 0
0.13333333 0.5 0
0.16666667 0.5 0
0.2 0.5 0
0.23333333 0.5 0
0.26666667 0.5 0
0.3 0.5 0
0.33333333 0.5 0
0.36666667 0.5 0
0.4 0.5 0
0.43333333 0.5 0
0.46666667 0.5 0
0.5 0.5 0
0.53333333 0.5 0
0.56666667 0.5 0
0.6 0.5 0
0.63333333 0.5 0
0.66666667 0.5 0
0.7 0.5 0
0.73333333 0.5 0
0.76666667 0.5 0
0.8 0.5 0
0.83333333 0.5 0
0.86666667 0.5 0
0.9 0.5 0
0.93333333 0.5 0
0.96666667 0.5 0
1 0.5 0
0 0.53333333 0
0.033333333 0.53333333 0
0.066666667 0.53333333 0
0.1 0.53333333 0
0.13333333 0.53333333 0
0.16666667 0.53333333 0
0.2 0.53333333 0
0.23333333 0.53333333 0
0.26666667 0.53333333 0
0.3 0.53333333 0
0.33333333 0.53333333 0
0.36666667 0.53333333 0
0.4 0.53333333 0
0.43333333 0.53333333 0
0.46666667 0.53333333 0
0.5 0.53333333 0
0.53333333 0.53333333 0
0.56666667 0.53333333 0
0.6 0.53333333 0
0.63333333 0.53333333 0
0.66666667 0.53333333 0
0.7 0.53333333 0
0.73333333 0.53333333 0
0.76666667 0.53333333 0
[...]
CELL_DATA 1920
Scalars  Label int 1
LOOKUP_TABLE FreeFempp_table
0
0
0
0
0
0
0
0
0
0
0
0
0
0
0
0
0
0
0
0
0
0
0
0
0
0
0
0
0
0
0
0
0
0
0
0
0
0
0
0
0
0
0
0
0
0
0
0
0
0
0
0
0
0
0
0
0
0
0
0
0
0
0
0
0
0
0
0
0
0
0
0
0
0
0
0
0
0
0
0
0
0
0
0
0
0
0
0
0
0
0
0
0
0
0
0
0
0
0
0
0
0
0
0
0
0
0
0
0
0
0
0
0
0
0
0
0
0
0
0
0
0
0
0
0
0
0
0
0
0
0
0
0
0
0
0
0
0
0
0
0
0
0
0
0
0
0
0
0
0
0
0
0
0
0
0
0
0
0
0
0
0
0
0
0
0
0
0
0
0
0
0
0
0
0
0
0
0
0
0
0
0
0
0
0
0
0
0
0
0
0
0
0
0
0
0
0
0
0
0
0
0
0
0
0
0
0
0
0
0
0
0
0
0
0
0
0
0
0
0
0
0
0
0
0
0
0
0
0
0
0
0
0
0
0
0
0
0
0
0
0
0
0
0
0
0
0
0
0
0
0
0
0
0
0
0
0
0
0
0
0
0
0
0
0
0
0
0
0
0
0
0
0
0
0
0
0
0
0
0
0
0
0
0
0
0
0
0
0
0
0
0
0
0
0
0
0
0
0
0
0
0
0
0
0
0
0
0
0
0
0
0
0
0
0
0
0
0
0
0
0
0
0
0
0
0
0
0
0
0
0
0
0
0
0
0
0
0
0
0
0
0
0
0
0
0
0
0
0
0
0
0
0
0
0
0
0
0
0
0
0
0
0
0
0
0
0
0
0
0
0
0
0
0
0
0
0
0
0
0
0
0
0
0
0
0
0
0
0
0
0
0
0
0
0
0
0
0
0
0
0
0
0
0
0
0
0
0
0
0
0
0
0
0
0
0
0
0
0
0
0
0
0
0
0
0
0
0
0
0
0
0
0
0
0
0
0
0
0
0
0
0
0
0
0
0
0
0
0
0
0
0
0
0
0
0
0
0
0
0
0
0
0
0
0
0
0
0
0
0
0
0
0
0
0
0
0
0
0
0
0
0
0
0
0
0
0
0
0
0
0
0
0
0
0
0
0
0
0
0
0
0
0
0
0
0
0
0
0
0
0
0
0
0
0
0
0
0
0
0
0
0
0
0
0
0
0
0
0
0
0
0
0
0
0
0
0
0
0
0
0
0
0
0
0
0
0
0
0
0
0
0
0
0
0
0
0
0
0
0
0
0
0
0
0
0
0
0
0
0
0
0
0
0
0
0
0
0
0
0
0
0
0
0
0
0
0
0
0
0
0
0
0
0
0
0
0
0
0
0
0
0
0
0
0
0
0
0
0
0
0
0
0
0
0
0
0
0
0
0
0
0
0
0
0
0
0
0
0
0
0
0
0
0
0
0
0
0
0
0
0
0
0
0
0
0
0
0
0
0
0
0
0
0
0
0
0
0
0
0
0
0
0
0
0
0
0
0
0
0
0
0
0
0
0
0
0
0
0
0
0
0
0
0
0
0
0
0
0
0
0
0
0
0
0
0
0
0
0
0
0
0
0
0
0
0
0
0
0
0
0
0
0
0
0
0
0
0
0
0
0
0
0
0
0
0
0
0
0
0
0
0
0
0
0
0
0
0
0
0
0
0
0
0
0
0
0
0
0
0
0
0
0
0
0
0
0
0
0
0
0
0
0
0
0
0
0
0
0
0
0
0
0
0
0
0
0
0
0
0
0
0
0
0
0
0
0
0
0
0
0
0
0
0
0
0
0
0
0
0
0
0
0
0
0
0
0
0
0
0
0
0
0
0
0
0
0
0
0
0
0
0
0
0
0
0
0
0
0
0
0
0
0
0
0
0
0
0
0
0
0
0
0
0
0
0
0
0
0
0
0
0
0
0
0
0
0
0
0
0
0
0
0
0
0
0
0
0
0
0
0
0
0
0
0
0
0
0
0
0
0
0
0
0
0
0
0
0
0
0
0
0
0
0
0
0
0
0
0
0
0
0
0
0
0
0
0
0
0
0
0
0
0
0
0
0
0
0
0
0
0
0
0
0
0
0
0
0
0
0
0
0
0
0
0
0
0
0
0
0
0
0
0
0
0
0
0
0
0
0
0
0
0
0
0
0
0
0
0
0
0
0
0
0
0
0
0
0
0
0
0
0
0
0
0
0
0
0
0
0
0
0
0
0
0
0
0
0
0
0
0
0
0
0
0
0
0
0
0
0
0
0
0
0
0
0
0
0
0
0
0
0
0
0
0
0
0
0
0
0
0
0
0
0
0
0
0
0
0
0
0
0
0
0
0
0
0
0
0
0
0
0
0
0
0
0
0
0
0
0
0
0
0
0
0
0
0
0
0
0
0
0
0
0
0
0
0
0
0
0
0
0
0
0
0
0
0
0
0
0
0
0
0
0
0
0
0
0
0
0
0
0
0
0
0
0
0
0
0
0
0
0
0
0
0
0
0
0
0
0
0
0
0
0
0
0
0
0
0
0
0
0
0
0
0
0
0
0
0
0
0
0
0
0
0
0
0
0
0
0
0
0
0
0
0
0
0
0
0
0
0
0
0
0
0
0
0
0
0
0
0
0
0
0
0
0
0
0
0
0
0
0
0
0
0
0
0
0
0
0
0
0
0
0
0
0
0
0
0
0
0
0
0
0
0
0
0
0
0
0
0
0
0
0
0
0
0
0
0
0
0
0
0
0
0
0
0
0
0
0
0
0
0
0
0
0
0
0
0
0
0
0
0
0
0
0
0
0
0
0
0
0
0
0
0
0
0
0
0
0
0
0
0
0
0
0
0
0
0
0
0
0
0
0
0
0
0
0
0
0
0
0
0
0
0
0
0
0
0
0
0
0
0
0
0
0
0
0
0
0
0
0
0
0
0
0
0
0
0
0
0
0
0
0
0
0
0
0
0
0
0
0
0
0
0
0
0
0
0
0
0
0
0
0
0
0
0
0
0
0
0
0
0
0
0
0
0
0
0
0
0
0
0
0
0
0
0
0
0
0
0
0
0
0
0
0
0
0
0
0
0
0
0
0
0
0
0
0
0
0
0
0
0
0
0
0
0
0
0
0
0
0
0
0
0
0
0
0
0
0
0
0
0
0
0
0
0
0
0
0
0
0
0
0
0
0
0
0
0
0
0
0
0
0
0
0
0
0
0
0
0
0
0
0
0
0
0
0
0
0
0
0
0
0
0
0
0
0
0
0
0
0
0
0
0
0
0
0
0
0
0
0
0
0
0
0
0
0
0
0
0
0
0
0
0
0
0
0
0
0
0
0
0
0
0
0
0
0
0
0
0
0
0
0
0
0
0
0
0
0
0
0
0
0
0
0
0
0
0
0
0
0
0
0
0
0
0
0
0
0
0
0
0
0
0
0
0
0
0
0
0
0
0
0
0
0
0
0
0
0
0
0
0
0
0
0
0
0
0
0
0
0
0
0
0
0
0
0
0
0
0
0
0
0
0
0
0
0
0
0
0
0
0
0
0
0
0
0
0
0
0
0
0
0
0
0
0
0
0
0
0
0
0
0
0
0
0
0
0
0
0
0
0
0
0
0
0
0
0
0
0
0
0
0
0
0
0
0
0
0
0
0
0
0
0
0
0
0
0
0
0
0
0
0
0
0
0
0
0
0
0
0
0
0
0
0
0
0
0
0
0
0
0
0
0
0
0
0
0
0
0
0
0
0
0
0
0
0
0
0
0
0
0
0
0
0
0
0
0
0
0
0
0
0
0
0
0
0
0
0
0
0
0
0
0
0
0
0
0
0
0
0
0
0
0
0
0
0
0
0
0
0
0
0
0
0
0
0
0
0
0
0
0
0
0
0
0
0
0
0
0
0
0
0
0
0
0
0
0
0
0
0
0
0
0
0
0
0
0
0
0
0
0
0
0
0
0
0
0
0
0
0
0
0
0
0
0
0
0
0
0
0
0
0
0
0
0
0
0
0
0
0
0
0
0
0
0
0
0
0
0
0
0
0
0
0
0
0
0
0
0
0
0
0
0
0
0
0
0
0
1
1
1
1
1
1
1
1
1
1
1
1
1
1
1
1
1
1
1
1
1
1
1
1
1
1
1
1
1
1
2
2
2
2
2
2
2
2
2
2
2
2
2
2
2
2
2
2
2
2
2
2
2
2
2
2
2
2
2
2
3
3
3
3
3
3
3
3
3
3
3
3
3
3
3
3
3
3
3
3
3
3
3
3
3
3
3
3
3
3
4
4
4
4
4
4
4
4
4
4
4
4
4
4
4
4
4
4
4
4
4
4
4
4
4
4
4
4
4
4

LOOKUP_TABLE FreeFempp_table 5
1.00000000 0.00000000 0.00000000 1.00000000
1.00000000 1.00000000 0.00000000 1.00000000
1.00000000 0.00000000 1.00000000 1.00000000
0.00000000 1.00000000 0.00000000 1.00000000
0.00000000 1.00000000 1.00000000 1.00000000

POINT_DATA 961
FIELD FieldData 1
Density 1 961 float
5.40343672e-03 4.68404498e-03 5.27070044e-03 9.82927810e-03 5.93985319e-02 4.74252343e-01 4.73179609e-01 4.71719772e-01 4.71439183e-01 4.71586645e-01 4.73169774e-01 4.78017062e-01 4.87058908e-01 4.97499198e-01 5.03437459e-01 5.00988126e-01 4.91993517e-01 4.82255816e-01 4.75017160e-01 4.70564485e-01 4.68376368e-01 4.67664123e-01 4.67623144e-01 4.67771649e-01 4.67918009e-01 4.67993975e-01 4.67991412e-01 4.67943460e-01 4.67887938e-01 4.67942387e-01 4.83305365e-01 7.82253500e-03 4.13236581e-03 4.04729648e-03 3.64688411e-03 3.64116882e-03 4.07134276e-03 1.63717065e-02 4.48078454e-01 4.52027887e-01 4.52048451e-01 4.53768760e-01 4.60989535e-01 4.76833850e-01 4.98255283e-01 5.13700783e-01 5.13984501e-01 4.98876959e-01 4.79328603e-01 4.63411808e-01 4.52935308e-01 4.47547436e-01 4.45714414e-01 4.45548087e-01 4.45857227e-01 4.46185648e-01 4.46386606e-01 4.46411014e-01 4.46317345e-01 4.46180046e-01 4.46092337e-01 4.67825919e-01 4.73306954e-01 3.67606372e-01 9.44065228e-02 1.20280171e-02 5.08384407e-03 3.07504437e-03 2.89493962e-03 3.05246701e-03 7.24677974e-03 4.60147530e-01 4.52850461e-01 4.59753424e-01 4.77139682e-01 5.00506520e-01 5.16412854e-01 5.16014874e-01 5.00259399e-01 4.79891330e-01 4.62767571e-01 4.50744897e-01 4.44575459e-01 4.43307579e-01 4.44208354e-01 4.45355147e-01 4.46122944e-01 4.46510196e-01 4.46544170e-01 4.46380168e-01 4.46115494e-01 4.45872605e-01 4.67549503e-01 4.69087660e-01 4.48153973e-01 4.47357267e-01 4.48063731e-01 4.50390071e-01 4.44682896e-01 6.96993619e-03 3.25889699e-03 3.02682910e-03 3.02506052e-03 3.91221911e-01 4.58233863e-01 4.77708369e-01 5.04558027e-01 5.21948278e-01 5.20849109e-01 5.03423274e-01 4.80339795e-01 4.60334361e-01 4.45372552e-01 4.37538445e-01 4.37106669e-01 4.40807343e-01 4.44302589e-01 4.46097285e-01 4.46988285e-01 4.47113127e-01 4.46922034e-01 4.46525335e-01 4.46061820e-01 4.67660517e-01 4.68811572e-01 4.47622716e-01 4.47177172e-01 4.46712673e-01 4.46884423e-01 4.47181523e-01 4.46724981e-01 4.40183163e-01 1.51045546e-02 2.59579369e-03 2.44979141e-03 3.37409824e-01 4.79838341e-01 5.12850106e-01 5.31853378e-01 5.28614402e-01 5.07812798e-01 4.82366562e-01 4.55856979e-01 4.33725834e-01 4.19667631e-01 4.16755766e-01 4.25859630e-01 4.37659055e-01 4.43563193e-01 4.46964502e-01 4.47791666e-01 4.47671801e-01 4.47140783e-01 4.46323603e-01 4.67803985e-01 4.69131738e-01 4.47830409e-01 4.47738022e-01 4.47348118e-01 4.46930349e-01 4.46839690e-01 4.46559280e-01 4.46208090e-01 4.47554380e-01 4.48100269e-01 2.53329496e-03 2.49787839e-03 3.64160120e-01 5.36503136e-01 5.51847398e-01 5.39001763e-01 5.12445927e-01 4.81912017e-01 4.47298795e-01 4.14591998e-01 3.82521152e-01 3.56706858e-01 3.47991139e-01 3.66709232e-01 4.09032017e-01 4.42120969e-01 4.46647257e-01 4.48343307e-01 4.47938710e-01 4.46631789e-01 4.67896819e-01 4.69774604e-01 4.48805511e-01 4.48671520e-01 4.48235899e-01 4.47641790e-01 4.47213650e-01 4.46835548e-01 4.46587771e-01 4.46865469e-01 4.48036402e-01 4.48227614e-01 2.64674588e-03 2.95110908e-03 4.98874515e-01 5.90327203e-01 5.54395139e-01 5.17006993e-01 4.77461815e-01 4.35620874e-01 3.92680943e-01 3.46277356e-01 2.99695879e-01 2.56309032e-01 2.27844223e-01 2.27855101e-01 2.69977927e-01 3.75436127e-01 4.39961761e-01 4.47168410e-01 4.46769059e-01 4.67778087e-01 4.70835090e-01 4.50581729e-01 4.50401515e-01 4.49798822e-01 4.48975950e-01 4.48146135e-01 4.47310656e-01 4.46553111e-01 4.46237445e-01 4.46784765e-01 4.48002487e-01 2.23510526e-02 3.18373879e-03 6.23890571e-03 6.01397514e-01 5.88584006e-01 5.22963345e-01 4.72967118e-01 4.24207717e-01 3.77463490e-01 3.34631950e-01 2.99849212e-01 2.69740045e-01 2.36196548e-01 2.01828375e-01 1.75486386e-01 1.71790332e-01 2.06147373e-01 3.40029240e-01 4.29355532e-01 4.63860154e-01 4.72578049e-01 4.53545928e-01 4.53322470e-01 4.52454895e-01 4.51294154e-01 4.49976325e-01 4.48514760e-01 4.46969956e-01 4.45715368e-01 4.45501179e-01 4.46652919e-01 4.42086667e-01 3.95533675e-03 4.62547364e-03 5.88652492e-01 6.22453690e-01 5.35635710e-01 4.67394501e-01 4.12576884e-01 3.69616300e-01 3.41162264e-01 3.29424530e-01 3.29277456e-01 3.30560595e-01 3.15287232e-01 2.61615694e-01 1.92577556e-01 1.55597344e-01 1.51524439e-01 1.65613145e-01 2.76716292e-01 4.75610733e-01 4.58587497e-01 4.58277017e-01 4.57007170e-01 4.55379993e-01 4.53485906e-01 4.51272041e-01 4.48606998e-01 4.45554674e-01 4.42823559e-01 4.42762136e-01 4.45120692e-01 4.93109506e-03 3.61329201e-03 1.41747624e-01 6.73564434e-01 5.64044774e-01 4.64920253e-01 4.01557148e-01 3.66597623e-01 3.56705785e-01 3.65037471e-01 3.88040394e-01 4.12730962e-01 4.31695044e-01 4.39134568e-01 4.31116104e-01 3.40773851e-01 2.01248229e-01 1.59959152e-01 1.90821722e-01 4.81243640e-01 4.67687517e-01 4.67204154e-01 4.65304166e-01 4.62953031e-01 4.60317165e-01 4.57297415e-01 4.53333259e-01 4.47849989e-01 4.40728545e-01 4.31851774e-01 4.27144170e-01 1.17281126e-02 3.51188332e-03 1.10101774e-02 6.84354246e-01 6.24669850e-01 4.72799242e-01 4.01752710e-01 3.73990774e-01 3.76738042e-01 3.97805899e-01 4.21472460e-01 4.39008862e-01 4.49674308e-01 4.54429120e-01 4.56229597e-01 4.56497073e-01 4.54147249e-01 4.01112258e-01 3.31901968e-01 4.91361529e-01 4.84266788e-01 4.83522922e-01 4.80887413e-01 4.77483034e-01 4.73503172e-01 4.69218910e-01 4.64046568e-01 4.55850065e-01 4.43054050e-01 4.22612578e-01 3.97040993e-01 1.51075050e-01 3.89152137e-03 4.88352124e-03 6.59670115e-01 6.71189129e-01 4.84730452e-01 4.09884125e-01 3.93815637e-01 4.07492667e-01 4.33151752e-01 4.51403171e-01 4.60722476e-01 4.65416253e-01 4.68389601e-01 4.70528960e-01 4.71920490e-01 4.73593175e-01 4.76035148e-01 4.84715581e-01 5.06323993e-01 5.11447966e-01 5.10062158e-01 5.07320344e-01 5.03543854e-01 4.98621225e-01 4.91967082e-01 4.84556228e-01 4.74662036e-01 4.56919909e-01 4.27989155e-01 3.77488285e-01 3.49253207e-01 5.26017928e-03 3.53494193e-03 9.00199413e-02 7.36704826e-01 5.30741394e-01 4.08718705e-01 4.05876577e-01 4.39468771e-01 4.70659345e-01 4.88043994e-01 4.94034559e-01 4.93104547e-01 4.91251856e-01 4.89322692e-01 4.85892415e-01 4.81905401e-01 4.76945698e-01 4.85946983e-01 5.21958768e-01 5.44139326e-01 5.40874362e-01 5.39092958e-01 5.37760675e-01 5.36164820e-01 5.31863868e-01 5.22699594e-01 5.07946312e-01 4.88594681e-01 4.51118469e-01 3.92188042e-01 3.38208258e-01 1.99112706e-02 3.67789669e-03 7.78759597e-03 7.61638463e-01 6.43230081e-01 3.84168923e-01 3.53105694e-01 4.06396300e-01 4.81406748e-01 4.87742692e-01 4.96078789e-01 4.96767074e-01 4.91684526e-01 4.83960688e-01 4.77549136e-01 4.72103894e-01 4.67433512e-01 4.80413407e-01 5.36349237e-01 5.75520754e-01 5.70977509e-01 5.69720149e-01 5.69956481e-01 5.71313679e-01 5.72936177e-01 5.71366906e-01 5.62368393e-01 5.41569948e-01 5.01213908e-01 4.34473962e-01 3.53971422e-01 3.27010214e-01 3.93090723e-03 2.97379494e-03 5.51887751e-01 7.44316339e-01 2.54355043e-01 1.74395949e-01 2.68976897e-01 3.57597798e-01 3.74377280e-01 3.97958338e-01 4.22904342e-01 4.34265256e-01 4.35435057e-01 4.32371527e-01 4.30178046e-01 4.29074526e-01 4.66548085e-01 5.46047330e-01 5.96488476e-01 5.89630127e-01 5.89005291e-01 5.91189802e-01 5.95570505e-01 6.02819443e-01 6.09899521e-01 6.12892330e-01 6.06855810e-01 5.78504145e-01 5.10492265e-01 4.15193528e-01 3.40483963e-01 3.36464465e-01 2.78122048e-03 2.95772636e-03 7.91806161e-01 4.34799433e-01 6.99586123e-02 7.15247765e-02 6.26321211e-02 7.64139593e-02 1.20058112e-01 2.21105754e-01 3.24614137e-01 3.75677913e-01 3.79119545e-01 3.68846238e-01 3.55127752e-01 4.22562689e-01 5.43089032e-01 5.98814964e-01 5.88063538e-01 5.87382317e-01 5.91585040e-01 5.99573255e-01 6.12560034e-01 6.27233267e-01 6.40076637e-01 6.50265872e-01 6.49617791e-01 6.20063424e-01 5.33345938e-01 4.10660595e-01 3.40199023e-01 2.96949714e-01 3.02619557e-03 3.15825245e-03 8.55398953e-01 1.57895550e-01 7.99765438e-02 3.96477953e-02 2.34650336e-02 1.99612733e-02 2.73844860e-02 8.66005421e-02 2.54083067e-01 3.29995811e-01 3.29574049e-01 3.02986979e-01 3.64343911e-01 5.26864648e-01 5.74644923e-01 5.58178186e-01 5.53858101e-01 5.57451367e-01 5.66955566e-01 5.84002435e-01 6.05239213e-01 6.25488460e-01 6.44956350e-01 6.68132663e-01 6.86758399e-01 6.65154159e-01 5.80268681e-01 4.53987002e-01 3.85093570e-01 1.36771351e-01 3.39557184e-03 3.54705355e-03 8.42914939e-01 1.51344940e-01 1.00914322e-01 4.55396473e-02 2.05503888e-02 1.47587853e-02 1.50288995e-02 5.01541905e-02 2.29283065e-01 3.08797657e-01 2.90153593e-01 3.39524508e-01 5.10594845e-01 5.35184443e-01 5.18441737e-01 5.09371161e-01 5.08278787e-01 5.15932381e-01 5.33700943e-01 5.63088357e-01 5.77983141e-01 5.57189941e-01 5.34503937e-01 6.27898514e-01 7.00576961e-01 6.95890546e-01 6.34174228e-01 5.47345757e-01 4.83308464e-01 1.07826270e-01 3.46993539e-03 3.78106884e-03 8.40546489e-01 7.70139575e-01 6.94321454e-01 6.98680401e-01 4.65059020e-02 1.36552751e-02 1.20941512e-02 5.07960021e-02 2.42360756e-01 2.75348306e-01 3.30358714e-01 5.02512097e-01 5.08226216e-01 4.78470981e-01 4.51289386e-01 4.46526200e-01 4.58174020e-01 4.81591225e-01 5.26274562e-01 5.45375586e-01 4.30389434e-01 2.25292668e-01 2.75676757e-01 5.42538881e-01 6.88275039e-01 6.94456995e-01 6.60675347e-01 6.27949774e-01 5.81254482e-01 1.64066941e-01 3.78817343e-03 5.10492874e-03 2.47523487e-02 7.52525985e-01 7.35451400e-01 8.65341544e-01 7.21520707e-02 1.22313043e-02 1.26233567e-02 8.38115364e-02 2.31813550e-01 2.91316688e-01 5.00001848e-01 4.93225515e-01 4.39302951e-01 3.93610328e-01 3.90467912e-01 4.11984593e-01 4.50458795e-01 5.05461276e-01 5.20307958e-01 3.44977707e-01 1.51352853e-01 1.28902048e-01 2.42286369e-01 5.37962377e-01 6.74948335e-01 6.69516623e-01 6.58088028e-01 6.65331602e-01 6.62839532e-01 5.42521417e-01 7.14128092e-03 9.06209555e-03 1.13529600e-02 1.93793494e-02 8.15277845e-02 6.81559563e-01 3.39220539e-02 1.10067660e-02 1.98941547e-02 1.34134591e-01 2.18311861e-01 5.00135422e-01 4.88607824e-01 4.13879812e-01 3.48620385e-01 3.48794013e-01 3.82012755e-01 4.34623927e-01 4.95172709e-01 5.06058931e-01 3.47127646e-01 1.44537076e-01 7.42015690e-02 1.18808888e-01 3.12594652e-01 6.03370905e-01 6.49646342e-01 6.24364972e-01 6.31145537e-01 6.62877262e-01 6.86508775e-01 6.85246110e-01 3.09756063e-02 1.64145343e-02 1.43137416e-02 2.27520205e-02 5.69481701e-02 9.14894879e-01 1.37372827e-02 1.30186006e-02 4.43112999e-02 1.10226050e-01 5.00744402e-01 4.89662707e-01 4.01892304e-01 3.19339365e-01 3.20472330e-01 3.65036547e-01 4.24800783e-01 4.76966381e-01 5.03649652e-01 4.00475115e-01 1.73587576e-01 5.95644303e-02 6.09864779e-02 1.72531798e-01 4.73390311e-01 6.32191122e-01 6.03700459e-01 5.75106800e-01 5.76854408e-01 6.01092279e-01 6.54179454e-01 7.11207151e-01 7.09150434e-01 6.29620135e-01 1.06499046e-01 8.59521776e-02 5.49838006e-01 2.96607558e-02 1.51803950e-02 2.69861929e-02 5.08299023e-02 5.00609577e-01 4.91913170e-01 4.00826126e-01 3.03194821e-01 3.01836729e-01 3.56912166e-01 4.16394740e-01 4.52569515e-01 4.87096995e-01 4.83607948e-01 2.61983663e-01 6.19430095e-02 3.57188210e-02 8.11604932e-02 3.32645506e-01 5.95768332e-01 6.09582961e-01 5.60700595e-01 5.29090524e-01 5.02214134e-01 4.94654894e-01 5.23947597e-01 5.95427155e-01 6.34761870e-01 6.61936462e-01 2.65996873e-01 8.47445250e-01 3.63209061e-02 2.14567259e-02 2.79276930e-02 4.78968285e-02 4.99012768e-01 4.93234426e-01 4.07585412e-01 2.98017681e-01 2.91885585e-01 3.55354100e-01 4.13509965e-01 4.37053263e-01 4.65239584e-01 5.08140028e-01 4.29258943e-01 9.42620486e-02 2.74454840e-02 3.80085967e-02 1.91782102e-01 5.33691764e-01 6.08292222e-01 5.76858103e-01 5.40042698e-01 4.95381474e-01 4.47290421e-01 4.22936857e-01 4.47698712e-01 5.22815347e-01 6.63030803e-01 7.87899375e-01 8.15376520e-01 2.96731293e-02 2.52243578e-02 3.80189046e-02 1.02828175e-01 4.95255113e-01 4.92766291e-01 4.20894563e-01 3.01676482e-01 2.89778650e-01 3.57826740e-01 4.14133668e-01 4.32968974e-01 4.53689545e-01 4.89565969e-01 5.10979891e-01 2.41681531e-01 2.97357887e-02 2.08831001e-02 7.82973990e-02 4.55560803e-01 5.81537366e-01 5.89186311e-01 5.72376192e-01 5.32195628e-01 4.84051704e-01 4.66415435e-01 5.33002079e-01 6.47180676e-01 7.64202416e-01 8.19299996e-01 1.08347431e-01 2.51130480e-02 2.45136246e-02 5.97361252e-02 2.41188958e-01 4.88815308e-01 4.89614457e-01 4.41159129e-01 3.13333124e-01 2.92992502e-01 3.63205880e-01 4.21518922e-01 4.37245756e-01 4.51023340e-01 4.72113371e-01 4.99153733e-01 4.72906709e-01 5.17570488e-02 1.44463293e-02 2.89573558e-02 3.47428113e-01 5.39066911e-01 5.86201668e-01 6.11189544e-01 6.12339735e-01 6.13997281e-01 6.47179902e-01 7.51882136e-01 7.88134217e-01 7.50921309e-01 8.83797333e-02 3.91197018e-02 2.79874150e-02 2.91531049e-02 1.16361238e-01 3.60819042e-01 4.81056660e-01 4.82425392e-01 4.67247933e-01 3.38071406e-01 2.97551364e-01 3.70920479e-01 4.33390021e-01 4.46271807e-01 4.53260392e-01 4.62711453e-01 4.77926850e-01 4.95512873e-01 2.43507907e-01 1.42091252e-02 1.45114344e-02 1.67730749e-01 4.93759483e-01 5.58200002e-01 6.25106335e-01 6.72416091e-01 7.08394766e-01 7.28167474e-01 4.09303635e-01 1.00099839e-01 5.43399155e-02 4.51280773e-02 3.91366221e-02 3.71466354e-02 5.46299182e-02 3.46294373e-01 4.50077951e-01 4.77401882e-01 4.70325649e-01 4.88451481e-01 3.78691256e-01 2.93630302e-01 3.71768683e-01 4.48796868e-01 4.58237946e-01 4.60090399e-01 4.61650580e-01 4.64524001e-01 4.79441613e-01 4.87464756e-01 2.09349748e-02 9.74006951e-03 4.33580242e-02 4.66639221e-01 5.12472510e-01 5.83560765e-01 6.53032660e-01 7.08969533e-01 7.44940281e-01 6.92425072e-01 1.72841281e-01 7.92210102e-02 4.77680527e-02 6.09248765e-02 1.23911634e-01 6.00277126e-01 6.33447647e-01 5.44350922e-01 4.89250511e-01 4.74588454e-01 4.77244914e-01 4.55669045e-01 2.72383720e-01 3.53654981e-01 4.63920474e-01 4.72572237e-01 4.73443598e-01 4.74278748e-01 4.73933846e-01 4.74921077e-01 4.87339258e-01 1.22795217e-01 7.32731633e-03 1.20015256e-02 4.55706745e-01 4.68145669e-01 5.07051110e-01 5.62987506e-01 6.25458598e-01 6.84856892e-01 7.34666765e-01 7.39265919e-01 7.35906065e-01 7.88711548e-01 8.01294386e-01 8.10828865e-01 7.74117768e-01 7.55985200e-01 6.42620623e-01 4.97142732e-01 4.97841895e-01 4.91229147e-01 4.82913226e-01 3.48560959e-01 3.43980014e-01 5.04322708e-01 4.89967436e-01 4.89954889e-01 4.91820872e-01 4.94354546e-01 4.95716900e-01 4.94115144e-01 5.55359364e-01 1.34334238e-02 1.08379554e-02 4.63087380e-01 4.71212894e-01 4.80686784e-01 4.98757035e-01 5.23046255e-01 5.43584704e-01 5.63595533e-01 6.18567288e-01 6.95820630e-01 7.07695723e-01 6.93252206e-01 6.71395123e-01 6.58453703e-01 6.44985974e-01 6.07414842e-01 
