# vtk DataFile Version 2.0
sol_toll1e-05_vf0.3iter14.vtk, Created by Freefem++ 
ASCII
DATASET UNSTRUCTURED_GRID
POINTS 586 float
1 0.37558086 0
1 0.63117313 0
1 0.70827169 0
1 0.50432458 0
0.82813998 0.39858998 0
1 0.29526948 0
0.78406768 0.5224115 0
0.79198518 0.63165164 0
0.81000634 0.70301734 0
1 0.75197139 0
0.65856203 0.63771382 0
0.67191359 0.43575479 0
0.79016361 0.32383095 0
1 0.24842436 0
0.6431544 0.54470665 0
0.66784989 0.69263206 0
0.81016478 0.7422796 0
1 0.77708601 0
0.55693805 0.62803672 0
0.55967671 0.56490327 0
0.8584095 0.77083077 0
0.5561302 0.4707031 0
0.62721641 0.37851839 0
0.67133585 0.31483653 0
0.81932752 0.26656093 0
1 0.22041654 0
0.65901924 0.72260837 0
0.56114436 0.67256261 0
0.74014755 0.75650603 0
1 0.7920437 0
0.49714996 0.54429304 0
0.48728841 0.60623054 0
0.83710231 0.78189716 0
1 0.19268829 0
1 0.20353678 0
0.48632785 0.4651476 0
0.54966234 0.38164043 0
0.59796776 0.31394203 0
0.6975064 0.26997292 0
0.82076018 0.23875263 0
0.8493796 0.21894213 0
0.56429034 0.70356498 0
0.64240962 0.74221052 0
0.49371982 0.65303106 0
0.73346591 0.77227176 0
0.8472672 0.79270048 0
1 0.80288289 0
0.44577849 0.53384696 0
0.44236536 0.59342435 0
1 0.18506447 0
0.87360049 0.1964573 0
0.85921089 0.20626641 0
0.48492594 0.3978912 0
0.4453439 0.46415336 0
1 0.81115868 0
0.53811694 0.32992688 0
0.62180791 0.27520138 0
0.72398104 0.240653 0
0.74518084 0.22292503 0
0.50325214 0.68639029 0
0.56450489 0.72425557 0
0.63965652 0.75628341 0
0.45350311 0.64058911 0
0.72097626 0.78071687 0
0.88958497 0.80565703 0
0.79617609 0.7967345 0
0.40924724 0.53753678 0
0.41743058 0.48534587 0
0.41653621 0.59203387 0
0.88935927 0.18814383 0
1 0.17867525 0
0.78584937 0.1997366 0
0.7646153 0.21019461 0
0.44070598 0.41843963 0
0.47688854 0.36121522 0
1 0.81717119 0
0.41439595 0.43597482 0
0.71212185 0.21096914 0
0.665277 0.7784695 0
0.74052026 0.79394735 0
0.52020381 0.31236147 0
0.57412231 0.27900794 0
0.64946079 0.24597441 0
0.67202659 0.22809585 0
0.50564825 0.70715488 0
0.46520985 0.6743513 0
0.56563222 0.7384954 0
0.62127157 0.76201631 0
0.42848399 0.63396617 0
0.8118111 0.80532276 0
0.88358505 0.81221087 0
0.39586679 0.48148416 0
0.39259181 0.5578771 0
0.40284309 0.60120498 0
0.92564175 0.17941418 0
0.78754658 0.19291249 0
0.85101131 0.18535649 0
1 0.17231181 0
0.72503198 0.20130264 0
0.43753753 0.38038176 0
0.47779549 0.33145657 0
1 0.82194616 0
0.40164965 0.42611752 0
0.65229965 0.22254028 0
0.67662068 0.20909305 0
0.60150477 0.76661347 0
0.68889671 0.79017232 0
0.63133662 0.77956344 0
0.73453721 0.80094994 0
0.77150521 0.80508764 0
1 0.82787493 0
0.89042841 0.8164312 0
0.43728568 0.66116407 0
0.38445352 0.50719225 0
0.87072771 0.17860471 0
0.52427219 0.72867833 0
0.52958602 0.28637962 0
0.59067336 0.25523651 0
0.5983103 0.24227885 0
0.46250478 0.69126751 0
0.48514839 0.71123752 0
0.56087257 0.74894797 0
0.40721639 0.6271444 0
0.81056053 0.81199145 0
0.38065667 0.46046614 0
0.37577161 0.53157694 0
0.38555201 0.58507816 0
0.93055747 0.17201076 0
0.79489755 0.18454451 0
0.73916178 0.19318926 0
1 0.16437999 0
0.69300759 0.19812251 0
0.44812847 0.33937786 0
0.41906708 0.37560508 0
0.48232325 0.30920446 0
0.88339182 0.82028538 0
0.39197213 0.41037742 0
0.60369291 0.23209259 0
0.62526126 0.21830318 0
0.65103464 0.20510818 0
0.58624497 0.77254295 0
0.56361861 0.75935366 0
0.70682917 0.80242619 0
0.6595543 0.79263846 0
0.61373403 0.78449746 0
0.75090471 0.80982261 0
0.91082653 0.82747992 0
1 0.83487166 0
0.43134712 0.66923799 0
0.36887009 0.48176381 0
0.85544393 0.17406802 0
0.49924465 0.72778122 0
0.52594884 0.74065512 0
0.58052001 0.23127847 0
0.54531244 0.26414671 0
0.49246883 0.29154462 0
0.55753006 0.24777418 0
0.44708788 0.69560262 0
0.46614781 0.71281403 0
0.53723523 0.75217494 0
0.40280371 0.63696968 0
0.38305783 0.60498741 0
0.79141277 0.81686138 0
0.36847368 0.44049483 0
0.36244159 0.51513739 0
0.37276536 0.56422412 0
0.91894436 0.16507411 0
0.77302193 0.17890348 0
0.72348633 0.18780425 0
1 0.15652786 0
0.67136817 0.19285009 0
0.41820243 0.35457625 0
0.44879031 0.31965915 0
0.81869101 0.82351245 0
0.3875126 0.39523488 0
0.58291511 0.22219806 0
0.60403369 0.21135098 0
0.62992761 0.19984696 0
0.57735373 0.78137074 0
0.55067565 0.76592696 0
0.70909828 0.81278502 0
0.66904076 0.80452485 0
0.62335147 0.79487472 0
0.74074421 0.81700236 0
0.87659238 0.83137488 0
1 0.84016854 0
0.41941126 0.66991494 0
0.3569266 0.47548966 0
0.83728542 0.1696934 0
0.47384328 0.72718668 0
0.49828336 0.73956099 0
0.51470554 0.74857355 0
0.55046995 0.24027223 0
0.54855287 0.23107735 0
0.93190664 0.1577549 0
0.3618836 0.55227341 0
0.50761238 0.27204486 0
0.45977382 0.2985968 0
0.51379789 0.25885155 0
0.4282083 0.69431263 0
0.44460653 0.7139608 0
0.52155548 0.76049002 0
0.39037609 0.63452034 0
0.37091678 0.60917482 0
0.36837637 0.58596845 0
0.74963783 0.82296456 0
0.35049102 0.45151726 0
0.37369116 0.4003615 0
0.35702166 0.42277724 0
0.34926721 0.51037028 0
0.8491576 0.16354264 0
0.76197845 0.17288612 0
0.69434108 0.18324995 0
1 0.15002543 0
0.6329412 0.19202443 0
0.39867879 0.36190933 0
0.42697049 0.32446581 0
0.77984812 0.82808447 0
0.55762907 0.21962194 0
0.58633369 0.20516123 0
0.5511363 0.78363983 0
0.58812342 0.79398177 0
0.533977 0.77256803 0
0.67371807 0.81512964 0
0.70561484 0.82191368 0
0.63058994 0.80531628 0
0.85997892 0.83518996 0
1 0.84403809 0
0.40246815 0.66566791 0
0.34383977 0.47531489 0
0.45492564 0.73173368 0
0.47720239 0.74439332 0
0.49627139 0.75518865 0
0.51912333 0.24560961 0
0.51206481 0.23786309 0
0.89011435 0.15518484 0
0.35352483 0.55569372 0
0.46860503 0.28090564 0
0.43684326 0.29966775 0
0.48193096 0.26256549 0
0.42343427 0.71249376 0
0.41087719 0.69248545 0
0.43426193 0.7293806 0
0.50134693 0.76857002 0
0.37594521 0.63548334 0
0.35338302 0.58399085 0
0.3582863 0.61192097 0
0.71220696 0.82848927 0
0.34044864 0.4371185 0
0.33215844 0.45896588 0
0.36181858 0.3891706 0
0.37927822 0.36872732 0
0.34513668 0.40806647 0
0.33408536 0.4942003 0
0.34036817 0.53881871 0
0.76867083 0.16533899 0
0.69541866 0.17605628 0
0.63395861 0.18554316 0
1 0.14362691 0
0.57516231 0.19971076 0
0.40279994 0.33987141 0
0.41395433 0.31559188 0
0.76550848 0.83253439 0
0.5360482 0.21836908 0
0.54652393 0.79184464 0
0.51513935 0.77944622 0
0.58532436 0.80220068 0
0.66798388 0.82352735 0
0.62699839 0.81348928 0
0.84387901 0.83857499 0
1 0.84747227 0
0.38608421 0.66507354 0
0.45539832 0.74718264 0
0.47768388 0.76104827 0
0.46826956 0.25713833 0
0.48566881 0.23854049 0
0.84160034 0.15358252 0
0.44190653 0.27919727 0
0.41432726 0.29722889 0
0.40173135 0.69928565 0
0.41273342 0.72179527 0
0.43417597 0.74552454 0
0.48385096 0.77584692 0
0.35945319 0.63350928 0
0.34398114 0.60052301 0
0.33502312 0.5684346 0
0.72980558 0.83509476 0
0.66030973 0.8302863 0
0.32635246 0.43540369 0
0.32134452 0.47312286 0
0.34995658 0.37437968 0
0.3649598 0.36128563 0
0.38545569 0.34013485 0
0.33382849 0.39820391 0
0.32589025 0.52008679 0
0.65644344 0.17523831 0
0.69629599 0.16566464 0
0.58669456 0.18748951 0
1 0.13572179 0
0.5100406 0.21888813 0
0.53234163 0.20328192 0
0.39191301 0.31770504 0
0.51074818 0.78982388 0
0.56210409 0.80678719 0
0.61360213 0.82129168 0
0.82209155 0.84163618 0
1 0.85193547 0
0.3763245 0.66801737 0
0.45845548 0.76409807 0
0.4397725 0.26282493 0
0.45831666 0.24103493 0
0.80103092 0.15099526 0
1 0.12329943 0
1 0.85909257 0
0.40876877 0.73342368 0
0.40892677 0.28457593 0
0.38375902 0.308639 0
0.38461728 0.69471007 0
0.43428992 0.76202784 0
0.46649755 0.78118283 0
0.35621244 0.65217513 0
0.3415603 0.62056247 0
0.32795948 0.59232193 0
0.31939018 0.55213208 0
0.69175091 0.83859612 0
0.60716272 0.8315978 0
0.31650013 0.42218783 0
0.31188114 0.45562902 0
0.31378078 0.50098748 0
0.34374001 0.35689717 0
0.36568983 0.33939212 0
0.32720414 0.38119467 0
0.57800307 0.17974052 0
0.65377915 0.16161897 0
0.50884293 0.19988712 0
0.79569764 0.14326347 0
0.47126426 0.22277516 0
0.50244674 0.80022525 0
0.55356372 0.81874804 0
0.79936435 0.84621079 0
0.41164093 0.26844923 0
0.423562 0.24758622 0
1 0.10188533 0
0.80431109 0.12801688 0
0.78867919 0.85385104 0
1 0.87098405 0
0.38227362 0.71020789 0
0.4012755 0.74435267 0
0.30336926 0.48011972 0
0.37546912 0.2986841 0
0.35592051 0.32669523 0
0.35159437 0.66639632 0
0.43858487 0.78124274 0
0.3298128 0.62512253 0
0.31282017 0.5875408 0
0.30546652 0.53253922 0
0.64782252 0.84496944 0
0.54736571 0.83260409 0
0.31139038 0.39439124 0
0.30142567 0.43631315 0
0.33182172 0.34807191 0
0.54024892 0.17190683 0
0.47785301 0.19516621 0
0.64797685 0.14724753 0
0.43536686 0.22333811 0
0.48420387 0.80971703 0
0.37700148 0.28149742 0
0.39115454 0.25407097 0
0.74174523 0.11130435 0
1 0.065040404 0
0.75114498 0.86529496 0
1 0.89233573 0
0.36149593 0.70112325 0
0.38950092 0.75167211 0
0.2921645 0.48071779 0
0.34200299 0.31881826 0
0.32760408 0.65112301 0
0.41550311 0.79325693 0
0.29092889 0.54039075 0
0.29941259 0.60253083 0
0.57776678 0.85446054 0
0.47600187 0.82673739 0
0.28995566 0.42063259 0
0.31030783 0.36494167 0
0.43831241 0.18355671 0
0.53407402 0.1507158 0
0.3986339 0.21893291 0
0.3645119 0.25510928 0
0.34562625 0.29137007 0
0.55094807 0.11741071 0
0.74473246 0.064291257 0
1 0 0
0.74130722 0.88854058 0
1 0.93078083 0
0.34907007 0.70758127 0
0.36226922 0.750962 0
0.27797743 0.47686445 0
0.30815769 0.33733252 0
0.31718823 0.67934525 0
0.40048324 0.82242683 0
0.3582098 0.78898804 0
0.26732875 0.528162 0
0.28015732 0.60774376 0
0.54562242 0.88215897 0
0.46438533 0.84923605 0
0.28234901 0.38883155 0
0.26403193 0.44517172 0
0.34795406 0.21203979 0
0.39668492 0.15551504 0
0.32225283 0.25943575 0
0.30812021 0.30723437 0
0.47453971 0.083659205 0
0.67889361 0 0
0.73126362 0.93166096 0
1 1 0
0.32392154 0.73691292 0
0.26318263 0.38298982 0
0.27878442 0.67299247 0
0.3843985 0.86236889 0
0.31895557 0.81186119 0
0.29153298 0.75187465 0
0.23788953 0.47333402 0
0.24211413 0.57030084 0
0.49039446 0.92412789 0
0.28307394 0.19594716 0
0.25445026 0.26551776 0
0.28684299 0.12094447 0
0.26334433 0.32509073 0
0.40716553 0 0
0.67889361 1 0
[...]
CELL_DATA 1170
Scalars  Label int 1
LOOKUP_TABLE FreeFempp_table
0
0
0
0
0
0
0
0
0
0
0
0
0
0
0
0
0
0
0
0
0
0
0
0
0
0
0
0
0
0
0
0
0
0
0
0
0
0
0
0
0
0
0
0
0
0
0
0
0
0
0
0
0
0
0
0
0
0
0
0
0
0
0
0
0
0
0
0
0
0
0
0
0
0
0
0
0
0
0
0
0
0
0
0
0
0
0
0
0
0
0
0
0
0
0
0
0
0
0
0
0
0
0
0
0
0
0
0
0
0
0
0
0
0
0
0
0
0
0
0
0
0
0
0
0
0
0
0
0
0
0
0
0
0
0
0
0
0
0
0
0
0
0
0
0
0
0
0
0
0
0
0
0
0
0
0
0
0
0
0
0
0
0
0
0
0
0
0
0
0
0
0
0
0
0
0
0
0
0
0
0
0
0
0
0
0
0
0
0
0
0
0
0
0
0
0
0
0
0
0
0
0
0
0
0
0
0
0
0
0
0
0
0
0
0
0
0
0
0
0
0
0
0
0
0
0
0
0
0
0
0
0
0
0
0
0
0
0
0
0
0
0
0
0
0
0
0
0
0
0
0
0
0
0
0
0
0
0
0
0
0
0
0
0
0
0
0
0
0
0
0
0
0
0
0
0
0
0
0
0
0
0
0
0
0
0
0
0
0
0
0
0
0
0
0
0
0
0
0
0
0
0
0
0
0
0
0
0
0
0
0
0
0
0
0
0
0
0
0
0
0
0
0
0
0
0
0
0
0
0
0
0
0
0
0
0
0
0
0
0
0
0
0
0
0
0
0
0
0
0
0
0
0
0
0
0
0
0
0
0
0
0
0
0
0
0
0
0
0
0
0
0
0
0
0
0
0
0
0
0
0
0
0
0
0
0
0
0
0
0
0
0
0
0
0
0
0
0
0
0
0
0
0
0
0
0
0
0
0
0
0
0
0
0
0
0
0
0
0
0
0
0
0
0
0
0
0
0
0
0
0
0
0
0
0
0
0
0
0
0
0
0
0
0
0
0
0
0
0
0
0
0
0
0
0
0
0
0
0
0
0
0
0
0
0
0
0
0
0
0
0
0
0
0
0
0
0
0
0
0
0
0
0
0
0
0
0
0
0
0
0
0
0
0
0
0
0
0
0
0
0
0
0
0
0
0
0
0
0
0
0
0
0
0
0
0
0
0
0
0
0
0
0
0
0
0
0
0
0
0
0
0
0
0
0
0
0
0
0
0
0
0
0
0
0
0
0
0
0
0
0
0
0
0
0
0
0
0
0
0
0
0
0
0
0
0
0
0
0
0
0
0
0
0
0
0
0
0
0
0
0
0
0
0
0
0
0
0
0
0
0
0
0
0
0
0
0
0
0
0
0
0
0
0
0
0
0
0
0
0
0
0
0
0
0
0
0
0
0
0
0
0
0
0
0
0
0
0
0
0
0
0
0
0
0
0
0
0
0
0
0
0
0
0
0
0
0
0
0
0
0
0
0
0
0
0
0
0
0
0
0
0
0
0
0
0
0
0
0
0
0
0
0
0
0
0
0
0
0
0
0
0
0
0
0
0
0
0
0
0
0
0
0
0
0
0
0
0
0
0
0
0
0
0
0
0
0
0
0
0
0
0
0
0
0
0
0
0
0
0
0
0
0
0
0
0
0
0
0
0
0
0
0
0
0
0
0
0
0
0
0
0
0
0
0
0
0
0
0
0
0
0
0
0
0
0
0
0
0
0
0
0
0
0
0
0
0
0
0
0
0
0
0
0
0
0
0
0
0
0
0
0
0
0
0
0
0
0
0
0
0
0
0
0
0
0
0
0
0
0
0
0
0
0
0
0
0
0
0
0
0
0
0
0
0
0
0
0
0
0
0
0
0
0
0
0
0
0
0
0
0
0
0
0
0
0
0
0
0
0
0
0
0
0
0
0
0
0
0
0
0
0
0
0
0
0
0
0
0
0
0
0
0
0
0
0
0
0
0
0
0
0
0
0
0
0
0
0
0
0
0
0
0
0
0
0
0
0
0
0
0
0
0
0
0
0
0
0
0
0
0
0
0
0
0
0
0
0
0
0
0
0
0
0
0
0
0
0
0
0
0
0
0
0
0
0
0
0
0
0
0
0
0
0
0
0
0
0
0
0
0
0
0
0
0
0
0
0
0
0
0
0
0
0
0
0
0
0
0
0
0
0
0
0
0
0
0
0
0
0
0
0
0
0
0
0
0
0
0
0
0
0
0
0
0
0
0
0
0
0
0
0
0
0
0
0
0
0
0
0
0
0
0
0
0
0
0
0
0
0
0
0
0
0
0
0
0
0
0
0
0
0
0
0
0
0
0
0
0
0
0
0
0
0
0
0
0
0
0
0
0
0
0
0
0
0
0
0
0
0
0
0
0
0
0
0
0
0
0
0
0
0
0
0
0
0
0
0
0
0
0
0
0
0
0
0
1
1
1
1
1
1
1
1
1
3
3
3
3
3
3
3
3
3
2
2
2
2
2
2
2
2
2
2
2
2
2
2
2
2
2
2
2
2
2
2
2
2
2
2
2
2
2
2
2
2
2
2
2
2
2
2
4
4
4
4
4
4
4
4
4
4
4
4
4
4
4
4
4
4
4
4
4
4
4
4
4
4
4
4
4
4
4
4
4
4
4
4
4
4

LOOKUP_TABLE FreeFempp_table 5
1.00000000 0.00000000 0.00000000 1.00000000
1.00000000 1.00000000 0.00000000 1.00000000
1.00000000 0.00000000 1.00000000 1.00000000
0.00000000 1.00000000 0.00000000 1.00000000
0.00000000 1.00000000 1.00000000 1.00000000

POINT_DATA 586
FIELD FieldData 1
Density 1 586 float
9.90001023e-01 9.90001023e-01 9.90001023e-01 9.90001023e-01 9.90001023e-01 9.90001023e-01 9.90001023e-01 9.90001023e-01 9.90001023e-01 9.89998996e-01 9.90001023e-01 9.90001023e-01 9.90001023e-01 9.89979327e-01 9.90001023e-01 9.90001023e-01 9.90000725e-01 9.89871025e-01 9.90001023e-01 9.90001023e-01 9.89976227e-01 9.90001023e-01 9.90001023e-01 9.90001023e-01 9.89999473e-01 9.89790678e-01 9.90001023e-01 9.90001023e-01 9.89961505e-01 9.88477111e-01 9.90001023e-01 9.90001023e-01 9.89759505e-01 9.83201027e-01 9.88741696e-01 9.90001023e-01 9.90000904e-01 9.90000963e-01 9.90000963e-01 9.89998937e-01 9.89925504e-01 9.89971459e-01 9.89909708e-01 9.90001023e-01 9.89150643e-01 9.88009632e-01 9.83243227e-01 9.90001023e-01 9.90001023e-01 9.60331559e-01 9.76284921e-01 9.88174200e-01 9.90000188e-01 9.90000665e-01 9.69687402e-01 9.89990234e-01 9.89999175e-01 9.89993632e-01 9.89418626e-01 9.89513814e-01 9.89057362e-01 9.87687349e-01 9.89827096e-01 9.84843433e-01 9.73817766e-01 9.81128633e-01 9.90000606e-01 9.89972174e-01 9.89721417e-01 9.36565578e-01 8.92039299e-01 9.47206795e-01 9.80622947e-01 9.89979267e-01 9.89876807e-01 9.33656096e-01 9.89993513e-01 9.55122709e-01 9.56553340e-01 9.41207290e-01 9.89760339e-01 9.89889145e-01 9.89870071e-01 9.83588994e-01 9.82127666e-01 9.86325145e-01 9.77081180e-01 9.72241998e-01 9.84462976e-01 9.47534502e-01 9.40322936e-01 9.88815069e-01 9.85991180e-01 9.82993186e-01 8.58995676e-01 8.87718558e-01 8.29918623e-01 7.25981295e-01 9.04409409e-01 9.87689853e-01 9.87016380e-01 8.51338565e-01 9.71349299e-01 9.20502126e-01 8.80248666e-01 9.17977273e-01 8.69725525e-01 8.80898476e-01 8.54787230e-01 9.05984044e-01 6.49619699e-01 8.91049922e-01 9.71326113e-01 9.84978557e-01 7.53100693e-01 9.50857222e-01 9.88656402e-01 9.88647640e-01 9.72591281e-01 9.69293892e-01 9.35983658e-01 9.50395882e-01 9.46913719e-01 8.76020312e-01 9.78817165e-01 9.55634236e-01 9.56766725e-01 6.59695148e-01 6.49057686e-01 7.94877529e-01 4.19998735e-01 7.73958504e-01 9.73609388e-01 9.65284765e-01 9.70813215e-01 7.44234025e-01 9.32174027e-01 8.89717698e-01 7.01995015e-01 6.37768030e-01 7.91960835e-01 8.75579536e-01 6.78265512e-01 6.63279772e-01 6.70373499e-01 7.67937958e-01 5.11444032e-01 3.44919354e-01 9.32064295e-01 9.31502402e-01 5.24311662e-01 8.50770414e-01 9.25622225e-01 8.32375467e-01 9.76240814e-01 9.43212569e-01 9.38930631e-01 8.69813442e-01 8.57913911e-01 8.27315152e-01 8.99269164e-01 8.94996047e-01 6.57373369e-01 8.74000072e-01 8.46973658e-01 9.05347884e-01 3.62398595e-01 3.45352650e-01 5.50771058e-01 1.68662071e-01 4.25556928e-01 9.13794875e-01 9.34398293e-01 4.37371045e-01 8.69854748e-01 5.38209856e-01 3.51819217e-01 2.95814097e-01 4.83263135e-01 6.10766947e-01 4.26621944e-01 3.47327232e-01 4.04413134e-01 5.37040234e-01 2.53741741e-01 1.58881217e-01 8.09133589e-01 8.59224737e-01 2.72721350e-01 6.43619835e-01 6.52747154e-01 7.57783473e-01 7.74481595e-01 5.39752603e-01 1.61362514e-01 8.30760002e-01 8.98770750e-01 8.79968941e-01 8.08601499e-01 7.24661350e-01 6.31910682e-01 5.90242207e-01 7.48562574e-01 7.70209670e-01 8.21931899e-01 3.08517754e-01 7.04235733e-01 7.90881991e-01 6.59508765e-01 6.59500003e-01 1.57509744e-01 1.64670303e-01 2.43942335e-01 5.55140637e-02 1.48053005e-01 8.21749747e-01 8.72208834e-01 2.09067777e-01 2.72741914e-01 1.36056408e-01 1.80319130e-01 2.45662972e-01 3.03924590e-01 1.07024871e-01 2.04466015e-01 1.17260829e-01 1.27946749e-01 7.08921552e-02 6.16739273e-01 6.17766261e-01 3.66765499e-01 2.87870854e-01 4.20715988e-01 5.67102373e-01 2.62280315e-01 7.00018480e-02 6.49620175e-01 7.39183962e-01 7.32871294e-01 5.16835093e-01 3.87827188e-01 4.54461247e-01 2.46305168e-01 2.49009356e-01 5.06452441e-01 5.42342901e-01 4.60676074e-01 1.07427225e-01 4.22331303e-01 3.60428154e-01 5.45560181e-01 6.48629308e-01 2.87204593e-01 3.64547193e-01 3.88100863e-01 5.44206761e-02 8.24873820e-02 6.81871548e-02 2.06686426e-02 4.12922017e-02 7.06625223e-01 6.38574719e-01 9.51357484e-02 1.17280662e-01 1.15909539e-01 8.15109536e-02 8.19275454e-02 5.82290925e-02 3.84142809e-02 5.03954589e-02 3.45434137e-02 3.18328410e-01 1.24433160e-01 1.44869670e-01 2.91381747e-01 9.84075144e-02 2.80728955e-02 4.34444487e-01 3.84588778e-01 2.10258141e-01 1.21471256e-01 6.37992620e-02 4.29734290e-02 2.40517661e-01 2.61349142e-01 2.29472801e-01 3.90062742e-02 2.17613243e-02 1.87884077e-01 1.82324916e-01 2.66562313e-01 3.69902104e-01 4.61323053e-01 1.27719328e-01 1.75729662e-01 3.17566916e-02 1.94179043e-02 2.61918958e-02 1.15316473e-02 4.54801992e-02 1.96641088e-02 3.29136908e-01 1.89600829e-02 2.06526294e-02 1.37599958e-02 2.51460671e-02 1.73589699e-02 1.24591455e-01 4.14291061e-02 1.44048184e-01 5.24918437e-02 1.33742280e-02 1.01385741e-02 1.05113452e-02 5.49377166e-02 1.75445184e-01 1.73635572e-01 1.04926012e-01 1.61756612e-02 1.63104776e-02 8.60937610e-02 1.38768822e-01 1.03066184e-01 8.81345868e-02 2.00850796e-02 1.11710289e-02 3.79707180e-02 7.89611265e-02 6.38115630e-02 1.05374962e-01 1.83978930e-01 4.77655306e-02 1.26816239e-02 1.08806537e-02 1.14790732e-02 1.03957299e-02 1.23735853e-02 1.13868043e-02 1.03415605e-02 1.20351529e-02 4.08483222e-02 1.94218159e-02 1.00991884e-02 1.01104220e-02 1.01634385e-02 1.01011321e-02 3.32579426e-02 1.35114640e-02 2.95652971e-02 6.80774674e-02 7.17038140e-02 2.76508406e-02 1.05307978e-02 4.69576865e-02 2.17581503e-02 3.04667521e-02 1.07897883e-02 1.01325838e-02 2.23487560e-02 2.29618028e-02 3.18817310e-02 1.03062820e-02 1.01836398e-02 1.01515977e-02 1.01550613e-02 1.01916827e-02 2.64925547e-02 1.03703765e-02 1.00993831e-02 1.00989919e-02 1.01170791e-02 1.00989901e-02 1.61993112e-02 1.06533309e-02 1.18868183e-02 1.76036432e-02 1.73410494e-02 1.01162056e-02 1.22384187e-02 1.12171443e-02 1.01179229e-02 1.01093883e-02 1.03447596e-02 1.43956300e-02 1.01066986e-02 1.01062199e-02 1.00998823e-02 1.00999447e-02 1.00992778e-02 1.00991763e-02 1.00989919e-02 1.00989901e-02 1.00996112e-02 1.00989901e-02 1.06155155e-02 1.01596285e-02 1.01856487e-02 1.06197316e-02 1.03159314e-02 1.00991270e-02 1.01021519e-02 1.01930667e-02 1.02628218e-02 1.00989919e-02 1.00993244e-02 1.01297349e-02 1.01031922e-02 1.00991586e-02 1.00993169e-02 1.00990226e-02 1.00990143e-02 1.00989919e-02 1.00989901e-02 1.00989901e-02 1.00989901e-02 1.01034464e-02 1.01001030e-02 1.01090316e-02 1.00989910e-02 1.00989901e-02 1.00995535e-02 1.00992788e-02 1.01042669e-02 1.00989901e-02 1.00989901e-02 1.00989901e-02 1.00989910e-02 1.00989901e-02 1.00989901e-02 1.00989901e-02 1.00989938e-02 1.00993738e-02 1.00989901e-02 1.00989901e-02 1.00989901e-02 1.00990888e-02 1.00989901e-02 1.00989901e-02 1.00989901e-02 1.00989901e-02 1.00989901e-02 1.00989901e-02 1.00989928e-02 1.00989910e-02 1.00989901e-02 1.00989901e-02 1.00989901e-02 1.00989956e-02 1.00989901e-02 1.00989901e-02 1.00989901e-02 1.00989901e-02 1.00989901e-02 1.00989910e-02 1.00989901e-02 1.00989901e-02 1.00989901e-02 1.00989901e-02 1.00989901e-02 1.00989901e-02 1.00989901e-02 1.00989901e-02 1.00989901e-02 1.00989901e-02 1.00989901e-02 1.00989901e-02 1.00990273e-02 1.00989984e-02 1.00989901e-02 1.01012439e-02 1.00989901e-02 1.00989901e-02 2.06686426e-02 1.15316473e-02 5.55140637e-02 1.01385741e-02 1.00991884e-02 1.00989919e-02 1.00989901e-02 1.00998878e-02 1.01011507e-02 1.00989901e-02 1.00989901e-02 1.01131173e-02 1.01982001e-02 1.04062092e-02 1.36397630e-01 1.68662071e-01 4.76967469e-02 1.49813723e-02 7.25981295e-01 4.19998735e-01 1.00989901e-02 1.00989901e-02 1.01476917e-02 1.01057971e-02 1.02268020e-02 1.01208165e-02 1.01041533e-02 1.20907649e-02 2.10376084e-02 6.99793324e-02 1.79952472e-01 4.33303297e-01 8.92039299e-01 1.06143486e-02 1.00989901e-02 1.00989901e-02 9.60331559e-01 1.09624416e-02 1.04330685e-02 1.34369973e-02 2.75372006e-02 1.05971647e-02 1.05595095e-02 1.76260829e-01 5.34070909e-01 7.60543704e-01 1.33081572e-02 1.01011321e-02 9.83201027e-01 9.88741696e-01 3.66847031e-02 1.42554827e-02 4.63504195e-02 2.45467480e-02 2.67126620e-01 1.71240997e-02 5.61164498e-01 8.80696356e-01 9.17040408e-01 3.78220081e-02 1.05113452e-02 9.89790678e-01 1.08386442e-01 7.08921552e-02 1.73589699e-02 3.45434137e-02 9.89979327e-01 4.71198820e-02 1.81560785e-01 1.46865591e-01 1.97917074e-01 3.80663961e-01 6.86748326e-01 9.31044638e-01 9.61967647e-01 1.39455914e-01 2.67472118e-01 1.58881217e-01 9.88419056e-01 9.90001023e-01 6.49619699e-01 3.44919354e-01 8.51338565e-01 5.95793843e-01 5.09059966e-01 5.34272790e-01 4.16279167e-01 6.02371097e-01 8.27071965e-01 9.41630781e-01 9.89225209e-01 9.89961565e-01 9.89923120e-01 9.90001023e-01 9.33656096e-01 9.69687402e-01 9.59244132e-01 8.83023560e-01 7.94415772e-01 8.03534865e-01 9.89097714e-01 9.89991307e-01 9.90001023e-01 9.83243227e-01 9.81255293e-01 9.56001997e-01 9.26323235e-01 9.88477111e-01 9.89148676e-01 9.90001023e-01 9.81776237e-01 9.89871025e-01 9.90001023e-01 9.89998996e-01 
