# vtk DataFile Version 2.0
sol_toll1e-05_vf0.3iter2.vtk, Created by Freefem++ 
ASCII
DATASET UNSTRUCTURED_GRID
POINTS 386 float
1 0 0
0.81883268 0 0
1 0.042170405 0
0.86472188 0.030995748 0
0.73309051 0.036068593 0
0.67945613 0 0
1 0.090887471 0
0.86614879 0.074488258 0
0.73446465 0.075828583 0
0.61827672 0.044041776 0
0.56460182 0 0
1 0.13674304 0
0.86223324 0.1243037 0
0.66834826 0.10063375 0
0.76618076 0.12501544 0
0.51933579 0.057532081 0
0.59153119 0.086015188 0
0.51240845 0.026249544 0
0.45952013 0 0
0.54240241 0.10645001 0
1 0.17567116 0
0.86490797 0.17162409 0
0.65782751 0.15149611 0
0.75812845 0.16531398 0
0.46619783 0.08949794 0
0.42459174 0.04069574 0
0.36201764 0 0
0.51341756 0.14120915 0
0.60059176 0.16667362 0
0.33163033 0.090570581 0
0.39611702 0.089119224 0
1 0.20813259 0
0.86249675 0.21247511 0
0.68534446 0.21610699 0
0.77176758 0.2139476 0
0.45273859 0.14787647 0
0.33263471 0.040892857 0
0.27402974 0 0
0.56692633 0.20314661 0
0.27167707 0.073395483 0
0.37276133 0.14586114 0
0.28244528 0.12538441 0
0.32439366 0.16306444 0
1 0.23635894 0
0.87767458 0.2560409 0
0.69580642 0.26462505 0
0.78203942 0.25874313 0
0.4637369 0.20835773 0
0.2401927 0.03903896 0
0.19797123 0 0
0.57951825 0.24746465 0
0.21365183 0.091291375 0
0.3870515 0.21616594 0
0.23811762 0.15030631 0
0.30243509 0.19853167 0
0.25299013 0.20750421 0
0.18341636 0.13361863 0
1 0.26206785 0
1 0.28763239 0
0.84622741 0.29459557 0
0.64509214 0.29846295 0
0.74878805 0.30889891 0
0.54810959 0.27337571 0
0.46821297 0.26220685 0
0.16871114 0.046839674 0
0.13372423 0 0
0.14776997 0.096449431 0
0.36768704 0.25734327 0
0.45951232 0.29320557 0
0.19887444 0.18785455 0
0.32281461 0.27058138 0
0.25142584 0.25117327 0
0.14887232 0.17060353 0
0 0.33608905 0
0 0.31224445 0
0 0.042170405 0
0 0.26206785 0
0 0.23635894 0
0 0.20813259 0
0 0.13674304 0
0 0.090887471 0
0 0.28763239 0
0 0.17567116 0
0.085503661 0 0
0 0 0
1 0.31224445 0
0.83815122 0.33122929 0
0.57198726 0.31973393 0
0.70331629 0.34006727 0
0.10675129 0.05508645 0
0.10555508 0.11456027 0
0.43186354 0.3217276 0
0.53263116 0.35191792 0
0.20601478 0.24971534 0
0.28971503 0.30566932 0
0.38433085 0.33240685 0
0.10057958 0.17701745 0
0.14302309 0.23606013 0
0 0.35973155 0
0.01175862 0.27965379 0
0.012551014 0.072874351 0
0.010023348 0.20855091 0
0.011223497 0.13443157 0
0.067145907 0.046559659 0
0.053819921 0 0
0.01717644 0.040662488 0
0.016052328 0 0
0 0.40827119 0
0 0.38349873 0
0 0.46133765 0
0.19065743 0.29077106 0
0 0.43405122 0
0.033504123 0 0
0.36421458 0.35613124 0
1 0.33608905 0
0.79898586 0.36575409 0
0.88882389 0.35074193 0
0.62812408 0.36635029 0
0.71616275 0.37383747 0
0.070303086 0.10909354 0
0.47687147 0.37760168 0
0.58068408 0.39895086 0
0.26040142 0.33660875 0
0.070140908 0.19489042 0
0.10291549 0.25836921 0
0.15898617 0.31585384 0
0.012821104 0.35831934 0
0.019102253 0.19335993 0
0.021739316 0.27284035 0
0.022214003 0.12805951 0
0.025653375 0.08714263 0
0.046385795 0.06382197 0
0.030573555 0.049238661 0
0.013822204 0.43713635 0
0 0.48925823 0
0.37442433 0.38518597 0
1 0.35973155 0
0.79066708 0.39739474 0
0.88379306 0.37837466 0
0.69334107 0.40101746 0
0.049601031 0.17272543 0
0.47886204 0.41916744 0
0.66407777 0.42755014 0
0.58092324 0.43192643 0
0.23116623 0.374262 0
0.058579553 0.26078904 0
0.079185294 0.29588931 0
0.11669989 0.33702658 0
0.1739271 0.38611809 0
0.022653616 0.36489994 0
0.027678401 0.19321874 0
0.029059144 0.28913619 0
0.031612258 0.13970471 0
0.03748675 0.11347263 0
0.014168397 0.51294717 0
0.022897051 0.46075403 0
0 0.51662869 0
0.34182249 0.41082791 0
0 0.54294884 0
1 0.38349873 0
0.89480479 0.40222193 0
0.82863172 0.42015663 0
0.74734999 0.43156525 0
0.039590168 0.23005313 0
0.050047558 0.31138011 0
0.46309952 0.45099162 0
0.56542007 0.4592555 0
0.65675218 0.45662489 0
0.26631745 0.43185931 0
0.065814524 0.3555861 0
0.090607823 0.36938415 0
0.12676182 0.40460152 0
0.18655454 0.44495812 0
0.029064323 0.4056496 0
0.033839945 0.24312254 0
0.033126117 0.37401346 0
0.023900148 0.56180736 0
0.014922055 0.58785379 0
0.028932366 0.51376764 0
0.38063948 0.46526957 0
0 0.56729537 0
0 0.68012436 0
0 0.65757605 0
0 0.59004207 0
0 0.72859128 0
0 0.70346186 0
0 0.61253624 0
0 0.63503527 0
1 0.40827119 0
0.90060577 0.43054526 0
0.81966586 0.45072471 0
0.72802136 0.46716775 0
0.037663117 0.39574335 0
0.043653959 0.36782081 0
0.056298743 0.42653831 0
0.50989337 0.49019598 0
0.62318978 0.48905656 0
0.25651341 0.48315852 0
0.083146129 0.42452803 0
0.12731407 0.46063725 0
0.16962321 0.50055045 0
0.032686354 0.54592539 0
0.035671899 0.53852922 0
0.030131374 0.64319655 0
0.024267026 0.6678359 0
0.013658689 0.66389114 0
0.41232123 0.51132242 0
0.32628627 0.50108963 0
0.011438306 0.74921983 0
0 0.75514407 0
0 0.90407373 0
0 0.78278945 0
0 0.81580731 0
0 0.85644721 0
0.092807588 0.47559189 0
1 0.43405122 0
0.88153455 0.46379291 0
0.78566398 0.48622253 0
0.69141496 0.50664281 0
0.039743168 0.59828194 0
0.044514141 0.49443235 0
0.07062919 0.49937513 0
0.05394344 0.52953555 0
0.57244067 0.5239076 0
0.48690279 0.53001465 0
0.219548 0.54655233 0
0.10430054 0.52778223 0
0.14247211 0.55181537 0
0.034772188 0.71297384 0
0.029775639 0.76012287 0
0.021924944 0.75295113 0
0.39771334 0.55436929 0
0.31555315 0.53995082 0
0.01936749 0.82017308 0
0.010704246 0.83457331 0
0.010854561 0.90466995 0
0 0.95619826 0
1 0.46133765 0
0.91611167 0.47995835 0
0.83953951 0.50272184 0
0.75971351 0.52827501 0
0.63659258 0.53999089 0
0.04047784 0.7565318 0
0.049191076 0.63106515 0
0.067822674 0.59000067 0
0.50638481 0.56776441 0
0.18122319 0.61363623 0
0.27346894 0.58839085 0
0.13388467 0.61093824 0
0.09392273 0.60130292 0
0.033351171 0.85286031 0
0.027192983 0.84492574 0
0.385523 0.59059664 0
0.02063148 0.89215496 0
0.014515225 0.95386919 0
0 1 0
0.33894149 0.63314905 0
0.26917635 0.63136235 0
1 0.48925823 0
0.90976368 0.50583094 0
0.87757329 0.53303455 0
0.68508688 0.56470608 0
0.76433555 0.55652609 0
0.59345247 0.57363498 0
0.051067428 0.76599994 0
0.040287596 0.88730195 0
0.065672752 0.68552856 0
0.43301575 0.62360585 0
0.53250846 0.61050235 0
0.12285573 0.68452508 0
0.18196615 0.66330237 0
0.089057714 0.69248839 0
0.026269422 0.93684589 0
0.033413447 0.94263204 0
0.016052328 1 0
0.22425454 0.69159155 0
0.31086742 0.67498777 0
1 0.51662869 0
0.9065523 0.55770207 0
0.82627162 0.56336526 0
1 0.54294884 0
0.73699906 0.58996517 0
0.63838223 0.60484334 0
0.049651972 0.90380315 0
0.069337638 0.80634707 0
0.033504123 1 0
0.36396829 0.68508962 0
0.45528413 0.6645106 0
0.5556279 0.64697569 0
0.14651271 0.73371969 0
0.10301139 0.76373533 0
0.19187308 0.75261051 0
0.26357203 0.72805167 0
0.8927143 0.58430417 0
1 0.56729537 0
0.8026517 0.60018016 0
0.73008613 0.6288655 0
0.64490935 0.64531343 0
0.06623704 0.92416752 0
0.053819921 1 0
0.10391345 0.82833075 0
0.084439889 0.88142307 0
0.34243465 0.73563996 0
0.45634762 0.70589294 0
0.56744328 0.68708186 0
0.15395873 0.80555281 0
0.23372321 0.78661878 0
0.86010355 0.6176024 0
1 0.59004207 0
0.67690448 0.67999141 0
0.78299167 0.65639029 0
0.085503661 1 0
0.10036665 0.94381332 0
0.13267435 0.88486789 0
0.37536101 0.77414589 0
0.29795798 0.79105076 0
0.46740308 0.74319383 0
0.55461405 0.73179678 0
0.19116022 0.85316345 0
0.24970835 0.8377412 0
0.8854864 0.65137864 0
1 0.61253624 0
0.90893531 0.62695621 0
0.73496198 0.70708975 0
0.64108576 0.7264867 0
0.84653718 0.67846147 0
0.13372423 1 0
0.15273038 0.95008327 0
0.18595363 0.9095069 0
0.4287304 0.80242501 0
0.31956186 0.83814695 0
0.52712189 0.77729874 0
0.25177296 0.89143527 0
0.36454153 0.85005105 0
1 0.65757605 0
1 0.63503527 0
0.62292093 0.7701166 0
0.72726612 0.75841716 0
0.80404524 0.7189626 0
1 0.68012436 0
0.89397353 0.7057564 0
0.19797123 1 0
0.22679646 0.95366722 0
0.41212811 0.8647941 0
0.49655395 0.82442058 0
0.33271683 0.89761592 0
0.28564649 0.9342942 0
0.59429026 0.8206564 0
0.85004756 0.75156479 0
0.70172474 0.80556064 0
1 0.70346186 0
1 0.72859128 0
0.27402974 1 0
0.30313602 0.97255357 0
0.48412758 0.87469128 0
0.40858781 0.91478213 0
0.35743055 0.94951531 0
0.56812565 0.87417463 0
0.78227036 0.80133728 0
1 0.75514407 0
0.8808861 0.79514326 0
0.65862633 0.86201244 0
0.36201764 1 0
0.48993535 0.9234658 0
0.43222476 0.96172968 0
0.57769179 0.92151439 0
0.76572594 0.8456611 0
1 0.78278945 0
1 0.81580731 0
0.86864028 0.84617652 0
0.66759095 0.90120373 0
0.45952013 1 0
0.53221389 0.9636881 0
0.64466198 0.95195139 0
0.75075606 0.89945687 0
1 0.85644721 0
0.86140531 0.89365429 0
0.56460182 1 0
0.75386369 0.94900485 0
0.67945613 1 0
1 0.90407373 0
0.87257365 0.93267964 0
0.81883268 1 0
0.85740911 0.97046254 0
1 0.95619826 0
1 1 0

CELLS 770 2988
3 105 106 132
3 100 105 130
3 100 84 105
3 106 105 84
3 131 153 132
3 131 104 103
3 119 123 140
3 83 89 103
3 96 72 97
3 119 96 123
3 90 72 96
3 103 89 119
3 66 72 90
3 90 89 66
3 48 49 37
3 89 64 66
3 65 49 64
3 39 48 36
3 36 37 26
3 25 26 18
3 17 15 25
3 18 17 25
3 10 9 17
3 48 64 49
3 36 48 37
3 39 51 48
3 29 39 36
3 25 30 36
3 40 41 29
3 53 54 55
3 0 2 3
3 2 6 7
3 3 4 1
3 11 7 6
3 8 4 7
3 11 12 7
3 12 11 20
3 21 12 20
3 4 5 1
3 3 7 4
3 0 3 1
3 2 7 3
3 8 13 9
3 14 13 8
3 21 14 12
3 21 23 14
3 16 15 9
3 15 16 19
3 30 25 24
3 10 5 9
3 8 7 12
3 9 4 8
3 17 9 15
3 5 4 9
3 14 8 12
3 23 13 14
3 23 22 13
3 32 23 21
3 32 34 23
3 28 19 22
3 16 9 13
3 131 119 140
3 83 103 104
3 89 65 64
3 119 89 90
3 83 65 89
3 30 40 29
3 36 30 29
3 24 35 30
3 25 15 24
3 26 25 36
3 18 10 17
3 32 31 43
3 28 22 33
3 21 31 32
3 16 13 22
3 20 31 21
3 44 32 43
3 51 56 66
3 48 51 64
3 39 41 51
3 40 42 41
3 35 38 47
3 30 35 40
3 27 38 35
3 19 27 24
3 28 33 38
3 19 28 27
3 19 16 22
3 15 19 24
3 22 23 34
3 24 27 35
3 53 55 69
3 255 236 254
3 235 236 210
3 235 210 213
3 233 253 234
3 254 236 235
3 213 234 235
3 213 212 234
3 212 211 234
3 208 209 184
3 253 254 235
3 250 272 251
3 272 285 274
3 251 272 253
3 250 273 272
3 211 209 234
3 184 185 208
3 208 187 205
3 208 185 181
3 253 235 234
3 274 254 272
3 274 255 254
3 265 242 264
3 285 265 283
3 250 242 265
3 254 253 272
3 229 230 204
3 233 251 253
3 209 208 234
3 230 251 233
3 208 230 233
3 234 208 233
3 181 182 208
3 230 229 251
3 208 182 187
3 289 270 275
3 291 289 275
3 290 269 289
3 283 299 285
3 273 265 285
3 272 273 285
3 250 265 273
3 284 290 300
3 264 284 283
3 264 266 284
3 283 298 299
3 299 298 311
3 301 284 300
3 205 187 186
3 230 205 204
3 230 208 205
3 348 351 359
3 331 324 336
3 329 331 344
3 317 309 324
3 349 347 337
3 329 314 316
3 354 343 344
3 330 345 332
3 329 333 330
3 318 305 306
3 263 241 261
3 252 245 267
3 223 241 245
3 304 303 288
3 309 304 297
3 317 316 304
3 267 256 252
3 302 286 287
3 276 275 256
3 342 346 353
3 364 355 363
3 352 353 362
3 330 332 319
3 344 343 329
3 345 346 332
3 343 345 333
3 355 356 345
3 353 346 356
3 362 353 356
3 352 342 353
3 330 319 315
3 329 330 314
3 333 345 330
3 342 332 346
3 342 327 328
3 364 371 362
3 355 364 356
3 363 372 364
3 326 311 312
3 326 312 327
3 327 342 341
3 301 313 312
3 328 332 342
3 313 328 327
3 318 332 328
3 385 382 383
3 383 384 385
3 379 373 378
3 381 384 383
3 365 373 372
3 381 380 384
3 373 379 377
3 376 380 381
3 365 363 357
3 379 378 382
3 377 371 372
3 372 371 364
3 378 374 376
3 373 377 372
3 365 370 373
3 364 362 356
3 376 381 378
3 369 376 374
3 366 369 374
3 360 368 369
3 375 380 376
3 346 345 356
3 375 376 369
3 342 352 341
3 326 327 341
3 318 319 332
3 375 369 368
3 369 366 360
3 378 373 374
3 383 378 381
3 383 382 378
3 370 366 374
3 373 370 374
3 365 361 370
3 363 365 372
3 361 366 370
3 355 354 363
3 337 336 323
3 348 337 338
3 347 336 337
3 357 347 349
3 365 357 361
3 363 354 357
3 336 324 323
3 344 336 347
3 344 331 336
3 361 349 358
3 306 292 302
3 318 306 319
3 291 292 306
3 305 291 306
3 313 305 318
3 300 290 305
3 305 289 291
3 305 290 289
3 313 300 305
3 328 313 318
3 327 312 313
3 301 298 284
3 313 301 300
3 298 283 284
3 312 298 301
3 312 311 298
3 284 271 290
3 360 367 368
3 361 358 366
3 348 359 360
3 354 344 347
3 357 354 347
3 343 333 329
3 355 343 354
3 355 345 343
3 359 367 360
3 348 338 340
3 316 314 303
3 331 329 317
3 302 292 286
3 314 302 303
3 315 319 306
3 314 315 302
3 314 330 315
3 317 329 316
3 315 306 302
3 203 204 176
3 220 243 219
3 243 244 266
3 220 222 243
3 192 220 219
3 192 193 220
3 194 221 222
3 249 271 266
3 243 264 242
3 219 243 242
3 228 219 242
3 202 192 219
3 222 244 243
3 221 226 244
3 248 269 271
3 247 246 225
3 266 264 243
3 249 266 244
3 271 284 266
3 248 271 249
3 269 290 271
3 351 348 340
3 349 337 348
3 358 349 348
3 360 358 348
3 360 366 358
3 361 357 349
3 323 325 338
3 350 351 340
3 316 303 304
3 340 339 350
3 325 340 338
3 325 339 340
3 324 309 323
3 338 337 323
3 331 317 324
3 228 203 201
3 250 228 242
3 229 203 228
3 251 229 250
3 204 203 229
3 186 183 205
3 265 264 283
3 229 228 250
3 228 202 219
3 270 289 269
3 256 275 257
3 252 256 257
3 276 292 275
3 267 276 256
3 267 286 276
3 292 291 275
3 325 320 334
3 339 325 334
3 296 282 281
3 310 296 307
3 323 310 325
3 309 296 310
3 309 317 304
3 323 309 310
3 276 286 292
3 288 287 268
3 297 288 282
3 297 304 288
3 303 302 287
3 177 176 204
3 320 325 310
3 180 205 183
3 177 180 158
3 205 177 204
3 205 180 177
3 178 203 176
3 155 178 176
3 173 201 178
3 247 232 231
3 270 247 257
3 275 270 257
3 269 248 246
3 225 232 247
3 227 225 248
3 249 227 248
3 226 214 199
3 199 198 171
3 226 227 249
3 244 226 249
3 226 200 227
3 268 263 282
3 288 268 282
3 267 245 268
3 241 263 245
3 261 282 263
3 295 296 281
3 279 293 295
3 320 335 334
3 307 320 310
3 322 335 320
3 321 322 307
3 321 335 322
3 246 248 225
3 270 246 247
3 270 269 246
3 175 201 173
3 228 201 202
3 177 156 154
3 177 158 156
3 154 156 134
3 240 241 218
3 281 282 261
3 295 307 296
3 279 295 281
3 293 307 295
3 278 293 279
3 308 307 293
3 308 321 307
3 267 287 286
3 231 224 245
3 247 231 252
3 206 224 231
3 268 287 267
3 262 281 261
3 288 303 287
3 296 297 282
3 296 309 297
3 322 320 307
3 239 217 216
3 260 239 259
3 240 217 239
3 241 223 218
3 167 166 143
3 196 167 191
3 196 166 167
3 294 308 293
3 278 280 294
3 293 278 294
3 279 260 278
3 218 223 196
3 133 109 111
3 177 154 176
3 134 109 133
3 278 260 280
3 155 176 154
3 133 155 154
3 134 133 154
3 126 149 133
3 149 173 155
3 262 279 281
3 240 262 261
3 240 260 262
3 217 240 218
3 260 279 262
3 239 260 240
3 216 238 239
3 237 238 216
3 258 259 238
3 258 277 259
3 277 280 260
3 241 240 261
3 162 191 167
3 191 218 196
3 142 162 167
3 217 218 191
3 190 217 191
3 239 238 259
3 190 216 217
3 189 190 161
3 189 216 190
3 237 258 238
3 206 232 207
3 179 206 207
3 231 245 252
3 179 195 206
3 223 245 224
3 268 245 263
3 223 195 196
3 225 200 197
3 157 135 141
3 126 111 107
3 137 162 139
3 138 137 115
3 161 162 137
3 237 216 215
3 260 259 277
3 189 215 216
3 160 189 161
3 188 215 189
3 107 108 126
3 155 173 178
3 99 128 126
3 98 99 126
3 101 127 99
3 128 127 150
3 126 128 149
3 127 129 150
3 99 127 128
3 101 102 127
3 160 188 189
3 137 160 161
3 138 159 160
3 174 151 150
3 160 137 138
3 73 74 99
3 118 139 117
3 115 118 88
3 115 137 118
3 86 115 88
3 160 159 188
3 116 138 115
3 136 159 138
3 178 201 203
3 111 126 133
3 175 202 201
3 74 81 99
3 257 247 252
3 232 206 231
3 179 207 197
3 168 157 179
3 168 179 197
3 195 224 206
3 165 195 179
3 166 196 195
3 232 225 207
3 172 171 148
3 95 91 120
3 94 95 113
3 94 70 95
3 93 94 122
3 70 91 95
3 93 71 94
3 55 54 70
3 191 162 190
3 141 121 143
3 162 161 190
3 139 162 142
3 139 118 137
3 138 116 136
3 99 81 101
3 50 62 47
3 45 50 38
3 45 60 50
3 33 45 38
3 46 44 59
3 33 46 45
3 33 34 46
3 27 28 38
3 34 44 46
3 22 34 33
3 32 44 34
3 57 58 44
3 59 86 61
3 85 59 58
3 62 63 47
3 61 88 60
3 45 61 60
3 86 88 61
3 60 88 87
3 50 60 62
3 45 46 61
3 114 86 85
3 117 121 92
3 200 225 227
3 199 200 226
3 197 207 225
3 172 197 200
3 172 168 197
3 144 157 168
3 125 144 148
3 122 135 144
3 121 120 92
3 139 121 117
3 165 166 195
3 157 141 165
3 141 166 165
3 142 143 121
3 142 167 143
3 223 224 195
3 120 135 113
3 166 141 143
3 165 179 157
3 148 144 168
3 141 120 121
3 144 135 157
3 122 94 113
3 135 120 141
3 122 113 135
3 95 120 113
3 67 91 70
3 68 92 91
3 67 68 91
3 54 67 70
3 54 52 67
3 63 62 87
3 116 86 114
3 136 116 114
3 115 86 116
3 117 88 118
3 142 121 139
3 92 87 117
3 92 68 87
3 91 92 120
3 87 62 60
3 117 87 88
3 68 63 87
3 133 149 155
3 98 126 108
3 98 73 99
3 194 164 169
3 151 175 173
3 149 151 173
3 163 140 164
3 150 152 174
3 128 150 151
3 129 152 150
3 153 131 140
3 152 153 163
3 152 130 153
3 174 152 163
3 192 174 163
3 175 151 174
3 132 106 112
3 129 130 152
3 129 102 100
3 163 164 193
3 131 103 119
3 132 112 131
3 130 132 153
3 130 105 132
3 112 104 131
3 145 169 164
3 123 124 146
3 163 153 140
3 119 90 96
3 147 170 146
3 192 202 175
3 174 192 175
3 193 194 220
3 220 194 222
3 163 193 192
3 164 194 193
3 198 221 194
3 169 198 194
3 145 123 146
3 140 145 164
3 140 123 145
3 170 171 198
3 146 170 169
3 147 171 170
3 221 244 222
3 214 221 198
3 214 226 221
3 149 128 151
3 76 101 81
3 76 77 101
3 67 52 68
3 53 56 51
3 54 53 41
3 69 56 53
3 52 63 68
3 42 52 54
3 42 40 52
3 59 85 86
3 101 77 78
3 82 101 78
3 46 59 61
3 102 101 82
3 102 129 127
3 79 102 82
3 79 80 102
3 59 44 58
3 75 100 80
3 100 130 129
3 80 100 102
3 75 84 100
3 71 55 70
3 94 71 70
3 93 69 71
3 71 69 55
3 110 93 122
3 125 110 122
3 125 97 110
3 97 72 93
3 144 125 122
3 124 123 96
3 41 39 29
3 54 41 42
3 53 51 41
3 72 56 69
3 66 64 51
3 44 43 57
3 47 38 50
3 52 47 63
3 52 40 47
3 47 40 35
3 199 172 200
3 198 199 214
3 171 172 199
3 169 170 198
3 148 168 172
3 147 148 171
3 147 124 125
3 124 147 146
3 169 145 146
3 72 69 93
3 124 96 97
3 66 56 72
3 110 97 93
3 147 125 148
3 124 97 125
2 84 106
2 106 112
2 112 104
2 104 83
2 83 65
2 65 49
2 49 37
2 37 26
2 26 18
2 18 10
2 10 5
2 5 1
2 1 0
2 255 274
2 274 285
2 285 299
2 299 311
2 311 326
2 326 341
2 341 352
2 352 362
2 362 371
2 371 377
2 377 379
2 379 382
2 382 385
2 0 2
2 2 6
2 6 11
2 11 20
2 20 31
2 31 43
2 43 57
2 57 58
2 58 85
2 85 114
2 114 136
2 136 159
2 159 188
2 188 215
2 215 237
2 237 258
2 258 277
2 277 280
2 280 294
2 294 308
2 308 321
2 321 335
2 335 334
2 334 339
2 339 350
2 350 351
2 351 359
2 359 367
2 367 368
2 368 375
2 375 380
2 380 384
2 384 385
2 84 75
2 75 80
2 80 79
2 79 82
2 82 78
2 78 77
2 77 76
2 76 81
2 81 74
2 74 73
2 73 98
2 98 108
2 108 107
2 107 111
2 111 109
2 109 134
2 134 156
2 156 158
2 158 180
2 180 183
2 183 186
2 186 187
2 187 182
2 182 181
2 181 185
2 185 184
2 184 209
2 209 211
2 211 212
2 212 213
2 213 210
2 210 236
2 236 255

CELL_TYPES 770
5 5 5 5 5 5 5 5 5 5 5 5 5 5 5 5 5 5 5 5 5 5 5 5 5 5 5 5 5 5 5 5 5 5 5 5 5 5 5 5 5 5 5 5 5 5 5 5 5 5 5 5 5 5 5 5 5 5 5 5 5 5 5 5 5 5 5 5 5 5 5 5 5 5 5 5 5 5 5 5 5 5 5 5 5 5 5 5 5 5 5 5 5 5 5 5 5 5 5 5 5 5 5 5 5 5 5 5 5 5 5 5 5 5 5 5 5 5 5 5 5 5 5 5 5 5 5 5 5 5 5 5 5 5 5 5 5 5 5 5 5 5 5 5 5 5 5 5 5 5 5 5 5 5 5 5 5 5 5 5 5 5 5 5 5 5 5 5 5 5 5 5 5 5 5 5 5 5 5 5 5 5 5 5 5 5 5 5 5 5 5 5 5 5 5 5 5 5 5 5 5 5 5 5 5 5 5 5 5 5 5 5 5 5 5 5 5 5 5 5 5 5 5 5 5 5 5 5 5 5 5 5 5 5 5 5 5 5 5 5 5 5 5 5 5 5 5 5 5 5 5 5 5 5 5 5 5 5 5 5 5 5 5 5 5 5 5 5 5 5 5 5 5 5 5 5 5 5 5 5 5 5 5 5 5 5 5 5 5 5 5 5 5 5 5 5 5 5 5 5 5 5 5 5 5 5 5 5 5 5 5 5 5 5 5 5 5 5 5 5 5 5 5 5 5 5 5 5 5 5 5 5 5 5 5 5 5 5 5 5 5 5 5 5 5 5 5 5 5 5 5 5 5 5 5 5 5 5 5 5 5 5 5 5 5 5 5 5 5 5 5 5 5 5 5 5 5 5 5 5 5 5 5 5 5 5 5 5 5 5 5 5 5 5 5 5 5 5 5 5 5 5 5 5 5 5 5 5 5 5 5 5 5 5 5 5 5 5 5 5 5 5 5 5 5 5 5 5 5 5 5 5 5 5 5 5 5 5 5 5 5 5 5 5 5 5 5 5 5 5 5 5 5 5 5 5 5 5 5 5 5 5 5 5 5 5 5 5 5 5 5 5 5 5 5 5 5 5 5 5 5 5 5 5 5 5 5 5 5 5 5 5 5 5 5 5 5 5 5 5 5 5 5 5 5 5 5 5 5 5 5 5 5 5 5 5 5 5 5 5 5 5 5 5 5 5 5 5 5 5 5 5 5 5 5 5 5 5 5 5 5 5 5 5 5 5 5 5 5 5 5 5 5 5 5 5 5 5 5 5 5 5 5 5 5 5 5 5 5 5 5 5 5 5 5 5 5 5 5 5 5 5 5 5 5 5 5 5 5 5 5 5 5 5 5 5 5 5 5 5 5 5 5 5 5 5 5 5 5 5 5 5 5 5 5 5 5 5 5 5 5 5 5 5 5 5 5 5 5 5 5 5 5 5 5 5 5 5 5 5 5 5 5 5 5 5 5 5 5 5 5 5 5 5 5 5 5 5 5 5 5 5 5 5 5 5 5 5 5 5 5 5 5 5 5 5 5 5 3 3 3 3 3 3 3 3 3 3 3 3 3 3 3 3 3 3 3 3 3 3 3 3 3 3 3 3 3 3 3 3 3 3 3 3 3 3 3 3 3 3 3 3 3 3 3 3 3 3 3 3 3 3 3 3 3 3 3 3 3 3 3 3 3 3 3 3 3 3 3 3 3 3 3 3 3 3 3 3 3 3 3 3 3 3 3 3 3 3 3 3 
CELL_DATA 770
Scalars  Label int 1
LOOKUP_TABLE FreeFempp_table
0
0
0
0
0
0
0
0
0
0
0
0
0
0
0
0
0
0
0
0
0
0
0
0
0
0
0
0
0
0
0
0
0
0
0
0
0
0
0
0
0
0
0
0
0
0
0
0
0
0
0
0
0
0
0
0
0
0
0
0
0
0
0
0
0
0
0
0
0
0
0
0
0
0
0
0
0
0
0
0
0
0
0
0
0
0
0
0
0
0
0
0
0
0
0
0
0
0
0
0
0
0
0
0
0
0
0
0
0
0
0
0
0
0
0
0
0
0
0
0
0
0
0
0
0
0
0
0
0
0
0
0
0
0
0
0
0
0
0
0
0
0
0
0
0
0
0
0
0
0
0
0
0
0
0
0
0
0
0
0
0
0
0
0
0
0
0
0
0
0
0
0
0
0
0
0
0
0
0
0
0
0
0
0
0
0
0
0
0
0
0
0
0
0
0
0
0
0
0
0
0
0
0
0
0
0
0
0
0
0
0
0
0
0
0
0
0
0
0
0
0
0
0
0
0
0
0
0
0
0
0
0
0
0
0
0
0
0
0
0
0
0
0
0
0
0
0
0
0
0
0
0
0
0
0
0
0
0
0
0
0
0
0
0
0
0
0
0
0
0
0
0
0
0
0
0
0
0
0
0
0
0
0
0
0
0
0
0
0
0
0
0
0
0
0
0
0
0
0
0
0
0
0
0
0
0
0
0
0
0
0
0
0
0
0
0
0
0
0
0
0
0
0
0
0
0
0
0
0
0
0
0
0
0
0
0
0
0
0
0
0
0
0
0
0
0
0
0
0
0
0
0
0
0
0
0
0
0
0
0
0
0
0
0
0
0
0
0
0
0
0
0
0
0
0
0
0
0
0
0
0
0
0
0
0
0
0
0
0
0
0
0
0
0
0
0
0
0
0
0
0
0
0
0
0
0
0
0
0
0
0
0
0
0
0
0
0
0
0
0
0
0
0
0
0
0
0
0
0
0
0
0
0
0
0
0
0
0
0
0
0
0
0
0
0
0
0
0
0
0
0
0
0
0
0
0
0
0
0
0
0
0
0
0
0
0
0
0
0
0
0
0
0
0
0
0
0
0
0
0
0
0
0
0
0
0
0
0
0
0
0
0
0
0
0
0
0
0
0
0
0
0
0
0
0
0
0
0
0
0
0
0
0
0
0
0
0
0
0
0
0
0
0
0
0
0
0
0
0
0
0
0
0
0
0
0
0
0
0
0
0
0
0
0
0
0
0
0
0
0
0
0
0
0
0
0
0
0
0
0
0
0
0
0
0
0
0
0
0
0
0
0
0
0
0
0
0
0
0
0
0
0
0
0
0
0
0
0
0
0
0
0
0
0
0
0
0
0
0
0
0
0
0
0
0
0
0
0
0
0
0
0
0
0
0
0
0
0
0
0
0
0
0
0
0
0
0
0
0
0
0
0
0
0
0
0
0
0
0
0
0
0
0
0
0
0
0
0
0
0
0
0
0
0
0
0
0
0
0
0
0
0
0
0
0
0
0
0
0
0
0
0
0
0
0
0
0
0
1
1
1
1
1
1
1
1
1
1
1
1
1
3
3
3
3
3
3
3
3
3
3
3
3
3
2
2
2
2
2
2
2
2
2
2
2
2
2
2
2
2
2
2
2
2
2
2
2
2
2
2
2
2
2
2
2
2
2
4
4
4
4
4
4
4
4
4
4
4
4
4
4
4
4
4
4
4
4
4
4
4
4
4
4
4
4
4
4
4
4
4

LOOKUP_TABLE FreeFempp_table 5
1.00000000 0.00000000 0.00000000 1.00000000
1.00000000 1.00000000 0.00000000 1.00000000
1.00000000 0.00000000 1.00000000 1.00000000
0.00000000 1.00000000 0.00000000 1.00000000
0.00000000 1.00000000 1.00000000 1.00000000

POINT_DATA 386
FIELD FieldData 1
Density 1 386 float
1.00989901e-02 1.00989901e-02 1.31792292e-01 9.65679660e-02 1.03445172e-01 1.00989901e-02 2.80864298e-01 2.25410581e-01 2.15572461e-01 1.14054337e-01 1.00989901e-02 4.15458679e-01 3.69705230e-01 2.69606203e-01 3.56331110e-01 1.30092129e-01 2.13680968e-01 6.35148436e-02 1.00989901e-02 2.47019812e-01 5.21989822e-01 4.98484433e-01 3.93103242e-01 4.59742188e-01 1.83121920e-01 7.97720104e-02 1.00989901e-02 3.10296774e-01 4.04515803e-01 1.39708713e-01 1.60202444e-01 6.05887353e-01 6.00350559e-01 5.49885452e-01 5.80661058e-01 2.91166842e-01 6.40462562e-02 1.00989901e-02 4.62320656e-01 9.47401673e-02 2.44617507e-01 1.64141268e-01 2.42908388e-01 6.75275922e-01 7.01999664e-01 6.53279781e-01 6.78288341e-01 4.04032350e-01 4.48505878e-02 1.00989901e-02 5.52309692e-01 9.21658799e-02 3.58795375e-01 1.63657188e-01 2.67335296e-01 2.37839714e-01 1.18698061e-01 7.30525553e-01 7.84075797e-01 7.72490501e-01 6.79342210e-01 7.56114066e-01 5.73140860e-01 4.91385549e-01 3.87831740e-02 1.00989901e-02 6.85766339e-02 3.94368052e-01 5.25280535e-01 1.70326352e-01 3.64511430e-01 2.73466796e-01 1.18665412e-01 8.69134724e-01 8.28291357e-01 1.31792292e-01 7.30525553e-01 6.75275922e-01 6.05887353e-01 4.15458679e-01 2.80864298e-01 7.84075797e-01 5.21989822e-01 1.00989901e-02 1.00989901e-02 8.28291357e-01 8.28961015e-01 6.56218052e-01 7.76503026e-01 2.91085187e-02 5.89464158e-02 5.30648172e-01 6.58084989e-01 2.23746210e-01 3.59374583e-01 4.89594132e-01 8.32090527e-02 1.50682017e-01 9.01180327e-01 5.07120550e-01 1.21001177e-01 4.19881105e-01 2.65880942e-01 1.63000152e-02 1.00989901e-02 4.79574092e-02 1.00989901e-02 9.54529524e-01 9.30716217e-01 9.84723270e-01 2.31533289e-01 9.73731458e-01 1.00989901e-02 4.84063476e-01 8.69134724e-01 8.61043572e-01 8.74262989e-01 7.58152068e-01 8.24104309e-01 3.71408872e-02 6.27516985e-01 7.45377243e-01 3.45885187e-01 6.40708208e-02 1.16701186e-01 2.06792831e-01 5.61262846e-01 2.43038297e-01 2.77500957e-01 1.26031682e-01 6.29238114e-02 1.78675763e-02 2.16694418e-02 5.82451999e-01 9.89877701e-01 5.16936541e-01 9.01180327e-01 8.92175555e-01 9.05857325e-01 8.37201595e-01 4.06605601e-02 6.56098247e-01 8.39062572e-01 7.66987860e-01 3.26764256e-01 6.68877661e-02 9.96442661e-02 1.58297956e-01 2.52157748e-01 3.19723517e-01 1.10917211e-01 1.33870840e-01 4.27282639e-02 3.01627554e-02 5.86228848e-01 3.36897075e-01 9.89650011e-01 4.88695234e-01 9.83587146e-01 9.30716217e-01 9.35656846e-01 9.29076970e-01 8.93854380e-01 4.13564369e-02 6.53416589e-02 6.49818063e-01 7.66749799e-01 8.43054414e-01 3.96362334e-01 9.17474553e-02 1.29487172e-01 1.87801808e-01 2.83860266e-01 1.60264447e-01 3.77632864e-02 5.52238822e-02 3.08291942e-01 5.47423959e-01 1.75172642e-01 5.57364225e-01 9.72674310e-01 8.42197359e-01 8.75922501e-01 9.57112491e-01 7.51169741e-01 7.98495173e-01 9.33813214e-01 9.09450293e-01 9.54529524e-01 9.56240177e-01 9.43765998e-01 9.01422381e-01 5.54518811e-02 6.21173084e-02 8.55388418e-02 7.11419404e-01 8.25991631e-01 3.89759421e-01 1.25910506e-01 1.96505472e-01 2.62599379e-01 6.88463151e-02 5.58847524e-02 1.29345119e-01 2.69010305e-01 5.34006119e-01 5.95872343e-01 4.87586141e-01 4.83859032e-01 6.91962957e-01 2.95116663e-01 6.28259063e-01 5.44806600e-01 4.33469564e-01 1.44407302e-01 9.73731458e-01 9.71038401e-01 9.38217819e-01 8.77068520e-01 5.76026402e-02 6.90767616e-02 1.10570364e-01 8.36460516e-02 7.75018394e-01 6.87173545e-01 3.32847297e-01 1.62096247e-01 2.18238235e-01 4.26776893e-02 1.06928110e-01 2.76805431e-01 5.69480836e-01 4.70184118e-01 2.46599838e-01 3.50996405e-01 2.06595957e-01 1.37901023e-01 9.84723270e-01 9.81447637e-01 9.61986899e-01 9.21802580e-01 8.31957519e-01 4.31453139e-02 7.01496154e-02 1.01632714e-01 6.94469929e-01 2.63102233e-01 3.98622692e-01 1.95768312e-01 1.39224559e-01 2.70500351e-02 1.09994359e-01 5.43006361e-01 1.43459648e-01 8.42293575e-02 1.00989901e-02 4.61443275e-01 3.75047177e-01 9.89877701e-01 9.85109746e-01 9.73590255e-01 8.58646512e-01 9.09843385e-01 7.74586678e-01 5.30324988e-02 2.33496483e-02 8.54110122e-02 5.78007996e-01 6.92979455e-01 1.60737693e-01 2.45631397e-01 1.13246448e-01 3.99648808e-02 1.87234823e-02 1.00989901e-02 2.84179211e-01 3.99197578e-01 9.89650011e-01 9.64800060e-01 9.40171957e-01 9.83587146e-01 8.73786271e-01 7.91591346e-01 2.25892272e-02 6.15618527e-02 1.00989901e-02 4.50930685e-01 5.68527400e-01 6.83162272e-01 1.68578222e-01 1.08268961e-01 2.07428664e-01 3.03603470e-01 9.43954408e-01 9.72674310e-01 8.97431016e-01 8.33326161e-01 7.56423175e-01 2.44584791e-02 1.00989901e-02 8.35948288e-02 4.74780053e-02 3.78477216e-01 5.23843467e-01 6.44772828e-01 1.37225598e-01 2.22356260e-01 9.04920101e-01 9.57112491e-01 7.33765841e-01 8.24431241e-01 1.00989901e-02 2.80274302e-02 7.43287057e-02 3.61310244e-01 2.74008512e-01 4.82997239e-01 5.69133520e-01 1.32748604e-01 1.85964033e-01 8.70059371e-01 9.33813214e-01 9.03053999e-01 7.24914730e-01 6.37443304e-01 8.17926884e-01 1.00989901e-02 3.71073224e-02 8.12130347e-02 3.62038463e-01 2.33835742e-01 4.72989202e-01 1.29030704e-01 2.48055339e-01 8.75922501e-01 9.09450293e-01 5.46460688e-01 6.23262942e-01 7.31081247e-01 8.42197359e-01 7.82029033e-01 1.00989901e-02 5.06320707e-02 2.48166248e-01 3.67412716e-01 1.57357961e-01 8.75058472e-02 4.27720577e-01 6.81882083e-01 5.10516584e-01 7.98495173e-01 7.51169741e-01 1.00989901e-02 4.13798615e-02 2.63903707e-01 1.58704504e-01 8.44112039e-02 3.00149590e-01 5.45672297e-01 6.91962957e-01 5.86474121e-01 3.60291153e-01 1.00989901e-02 1.64759561e-01 7.54591301e-02 1.91380888e-01 4.32808906e-01 6.28259063e-01 5.44806600e-01 4.52485114e-01 2.64524728e-01 1.00989901e-02 8.50498229e-02 1.26709759e-01 2.86283046e-01 4.33469564e-01 3.18310797e-01 1.00989901e-02 1.46863326e-01 1.00989901e-02 2.95116663e-01 2.04713866e-01 1.00989901e-02 9.16366205e-02 1.37901023e-01 1.00989901e-02 
