# vtk DataFile Version 2.0
sol_toll1e-05_vf0.3iter13.vtk, Created by Freefem++ 
ASCII
DATASET UNSTRUCTURED_GRID
POINTS 593 float
0 0.32588921 0
0 0.26593547 0
0 0.43248258 0
0.0059838984 0.40039454 0
0.0074261353 0.34156898 0
0 0.23237469 0
0 0.57632612 0
0 0.21316566 0
0 0.73846169 0
0 0.68059399 0
0.006390832 0.52212097 0
0.010090761 0.44210937 0
0.012072513 0.41113097 0
0.010770136 0.3419612 0
0.0069205159 0.28450784 0
0 0.20136547 0
0 0.77061018 0
0.007097076 0.61143173 0
0.0067967265 0.67790985 0
0 0.16544243 0
0 0.19276047 0
0 0.1853663 0
0 0.17286381 0
0 0.17906345 0
0.01176101 0.51779545 0
0.013799565 0.37615634 0
0.014459399 0.47503847 0
0.011366992 0.3102545 0
0.0073731524 0.25516255 0
0 0.78855501 0
0.0069189805 0.71849494 0
0.011249332 0.59712401 0
0.011258533 0.65023227 0
0 0.15731559 0
0.0083299168 0.23834681 0
0 0.13642402 0
0 0.15067933 0
0 0.80166035 0
0 0.14434827 0
0 0.12386618 0
0 0.10182249 0
0.014456515 0.57564012 0
0.015301223 0.34139747 0
0.016083285 0.41334545 0
0.016535334 0.51479587 0
0.012920068 0.29323769 0
0.0069608085 0.75180155 0
0.011027459 0.70407601 0
0.013608672 0.65238732 0
0.0086181197 0.21789036 0
0.014102612 0.27882097 0
0 0.81123413 0
0.010425015 0.20781646 0
0.010112211 0.17121716 0
0 0.06439325 0
0 0.82812087 0
0 0.84774163 0
0 0.82242486 0
0 0.84435299 0
0 0.81776074 0
0 0.84049926 0
0 0 0
0 0.83525216 0
0.017908171 0.44967107 0
0.017487777 0.6015678 0
0.015940955 0.63894738 0
0.018356578 0.37688154 0
0.017461107 0.32306333 0
0.0186618 0.55052247 0
0.0068836312 0.78223334 0
0.011900323 0.73865555 0
0.014687499 0.69967676 0
0.015866503 0.27163312 0
0.016475046 0.23860453 0
0.012190166 0.13591339 0
0.0075015804 0.80452201 0
0 0.85213588 0
0.0094509494 0 0
0.019677661 0.48206567 0
0 0.85921545 0
0.020520674 0.39963553 0
0.020092496 0.6177859 0
0.017965649 0.67768603 0
0.02006025 0.31991367 0
0.012746769 0.76573369 0
0.016522426 0.73052307 0
0.020654798 0.23576238 0
0.018581713 0.12907611 0
0.010307515 0.80722154 0
0.019410964 0 0
0.021498187 0.52207875 0
0 0.87106763 0
0.022710274 0.41149665 0
0 0.89238861 0
0.023618348 0.53472569 0
0.022961791 0.64587097 0
0.019945185 0.70630569 0
0.024690172 0.33605493 0
0.016739589 0.76713627 0
0.027463822 0.19581249 0
0.010445443 0.83720505 0
0.031246027 0 0
0.026612248 0.47928309 0
0 0.93080052 0
0.026891604 0.59967027 0
0 1 0
0.050505187 0 0
0.021996509 0.74027286 0
0.027098801 0.6848759 0
0.031445758 0.38795755 0
0.0178504 0.80532724 0
0.037262243 0.30773156 0
0.040800539 0.159725 0
0.012557372 0.88731647 0
0.033033242 0.53767773 0
0.0094509494 1 0
0.064677258 0.14430956 0
0.084893097 0 0
1 0 0
0.14615485 0 0
0.68801511 0 0
0.4258458 0 0
0.25120938 0 0
0.75080841 0.063864949 0
0.022502504 0.82793782 0
0.033921886 0.68620237 0
0.046159786 0.41621121 0
0.052686527 0.27844429 0
0.043355023 0.54935209 0
0.019410964 1 0
0.10868726 0.14707314 0
0.080571936 0.2430485 0
1 0.06439325 0
0.1741753 0.14105237 0
0.47633444 0.082729722 0
0.28829013 0.12169133 0
0.55783133 0.11554376 0
0.74413623 0.11095662 0
0.031488931 0.82587673 0
0.048403483 0.67610516 0
0.0740477 0.35461051 0
0.063773273 0.49918712 0
0.031246027 1 0
0.12310001 0.26993901 0
1 0.10182249 0
0.19531939 0.22744482 0
0.39393535 0.15524625 0
0.28303057 0.19544318 0
0.54274813 0.14874853 0
0.65564835 0.14624249 0
0.80273185 0.12818592 0
0.047834599 0.83930943 0
0.07272986 0.66659569 0
0.10500432 0.40219123 0
0.09400398 0.52235538 0
0.050505187 1 0
0.16431438 0.32723453 0
1 0.12386618 0
0.25395544 0.2647392 0
0.34482929 0.21244683 0
0.4457017 0.1811645 0
0.5527721 0.16954615 0
0.66241261 0.16052003 0
0.79638814 0.1434449 0
0.80373652 0.15105877 0
0.087553117 0.79361733 0
0.072152296 0.88504438 0
0.12639784 0.58526087 0
0.10946851 0.69351312 0
0.15370559 0.44659726 0
0.084893097 1 0
0.2123247 0.34293548 0
1 0.13642402 0
0.31923691 0.26133501 0
0.26203911 0.32396073 0
0.40038273 0.21805888 0
0.48340529 0.19343604 0
0.58076348 0.17990836 0
0.69955506 0.1651384 0
0.8410949 0.1539007 0
0.14615485 1 0
0.6582553 0.1749089 0
0.13018808 0.87246058 0
0.15175319 0.76902705 0
0.19224921 0.54544428 0
0.17329331 0.66972627 0
0.21634452 0.41804402 0
1 0.14434827 0
0.36384675 0.25591374 0
0.30629384 0.30859384 0
0.26224524 0.38230952 0
0.4354263 0.22326848 0
0.50577939 0.199909 0
0.59162189 0.18670542 0
0.53571897 0.20109932 0
0.76944827 0.16530171 0
0.89162977 0.15527747 0
0.1969194 0.90668385 0
0.25120938 1 0
0.69567766 0.17598243 0
0.63442671 0.18555243 0
0.39098353 0.25419048 0
0.227511 0.83159687 0
0.23282369 0.75624448 0
0.23404807 0.66516191 0
0.23608156 0.47513368 0
0.241469 0.57309713 0
1 0.15067933 0
0.34533738 0.29212501 0
0.30625911 0.33999881 0
0.26289318 0.44654187 0
0.28208802 0.38953421 0
0.47195636 0.22220435 0
0.4229925 0.2477346 0
0.57391852 0.19990703 0
0.50912897 0.21890638 0
0.8498107 0.16357305 0
0.76181597 0.17289809 0
0.93291804 0.15795453 0
0.30541776 0.90297628 0
0.4258458 1 0
0.69367405 0.18330374 0
0.6313517 0.19233689 0
0.37661658 0.28210063 0
1 1 0
0.68801511 1 0
0.83697158 0.16973186 0
0.38057245 0.86238638 0
0.32207185 0.81158557 0
0.29054753 0.74692166 0
0.2802714 0.67501698 0
0.26650961 0.52939547 0
0.27980528 0.61091065 0
1 0.15731559 0
0.34177453 0.31972812 0
0.30979934 0.36659559 0
0.28931363 0.42229999 0
0.27752094 0.47839422 0
0.45732621 0.24138263 0
0.41090697 0.26897591 0
0.53411132 0.21900079 0
0.58436725 0.20570543 0
0.48474333 0.23890697 0
0.91886448 0.16528958 0
0.77232713 0.17892029 0
0.49368623 0.92497067 0
0.72264685 0.18778525 0
0.67013583 0.19294595 0
0.62839792 0.20013424 0
0.37537847 0.29932382 0
0.74940534 0.9336524 0
1 0.93080052 0
0.85484908 0.17407857 0
0.32331675 0.73511363 0
0.45387596 0.84603892 0
0.5592254 0.88442759 0
0.35717771 0.78684881 0
0.40320026 0.81796539 0
0.31790842 0.68099797 0
0.29920045 0.60254446 0
0.29093932 0.54093602 0
1 0.16544243 0
0.33164468 0.34960419 0
0.35606256 0.32733824 0
0.31132979 0.39551849 0
0.29206304 0.48200765 0
0.30124503 0.43701803 0
0.43927644 0.26311303 0
0.40892654 0.2847123 0
0.5565648 0.21996297 0
0.51139575 0.23810882 0
0.60329834 0.21153175 0
0.46782226 0.25730959 0
0.92983931 0.17213899 0
0.79433285 0.18447076 0
0.69234163 0.19808195 0
0.73886252 0.19309359 0
0.65015706 0.20520258 0
0.38406689 0.30880554 0
0.7541051 0.88960124 0
1 0.89238861 0
0.87040996 0.17854772 0
0.36223209 0.75008244 0
0.30352411 0.48009676 0
0.34961106 0.70863215 0
0.58055925 0.85543996 0
0.47575977 0.82698694 0
0.41547289 0.79204662 0
0.32719309 0.65000129 0
0.31296287 0.58734965 0
0.30562201 0.5327277 0
1 0.17286381 0
0.34394707 0.3574328 0
0.32732759 0.38207553 0
0.36612364 0.33946207 0
0.31669834 0.42238703 0
0.31202707 0.45576333 0
0.44179527 0.2791699 0
0.41446199 0.29729787 0
0.58215514 0.22238201 0
0.54799315 0.23125519 0
0.5188358 0.2456834 0
0.48156242 0.2626834 0
0.62470892 0.21835908 0
0.9249803 0.17950177 0
0.85075468 0.18526075 0
0.78691761 0.19290653 0
0.67607889 0.20905054 0
0.72484173 0.20125963 0
0.39214078 0.31793001 0
0.75181168 0.86565778 0
1 0.87106763 0
0.39106207 0.75227984 0
0.31399897 0.50091204 0
0.36198393 0.70097068 0
0.78966189 0.85396789 0
0.33024126 0.62520047 0
0.64708687 0.84504742 0
0.54603584 0.83264309 0
0.48383909 0.81020686 0
0.44002698 0.78173473 0
0.35188617 0.66608677 0
0.32849834 0.59223611 0
0.31968173 0.55200412 0
1 0.17906345 0
0.33415835 0.39829248 0
0.35025653 0.3742471 0
0.36515819 0.36103913 0
0.38637071 0.34018191 0
0.32651943 0.43526641 0
0.32143512 0.47308331 0
0.43725259 0.29890566 0
0.46874032 0.2807467 0
0.41391611 0.31589072 0
0.58030651 0.23132768 0
0.55030717 0.24030099 0
0.51364049 0.25885173 0
0.65128897 0.22261932 0
0.60351786 0.23211865 0
0.88754887 0.1883254 0
0.78429236 0.20017285 0
0.71079507 0.21124251 0
1 0.85921545 0
0.4023453 0.74453551 0
0.32603878 0.5199707 0
0.38251339 0.70968362 0
0.79923729 0.84618594 0
0.35649297 0.65208051 0
0.34202491 0.62046028 0
0.60770733 0.83127175 0
0.69265053 0.83837795 0
0.55389938 0.81853378 0
0.50295761 0.80006648 0
0.46866415 0.78145695 0
0.43582693 0.7624488 0
0.38472389 0.69421227 0
0.34448195 0.60022112 0
0.33556778 0.56836624 0
1 0.1853663 0
0.34524725 0.40791353 0
0.3618003 0.38892725 0
0.37912649 0.36872285 0
0.40487445 0.34076115 0
0.33209374 0.45877998 0
0.34040343 0.43692187 0
0.3341239 0.49406222 0
0.42959877 0.32058466 0
0.46128174 0.29750349 0
0.50778944 0.27215469 0
0.5574813 0.24772858 0
0.59736056 0.24233344 0
0.66957781 0.22856198 0
0.8698267 0.19702681 0
0.75907781 0.21134537 0
1 0.85213588 0
0.40947841 0.73290883 0
0.3403021 0.5383754 0
0.8215482 0.84159485 0
0.37626842 0.66753308 0
0.35961918 0.63318079 0
0.3946723 0.366961 0
0.61486302 0.82096593 0
0.66201395 0.82996086 0
0.73116451 0.83489571 0
0.56315652 0.80649655 0
0.51259197 0.78979692 0
0.45921863 0.76400222 0
0.48449928 0.77570933 0
0.43458391 0.74520157 0
0.4016604 0.69835734 0
0.41313698 0.72118365 0
0.35428993 0.58281203 0
0.35869535 0.61167836 0
1 0.19276047 0
0.35674357 0.4228347 0
0.37245159 0.40184617 0
0.41694783 0.35287265 0
0.35032628 0.45142026 0
0.3437179 0.4752296 0
0.34930744 0.51024241 0
0.4479006 0.31941143 0
0.48993756 0.29476593 0
0.54506915 0.26432413 0
0.59465004 0.25330461 0
0.65740347 0.24218297 0
0.74321289 0.22341023 0
0.85128018 0.20721638 0
1 0.84774163 0
0.35237366 0.55260154 0
0.84386268 0.83861413 0
0.38592128 0.66447541 0
0.37594054 0.63550248 0
0.38668148 0.39631188 0
0.66926836 0.8233343 0
0.62674569 0.81324744 0
0.71384388 0.82832947 0
0.76703077 0.83247753 0
0.54831406 0.79165432 0
0.58558037 0.8019315 0
0.51588167 0.77942476 0
0.4554695 0.74698155 0
0.47763593 0.76088283 0
0.50089381 0.76843064 0
0.43442776 0.72885791 0
0.4106539 0.69156579 0
0.4234571 0.71159651 0
0.36190842 0.55561113 0
0.37129974 0.60964504 0
0.37025498 0.58720501 0
1 0.20136547 0
0.36818349 0.44020381 0
0.44956751 0.33733755 0
0.41894425 0.37474312 0
0.39191117 0.40915318 0
0.35676209 0.47550538 0
0.36237847 0.51618126 0
0.48770776 0.30787055 0
0.53223769 0.28473364 0
0.58057027 0.27106089 0
0.64112905 0.26038243 0
[...]
CELL_DATA 1184
Scalars  Label int 1
LOOKUP_TABLE FreeFempp_table
0
0
0
0
0
0
0
0
0
0
0
0
0
0
0
0
0
0
0
0
0
0
0
0
0
0
0
0
0
0
0
0
0
0
0
0
0
0
0
0
0
0
0
0
0
0
0
0
0
0
0
0
0
0
0
0
0
0
0
0
0
0
0
0
0
0
0
0
0
0
0
0
0
0
0
0
0
0
0
0
0
0
0
0
0
0
0
0
0
0
0
0
0
0
0
0
0
0
0
0
0
0
0
0
0
0
0
0
0
0
0
0
0
0
0
0
0
0
0
0
0
0
0
0
0
0
0
0
0
0
0
0
0
0
0
0
0
0
0
0
0
0
0
0
0
0
0
0
0
0
0
0
0
0
0
0
0
0
0
0
0
0
0
0
0
0
0
0
0
0
0
0
0
0
0
0
0
0
0
0
0
0
0
0
0
0
0
0
0
0
0
0
0
0
0
0
0
0
0
0
0
0
0
0
0
0
0
0
0
0
0
0
0
0
0
0
0
0
0
0
0
0
0
0
0
0
0
0
0
0
0
0
0
0
0
0
0
0
0
0
0
0
0
0
0
0
0
0
0
0
0
0
0
0
0
0
0
0
0
0
0
0
0
0
0
0
0
0
0
0
0
0
0
0
0
0
0
0
0
0
0
0
0
0
0
0
0
0
0
0
0
0
0
0
0
0
0
0
0
0
0
0
0
0
0
0
0
0
0
0
0
0
0
0
0
0
0
0
0
0
0
0
0
0
0
0
0
0
0
0
0
0
0
0
0
0
0
0
0
0
0
0
0
0
0
0
0
0
0
0
0
0
0
0
0
0
0
0
0
0
0
0
0
0
0
0
0
0
0
0
0
0
0
0
0
0
0
0
0
0
0
0
0
0
0
0
0
0
0
0
0
0
0
0
0
0
0
0
0
0
0
0
0
0
0
0
0
0
0
0
0
0
0
0
0
0
0
0
0
0
0
0
0
0
0
0
0
0
0
0
0
0
0
0
0
0
0
0
0
0
0
0
0
0
0
0
0
0
0
0
0
0
0
0
0
0
0
0
0
0
0
0
0
0
0
0
0
0
0
0
0
0
0
0
0
0
0
0
0
0
0
0
0
0
0
0
0
0
0
0
0
0
0
0
0
0
0
0
0
0
0
0
0
0
0
0
0
0
0
0
0
0
0
0
0
0
0
0
0
0
0
0
0
0
0
0
0
0
0
0
0
0
0
0
0
0
0
0
0
0
0
0
0
0
0
0
0
0
0
0
0
0
0
0
0
0
0
0
0
0
0
0
0
0
0
0
0
0
0
0
0
0
0
0
0
0
0
0
0
0
0
0
0
0
0
0
0
0
0
0
0
0
0
0
0
0
0
0
0
0
0
0
0
0
0
0
0
0
0
0
0
0
0
0
0
0
0
0
0
0
0
0
0
0
0
0
0
0
0
0
0
0
0
0
0
0
0
0
0
0
0
0
0
0
0
0
0
0
0
0
0
0
0
0
0
0
0
0
0
0
0
0
0
0
0
0
0
0
0
0
0
0
0
0
0
0
0
0
0
0
0
0
0
0
0
0
0
0
0
0
0
0
0
0
0
0
0
0
0
0
0
0
0
0
0
0
0
0
0
0
0
0
0
0
0
0
0
0
0
0
0
0
0
0
0
0
0
0
0
0
0
0
0
0
0
0
0
0
0
0
0
0
0
0
0
0
0
0
0
0
0
0
0
0
0
0
0
0
0
0
0
0
0
0
0
0
0
0
0
0
0
0
0
0
0
0
0
0
0
0
0
0
0
0
0
0
0
0
0
0
0
0
0
0
0
0
0
0
0
0
0
0
0
0
0
0
0
0
0
0
0
0
0
0
0
0
0
0
0
0
0
0
0
0
0
0
0
0
0
0
0
0
0
0
0
0
0
0
0
0
0
0
0
0
0
0
0
0
0
0
0
0
0
0
0
0
0
0
0
0
0
0
0
0
0
0
0
0
0
0
0
0
0
0
0
0
0
0
0
0
0
0
0
0
0
0
0
0
0
0
0
0
0
0
0
0
0
0
0
0
0
0
0
0
0
0
0
0
0
0
0
0
0
0
0
0
0
0
0
0
0
0
0
0
0
0
0
0
0
0
0
0
0
0
0
0
0
0
0
0
0
0
0
0
0
0
0
0
0
0
0
0
0
0
0
0
0
0
0
0
0
0
0
0
0
0
0
0
0
0
0
0
0
0
0
0
0
0
0
0
0
0
0
0
0
0
0
0
0
0
0
0
0
0
0
0
0
0
0
0
0
0
0
0
0
0
0
0
0
0
0
0
0
0
0
0
0
0
0
0
0
0
0
0
0
0
0
0
0
0
0
0
0
0
0
0
0
0
0
0
0
0
0
0
0
0
0
0
0
0
0
0
0
0
0
0
0
0
0
0
0
0
0
0
0
0
0
0
0
0
0
0
0
0
0
0
0
0
0
0
0
0
0
0
0
0
0
0
1
1
1
1
1
1
1
1
1
1
3
3
3
3
3
3
3
3
3
3
2
2
2
2
2
2
2
2
2
2
2
2
2
2
2
2
2
2
2
2
2
2
2
2
2
2
2
2
2
2
2
2
2
2
2
2
2
2
4
4
4
4
4
4
4
4
4
4
4
4
4
4
4
4
4
4
4
4
4
4
4
4
4
4
4
4
4
4
4
4
4
4
4
4
4
4

LOOKUP_TABLE FreeFempp_table 5
1.00000000 0.00000000 0.00000000 1.00000000
1.00000000 1.00000000 0.00000000 1.00000000
1.00000000 0.00000000 1.00000000 1.00000000
0.00000000 1.00000000 0.00000000 1.00000000
0.00000000 1.00000000 1.00000000 1.00000000

POINT_DATA 593
FIELD FieldData 1
Density 1 593 float
9.90001023e-01 9.90001023e-01 9.90001023e-01 9.89918113e-01 9.88162458e-01 9.89959478e-01 9.90001023e-01 9.89688337e-01 9.90001023e-01 9.90001023e-01 9.90001023e-01 9.89982665e-01 9.89143372e-01 9.47063029e-01 9.54914927e-01 9.88528252e-01 9.89996195e-01 9.89079416e-01 9.81321275e-01 4.55585599e-01 9.83397424e-01 9.63281512e-01 7.47709155e-01 9.01680470e-01 9.89114463e-01 9.18455362e-01 9.39538777e-01 8.76995623e-01 7.68388450e-01 9.89649355e-01 9.34764087e-01 9.82386529e-01 9.58416760e-01 1.83375329e-01 4.31600720e-01 1.16141001e-02 5.94231486e-02 9.85245764e-01 2.15754434e-02 1.01396162e-02 1.00990729e-02 9.58868861e-01 5.56052983e-01 6.77916288e-01 8.24955344e-01 5.42469800e-01 8.27251613e-01 8.04782569e-01 8.92948627e-01 1.37905493e-01 1.86977118e-01 9.69563842e-01 4.43444811e-02 1.42745301e-02 1.00989901e-02 6.40923381e-01 3.19931172e-02 8.42331409e-01 6.40761927e-02 9.30090487e-01 1.47488847e-01 1.00989901e-02 3.28235686e-01 3.84114027e-01 5.96887290e-01 6.01927280e-01 2.74999380e-01 1.82647690e-01 2.65609235e-01 4.30751592e-01 5.50882101e-01 5.19853294e-01 7.23470151e-02 2.00794190e-02 1.03996797e-02 1.32561296e-01 1.66596565e-02 1.00989901e-02 1.11234099e-01 1.04027502e-02 3.75178978e-02 4.65534925e-02 1.95642337e-01 2.77406946e-02 1.39545247e-01 1.82399184e-01 1.09117618e-02 1.02094347e-02 3.50124612e-02 1.00989901e-02 1.74362492e-02 1.00989901e-02 1.06064724e-02 1.00989901e-02 1.05321687e-02 1.14661269e-02 1.90848336e-02 1.01215132e-02 3.66671197e-02 1.01115350e-02 1.33132115e-02 1.00989901e-02 1.01032238e-02 1.00989901e-02 1.01323975e-02 1.00989901e-02 1.00989901e-02 1.10031422e-02 1.01755504e-02 1.00989901e-02 1.29791852e-02 1.00989901e-02 1.00989901e-02 1.04898605e-02 1.00992378e-02 1.00989901e-02 1.00989901e-02 1.00989901e-02 1.00989901e-02 1.00989901e-02 1.00989901e-02 1.00989901e-02 1.00989901e-02 1.00989919e-02 1.02334358e-02 1.01015382e-02 1.00989901e-02 1.00989901e-02 1.00989901e-02 1.00989901e-02 1.00989901e-02 1.00989901e-02 1.00989901e-02 1.00989901e-02 1.00989910e-02 1.00989910e-02 1.00991288e-02 1.00993225e-02 1.01013966e-02 1.00989901e-02 1.00989901e-02 1.00989901e-02 1.00989901e-02 1.00989901e-02 1.00990729e-02 1.00989901e-02 1.00991046e-02 1.00989901e-02 1.01063186e-02 1.01454137e-02 1.01104360e-02 1.00989901e-02 1.00989901e-02 1.00989901e-02 1.00989901e-02 1.00989901e-02 1.00989901e-02 1.01396162e-02 1.00989901e-02 1.00989910e-02 1.01073254e-02 1.03324242e-02 1.08490363e-02 1.04008773e-02 1.35150729e-02 1.00989901e-02 1.00989901e-02 1.00989947e-02 1.00989901e-02 1.00989928e-02 1.00989901e-02 1.00989901e-02 1.16141001e-02 1.00989910e-02 1.00989901e-02 1.00999018e-02 1.01896338e-02 1.28233777e-02 1.92059167e-02 2.88606882e-02 1.00989901e-02 3.18132900e-02 1.00989901e-02 1.00989901e-02 1.00990925e-02 1.00989910e-02 1.00989919e-02 2.15754434e-02 1.00999484e-02 1.00989901e-02 1.00989901e-02 1.01389969e-02 1.09843398e-02 2.78331265e-02 1.65602248e-02 5.46822958e-02 7.18164667e-02 1.00989901e-02 1.00989901e-02 8.17700401e-02 6.87654838e-02 1.03712836e-02 1.00989901e-02 1.00989901e-02 1.00993887e-02 1.00991819e-02 1.01029743e-02 5.94231486e-02 1.00992629e-02 1.06526194e-02 1.00995256e-02 1.01225693e-02 1.15697468e-02 1.90140363e-02 3.93931940e-02 4.29690853e-02 1.59211412e-01 1.64556861e-01 1.66701719e-01 1.00989901e-02 1.00989901e-02 2.43514091e-01 1.46652967e-01 2.68156845e-02 1.00989901e-02 1.00989901e-02 2.72857755e-01 1.00989910e-02 1.00989901e-02 1.00996140e-02 1.01093147e-02 1.01494007e-02 1.02293799e-02 1.83375329e-01 1.77847464e-02 1.44401239e-02 1.01932194e-02 1.01711769e-02 5.22282198e-02 4.08274122e-02 1.17896959e-01 1.35259077e-01 9.79305655e-02 3.69091868e-01 3.42946410e-01 1.00989901e-02 5.47498703e-01 4.21577215e-01 2.91552365e-01 6.96043372e-02 1.00989901e-02 1.00989901e-02 5.22992671e-01 1.01035377e-02 1.00989928e-02 1.00989919e-02 1.01023968e-02 1.00991996e-02 1.03113474e-02 1.10947108e-02 1.22452602e-02 4.55585599e-01 3.32639366e-02 7.34278858e-02 2.25397591e-02 1.17433248e-02 2.29567140e-02 1.44704863e-01 1.76747739e-01 2.73983598e-01 2.61301726e-01 3.49495262e-01 2.91160434e-01 6.64309680e-01 6.45180523e-01 7.71681607e-01 7.92630970e-01 6.33852422e-01 1.76592559e-01 1.00991512e-02 1.00989901e-02 7.51623929e-01 1.01609686e-02 2.98096053e-02 1.05136475e-02 1.01182805e-02 1.01087717e-02 1.01169087e-02 1.74772274e-02 2.18766145e-02 3.06709111e-02 7.47709155e-01 1.07780106e-01 4.87372130e-02 1.87146813e-01 3.82936746e-02 7.97454268e-02 4.32820320e-01 3.86925787e-01 5.38748145e-01 5.40738404e-01 5.65769076e-01 5.15177667e-01 6.99446619e-01 8.60785365e-01 8.27719629e-01 8.87094080e-01 8.78999412e-01 9.03964102e-01 3.33330065e-01 1.01106055e-02 1.00989901e-02 1.06741507e-02 6.46003783e-02 1.63949206e-02 1.01470808e-02 4.83295955e-02 1.06723038e-02 1.01088323e-02 1.01487339e-02 1.05339661e-02 2.80581191e-02 1.06535934e-01 8.98313224e-02 9.01680470e-01 1.30427912e-01 2.70467490e-01 3.70680869e-01 4.74451363e-01 1.89431518e-01 1.83507517e-01 7.29261816e-01 7.38287687e-01 6.42265797e-01 8.32797170e-01 7.73847938e-01 8.07758987e-01 9.19239581e-01 8.89524579e-01 9.37508762e-01 9.49694335e-01 9.55704093e-01 1.04027502e-02 1.36194210e-02 1.77354157e-01 3.43705453e-02 1.20400842e-02 8.75868499e-02 1.42292172e-01 1.12072183e-02 2.03918330e-02 1.03461407e-02 1.14134746e-02 1.66706145e-02 1.64535847e-02 1.07482895e-01 2.69059241e-01 2.35775411e-01 9.63281512e-01 2.87818342e-01 5.43884277e-01 6.46781981e-01 7.44596004e-01 3.59112233e-01 4.20377910e-01 3.65471631e-01 8.78946245e-01 8.80071104e-01 9.00964320e-01 9.38720942e-01 9.72237527e-01 9.83612835e-01 9.77961659e-01 9.82605636e-01 1.66596565e-02 5.79738282e-02 3.87721926e-01 2.51942966e-02 1.25227287e-01 2.44420782e-01 8.21280122e-01 1.39150806e-02 2.23684516e-02 4.00102660e-02 2.11090278e-02 1.92981064e-02 4.25998494e-02 4.38905433e-02 6.54727593e-02 2.17340872e-01 1.26032859e-01 5.67814410e-01 4.73226488e-01 9.83397424e-01 6.56028032e-01 7.87357807e-01 9.05636907e-01 7.01990902e-01 6.15638256e-01 6.60724521e-01 9.32299376e-01 9.50271606e-01 9.76503372e-01 9.88679647e-01 9.89860058e-01 9.89569247e-01 9.88669991e-01 3.19931172e-02 6.36041343e-01 4.96511906e-02 3.22123468e-01 5.06123304e-01 8.68520021e-01 6.04721196e-02 3.86050604e-02 1.11799859e-01 9.69654024e-02 1.24113999e-01 8.44368413e-02 8.30430016e-02 1.25805154e-01 1.46128744e-01 2.50025809e-01 2.54081041e-01 4.63418573e-01 4.02557135e-01 8.30421627e-01 7.75799155e-01 8.52290213e-01 9.88528252e-01 8.71824145e-01 9.73852754e-01 9.64698195e-01 9.30347323e-01 8.58340621e-01 8.45265925e-01 9.77464378e-01 9.89176512e-01 9.89868104e-01 9.89998639e-01 9.89999533e-01 9.89961863e-01 6.40761927e-02 1.26619250e-01 6.20111227e-01 7.46471703e-01 2.10074723e-01 1.08434439e-01 1.18276641e-01 2.12151885e-01 3.16357672e-01 2.51264364e-01 1.83944479e-01 3.08433652e-01 3.70746762e-01 2.87535727e-01 4.19301957e-01 5.98793566e-01 6.39106154e-01 7.34086812e-01 9.20110822e-01 8.94629478e-01 9.55308139e-01 9.89688337e-01 9.30266857e-01 9.78560090e-01 9.87573087e-01 9.87347186e-01 9.70217884e-01 9.57013607e-01 9.89870131e-01 9.89999235e-01 9.90000963e-01 9.90000069e-01 1.47488847e-01 2.51521051e-01 8.13643932e-01 8.99750173e-01 5.49545884e-01 4.38852847e-01 3.46891165e-01 4.03433263e-01 4.37552869e-01 6.60578549e-01 4.73715127e-01 6.15631163e-01 6.45849288e-01 6.51465595e-01 7.55420625e-01 8.29974651e-01 8.75052989e-01 8.61649811e-01 9.85377729e-01 9.47743416e-01 9.83449399e-01 9.89959478e-01 9.84840035e-01 9.88744140e-01 9.89980400e-01 9.89866316e-01 9.89994645e-01 9.89987552e-01 9.90000963e-01 9.90001023e-01 9.90001023e-01 3.28235686e-01 5.05688965e-01 9.38499510e-01 7.73401439e-01 6.81236804e-01 6.66757822e-01 6.53992832e-01 7.40392864e-01 8.77639890e-01 7.85969913e-01 8.75896990e-01 8.48970115e-01 9.25043523e-01 9.51432705e-01 9.35769022e-01 9.71864402e-01 9.90000844e-01 9.89711106e-01 9.73201931e-01 9.84772027e-01 9.90001023e-01 9.89969373e-01 9.90001023e-01 9.90000844e-01 9.90000904e-01 9.90001023e-01 9.90001023e-01 6.40923381e-01 8.55517685e-01 9.06995893e-01 8.71513724e-01 8.80109906e-01 8.98999095e-01 8.42331409e-01 9.40509021e-01 9.46466684e-01 9.20412481e-01 9.49862123e-01 9.75616336e-01 9.77149010e-01 9.82181966e-01 9.86761034e-01 9.90001023e-01 9.90001023e-01 9.89837289e-01 9.90001023e-01 9.90001023e-01 9.90001023e-01 9.90001023e-01 9.90001023e-01 9.40454185e-01 9.61469769e-01 9.30090487e-01 9.72444117e-01 9.80797350e-01 9.88216519e-01 9.84926581e-01 9.89113867e-01 9.89591420e-01 9.90001023e-01 9.90001023e-01 9.90001023e-01 9.90001023e-01 9.90001023e-01 9.90001023e-01 9.90001023e-01 9.69563842e-01 9.87742066e-01 9.89444017e-01 9.89919245e-01 9.89971340e-01 9.90001023e-01 9.90001023e-01 9.90001023e-01 9.90001023e-01 9.90001023e-01 9.85245764e-01 9.89815295e-01 9.89962399e-01 9.90001023e-01 9.90001023e-01 9.90001023e-01 9.90001023e-01 9.89649355e-01 9.89996672e-01 9.90001023e-01 9.90001023e-01 9.89996195e-01 
