# vtk DataFile Version 2.0
sol_toll1e-05_vf0.3iter1.vtk, Created by Freefem++ 
ASCII
DATASET UNSTRUCTURED_GRID
POINTS 380 float
0.15737942 1 0
0.51605127 1 0
0.23545849 1 0
0.4241819 1 0
0.32635126 1 0
0.14570159 0.94944744 0
0.44441015 0.96074526 0
1 1 0
0.098768622 0.95130835 0
0 0.82435821 0
0 0.87508458 0
0 0.9236855 0
0 0.96506468 0
0.091214168 1 0
0 1 0
0 0.72784185 0
0 0.77586711 0
0 0.63269139 0
0 0.6796412 0
0 0.58090929 0
0.53913868 0.96403056 0
0.60378458 1 0
0.2249768 0.95978259 0
0.35747911 0.95488327 0
0.28743273 0.9418451 0
0.180532 0.91706539 0
0.12503725 0.88912657 0
0.49209069 0.92347113 0
0.40899338 0.9157463 0
0.69921536 1 0
0.82612943 1 0
1 0.96506468 0
0.85569739 0.97096325 0
0.066227562 0.97496262 0
0.10051555 0.82952231 0
0.082545525 0.88480731 0
0.065188411 0.91681517 0
0.010425067 0.83648307 0
0.012022855 0.90172994 0
0.015233308 0.95285347 0
0.047838715 1 0
0.02098668 1 0
0.018524579 0.81541598 0
0.010005826 0.75284006 0
0.0093915511 0.67343158 0
0.016437897 0.66156975 0
0 0.52966444 0
0.018079518 0.59195468 0
0.0090542584 0.58867007 0
0.5801811 0.92454548 0
0.6523024 0.95254723 0
0.2457899 0.89369626 0
0.33055061 0.89741636 0
0.15112896 0.80607369 0
0.18438356 0.85612054 0
0.24302883 0.83689348 0
0.48437788 0.87386595 0
0.55473549 0.8814271 0
0.36453872 0.84940491 0
0.41150946 0.86554198 0
1 0.9236855 0
0.75909036 0.94833228 0
0.87993822 0.93051998 0
0.10049615 0.76498467 0
0.050171447 0.91751917 0
0.069078506 0.799215 0
0.022410153 0.88611095 0
0.027395815 0.93522071 0
0.035447902 0.9550977 0
0.027102062 0.83106596 0
0.020832761 0.74754286 0
0.025007325 0.6690728 0
0.023696063 0.54879293 0
0 0.47443933 0
0.01232998 0.51590644 0
0.19370139 0.75041542 0
0.14429146 0.73354989 0
0.11923811 0.68813887 0
0.6392921 0.86277661 0
0.74836117 0.8966246 0
0.667604 0.89812167 0
0.31599662 0.83760767 0
0.23476194 0.78175881 0
0.29598318 0.78947192 0
0.49848681 0.8227895 0
0.58916717 0.82727534 0
0.42635502 0.80219506 0
1 0.87508458 0
0.86543561 0.88724676 0
0.088107274 0.68147837 0
0.066365326 0.68193156 0
0.041212413 0.87902397 0
0.051600032 0.76903056 0
0.033103843 0.85902919 0
0.029764048 0.75315185 0
0.030086689 0.63434037 0
0.02913826 0.50966669 0
0.022213586 0.45754669 0
0 0.42405943 0
0 0.37670241 0
0.011803799 0.44035865 0
0 0.33156954 0
0.27665682 0.7162053 0
0.2265871 0.69028255 0
0.13336085 0.60949645 0
0.18197903 0.66354166 0
0.17914205 0.61490837 0
0.8541517 0.84346865 0
0.7036431 0.80833913 0
0.75747713 0.83765644 0
0.37777439 0.77273695 0
0.34903047 0.73391923 0
0.36450721 0.68697924 0
0.5295423 0.77383741 0
0.60695594 0.77390272 0
0.66759741 0.7798299 0
0.53980292 0.7361329 0
0.46679505 0.74109093 0
1 0.82435821 0
0 0.23860212 0
0 0.28567125 0
0.09234579 0.59902913 0
0.063948016 0.59860033 0
0.040247334 0.77486362 0
0.047351337 0.63376892 0
0.034613744 0.72175075 0
0.032784633 0.54809581 0
0.029186671 0.40126162 0
0.022185728 0.36830302 0
0.011128014 0.36516218 0
0.011462679 0.2823544 0
0.14100068 0.55062853 0
0.33358983 0.65112824 0
0.27769586 0.63264362 0
0.21590408 0.54818028 0
0.26359373 0.59321994 0
0.86241015 0.79242257 0
0.93269514 0.80404127 0
0.72568274 0.75202283 0
0.7875306 0.7776032 0
0.85556744 0.74698861 0
0.46496011 0.70281769 0
0.45643855 0.6686312 0
0.41836294 0.63063745 0
0.64505565 0.73051837 0
0.62609735 0.69254674 0
0.56105301 0.68606829 0
0.73361689 0.71171047 0
1 0.77586711 0
0 0.13940937 0
0 0.19121026 0
0.0096874518 0.21311569 0
0.1033218 0.52833628 0
0.069389381 0.49815274 0
0.05245817 0.5227414 0
0.039570074 0.61652646 0
0.043837366 0.48612332 0
0.035754359 0.55162526 0
0.03326506 0.3734368 0
0.028974708 0.28309826 0
0.021517607 0.27708691 0
0.019516803 0.19192655 0
0.17106052 0.49844721 0
0.25404043 0.4883248 0
0.36732927 0.5895279 0
0.31657094 0.54190068 0
0.92515194 0.74616149 0
0.79663076 0.72112185 0
0.86450865 0.70253532 0
0.55986914 0.64433282 0
0.49710038 0.61823897 0
0.4471046 0.57459948 0
0.69072626 0.68000192 0
0.62891257 0.60039532 0
0.64245323 0.64488519 0
0.75606314 0.67346359 0
1 0.72784185 0
0 0.086074393 0
0.011479141 0.13433084 0
0.12954968 0.45795563 0
0.095184918 0.47070654 0
0.07310358 0.42110107 0
0.054785865 0.41668768 0
0.043168489 0.35008914 0
0.037531398 0.3897571 0
0.033729711 0.23732144 0
0.027745623 0.19301565 0
0.022524342 0.12952446 0
0.18578672 0.44325554 0
0.12831318 0.39454685 0
0.26117034 0.43187751 0
0.33580032 0.49305904 0
0.33555975 0.44874133 0
0.40725601 0.52298023 0
0.93263571 0.69268061 0
0.81422454 0.66901074 0
0.87307974 0.66057991 0
0.51509702 0.56971885 0
0.59965146 0.56629927 0
0.5631862 0.59562067 0
0.4900338 0.5263139 0
0.63252933 0.53966157 0
0.67355904 0.56273427 0
0.71576779 0.63584299 0
0.69286172 0.5986312 0
0.78043795 0.63002379 0
1 0.6796412 0
0 0.036991144 0
0.013690933 0.077003586 0
0.098358424 0.39587871 0
0.05086339 0.31090597 0
0.069566151 0.35152506 0
0.039403868 0.22318633 0
0.031514353 0.14448709 0
0.02541203 0.089987055 0
0.17310669 0.3813347 0
0.21659846 0.36397539 0
0.11601812 0.33529895 0
0.31049717 0.39942766 0
0.39270643 0.45927632 0
0.45617877 0.46593032 0
0.92736099 0.63786545 0
0.8470654 0.61843675 0
0.52866907 0.4898608 0
0.56655617 0.52856923 0
0.61623394 0.49529565 0
0.67299073 0.51042313 0
0.72160033 0.54481254 0
0.74718125 0.58651856 0
0.79734964 0.58456449 0
1 0.63269139 0
0 0 0
0.016955146 0.037436663 0
0.046819126 0.19393469 0
0.081725316 0.29964807 0
0.059612614 0.25528283 0
0.037962938 0.11535344 0
0.029795516 0.057538272 0
0.15456554 0.30924753 0
0.18452768 0.28286583 0
0.24703632 0.33067992 0
0.10361059 0.26092552 0
0.36949019 0.38872732 0
0.51298161 0.44174602 0
0.4518373 0.40547553 0
0.88731195 0.58581209 0
0.94152198 0.58481485 0
0.8346216 0.55773417 0
0.57117577 0.45569045 0
0.63744545 0.45565036 0
0.70746194 0.48734325 0
0.77347974 0.52877822 0
1 0.58090929 0
0.02098668 0 0
0.29321665 0.31439433 0
0.25270196 0.26035937 0
0.052610375 0.12829636 0
0.072787431 0.19784132 0
0.042031306 0.051181924 0
0.13998842 0.23505683 0
0.20470681 0.2442224 0
0.099241774 0.17720996 0
0.38587526 0.33642593 0
0.50133182 0.38026471 0
0.43318901 0.32380308 0
0.88505279 0.53436576 0
0.94846924 0.53612996 0
0.7843546 0.48518285 0
0.82931627 0.50243244 0
0.59257194 0.4047894 0
0.54380483 0.35317648 0
0.67238753 0.4280239 0
0.73967773 0.4614188 0
1 0.52966444 0
0.90825082 0.50290229 0
0.047838715 0 0
0.54408168 0.31114969 0
0.30976372 0.26573427 0
0.25102407 0.21227607 0
0.20245545 0.18286326 0
0.065945595 0.04146678 0
0.070275492 0.10091007 0
0.14736731 0.17197858 0
0.10389466 0.11554114 0
0.36845457 0.26232116 0
0.46521885 0.25659331 0
0.46154806 0.29616141 0
0.86837879 0.46745498 0
0.93876198 0.47581626 0
0.79193794 0.44188307 0
0.61338492 0.3232545 0
0.62822272 0.36788534 0
0.71330787 0.40315658 0
1 0.47443933 0
0.83276067 0.42035208 0
0.091214168 0 0
0.54618588 0.27008412 0
0.30199299 0.19886127 0
0.18260759 0.13456993 0
0.23879823 0.15324737 0
0.108173 0.05495007 0
0.14654179 0.09957223 0
0.32490721 0.16345163 0
0.46310062 0.22039506 0
0.38737768 0.21182207 0
0.94492415 0.43435014 0
0.88824862 0.41181251 0
0.63380893 0.29929961 0
0.7656919 0.38571351 0
0.69200748 0.34685659 0
1 0.42405943 0
0.82177607 0.37309187 0
0.15737942 0 0
0.56022735 0.24209137 0
0.27046784 0.12889655 0
0.30709687 0.11003394 0
0.21111504 0.092627724 0
0.17240991 0.046410543 0
0.36410554 0.14314497 0
0.44813222 0.18342514 0
0.93815318 0.387123 0
0.8768147 0.35109012 0
0.65733157 0.27635249 0
0.7439439 0.32584302 0
1 0.37670241 0
0.80654363 0.32781346 0
0.23545849 0 0
0.55203141 0.20478146 0
0.26720899 0.073054129 0
0.33225037 0.080947832 0
0.24332306 0.03828564 0
0.39724349 0.12001031 0
0.46933582 0.15403291 0
0.93390901 0.34051719 0
0.84792221 0.30318094 0
0.70330012 0.26554948 0
0.61995688 0.21094057 0
0.77264519 0.27634567 0
1 0.33156954 0
0.32635126 0 0
0.51853196 0.14287413 0
0.38171311 0.070227413 0
0.33512246 0.036497447 0
0.43799247 0.099340698 0
0.92088161 0.29659467 0
0.84575632 0.26034326 0
0.69903572 0.21722664 0
0.60552619 0.16295921 0
0.76795374 0.2206839 0
1 0.28567125 0
0.4241819 0 0
0.47493568 0.082041691 0
0.54324107 0.10773161 0
0.43472578 0.041819767 0
0.92219931 0.24915762 0
0.84265317 0.21271156 0
0.6601027 0.1516455 0
0.75137879 0.16616152 0
1 0.23860212 0
0.51605127 0 0
0.58567148 0.086667962 0
0.51822515 0.052136033 0
0.91896876 0.19734459 0
0.84056786 0.16801053 0
0.66595208 0.099579644 0
0.75990469 0.12179632 0
1 0.19121026 0
0.60378458 0 0
0.61262963 0.041606903 0
0.87042807 0.13023512 0
0.73207138 0.073860773 0
1 0.13940937 0
0.69921536 0 0
0.72795713 0.033693943 0
0.86438559 0.071184718 0
1 0.086074393 0
0.82612943 0 0
0.85694787 0.027469976 0
1 0.036991144 0
1 0 0

CELLS 758 2966
3 232 231 253
3 207 231 232
3 207 208 177
3 149 177 178
3 130 161 160
3 129 130 160
3 120 119 151
3 149 178 150
3 233 256 235
3 210 233 235
3 236 256 233
3 212 236 233
3 184 212 183
3 185 213 212
3 187 213 186
3 187 214 213
3 178 187 161
3 178 208 187
3 237 258 236
3 232 237 214
3 232 253 237
3 214 236 213
3 214 237 236
3 208 207 232
3 214 208 232
3 214 187 208
3 253 275 258
3 258 275 280
3 281 256 258
3 237 253 258
3 150 178 151
3 151 161 130
3 150 151 119
3 178 161 151
3 300 280 295
3 301 300 317
3 298 301 316
3 299 298 316
3 279 282 298
3 282 283 301
3 208 178 177
3 186 160 161
3 187 186 161
3 213 185 186
3 186 185 159
3 317 300 312
3 326 317 312
3 330 328 316
3 160 128 129
3 297 314 302
3 277 297 284
3 277 278 297
3 326 330 317
3 326 339 330
3 342 339 350
3 361 353 359
3 368 361 359
3 352 340 351
3 329 342 341
3 331 329 341
3 328 342 329
3 330 339 342
3 347 340 352
3 322 327 336
3 313 319 327
3 328 330 342
3 315 328 329
3 319 304 318
3 299 316 314
3 316 317 330
3 314 316 328
3 298 282 301
3 259 282 260
3 300 295 312
3 316 301 317
3 260 282 279
3 259 261 282
3 280 275 295
3 281 280 300
3 283 281 300
3 301 283 300
3 261 281 283
3 281 258 280
3 256 236 258
3 352 361 360
3 361 368 360
3 368 359 367
3 372 368 367
3 315 318 302
3 328 315 314
3 329 318 315
3 350 353 342
3 331 318 329
3 343 331 341
3 343 340 332
3 351 361 352
3 353 351 343
3 353 361 351
3 342 353 341
3 350 359 353
3 332 327 319
3 331 332 319
3 340 327 332
3 351 340 343
3 341 353 343
3 360 356 352
3 364 360 368
3 370 364 368
3 365 357 364
3 347 336 340
3 356 347 352
3 356 348 346
3 346 348 337
3 336 346 335
3 336 347 346
3 364 356 360
3 364 357 356
3 370 365 364
3 373 370 368
3 373 374 370
3 369 363 365
3 363 355 357
3 327 322 313
3 336 335 322
3 340 336 327
3 347 356 346
3 325 321 311
3 337 348 345
3 334 337 345
3 294 287 289
3 308 294 289
3 311 306 294
3 333 320 321
3 305 293 288
3 190 215 216
3 219 192 218
3 163 188 190
3 212 233 210
3 277 284 262
3 255 277 254
3 260 255 254
3 260 278 255
3 278 279 299
3 255 278 277
3 260 279 278
3 240 260 254
3 257 241 234
3 235 257 234
3 257 281 261
3 239 260 240
3 257 261 241
3 261 283 282
3 241 261 259
3 257 256 281
3 299 314 297
3 278 299 297
3 279 298 299
3 320 324 310
3 305 320 310
3 293 305 310
3 288 306 305
3 306 321 320
3 311 321 306
3 287 294 306
3 325 334 321
3 323 325 311
3 323 335 337
3 272 271 292
3 322 335 323
3 333 338 324
3 321 334 333
3 344 354 349
3 333 334 344
3 345 354 344
3 355 345 348
3 333 324 320
3 344 338 333
3 376 373 372
3 362 355 363
3 369 362 363
3 366 358 362
3 355 348 357
3 358 354 362
3 354 355 362
3 338 344 349
3 345 355 354
3 348 356 357
3 358 349 354
3 377 379 378
3 375 374 378
3 377 376 379
3 374 373 377
3 371 374 375
3 371 369 374
3 373 376 377
3 369 371 366
3 357 365 363
3 370 374 369
3 374 377 378
3 365 370 369
3 368 372 373
3 369 366 362
3 7 30 32
3 61 30 29
3 31 32 62
3 31 7 32
3 61 29 50
3 62 60 31
3 62 87 60
3 21 50 29
3 88 87 62
3 109 78 108
3 88 79 107
3 118 88 107
3 62 61 88
3 50 49 80
3 88 61 79
3 21 1 20
3 20 50 21
3 57 49 27
3 80 79 50
3 78 80 49
3 78 109 80
3 88 118 87
3 61 50 79
3 32 61 62
3 32 30 61
3 194 168 196
3 109 108 139
3 172 144 145
3 139 108 138
3 147 167 138
3 136 109 139
3 115 85 114
3 108 115 138
3 108 85 115
3 6 20 1
3 28 52 59
3 4 23 3
3 4 22 24
3 57 85 78
3 49 57 78
3 56 85 57
3 84 114 85
3 86 113 84
3 59 58 86
3 110 111 141
3 81 110 86
3 83 111 110
3 141 142 169
3 117 141 146
3 117 110 141
3 20 49 50
3 3 6 1
3 27 49 20
3 56 57 27
3 109 107 79
3 80 109 79
3 136 139 140
3 22 4 2
3 104 131 134
3 121 152 131
3 90 121 89
3 122 152 121
3 153 180 152
3 182 183 210
3 179 152 180
3 146 141 169
3 146 116 117
3 174 146 169
3 145 116 146
3 113 86 116
3 82 111 83
3 112 142 111
3 102 112 111
3 102 132 112
3 133 132 103
3 105 133 103
3 135 164 133
3 165 191 193
3 135 165 164
3 135 134 165
3 105 135 133
3 191 163 190
3 179 188 162
3 192 219 191
3 190 192 191
3 190 218 192
3 144 138 115
3 172 145 174
3 175 172 203
3 175 147 172
3 205 229 222
3 204 228 203
3 251 247 229
3 202 226 227
3 267 289 268
3 246 252 230
3 222 245 221
3 266 273 252
3 265 266 246
3 265 274 266
3 84 56 59
3 86 84 59
3 113 114 84
3 205 203 228
3 195 175 205
3 222 195 205
3 168 167 195
3 147 144 172
3 167 147 175
3 140 167 168
3 140 139 167
3 138 144 147
3 85 56 84
3 144 115 114
3 108 78 85
3 136 107 109
3 166 136 140
3 137 118 107
3 166 137 136
3 148 118 137
3 136 137 107
3 56 27 28
3 23 28 6
3 166 176 148
3 137 166 148
3 140 168 166
3 138 167 139
3 113 144 114
3 227 204 202
3 195 167 175
3 174 169 173
3 172 174 203
3 145 146 174
3 113 116 144
3 224 197 200
3 202 173 201
3 169 142 170
3 141 111 142
3 86 117 116
3 86 110 117
3 58 52 81
3 86 58 81
3 59 52 58
3 82 102 111
3 134 131 162
3 134 163 165
3 165 163 191
3 171 200 197
3 219 193 191
3 219 220 193
3 104 89 121
3 131 104 121
3 106 77 104
3 135 106 134
3 105 76 77
3 135 105 106
3 103 76 105
3 288 287 306
3 273 288 293
3 274 287 288
3 266 274 288
3 265 287 274
3 230 221 246
3 267 251 272
3 289 267 272
3 268 251 267
3 265 268 287
3 247 251 268
3 166 194 176
3 39 14 12
3 11 39 12
3 38 10 37
3 42 66 37
3 39 11 38
3 37 10 9
3 16 15 43
3 152 122 153
3 63 65 89
3 90 122 121
3 65 90 89
3 92 122 90
3 94 93 69
3 8 33 36
3 40 41 68
3 37 9 16
3 43 37 16
3 70 42 43
3 71 70 45
3 69 42 70
3 69 66 42
3 92 64 91
3 91 64 68
3 93 91 68
3 123 92 91
3 38 11 10
3 37 66 38
3 41 14 39
3 65 92 90
3 77 63 89
3 36 64 65
3 33 64 36
3 67 41 39
3 67 93 68
3 38 66 39
3 69 93 66
3 64 40 68
3 43 44 70
3 44 45 70
3 18 44 43
3 17 19 44
3 48 44 19
3 48 45 44
3 46 48 19
3 47 45 48
3 96 95 72
3 94 69 70
3 43 15 18
3 17 44 18
3 42 37 43
3 48 46 74
3 64 92 65
3 93 125 123
3 67 66 93
3 41 67 68
3 39 66 67
3 94 125 93
3 125 155 123
3 91 93 123
3 94 95 125
3 70 71 94
3 123 124 92
3 95 96 126
3 71 95 94
3 71 72 95
3 157 126 158
3 74 46 73
3 47 74 72
3 71 47 72
3 71 45 47
3 74 47 48
3 73 98 100
3 129 98 99
3 98 129 100
3 154 153 122
3 156 154 124
3 184 156 155
3 184 183 156
3 156 183 182
3 155 124 123
3 8 0 13
3 63 76 53
3 102 82 75
3 132 102 103
3 132 143 112
3 55 51 54
3 82 55 54
3 81 52 51
3 83 81 55
3 83 110 81
3 33 13 40
3 64 33 40
3 8 13 33
3 35 8 36
3 5 25 22
3 26 5 8
3 26 25 5
3 25 54 51
3 35 26 8
3 34 53 26
3 65 63 34
3 54 53 82
3 35 65 34
3 26 35 34
3 36 65 35
3 75 103 102
3 53 75 82
3 76 103 75
3 77 76 63
3 77 106 105
3 104 77 89
3 53 76 75
3 26 53 54
3 34 63 53
3 5 22 2
3 8 5 0
3 26 54 25
3 23 24 52
3 0 5 2
3 28 59 56
3 6 28 27
3 20 6 27
3 3 23 6
3 23 52 28
3 24 51 52
3 4 24 23
3 22 51 24
3 51 55 81
3 25 51 22
3 55 82 83
3 194 206 176
3 168 194 166
3 221 230 206
3 196 221 194
3 196 222 221
3 206 194 221
3 265 247 268
3 245 222 247
3 246 245 265
3 246 221 245
3 205 175 203
3 229 205 228
3 251 229 228
3 222 196 195
3 247 222 229
3 247 265 245
3 196 168 195
3 242 254 262
3 243 220 244
3 218 240 242
3 219 218 242
3 220 219 242
3 244 220 242
3 262 244 242
3 224 248 225
3 220 223 200
3 243 248 223
3 263 243 244
3 263 248 243
3 243 223 220
3 171 197 170
3 193 171 164
3 193 200 171
3 143 142 112
3 164 143 132
3 164 171 143
3 223 224 200
3 170 142 143
3 171 170 143
3 199 169 170
3 173 169 199
3 204 173 202
3 204 203 174
3 145 144 116
3 164 132 133
3 193 164 165
3 197 199 170
3 179 162 152
3 181 209 180
3 209 189 179
3 153 181 180
3 234 217 209
3 256 257 235
3 217 189 209
3 241 217 234
3 241 238 217
3 134 162 163
3 106 104 134
3 96 72 97
3 126 96 127
3 126 125 95
3 124 155 156
3 122 124 154
3 122 92 124
3 157 155 125
3 126 157 125
3 184 155 157
3 304 284 297
3 302 304 297
3 315 302 314
3 318 304 302
3 285 286 304
3 319 303 304
3 307 296 313
3 290 276 296
3 286 263 264
3 296 276 285
3 276 291 270
3 220 200 193
3 201 226 202
3 173 204 174
3 264 284 286
3 262 264 263
3 262 284 264
3 244 262 263
3 254 277 262
3 182 153 154
3 156 182 154
3 211 210 235
3 212 213 236
3 184 185 212
3 184 158 185
3 211 234 209
3 182 210 211
3 235 234 211
3 188 163 162
3 189 188 179
3 215 190 188
3 189 215 188
3 180 209 179
3 217 238 215
3 216 240 218
3 238 216 215
3 238 240 216
3 189 217 215
3 241 259 238
3 131 152 162
3 97 72 74
3 127 97 128
3 127 96 97
3 160 186 159
3 184 157 158
3 344 334 345
3 337 325 323
3 346 337 335
3 334 325 337
3 311 294 308
3 273 266 288
3 266 252 246
3 304 286 284
3 270 291 269
3 285 276 286
3 290 291 276
3 322 307 313
3 322 323 309
3 269 249 248
3 270 269 263
3 286 270 263
3 286 276 270
3 291 271 269
3 292 271 291
3 308 292 309
3 308 289 292
3 287 268 289
3 227 251 228
3 198 201 173
3 269 271 249
3 224 223 248
3 198 224 201
3 199 198 173
3 199 224 198
3 199 197 224
3 249 250 226
3 250 272 251
3 227 250 251
3 204 227 228
3 226 250 227
3 224 225 201
3 249 271 250
3 225 249 226
3 201 225 226
3 248 249 225
3 248 263 269
3 271 272 250
3 159 185 158
3 212 210 183
3 181 211 209
3 182 181 153
3 211 181 182
3 127 159 158
3 126 127 158
3 128 159 127
3 100 129 128
3 74 100 97
3 74 73 100
3 130 101 120
3 97 100 128
3 99 101 129
3 130 129 101
3 120 151 130
3 159 128 160
3 343 332 331
3 309 291 290
3 307 309 290
3 296 307 290
3 322 309 307
3 292 289 272
3 323 308 309
3 323 311 308
3 319 318 331
3 296 303 313
3 303 285 304
3 313 303 319
3 296 285 303
3 309 292 291
3 216 218 190
3 239 240 238
3 259 239 238
3 259 260 239
3 254 242 240
3 320 305 306
2 231 253
2 253 275
2 275 295
2 295 312
2 312 326
2 326 339
2 339 350
2 350 359
2 359 367
2 367 372
2 372 376
2 376 379
2 14 41
2 41 40
2 40 13
2 13 0
2 0 2
2 2 4
2 4 3
2 3 1
2 1 21
2 21 29
2 29 30
2 30 7
2 379 378
2 378 375
2 375 371
2 371 366
2 366 358
2 358 349
2 349 338
2 338 324
2 324 310
2 310 293
2 293 273
2 273 252
2 252 230
2 230 206
2 206 176
2 176 148
2 148 118
2 118 87
2 87 60
2 60 31
2 31 7
2 231 207
2 207 177
2 177 149
2 149 150
2 150 119
2 119 120
2 120 101
2 101 99
2 99 98
2 98 73
2 73 46
2 46 19
2 19 17
2 17 18
2 18 15
2 15 16
2 16 9
2 9 10
2 10 11
2 11 12
2 12 14

CELL_TYPES 758
5 5 5 5 5 5 5 5 5 5 5 5 5 5 5 5 5 5 5 5 5 5 5 5 5 5 5 5 5 5 5 5 5 5 5 5 5 5 5 5 5 5 5 5 5 5 5 5 5 5 5 5 5 5 5 5 5 5 5 5 5 5 5 5 5 5 5 5 5 5 5 5 5 5 5 5 5 5 5 5 5 5 5 5 5 5 5 5 5 5 5 5 5 5 5 5 5 5 5 5 5 5 5 5 5 5 5 5 5 5 5 5 5 5 5 5 5 5 5 5 5 5 5 5 5 5 5 5 5 5 5 5 5 5 5 5 5 5 5 5 5 5 5 5 5 5 5 5 5 5 5 5 5 5 5 5 5 5 5 5 5 5 5 5 5 5 5 5 5 5 5 5 5 5 5 5 5 5 5 5 5 5 5 5 5 5 5 5 5 5 5 5 5 5 5 5 5 5 5 5 5 5 5 5 5 5 5 5 5 5 5 5 5 5 5 5 5 5 5 5 5 5 5 5 5 5 5 5 5 5 5 5 5 5 5 5 5 5 5 5 5 5 5 5 5 5 5 5 5 5 5 5 5 5 5 5 5 5 5 5 5 5 5 5 5 5 5 5 5 5 5 5 5 5 5 5 5 5 5 5 5 5 5 5 5 5 5 5 5 5 5 5 5 5 5 5 5 5 5 5 5 5 5 5 5 5 5 5 5 5 5 5 5 5 5 5 5 5 5 5 5 5 5 5 5 5 5 5 5 5 5 5 5 5 5 5 5 5 5 5 5 5 5 5 5 5 5 5 5 5 5 5 5 5 5 5 5 5 5 5 5 5 5 5 5 5 5 5 5 5 5 5 5 5 5 5 5 5 5 5 5 5 5 5 5 5 5 5 5 5 5 5 5 5 5 5 5 5 5 5 5 5 5 5 5 5 5 5 5 5 5 5 5 5 5 5 5 5 5 5 5 5 5 5 5 5 5 5 5 5 5 5 5 5 5 5 5 5 5 5 5 5 5 5 5 5 5 5 5 5 5 5 5 5 5 5 5 5 5 5 5 5 5 5 5 5 5 5 5 5 5 5 5 5 5 5 5 5 5 5 5 5 5 5 5 5 5 5 5 5 5 5 5 5 5 5 5 5 5 5 5 5 5 5 5 5 5 5 5 5 5 5 5 5 5 5 5 5 5 5 5 5 5 5 5 5 5 5 5 5 5 5 5 5 5 5 5 5 5 5 5 5 5 5 5 5 5 5 5 5 5 5 5 5 5 5 5 5 5 5 5 5 5 5 5 5 5 5 5 5 5 5 5 5 5 5 5 5 5 5 5 5 5 5 5 5 5 5 5 5 5 5 5 5 5 5 5 5 5 5 5 5 5 5 5 5 5 5 5 5 5 5 5 5 5 5 5 5 5 5 5 5 5 5 5 5 5 5 5 5 5 5 5 5 5 5 5 5 5 5 5 5 5 5 5 5 5 5 5 5 5 5 5 5 5 5 5 5 5 5 5 5 5 5 5 5 5 5 5 5 5 5 5 5 5 5 5 5 5 5 5 5 5 5 5 5 5 5 5 5 5 5 3 3 3 3 3 3 3 3 3 3 3 3 3 3 3 3 3 3 3 3 3 3 3 3 3 3 3 3 3 3 3 3 3 3 3 3 3 3 3 3 3 3 3 3 3 3 3 3 3 3 3 3 3 3 3 3 3 3 3 3 3 3 3 3 3 3 
CELL_DATA 758
Scalars  Label int 1
LOOKUP_TABLE FreeFempp_table
0
0
0
0
0
0
0
0
0
0
0
0
0
0
0
0
0
0
0
0
0
0
0
0
0
0
0
0
0
0
0
0
0
0
0
0
0
0
0
0
0
0
0
0
0
0
0
0
0
0
0
0
0
0
0
0
0
0
0
0
0
0
0
0
0
0
0
0
0
0
0
0
0
0
0
0
0
0
0
0
0
0
0
0
0
0
0
0
0
0
0
0
0
0
0
0
0
0
0
0
0
0
0
0
0
0
0
0
0
0
0
0
0
0
0
0
0
0
0
0
0
0
0
0
0
0
0
0
0
0
0
0
0
0
0
0
0
0
0
0
0
0
0
0
0
0
0
0
0
0
0
0
0
0
0
0
0
0
0
0
0
0
0
0
0
0
0
0
0
0
0
0
0
0
0
0
0
0
0
0
0
0
0
0
0
0
0
0
0
0
0
0
0
0
0
0
0
0
0
0
0
0
0
0
0
0
0
0
0
0
0
0
0
0
0
0
0
0
0
0
0
0
0
0
0
0
0
0
0
0
0
0
0
0
0
0
0
0
0
0
0
0
0
0
0
0
0
0
0
0
0
0
0
0
0
0
0
0
0
0
0
0
0
0
0
0
0
0
0
0
0
0
0
0
0
0
0
0
0
0
0
0
0
0
0
0
0
0
0
0
0
0
0
0
0
0
0
0
0
0
0
0
0
0
0
0
0
0
0
0
0
0
0
0
0
0
0
0
0
0
0
0
0
0
0
0
0
0
0
0
0
0
0
0
0
0
0
0
0
0
0
0
0
0
0
0
0
0
0
0
0
0
0
0
0
0
0
0
0
0
0
0
0
0
0
0
0
0
0
0
0
0
0
0
0
0
0
0
0
0
0
0
0
0
0
0
0
0
0
0
0
0
0
0
0
0
0
0
0
0
0
0
0
0
0
0
0
0
0
0
0
0
0
0
0
0
0
0
0
0
0
0
0
0
0
0
0
0
0
0
0
0
0
0
0
0
0
0
0
0
0
0
0
0
0
0
0
0
0
0
0
0
0
0
0
0
0
0
0
0
0
0
0
0
0
0
0
0
0
0
0
0
0
0
0
0
0
0
0
0
0
0
0
0
0
0
0
0
0
0
0
0
0
0
0
0
0
0
0
0
0
0
0
0
0
0
0
0
0
0
0
0
0
0
0
0
0
0
0
0
0
0
0
0
0
0
0
0
0
0
0
0
0
0
0
0
0
0
0
0
0
0
0
0
0
0
0
0
0
0
0
0
0
0
0
0
0
0
0
0
0
0
0
0
0
0
0
0
0
0
0
0
0
0
0
0
0
0
0
0
0
0
0
0
0
0
0
0
0
0
0
0
0
0
0
0
0
0
0
0
0
0
0
0
0
0
0
0
0
0
0
0
0
0
0
0
0
0
0
0
0
0
0
0
0
0
0
0
0
0
0
0
0
0
0
0
0
0
0
0
0
0
0
0
0
0
0
0
0
0
0
0
0
0
0
0
0
0
0
0
0
0
0
0
0
0
0
0
0
0
0
0
0
0
0
0
0
0
0
0
0
0
0
0
0
0
0
0
0
0
0
0
1
1
1
1
1
1
1
1
1
1
1
1
3
3
3
3
3
3
3
3
3
3
3
3
2
2
2
2
2
2
2
2
2
2
2
2
2
2
2
2
2
2
2
2
2
4
4
4
4
4
4
4
4
4
4
4
4
4
4
4
4
4
4
4
4
4

LOOKUP_TABLE FreeFempp_table 5
1.00000000 0.00000000 0.00000000 1.00000000
1.00000000 1.00000000 0.00000000 1.00000000
1.00000000 0.00000000 1.00000000 1.00000000
0.00000000 1.00000000 0.00000000 1.00000000
0.00000000 1.00000000 1.00000000 1.00000000

POINT_DATA 380
FIELD FieldData 1
Density 1 380 float
1.00989901e-02 1.00989901e-02 1.00989901e-02 1.00989901e-02 1.00989901e-02 3.62326242e-02 7.89043605e-02 1.00989901e-02 2.37199739e-02 5.23194253e-01 3.81357253e-01 2.36773103e-01 1.10938020e-01 1.00989901e-02 1.00989901e-02 7.52840817e-01 6.45755172e-01 9.12936687e-01 8.43102157e-01 9.66572165e-01 8.52985159e-02 1.00989901e-02 4.32780348e-02 7.59326369e-02 7.83085227e-02 7.22386688e-02 6.67606965e-02 1.65353969e-01 1.57176986e-01 1.00989901e-02 1.00989901e-02 1.10938020e-01 9.01000127e-02 1.08841620e-02 8.01746696e-02 4.48708721e-02 2.62130648e-02 3.51941586e-01 2.05110177e-01 8.42412189e-02 1.00989901e-02 1.00989901e-02 2.63663024e-01 5.06682217e-01 6.30116284e-01 4.68455583e-01 9.89541590e-01 4.62504476e-01 7.02601433e-01 1.84937984e-01 1.26177236e-01 1.23200431e-01 1.56808376e-01 1.34303197e-01 1.25517011e-01 1.82237625e-01 2.65682995e-01 2.79089451e-01 2.49072567e-01 2.46540979e-01 2.36773103e-01 1.49182647e-01 2.11701125e-01 1.05055399e-01 1.97587460e-02 6.35695159e-02 1.37997359e-01 3.54332067e-02 1.22817727e-02 1.21605754e-01 3.03207308e-01 2.49825493e-01 3.17138553e-01 9.90001023e-01 6.38563693e-01 2.10599497e-01 1.66189909e-01 1.54684946e-01 3.52355063e-01 2.93950766e-01 2.72634804e-01 2.32116088e-01 2.27523789e-01 2.74258673e-01 3.71509790e-01 4.11350906e-01 3.60875934e-01 3.81357253e-01 3.37455302e-01 1.15294233e-01 8.69260803e-02 2.47649401e-02 5.31633832e-02 2.62045134e-02 1.09419711e-01 1.32097676e-01 1.69840574e-01 3.55431229e-01 9.69706476e-01 9.24183011e-01 6.39188945e-01 8.63008857e-01 3.27515900e-01 2.87677646e-01 1.95388079e-01 2.45559499e-01 2.59869784e-01 4.58980918e-01 5.05414486e-01 4.52090323e-01 3.65119129e-01 3.86767268e-01 4.49996948e-01 4.80871260e-01 5.31168520e-01 5.50289333e-01 5.51812768e-01 4.85686570e-01 5.23194253e-01 6.80790246e-01 7.80552566e-01 1.37353063e-01 9.51042697e-02 4.07890044e-02 6.72360435e-02 4.17897403e-02 6.61781132e-02 1.56392291e-01 3.32815945e-01 6.08697176e-01 5.16820073e-01 2.16253057e-01 4.44154531e-01 3.85810792e-01 3.27515334e-01 3.83907408e-01 5.91506541e-01 5.69404423e-01 6.36664331e-01 6.03448629e-01 6.94048166e-01 5.35884917e-01 5.66303849e-01 5.57445168e-01 6.33566558e-01 6.82782769e-01 6.41239583e-01 7.16702223e-01 6.45755172e-01 4.23284858e-01 5.64287424e-01 4.33625132e-01 1.60591409e-01 1.08679593e-01 8.17609206e-02 5.69804125e-02 6.82869032e-02 5.61304316e-02 5.17434590e-02 1.34527609e-01 2.84940958e-01 2.33726382e-01 2.64901727e-01 3.86993617e-01 5.22486508e-01 4.71494526e-01 7.03804970e-01 7.24153757e-01 7.85541058e-01 6.90088332e-01 6.52128160e-01 6.24092340e-01 7.43233800e-01 7.88200200e-01 7.55236089e-01 7.91152358e-01 7.52840817e-01 2.66737044e-01 2.62332827e-01 1.99869186e-01 1.48028344e-01 1.10847227e-01 8.28240365e-02 6.04404137e-02 5.52293099e-02 3.70866209e-02 1.09700851e-01 1.25363156e-01 2.82596916e-01 1.88527271e-01 3.89527082e-01 5.01418769e-01 4.93738741e-01 5.89967310e-01 8.12265873e-01 8.21462214e-01 8.56478572e-01 7.03641772e-01 7.84340680e-01 7.35452533e-01 6.92212760e-01 8.29123795e-01 8.53207469e-01 8.19554985e-01 8.42638552e-01 8.57154012e-01 8.43102157e-01 1.15873151e-01 1.22881502e-01 1.45462096e-01 6.64083585e-02 9.65196863e-02 4.02957946e-02 4.23147753e-02 6.60762861e-02 2.49857485e-01 3.02953243e-01 1.56911045e-01 4.44810092e-01 5.72666585e-01 6.47195339e-01 8.94768655e-01 9.01995599e-01 7.32981086e-01 7.68634737e-01 8.22643876e-01 8.64802301e-01 8.91653240e-01 8.82333815e-01 9.09984171e-01 9.12936687e-01 1.00989901e-02 4.47272249e-02 4.29342128e-02 1.03604779e-01 6.71470836e-02 2.93890312e-02 2.54566371e-02 1.98356181e-01 2.19111770e-01 3.25623244e-01 1.18291065e-01 5.13821423e-01 7.04969645e-01 6.19834900e-01 9.41892326e-01 9.52910900e-01 9.48575735e-01 7.72311389e-01 8.28218281e-01 8.89740705e-01 9.31748271e-01 9.66572165e-01 1.00989901e-02 3.70429307e-01 2.82255203e-01 3.35127972e-02 6.71679452e-02 1.36249317e-02 1.47008762e-01 2.18620300e-01 8.22221190e-02 4.95290339e-01 6.56907797e-01 5.34294128e-01 9.76672828e-01 9.83513892e-01 9.37613010e-01 9.58678544e-01 7.61414707e-01 6.70287549e-01 8.47013056e-01 9.09429252e-01 9.89541590e-01 9.85516608e-01 1.00989901e-02 6.22582972e-01 3.46542478e-01 2.41522402e-01 1.69193044e-01 1.43652232e-02 3.44839916e-02 1.18474737e-01 5.86721450e-02 4.01229471e-01 4.81284589e-01 5.31010509e-01 9.71369982e-01 9.83921289e-01 9.28443134e-01 6.95335865e-01 7.60093927e-01 8.53472948e-01 9.90001023e-01 9.31251764e-01 1.00989901e-02 5.66998780e-01 2.67365962e-01 1.19215965e-01 1.66856378e-01 2.94267517e-02 7.04750493e-02 2.43762285e-01 4.22644019e-01 3.53485197e-01 9.69187200e-01 9.45188999e-01 6.74360573e-01 8.70858133e-01 7.78658926e-01 9.69706476e-01 8.81326914e-01 1.00989901e-02 5.30735552e-01 1.62914172e-01 1.54565454e-01 9.26636904e-02 3.93918157e-02 2.35027328e-01 3.52645844e-01 9.28022861e-01 8.73017311e-01 6.52616799e-01 7.83525765e-01 9.24183011e-01 8.12567770e-01 1.00989901e-02 4.57068801e-01 9.27734002e-02 1.25931010e-01 4.46920283e-02 2.12640166e-01 3.10741335e-01 8.67467344e-01 7.89481819e-01 6.59429729e-01 5.07850051e-01 7.10125923e-01 8.63008857e-01 1.00989901e-02 3.16005647e-01 1.22543246e-01 5.80426194e-02 1.94470033e-01 7.89179742e-01 7.07061231e-01 5.58767736e-01 3.98862034e-01 5.95665097e-01 7.80552566e-01 1.00989901e-02 1.70136437e-01 2.50160843e-01 8.33424553e-02 6.93151355e-01 5.98480225e-01 3.94316316e-01 4.60319102e-01 6.80790246e-01 1.00989901e-02 2.13881597e-01 1.17669113e-01 5.71969390e-01 4.86794978e-01 2.66288519e-01 3.46447229e-01 5.64287424e-01 1.00989901e-02 1.06816903e-01 3.87776822e-01 2.09756717e-01 4.23284858e-01 1.00989901e-02 9.62362587e-02 2.15685859e-01 2.66737044e-01 1.00989901e-02 8.60292464e-02 1.15873151e-01 1.00989901e-02 
