# vtk DataFile Version 2.0
sol_toll1e-05_vf0.3iter0.vtk, Created by Freefem++ 
ASCII
DATASET UNSTRUCTURED_GRID
POINTS 439 float
1 0.94036028 0
1 0.97396377 0
1 1 0
1 0.89726229 0
0.85085294 0.93284904 0
0.85255789 0.9717456 0
0.7749567 1 0
1 0.85718359 0
1 0.8201836 0
0.84295981 0.89329488 0
0.74968194 0.94597189 0
0.63100762 1 0
0.66577449 0.9547107 0
0.51296144 1 0
0.5319793 0.96810818 0
0 0.65732766 0
0 0.68814436 0
0 0.719627 0
0 0.85718359 0
0 0.89726229 0
0 0.94036028 0
0 1 0
0 0.97396377 0
1 0.78541623 0
0.66157511 0.90188585 0
0.86190783 0.84048867 0
0.73861172 0.89707978 0
0.58022229 0.93237487 0
0.025413035 1 0
0.40678328 1 0
0.44345432 0.9633655 0
0.49180227 0.9242763 0
0 0.52796937 0
0 0.55052595 0
0 0.57297266 0
0 0.59831501 0
0 0.47287788 0
0 0.62710781 0
0 0.50134888 0
0 0.44654762 0
0 0.8201836 0
0 0.75196529 0
0 0.78541623 0
0.0033868342 0.66737703 0
0.012307426 0.89146472 0
0.010163179 0.83701081 0
0.016538864 0.80144806 0
0.016287056 0.9340716 0
0.024097761 0.88403422 0
0.018112923 0.96855402 0
0.033259397 0.96681627 0
0.87115674 0.79724746 0
1 0.75196529 0
0.045695829 0.98687522 0
0.63382379 0.86843586 0
0.74874427 0.83649382 0
0.57021864 0.86975593 0
0.062271361 1 0
0.12331755 1 0
0.30751045 1 0
0.48554289 0.87176195 0
0.33445707 0.95408927 0
0.40164054 0.92560013 0
0 0.36244698 0
0 0.39200568 0
0.0031055559 0.54040663 0
0 0.42010223 0
0 0.33206137 0
0.018032612 0.74004766 0
0.0070243745 0.77779582 0
0.013086326 0.75264131 0
0.0059163961 0.69426404 0
0.0061348761 0.55983518 0
0.020358892 0.83102397 0
0.021678427 0.75399829 0
0.027683395 0.81804326 0
0.033448515 0.79805975 0
0.033064787 0.85980845 0
0.032528749 0.92104953 0
0.048171177 0.94625975 0
0.85357605 0.76927974 0
1 0.719627 0
0.06626604 0.96782159 0
0.70929838 0.80216127 0
0.59512019 0.81450234 0
0.094358284 0.9631661 0
0.13819233 0.9674647 0
0.21247583 1 0
0.22875628 0.95933732 0
0.27336788 0.93522278 0
0.49348058 0.82029862 0
0.40998943 0.86412772 0
0.33223044 0.8893402 0
0.0035170112 0.40774883 0
0 0.30108506 0
0.020003656 0.66465349 0
0.016603992 0.67632156 0
0.010360072 0.67903277 0
0.01381572 0.65607582 0
0.0072460951 0.42676279 0
0.0095982842 0.56115513 0
0 0.26934053 0
0.023366715 0.6651038 0
0.025886479 0.74129261 0
0.03040963 0.74638292 0
0.034636257 0.73258426 0
0.03825258 0.72952963 0
0.040648283 0.85499628 0
0.039106102 0.79411957 0
0.045580377 0.89796727 0
0.056265276 0.90107836 0
0.065396898 0.92271468 0
0.85553219 0.73619082 0
1 0.68814436 0
0.082294127 0.92989194 0
0.7285988 0.75476366 0
0.61847104 0.76790837 0
0.52026213 0.77438883 0
0.12517228 0.91908361 0
0.17400787 0.93070097 0
0.23712096 0.89390377 0
0.41226066 0.80688996 0
0.3083096 0.83799094 0
0.020742487 0.56252705 0
0.0043253422 0.31834439 0
0.0082335338 0.33309001 0
0.017191541 0.55362053 0
0.013393573 0.52915487 0
0.01080929 0.41883996 0
0 0.23663448 0
0.026757565 0.62341305 0
0.023547338 0.52373919 0
0.029886312 0.65162568 0
0.033213366 0.66736964 0
0.036761303 0.6371142 0
0.04064798 0.65381528 0
0.04354535 0.71934752 0
0.049032469 0.83985027 0
0.045777664 0.78691052 0
0.056874899 0.83724035 0
0.066748134 0.85999208 0
0.080687526 0.87585727 0
0.86392519 0.69996571 0
1 0.65732766 0
0.10048543 0.83061312 0
0.10857017 0.88526332 0
0.74849444 0.70961751 0
0.636334 0.72571484 0
0.52886747 0.73630752 0
0.23374507 0.83593521 0
0.16954867 0.86160559 0
0.29154809 0.78854698 0
0.46443995 0.73692107 0
0.37359106 0.77129064 0
0.019808599 0.42753941 0
0.005679698 0.26000888 0
0.010619671 0.29416223 0
0.016207486 0.39957391 0
0.013340948 0.37192339 0
0 0.20266414 0
0.026289504 0.47360215 0
0.029452341 0.50735147 0
0.022854743 0.37329354 0
0.033074456 0.53705264 0
0.036306539 0.51624971 0
0.047325502 0.62406028 0
0.043757116 0.60441897 0
0.039901644 0.53243613 0
0.049229683 0.71019454 0
0.052618186 0.7730266 0
0.059623219 0.76300911 0
0.066998844 0.79709037 0
0.079932672 0.81137384 0
0.86769392 0.66304618 0
1 0.62710781 0
0.10289835 0.77077664 0
0.14116717 0.80716786 0
0.74954264 0.67005734 0
0.6399595 0.68878254 0
0.58055496 0.67807002 0
0.18348167 0.75138477 0
0.2340793 0.77478001 0
0.3570856 0.73294657 0
0.46849516 0.69864591 0
0.018468582 0.31225149 0
0.0076577861 0.21852813 0
0.013953001 0.27138154 0
0 0.16697071 0
0.051701655 0.62813001 0
0.036717646 0.40039801 0
0.021644202 0.28190928 0
0.030085334 0.38505361 0
0.026409219 0.35016911 0
0.033151895 0.39118158 0
0.049681892 0.51621967 0
0.046412888 0.50464664 0
0.043326722 0.47197038 0
0.040079375 0.40272827 0
0.055492232 0.69895218 0
0.055453744 0.61469809 0
0.061543364 0.68675229 0
0.067294607 0.73308468 0
0.08012303 0.74453069 0
1 0.59831501 0
0.85564233 0.62887068 0
0.10278393 0.70897353 0
0.13869386 0.73070205 0
0.71129136 0.63719999 0
0.21851882 0.69427744 0
0.58623553 0.63809348 0
0.28314643 0.7026848 0
0.34857268 0.70245485 0
0.46420312 0.66317874 0
0 0.12879483 0
0.0169937 0.21817825 0
0.009612172 0.17982411 0
0.053289832 0.52049117 0
0.033465363 0.29757403 0
0.037298204 0.31148652 0
0.024338768 0.25182833 0
0.029205665 0.27725949 0
0.020249312 0.18750842 0
0.050676331 0.41262103 0
0.046639415 0.38975917 0
0.042296302 0.35042041 0
0.039243944 0.26657278 0
0.056850098 0.51386189 0
0.059062689 0.60968735 0
0.062900406 0.59473623 0
0.06605759 0.58352785 0
0.066886043 0.65727466 0
0.084621489 0.67802881 0
0.10235523 0.64554994 0
0.074016214 0.67094681 0
1 0.57297266 0
0.84876808 0.59650692 0
0.13455438 0.66207632 0
0.177362 0.66710795 0
0.26573147 0.63632673 0
0.69763849 0.59796562 0
0.34982619 0.63963201 0
0.55381685 0.605773 0
0.4248102 0.63967518 0
0 0.088206214 0
0.012421652 0.13962324 0
0.054109372 0.41085934 0
0.033243367 0.22043351 0
0.024878937 0.17668016 0
0.049874046 0.32155762 0
0.044782325 0.28783529 0
0.040291061 0.21362052 0
0.068957132 0.5617903 0
0.066844021 0.4972545 0
0.057957203 0.41085462 0
0.060438532 0.4993419 0
0.06370831 0.48901057 0
0.13236875 0.6054078 0
0.10471339 0.58795641 0
0.073489294 0.59222291 0
0.084828381 0.60160213 0
1 0.55052595 0
0.16363975 0.56915931 0
0.83700743 0.56454373 0
0.2521057 0.60413869 0
0.19297603 0.60062013 0
0.38506715 0.59627004 0
0.37533686 0.5696566 0
0.67092619 0.56680488 0
0.5048931 0.57631528 0
0 0.058121831 0
0.015433302 0.10066203 0
0.055112078 0.3203871 0
0.031757914 0.14630666 0
0.049613527 0.24372687 0
0.043890203 0.17772957 0
0.072009374 0.4967212 0
0.066851167 0.4115455 0
0.06170562 0.37488586 0
0.13718775 0.54306046 0
0.09853792 0.53846684 0
0.081524471 0.51538877 0
0.89154537 0.53483643 0
1 0.52796937 0
1 0.50134888 0
0.21251697 0.53758936 0
0.22932918 0.50097387 0
0.78118158 0.53270961 0
0.32438742 0.54459132 0
0.49938527 0.53492997 0
0.64125869 0.53395566 0
0 0.035822957 0
0.023595403 0.084649096 0
0.058933872 0.27138623 0
0.040454398 0.1246381 0
0.054448292 0.18855765 0
0.073629186 0.41711955 0
0.068191166 0.31982733 0
0.083851933 0.43921965 0
0.11943157 0.50266378 0
0.16729968 0.49381633 0
0.09816757 0.47379951 0
0 0.017259291 0
0.89142242 0.50332161 0
1 0.47287788 0
0.33091418 0.50295879 0
0.2516601 0.4685468 0
0.76236001 0.49891268 0
0.47010446 0.50065013 0
0.620304 0.4986856 0
0.019314797 0.042944308 0
0.035874021 0.073615844 0
0.066211671 0.23460915 0
0.05231967 0.11902503 0
0.065295201 0.16313187 0
0.26550393 0.43237178 0
0.081968788 0.35814068 0
0.080127452 0.28535461 0
0.1750553 0.43667045 0
0.10095285 0.40644199 0
0.13007683 0.4529356 0
0 0 0
0.8748523 0.4701915 0
1 0.44654762 0
0.40003023 0.46465765 0
0.40268421 0.43146878 0
0.74214662 0.46567069 0
0.57779468 0.46622789 0
0.032964699 0.031980988 0
0.05038857 0.067883485 0
0.079776783 0.21637239 0
0.080482841 0.1510756 0
0.06752287 0.099510435 0
0.30318282 0.40077195 0
0.17081518 0.38109497 0
0.21559539 0.37578573 0
0.10352834 0.330761 0
0.1035178 0.26420807 0
0.12974801 0.38351562 0
0.025413035 0 0
1 0.42010223 0
0.88636492 0.43978921 0
0.79588454 0.4339855 0
0.37755229 0.38422603 0
0.54419717 0.43441596 0
0.49873962 0.40544979 0
0.67938152 0.43375149 0
0.064926676 0.044819277 0
0.10174528 0.18978135 0
0.096084636 0.10989553 0
0.13677356 0.23635573 0
0.24021824 0.33441929 0
0.1524372 0.31024915 0
0.2971315 0.32351694 0
0.37819469 0.33791994 0
0.062271361 0 0
1 0.39200568 0
0.89104951 0.40829521 0
0.77695281 0.40262836 0
0.48988344 0.37209467 0
0.63985752 0.39666058 0
0.45023745 0.32664386 0
0.097576456 0.030272754 0
0.106692 0.065244801 0
0.14310665 0.17011511 0
0.14664249 0.10669975 0
0.20151993 0.24965508 0
0.29801621 0.26357086 0
0.12331755 0 0
1 0.36244698 0
0.88369346 0.3770645 0
0.76922708 0.36821152 0
0.60891123 0.35552936 0
0.60144461 0.31759342 0
0.48071419 0.29885184 0
0.36921589 0.26400363 0
0.15854251 0.042990876 0
0.20297868 0.095603031 0
0.29122937 0.19672011 0
0.21252542 0.17089189 0
0.21247583 0 0
1 0.33206137 0
0.87911348 0.33755184 0
0.74020165 0.3333662 0
0.67861778 0.29495078 0
0.4740918 0.25873379 0
0.54202853 0.2660804 0
0.37581887 0.20503456 0
0.23303753 0.037053982 0
0.26193736 0.071210172 0
0.27990595 0.13132572 0
0.30751045 0 0
1 0.30108506 0
0.8341583 0.29850527 0
0.57073108 0.24600362 0
0.6933461 0.25737985 0
0.4501167 0.18271065 0
0.36113167 0.13300487 0
0.32684747 0.031828503 0
0.38102292 0.080024014 0
0.3284511 0.073878759 0
0.40678328 0 0
1 0.26934053 0
0.84263057 0.26260457 0
0.5501203 0.20397058 0
0.622313 0.20670205 0
0.75949695 0.22556956 0
0.50738838 0.13971429 0
0.43480203 0.10233623 0
0.42215452 0.040214327 0
0.51296144 0 0
1 0.23663448 0
0.86001556 0.20824625 0
0.75512116 0.20043522 0
0.53629125 0.1063667 0
0.61560216 0.1669091 0
0.66343351 0.1572974 0
0.74569529 0.16185342 0
0.50552042 0.061990648 0
0.63100762 0 0
1 0.20266414 0
0.8561464 0.17130264 0
0.58986737 0.094008034 0
0.74551884 0.12120376 0
0.65831768 0.098252323 0
1 0 0
0.61585018 0.040251966 0
0.7749567 0 0
1 0.16697071 0
0.84534315 0.13036975 0
1 0.017259291 0
0.72295776 0.072225851 0
0.84117101 0.024722303 0
0.72268194 0.033170375 0
0.84859717 0.095435494 0
1 0.12879483 0
1 0.035822957 0
0.83637856 0.05813922 0
1 0.088206214 0
1 0.058121831 0

CELLS 876 3418
3 320 338 327
[...]
CELL_DATA 876
Scalars  Label int 1
LOOKUP_TABLE FreeFempp_table
0
0
0
0
0
0
0
0
0
0
0
0
0
0
0
0
0
0
0
0
0
0
0
0
0
0
0
0
0
0
0
0
0
0
0
0
0
0
0
0
0
0
0
0
0
0
0
0
0
0
0
0
0
0
0
0
0
0
0
0
0
0
0
0
0
0
0
0
0
0
0
0
0
0
0
0
0
0
0
0
0
0
0
0
0
0
0
0
0
0
0
0
0
0
0
0
0
0
0
0
0
0
0
0
0
0
0
0
0
0
0
0
0
0
0
0
0
0
0
0
0
0
0
0
0
0
0
0
0
0
0
0
0
0
0
0
0
0
0
0
0
0
0
0
0
0
0
0
0
0
0
0
0
0
0
0
0
0
0
0
0
0
0
0
0
0
0
0
0
0
0
0
0
0
0
0
0
0
0
0
0
0
0
0
0
0
0
0
0
0
0
0
0
0
0
0
0
0
0
0
0
0
0
0
0
0
0
0
0
0
0
0
0
0
0
0
0
0
0
0
0
0
0
0
0
0
0
0
0
0
0
0
0
0
0
0
0
0
0
0
0
0
0
0
0
0
0
0
0
0
0
0
0
0
0
0
0
0
0
0
0
0
0
0
0
0
0
0
0
0
0
0
0
0
0
0
0
0
0
0
0
0
0
0
0
0
0
0
0
0
0
0
0
0
0
0
0
0
0
0
0
0
0
0
0
0
0
0
0
0
0
0
0
0
0
0
0
0
0
0
0
0
0
0
0
0
0
0
0
0
0
0
0
0
0
0
0
0
0
0
0
0
0
0
0
0
0
0
0
0
0
0
0
0
0
0
0
0
0
0
0
0
0
0
0
0
0
0
0
0
0
0
0
0
0
0
0
0
0
0
0
0
0
0
0
0
0
0
0
0
0
0
0
0
0
0
0
0
0
0
0
0
0
0
0
0
0
0
0
0
0
0
0
0
0
0
0
0
0
0
0
0
0
0
0
0
0
0
0
0
0
0
0
0
0
0
0
0
0
0
0
0
0
0
0
0
0
0
0
0
0
0
0
0
0
0
0
0
0
0
0
0
0
0
0
0
0
0
0
0
0
0
0
0
0
0
0
0
0
0
0
0
0
0
0
0
0
0
0
0
0
0
0
0
0
0
0
0
0
0
0
0
0
0
0
0
0
0
0
0
0
0
0
0
0
0
0
0
0
0
0
0
0
0
0
0
0
0
0
0
0
0
0
0
0
0
0
0
0
0
0
0
0
0
0
0
0
0
0
0
0
0
0
0
0
0
0
0
0
0
0
0
0
0
0
0
0
0
0
0
0
0
0
0
0
0
0
0
0
0
0
0
0
0
0
0
0
0
0
0
0
0
0
0
0
0
0
0
0
0
0
0
0
0
0
0
0
0
0
0
0
0
0
0
0
0
0
0
0
0
0
0
0
0
0
0
0
0
0
0
0
0
0
0
0
0
0
0
0
0
0
0
0
0
0
0
0
0
0
0
0
0
0
0
0
0
0
0
0
0
0
0
0
0
0
0
0
0
0
0
0
0
0
0
0
0
0
0
0
0
0
0
0
0
0
0
0
0
0
0
0
0
0
0
0
0
0
0
0
0
0
0
0
0
0
0
0
0
0
0
0
0
0
0
0
0
0
0
0
0
0
0
0
0
0
0
0
0
0
0
0
0
0
0
0
0
0
0
0
0
0
0
0
0
0
0
0
0
0
0
0
0
0
0
0
0
0
0
0
0
0
0
0
0
0
0
0
0
0
0
0
0
0
0
0
0
0
0
0
0
0
0
0
0
0
0
0
0
0
0
1
1
1
1
1
1
1
1
1
1
3
3
3
3
3
3
3
3
3
3
2
2
2
2
2
2
2
2
2
2
2
2
2
2
2
2
2
2
2
2
2
2
2
2
2
2
2
2
2
2
2
2
2
4
4
4
4
4
4
4
4
4
4
4
4
4
4
4
4
4
4
4
4
4
4
4
4
4
4
4
4
4
4
4
4
4

LOOKUP_TABLE FreeFempp_table 5
1.00000000 0.00000000 0.00000000 1.00000000
1.00000000 1.00000000 0.00000000 1.00000000
1.00000000 0.00000000 1.00000000 1.00000000
0.00000000 1.00000000 0.00000000 1.00000000
0.00000000 1.00000000 1.00000000 1.00000000

POINT_DATA 439
FIELD FieldData 1
Density 1 439 float
1.86117649e-01 8.38566199e-02 1.00989901e-02 3.17042828e-01 2.03581691e-01 8.76635537e-02 1.00989901e-02 4.33269352e-01 5.34630597e-01 3.18565071e-01 1.55384898e-01 1.00989901e-02 1.22485518e-01 1.00989901e-02 7.46042058e-02 8.79339099e-01 8.29293132e-01 7.70230770e-01 4.33269352e-01 3.17042828e-01 1.86117649e-01 1.00989901e-02 8.38566199e-02 6.23374879e-01 2.61371642e-01 4.68618959e-01 2.91102201e-01 1.66531757e-01 1.00989901e-02 1.00989901e-02 7.34887198e-02 1.63554922e-01 9.90001023e-01 9.83887255e-01 9.73022521e-01 9.52425957e-01 9.90001023e-01 9.20551240e-01 9.90001023e-01 9.82846618e-01 5.34630597e-01 7.01773942e-01 6.23374879e-01 7.82574475e-01 2.25914136e-01 3.54992330e-01 3.11209857e-01 1.11622989e-01 1.25417754e-01 5.32166511e-02 1.03084426e-02 5.82266510e-01 7.01773942e-01 1.00989901e-02 3.36892635e-01 4.53148693e-01 3.10148269e-01 1.00989901e-02 1.00989901e-02 1.00989901e-02 2.70344704e-01 7.19259083e-02 1.36419550e-01 9.07529891e-01 9.42060232e-01 9.01124358e-01 9.67394233e-01 8.63849998e-01 3.61379683e-01 5.24589300e-01 4.51327384e-01 6.82748139e-01 8.09974194e-01 2.16681004e-01 2.82731354e-01 1.22689761e-01 3.11161149e-02 2.61085778e-02 1.98997632e-02 1.15209389e-02 6.45059347e-01 7.70230770e-01 1.08875968e-02 5.22216320e-01 4.41887230e-01 1.65684205e-02 2.21024491e-02 1.00989901e-02 4.41971421e-02 8.38799775e-02 3.73460948e-01 2.48312071e-01 1.69514403e-01 8.59550893e-01 8.10872734e-01 3.76384676e-01 4.56353754e-01 6.06591582e-01 5.40966451e-01 7.71303296e-01 7.13192105e-01 7.48428822e-01 2.92940736e-01 1.95302039e-01 9.91474167e-02 4.04867455e-02 4.50106151e-02 2.76544411e-02 3.68262529e-02 2.24103238e-02 2.69264504e-02 2.44849715e-02 7.17665255e-01 8.29293132e-01 2.78832708e-02 6.33046925e-01 5.49791813e-01 4.73800451e-01 4.83189486e-02 5.81765622e-02 1.18844785e-01 3.43052268e-01 2.26214290e-01 4.02798891e-01 7.33896136e-01 6.62891150e-01 5.04713118e-01 6.13125265e-01 6.65776491e-01 6.76460564e-01 2.26194203e-01 3.27413023e-01 1.35972604e-01 4.82150726e-02 5.21775149e-02 5.62017821e-02 5.22223525e-02 3.65526900e-02 4.38870825e-02 4.34557311e-02 4.45192046e-02 4.71810140e-02 7.90581465e-01 8.79339099e-01 7.97127336e-02 5.91890290e-02 7.28702605e-01 6.37710214e-01 5.43768466e-01 1.76818132e-01 1.10701457e-01 2.71520495e-01 4.89954144e-01 3.63799304e-01 4.22588110e-01 6.08363569e-01 5.53225100e-01 5.12351513e-01 5.67363620e-01 5.94286740e-01 2.50312090e-01 1.61444858e-01 3.20351779e-01 5.92380576e-02 5.68260625e-02 6.83719069e-02 6.47771284e-02 6.22851290e-02 6.03713579e-02 5.36021516e-02 6.29887581e-02 6.24865368e-02 6.88967109e-02 8.52403879e-01 9.20551240e-01 1.05736986e-01 1.24353960e-01 7.94177175e-01 6.98987603e-01 6.68750167e-01 1.98910043e-01 2.33335704e-01 3.95592779e-01 5.44572949e-01 3.85330886e-01 4.87323970e-01 4.48839724e-01 5.00800729e-01 7.43919015e-02 5.48479818e-02 2.87432343e-01 1.33251294e-01 2.17059240e-01 5.39674200e-02 7.76554942e-02 7.27357790e-02 6.77020475e-02 6.00520335e-02 7.05040023e-02 8.09859335e-02 7.99863935e-02 7.84578100e-02 8.93622115e-02 9.52425957e-01 8.94740462e-01 1.26979053e-01 1.61673516e-01 8.15913975e-01 2.75205702e-01 7.21560895e-01 3.45548391e-01 4.18376833e-01 5.80123425e-01 3.93431604e-01 3.08869958e-01 3.74024868e-01 8.32359269e-02 4.22570221e-02 4.87451777e-02 2.08275452e-01 1.27196267e-01 2.16508031e-01 7.66728222e-02 6.89859390e-02 5.94198294e-02 4.57598567e-02 8.89197960e-02 8.69495720e-02 9.40914005e-02 9.98790115e-02 9.22197029e-02 1.11697562e-01 1.43335462e-01 9.92904678e-02 9.73022521e-01 9.26774502e-01 1.83032349e-01 2.37859294e-01 3.68597001e-01 8.47146273e-01 4.72059458e-01 7.21595228e-01 5.59521019e-01 2.73244560e-01 2.64020026e-01 8.16354379e-02 3.48754376e-02 1.47727042e-01 6.66994750e-02 5.55854291e-02 3.97915654e-02 1.05983384e-01 1.04757473e-01 8.73650014e-02 9.47709456e-02 9.97329354e-02 1.95053801e-01 1.57231942e-01 1.10177249e-01 1.26027316e-01 9.83887255e-01 2.48117149e-01 9.47143018e-01 3.64840478e-01 2.83617020e-01 5.42285204e-01 5.42286396e-01 8.50123048e-01 6.91141069e-01 1.81409910e-01 1.73531935e-01 7.35732615e-02 4.14039940e-02 5.44887967e-02 3.74086797e-02 1.12791695e-01 1.00674331e-01 8.93620029e-02 2.11537182e-01 1.52918771e-01 1.27273634e-01 9.79141772e-01 9.90001023e-01 9.90001023e-01 3.25005144e-01 3.52382332e-01 9.36130106e-01 4.82215554e-01 7.01982081e-01 8.40279758e-01 1.12250023e-01 7.12959096e-02 6.96568266e-02 2.44879723e-02 4.86181378e-02 1.11471817e-01 9.01657119e-02 1.28872380e-01 1.86351940e-01 2.59509295e-01 1.52923092e-01 5.89925610e-02 9.84694064e-01 9.90001023e-01 4.96417761e-01 3.82978022e-01 9.30828691e-01 6.72971666e-01 8.26904833e-01 5.00374287e-02 1.32137071e-02 6.97626024e-02 3.11832670e-02 5.03570139e-02 3.95918071e-01 1.15989096e-01 9.84977707e-02 2.66026497e-01 1.51036397e-01 2.00451165e-01 1.00989901e-02 9.75691438e-01 9.82846618e-01 5.84022701e-01 5.77321589e-01 9.13362205e-01 7.83302724e-01 1.00989901e-02 1.68192629e-02 7.92768523e-02 5.84615991e-02 3.25578563e-02 4.36262488e-01 2.46586949e-01 3.07071865e-01 1.39506876e-01 1.19436674e-01 1.88820735e-01 1.00989901e-02 9.67394233e-01 9.65419888e-01 9.28467810e-01 5.21715224e-01 7.38157928e-01 6.74264789e-01 8.56604397e-01 1.46067012e-02 8.93242359e-02 5.09949587e-02 1.44372612e-01 3.19637388e-01 1.96344569e-01 3.82255673e-01 4.88437176e-01 1.00989901e-02 9.42060232e-01 9.43569779e-01 8.95048261e-01 6.39764190e-01 7.99563408e-01 5.55291533e-01 1.57777332e-02 3.39833722e-02 1.13769360e-01 7.56127760e-02 2.19644189e-01 3.32378209e-01 1.00989901e-02 9.07529891e-01 9.09591377e-01 8.55747879e-01 7.33470857e-01 6.79964125e-01 5.52767396e-01 4.03977334e-01 3.35093997e-02 9.27330032e-02 2.56027460e-01 1.67768314e-01 1.00989901e-02 8.63849998e-01 8.56125832e-01 7.94772446e-01 6.99234009e-01 4.91761148e-01 5.57888091e-01 3.34315598e-01 4.15492877e-02 8.87438133e-02 1.70674562e-01 1.00989901e-02 8.10872734e-01 7.78841913e-01 5.44763863e-01 6.40437007e-01 3.52955043e-01 2.18028337e-01 4.96420264e-02 1.40914440e-01 1.13492467e-01 1.00989901e-02 7.48428822e-01 7.11643815e-01 4.54404652e-01 5.00912488e-01 6.04466259e-01 3.04122776e-01 1.99494272e-01 7.77564421e-02 1.00989901e-02 6.76460564e-01 5.93191385e-01 5.45657456e-01 2.44742036e-01 4.11983848e-01 4.09231275e-01 4.48185086e-01 1.38001725e-01 1.00989901e-02 5.94286740e-01 4.99087453e-01 2.32881904e-01 3.42066675e-01 2.61053532e-01 1.00989901e-02 1.04035489e-01 1.00989901e-02 5.00800729e-01 3.86276484e-01 5.89925610e-02 2.03882247e-01 7.77931735e-02 9.43327323e-02 2.86843807e-01 3.93431604e-01 1.12250023e-01 1.75512746e-01 2.73244560e-01 1.81409910e-01 
