# vtk DataFile Version 2.0
sol_toll1e-05_vf0.3iter10.vtk, Created by Freefem++ 
ASCII
DATASET UNSTRUCTURED_GRID
POINTS 588 float
0 0.34353583 0
0 0.46076333 0
0.006128191 0.40541853 0
0 0.27605067 0
0 0.23727726 0
0 0.21417282 0
0 0.60390056 0
0.0077376319 0.51824649 0
0 0.18520778 0
0 0.19189474 0
0 0.20059271 0
0.010556541 0.43703796 0
0.007434178 0.34032215 0
0.010737952 0.33815111 0
0.0068765997 0.28416607 0
0 0.15819887 0
0 0.16574608 0
0 0.17924939 0
0 0.17320018 0
0.0067555862 0.61629441 0
0 0.69171083 0
0.011127923 0.58910056 0
0.012736787 0.50891898 0
0.0072955157 0.25399421 0
0.014769182 0.47984193 0
0.012505164 0.40470435 0
0.013557158 0.35957946 0
0.011243402 0.30305027 0
0 0.14549149 0
0 0.15184394 0
0 0.13735498 0
0.0078944257 0.23236567 0
0.0067741585 0.67619059 0
0 0.74139097 0
0.011193636 0.65214732 0
0.014569815 0.58026611 0
0.016604932 0.51424942 0
0.012840886 0.28683233 0
0.015709774 0.41075806 0
0.015252291 0.33718337 0
0.017816199 0.44974765 0
0.0085206643 0.21216498 0
0 0.12488391 0
0 0.10340087 0
0.013360352 0.26154172 0
0 0.77033495 0
0.0063116736 0.72103516 0
0.015932248 0.64067615 0
0.010505077 0.70822974 0
0.01352925 0.65819442 0
0.018668845 0.55202396 0
0.019654743 0.48639144 0
0.017495298 0.60084694 0
0 0.065828911 0
0.020519679 0.40296166 0
0.017185925 0.31558095 0
0.018288982 0.3774635 0
0.010552495 0.20452626 0
0.01019663 0.16573956 0
0.016498415 0.26932264 0
0 0.78759276 0
0.005987443 0.75507099 0
0.01143031 0.74076065 0
0.017837834 0.67781816 0
0.01448418 0.70085509 0
0.021479918 0.53297624 0
0.020081896 0.62200542 0
0.023379482 0.53667782 0
0 0 0
0.022712244 0.41341912 0
0.01259147 0.13322691 0
0.02009313 0.3180617 0
0.016671701 0.23279711 0
0 0.79932981 0
0.0060192817 0.78363023 0
0.011849745 0.77223495 0
0.019902713 0.71011288 0
0.016155355 0.7332324 0
0.023241722 0.65032479 0
0.026241372 0.52013503 0
0.010084992 0 0
0.01999787 0.13690946 0
0.024542717 0.34119037 0
0.021123621 0.23804393 0
0 0.80840527 0
0 0.81540367 0
0 0.81998828 0
0.011279658 0.80204782 0
0.0057226787 0.81503484 0
0.022248948 0.74894166 0
0.017075745 0.76824498 0
0.028001028 0.68594108 0
0.029563839 0.38948458 0
0.031529368 0.54265989 0
0.021428235 0 0
0.028656502 0.21398479 0
0 0.82392043 0
0 0.8355313 0
0 0.84029465 0
0 0.82933262 0
0 0.84384334 0
0 0.84703192 0
0 0.85158942 0
0.012854481 0.8205608 0
0.0055165273 0.84713193 0
0.022466729 0.84520484 0
0.017685107 0.81903956 0
0.032772797 0.80282666 0
0.038463582 0.57924709 0
0.036898618 0.34219222 0
0.035325262 0 0
0.021428235 1 0
0 0.85875213 0
0 0.87080611 0
0 0.89235292 0
0.008488933 0.87315669 0
0.010084992 1 0
0.012022598 0.90518138 0
0.035325262 1 0
0.048231262 0.69422327 0
0.055537962 0 0
0.049009764 0.31826879 0
0.090556733 0 0
0 0.93092789 0
0 1 0
0.055537962 1 0
0.15235113 0 0
0.07209677 0.68919677 0
0.063660884 0.4587874 0
0.1111145 0.16389958 0
0.076205238 0.23983372 0
0.090556733 1 0
0.092295338 0.81352026 0
0.17508027 0.1458438 0
0.43464681 0 0
0.25952549 0 0
0.69715534 0 0
0.11650668 0.60850181 0
0.094180865 0.44079033 0
0.12729326 0.28938 0
0.17729956 0.31151342 0
0.19992635 0.22363113 0
0.15235113 1 0
0.13676415 0.86874286 0
0.14790846 0.75135208 0
0.17297288 0.65299462 0
1 0 0
0.46404525 0.082558821 0
0.28444834 0.12194012 0
0.74407386 0.063621186 0
0.28797507 0.19470704 0
0.18645244 0.53485595 0
0.14878273 0.43371227 0
0.21380588 0.3414495 0
0.26154858 0.26150863 0
0.22941318 0.65698341 0
0.25952549 1 0
0.20772633 0.90829982 0
0.22457416 0.82981065 0
0.23235984 0.75316972 0
1 0.065828911 0
0.54079534 0.11546498 0
0.3851477 0.15411022 0
0.74285865 0.10873327 0
0.23865551 0.56575516 0
0.35150193 0.20917514 0
0.23621438 0.47297528 0
0.21506598 0.41692889 0
0.26407188 0.32434419 0
0.32243882 0.25822731 0
0.43464681 1 0
0.2759456 0.67082903 0
0.29115875 0.75177632 0
0.3301116 0.89881208 0
0.32399274 0.82211151 0
1 0.10340087 0
0.80827282 0.1261887 0
0.5357926 0.14670393 0
0.44044014 0.17932581 0
0.65816725 0.14330248 0
0.26401142 0.44665847 0
0.27785039 0.6081997 0
0.27808618 0.48030142 0
0.26579267 0.5273283 0
0.40067143 0.21566061 0
0.36066648 0.25647136 0
0.26309363 0.38440654 0
0.30594804 0.31049229 0
0.69715534 1 0
0.49079719 0.92080572 0
0.32293577 0.73550554 0
0.28304722 0.39223653 0
0.31510826 0.67580856 0
0.35714669 0.78846658 0
0.42991148 0.85984425 0
0.40001222 0.82212038 0
1 0.12488391 0
0.80906083 0.14119057 0
0.55147479 0.16690615 0
0.48024478 0.19116539 0
0.67285288 0.15766925 0
0.28981134 0.42566325 0
0.29254203 0.48280749 0
0.29825548 0.60006436 0
0.29112085 0.54046789 0
0.42987644 0.22432625 0
0.38677112 0.25674243 0
0.3435903 0.29554896 0
0.307046 0.34265596 0
1 1 0
0.55133063 0.88273667 0
0.72856933 0.93127837 0
0.36075725 0.74724009 0
0.34643743 0.70142201 0
0.30983581 0.37084156 0
0.32674081 0.64679487 0
0.56462692 0.85401249 0
0.41540636 0.79195312 0
0.46990996 0.82951935 0
1 0.13735498 0
0.84362779 0.14815067 0
0.49836506 0.20018282 0
0.71997803 0.16191434 0
0.84781902 0.15415343 0
0.58197959 0.17842574 0
0.6658898 0.17317851 0
0.3112915 0.40005936 0
0.30174709 0.44149504 0
0.30439572 0.48191579 0
0.30613246 0.53146742 0
0.31348257 0.58621482 0
0.46792148 0.22343585 0
0.41989549 0.24943759 0
0.37556805 0.28421313 0
0.34183465 0.32290444 0
1 0.93092789 0
0.73739488 0.88798255 0
0.38924786 0.74821834 0
0.36172504 0.69863431 0
0.74454019 0.86443672 0
0.33192372 0.62520321 0
0.33169239 0.35450333 0
0.65098172 0.84401588 0
0.35238455 0.66582972 0
0.54978704 0.83185481 0
0.44303283 0.78053855 0
0.48798756 0.8103503 0
1 0.14549149 0
0.90054158 0.15492521 0
0.53144821 0.20151081 0
0.50287032 0.22095499 0
0.77590129 0.16498619 0
0.59549912 0.18721286 0
0.6995108 0.17538856 0
0.64305749 0.18364522 0
0.32791306 0.38516944 0
0.31483371 0.50026858 0
0.31745089 0.42396338 0
0.31273711 0.45617669 0
0.32062186 0.55075073 0
0.32972539 0.59108644 0
0.32689852 0.51879707 0
0.4534169 0.24328165 0
0.40945635 0.27045206 0
0.3762347 0.30063956 0
0.48181288 0.24018607 0
0.35690777 0.32942361 0
1 0.89235292 0
0.40328778 0.74220206 0
0.38377055 0.70896716 0
1 0.87080611 0
0.79096003 0.85360071 0
0.35724098 0.65173207 0
0.3432081 0.62000272 0
0.34492486 0.35958794 0
0.79901419 0.84566772 0
0.61758919 0.83097502 0
0.70249415 0.83747367 0
0.4379153 0.76197592 0
0.38525161 0.69290596 0
0.55799409 0.81809055 0
0.47318761 0.78048846 0
0.50630702 0.79932709 0
1 0.15184394 0
0.85200564 0.16365698 0
0.93183106 0.15818238 0
0.52871616 0.22106283 0
0.56299602 0.20286351 0
0.76189131 0.17290726 0
0.83509088 0.16992152 0
0.6229173 0.19275353 0
0.69085747 0.18339398 0
0.33534027 0.39855334 0
0.32199235 0.4723219 0
0.32714795 0.4350465 0
0.34593552 0.59989877 0
0.33668618 0.56740037 0
0.34115391 0.53742141 0
0.3343109 0.49327608 0
0.38548306 0.30954464 0
0.43772648 0.26420598 0
0.40945829 0.28537965 0
0.50885506 0.23924234 0
0.4665241 0.25794842 0
0.36766471 0.33962365 0
0.41198141 0.73249235 0
1 0.85875213 0
0.37657055 0.66675191 0
0.3603993 0.63290457 0
0.39366162 0.3178631 0
0.35172263 0.3734919 0
0.3665576 0.3594541 0
0.45933696 0.76307561 0
1 0.85158942 0
0.82726009 0.84121524 0
0.61975441 0.82087593 0
0.74070001 0.83428323 0
0.67293855 0.82971889 0
0.43659016 0.74476362 0
0.41437952 0.71958764 0
0.40174618 0.69639162 0
0.48700254 0.77459676 0
0.56572394 0.80621915 0
0.51742459 0.78950055 0
0.36034872 0.61133362 0
1 0.15819887 0
0.91890555 0.16537408 0
0.55291364 0.22152543 0
0.57841499 0.20740971 0
0.62258989 0.20079104 0
0.76931537 0.17878338 0
0.85445324 0.17376618 0
0.66448763 0.19323775 0
0.71898977 0.1876029 0
0.34616278 0.40680444 0
0.34076767 0.43612705 0
0.33210828 0.45825844 0
0.35299851 0.55310448 0
0.35565317 0.58318071 0
0.34309377 0.47503064 0
0.34929878 0.50981117 0
0.54559889 0.23248534 0
0.51716134 0.24635322 0
0.41587358 0.29734805 0
0.44175829 0.2795355 0
0.48010828 0.26336468 0
0.38795423 0.33914788 0
0.38577835 0.66346243 0
0.37580112 0.63542488 0
0.41507952 0.31560742 0
0.36239684 0.38732033 0
0.37891661 0.36803801 0
0.51823582 0.7793821 0
0.45538495 0.74619714 0
0.47613018 0.7600595 0
1 0.84703192 0
0.84930196 0.83836863 0
0.77691577 0.83241291 0
0.62826887 0.81301403 0
0.67589311 0.82323561 0
0.72380909 0.82792269 0
0.58413918 0.80111033 0
0.43544569 0.7277998 0
0.41056077 0.68954663 0
0.42404475 0.70986005 0
0.49994919 0.76766761 0
0.55361289 0.79116809 0
0.37414137 0.61230667 0
1 0.16574608 0
0.93141114 0.17189206 0
0.87368344 0.17775818 0
0.58001761 0.22322303 0
0.59896822 0.21262116 0
0.64635835 0.20558494 0
0.79337375 0.18375273 0
0.7359781 0.19238282 0
0.68889139 0.19804284 0
0.35646017 0.42231771 0
0.34991978 0.45163468 0
0.370954 0.58884919 0
0.36206763 0.55489558 0
0.36196525 0.51541571 0
0.35580285 0.47586057 0
0.57829205 0.23199189 0
0.54831316 0.24112569 0
0.51242006 0.25912326 0
0.43801344 0.29865605 0
0.46866652 0.28073455 0
0.40397848 0.34161041 0
0.39083956 0.63683666 0
0.40202917 0.66409117 0
0.42901461 0.32042547 0
0.37057098 0.40184369 0
0.39092012 0.3706904 0
0.54917679 0.78115019 0
0.5297761 0.77060315 0
0.45505542 0.73115218 0
0.47647856 0.74396647 0
0.49445475 0.75501006 0
1 0.84384334 0
0.86784731 0.83533848 0
0.63228963 0.80546924 0
0.78974726 0.8281409 0
0.67831993 0.81534216 0
0.71429359 0.82112682 0
0.75826362 0.82240416 0
0.59366598 0.79408046 0
0.44474505 0.71273278 0
0.42776314 0.69158828 0
0.52004423 0.76000698 0
0.58034305 0.78455257 0
0.38476138 0.60835166 0
0.3990002 0.63273261 0
1 0.17320018 0
0.92722251 0.17918068 0
0.8495203 0.18459172 0
0.62270042 0.21874619 0
0.6746423 0.20923839 0
0.78539076 0.19213206 0
0.72282345 0.20062812 0
0.6041216 0.23175146 0
0.3667723 0.44005659 0
0.38506224 0.58817587 0
0.37393817 0.56013966 0
0.37370589 0.52165663 0
0.36709836 0.47960726 0
0.55707585 0.2474769 0
0.50792366 0.27138764 0
0.46078843 0.29738443 0
0.4143678 0.35327757 0
0.41825729 0.66585097 0
0.44626925 0.31903053 0
0.38359106 0.3979335 0
0.56288044 0.77432734 0
0.54871534 0.76375671 0
0.51342048 0.74936244 0
0.47349371 0.72684763 0
0.49736993 0.73962149 0
0.39047036 0.40730387 0
1 0.84029465 0
[...]
CELL_DATA 1174
Scalars  Label int 1
LOOKUP_TABLE FreeFempp_table
0
0
0
0
0
0
0
0
0
0
0
0
0
0
0
0
0
0
0
0
0
0
0
0
0
0
0
0
0
0
0
0
0
0
0
0
0
0
0
0
0
0
0
0
0
0
0
0
0
0
0
0
0
0
0
0
0
0
0
0
0
0
0
0
0
0
0
0
0
0
0
0
0
0
0
0
0
0
0
0
0
0
0
0
0
0
0
0
0
0
0
0
0
0
0
0
0
0
0
0
0
0
0
0
0
0
0
0
0
0
0
0
0
0
0
0
0
0
0
0
0
0
0
0
0
0
0
0
0
0
0
0
0
0
0
0
0
0
0
0
0
0
0
0
0
0
0
0
0
0
0
0
0
0
0
0
0
0
0
0
0
0
0
0
0
0
0
0
0
0
0
0
0
0
0
0
0
0
0
0
0
0
0
0
0
0
0
0
0
0
0
0
0
0
0
0
0
0
0
0
0
0
0
0
0
0
0
0
0
0
0
0
0
0
0
0
0
0
0
0
0
0
0
0
0
0
0
0
0
0
0
0
0
0
0
0
0
0
0
0
0
0
0
0
0
0
0
0
0
0
0
0
0
0
0
0
0
0
0
0
0
0
0
0
0
0
0
0
0
0
0
0
0
0
0
0
0
0
0
0
0
0
0
0
0
0
0
0
0
0
0
0
0
0
0
0
0
0
0
0
0
0
0
0
0
0
0
0
0
0
0
0
0
0
0
0
0
0
0
0
0
0
0
0
0
0
0
0
0
0
0
0
0
0
0
0
0
0
0
0
0
0
0
0
0
0
0
0
0
0
0
0
0
0
0
0
0
0
0
0
0
0
0
0
0
0
0
0
0
0
0
0
0
0
0
0
0
0
0
0
0
0
0
0
0
0
0
0
0
0
0
0
0
0
0
0
0
0
0
0
0
0
0
0
0
0
0
0
0
0
0
0
0
0
0
0
0
0
0
0
0
0
0
0
0
0
0
0
0
0
0
0
0
0
0
0
0
0
0
0
0
0
0
0
0
0
0
0
0
0
0
0
0
0
0
0
0
0
0
0
0
0
0
0
0
0
0
0
0
0
0
0
0
0
0
0
0
0
0
0
0
0
0
0
0
0
0
0
0
0
0
0
0
0
0
0
0
0
0
0
0
0
0
0
0
0
0
0
0
0
0
0
0
0
0
0
0
0
0
0
0
0
0
0
0
0
0
0
0
0
0
0
0
0
0
0
0
0
0
0
0
0
0
0
0
0
0
0
0
0
0
0
0
0
0
0
0
0
0
0
0
0
0
0
0
0
0
0
0
0
0
0
0
0
0
0
0
0
0
0
0
0
0
0
0
0
0
0
0
0
0
0
0
0
0
0
0
0
0
0
0
0
0
0
0
0
0
0
0
0
0
0
0
0
0
0
0
0
0
0
0
0
0
0
0
0
0
0
0
0
0
0
0
0
0
0
0
0
0
0
0
0
0
0
0
0
0
0
0
0
0
0
0
0
0
0
0
0
0
0
0
0
0
0
0
0
0
0
0
0
0
0
0
0
0
0
0
0
0
0
0
0
0
0
0
0
0
0
0
0
0
0
0
0
0
0
0
0
0
0
0
0
0
0
0
0
0
0
0
0
0
0
0
0
0
0
0
0
0
0
0
0
0
0
0
0
0
0
0
0
0
0
0
0
0
0
0
0
0
0
0
0
0
0
0
0
0
0
0
0
0
0
0
0
0
0
0
0
0
0
0
0
0
0
0
0
0
0
0
0
0
0
0
0
0
0
0
0
0
0
0
0
0
0
0
0
0
0
0
0
0
0
0
0
0
0
0
0
0
0
0
0
0
0
0
0
0
0
0
0
0
0
0
0
0
0
0
0
0
0
0
0
0
0
0
0
0
0
0
0
0
0
0
0
0
0
0
0
0
0
0
0
0
0
0
0
0
0
0
0
0
0
0
0
0
0
0
0
0
0
0
0
0
0
0
0
0
0
0
0
0
0
0
0
0
0
0
0
0
0
0
0
0
0
0
0
0
0
0
0
0
0
0
0
0
0
0
0
0
0
0
0
0
0
0
0
0
0
0
0
0
0
0
0
0
0
0
0
0
0
0
0
0
0
0
0
0
0
0
0
0
0
0
0
0
0
0
0
0
0
0
0
0
0
0
0
0
0
0
0
0
0
0
0
0
0
0
0
0
0
0
0
0
0
0
0
0
0
0
0
0
0
0
0
0
0
0
0
0
0
0
0
0
0
0
0
0
0
0
0
0
0
0
0
0
0
0
0
0
0
0
0
0
0
0
0
0
0
0
0
0
0
0
0
0
0
0
0
0
0
0
0
0
0
0
0
0
0
0
0
0
0
0
0
0
0
0
0
0
0
0
0
0
0
0
0
0
0
0
0
0
0
0
0
0
0
0
0
0
0
0
0
0
0
0
0
0
0
0
0
0
0
0
0
0
0
1
1
1
1
1
1
1
1
1
1
3
3
3
3
3
3
3
3
3
3
2
2
2
2
2
2
2
2
2
2
2
2
2
2
2
2
2
2
2
2
2
2
2
2
2
2
2
2
2
2
2
2
2
2
2
2
2
2
2
4
4
4
4
4
4
4
4
4
4
4
4
4
4
4
4
4
4
4
4
4
4
4
4
4
4
4
4
4
4
4
4
4
4
4
4
4
4
4

LOOKUP_TABLE FreeFempp_table 5
1.00000000 0.00000000 0.00000000 1.00000000
1.00000000 1.00000000 0.00000000 1.00000000
1.00000000 0.00000000 1.00000000 1.00000000
0.00000000 1.00000000 0.00000000 1.00000000
0.00000000 1.00000000 1.00000000 1.00000000

POINT_DATA 588
FIELD FieldData 1
Density 1 588 float
9.90001023e-01 9.90001023e-01 9.90001023e-01 9.90001023e-01 9.90001023e-01 9.89844382e-01 9.90001023e-01 9.90001023e-01 9.68494177e-01 9.85297740e-01 9.89096344e-01 9.89981174e-01 9.88246679e-01 9.43683207e-01 9.58038270e-01 1.95795253e-01 4.60957736e-01 9.16094422e-01 7.70800292e-01 9.89204288e-01 9.90001023e-01 9.88913834e-01 9.88973260e-01 7.63928473e-01 9.40989673e-01 9.89345491e-01 9.40705359e-01 8.66237462e-01 2.22841036e-02 6.46186322e-02 1.16116619e-02 4.05833364e-01 9.84419465e-01 9.90001023e-01 9.60741460e-01 9.57955658e-01 8.21473777e-01 5.22404015e-01 7.40510821e-01 5.51047802e-01 3.99712980e-01 1.04289226e-01 1.01263560e-02 1.00989901e-02 1.23568989e-01 9.90001023e-01 9.52016354e-01 5.96049607e-01 8.22042406e-01 8.95726442e-01 2.62599438e-01 1.10434443e-01 6.00678563e-01 1.00989901e-02 2.79450081e-02 1.29604667e-01 3.07682544e-01 3.07187568e-02 1.07567646e-02 4.31785993e-02 9.90001023e-01 8.81140888e-01 5.97309351e-01 2.06075191e-01 5.42881668e-01 1.73600037e-02 4.07966115e-02 1.03075691e-02 1.00989901e-02 1.02971047e-02 1.01184389e-02 1.01233236e-02 1.64896585e-02 9.89758968e-01 4.75186795e-01 1.34097591e-01 1.49558587e-02 2.01059371e-01 1.02518760e-02 1.00998171e-02 1.00989901e-02 1.01642814e-02 1.00989901e-02 1.08410269e-02 9.83011365e-01 9.64465797e-01 9.15449679e-01 2.88916510e-02 1.42585993e-01 1.02940360e-02 2.42666490e-02 1.00993859e-02 1.00989901e-02 1.00989901e-02 1.00989901e-02 1.00989901e-02 8.16048503e-01 3.06276530e-01 1.47414356e-01 6.04874730e-01 6.65778145e-02 3.37605327e-02 1.63457785e-02 1.20093785e-02 1.31027065e-02 1.01497285e-02 1.11014228e-02 1.00989901e-02 1.00989901e-02 1.00989901e-02 1.00989901e-02 1.00989901e-02 1.00989901e-02 1.00989901e-02 1.00989901e-02 1.01660946e-02 1.00989901e-02 1.00999521e-02 1.00989901e-02 1.00989901e-02 1.00989901e-02 1.00989901e-02 1.00989901e-02 1.00989901e-02 1.00989901e-02 1.00989901e-02 1.00989901e-02 1.00989901e-02 1.00989901e-02 1.00989901e-02 1.00989901e-02 1.00989901e-02 1.00989901e-02 1.00989901e-02 1.00989901e-02 1.00989901e-02 1.00989901e-02 1.00989901e-02 1.00989901e-02 1.00989901e-02 1.00989901e-02 1.00989901e-02 1.00989901e-02 1.00989901e-02 1.00989901e-02 1.00989901e-02 1.00989901e-02 1.00989901e-02 1.00989901e-02 1.00989901e-02 1.00989901e-02 1.00989901e-02 1.00989901e-02 1.00989901e-02 1.00989901e-02 1.00990413e-02 1.00989901e-02 1.00989901e-02 1.00989901e-02 1.00989901e-02 1.00989901e-02 1.00989901e-02 1.00989901e-02 1.00989901e-02 1.01002194e-02 1.00989901e-02 1.00990077e-02 1.00989901e-02 1.00989901e-02 1.00989901e-02 1.00989901e-02 1.01068458e-02 1.00989901e-02 1.00989901e-02 1.00989901e-02 1.00989901e-02 1.00991959e-02 1.01006087e-02 1.00989901e-02 1.01034138e-02 1.00991288e-02 1.01845413e-02 1.01757664e-02 1.01284757e-02 1.00990226e-02 1.00989901e-02 1.00989901e-02 1.00989901e-02 1.00989901e-02 1.00989901e-02 1.01000974e-02 1.00989956e-02 1.03242015e-02 1.00989901e-02 1.00989901e-02 1.00989901e-02 1.01263560e-02 1.01712346e-02 1.01430425e-02 1.01247299e-02 1.01393657e-02 1.01233358e-02 1.17174080e-02 1.09588699e-02 1.22588295e-02 1.00996941e-02 1.00989901e-02 1.00989901e-02 1.07316375e-02 1.00989901e-02 1.00989901e-02 1.00989901e-02 1.01666423e-02 1.05537167e-02 1.49493953e-02 1.80275980e-02 1.00990571e-02 1.01002203e-02 1.00989901e-02 1.16116619e-02 1.36699909e-02 1.02983480e-02 1.78941209e-02 3.28603871e-02 1.10904370e-02 3.02832350e-02 2.35391539e-02 2.43981574e-02 3.13638858e-02 3.16239968e-02 2.23978050e-02 1.02629215e-02 1.89777687e-02 2.81882472e-02 1.88975167e-02 1.00989901e-02 1.00990590e-02 1.07489387e-02 1.70388613e-02 1.01100476e-02 5.41308634e-02 3.95716093e-02 1.07263345e-02 2.86107268e-02 1.01098595e-02 1.05848024e-02 1.01516228e-02 2.22841036e-02 7.55990669e-02 1.43682659e-02 4.40211892e-02 5.66018596e-02 3.08088809e-02 8.15080702e-02 6.77640438e-02 5.23934364e-02 6.77408129e-02 3.98227982e-02 8.37026983e-02 9.62786898e-02 1.16912775e-01 1.87450305e-01 5.33892997e-02 4.14761640e-02 7.61442557e-02 9.69027430e-02 8.05919692e-02 1.00989901e-02 1.43028880e-02 3.76380049e-02 1.00989901e-02 1.01449648e-02 9.19479281e-02 1.52588665e-01 1.18912905e-01 1.21724093e-02 1.14056775e-02 2.25207265e-02 1.73490383e-02 1.16099328e-01 1.03727281e-02 1.85607001e-02 1.15960510e-02 6.46186322e-02 1.64745033e-01 1.71638131e-01 1.23053610e-01 3.21141779e-02 1.64603472e-01 2.72713929e-01 1.03395484e-01 2.37037897e-01 1.40594304e-01 1.91582888e-01 1.96459189e-01 2.89591402e-01 2.50846267e-01 4.05495971e-01 3.70304942e-01 1.90604419e-01 1.48000091e-01 1.87302858e-01 2.61753201e-01 2.93194652e-01 1.98517099e-01 6.64895028e-02 1.00989901e-02 1.27326250e-01 2.54788905e-01 3.50846857e-01 2.89998770e-01 3.76975000e-01 4.51251194e-02 1.63457785e-02 2.67736446e-02 1.42245004e-02 4.52589802e-02 2.49387305e-02 7.04196617e-02 1.39553428e-01 2.35383540e-01 4.97019328e-02 2.20655855e-02 2.03692839e-02 5.18641651e-01 1.95795253e-01 3.71602654e-01 2.86597133e-01 1.33730307e-01 2.61600524e-01 3.24544400e-01 5.10106742e-01 3.96105826e-01 5.28775513e-01 2.93293923e-01 4.22979444e-01 3.59519899e-01 6.50288880e-01 5.96176982e-01 6.03898287e-01 6.61548793e-01 5.58900535e-01 5.63028038e-01 4.03951824e-01 4.38592702e-01 5.13687074e-01 4.87052798e-01 3.31068337e-01 5.04308939e-01 6.57157481e-01 5.46922684e-01 6.39476955e-01 8.43971744e-02 1.30056694e-01 1.43012404e-01 3.37605327e-02 5.29260412e-02 1.05729595e-01 3.91837917e-02 6.87027127e-02 1.33421153e-01 8.93641859e-02 2.78751671e-01 4.90776569e-01 4.39658493e-01 2.62769818e-01 1.49902090e-01 8.22437644e-01 4.60957736e-01 6.61368966e-01 7.45462954e-01 5.51117897e-01 3.35685939e-01 6.16001070e-01 6.18802726e-01 7.73492813e-01 7.62571394e-01 6.49999082e-01 6.98003829e-01 8.59964669e-01 8.37181687e-01 8.41797888e-01 8.53455126e-01 8.42006087e-01 7.74652660e-01 8.03968072e-01 7.36433864e-01 7.37846732e-01 7.40977526e-01 7.29293406e-01 6.27010882e-01 8.76796365e-01 7.74020255e-01 8.14162910e-01 1.84700698e-01 3.16386133e-01 3.77675563e-01 2.82397896e-01 4.03259009e-01 6.65778145e-02 1.32017523e-01 1.15016483e-01 2.20773235e-01 1.13323554e-01 2.50493765e-01 3.42923522e-01 2.65821278e-01 6.58609986e-01 7.60569632e-01 5.99372208e-01 4.37948793e-01 8.98920774e-01 8.99410248e-01 7.70800292e-01 8.59570026e-01 8.12277377e-01 6.92850351e-01 8.79219294e-01 8.78446341e-01 8.97896051e-01 8.87279689e-01 8.63264859e-01 9.55164611e-01 9.20905650e-01 9.57106888e-01 9.24486518e-01 9.37339544e-01 8.97803843e-01 8.78181815e-01 8.97505224e-01 8.25528145e-01 9.28471506e-01 8.56021643e-01 4.96260822e-01 6.49029136e-01 7.39990234e-01 6.47266865e-01 6.41412020e-01 9.24369216e-01 1.47414356e-01 2.58556485e-01 3.93010318e-01 3.48520726e-01 4.39479887e-01 4.52030748e-01 6.06473804e-01 6.69712365e-01 6.35139465e-01 8.67964566e-01 8.85002673e-01 8.27878594e-01 7.89042532e-01 9.48805392e-01 9.55520988e-01 9.16094422e-01 9.35692549e-01 9.21116590e-01 9.55241501e-01 9.45765674e-01 9.71180201e-01 9.84262109e-01 9.77374792e-01 9.85999703e-01 9.84489858e-01 9.76047456e-01 9.47849035e-01 9.61288691e-01 9.71468925e-01 8.76496494e-01 9.21553433e-01 8.42640281e-01 9.66287732e-01 3.06276530e-01 5.17736197e-01 6.65454149e-01 6.73682868e-01 7.38459826e-01 7.75938988e-01 8.92250001e-01 8.79303873e-01 9.38548803e-01 9.77187157e-01 9.48391438e-01 9.21235800e-01 9.87529039e-01 9.79997873e-01 9.68494177e-01 9.78119612e-01 9.82916832e-01 9.86992657e-01 9.88720775e-01 9.90001023e-01 9.88664210e-01 9.90001023e-01 9.89580810e-01 9.84659851e-01 9.87089157e-01 9.87366855e-01 9.45981383e-01 9.90001023e-01 6.04874730e-01 8.67842197e-01 8.49579096e-01 8.16048503e-01 8.99870515e-01 9.47393954e-01 9.50886726e-01 9.14893806e-01 9.87579465e-01 9.60658550e-01 9.81538594e-01 9.74167109e-01 9.79874074e-01 9.90001023e-01 9.85297740e-01 9.88840520e-01 9.90000904e-01 9.90000069e-01 9.89992142e-01 9.90001023e-01 9.90001023e-01 9.90001023e-01 9.90001023e-01 9.89855409e-01 9.89998460e-01 9.36438739e-01 9.15449679e-01 9.64465797e-01 9.80357885e-01 9.80885923e-01 9.89669502e-01 9.84615922e-01 9.89142120e-01 9.89191294e-01 9.90001023e-01 9.89096344e-01 9.90001023e-01 9.90001023e-01 9.90001023e-01 9.90001023e-01 9.90001023e-01 9.90001023e-01 9.90001023e-01 9.90001023e-01 9.89995837e-01 9.83011365e-01 9.89725232e-01 9.90001023e-01 9.89535749e-01 9.90001023e-01 9.90001023e-01 9.89844382e-01 9.90001023e-01 9.90001023e-01 9.90001023e-01 9.90001023e-01 9.90001023e-01 9.90001023e-01 9.90001023e-01 9.89758968e-01 9.89997149e-01 9.90001023e-01 9.90001023e-01 9.90001023e-01 9.90001023e-01 9.90001023e-01 9.90001023e-01 9.90001023e-01 9.90001023e-01 9.90001023e-01 9.90001023e-01 9.90001023e-01 9.90001023e-01 9.90001023e-01 9.90001023e-01 9.90001023e-01 9.90001023e-01 9.90001023e-01 9.90001023e-01 9.90001023e-01 9.90001023e-01 9.90001023e-01 9.90001023e-01 9.90001023e-01 9.90001023e-01 9.90001023e-01 9.90001023e-01 9.90001023e-01 
