# vtk DataFile Version 2.0
sol_toll1e-05_vf0.3iter18.vtk, Created by Freefem++ 
ASCII
DATASET UNSTRUCTURED_GRID
POINTS 590 float
0 0.75569446 0
0 0.77896726 0
0 0.53888853 0
0 0.39631908 0
0 0.65246172 0
0 0.71844957 0
0 0.25914153 0
0 0.30894226 0
0.0058312996 0.41155464 0
0.0066281781 0.68136343 0
0 0.79516915 0
0 0.80605151 0
0 0.8134175 0
0.0070445625 0.72126431 0
0.0059625928 0.51919611 0
0.0068991813 0.61199034 0
0.009675016 0.45422448 0
0 0.19903279 0
0 0.2114924 0
0 0.22960767 0
0.0064555751 0.3452943 0
0.011193217 0.65435781 0
0.011175186 0.60280315 0
0 0.82945411 0
0 0.83615914 0
0 0.84105898 0
0 0.81866528 0
0 0.82330322 0
0 0.84475216 0
0 0.84841276 0
0 0.85322026 0
0.0072312579 0.75325353 0
0.01135241 0.70308822 0
0.01384101 0.65096718 0
0.011285337 0.52810726 0
0 0.18278305 0
0 0.18995285 0
0.011255229 0.41261027 0
0.0071323939 0.27322521 0
0.0078139239 0.31414179 0
0 0.16956478 0
0 0.17640218 0
0 0.16119573 0
0.014314699 0.57890887 0
0 0.86054755 0
0 0.87270731 0
0.0081933433 0.77322694 0
0.0087335193 0.79154903 0
0.01285653 0.72850676 0
0.015197046 0.69315854 0
0.016062631 0.63944736 0
0 0.14770116 0
0 0.15380311 0
0 0.14140875 0
0.014078083 0.48027349 0
0.016320139 0.51279588 0
0.0077854288 0.25588599 0
0.012822417 0.37590472 0
0.011445515 0.3156588 0
0.0086765129 0.24221373 0
0.017362011 0.59797475 0
0 0.13357808 0
0 0.12179018 0
0.018531031 0.54484896 0
0 0.89399282 0
0.010023849 0.80651372 0
0.013932508 0.75174325 0
0.017196057 0.71819392 0
0.01821646 0.66891953 0
0.0094085409 0.22780176 0
0.015789656 0.41309399 0
0.017831558 0.44601144 0
0.013318692 0.29995754 0
0.015255783 0.34662191 0
0.015006264 0.28942733 0
0.019953329 0.60904896 0
0 0.10146738 0
0.010278391 0.21064947 0
0.019741818 0.47960705 0
0 1 0
0 0.9320131 0
0.011231074 0.83348583 0
0.016895259 0.75971677 0
0.020015085 0.6952767 0
0.016264991 0.2786801 0
0.018461446 0.37783474 0
0.017863944 0.32924417 0
0.021595293 0.51776971 0
0.022187196 0.63458747 0
0.010237405 0.17381829 0
0 0.065088139 0
0 0 0
0.016435031 0.24293628 0
0.020715794 0.39795364 0
0.010191919 1 0
0.012143272 0.88389858 0
0.01918306 0.79250499 0
0.022164819 0.71638683 0
0.020241889 0.32211667 0
0.023003348 0.41268083 0
0.023887498 0.53319614 0
0.025520243 0.62867706 0
0.012582128 0.13648419 0
0.010191919 0 0
0.020442263 0.23804386 0
0.021750901 1 0
0.022352404 0.85534021 0
0.027437293 0.73077037 0
0.030709252 0.58336892 0
0.025132775 0.3395817 0
0.02719845 0.47529488 0
0.020720125 0.13260267 0
0.021750901 0 0
0.028038726 0.24652587 0
0.038586124 1 0
0.035919656 0.81936031 0
0.037398065 0.61335886 0
0.033782889 0.40961116 0
0.033104651 0.14002844 0
0.038586124 0 0
0.0403866 0.27211628 0
0.069092881 1 0
0.058923825 0.84044877 0
0.049452908 0.66907483 0
0.047425321 0.44222059 0
0.054542958 0.15347369 0
0.069092881 0 0
0.058638815 0.29100975 0
0.12436985 1 0
0.10147453 0.83895681 0
0.073724925 0.69284793 0
0.062561137 0.52957441 0
0.072527226 0.38804923 0
0.077195357 0.20971143 0
0.12436985 0 0
0.096571662 0.12384238 0
0.092951693 0.27271695 0
0.1092633 0.3304862 0
0.1096069 0.68581822 0
0.15427845 0.77513905 0
0.22431762 1 0
0.17217223 0.8847825 0
0.092585504 0.52666332 0
0.10992513 0.41179578 0
0.13104326 0.1965026 0
0.22431762 0 0
0.17020763 0.10999637 0
0.40315338 0 0
1 0 0
0.68084079 0 0
0.1492027 0.26824371 0
0.16601208 0.33667629 0
0.13658337 0.56566173 0
0.17064386 0.67063378 0
0.22819247 0.7549327 0
0.40315338 1 0
0.2431146 0.83047872 0
0.2960985 0.90730758 0
1 1 0
0.68084079 1 0
0.15542225 0.44723324 0
0.20880058 0.35710582 0
0.19248188 0.22016602 0
0.23057511 0.16559211 0
0.30540549 0.10050663 0
0.48608225 0.074069644 0
1 0.065088139 0
0.74669072 0.068406746 0
0.23894063 0.25774391 0
0.24927447 0.29303126 0
0.228318 0.66393048 0
0.19546821 0.54034951 0
0.28739748 0.75098351 0
0.31571881 0.80873455 0
0.48388553 0.9243742 0
0.38131873 0.86227608 0
1 0.9320131 0
0.73926478 0.93389835 0
1 0.10146738 0
0.21905429 0.41806702 0
0.26513506 0.3291475 0
0.3045366 0.19849766 0
0.38029969 0.15552489 0
0.51250166 0.11937821 0
0.73930067 0.11331322 0
0.34217389 0.22097831 0
0.3148417 0.26368451 0
0.32318547 0.74042853 0
0.27603625 0.67493049 0
0.24070319 0.57108571 0
0.23858043 0.47119237 0
0.3590968 0.79120545 0
0.39876643 0.82467907 0
0.46627268 0.85050468 0
0.5544553 0.88540826 0
1 0.89399282 0
0.74665675 0.88992058 0
1 0.12179018 0
0.77194563 0.13432267 0
0.26626518 0.37724156 0
0.31175963 0.30231804 0
0.67487552 0.15064859 0
0.43340894 0.1838668 0
0.56550536 0.15026692 0
0.39439535 0.22191885 0
0.36433712 0.25486107 0
0.3627491 0.75475244 0
0.28579829 0.38093278 0
0.26460755 0.44180286 0
0.3167654 0.68301692 0
0.27876612 0.61057924 0
0.2668191 0.5283024 0
0.41254737 0.79517234 0
0.46996071 0.82701501 0
1 0.87270731 0
0.57985774 0.85621009 0
0.75865492 0.86613611 0
1 0.13357808 0
0.7855932 0.14874454 0
0.31092047 0.33133962 0
0.3927252 0.25278 0
0.34921267 0.28676234 0
0.4724657 0.19706285 0
0.63041703 0.16288685 0
0.53467747 0.17370289 0
0.43353966 0.22455868 0
0.27791106 0.47635959 0
0.35000142 0.71236278 0
0.38911508 0.7557583 0
0.47584562 0.80964164 0
0.31219602 0.36009028 0
0.29034211 0.41779815 0
0.32688397 0.65322375 0
0.29866757 0.60401176 0
0.29066518 0.54100324 0
0.43342431 0.78210011 0
1 0.86054755 0
1 0.85322026 0
0.53658038 0.83244743 0
0.78722189 0.85316756 0
0.63501546 0.84630229 0
1 0.84841276 0
1 0.14140875 0
0.68581903 0.16589021 0
0.82290881 0.15377465 0
0.34385331 0.3142545 0
0.42401278 0.2469375 0
0.37819541 0.27951278 0
0.50555298 0.20124069 0
0.57364005 0.18022937 0
0.47063102 0.22296044 0
0.64771031 0.17598182 0
0.36047019 0.70319218 0
0.29195189 0.48108652 0
0.39673114 0.74497266 0
0.54866023 0.81906354 0
0.49625597 0.80055319 0
0.46093037 0.78148819 0
0.3554313 0.324489 0
0.33280909 0.34311669 0
0.31190183 0.39118778 0
0.35101514 0.66740689 0
0.30132819 0.4345591 0
0.30519351 0.53347311 0
0.32778756 0.62579952 0
0.31182727 0.58811668 0
0.43034394 0.7621796 0
0.83816246 0.84197365 0
0.8134328 0.84565586 0
0.60149623 0.83230422 0
0.68955184 0.84024761 0
1 0.84475216 0
0.84336316 0.83842874 0
0.8791674 0.15486658 0
1 0.14770116 0
0.75606485 0.16603664 0
0.37530369 0.29714569 0
0.45910438 0.24049893 0
0.41222363 0.26743513 0
0.53143258 0.2040574 0
0.58071342 0.18836191 0
0.51136725 0.21883357 0
0.68986035 0.17652004 0
0.63154184 0.18555851 0
0.48762039 0.23782745 0
0.37989843 0.71046675 0
0.30317928 0.47999886 0
0.40471037 0.73386273 0
0.38398241 0.69641946 0
0.61297344 0.82210568 0
0.45635694 0.76435845 0
0.560115 0.8074456 0
0.50590848 0.79042776 0
0.48170072 0.77663791 0
0.38235643 0.30791109 0
0.36414781 0.33877044 0
0.34326713 0.35530146 0
0.32721888 0.37827743 0
0.31652629 0.42089989 0
0.35520148 0.65255671 0
0.31350878 0.50123842 0
0.31174535 0.45532055 0
0.31847774 0.55223385 0
0.33915668 0.62082566 0
0.32557374 0.59235347 0
0.43205734 0.74608872 0
0.73483986 0.83610835 0
0.65919541 0.83117209 0
0.76134632 0.83254324 0
1 0.84105898 0
0.85630263 0.83505639 0
0.8417449 0.16341904 0
0.92741593 0.15668055 0
1 0.15380311 0
0.75729077 0.17308324 0
0.8366849 0.16926682 0
0.40847197 0.28385516 0
0.44055579 0.26204461 0
0.46926296 0.25641119 0
0.57722388 0.19916026 0
0.5398431 0.21737771 0
0.69396628 0.18308172 0
0.63616429 0.19110458 0
0.51397167 0.23708875 0
0.41123963 0.72384118 0
0.37657791 0.67002068 0
0.40223672 0.70236143 0
0.62730224 0.81425037 0
0.66550872 0.82398526 0
0.45527128 0.74804263 0
0.47761995 0.76194588 0
0.58407396 0.8028785 0
0.5424651 0.79249096 0
0.50047201 0.76973852 0
0.51323581 0.7803151 0
0.3904316 0.31694907 0
0.41317316 0.29662394 0
0.38338609 0.33960257 0
0.36435246 0.36135183 0
0.34952425 0.37416343 0
0.3335004 0.39766397 0
0.32634153 0.4354049 0
0.3586749 0.63469472 0
0.32530472 0.52021058 0
0.32118246 0.47323979 0
0.33302823 0.56890002 0
0.34105737 0.60190337 0
0.43351339 0.73068394 0
1 0.83615914 0
0.70831364 0.82897932 0
0.77486339 0.82826657 0
0.8725392 0.83147826 0
0.9189258 0.16376715 0
1 0.16119573 0
0.77337972 0.17871507 0
0.85686221 0.17353167 0
0.44165097 0.27836579 0
0.48264201 0.26173219 0
0.52003138 0.24498096 0
0.59062194 0.20403929 0
0.56103276 0.21876992 0
0.72528149 0.18765685 0
0.67420432 0.19250615 0
0.6338434 0.19900755 0
0.55042237 0.23058973 0
0.42350815 0.71502631 0
0.41180339 0.69582681 0
0.38695635 0.66775358 0
0.62800285 0.8052126 0
0.67167591 0.81532569 0
0.7021569 0.82235628 0
0.4550904 0.73263276 0
0.47794487 0.74525716 0
0.49659508 0.75610933 0
0.5844744 0.7942007 0
0.5494374 0.78452484 0
0.52069861 0.76171411 0
0.53378144 0.77351398 0
0.43566271 0.29901317 0
0.41249343 0.31536519 0
0.40169421 0.33917027 0
0.37951073 0.36793437 0
0.33235112 0.45922018 0
0.36198821 0.38945243 0
0.34081719 0.43733218 0
0.34509256 0.4082666 0
0.35623234 0.61269043 0
0.3758027 0.63681657 0
0.33932884 0.53986749 0
0.33389054 0.49476617 0
0.35006398 0.58553204 0
0.44499462 0.71512313 0
0.90616621 0.82759841 0
1 0.82945411 0
0.74595614 0.82342093 0
0.81466196 0.82364484 0
0.93158979 0.17087092 0
0.87293046 0.17823093 0
1 0.16956478 0
0.79664334 0.1843033 0
0.46791015 0.28020463 0
0.5143027 0.25791576 0
0.55123832 0.24008832 0
0.73996457 0.19314698 0
0.60739186 0.21060593 0
0.58504576 0.22183447 0
0.6941223 0.19815383 0
0.65317197 0.20486292 0
0.58152873 0.23119393 0
0.42843114 0.6961283 0
0.40302073 0.66761987 0
0.35210746 0.55742068 0
0.34404664 0.47561371 0
0.61968581 0.794219 0
0.66627555 0.80433468 0
0.73848217 0.81747789 0
0.70786815 0.81293839 0
0.47484981 0.72794225 0
0.49980321 0.74023331 0
0.51500413 0.74891894 0
0.57646176 0.78130461 0
0.5357516 0.75316958 0
0.55109932 0.76631241 0
0.45816496 0.2980537 0
0.42714176 0.32368681 0
0.40030847 0.35972909 0
0.37476919 0.39947578 0
0.3508216 0.45167656 0
0.35766955 0.4228016 0
0.38989357 0.63461704 0
0.36954372 0.61026786 0
0.34876916 0.51019126 0
0.3646791 0.58817756 0
0.46723979 0.7124781 0
0.44612483 0.69559153 0
1 0.82330322 0
0.87932626 0.82037165 0
0.79055655 0.81715277 0
0.85438085 0.1848818 0
0.93067788 0.17899016 0
1 0.17640218 0
[...]
CELL_DATA 1178
Scalars  Label int 1
LOOKUP_TABLE FreeFempp_table
0
0
0
0
0
0
0
0
0
0
0
0
0
0
0
0
0
0
0
0
0
0
0
0
0
0
0
0
0
0
0
0
0
0
0
0
0
0
0
0
0
0
0
0
0
0
0
0
0
0
0
0
0
0
0
0
0
0
0
0
0
0
0
0
0
0
0
0
0
0
0
0
0
0
0
0
0
0
0
0
0
0
0
0
0
0
0
0
0
0
0
0
0
0
0
0
0
0
0
0
0
0
0
0
0
0
0
0
0
0
0
0
0
0
0
0
0
0
0
0
0
0
0
0
0
0
0
0
0
0
0
0
0
0
0
0
0
0
0
0
0
0
0
0
0
0
0
0
0
0
0
0
0
0
0
0
0
0
0
0
0
0
0
0
0
0
0
0
0
0
0
0
0
0
0
0
0
0
0
0
0
0
0
0
0
0
0
0
0
0
0
0
0
0
0
0
0
0
0
0
0
0
0
0
0
0
0
0
0
0
0
0
0
0
0
0
0
0
0
0
0
0
0
0
0
0
0
0
0
0
0
0
0
0
0
0
0
0
0
0
0
0
0
0
0
0
0
0
0
0
0
0
0
0
0
0
0
0
0
0
0
0
0
0
0
0
0
0
0
0
0
0
0
0
0
0
0
0
0
0
0
0
0
0
0
0
0
0
0
0
0
0
0
0
0
0
0
0
0
0
0
0
0
0
0
0
0
0
0
0
0
0
0
0
0
0
0
0
0
0
0
0
0
0
0
0
0
0
0
0
0
0
0
0
0
0
0
0
0
0
0
0
0
0
0
0
0
0
0
0
0
0
0
0
0
0
0
0
0
0
0
0
0
0
0
0
0
0
0
0
0
0
0
0
0
0
0
0
0
0
0
0
0
0
0
0
0
0
0
0
0
0
0
0
0
0
0
0
0
0
0
0
0
0
0
0
0
0
0
0
0
0
0
0
0
0
0
0
0
0
0
0
0
0
0
0
0
0
0
0
0
0
0
0
0
0
0
0
0
0
0
0
0
0
0
0
0
0
0
0
0
0
0
0
0
0
0
0
0
0
0
0
0
0
0
0
0
0
0
0
0
0
0
0
0
0
0
0
0
0
0
0
0
0
0
0
0
0
0
0
0
0
0
0
0
0
0
0
0
0
0
0
0
0
0
0
0
0
0
0
0
0
0
0
0
0
0
0
0
0
0
0
0
0
0
0
0
0
0
0
0
0
0
0
0
0
0
0
0
0
0
0
0
0
0
0
0
0
0
0
0
0
0
0
0
0
0
0
0
0
0
0
0
0
0
0
0
0
0
0
0
0
0
0
0
0
0
0
0
0
0
0
0
0
0
0
0
0
0
0
0
0
0
0
0
0
0
0
0
0
0
0
0
0
0
0
0
0
0
0
0
0
0
0
0
0
0
0
0
0
0
0
0
0
0
0
0
0
0
0
0
0
0
0
0
0
0
0
0
0
0
0
0
0
0
0
0
0
0
0
0
0
0
0
0
0
0
0
0
0
0
0
0
0
0
0
0
0
0
0
0
0
0
0
0
0
0
0
0
0
0
0
0
0
0
0
0
0
0
0
0
0
0
0
0
0
0
0
0
0
0
0
0
0
0
0
0
0
0
0
0
0
0
0
0
0
0
0
0
0
0
0
0
0
0
0
0
0
0
0
0
0
0
0
0
0
0
0
0
0
0
0
0
0
0
0
0
0
0
0
0
0
0
0
0
0
0
0
0
0
0
0
0
0
0
0
0
0
0
0
0
0
0
0
0
0
0
0
0
0
0
0
0
0
0
0
0
0
0
0
0
0
0
0
0
0
0
0
0
0
0
0
0
0
0
0
0
0
0
0
0
0
0
0
0
0
0
0
0
0
0
0
0
0
0
0
0
0
0
0
0
0
0
0
0
0
0
0
0
0
0
0
0
0
0
0
0
0
0
0
0
0
0
0
0
0
0
0
0
0
0
0
0
0
0
0
0
0
0
0
0
0
0
0
0
0
0
0
0
0
0
0
0
0
0
0
0
0
0
0
0
0
0
0
0
0
0
0
0
0
0
0
0
0
0
0
0
0
0
0
0
0
0
0
0
0
0
0
0
0
0
0
0
0
0
0
0
0
0
0
0
0
0
0
0
0
0
0
0
0
0
0
0
0
0
0
0
0
0
0
0
0
0
0
0
0
0
0
0
0
0
0
0
0
0
0
0
0
0
0
0
0
0
0
0
0
0
0
0
0
0
0
0
0
0
0
0
0
0
0
0
0
0
0
0
0
0
0
0
0
0
0
0
0
0
0
0
0
0
0
0
0
0
0
0
0
0
0
0
0
0
0
0
0
0
0
0
0
0
0
0
0
0
0
0
0
0
0
0
0
0
0
0
0
0
0
0
0
0
0
0
0
0
0
0
0
0
0
0
0
0
0
0
0
0
0
0
0
0
0
0
0
0
0
0
0
0
0
0
0
0
0
1
1
1
1
1
1
1
1
1
3
3
3
3
3
3
3
3
3
2
2
2
2
2
2
2
2
2
2
2
2
2
2
2
2
2
2
2
2
2
2
2
2
2
2
2
2
2
2
2
2
2
2
2
2
2
2
2
4
4
4
4
4
4
4
4
4
4
4
4
4
4
4
4
4
4
4
4
4
4
4
4
4
4
4
4
4
4
4
4
4
4
4
4
4
4
4

LOOKUP_TABLE FreeFempp_table 5
1.00000000 0.00000000 0.00000000 1.00000000
1.00000000 1.00000000 0.00000000 1.00000000
1.00000000 0.00000000 1.00000000 1.00000000
0.00000000 1.00000000 0.00000000 1.00000000
0.00000000 1.00000000 1.00000000 1.00000000

POINT_DATA 590
FIELD FieldData 1
Density 1 590 float
9.89823043e-01 9.88657892e-01 9.90001023e-01 9.90000188e-01 9.90000427e-01 9.89992857e-01 9.89946842e-01 9.89991367e-01 9.89873171e-01 9.78582680e-01 9.84232366e-01 9.72323418e-01 9.44480240e-01 9.19032514e-01 9.89806235e-01 9.88068998e-01 9.89847958e-01 9.84163344e-01 9.88633275e-01 9.89709914e-01 9.88339782e-01 9.48420942e-01 9.79079306e-01 5.70841968e-01 3.13868284e-01 1.52412489e-01 8.89690459e-01 7.84723938e-01 7.41085485e-02 3.73619497e-02 2.00979169e-02 7.81755924e-01 7.81581521e-01 8.63248289e-01 9.88496125e-01 9.23770368e-01 9.68600154e-01 9.88732040e-01 8.80921721e-01 9.60970759e-01 6.17033064e-01 8.18421423e-01 3.31796408e-01 9.54303205e-01 1.22238500e-02 1.01806065e-02 4.30536419e-01 1.70825496e-01 5.18824399e-01 4.81848091e-01 5.84728062e-01 4.84317169e-02 1.33144781e-01 2.01872978e-02 9.46415484e-01 8.34310591e-01 7.24480689e-01 9.36619878e-01 8.80966544e-01 4.34313715e-01 6.08362973e-01 1.20614367e-02 1.03031434e-02 2.96638310e-01 1.00992378e-02 4.13864292e-02 1.87601596e-01 1.64217696e-01 1.91607073e-01 1.66422382e-01 7.08353877e-01 3.95138770e-01 5.35871744e-01 5.77154279e-01 1.85785130e-01 7.35900328e-02 1.01038292e-02 5.58430105e-02 1.07982203e-01 1.00989901e-02 1.00989901e-02 1.38091659e-02 5.36038280e-02 2.90325731e-02 7.65715688e-02 2.61951506e-01 1.76017940e-01 1.77746639e-02 2.11642515e-02 1.58953648e-02 1.00990050e-02 1.00989901e-02 2.39659697e-02 3.44217680e-02 1.00989901e-02 1.07331863e-02 1.28033040e-02 1.37997651e-02 2.69261152e-02 1.07729910e-02 1.06849791e-02 1.13614248e-02 1.07762218e-02 1.00989901e-02 1.25269108e-02 1.00989901e-02 1.02677671e-02 1.03523731e-02 1.01782130e-02 1.02101294e-02 1.01312790e-02 1.02520604e-02 1.00989901e-02 1.02224303e-02 1.00989901e-02 1.01160370e-02 1.01110023e-02 1.01002669e-02 1.01191020e-02 1.00989901e-02 1.01008192e-02 1.00989901e-02 1.00989966e-02 1.00990459e-02 1.00992145e-02 1.00994576e-02 1.00989901e-02 1.00990301e-02 1.00989901e-02 1.00989901e-02 1.00989901e-02 1.00989938e-02 1.00989910e-02 1.00990208e-02 1.00989901e-02 1.00989901e-02 1.00989901e-02 1.00989901e-02 1.00989910e-02 1.00989901e-02 1.00989901e-02 1.00989901e-02 1.00989901e-02 1.00989910e-02 1.00989901e-02 1.00989901e-02 1.00989901e-02 1.00989901e-02 1.00989901e-02 1.00989901e-02 1.00989901e-02 1.00989901e-02 1.00990012e-02 1.00989938e-02 1.00989966e-02 1.00989901e-02 1.00989901e-02 1.00989901e-02 1.00989901e-02 1.00989901e-02 1.00990031e-02 1.00989938e-02 1.00989938e-02 1.00989910e-02 1.00989910e-02 1.00989938e-02 1.00990050e-02 1.00990320e-02 1.00989910e-02 1.00989901e-02 1.00995488e-02 1.00992536e-02 1.00995358e-02 1.00990767e-02 1.00989901e-02 1.00989910e-02 1.00989901e-02 1.00990254e-02 1.01038292e-02 1.00991558e-02 1.00991093e-02 1.00992685e-02 1.00992722e-02 1.00995218e-02 1.01025263e-02 1.00997062e-02 1.00990208e-02 1.01039177e-02 1.01080015e-02 1.01057403e-02 1.00998161e-02 1.01021482e-02 1.00993207e-02 1.00993942e-02 1.00993449e-02 1.00992378e-02 1.01002194e-02 1.03031434e-02 1.01748174e-02 1.01033850e-02 1.00993328e-02 1.04685947e-02 1.01089207e-02 1.01280464e-02 1.01134190e-02 1.01102786e-02 1.01531055e-02 1.01959296e-02 1.01057170e-02 1.02979885e-02 1.02607980e-02 1.01904804e-02 1.01147983e-02 1.01085166e-02 1.01806065e-02 1.01162121e-02 1.01196337e-02 1.20614367e-02 1.20048756e-02 1.05408542e-02 1.06602041e-02 1.01204161e-02 1.02584008e-02 1.10216076e-02 1.03577850e-02 1.03978263e-02 1.01955021e-02 1.05525320e-02 1.05535844e-02 1.01755997e-02 1.43288383e-02 1.04551418e-02 1.67744290e-02 1.11532137e-02 1.21888034e-02 1.04727866e-02 1.22238500e-02 2.00979169e-02 1.01294108e-02 1.06984759e-02 1.06407935e-02 3.73619497e-02 2.01872978e-02 1.80705022e-02 2.44082101e-02 1.70828458e-02 1.92820281e-02 2.52810493e-02 1.15317628e-02 1.25537934e-02 1.30059151e-02 2.98914742e-02 1.53497774e-02 1.20210322e-02 1.28681734e-02 1.03194816e-02 1.11825820e-02 1.51007632e-02 6.60002157e-02 2.83931475e-02 2.20575109e-02 2.66738422e-02 2.25603078e-02 2.98277959e-02 3.99139486e-02 2.10431386e-02 1.51712941e-02 2.94598676e-02 1.56008778e-02 1.10188453e-02 1.78324673e-02 7.41085485e-02 5.58928661e-02 6.06635734e-02 4.84317169e-02 5.06105982e-02 6.33238703e-02 5.17789759e-02 3.98953892e-02 2.12143399e-02 2.49140486e-02 4.89003658e-02 7.89892301e-02 6.55183345e-02 1.00971468e-01 2.98392475e-02 2.93474365e-02 4.47073132e-02 9.53180119e-02 1.36122704e-02 3.85665148e-02 1.97733026e-02 1.78067144e-02 3.94012630e-02 1.60687029e-01 1.71675012e-01 9.91875976e-02 4.54281643e-02 3.77492867e-02 8.08941051e-02 6.28234297e-02 7.78542534e-02 8.32349733e-02 1.21885978e-01 8.91301706e-02 5.86546250e-02 3.59444767e-02 2.06452888e-02 9.25004706e-02 1.52412489e-01 1.29816309e-01 1.42905012e-01 1.35778338e-01 1.33144781e-01 1.58770293e-01 2.61450380e-01 1.65442079e-01 1.40863389e-01 2.85747737e-01 4.25263606e-02 1.19240515e-01 2.38208756e-01 1.47270709e-01 2.63173312e-01 1.06798433e-01 1.21737041e-01 1.90825626e-01 3.74487862e-02 5.39933071e-02 1.19409531e-01 1.37276411e-01 7.54733831e-02 9.74848866e-02 2.23569304e-01 7.38973171e-02 3.07516277e-01 3.64690125e-01 4.28358465e-01 3.61752212e-01 2.59498417e-01 1.24223493e-01 1.87627569e-01 2.25165322e-01 1.69713870e-01 1.80209801e-01 2.06869617e-01 2.20587239e-01 2.25298941e-01 3.13868284e-01 9.67753306e-02 1.98638991e-01 2.47298822e-01 3.22322547e-01 3.31796408e-01 3.42031062e-01 5.06663203e-01 4.17992890e-01 5.06009042e-01 5.61105549e-01 1.38967752e-01 2.73911476e-01 5.50416470e-01 4.30140048e-01 3.03944349e-01 5.39686680e-01 3.50412786e-01 4.24146146e-01 3.04283351e-01 1.14656180e-01 1.02818355e-01 1.86354473e-01 3.53428066e-01 2.88982719e-01 4.08715606e-01 2.27205843e-01 1.69251665e-01 5.50530493e-01 2.85691977e-01 7.05338299e-01 6.13207519e-01 6.84281170e-01 6.44320071e-01 3.64411652e-01 5.49597442e-01 4.30753201e-01 2.88348317e-01 4.07378554e-01 4.87687856e-01 3.68155956e-01 3.60140800e-01 4.66339886e-01 6.12804592e-01 4.90235806e-01 5.70841968e-01 2.89555818e-01 4.24572349e-01 6.13356769e-01 7.43706346e-01 6.17033064e-01 6.47172093e-01 7.18454838e-01 7.92534709e-01 7.76389182e-01 7.94583738e-01 3.64129066e-01 5.41492224e-01 7.77086675e-01 6.46736622e-01 8.32739055e-01 6.99738204e-01 6.03471339e-01 6.09171808e-01 6.21012092e-01 4.01025057e-01 3.38819563e-01 5.09077907e-01 4.14193541e-01 6.37699068e-01 6.63489521e-01 7.49608278e-01 4.76963282e-01 8.00585628e-01 6.05435550e-01 8.62012923e-01 8.64039063e-01 8.23975384e-01 7.95148730e-01 7.08523512e-01 6.67881250e-01 7.40834892e-01 7.25368738e-01 6.48864210e-01 7.40452528e-01 8.48838985e-01 8.56944203e-01 7.84723938e-01 7.26836741e-01 6.43330395e-01 8.27498019e-01 8.47226143e-01 8.18421423e-01 8.79864812e-01 8.82894635e-01 9.35919166e-01 9.04063046e-01 7.10153520e-01 8.83186221e-01 8.92729878e-01 8.00332844e-01 8.08001399e-01 8.58714283e-01 9.27816868e-01 8.92259538e-01 8.73851061e-01 6.85566723e-01 6.57866061e-01 6.72609866e-01 7.58285701e-01 8.64793360e-01 9.22076166e-01 8.03774655e-01 8.79564106e-01 9.21825349e-01 9.31762397e-01 9.16286230e-01 8.77200603e-01 8.85933280e-01 8.48104715e-01 8.86860371e-01 9.51964676e-01 8.89690459e-01 8.87671411e-01 8.77086639e-01 9.27635312e-01 9.23770368e-01 9.43915725e-01 9.67414796e-01 9.72152472e-01 9.56392169e-01 9.24314380e-01 9.28389370e-01 9.66782510e-01 9.47205305e-01 9.34786499e-01 8.80851328e-01 8.64892840e-01 8.57567132e-01 9.07005012e-01 9.50550854e-01 9.53247547e-01 9.19075906e-01 9.63178754e-01 9.72014546e-01 9.65349317e-01 9.76047695e-01 9.58222806e-01 9.50897336e-01 9.84587252e-01 9.81746614e-01 9.44480240e-01 9.41273570e-01 9.48635399e-01 9.69828188e-01 9.68600154e-01 9.80371416e-01 9.84896958e-01 9.86989558e-01 9.84249234e-01 9.73414183e-01 9.81454849e-01 9.82362509e-01 9.73538041e-01 9.51165140e-01 9.41798687e-01 9.77157533e-01 9.71135974e-01 9.84515071e-01 9.86851811e-01 9.87621129e-01 9.84640896e-01 9.89092231e-01 9.89181221e-01 9.88415003e-01 9.72323418e-01 9.72414255e-01 9.80867863e-01 9.88508224e-01 9.86249089e-01 9.84163344e-01 9.89322007e-01 9.89440501e-01 9.89771843e-01 9.88959432e-01 9.89326537e-01 9.84080553e-01 9.87059176e-01 9.89747643e-01 9.89283919e-01 9.89862978e-01 9.89459038e-01 9.89930928e-01 9.89930391e-01 9.89835024e-01 9.89618599e-01 9.84232366e-01 9.87519801e-01 9.89823997e-01 9.89770174e-01 9.88633275e-01 9.89987969e-01 9.89975572e-01 9.89126921e-01 9.89989817e-01 9.89959240e-01 9.89985287e-01 9.89997506e-01 9.89990950e-01 9.89975631e-01 9.89889145e-01 9.88657892e-01 9.89811599e-01 9.89991367e-01 9.89709914e-01 9.89987493e-01 9.90000248e-01 9.90000725e-01 9.90000188e-01 9.90000606e-01 9.90001023e-01 9.89999652e-01 9.89993870e-01 9.89823043e-01 9.90000963e-01 9.89946842e-01 9.89999413e-01 9.90001023e-01 9.90001023e-01 9.90000963e-01 9.90001023e-01 9.90000665e-01 9.89992857e-01 9.90000784e-01 9.89991367e-01 9.90001023e-01 9.90001023e-01 9.90001023e-01 9.90000427e-01 9.90000188e-01 9.90001023e-01 9.90001023e-01 
