# vtk DataFile Version 2.0
sol_toll1e-05_vf0.3iter5.vtk, Created by Freefem++ 
ASCII
DATASET UNSTRUCTURED_GRID
POINTS 361 float
1 1 0
0.67471214 1 0
0.82080983 1 0
0.55414989 1 0
0.85333478 0.97070615 0
0.62841448 0.97175672 0
1 0.95672867 0
0.74464305 0.95157028 0
0.52496117 0.9615183 0
0.44091375 1 0
0.86390393 0.93537439 0
0.64069711 0.93829222 0
0.37478184 0.97697795 0
1 0.90441461 0
0.75967288 0.89969787 0
0.86367156 0.89706487 0
0.57046039 0.91743195 0
0.43262082 0.95660282 0
0.48473288 0.92182365 0
0.3373727 1 0
0.67420517 0.89753264 0
0.28816124 0.97019899 0
0.34762666 0.94239501 0
0.27922247 0.92840245 0
1 0.85344836 0
0.88223322 0.84648555 0
0.78490543 0.84414222 0
0.56328947 0.8769114 0
0.66805209 0.8610129 0
0.40713114 0.91211115 0
0.48922969 0.87309719 0
0.24096777 1 0
0.22433469 0.94457749 0
0.33270823 0.89506877 0
0.25447906 0.88721795 0
1 0.80996738 0
0.8868499 0.79632577 0
0.78001548 0.79883103 0
0.60172149 0.81841709 0
0.67843549 0.81665565 0
0.41870268 0.86260413 0
0.51158645 0.82005585 0
0.15745268 1 0
0.16410302 0.94954972 0
0.18907472 0.90338822 0
0.3252792 0.83700017 0
0.37000889 0.8498603 0
0.19803049 0.85083109 0
0.25639795 0.83713406 0
0 0.90441461 0
0 0.76867473 0
0 0.80996738 0
0 0.85344836 0
0.30218859 0.79072774 0
1 0.76867473 0
0.91723448 0.75383257 0
0.83883251 0.75160622 0
0.73663067 0.76082327 0
0.63949348 0.76606882 0
0.43703793 0.80080484 0
0.54060955 0.77594186 0
0.098388509 1 0
0.11087272 0.94278528 0
0.13839666 0.88293012 0
0.37849424 0.77399605 0
0.23661362 0.78746032 0
0.1610664 0.81213991 0
0 0.95672867 0
0.0096907506 0.90620591 0
0.0099055908 0.82731625 0
0 0.72874985 0
0.34481274 0.73468247 0
0 0.65507911 0
0 1 0
0 0.69200114 0
0.011582737 1 0
0 0.61767542 0
0 0.58165301 0
0.18694795 0.7601835 0
0.47121906 0.74332167 0
1 0.72874985 0
0.90460723 0.71341823 0
0.81214339 0.71000621 0
0.72620157 0.71402799 0
0.6405927 0.7258359 0
0.55493127 0.73374422 0
0.061384156 1 0
0.071382671 0.92505304 0
0.089776728 0.87895481 0
0.11062093 0.82275881 0
0.46059967 0.70640291 0
0.26288927 0.72897237 0
0.14288092 0.74369191 0
0.014864357 0.95753851 0
0.019200839 0.89571003 0
0.010895041 0.73897417 0
0.018976876 0.82511195 0
0.36537058 0.68286198 0
0.45819405 0.66620134 0
0.024515607 1 0
0.013490258 0.66860277 0
0.014035644 0.59169958 0
0 0.54217642 0
0.21490192 0.701504 0
0.56987931 0.68856921 0
0.099185193 0.76475607 0
1 0.69200114 0
0.89073296 0.67558735 0
0.78158592 0.66609308 0
0.66984406 0.68275086 0
0.039698156 1 0
0.052094817 0.90228644 0
0.070750393 0.80893565 0
0.55629822 0.64950367 0
0.32641556 0.66024602 0
0.13244974 0.68214376 0
0.1905596 0.66389159 0
0.026565929 0.93079079 0
0.026981509 0.85596293 0
0.02204261 0.761115 0
0.44622405 0.62274751 0
0.54019043 0.61052946 0
0.032616238 0.96239252 0
0.023577581 0.67460238 0
0.013699697 0.51484762 0
0.023521115 0.57159985 0
0 0.49900171 0
0.28356187 0.63585121 0
0.63977858 0.64702887 0
0.091634884 0.69697556 0
0 0.4062834 0
0 0.22613604 0
0 0.31584649 0
0 0.36400181 0
0 0.45293972 0
0 0.27073388 0
0.14171115 0.61514682 0
1 0.65507911 0
0.88753397 0.63700734 0
0.80199477 0.62006806 0
0.71732642 0.63137473 0
0.040277569 0.8867779 0
0.051403691 0.77326027 0
0.066823463 0.6855117 0
0.64114368 0.60506951 0
0.3924274 0.59740272 0
0.2086107 0.60316462 0
0.29830128 0.592423 0
0.03345609 0.85493793 0
0.029665406 0.76698873 0
0.49500097 0.57151959 0
0.59191843 0.56752022 0
0.029895296 0.6479731 0
0.023105217 0.46642325 0
0.013490248 0.43961939 0
0.028917398 0.52199366 0
0.096966832 0.61115079 0
0.012659571 0.35979374 0
0 0.18136508 0
0.010055108 0.20465007 0
0.011609888 0.27772626 0
0.14345716 0.55754047 0
0.22084943 0.54399487 0
0 0.13697598 0
1 0.61767542 0
0.89297404 0.59569018 0
0.81117644 0.58423373 0
0.74123774 0.5830733 0
0.040950193 0.74654128 0
0.051338036 0.63085269 0
0.071418417 0.58186404 0
0.68050095 0.56215851 0
0.40508107 0.55416508 0
0.31765771 0.544084 0
0.034861995 0.70847905 0
0.55959353 0.52747383 0
0.48077485 0.5296506 0
0.64825954 0.52872477 0
0.032711282 0.54382773 0
0.0231268 0.36714662 0
0.02938691 0.41375102 0
0.10389874 0.53868004 0
0.021955908 0.27203179 0
0.011159915 0.13113521 0
0.019088518 0.19080475 0
0.16130841 0.5031507 0
0.23591141 0.48997333 0
0.31608013 0.49786627 0
0 0.090296869 0
0 0.042707501 0
0.10582583 0.48588639 0
0.13045338 0.4542268 0
1 0.58165301 0
0.82815124 0.55107441 0
0.91386203 0.56125839 0
0.74797469 0.53247562 0
0.040613997 0.58585366 0
0.056861717 0.52703172 0
0.046148868 0.49268116 0
0.074567424 0.49567765 0
0.41269141 0.50345007 0
0.035947722 0.52196231 0
0.60348852 0.48935012 0
0.50821423 0.48753345 0
0.69355259 0.49789197 0
0.033387386 0.37465887 0
0.029300365 0.29426224 0
0.027500104 0.19316083 0
0.021832581 0.12138535 0
0.011935304 0.066529345 0
0.1872278 0.4482819 0
0.27197091 0.44126278 0
0.36990104 0.46153653 0
0 0 0
0.086091893 0.43026771 0
0.12604522 0.40599348 0
1 0.54217642 0
0.83347906 0.50632918 0
0.90857127 0.5205904 0
0.77230629 0.48762476 0
0.038336952 0.38702 0
0.05804842 0.43013817 0
0.044534642 0.37779327 0
0.44271191 0.44632899 0
0.63720161 0.452359 0
0.54687104 0.44875887 0
0.71381932 0.46259918 0
0.033860206 0.24053364 0
0.030857445 0.12888973 0
0.023409144 0.063265233 0
0.011582737 0 0
0.17851591 0.39301889 0
0.23868241 0.37909472 0
0.33906008 0.41094938 0
0.088207398 0.37249263 0
0.06438941 0.3611114 0
0.11487617 0.3401506 0
1 0.49900171 0
0.90530405 0.46885869 0
0.82244561 0.45412414 0
0.75003197 0.43489944 0
0.039516394 0.22034249 0
0.048675357 0.30537312 0
0.47784718 0.40913969 0
0.37594534 0.38010803 0
0.67152973 0.41694302 0
0.577384 0.40661799 0
0.036306668 0.085739307 0
0.024515607 0 0
0.15223143 0.32148225 0
0.27024704 0.34005861 0
0.19571413 0.31012397 0
0.077500803 0.29525462 0
0.056781359 0.25851298 0
0.10275007 0.25694253 0
0.48888667 0.37400687 0
1 0.45293972 0
0.93097362 0.41991609 0
0.86014087 0.41537668 0
0.78537844 0.40173996 0
0.70905321 0.38342776 0
0.050193844 0.1647886 0
0.3897065 0.34146503 0
0.29179909 0.30466027 0
0.6249597 0.37186327 0
0.53462094 0.3526594 0
0.039698156 0 0
0.050706822 0.072350884 0
0.14686272 0.24373463 0
0.20588972 0.25642384 0
0.07063331 0.19926676 0
0.10350039 0.18058388 0
0.42688661 0.31669055 0
0.24814432 0.24622142 0
1 0.4062834 0
0.90387002 0.3755376 0
0.81325207 0.36388507 0
0.73588591 0.34636261 0
0.65003384 0.33361611 0
0.074317403 0.1165851 0
0.32163919 0.26631368 0
0.56002131 0.31921032 0
0.4589027 0.29045439 0
0.061384156 0 0
0.073578212 0.050456356 0
0.15174952 0.17215767 0
0.20069638 0.1898363 0
0.10996113 0.11581512 0
0.36518034 0.25103267 0
0.25582191 0.20133733 0
1 0.36400181 0
0.85449459 0.33460518 0
0.92894083 0.33144267 0
0.77150972 0.3075229 0
0.67492533 0.29632085 0
0.56917238 0.27769432 0
0.11396148 0.054712073 0
0.30464297 0.19256448 0
0.47870592 0.26072291 0
0.39188279 0.21503871 0
0.098388509 0 0
0.18560931 0.13265513 0
0.15288011 0.093689725 0
0.23914196 0.1461711 0
0.33009097 0.16121932 0
0.58489881 0.24589403 0
1 0.31584649 0
0.8575333 0.29356621 0
0.93371934 0.28637345 0
0.78708578 0.26243274 0
0.68299108 0.25528172 0
0.47045155 0.20904746 0
0.15745268 0 0
0.18220551 0.043815032 0
0.28801432 0.12352215 0
0.37785344 0.14869901 0
0.21896543 0.089039262 0
0.53777442 0.19572459 0
0.61021954 0.20145231 0
1 0.27073388 0
0.88705289 0.25126921 0
0.70715677 0.21685375 0
0.78682045 0.21551932 0
0.44354524 0.14445356 0
0.24096777 0 0
0.2599156 0.036782146 0
0.27894994 0.072612309 0
0.33479669 0.092780969 0
0.3915645 0.091338317 0
0.50566317 0.13805136 0
0.60404691 0.16042418 0
1 0.22613604 0
0.87869732 0.21271983 0
0.67006926 0.15214828 0
0.7747615 0.16781235 0
0.45468924 0.090911812 0
0.3373727 0 0
0.34853129 0.042660378 0
0.4290009 0.046407723 0
0.53881821 0.10564051 0
1 0.18136508 0
0.88623062 0.17588252 0
0.59566475 0.087854676 0
0.67818916 0.10419767 0
0.7779513 0.12789751 0
0.51634553 0.06182216 0
0.44091375 0 0
0.51478968 0.028297693 0
1 0.13697598 0
0.86718735 0.12674677 0
0.62111877 0.046080598 0
0.73087342 0.077241302 0
0.55414989 0 0
1 0.090296869 0
0.85263262 0.079712559 0
0.74068758 0.036736251 0
0.67471214 0 0
1 0.042707501 0
0.87821956 0.03878551 0
0.82080983 0 0
1 0 0

CELLS 720 2808
3 213 230 209
3 209 189 213
3 247 228 229
3 229 230 248
3 247 229 248
3 228 207 208
3 183 184 159
3 189 209 188
3 209 229 208
3 188 209 183
3 230 229 209
3 188 183 163
3 247 248 266
3 313 296 312
3 316 313 325
3 316 301 302
3 326 316 325
3 302 285 287
3 303 301 316
3 286 285 301
3 251 250 232
3 286 269 285
3 232 211 231
3 249 251 232
3 254 249 236
3 254 268 249
3 250 233 232
3 302 287 296
3 316 302 313
3 301 285 302
3 289 273 286
3 302 296 313
3 268 271 285
3 279 267 284
3 267 247 266
3 263 250 269
3 242 241 261
3 241 222 220
3 253 242 261
3 253 235 242
3 207 182 184
3 227 207 228
3 206 182 207
3 284 283 300
3 247 267 261
3 266 283 267
3 271 287 285
3 270 271 254
3 270 279 271
3 267 279 261
3 284 296 279
3 284 300 296
3 287 279 296
3 267 283 284
3 304 314 315
3 297 304 299
3 282 288 299
3 289 303 297
3 297 314 304
3 312 296 300
3 313 324 325
3 325 324 336
3 326 314 316
3 337 326 325
3 327 314 326
3 338 328 337
3 315 314 327
3 313 312 324
3 346 337 336
3 360 357 358
3 354 353 348
3 355 354 351
3 358 353 354
3 354 355 358
3 348 349 354
3 349 348 340
3 351 349 344
3 351 354 349
3 335 339 329
3 338 335 328
3 345 339 335
3 356 359 355
3 343 334 333
3 341 332 334
3 340 341 349
3 340 331 341
3 341 331 332
3 350 342 345
3 350 343 342
3 355 351 350
3 356 355 350
3 358 357 353
3 359 358 355
3 359 360 358
3 344 343 351
3 333 322 321
3 344 334 343
3 344 341 334
3 319 320 331
3 334 332 322
3 344 349 341
3 345 347 350
3 339 345 342
3 350 352 356
3 343 350 351
3 347 352 350
3 338 347 345
3 338 346 347
3 329 323 335
3 337 346 338
3 308 306 292
3 319 308 320
3 319 306 308
3 305 294 295
3 322 309 321
3 294 278 295
3 293 294 310
3 293 276 277
3 321 309 310
3 291 275 276
3 291 292 275
3 233 212 211
3 244 233 250
3 223 212 233
3 264 245 246
3 203 200 223
3 223 225 203
3 150 151 121
3 145 150 120
3 176 175 150
3 187 211 212
3 200 187 212
3 173 162 187
3 231 215 236
3 233 211 232
3 244 243 223
3 263 244 250
3 263 262 244
3 91 71 65
3 91 114 97
3 78 91 65
3 103 114 91
3 116 103 92
3 115 116 92
3 146 147 116
3 127 114 103
3 145 120 114
3 172 176 150
3 127 147 145
3 173 187 200
3 150 175 151
3 145 147 172
3 203 175 176
3 191 210 185
3 181 190 185
3 135 131 159
3 231 236 249
3 210 231 211
3 210 215 231
3 260 264 278
3 277 260 278
3 259 240 260
3 239 219 240
3 259 239 240
3 238 217 239
3 257 238 258
3 256 237 238
3 226 224 245
3 219 226 240
3 259 258 239
3 167 195 193
3 239 217 219
3 194 165 193
3 204 177 202
3 144 151 171
3 243 225 223
3 204 202 224
3 175 203 202
3 121 120 150
3 144 121 151
3 113 98 121
3 245 264 260
3 226 245 240
3 224 246 245
3 204 224 226
3 246 243 255
3 202 225 224
3 202 203 225
3 225 243 246
3 233 244 223
3 246 265 264
3 225 246 224
3 255 265 246
3 244 262 243
3 263 273 280
3 282 298 281
3 255 272 265
3 297 280 289
3 272 288 282
3 265 272 282
3 262 263 280
3 255 262 272
3 255 243 262
3 280 273 289
3 272 280 288
3 272 262 280
3 254 252 270
3 268 254 271
3 269 268 285
3 269 251 268
3 236 252 254
3 249 232 231
3 268 251 249
3 269 250 251
3 215 234 236
3 281 264 265
3 282 281 265
3 298 295 281
3 281 295 278
3 299 298 282
3 288 297 299
3 288 280 297
3 269 273 263
3 269 286 273
3 286 301 303
3 315 311 299
3 299 311 298
3 304 315 299
3 303 314 297
3 286 303 289
3 316 314 303
3 326 337 327
3 335 338 345
3 315 328 323
3 327 337 328
3 336 337 325
3 311 295 298
3 323 311 315
3 317 305 311
3 323 317 311
3 327 328 315
3 329 317 323
3 328 335 323
3 339 330 329
3 330 321 318
3 329 330 318
3 333 334 322
3 339 333 330
3 339 342 333
3 320 307 309
3 332 331 320
3 320 308 307
3 292 291 307
3 290 292 306
3 290 275 292
3 260 240 245
3 277 259 260
3 291 276 293
3 275 258 276
3 258 238 239
3 276 258 259
3 257 275 274
3 318 321 310
3 317 318 310
3 317 329 318
3 307 291 293
3 322 320 309
3 308 292 307
3 330 333 321
3 333 342 343
3 346 352 347
3 320 322 332
3 293 309 307
3 293 310 309
3 206 207 227
3 234 215 214
3 235 234 214
3 252 236 234
3 235 252 234
3 253 261 270
3 238 237 218
3 221 214 199
3 221 242 235
3 221 222 242
3 220 227 241
3 253 252 235
3 222 198 220
3 271 279 287
3 253 270 252
3 261 279 270
3 257 274 256
3 238 257 256
3 258 275 257
3 277 294 293
3 259 277 276
3 278 294 277
3 281 278 264
3 305 317 310
3 294 305 310
3 295 311 305
3 275 290 274
3 151 175 177
3 171 151 177
3 177 204 195
3 128 140 109
3 120 98 97
3 172 150 145
3 98 90 71
3 121 98 120
3 113 90 98
3 144 113 121
3 167 144 171
3 195 167 171
3 139 108 140
3 167 139 140
3 166 165 139
3 128 104 113
3 167 140 144
3 109 104 128
3 97 71 91
3 120 97 114
3 98 71 97
3 237 216 218
3 215 210 191
3 190 214 191
3 206 205 180
3 179 206 180
3 154 179 153
3 182 206 179
3 158 159 131
3 228 247 241
3 208 229 228
3 184 208 207
3 184 183 208
3 160 184 182
3 159 158 183
3 208 183 209
3 160 159 184
3 157 160 182
3 132 135 160
3 158 163 183
3 227 205 206
3 218 194 193
3 238 218 217
3 216 194 218
3 219 204 226
3 194 216 192
3 164 165 192
3 202 177 175
3 219 217 195
3 177 195 171
3 219 195 204
3 167 193 166
3 217 193 195
3 217 218 193
3 221 199 197
3 160 135 159
3 215 191 214
3 107 82 108
3 83 109 108
3 128 113 144
3 85 104 109
3 85 79 104
3 64 90 79
3 53 71 64
3 47 66 65
3 34 47 48
3 44 63 47
3 78 103 91
3 66 78 65
3 66 92 78
3 200 176 172
3 146 116 115
3 162 146 136
3 186 187 162
3 210 186 185
3 210 211 186
3 173 146 162
3 127 103 116
3 147 127 116
3 173 147 146
3 173 172 147
3 185 186 162
3 200 203 176
3 173 200 172
3 212 223 200
3 145 114 127
3 201 178 205
3 133 160 157
3 161 181 185
3 181 170 199
3 190 181 199
3 214 190 199
3 191 185 190
3 161 156 181
3 201 196 174
3 124 125 101
3 134 154 126
3 153 125 124
3 132 160 133
3 180 178 155
3 227 220 205
3 220 198 196
3 205 220 201
3 241 247 261
3 222 241 242
3 227 228 241
3 214 221 235
3 197 198 221
3 197 169 198
3 170 197 199
3 170 169 197
3 198 169 196
3 157 154 134
3 133 157 130
3 182 179 157
3 222 221 198
3 154 124 126
3 154 153 124
3 130 157 134
3 157 179 154
3 178 180 205
3 155 153 180
3 155 125 153
3 164 138 165
3 107 137 106
3 82 107 81
3 138 137 107
3 101 123 100
3 196 169 168
3 174 196 168
3 201 220 196
3 142 143 112
3 168 142 141
3 169 143 142
3 178 201 174
3 123 125 152
3 152 155 178
3 170 143 169
3 106 80 81
3 80 55 81
3 14 26 25
3 140 108 109
3 144 140 128
3 167 166 139
3 138 108 139
3 165 138 139
3 193 165 166
3 194 192 165
3 164 137 138
3 82 56 57
3 106 81 107
3 82 57 83
3 83 57 58
3 84 83 58
3 60 84 58
3 85 109 84
3 82 81 56
3 108 82 83
3 108 138 107
3 55 56 81
3 54 55 80
3 54 36 55
3 36 35 25
3 59 41 40
3 84 60 85
3 58 41 60
3 39 27 38
3 37 39 57
3 28 27 39
3 56 37 57
3 20 16 28
3 104 90 113
3 83 84 109
3 59 40 46
3 25 15 14
3 36 25 26
3 35 24 25
3 38 41 58
3 57 38 58
3 27 30 38
3 16 27 28
3 16 18 27
3 16 20 11
3 29 33 40
3 17 29 18
3 17 22 29
3 47 34 44
3 53 48 65
3 71 53 65
3 64 59 45
3 45 46 33
3 53 45 48
3 53 64 45
3 90 64 71
3 59 60 41
3 45 59 46
3 79 85 59
3 38 30 41
3 45 34 48
3 30 29 40
3 23 34 33
3 29 22 33
3 21 32 23
3 6 4 10
3 8 16 11
3 9 8 3
3 22 21 23
3 33 22 23
3 17 12 22
3 8 17 18
3 12 19 21
3 9 12 17
3 9 19 12
3 15 24 13
3 10 15 13
3 2 7 4
3 7 15 10
3 11 14 7
3 8 11 5
3 20 14 11
3 3 8 5
3 36 56 55
3 28 37 26
3 28 39 37
3 36 37 56
3 35 36 54
3 26 37 36
3 20 26 14
3 20 28 26
3 25 24 15
3 0 2 4
3 1 5 7
3 7 5 11
3 15 7 14
3 10 4 7
3 7 2 1
3 13 6 10
3 6 0 4
3 1 3 5
3 93 73 67
3 68 94 93
3 49 68 67
3 49 52 68
3 68 93 67
3 68 52 69
3 52 51 69
3 69 94 68
3 70 69 50
3 96 94 69
3 70 95 69
3 119 118 96
3 74 95 70
3 69 51 50
3 118 94 96
3 112 105 89
3 111 142 112
3 86 111 87
3 141 142 111
3 143 129 112
3 63 66 47
3 43 63 44
3 88 89 63
3 118 117 94
3 122 99 117
3 148 122 117
3 110 99 122
3 93 75 73
3 117 93 94
3 117 99 93
3 95 74 72
3 119 95 100
3 96 69 95
3 87 111 112
3 149 152 174
3 149 123 152
3 118 149 148
3 174 152 178
3 148 174 168
3 148 149 174
3 100 123 119
3 100 77 101
3 72 76 95
3 95 76 100
3 100 76 77
3 102 101 77
3 153 179 180
3 124 101 102
3 152 125 155
3 123 101 125
3 102 126 124
3 123 149 119
3 136 115 129
3 62 63 43
3 89 92 66
3 92 103 78
3 148 117 118
3 93 99 75
3 95 119 96
3 122 148 141
3 149 118 119
3 111 86 110
3 88 87 112
3 88 62 87
3 89 88 112
3 89 66 63
3 168 141 148
3 32 44 34
3 31 32 21
3 43 44 32
3 43 42 62
3 92 89 105
3 62 88 63
3 62 42 61
3 61 87 62
3 61 86 87
3 43 31 42
3 161 136 156
3 162 161 185
3 156 143 170
3 181 156 170
3 136 129 156
3 162 136 161
3 129 105 112
3 156 129 143
3 115 105 129
3 146 115 136
3 92 105 115
3 186 211 187
3 142 168 169
3 110 141 111
3 110 122 141
3 65 48 47
3 34 23 32
3 12 21 22
3 32 31 43
3 18 16 8
3 9 17 8
3 30 27 18
3 29 30 18
3 40 41 30
3 59 85 60
3 59 64 79
3 33 46 40
3 33 34 45
3 90 104 79
3 38 57 39
3 19 31 21
2 213 230
2 230 248
2 248 266
2 266 283
2 283 300
2 300 312
2 312 324
2 324 336
2 336 346
2 346 352
2 352 356
2 356 359
2 359 360
2 73 75
2 75 99
2 99 110
2 110 86
2 86 61
2 61 42
2 42 31
2 31 19
2 19 9
2 9 3
2 3 1
2 1 2
2 2 0
2 360 357
2 357 353
2 353 348
2 348 340
2 340 331
2 331 319
2 319 306
2 306 290
2 290 274
2 274 256
2 256 237
2 237 216
2 216 192
2 192 164
2 164 137
2 137 106
2 106 80
2 80 54
2 54 35
2 35 24
2 24 13
2 13 6
2 6 0
2 213 189
2 189 188
2 188 163
2 163 158
2 158 131
2 131 135
2 135 132
2 132 133
2 133 130
2 130 134
2 134 126
2 126 102
2 102 77
2 77 76
2 76 72
2 72 74
2 74 70
2 70 50
2 50 51
2 51 52
2 52 49
2 49 67
2 67 73

CELL_TYPES 720
5 5 5 5 5 5 5 5 5 5 5 5 5 5 5 5 5 5 5 5 5 5 5 5 5 5 5 5 5 5 5 5 5 5 5 5 5 5 5 5 5 5 5 5 5 5 5 5 5 5 5 5 5 5 5 5 5 5 5 5 5 5 5 5 5 5 5 5 5 5 5 5 5 5 5 5 5 5 5 5 5 5 5 5 5 5 5 5 5 5 5 5 5 5 5 5 5 5 5 5 5 5 5 5 5 5 5 5 5 5 5 5 5 5 5 5 5 5 5 5 5 5 5 5 5 5 5 5 5 5 5 5 5 5 5 5 5 5 5 5 5 5 5 5 5 5 5 5 5 5 5 5 5 5 5 5 5 5 5 5 5 5 5 5 5 5 5 5 5 5 5 5 5 5 5 5 5 5 5 5 5 5 5 5 5 5 5 5 5 5 5 5 5 5 5 5 5 5 5 5 5 5 5 5 5 5 5 5 5 5 5 5 5 5 5 5 5 5 5 5 5 5 5 5 5 5 5 5 5 5 5 5 5 5 5 5 5 5 5 5 5 5 5 5 5 5 5 5 5 5 5 5 5 5 5 5 5 5 5 5 5 5 5 5 5 5 5 5 5 5 5 5 5 5 5 5 5 5 5 5 5 5 5 5 5 5 5 5 5 5 5 5 5 5 5 5 5 5 5 5 5 5 5 5 5 5 5 5 5 5 5 5 5 5 5 5 5 5 5 5 5 5 5 5 5 5 5 5 5 5 5 5 5 5 5 5 5 5 5 5 5 5 5 5 5 5 5 5 5 5 5 5 5 5 5 5 5 5 5 5 5 5 5 5 5 5 5 5 5 5 5 5 5 5 5 5 5 5 5 5 5 5 5 5 5 5 5 5 5 5 5 5 5 5 5 5 5 5 5 5 5 5 5 5 5 5 5 5 5 5 5 5 5 5 5 5 5 5 5 5 5 5 5 5 5 5 5 5 5 5 5 5 5 5 5 5 5 5 5 5 5 5 5 5 5 5 5 5 5 5 5 5 5 5 5 5 5 5 5 5 5 5 5 5 5 5 5 5 5 5 5 5 5 5 5 5 5 5 5 5 5 5 5 5 5 5 5 5 5 5 5 5 5 5 5 5 5 5 5 5 5 5 5 5 5 5 5 5 5 5 5 5 5 5 5 5 5 5 5 5 5 5 5 5 5 5 5 5 5 5 5 5 5 5 5 5 5 5 5 5 5 5 5 5 5 5 5 5 5 5 5 5 5 5 5 5 5 5 5 5 5 5 5 5 5 5 5 5 5 5 5 5 5 5 5 5 5 5 5 5 5 5 5 5 5 5 5 5 5 5 5 5 5 5 5 5 5 5 5 5 5 5 5 5 5 5 5 5 5 5 5 5 5 5 5 5 5 5 5 5 5 5 5 5 5 5 5 5 5 5 5 5 5 5 5 5 5 5 5 5 5 5 5 5 5 5 5 5 3 3 3 3 3 3 3 3 3 3 3 3 3 3 3 3 3 3 3 3 3 3 3 3 3 3 3 3 3 3 3 3 3 3 3 3 3 3 3 3 3 3 3 3 3 3 3 3 3 3 3 3 3 3 3 3 3 3 3 3 3 3 3 3 3 3 3 3 3 3 3 3 
CELL_DATA 720
Scalars  Label int 1
LOOKUP_TABLE FreeFempp_table
0
0
0
0
0
0
0
0
0
0
0
0
0
0
0
0
0
0
0
0
0
0
0
0
0
0
0
0
0
0
0
0
0
0
0
0
0
0
0
0
0
0
0
0
0
0
0
0
0
0
0
0
0
0
0
0
0
0
0
0
0
0
0
0
0
0
0
0
0
0
0
0
0
0
0
0
0
0
0
0
0
0
0
0
0
0
0
0
0
0
0
0
0
0
0
0
0
0
0
0
0
0
0
0
0
0
0
0
0
0
0
0
0
0
0
0
0
0
0
0
0
0
0
0
0
0
0
0
0
0
0
0
0
0
0
0
0
0
0
0
0
0
0
0
0
0
0
0
0
0
0
0
0
0
0
0
0
0
0
0
0
0
0
0
0
0
0
0
0
0
0
0
0
0
0
0
0
0
0
0
0
0
0
0
0
0
0
0
0
0
0
0
0
0
0
0
0
0
0
0
0
0
0
0
0
0
0
0
0
0
0
0
0
0
0
0
0
0
0
0
0
0
0
0
0
0
0
0
0
0
0
0
0
0
0
0
0
0
0
0
0
0
0
0
0
0
0
0
0
0
0
0
0
0
0
0
0
0
0
0
0
0
0
0
0
0
0
0
0
0
0
0
0
0
0
0
0
0
0
0
0
0
0
0
0
0
0
0
0
0
0
0
0
0
0
0
0
0
0
0
0
0
0
0
0
0
0
0
0
0
0
0
0
0
0
0
0
0
0
0
0
0
0
0
0
0
0
0
0
0
0
0
0
0
0
0
0
0
0
0
0
0
0
0
0
0
0
0
0
0
0
0
0
0
0
0
0
0
0
0
0
0
0
0
0
0
0
0
0
0
0
0
0
0
0
0
0
0
0
0
0
0
0
0
0
0
0
0
0
0
0
0
0
0
0
0
0
0
0
0
0
0
0
0
0
0
0
0
0
0
0
0
0
0
0
0
0
0
0
0
0
0
0
0
0
0
0
0
0
0
0
0
0
0
0
0
0
0
0
0
0
0
0
0
0
0
0
0
0
0
0
0
0
0
0
0
0
0
0
0
0
0
0
0
0
0
0
0
0
0
0
0
0
0
0
0
0
0
0
0
0
0
0
0
0
0
0
0
0
0
0
0
0
0
0
0
0
0
0
0
0
0
0
0
0
0
0
0
0
0
0
0
0
0
0
0
0
0
0
0
0
0
0
0
0
0
0
0
0
0
0
0
0
0
0
0
0
0
0
0
0
0
0
0
0
0
0
0
0
0
0
0
0
0
0
0
0
0
0
0
0
0
0
0
0
0
0
0
0
0
0
0
0
0
0
0
0
0
0
0
0
0
0
0
0
0
0
0
0
0
0
0
0
0
0
0
0
0
0
0
0
0
0
0
0
0
0
0
0
0
0
0
0
0
0
0
0
0
0
0
0
0
0
0
0
0
0
0
0
0
0
0
0
0
0
0
0
0
0
0
0
0
0
0
0
0
0
0
1
1
1
1
1
1
1
1
1
1
1
1
1
3
3
3
3
3
3
3
3
3
3
3
3
3
2
2
2
2
2
2
2
2
2
2
2
2
2
2
2
2
2
2
2
2
2
2
2
4
4
4
4
4
4
4
4
4
4
4
4
4
4
4
4
4
4
4
4
4
4
4

LOOKUP_TABLE FreeFempp_table 5
1.00000000 0.00000000 0.00000000 1.00000000
1.00000000 1.00000000 0.00000000 1.00000000
1.00000000 0.00000000 1.00000000 1.00000000
0.00000000 1.00000000 0.00000000 1.00000000
0.00000000 1.00000000 1.00000000 1.00000000

POINT_DATA 361
FIELD FieldData 1
Density 1 361 float
1.01614587e-05 1.01614587e-05 1.01614587e-05 1.01614587e-05 2.36228778e-04 1.77236594e-04 6.51648152e-04 6.89481618e-04 2.22251721e-04 1.01614587e-05 2.20508338e-03 1.09890080e-03 6.96023999e-05 1.58952232e-02 1.38201462e-02 2.09290329e-02 2.38521257e-03 2.09875157e-04 1.22630014e-03 1.01614587e-05 1.10278474e-02 5.97204926e-05 2.44278548e-04 2.45189323e-04 2.34806165e-01 2.78964847e-01 2.32835412e-01 1.54612595e-02 6.34592474e-02 1.13203551e-03 9.81166959e-03 1.01614587e-05 1.05562707e-04 1.09183218e-03 6.36367360e-04 7.61895835e-01 8.38895202e-01 7.32793152e-01 2.17455104e-01 3.80287528e-01 7.44087994e-03 9.01222900e-02 1.01614587e-05 5.62095192e-05 2.18984394e-04 5.38538629e-03 6.81827869e-03 6.90146757e-04 2.03482783e-03 1.58952232e-02 9.60109055e-01 7.61895835e-01 2.34806165e-01 1.16201127e-02 9.60109055e-01 9.74672139e-01 9.70344067e-01 9.18252349e-01 7.78060913e-01 6.96886703e-02 4.20134783e-01 1.01614587e-05 4.03464801e-05 1.74282613e-04 6.18582219e-02 3.95194767e-03 6.75058109e-04 6.51648152e-04 3.08129238e-03 8.09812471e-02 9.92883027e-01 8.60446915e-02 9.99532461e-01 1.01614587e-05 9.98308420e-01 1.01614587e-05 9.99853551e-01 9.99944448e-01 2.31828541e-03 4.29439694e-01 9.92883027e-01 9.95239556e-01 9.93218243e-01 9.84344900e-01 9.40440416e-01 7.89310813e-01 1.01614587e-05 3.16437581e-05 8.25918833e-05 2.37643500e-04 6.30908012e-01 1.86826289e-02 1.05588755e-03 1.55685804e-04 8.67268885e-04 5.59776902e-01 6.15341123e-03 2.85938084e-01 8.00339580e-01 1.01614587e-05 6.76915646e-01 8.01974833e-01 9.99978602e-01 9.35780816e-03 9.47192729e-01 3.13762372e-04 9.98308420e-01 9.98676002e-01 9.97937918e-01 9.88942206e-01 1.01614587e-05 2.97701226e-05 1.11721529e-04 9.73719180e-01 1.90308526e-01 1.42679084e-03 7.54843140e-03 5.81872664e-05 3.09403258e-04 9.33784246e-03 8.64075303e-01 9.81955945e-01 1.54856571e-05 1.27509804e-02 8.77802670e-01 2.45291926e-02 9.99988079e-01 1.00208662e-01 9.93381023e-01 4.09029104e-04 9.99921501e-01 9.50193524e-01 9.98745620e-01 9.99736845e-01 9.99975860e-01 9.92979825e-01 2.73371139e-03 9.99532461e-01 9.99572217e-01 9.99483824e-01 9.98428047e-01 2.87636794e-05 8.30526842e-05 2.12404673e-04 9.97179806e-01 7.17138827e-01 1.93021335e-02 1.93448022e-01 3.43644861e-05 3.38730722e-04 9.72929895e-01 9.96008873e-01 6.15184777e-04 3.31008770e-02 8.64727795e-01 1.44736399e-03 7.25238526e-04 7.97643542e-01 6.70019805e-01 1.48124427e-01 5.38055539e-01 3.54666519e-03 3.51148173e-02 1.54446542e-01 9.99853551e-01 9.99862373e-01 9.99782085e-01 9.99543548e-01 6.59996294e-05 1.50555512e-04 3.44745698e-04 9.99201357e-01 8.27618718e-01 3.52688015e-01 6.18939812e-05 9.94472146e-01 9.73052919e-01 9.98943806e-01 1.35459049e-04 2.09082849e-02 9.04345536e-04 1.07639225e-03 1.03767933e-02 8.03122763e-03 5.45575377e-03 6.59168418e-03 5.64653501e-02 3.66326779e-01 1.17809102e-02 6.09131472e-04 1.16355543e-03 2.43851379e-03 9.99944448e-01 9.99903023e-01 9.99948800e-01 9.99780357e-01 1.03554521e-04 2.18880770e-04 1.44236154e-04 4.19651740e-04 8.70596409e-01 9.33408955e-05 9.97840106e-01 9.84540820e-01 9.99512851e-01 9.10522213e-05 5.57781896e-04 3.93081980e-04 4.64114477e-04 3.82828061e-04 1.33294221e-02 1.30750626e-01 6.90501034e-01 1.01614587e-05 5.74391393e-04 1.85877213e-03 9.99978602e-01 9.99934793e-01 9.99972224e-01 9.99850452e-01 9.23425541e-05 2.19002090e-04 1.17851872e-04 9.22016144e-01 9.98510003e-01 9.92120862e-01 9.99607921e-01 5.27310076e-05 6.41843144e-05 8.01619244e-05 1.01614587e-05 8.17378704e-03 3.78593318e-02 4.21098202e-01 5.23233495e-04 2.30947291e-04 9.92021291e-04 9.99988079e-01 9.99968529e-01 9.99904633e-01 9.99686837e-01 5.66934068e-05 1.13539500e-04 9.49751198e-01 5.66190302e-01 9.98778760e-01 9.92863715e-01 3.01121927e-05 1.01614587e-05 2.42813374e-03 5.72704971e-02 6.48335926e-03 2.72144011e-04 1.18787131e-04 4.15329938e-04 9.36020076e-01 9.99975860e-01 9.99921024e-01 9.99872923e-01 9.99644756e-01 9.98626709e-01 5.45362527e-05 5.07180691e-01 5.83542921e-02 9.94228661e-01 9.60898340e-01 1.01614587e-05 2.36449996e-05 1.03964086e-03 4.27493453e-03 1.23568359e-04 2.16296918e-04 5.98450899e-01 9.17736627e-03 9.99921501e-01 9.99736011e-01 9.99316156e-01 9.97612596e-01 9.89866674e-01 6.04106099e-05 5.64906895e-02 9.47177887e-01 6.02035403e-01 1.01614587e-05 2.14569463e-05 4.76064684e-04 1.41454628e-03 1.11669011e-04 9.00969729e-02 4.76172799e-03 9.99736845e-01 9.98766720e-01 9.99044359e-01 9.94734764e-01 9.79204357e-01 8.67096126e-01 3.83977313e-05 8.43999255e-03 4.85497713e-01 5.81855103e-02 1.01614587e-05 4.43666504e-04 1.33740774e-04 1.07071199e-03 5.82709070e-03 7.33837306e-01 9.98745620e-01 9.95382965e-01 9.95470405e-01 9.76307392e-01 9.27109897e-01 1.41144052e-01 1.01614587e-05 5.52005440e-05 1.17104338e-03 6.95732934e-03 2.38796900e-04 1.99564129e-01 4.06416684e-01 9.92979825e-01 9.78739321e-01 7.68364549e-01 8.52662027e-01 1.23929996e-02 1.01614587e-05 7.00054152e-05 2.63162336e-04 7.71753956e-04 1.12173660e-03 1.79767832e-02 1.03164487e-01 9.50193524e-01 8.85801256e-01 1.16183229e-01 3.51565361e-01 1.69071741e-03 1.01614587e-05 1.41444281e-04 2.36803695e-04 5.88155678e-03 6.70019805e-01 5.55571675e-01 3.58902989e-03 1.23783918e-02 6.40262589e-02 6.78844634e-04 1.01614587e-05 1.31477616e-04 1.54446542e-01 7.82887265e-02 4.52105713e-04 3.55233531e-03 1.01614587e-05 1.17809102e-02 5.34861162e-03 3.31921707e-04 1.01614587e-05 6.09131472e-04 4.53613262e-04 1.01614587e-05 1.01614587e-05 
