# vtk DataFile Version 2.0
sol_toll1e-05_vf0.3iter4.vtk, Created by Freefem++ 
ASCII
DATASET UNSTRUCTURED_GRID
POINTS 371 float
1 0 0
1 0.042177433 0
0.81869963 0 0
0.87752227 0.038285474 0
1 0.088418138 0
0.73958906 0.036400717 0
0.67316267 0 0
0.55218283 0 0
0.85186156 0.078850578 0
1 0.13315757 0
0.6199718 0.045706547 0
0.73041914 0.077073326 0
0.51362041 0.028341953 0
0.44347718 0 0
0.34690014 0 0
0.51340869 0.060796884 0
0.86447376 0.12561788 0
1 0.17386779 0
0.67654743 0.10360836 0
0.59445597 0.087404786 0
0.77599794 0.12797686 0
0.41974126 0.042932846 0
0.24917661 0.035392964 0
0.25602676 0 0
0.33662342 0.047606699 0
0.53959613 0.10509235 0
0.45562616 0.090731391 0
0.27476968 0.073848068 0
0.87926903 0.17409202 0
1 0.21227522 0
0.6698376 0.15268218 0
0.77255233 0.16838934 0
0.39380488 0.093015338 0
0.17298888 0 0
0.17285733 0.04873011 0
0.21614795 0.090066547 0
0.33455097 0.093954393 0
0.50834645 0.13679172 0
0.6050755 0.16092945 0
0.45030302 0.14899032 0
0.28710598 0.12375399 0
0.52422688 0.18620494 0
0.88191729 0.21519786 0
1 0.24848474 0
0.78648868 0.21604302 0
0.70727482 0.21784532 0
0.37834965 0.14851269 0
0.10557399 0 0
0.11231859 0.054447313 0
0.14976221 0.095760106 0
0.18416219 0.13277021 0
0.23861779 0.14667904 0
0.6136926 0.20592364 0
0.4671102 0.20990698 0
0.30393037 0.19352998 0
0.32931305 0.16122997 0
0.57464081 0.23785743 0
0 0 0
0 0.13315757 0
0 0.33087115 0
0 0.30691723 0
0 0.35357153 0
0 0.24848474 0
0 0.21227522 0
0 0.042177433 0
0 0.17386779 0
0 0.27975274 0
0 0.088418138 0
0.2558936 0.2025393 0
0.882239 0.25460653 0
1 0.27975274 0
0.78582644 0.26439932 0
0.69003989 0.2606062 0
0.38998906 0.2147854 0
0.073463996 0.051330174 0
0.064224406 0 0
0.1075879 0.11512258 0
0.15114681 0.17195059 0
0.20050519 0.1900547 0
0.4744964 0.26097885 0
0.56340174 0.2765784 0
0.32406328 0.2689442 0
0.36696121 0.25352027 0
0.66780333 0.29640453 0
0.012111048 0.066776124 0
0.011550165 0 0
0.011174823 0.13086228 0
0.011809486 0.27852322 0
0 0.37560885 0
0.010136326 0.20480567 0
0.24948843 0.24854732 0
0 0.41960241 0
0 0.39747634 0
0 0.44546752 0
0.14622303 0.2419964 0
0.10239902 0.17898755 0
0.87185917 0.2926837 0
1 0.30691723 0
0.76972219 0.30627307 0
0.45954568 0.29217116 0
0.073119318 0.1163574 0
0.05008969 0.071304942 0
0.040000963 0 0
0.20662581 0.25578291 0
0.55743839 0.32016046 0
0.64083739 0.32960963 0
0.29347397 0.30616511 0
0.38563051 0.33762728 0
0.43063621 0.32029364 0
0.73330934 0.34389854 0
0.021990679 0.1226813 0
0.02358495 0.064242037 0
0.024278832 0 0
0.019059995 0.19135152 0
0.013165263 0.35865669 0
0.021934373 0.27197018 0
0.013811674 0.43765816 0
0 0.47593539 0
0.15207705 0.31960186 0
0.1950916 0.30734038 0
0.10274614 0.25688641 0
0.070554804 0.19913403 0
0.11536336 0.33960655 0
0.86935704 0.33345799 0
1 0.33087115 0
0.53606199 0.3548693 0
0.050188918 0.16859763 0
0.0361893 0.087686724 0
0.27078122 0.34047907 0
0.63296536 0.37116724 0
0.37175987 0.3729566 0
0.48211936 0.3761766 0
0.71470131 0.38395752 0
0.80453497 0.3653431 0
0.027530195 0.19400853 0
0.030949581 0.13229163 0
0.023133509 0.36582188 0
0.029240484 0.29336533 0
0.023222832 0.46404316 0
0.01402634 0.51136545 0
0 0.5069357 0
0.17873797 0.39143623 0
0.23742602 0.37704794 0
0.077892984 0.29548384 0
0.057245585 0.25997273 0
0.088577495 0.37030979 0
0.12661379 0.40526567 0
0 0.66546498 0
0 0.53753615 0
0 0.59741497 0
0 0.70117453 0
0 0.62980504 0
0 0.56750694 0
0.1301287 0.45274439 0
0.18794588 0.44643656 0
0.88611775 0.37680728 0
1 0.35357153 0
0.57775497 0.40762743 0
0.039621398 0.22388316 0
0.049123127 0.30688427 0
0.34514715 0.41021111 0
0.67509064 0.41495814 0
0.46877152 0.41359142 0
0.78161755 0.40130732 0
0.033853411 0.24208255 0
0.029324717 0.41184224 0
0.033254947 0.37435384 0
0.023603861 0.56999828 0
0.028950625 0.51953712 0
0.013885077 0.58680658 0
0.27203786 0.43960681 0
0.064490485 0.35917326 0
0.085637271 0.42838162 0
0.01102979 0.74156649 0
0.013086911 0.6650954 0
0 0.73604578 0
0.16164124 0.5009043 0
0.10510808 0.48340809 0
0.23635894 0.48840689 0
0 0.77347265 0
0 0.81452628 0
0.31525232 0.49549696 0
1 0.37560885 0
0.86129558 0.4151198 0
1 0.39747634 0
0.54724308 0.45019837 0
0.64037006 0.44845694 0
0.044299198 0.37644329 0
0.038094144 0.38912427 0
0.057737008 0.42732072 0
0.44705957 0.44725613 0
0.37902188 0.46364719 0
0.74798739 0.43561174 0
0.032659167 0.54246692 0
0.035799629 0.52503533 0
0.029944554 0.64696284 0
0.023450302 0.6721951 0
0.074432074 0.49462947 0
0.019121803 0.82269422 0
0.02195643 0.75784818 0
0.010074963 0.82848645 0
0.10463004 0.53531084 0
0.1452319 0.55500147 0
0.22515043 0.54616731 0
0 0.85806207 0
0.41071202 0.50717136 0
0.33065988 0.53732463 0
0 0.9054308 0
0.89933897 0.43805892 0
1 0.41960241 0
0.81350732 0.45387706 0
0.60820194 0.48880077 0
0.4983718 0.48713475 0
0.71302952 0.46980357 0
0.045663439 0.49325222 0
0.040397948 0.59007204 0
0.056100764 0.52640147 0
0.03481017 0.71078171 0
0.029614016 0.76457954 0
0.0709532 0.58086238 0
0.027021113 0.85235549 0
0.019332639 0.89284109 0
0.00974142 0.90526394 0
0.095668816 0.61009267 0
0.13805193 0.6143765 0
0.28917348 0.58684568 0
0.1935248 0.61008155 0
0.40472435 0.55437793 0
0.48057662 0.52971372 0
0 0.95539439 0
0 1 0
0.28221131 0.6338241 0
0.38751189 0.59739946 0
1 0.44546752 0
0.89512526 0.46772785 0
0.79542652 0.48916871 0
0.69879943 0.50296017 0
0.64276916 0.53012296 0
0.55725019 0.52631742 0
0.050817121 0.63241245 0
0.040737143 0.75136706 0
0.033365739 0.85499923 0
0.065988974 0.68635911 0
0.026218214 0.92568333 0
0.014916298 0.95495032 0
0.090323882 0.69965524 0
0.12806345 0.68422632 0
0.18922304 0.66182385 0
0.49355375 0.57132785 0
0.011550165 1 0
0.21671369 0.69894972 0
0.32446025 0.66021318 0
0.44395146 0.62270812 0
1 0.47593539 0
0.90248417 0.49632223 0
0.74746474 0.53237499 0
0.82929453 0.51683856 0
0.68019221 0.56109019 0
0.5899405 0.5671085 0
0.050937196 0.77396211 0
0.040166354 0.89188825 0
0.032196248 0.9686164 0
0.070779364 0.80591942 0
0.024278832 1 0
0.10471356 0.76770444 0
0.14539357 0.73679424 0
0.53891073 0.61000879 0
0.18784821 0.75769463 0
0.26243639 0.72875075 0
0.36406187 0.68316267 0
0.45757082 0.66606335 0
1 0.5069357 0
0.90693915 0.52886188 0
0.82106106 0.55153018 0
0.73948225 0.5824202 0
0.64139273 0.60387813 0
0.051407582 0.89761163 0
0.040000963 1 0
0.066758769 0.91655647 0
0.087273408 0.87953596 0
0.10690418 0.82828886 0
0.15580915 0.80721536 0
0.55706907 0.64896062 0
0.23519724 0.78740413 0
0.34376414 0.73500633 0
0.45993874 0.70632642 0
1 0.53753615 0
0.91036498 0.56445611 0
0.81546574 0.58310969 0
0.79321804 0.61853186 0
0.71624279 0.63062087 0
0.64060151 0.64649686 0
0.064224406 1 0
0.099498317 0.94235683 0
0.13624374 0.88211796 0
0.19610451 0.85008587 0
0.56944115 0.68802894 0
0.3004158 0.79113956 0
0.25517558 0.83754767 0
0.3774156 0.77414621 0
0.47058219 0.74309692 0
0.5541643 0.73353482 0
1 0.56750694 0
0.87768996 0.59717565 0
1 0.59741497 0
0.86843669 0.63511666 0
0.77803931 0.6651899 0
0.66916683 0.68258852 0
0.10557399 1 0
0.15005184 0.94827498 0
0.18835958 0.90442581 0
0.25400158 0.88848742 0
0.32400335 0.8376265 0
0.43468836 0.80110186 0
0.63889709 0.72611178 0
0.53740699 0.77617214 0
0.36857454 0.85001417 0
0.92868536 0.61558474 0
1 0.62980504 0
0.88933055 0.6667567 0
0.81148494 0.70917186 0
0.72501477 0.71417236 0
0.17298888 1 0
0.21983903 0.9501773 0
0.28024702 0.92997226 0
0.33330433 0.89647341 0
0.41754281 0.8631284 0
0.508836 0.82052749 0
0.63629177 0.76662609 0
1 0.66546498 0
0.9095697 0.70560749 0
0.85531495 0.74892619 0
0.7375048 0.76066058 0
0.25602676 1 0
0.29323739 0.97049498 0
0.35020404 0.94822057 0
0.40776539 0.91371212 0
0.48887877 0.87314183 0
0.60021189 0.81846635 0
0.67928353 0.81600116 0
1 0.70117453 0
1 0.73604578 0
0.8949094 0.79139473 0
0.78149504 0.79773642 0
0.34690014 1 0
0.4247209 0.96161075 0
0.48607059 0.92231762 0
0.56494467 0.87660793 0
0.66744307 0.8617215 0
1 0.77347265 0
1 0.81452628 0
0.87940903 0.84618945 0
0.78286087 0.84408324 0
0.44347718 1 0
0.52408526 0.96170337 0
0.57313116 0.91900438 0
0.67179138 0.89936389 0
1 0.85806207 0
0.75625159 0.89989964 0
0.85642838 0.89693628 0
0.55218283 1 0
0.62252263 0.97285008 0
0.64414416 0.94095389 0
1 0.9054308 0
0.74180344 0.95215603 0
0.85586726 0.93459291 0
0.67316267 1 0
1 0.95539439 0
0.85570268 0.96986741 0
0.81869963 1 0
1 1 0

CELLS 740 2876
3 57 85 84
3 111 85 112
3 113 86 110
3 64 57 84
3 127 135 111
3 111 84 85
3 127 112 102
3 159 171 189
3 187 159 189
3 188 187 214
3 188 158 187
3 144 121 143
3 158 126 159
3 158 127 126
3 159 144 171
3 100 121 126
3 74 100 101
3 75 74 101
3 75 47 74
3 76 95 100
3 120 122 143
3 95 120 121
3 100 95 121
3 76 49 77
3 94 103 119
3 158 159 187
3 145 171 143
3 145 172 171
3 84 67 64
3 67 86 58
3 67 84 86
3 135 164 134
3 111 135 110
3 84 111 110
3 112 127 111
3 127 158 135
3 86 113 89
3 65 86 89
3 84 110 86
3 102 75 101
3 65 58 86
3 63 89 62
3 62 89 66
3 66 87 60
3 60 87 59
3 143 122 145
3 102 101 127
3 74 47 48
3 87 61 59
3 115 136 114
3 126 121 144
3 189 172 197
3 136 137 165
3 116 136 138
3 115 137 136
3 113 115 87
3 89 113 87
3 66 89 87
3 63 65 89
3 110 134 113
3 168 165 193
3 134 137 115
3 164 166 137
3 134 164 137
3 113 134 115
3 110 135 134
3 171 144 143
3 135 158 164
3 126 101 100
3 159 126 144
3 127 101 126
3 114 87 115
3 93 114 116
3 88 87 114
3 34 49 48
3 23 22 33
3 35 49 34
3 143 121 120
3 48 47 33
3 76 74 48
3 76 100 74
3 49 50 77
3 33 34 48
3 35 50 49
3 186 211 185
3 157 186 185
3 186 161 192
3 231 250 247
3 226 225 247
3 232 251 231
3 228 248 227
3 251 268 250
3 232 252 251
3 270 282 285
3 269 284 268
3 275 266 258
3 285 296 300
3 275 282 266
3 275 291 282
3 251 250 231
3 248 252 232
3 269 268 251
3 297 283 284
3 283 295 281
3 268 283 267
3 297 298 283
3 191 181 170
3 227 232 225
3 176 154 178
3 202 176 203
3 202 201 176
3 87 88 61
3 46 40 36
3 114 92 88
3 145 122 146
3 172 145 146
3 201 219 197
3 188 166 164
3 158 188 164
3 214 215 188
3 188 194 166
3 189 214 187
3 172 189 171
3 216 214 189
3 197 216 189
3 177 197 172
3 219 216 197
3 242 259 239
3 136 116 114
3 194 193 166
3 167 195 196
3 138 167 139
3 168 195 167
3 136 165 138
3 193 195 168
3 165 166 193
3 138 165 168
3 137 166 165
3 194 217 193
3 93 91 114
3 114 91 92
3 138 139 116
3 219 242 239
3 177 201 197
3 223 242 219
3 201 223 219
3 176 201 177
3 202 223 201
3 202 224 223
3 139 140 117
3 168 167 138
3 167 196 169
3 146 122 141
3 153 146 154
3 176 153 154
3 177 172 153
3 153 172 146
3 239 259 240
3 215 239 240
3 216 219 239
3 224 245 223
3 203 224 202
3 247 265 246
3 215 194 188
3 239 215 214
3 240 217 215
3 116 117 93
3 118 119 142
3 120 118 122
3 128 130 160
3 119 128 142
3 119 103 128
3 120 94 118
3 103 90 106
3 182 184 155
3 118 142 141
3 131 162 130
3 125 131 108
3 99 125 108
3 129 157 125
3 157 162 131
3 160 170 142
3 162 160 130
3 162 190 160
3 107 131 130
3 129 132 161
3 211 238 212
3 190 185 212
3 213 236 211
3 210 213 192
3 163 183 192
3 233 253 234
3 206 205 227
3 235 255 236
3 258 266 248
3 236 255 237
3 211 236 237
3 213 235 236
3 270 266 282
3 284 270 285
3 252 248 266
3 269 252 270
3 269 251 252
3 81 107 106
3 73 99 82
3 125 157 131
3 160 142 128
3 141 122 118
3 170 141 142
3 154 146 141
3 170 154 141
3 191 170 160
3 190 191 160
3 157 185 162
3 212 191 190
3 185 211 212
3 162 185 190
3 157 161 186
3 181 205 206
3 238 228 212
3 238 258 248
3 212 228 205
3 178 203 176
3 170 178 154
3 181 203 178
3 181 206 203
3 170 181 178
3 205 228 227
3 191 205 181
3 191 212 205
3 225 232 231
3 176 177 153
3 217 240 241
3 195 217 218
3 195 193 217
3 117 116 139
3 194 215 217
3 252 266 270
3 227 248 232
3 228 238 248
3 169 140 139
3 169 174 152
3 167 169 139
3 196 174 169
3 0 1 3
3 3 4 8
3 8 5 3
3 4 9 8
3 3 5 2
3 0 3 2
3 1 4 3
3 16 8 9
3 17 16 9
3 20 11 16
3 5 6 2
3 11 5 8
3 16 11 8
3 18 10 11
3 18 19 10
3 28 17 29
3 18 20 31
3 18 11 20
3 10 5 11
3 15 10 19
3 12 7 10
3 16 17 28
3 30 38 25
3 18 30 19
3 31 44 30
3 28 42 31
3 16 28 20
3 29 42 28
3 29 43 42
3 27 36 40
3 34 22 35
3 24 36 27
3 15 19 25
3 12 15 21
3 12 10 15
3 13 12 21
3 7 6 10
3 30 18 31
3 25 19 30
3 39 26 37
3 12 13 7
3 26 21 15
3 37 26 25
3 32 21 26
3 32 24 21
3 10 6 5
3 73 79 99
3 55 73 54
3 40 55 54
3 40 46 55
3 53 79 73
3 39 53 46
3 32 39 46
3 37 41 39
3 39 41 53
3 32 26 39
3 24 32 36
3 24 14 21
3 69 43 70
3 44 69 71
3 42 43 69
3 44 42 69
3 45 44 71
3 45 38 30
3 31 20 28
3 15 25 26
3 96 69 70
3 24 22 14
3 13 21 14
3 27 40 35
3 24 27 22
3 96 71 69
3 123 96 97
3 98 71 96
3 123 97 124
3 72 83 56
3 123 98 96
3 156 123 124
3 109 123 133
3 109 132 129
3 80 53 56
3 106 90 81
3 128 106 130
3 128 103 106
3 94 95 77
3 118 94 119
3 120 95 94
3 81 82 108
3 107 81 108
3 131 107 108
3 130 106 107
3 90 68 81
3 78 51 68
3 77 78 103
3 50 51 78
3 54 82 81
3 103 78 90
3 46 36 32
3 73 46 53
3 73 55 46
3 96 70 97
3 72 52 45
3 83 72 98
3 56 52 72
3 52 37 38
3 79 53 80
3 104 79 80
3 83 105 80
3 56 83 80
3 109 133 132
3 83 109 105
3 123 109 98
3 129 125 104
3 82 54 73
3 44 31 42
3 72 45 71
3 45 30 44
3 52 38 45
3 98 72 71
3 41 37 52
3 56 41 52
3 56 53 41
3 37 25 38
3 155 123 156
3 182 155 156
3 105 104 80
3 98 109 83
3 129 104 105
3 163 192 161
3 133 163 132
3 155 184 183
3 123 155 133
3 184 209 183
3 109 129 105
3 155 163 133
3 163 161 132
3 129 161 157
3 192 213 186
3 213 211 186
3 183 163 155
3 208 183 209
3 210 192 183
3 196 195 218
3 173 174 199
3 148 140 169
3 22 34 33
3 14 22 23
3 27 35 22
3 51 50 35
3 54 51 40
3 68 90 78
3 54 68 51
3 54 81 68
3 49 76 48
3 40 51 35
3 77 95 76
3 78 77 50
3 103 94 77
3 208 210 183
3 233 208 209
3 233 234 208
3 249 230 244
3 207 222 229
3 222 204 200
3 221 222 200
3 200 204 180
3 179 200 180
3 198 221 200
3 173 175 150
3 174 173 151
3 152 174 149
3 196 199 174
3 259 260 240
3 198 173 199
3 200 175 173
3 150 147 173
3 175 200 179
3 218 220 199
3 222 244 229
3 204 222 207
3 221 244 222
3 220 221 198
3 229 244 230
3 243 244 221
3 243 263 244
3 151 173 147
3 218 217 241
3 220 218 241
3 199 196 218
3 225 206 227
3 247 225 231
3 226 203 225
3 268 284 283
3 306 319 320
3 307 306 321
3 282 291 296
3 275 274 290
3 288 274 273
3 307 290 306
3 291 275 290
3 173 198 200
3 245 246 264
3 242 245 262
3 242 223 245
3 226 247 246
3 203 226 224
3 203 206 225
3 245 264 262
3 226 246 224
3 265 264 246
3 250 265 247
3 250 267 265
3 278 279 293
3 276 278 292
3 276 262 278
3 245 224 246
3 294 295 310
3 279 294 293
3 280 281 294
3 262 280 279
3 281 265 267
3 239 214 216
3 281 295 294
3 265 281 264
3 267 283 281
3 264 281 280
3 250 268 267
3 260 241 240
3 276 260 259
3 261 263 243
3 277 261 260
3 277 263 261
3 241 261 243
3 276 277 260
3 262 276 259
3 292 277 276
3 293 292 278
3 293 309 308
3 292 293 308
3 279 280 294
3 220 198 199
3 260 261 241
3 243 221 220
3 241 243 220
3 263 249 244
3 323 333 322
3 309 310 323
3 308 309 322
3 293 294 309
3 326 316 313
3 336 326 337
3 346 336 337
3 335 325 336
3 325 316 326
3 346 345 336
3 324 311 325
3 323 324 334
3 311 312 325
3 310 311 323
3 312 297 299
3 295 298 311
3 295 283 298
3 262 264 280
3 278 262 279
3 259 242 262
3 298 312 311
3 310 295 311
3 322 309 323
3 309 294 310
3 327 313 315
3 328 327 315
3 337 326 327
3 323 311 324
3 312 299 313
3 325 312 316
3 298 297 312
3 364 368 369
3 364 369 366
3 356 358 362
3 365 363 367
3 364 365 368
3 359 363 365
3 361 364 366
3 361 360 354
3 368 367 370
3 369 368 370
3 364 359 365
3 368 365 367
3 334 333 323
3 334 335 344
3 313 327 326
3 347 348 355
3 344 333 334
3 335 345 344
3 347 346 337
3 354 360 353
3 355 354 346
3 361 366 360
3 362 361 354
3 361 362 364
3 351 358 352
3 345 335 336
3 353 345 354
3 353 344 345
3 351 352 342
3 357 351 350
3 359 358 351
3 363 359 357
3 358 356 352
3 364 358 359
3 364 362 358
3 345 346 354
3 324 335 334
3 325 326 336
3 351 342 350
3 332 338 328
3 348 339 343
3 347 338 339
3 342 343 331
3 338 337 327
3 332 339 338
3 321 332 328
3 331 343 332
3 347 337 338
3 348 347 339
3 352 348 343
3 356 355 348
3 355 362 354
3 347 355 346
3 356 362 355
3 289 306 290
3 274 289 290
3 305 319 306
3 303 305 289
3 317 304 318
3 303 317 305
3 303 304 317
3 314 328 315
3 307 314 301
3 307 321 314
3 320 321 306
3 320 331 332
3 315 301 314
3 315 313 301
3 338 327 328
3 313 299 300
3 299 297 284
3 285 299 284
3 301 300 296
3 301 313 300
3 313 316 312
3 324 325 335
3 270 284 269
3 296 285 282
3 300 299 285
3 357 359 351
3 342 341 349
3 350 342 349
3 296 307 301
3 330 320 319
3 329 330 319
3 340 341 330
3 320 332 321
3 352 343 342
3 352 356 348
3 332 343 339
3 330 331 320
3 330 341 331
3 341 342 331
3 319 305 318
3 329 319 318
3 314 321 328
3 291 307 296
3 291 290 307
3 305 317 318
3 329 340 330
3 237 258 238
3 211 237 238
3 255 274 257
3 256 255 235
3 210 234 235
3 271 286 272
3 257 258 237
3 255 257 237
3 274 275 257
3 303 287 304
3 174 151 149
3 272 273 256
3 304 287 302
3 235 213 210
3 272 287 273
3 254 272 256
3 235 234 254
3 234 253 254
3 286 287 272
3 257 275 258
3 273 274 255
3 256 273 255
3 287 303 288
3 288 303 289
3 274 288 289
3 273 287 288
3 302 287 286
3 289 305 306
3 234 210 208
3 271 254 253
3 254 256 235
3 271 272 254
3 152 148 169
3 99 108 82
3 104 99 79
3 104 125 99
2 57 85
2 85 112
2 112 102
2 102 75
2 75 47
2 47 33
2 33 23
2 23 14
2 14 13
2 13 7
2 7 6
2 6 2
2 2 0
2 230 249
2 249 263
2 263 277
2 277 292
2 292 308
2 308 322
2 322 333
2 333 344
2 344 353
2 353 360
2 360 366
2 366 369
2 369 370
2 0 1
2 1 4
2 4 9
2 9 17
2 17 29
2 29 43
2 43 70
2 70 97
2 97 124
2 124 156
2 156 182
2 182 184
2 184 209
2 209 233
2 233 253
2 253 271
2 271 286
2 286 302
2 302 304
2 304 318
2 318 329
2 329 340
2 340 341
2 341 349
2 349 350
2 350 357
2 357 363
2 363 367
2 367 370
2 57 64
2 64 67
2 67 58
2 58 65
2 65 63
2 63 62
2 62 66
2 66 60
2 60 59
2 59 61
2 61 88
2 88 92
2 92 91
2 91 93
2 93 117
2 117 140
2 140 148
2 148 152
2 152 149
2 149 151
2 151 147
2 147 150
2 150 175
2 175 179
2 179 180
2 180 204
2 204 207
2 207 229
2 229 230

CELL_TYPES 740
5 5 5 5 5 5 5 5 5 5 5 5 5 5 5 5 5 5 5 5 5 5 5 5 5 5 5 5 5 5 5 5 5 5 5 5 5 5 5 5 5 5 5 5 5 5 5 5 5 5 5 5 5 5 5 5 5 5 5 5 5 5 5 5 5 5 5 5 5 5 5 5 5 5 5 5 5 5 5 5 5 5 5 5 5 5 5 5 5 5 5 5 5 5 5 5 5 5 5 5 5 5 5 5 5 5 5 5 5 5 5 5 5 5 5 5 5 5 5 5 5 5 5 5 5 5 5 5 5 5 5 5 5 5 5 5 5 5 5 5 5 5 5 5 5 5 5 5 5 5 5 5 5 5 5 5 5 5 5 5 5 5 5 5 5 5 5 5 5 5 5 5 5 5 5 5 5 5 5 5 5 5 5 5 5 5 5 5 5 5 5 5 5 5 5 5 5 5 5 5 5 5 5 5 5 5 5 5 5 5 5 5 5 5 5 5 5 5 5 5 5 5 5 5 5 5 5 5 5 5 5 5 5 5 5 5 5 5 5 5 5 5 5 5 5 5 5 5 5 5 5 5 5 5 5 5 5 5 5 5 5 5 5 5 5 5 5 5 5 5 5 5 5 5 5 5 5 5 5 5 5 5 5 5 5 5 5 5 5 5 5 5 5 5 5 5 5 5 5 5 5 5 5 5 5 5 5 5 5 5 5 5 5 5 5 5 5 5 5 5 5 5 5 5 5 5 5 5 5 5 5 5 5 5 5 5 5 5 5 5 5 5 5 5 5 5 5 5 5 5 5 5 5 5 5 5 5 5 5 5 5 5 5 5 5 5 5 5 5 5 5 5 5 5 5 5 5 5 5 5 5 5 5 5 5 5 5 5 5 5 5 5 5 5 5 5 5 5 5 5 5 5 5 5 5 5 5 5 5 5 5 5 5 5 5 5 5 5 5 5 5 5 5 5 5 5 5 5 5 5 5 5 5 5 5 5 5 5 5 5 5 5 5 5 5 5 5 5 5 5 5 5 5 5 5 5 5 5 5 5 5 5 5 5 5 5 5 5 5 5 5 5 5 5 5 5 5 5 5 5 5 5 5 5 5 5 5 5 5 5 5 5 5 5 5 5 5 5 5 5 5 5 5 5 5 5 5 5 5 5 5 5 5 5 5 5 5 5 5 5 5 5 5 5 5 5 5 5 5 5 5 5 5 5 5 5 5 5 5 5 5 5 5 5 5 5 5 5 5 5 5 5 5 5 5 5 5 5 5 5 5 5 5 5 5 5 5 5 5 5 5 5 5 5 5 5 5 5 5 5 5 5 5 5 5 5 5 5 5 5 5 5 5 5 5 5 5 5 5 5 5 5 5 5 5 5 5 5 5 5 5 5 5 5 5 5 5 5 5 5 5 5 5 5 5 5 5 5 5 5 5 5 5 5 5 5 5 5 5 5 5 5 5 5 5 5 5 5 5 5 5 5 5 5 5 5 3 3 3 3 3 3 3 3 3 3 3 3 3 3 3 3 3 3 3 3 3 3 3 3 3 3 3 3 3 3 3 3 3 3 3 3 3 3 3 3 3 3 3 3 3 3 3 3 3 3 3 3 3 3 3 3 3 3 3 3 3 3 3 3 3 3 3 3 3 3 3 3 3 3 3 3 3 3 3 3 3 3 3 3 
CELL_DATA 740
Scalars  Label int 1
LOOKUP_TABLE FreeFempp_table
0
0
0
0
0
0
0
0
0
0
0
0
0
0
0
0
0
0
0
0
0
0
0
0
0
0
0
0
0
0
0
0
0
0
0
0
0
0
0
0
0
0
0
0
0
0
0
0
0
0
0
0
0
0
0
0
0
0
0
0
0
0
0
0
0
0
0
0
0
0
0
0
0
0
0
0
0
0
0
0
0
0
0
0
0
0
0
0
0
0
0
0
0
0
0
0
0
0
0
0
0
0
0
0
0
0
0
0
0
0
0
0
0
0
0
0
0
0
0
0
0
0
0
0
0
0
0
0
0
0
0
0
0
0
0
0
0
0
0
0
0
0
0
0
0
0
0
0
0
0
0
0
0
0
0
0
0
0
0
0
0
0
0
0
0
0
0
0
0
0
0
0
0
0
0
0
0
0
0
0
0
0
0
0
0
0
0
0
0
0
0
0
0
0
0
0
0
0
0
0
0
0
0
0
0
0
0
0
0
0
0
0
0
0
0
0
0
0
0
0
0
0
0
0
0
0
0
0
0
0
0
0
0
0
0
0
0
0
0
0
0
0
0
0
0
0
0
0
0
0
0
0
0
0
0
0
0
0
0
0
0
0
0
0
0
0
0
0
0
0
0
0
0
0
0
0
0
0
0
0
0
0
0
0
0
0
0
0
0
0
0
0
0
0
0
0
0
0
0
0
0
0
0
0
0
0
0
0
0
0
0
0
0
0
0
0
0
0
0
0
0
0
0
0
0
0
0
0
0
0
0
0
0
0
0
0
0
0
0
0
0
0
0
0
0
0
0
0
0
0
0
0
0
0
0
0
0
0
0
0
0
0
0
0
0
0
0
0
0
0
0
0
0
0
0
0
0
0
0
0
0
0
0
0
0
0
0
0
0
0
0
0
0
0
0
0
0
0
0
0
0
0
0
0
0
0
0
0
0
0
0
0
0
0
0
0
0
0
0
0
0
0
0
0
0
0
0
0
0
0
0
0
0
0
0
0
0
0
0
0
0
0
0
0
0
0
0
0
0
0
0
0
0
0
0
0
0
0
0
0
0
0
0
0
0
0
0
0
0
0
0
0
0
0
0
0
0
0
0
0
0
0
0
0
0
0
0
0
0
0
0
0
0
0
0
0
0
0
0
0
0
0
0
0
0
0
0
0
0
0
0
0
0
0
0
0
0
0
0
0
0
0
0
0
0
0
0
0
0
0
0
0
0
0
0
0
0
0
0
0
0
0
0
0
0
0
0
0
0
0
0
0
0
0
0
0
0
0
0
0
0
0
0
0
0
0
0
0
0
0
0
0
0
0
0
0
0
0
0
0
0
0
0
0
0
0
0
0
0
0
0
0
0
0
0
0
0
0
0
0
0
0
0
0
0
0
0
0
0
0
0
0
0
0
0
0
0
0
0
0
0
0
0
0
0
0
0
0
0
0
0
0
0
0
0
0
0
0
0
0
0
0
0
0
0
0
0
0
0
0
0
0
0
0
0
0
1
1
1
1
1
1
1
1
1
1
1
1
1
3
3
3
3
3
3
3
3
3
3
3
3
3
2
2
2
2
2
2
2
2
2
2
2
2
2
2
2
2
2
2
2
2
2
2
2
2
2
2
2
2
2
4
4
4
4
4
4
4
4
4
4
4
4
4
4
4
4
4
4
4
4
4
4
4
4
4
4
4
4
4

LOOKUP_TABLE FreeFempp_table 5
1.00000000 0.00000000 0.00000000 1.00000000
1.00000000 1.00000000 0.00000000 1.00000000
1.00000000 0.00000000 1.00000000 1.00000000
0.00000000 1.00000000 0.00000000 1.00000000
0.00000000 1.00000000 1.00000000 1.00000000

POINT_DATA 371
FIELD FieldData 1
Density 1 371 float
1.00989901e-02 1.31828174e-01 1.00989901e-02 1.18361995e-01 2.73203701e-01 1.04840457e-01 1.00989901e-02 1.00989901e-02 2.36583740e-01 4.04538751e-01 1.18563309e-01 2.18267754e-01 6.79633617e-02 1.00989901e-02 1.00989901e-02 1.35384798e-01 3.73437613e-01 5.16123533e-01 2.79296964e-01 2.17881680e-01 3.65825415e-01 8.28669071e-02 4.27497551e-02 1.00989901e-02 7.57811368e-02 2.42997512e-01 1.82245895e-01 9.63999406e-02 5.05932450e-01 6.14926338e-01 3.99825692e-01 4.70471829e-01 1.65762439e-01 1.00989901e-02 4.18041199e-02 9.17766169e-02 1.46268606e-01 2.99009711e-01 3.93440783e-01 2.92767733e-01 1.64304301e-01 4.05047297e-01 6.09246492e-01 6.99714601e-01 5.88957608e-01 5.62243998e-01 2.52281219e-01 1.00989901e-02 3.00296489e-02 6.89718127e-02 1.18237734e-01 1.60371989e-01 4.92040247e-01 4.09017265e-01 2.62572706e-01 2.42980286e-01 5.30618489e-01 1.00989901e-02 4.04538751e-01 8.57691348e-01 8.17079723e-01 8.90749276e-01 6.99714601e-01 6.14926338e-01 1.31828174e-01 5.16123533e-01 7.66555250e-01 2.73203701e-01 2.34718144e-01 6.98278248e-01 7.66555250e-01 6.89556122e-01 6.41491055e-01 3.59018296e-01 1.95127800e-02 1.00989901e-02 6.03677295e-02 1.21451057e-01 1.73668131e-01 4.94195491e-01 5.88167489e-01 3.64170194e-01 3.88966084e-01 6.88856959e-01 1.11593917e-01 1.00989901e-02 2.58721471e-01 5.04640162e-01 9.19103861e-01 4.11467284e-01 2.69416392e-01 9.61765289e-01 9.41906154e-01 9.76411343e-01 1.57178015e-01 8.57938603e-02 7.71796525e-01 8.17079723e-01 7.59177506e-01 5.23572564e-01 4.15339582e-02 2.04526801e-02 1.00989901e-02 2.28384987e-01 6.43698156e-01 7.17878640e-01 3.64027977e-01 4.94095743e-01 5.27747095e-01 7.96579301e-01 1.21503077e-01 5.14964052e-02 1.00989901e-02 2.41164029e-01 5.54044187e-01 2.72748441e-01 5.83185017e-01 9.85694647e-01 1.99140653e-01 2.46513516e-01 1.15861453e-01 6.55950606e-02 1.57052040e-01 8.37496996e-01 8.57691348e-01 6.63840294e-01 4.02219519e-02 2.57942826e-02 3.60912114e-01 7.63464153e-01 5.04718006e-01 6.29381299e-01 8.32240164e-01 8.60296965e-01 1.13645874e-01 4.43404317e-02 3.07282418e-01 1.30498409e-01 3.28037560e-01 5.90108216e-01 9.89280760e-01 2.60315269e-01 3.35858405e-01 9.78180692e-02 6.51079863e-02 1.26665086e-01 1.87648490e-01 8.63819242e-01 9.82710183e-01 9.49407816e-01 8.01754236e-01 9.15075481e-01 9.69612539e-01 1.99651286e-01 2.85901785e-01 9.02905703e-01 8.90749276e-01 7.47684956e-01 4.08788286e-02 6.34711012e-02 4.91940886e-01 8.35392952e-01 6.40629053e-01 8.89244795e-01 3.84467542e-02 1.53645113e-01 5.50300553e-02 3.14155251e-01 1.74079448e-01 5.76636553e-01 4.05224591e-01 9.02564675e-02 1.29913226e-01 5.05494177e-01 5.49170911e-01 7.31995642e-01 2.50242054e-01 1.63068920e-01 3.59972984e-01 6.48255289e-01 5.46892464e-01 4.71660435e-01 9.19103861e-01 9.33594465e-01 9.41906154e-01 7.42755651e-01 8.25354099e-01 6.35535046e-02 5.53389005e-02 8.75398815e-02 6.29085898e-01 5.52711725e-01 8.96199048e-01 6.95012733e-02 5.58203794e-02 1.32972151e-01 2.86662012e-01 1.16183288e-01 2.47090757e-01 2.71493942e-01 3.73401523e-01 1.61880016e-01 2.21752733e-01 3.40580791e-01 4.28378761e-01 5.93115807e-01 4.89400059e-01 2.90905446e-01 9.57163274e-01 9.61765289e-01 9.40664709e-01 8.10607195e-01 6.97415113e-01 8.90223444e-01 7.07721040e-02 5.89222722e-02 8.69592652e-02 4.27818820e-02 1.08337969e-01 1.07005373e-01 1.05841473e-01 1.54131398e-01 2.13699207e-01 1.39956146e-01 2.00846747e-01 4.19352084e-01 2.81113714e-01 5.77940881e-01 6.79043531e-01 1.40498266e-01 1.00989901e-02 3.89850914e-01 5.40897846e-01 9.76411343e-01 9.72282767e-01 9.41548049e-01 8.81207705e-01 8.36304069e-01 7.57415235e-01 7.22107515e-02 4.40667570e-02 2.81586461e-02 8.56142119e-02 4.43216115e-02 7.83375055e-02 1.12700485e-01 1.67508617e-01 2.55751610e-01 6.77717447e-01 1.00989901e-02 2.70830750e-01 4.25414830e-01 5.90137184e-01 9.85694647e-01 9.79082525e-01 9.11558032e-01 9.54439819e-01 8.54438007e-01 7.74008095e-01 5.14021218e-02 2.37049609e-02 1.38835311e-02 6.30125552e-02 1.00989901e-02 1.08215630e-01 1.65778756e-01 6.99034572e-01 2.00245485e-01 3.01777095e-01 4.52564746e-01 5.68978429e-01 9.89280760e-01 9.74703014e-01 9.40650225e-01 8.79587352e-01 7.93979406e-01 2.59018317e-02 1.00989901e-02 2.70982701e-02 5.00399731e-02 8.60363171e-02 1.37546182e-01 6.81872189e-01 2.22907081e-01 3.80489111e-01 5.26341379e-01 9.82710183e-01 9.60498035e-01 9.15150404e-01 8.72774065e-01 8.21712136e-01 7.51521826e-01 1.00989901e-02 2.92336773e-02 7.83959329e-02 1.38877600e-01 6.44795418e-01 2.75999069e-01 1.90000460e-01 3.62979650e-01 4.85640466e-01 5.65864563e-01 9.69612539e-01 9.26069677e-01 9.49407816e-01 8.81371975e-01 8.08208227e-01 7.24359512e-01 1.00989901e-02 3.79547849e-02 8.68262351e-02 1.33776248e-01 2.37699375e-01 3.68365198e-01 6.36494994e-01 4.81492132e-01 2.50240296e-01 9.17321265e-01 9.15075481e-01 8.44254076e-01 7.50455499e-01 7.06185460e-01 1.00989901e-02 5.23415580e-02 9.12281051e-02 1.59399331e-01 2.54044771e-01 3.81980777e-01 5.60044169e-01 8.63819242e-01 7.83709288e-01 6.85567439e-01 6.21678889e-01 1.00989901e-02 4.23285179e-02 8.44420493e-02 1.60263643e-01 2.69267410e-01 4.35167909e-01 4.77441192e-01 8.01754236e-01 7.31995642e-01 5.96676350e-01 5.53551078e-01 1.00989901e-02 7.46935979e-02 1.66066125e-01 2.93771893e-01 3.63544732e-01 6.48255289e-01 5.46892464e-01 4.53156263e-01 4.40151393e-01 1.00989901e-02 8.81491229e-02 1.96119994e-01 2.70111918e-01 4.28378761e-01 2.85740465e-01 3.07815224e-01 1.00989901e-02 7.63243735e-02 1.55258000e-01 2.90905446e-01 1.37313113e-01 1.97306111e-01 1.00989901e-02 1.40498266e-01 9.36429203e-02 1.00989901e-02 1.00989901e-02 
