# vtk DataFile Version 2.0
sol_toll1e-05_vf0.3iter16.vtk, Created by Freefem++ 
ASCII
DATASET UNSTRUCTURED_GRID
POINTS 587 float
1 0.59770014 0
1 0.69071584 0
1 0.45225258 0
0.79840249 0.52973521 0
0.79305728 0.63397902 0
1 0.74325976 0
0.8031277 0.70353605 0
0.75488836 0.42398958 0
1 0.34012019 0
0.65728125 0.53901666 0
0.6591868 0.63741026 0
0.80651267 0.7437602 0
1 0.77427774 0
0.66616439 0.69344213 0
0.7991546 0.32614448 0
0.57766109 0.46660672 0
0.64620829 0.38182548 0
1 0.27588962 0
0.56475318 0.56288099 0
0.55983291 0.6285467 0
0.73431677 0.75531728 0
0.84935558 0.7749178 0
0.65669055 0.72244656 0
1 0.79297416 0
0.74037649 0.77222409 0
0.56143567 0.67272864 0
0.81381012 0.27173768 0
0.67094171 0.3170797 0
0.50346981 0.54151121 0
0.49517678 0.46048266 0
0.5601121 0.38467591 0
1 0.23871113 0
0.48954696 0.60555858 0
0.6427899 0.74192189 0
0.84677677 0.79081116 0
0.56441818 0.7031053 0
1 0.80504394 0
0.72301261 0.78063773 0
0.64275219 0.75655282 0
1 0.21657065 0
0.49482055 0.65250668 0
0.82718333 0.2398764 0
0.69227334 0.27362368 0
0.58860019 0.32155398 0
0.44939783 0.53089099 0
0.45133016 0.45615671 0
0.49950126 0.38575783 0
0.44480403 0.59218031 0
0.56590209 0.72401186 0
0.79742119 0.79631279 0
0.88434725 0.80469144 0
0.50406839 0.68620493 0
1 0.81347264 0
0.67106881 0.77986383 0
0.62576578 0.76328367 0
0.74443655 0.79454909 0
0.56909707 0.73920016 0
0.84065592 0.21968746 0
1 0.20229032 0
1 0.81928169 0
0.45422626 0.64005577 0
0.71323339 0.2448998 0
0.61596629 0.27849428 0
0.53878731 0.32326114 0
0.41387903 0.53906265 0
0.42048498 0.48372115 0
0.44520296 0.41406316 0
0.47897176 0.35867606 0
0.41728564 0.59163653 0
0.5076747 0.70823059 0
0.81497663 0.80539188 0
0.88745313 0.81185528 0
0.46580679 0.67465746 0
0.60350362 0.76716655 0
0.63484477 0.7801501 0
0.69187879 0.79093666 0
0.5645259 0.74943575 0
0.73652599 0.80131505 0
0.77379544 0.8053431 0
0.52581705 0.72924137 0
0.73686334 0.22508333 0
0.85506993 0.20621147 0
1 0.1923062 0
0.89291642 0.81660354 0
1 0.82441392 0
0.41471591 0.43812636 0
0.42838891 0.63378313 0
0.64104399 0.25030995 0
0.57149867 0.28014225 0
0.51752831 0.31198315 0
0.39654449 0.48767596 0
0.39369174 0.54939794 0
0.43776715 0.38179267 0
0.47660353 0.33175191 0
0.40248446 0.59766083 0
0.4862811 0.71257093 0
0.46463316 0.69245347 0
0.81307477 0.81207875 0
0.43710916 0.66168573 0
0.58638863 0.77184022 0
0.56012849 0.75748468 0
0.61340488 0.78392412 0
0.65930202 0.79269466 0
0.70720818 0.80273367 0
0.52910775 0.74190059 0
0.75132856 0.81004491 0
0.50133406 0.72898882 0
0.7648811 0.21003207 0
0.66762643 0.23015645 0
0.87202743 0.19605413 0
1 0.18474593 0
0.88253064 0.82090639 0
1 0.83170925 0
0.40169508 0.42912254 0
0.382404 0.50216182 0
0.91004389 0.82826721 0
0.71258242 0.21118793 0
0.43213092 0.67060642 0
0.40650775 0.62600145 0
0.58750564 0.25726675 0
0.53010099 0.28697161 0
0.38097618 0.46067777 0
0.3858895 0.58168621 0
0.37636284 0.53412782 0
0.44679053 0.34175864 0
0.4172989 0.38066102 0
0.48751826 0.30465097 0
0.44760676 0.69631272 0
0.46650799 0.71355867 0
0.79070315 0.81700094 0
0.57718806 0.78131325 0
0.55104553 0.76630033 0
0.53554084 0.75303114 0
0.62079848 0.79434796 0
0.66678908 0.80428473 0
0.70790349 0.8128626 0
0.49911549 0.73996521 0
0.51457443 0.74855044 0
0.73890747 0.81728074 0
0.47454728 0.72783192 0
0.78774478 0.19915169 0
0.5966139 0.24328967 0
0.6525491 0.22284209 0
0.8897294 0.18772422 0
1 0.17829928 0
0.81494589 0.82358168 0
1 0.83808121 0
0.39159591 0.41248846 0
0.36922333 0.48343486 0
0.86518682 0.83100559 0
0.67716536 0.20918319 0
0.72557116 0.20127508 0
0.40191192 0.63609735 0
0.41929266 0.67030441 0
0.60386319 0.23225316 0
0.38160876 0.60217087 0
0.54163094 0.26675722 0
0.36883638 0.44117776 0
0.37180089 0.56592571 0
0.36268826 0.51495605 0
0.4186472 0.35501801 0
0.45018156 0.3189973 0
0.49254684 0.28849204 0
0.44463246 0.71471061 0
0.42830736 0.69524946 0
0.74744872 0.823193 0
0.53427872 0.77324602 0
0.5506134 0.78421062 0
0.5861954 0.79412792 0
0.52077782 0.76133468 0
0.62893514 0.80524274 0
0.67254756 0.81522201 0
0.7033932 0.82214586 0
0.47761005 0.7447924 0
0.49643808 0.7556519 0
0.4551548 0.73230886 0
0.78912035 0.19260425 0
0.5578477 0.24794174 0
0.62624713 0.2182248 0
0.92490895 0.17916566 0
0.85182921 0.18518143 0
1 0.17186082 0
0.77536671 0.82811192 0
0.86007948 0.83489512 0
1 0.84248366 0
0.38832572 0.39484695 0
0.35718026 0.47543765 0
0.69366533 0.19817008 0
0.65228391 0.20499227 0
0.73949003 0.19322662 0
0.38986956 0.63416685 0
0.40267653 0.66655231 0
0.58117977 0.23118539 0
0.87083272 0.17851046 0
0.5510111 0.24018563 0
0.36081013 0.54894164 0
0.37006924 0.60984353 0
0.36561637 0.58784101 0
0.50927966 0.27033715 0
0.37452745 0.3997344 0
0.35066668 0.45171472 0
0.35746884 0.42284444 0
0.34913128 0.51019636 0
0.42754576 0.32390348 0
0.40020347 0.35995088 0
0.45954151 0.29820227 0
0.4234169 0.71394001 0
0.43385796 0.7301238 0
0.41128832 0.69422214 0
0.70971294 0.82873978 0
0.50102668 0.76914188 0
0.51418043 0.77991465 0
0.54407702 0.7922092 0
0.58459646 0.80258813 0
0.6270039 0.81392415 0
0.66649257 0.82386054 0
0.45543562 0.74761497 0
0.47769195 0.76149122 0
0.79561771 0.18448615 0
0.51436536 0.25831556 0
0.58398341 0.22197396 0
0.60605556 0.21090779 0
0.93003482 0.17156352 0
1 0.16417805 0
0.76377857 0.83255637 0
0.84594596 0.83830688 0
1 0.84605902 0
0.34402931 0.47550581 0
0.72466755 0.18777188 0
0.67330885 0.19266545 0
0.63218104 0.19940268 0
0.37587339 0.63599195 0
0.38660375 0.66660161 0
0.54944741 0.23082258 0
0.85590606 0.17386433 0
0.51958926 0.24532617 0
0.35284328 0.55689975 0
1 0.85010785 0
1 0.15596198 0
0.35120372 0.58507013 0
0.35723857 0.61232222 0
0.46832223 0.28055944 0
0.37945859 0.36827617 0
0.36191578 0.38947054 0
0.33227388 0.45920223 0
0.34066488 0.43728381 0
0.34505392 0.40826686 0
0.33408707 0.49470988 0
0.3400909 0.5396949 0
0.41315548 0.31550688 0
0.43643904 0.29938009 0
0.40204676 0.33931534 0
0.40203058 0.70099248 0
0.41194536 0.72285944 0
0.43301402 0.74569461 0
0.6583578 0.83069815 0
0.73023932 0.8354108 0
0.48266432 0.77613963 0
0.507874 0.78998673 0
0.56112077 0.80728559 0
0.61282989 0.82176094 0
0.45722334 0.76410336 0
0.77332378 0.17886795 0
0.48242869 0.26217273 0
0.55955914 0.21909452 0
0.58882491 0.2045152 0
0.91926568 0.1645594 0
0.82703279 0.84153087 0
0.69447208 0.18317362 0
0.63488023 0.19153585 0
0.35918306 0.63405443 0
0.37646208 0.66916011 0
0.51301931 0.23750827 0
0.83742218 0.16949067 0
0.81820678 0.84605174 0
1 0.85675109 0
0.93068387 0.15722198 0
1 0.14944625 0
0.46898487 0.256764 0
0.40658125 0.73356796 0
0.34237436 0.60143854 0
0.33397372 0.56860388 0
0.44191834 0.278767 0
0.36457261 0.36148184 0
0.38392146 0.33993312 0
0.34964954 0.3743519 0
0.3212549 0.47318411 0
0.32625687 0.43553657 0
0.33353053 0.3980418 0
0.32564411 0.52011919 0
0.39112487 0.31720814 0
0.41385511 0.29690889 0
0.38414156 0.69554495 0
0.43182361 0.76183648 0
0.60508036 0.83186066 0
0.69631179 0.83959061 0
0.46317273 0.78127193 0
0.49991143 0.80052838 0
0.55093893 0.81900883 0
0.75965407 0.17304637 0
0.5385689 0.21768999 0
0.57656045 0.19940992 0
0.84583016 0.16352245 0
0.63272095 0.18560841 0
0.69295648 0.17634216 0
0.35567145 0.65230431 0
0.34048647 0.62081649 0
0.48691664 0.23815498 0
0.7857745 0.85275462 0
1 0.86869304 0
0.88573146 0.15505803 0
1 0.14313982 0
0.44038394 0.26243022 0
0.39855845 0.74425665 0
0.38105897 0.71024111 0
0.32687681 0.59239567 0
0.3189247 0.55226114 0
0.40880823 0.28426312 0
0.36461599 0.33915033 0
0.34336467 0.35611006 0
0.31363135 0.50123701 0
0.31178514 0.45535725 0
0.31641552 0.42156041 0
0.3269919 0.37995136 0
0.38304334 0.30828942 0
0.35114881 0.66689751 0
0.43703326 0.78232339 0
0.6357479 0.8451831 0
0.54287271 0.83231501 0
0.48266124 0.81039512 0
0.76284278 0.16577096 0
0.51120631 0.21894811 0
0.58234127 0.18821213 0
0.53280494 0.20383357 0
0.65197452 0.17580394 0
0.32883741 0.62552552 0
0.45932765 0.24064835 0
0.75511026 0.8653374 0
1 0.89029619 0
0.83495863 0.15380376 0
1 0.1354422 0
0.41231371 0.26783661 0
0.38849614 0.75314676 0
0.36044907 0.70142588 0
0.30315015 0.4799834 0
0.31222326 0.58776899 0
0.30523625 0.53288193 0
0.37541871 0.29778274 0
0.35556014 0.32550412 0
0.33206672 0.3458534 0
0.30136114 0.43530648 0
0.31148959 0.39266222 0
0.32730957 0.65193665 0
0.41495762 0.79513316 0
0.57790653 0.85506025 0
0.47397599 0.82731348 0
0.68803271 0.16601795 0
0.47148267 0.22293327 0
0.57032798 0.18090222 0
0.50662787 0.20114036 0
0.42469944 0.24711847 0
0.73975036 0.88900199 0
1 0.92938644 0
0.80437296 0.14983106 0
1 0.12381847 0
0.37808858 0.28032733 0
0.34839529 0.70841151 0
0.3613671 0.7518061 0
0.29202221 0.47999899 0
1 1 0
1 0 0
1 0.066570679 0
0.7888354 0.14321781 0
1 0.10343202 0
0.39297465 0.25331549 0
0.29921151 0.60336855 0
0.29076359 0.54031962 0
0.34325071 0.31587079 0
0.31114265 0.36227387 0
0.29008526 0.41915271 0
0.31662819 0.68049265 0
0.39985052 0.82430016 0
0.35781992 0.79027383 0
0.46743248 0.85030774 0
0.55062793 0.88334138 0
0.64003567 0.16088711 0
0.4348436 0.22380864 0
0.52124942 0.1758123 0
0.46942046 0.19760201 0
0.73507533 0.93245824 0
0.75965357 0.1340385 0
0.34822815 0.28866722 0
0.32254875 0.73797316 0
0.27807153 0.47615633 0
0.69744023 1 0
0.75267974 0.066506339 0
0.69744023 0 0
0.74252632 0.11201469 0
0.36628933 0.25398297 0
0.26701506 0.52737192 0
0.28001489 0.61009077 0
0.30964703 0.33450914 0
0.28426561 0.38469138 0
0.26426217 0.44310478 0
0.27697823 0.67230502 0
0.31927606 0.81118627 0
0.38811524 0.86345547 0
0.28896163 0.75207546 0
0.49806798 0.9240426 0
0.5482609 0.15243154 0
0.39283413 0.22072584 0
0.41906587 0.18746834 0
0.31111541 0.30434379 0
0.43139996 1 0
0.51848278 0.11885502 0
0.48850982 0.075476007 0
0.43139996 0 0
0.31880559 0.26228311 0
0.23841958 0.47202244 0
0.24178211 0.56920689 0
0.26447792 0.38130319 0
0.23034881 0.66314252 0
0.2504823 0.83054536 0
0.22926098 0.75658085 0
0.31082118 0.90710191 0
0.37095976 0.15790217 0
0.3269272 0.22108181 0
0.3060086 0.19590709 0
0.26430398 0.33182856 0
0.25132254 1 0
0.30968339 0.10353224 0
[...]
CELL_DATA 1172
Scalars  Label int 1
LOOKUP_TABLE FreeFempp_table
0
0
0
0
0
0
0
0
0
0
0
0
0
0
0
0
0
0
0
0
0
0
0
0
0
0
0
0
0
0
0
0
0
0
0
0
0
0
0
0
0
0
0
0
0
0
0
0
0
0
0
0
0
0
0
0
0
0
0
0
0
0
0
0
0
0
0
0
0
0
0
0
0
0
0
0
0
0
0
0
0
0
0
0
0
0
0
0
0
0
0
0
0
0
0
0
0
0
0
0
0
0
0
0
0
0
0
0
0
0
0
0
0
0
0
0
0
0
0
0
0
0
0
0
0
0
0
0
0
0
0
0
0
0
0
0
0
0
0
0
0
0
0
0
0
0
0
0
0
0
0
0
0
0
0
0
0
0
0
0
0
0
0
0
0
0
0
0
0
0
0
0
0
0
0
0
0
0
0
0
0
0
0
0
0
0
0
0
0
0
0
0
0
0
0
0
0
0
0
0
0
0
0
0
0
0
0
0
0
0
0
0
0
0
0
0
0
0
0
0
0
0
0
0
0
0
0
0
0
0
0
0
0
0
0
0
0
0
0
0
0
0
0
0
0
0
0
0
0
0
0
0
0
0
0
0
0
0
0
0
0
0
0
0
0
0
0
0
0
0
0
0
0
0
0
0
0
0
0
0
0
0
0
0
0
0
0
0
0
0
0
0
0
0
0
0
0
0
0
0
0
0
0
0
0
0
0
0
0
0
0
0
0
0
0
0
0
0
0
0
0
0
0
0
0
0
0
0
0
0
0
0
0
0
0
0
0
0
0
0
0
0
0
0
0
0
0
0
0
0
0
0
0
0
0
0
0
0
0
0
0
0
0
0
0
0
0
0
0
0
0
0
0
0
0
0
0
0
0
0
0
0
0
0
0
0
0
0
0
0
0
0
0
0
0
0
0
0
0
0
0
0
0
0
0
0
0
0
0
0
0
0
0
0
0
0
0
0
0
0
0
0
0
0
0
0
0
0
0
0
0
0
0
0
0
0
0
0
0
0
0
0
0
0
0
0
0
0
0
0
0
0
0
0
0
0
0
0
0
0
0
0
0
0
0
0
0
0
0
0
0
0
0
0
0
0
0
0
0
0
0
0
0
0
0
0
0
0
0
0
0
0
0
0
0
0
0
0
0
0
0
0
0
0
0
0
0
0
0
0
0
0
0
0
0
0
0
0
0
0
0
0
0
0
0
0
0
0
0
0
0
0
0
0
0
0
0
0
0
0
0
0
0
0
0
0
0
0
0
0
0
0
0
0
0
0
0
0
0
0
0
0
0
0
0
0
0
0
0
0
0
0
0
0
0
0
0
0
0
0
0
0
0
0
0
0
0
0
0
0
0
0
0
0
0
0
0
0
0
0
0
0
0
0
0
0
0
0
0
0
0
0
0
0
0
0
0
0
0
0
0
0
0
0
0
0
0
0
0
0
0
0
0
0
0
0
0
0
0
0
0
0
0
0
0
0
0
0
0
0
0
0
0
0
0
0
0
0
0
0
0
0
0
0
0
0
0
0
0
0
0
0
0
0
0
0
0
0
0
0
0
0
0
0
0
0
0
0
0
0
0
0
0
0
0
0
0
0
0
0
0
0
0
0
0
0
0
0
0
0
0
0
0
0
0
0
0
0
0
0
0
0
0
0
0
0
0
0
0
0
0
0
0
0
0
0
0
0
0
0
0
0
0
0
0
0
0
0
0
0
0
0
0
0
0
0
0
0
0
0
0
0
0
0
0
0
0
0
0
0
0
0
0
0
0
0
0
0
0
0
0
0
0
0
0
0
0
0
0
0
0
0
0
0
0
0
0
0
0
0
0
0
0
0
0
0
0
0
0
0
0
0
0
0
0
0
0
0
0
0
0
0
0
0
0
0
0
0
0
0
0
0
0
0
0
0
0
0
0
0
0
0
0
0
0
0
0
0
0
0
0
0
0
0
0
0
0
0
0
0
0
0
0
0
0
0
0
0
0
0
0
0
0
0
0
0
0
0
0
0
0
0
0
0
0
0
0
0
0
0
0
0
0
0
0
0
0
0
0
0
0
0
0
0
0
0
0
0
0
0
0
0
0
0
0
0
0
0
0
0
0
0
0
0
0
0
0
0
0
0
0
0
0
0
0
0
0
0
0
0
0
0
0
0
0
0
0
0
0
0
0
0
0
0
0
0
0
0
0
0
0
0
0
0
0
0
0
0
0
0
0
0
0
0
0
0
0
0
0
0
0
0
0
0
0
0
0
0
0
0
0
0
0
0
0
0
0
0
0
0
0
0
0
0
0
0
0
0
0
0
0
0
0
0
0
0
0
0
0
0
0
0
0
0
0
0
0
0
0
0
0
0
0
0
0
0
0
0
0
0
0
0
0
0
0
0
0
0
0
0
0
0
0
0
0
0
0
0
0
0
0
0
0
0
0
0
0
0
0
0
0
0
0
0
0
0
0
0
1
1
1
1
1
1
1
1
1
1
3
3
3
3
3
3
3
3
3
3
2
2
2
2
2
2
2
2
2
2
2
2
2
2
2
2
2
2
2
2
2
2
2
2
2
2
2
2
2
2
2
2
2
2
2
2
2
4
4
4
4
4
4
4
4
4
4
4
4
4
4
4
4
4
4
4
4
4
4
4
4
4
4
4
4
4
4
4
4
4
4
4
4
4

LOOKUP_TABLE FreeFempp_table 5
1.00000000 0.00000000 0.00000000 1.00000000
1.00000000 1.00000000 0.00000000 1.00000000
1.00000000 0.00000000 1.00000000 1.00000000
0.00000000 1.00000000 0.00000000 1.00000000
0.00000000 1.00000000 1.00000000 1.00000000

POINT_DATA 587
FIELD FieldData 1
Density 1 587 float
9.90001023e-01 9.90000963e-01 9.90001023e-01 9.90001023e-01 9.90001023e-01 9.89985645e-01 9.90000963e-01 9.90001023e-01 9.89999652e-01 9.90001023e-01 9.90001023e-01 9.89996672e-01 9.89590585e-01 9.90001023e-01 9.90000844e-01 9.90001023e-01 9.90001023e-01 9.89984691e-01 9.90001023e-01 9.90001023e-01 9.89915729e-01 9.89825487e-01 9.89994764e-01 9.86835539e-01 9.89228606e-01 9.89999473e-01 9.89999473e-01 9.90001023e-01 9.90001023e-01 9.90001023e-01 9.90000904e-01 9.89910960e-01 9.90001023e-01 9.89833891e-01 9.88237739e-01 9.89938855e-01 9.78265643e-01 9.84974921e-01 9.87754524e-01 9.89490509e-01 9.89987314e-01 9.89992261e-01 9.90000904e-01 9.89999175e-01 9.90001023e-01 9.89999592e-01 9.89994824e-01 9.89991128e-01 9.89097118e-01 9.81385112e-01 9.74162400e-01 9.89461601e-01 9.54764664e-01 9.52800333e-01 9.71668720e-01 9.41613495e-01 9.77642238e-01 9.89838779e-01 9.87429500e-01 8.95210564e-01 9.89658892e-01 9.89988983e-01 9.89993453e-01 9.89937484e-01 9.89831150e-01 9.89955306e-01 9.89869714e-01 9.89753962e-01 9.89500403e-01 9.81848180e-01 9.48336363e-01 9.42663193e-01 9.85877752e-01 9.17792737e-01 8.80856156e-01 8.66504669e-01 9.52348292e-01 8.55116606e-01 9.05671418e-01 9.51425970e-01 9.89320159e-01 9.87139642e-01 9.78793263e-01 8.84485662e-01 7.65102744e-01 9.89564538e-01 9.83698726e-01 9.89876509e-01 9.89845991e-01 9.89447474e-01 9.88584042e-01 9.86328185e-01 9.87782955e-01 9.86194551e-01 9.82875288e-01 9.29394603e-01 9.67850387e-01 8.75641525e-01 9.69217539e-01 8.01012397e-01 8.77422512e-01 6.81608856e-01 6.60267889e-01 6.72765732e-01 9.21918511e-01 7.62456775e-01 8.52126360e-01 9.80047166e-01 9.84136045e-01 9.72528756e-01 9.49534178e-01 7.15225697e-01 4.84842896e-01 9.72764432e-01 9.78101432e-01 4.71664250e-01 9.55923319e-01 9.26482618e-01 9.46485043e-01 9.88376975e-01 9.88122761e-01 9.78832662e-01 9.58927512e-01 9.55997527e-01 9.73622918e-01 9.65819418e-01 9.67672527e-01 8.66442144e-01 8.46271396e-01 6.49925768e-01 4.83192503e-01 6.05225563e-01 8.02290022e-01 4.03647274e-01 3.42795193e-01 4.16022360e-01 6.58408761e-01 7.53622174e-01 5.18771887e-01 6.37276888e-01 9.43654597e-01 9.73160744e-01 9.22745228e-01 9.30555284e-01 8.70115519e-01 4.27275181e-01 2.34313831e-01 9.34310973e-01 9.32184339e-01 2.48458371e-01 8.81772935e-01 9.03868198e-01 8.94234836e-01 8.04278374e-01 8.91633987e-01 8.89188409e-01 9.73777950e-01 8.77187729e-01 8.92031789e-01 8.49346578e-01 9.16206837e-01 9.35130358e-01 9.29495752e-01 6.17464721e-01 7.11618960e-01 2.98371941e-01 2.92800903e-01 1.75137132e-01 2.35173553e-01 5.61692238e-01 1.15663677e-01 1.04686633e-01 1.93487838e-01 2.89184719e-01 4.14719403e-01 3.58940095e-01 8.82556438e-01 9.39371467e-01 7.06739604e-01 8.49589765e-01 8.28325033e-01 6.98663890e-01 2.02582985e-01 1.36355996e-01 1.07529096e-01 8.72834086e-01 8.60496342e-01 7.76317775e-01 6.43573284e-01 7.96058834e-01 7.45220363e-01 6.10065937e-01 8.32080722e-01 7.49488533e-01 7.76682854e-01 8.15603912e-01 7.42601573e-01 7.60449708e-01 8.91624629e-01 7.94428527e-01 7.06914186e-01 6.65514410e-01 6.56849980e-01 8.71003270e-01 8.24480653e-01 8.73702884e-01 3.65396887e-01 2.34207287e-01 4.37508374e-01 1.01238482e-01 2.36620918e-01 7.73732588e-02 1.04606234e-01 7.81165138e-02 3.77068818e-02 5.53884730e-02 1.22189395e-01 1.41203806e-01 6.49517298e-01 8.02493453e-01 5.38585782e-01 3.59445393e-01 6.39091969e-01 4.21045840e-01 9.36575159e-02 5.76373599e-02 5.03795072e-02 6.20931089e-01 5.53152502e-01 4.30367023e-01 3.01432490e-01 4.98921365e-01 3.10588628e-01 5.39048612e-01 5.17255604e-01 5.65162718e-01 6.28595233e-01 2.51130462e-02 1.68095917e-01 4.91260469e-01 4.32387084e-01 7.29552805e-01 6.46860063e-01 5.48716724e-01 3.62879008e-01 4.27526832e-01 2.87342250e-01 3.63615572e-01 3.81516039e-01 6.25122070e-01 7.22262681e-01 6.90659106e-01 1.99306369e-01 1.13534495e-01 6.13184609e-02 2.10549701e-02 3.78434844e-02 4.13207300e-02 1.83671918e-02 2.00886391e-02 1.36238802e-02 3.99677604e-02 3.45780790e-01 5.13252139e-01 2.72441357e-01 1.37874067e-01 3.46841872e-01 2.75555588e-02 2.42151245e-01 1.48365095e-01 2.34237343e-01 1.22994937e-01 2.63480544e-01 2.68326998e-01 1.42947985e-02 1.30646005e-02 1.49135903e-01 5.76431900e-02 2.89976358e-01 4.92238589e-02 2.37740234e-01 2.17554837e-01 4.27347571e-01 3.65991831e-01 4.38526303e-01 2.62003303e-01 1.81153774e-01 1.87161684e-01 1.25189587e-01 1.73190042e-01 3.16850185e-01 3.75542998e-01 9.92021784e-02 1.56035703e-02 1.11118453e-02 1.89306997e-02 1.56046944e-02 1.12890815e-02 1.03283441e-02 1.62909716e-01 1.18125282e-01 4.24059741e-02 1.51469067e-01 6.71332851e-02 8.14655870e-02 8.34563673e-02 1.30685031e-01 1.00622840e-01 1.05654560e-02 1.01982290e-02 6.58618733e-02 2.22663023e-02 1.43330425e-01 1.31875006e-02 3.15395929e-02 9.64464992e-02 8.55351835e-02 1.71611071e-01 1.76040471e-01 1.01696350e-01 6.32523522e-02 7.82262236e-02 3.77163067e-02 4.62955423e-02 1.67053953e-01 2.70368811e-02 1.04967766e-02 1.06918719e-02 1.01317009e-02 1.01851644e-02 5.29617891e-02 4.91546690e-02 2.53536254e-02 2.15195958e-02 3.10986638e-02 4.33934741e-02 5.26124910e-02 1.01201832e-02 1.00992629e-02 2.69131605e-02 1.23728346e-02 4.06306908e-02 1.05992751e-02 1.57789718e-02 2.91932058e-02 2.13396624e-02 3.00482940e-02 6.53901771e-02 6.83229566e-02 2.99622640e-02 2.27407813e-02 2.20419336e-02 1.71354897e-02 1.01151885e-02 1.01172142e-02 1.01088621e-02 1.85440723e-02 1.30468905e-02 1.24894278e-02 1.15202256e-02 1.96551085e-02 1.01001654e-02 1.00989901e-02 1.29075656e-02 1.03248367e-02 2.60188971e-02 1.05837379e-02 1.01568075e-02 1.19986553e-02 1.00989901e-02 1.00989901e-02 1.00990050e-02 1.03836227e-02 1.01041002e-02 1.06902886e-02 1.11907087e-02 1.22190099e-02 1.73190944e-02 1.43106040e-02 1.03970775e-02 1.03075346e-02 1.00991260e-02 1.01020001e-02 1.00994064e-02 1.00993635e-02 1.07180290e-02 1.03433393e-02 1.02718351e-02 1.01747932e-02 1.00990077e-02 1.01364069e-02 1.01143261e-02 1.01032527e-02 1.01955188e-02 1.00989901e-02 1.00990105e-02 1.00989901e-02 1.01009812e-02 1.01108830e-02 1.01909451e-02 1.02701699e-02 1.05827171e-02 1.01675410e-02 1.01037165e-02 1.01086404e-02 1.00989947e-02 1.00989910e-02 1.00994967e-02 1.00989901e-02 1.01283593e-02 1.00998171e-02 1.01049608e-02 1.00992611e-02 1.00989901e-02 1.00991717e-02 1.00989938e-02 1.00989901e-02 1.00990226e-02 1.00997835e-02 1.01060178e-02 1.01036523e-02 1.00995842e-02 1.00989901e-02 1.00989966e-02 1.00989901e-02 1.00992443e-02 1.00991186e-02 1.00991838e-02 1.00991149e-02 1.00989901e-02 1.00989910e-02 1.00989901e-02 1.00989901e-02 1.00989901e-02 1.00990431e-02 1.00992415e-02 1.00989928e-02 1.00989901e-02 1.00989901e-02 1.00989910e-02 1.00989947e-02 1.00989928e-02 1.00989901e-02 1.00989901e-02 1.00989901e-02 1.00989901e-02 1.00989901e-02 1.00989966e-02 1.00990022e-02 1.00989910e-02 1.00989901e-02 1.00989901e-02 1.00989901e-02 1.00989901e-02 1.00989901e-02 1.00989901e-02 1.00989901e-02 1.00989901e-02 1.00989901e-02 1.00989901e-02 1.00989901e-02 1.00989901e-02 1.00989901e-02 1.00989919e-02 1.00990385e-02 1.00989910e-02 1.00996057e-02 1.00989901e-02 1.00989901e-02 1.00989901e-02 1.00990990e-02 1.01243136e-02 1.01075219e-02 1.01010362e-02 1.01237139e-02 1.00989901e-02 1.00989901e-02 1.06622493e-02 1.00989901e-02 1.00989901e-02 1.00989901e-02 1.00992629e-02 1.00990050e-02 1.00989901e-02 1.00995991e-02 1.02933608e-02 1.02876984e-02 1.01345591e-02 1.02348160e-02 1.02695534e-02 1.33307707e-02 1.36356205e-02 1.07967742e-02 4.01087962e-02 1.01982290e-02 1.58928242e-02 1.01041002e-02 5.03795072e-02 1.30646005e-02 2.51130462e-02 1.03248367e-02 1.01051768e-02 1.01199569e-02 1.13031976e-02 1.07101509e-02 1.26932021e-02 5.54620884e-02 2.41980683e-02 1.58287823e-01 1.77846164e-01 5.55943847e-02 1.07529096e-01 1.23728346e-02 1.06231337e-02 1.07821925e-02 2.34313831e-01 5.76431900e-02 4.84842896e-01 7.65102744e-01 2.22663023e-02 2.65876595e-02 2.64678374e-02 2.01075878e-02 1.73973754e-01 7.30835944e-02 4.19917256e-01 5.23233116e-01 1.57108888e-01 1.78035144e-02 3.50769088e-02 1.68095917e-01 8.95210564e-01 6.98663890e-01 9.54764664e-01 4.21045840e-01 1.06642678e-01 1.76961362e-01 2.61111796e-01 6.88752830e-02 1.96532100e-01 4.96103972e-01 1.81627393e-01 7.74120688e-01 7.88390756e-01 4.39229876e-01 8.70115519e-01 9.78265643e-01 2.80363411e-01 3.85551363e-01 9.86835539e-01 9.49534178e-01 5.72207391e-01 5.35809755e-01 6.99059129e-01 6.12965047e-01 5.94691753e-01 8.73184741e-01 9.21618879e-01 9.51700389e-01 7.34940529e-01 8.30309451e-01 9.89590585e-01 9.78793263e-01 8.82842124e-01 9.35025930e-01 9.44130540e-01 9.58665550e-01 9.79159355e-01 9.80834424e-01 8.90823841e-01 9.89985645e-01 9.87429500e-01 9.61912930e-01 9.88713384e-01 9.88494277e-01 9.89037156e-01 9.89490509e-01 9.90000963e-01 9.89910960e-01 9.88144755e-01 9.89846170e-01 9.89846766e-01 9.90001023e-01 9.89984691e-01 9.89931941e-01 9.90001023e-01 9.89999652e-01 
