# vtk DataFile Version 2.0
sol_toll1e-05_vf0.3iter8.vtk, Created by Freefem++ 
ASCII
DATASET UNSTRUCTURED_GRID
POINTS 595 float
0 0.36015287 0
0 0.19492892 0
0 0.20539888 0
0 0.22006458 0
0 0.24400843 0
0 0.28583254 0
0 0.48604037 0
0.0057398115 0.4828545 0
0.0063575358 0.39419088 0
0 0.62212687 0
0 0.17010308 0
0 0.18684554 0
0 0.17599402 0
0 0.18098715 0
0.0065493258 0.28398535 0
0.0057949311 0.244392 0
0.0073612371 0.33829697 0
0.010559553 0.33147511 0
0.0055644346 0.59846253 0
0.010541816 0.43318367 0
0.0095756514 0.51958077 0
0 0.70994226 0
0.0072577067 0.66636259 0
0 0.16267367 0
0 0.15544112 0
0.013306936 0.35691107 0
0.0071869117 0.22762881 0
0.010638636 0.2911751 0
0.012469273 0.4063539 0
0.01090482 0.5919363 0
0.012907274 0.51113736 0
0.011629734 0.64156691 0
0 0.75949543 0
0.0050897251 0.72020668 0
0.0098739734 0.70360173 0
0 0.13977353 0
0 0.14836546 0
0 0.12552219 0
0.0067899329 0.19595317 0
0.015603641 0.41329116 0
0.015042473 0.33749209 0
0.012369674 0.24659943 0
0.012971752 0.28159083 0
0.014969049 0.49883246 0
0.014363365 0.58450205 0
0.016738808 0.50887403 0
0.017850688 0.44864967 0
0.013178414 0.66320135 0
0 0.78758355 0
0.005606291 0.75311454 0
0.015703161 0.63826917 0
0.014441275 0.6964261 0
0.011696281 0.73373295 0
0.0056936813 0.16378045 0
0.0054099171 0.133793 0
0 0.10290646 0
0.011826549 0.21117636 0
0.018225586 0.37802899 0
0.016113264 0.2600752 0
0.016782421 0.30881264 0
0.019702399 0.48842225 0
0.017171499 0.59340281 0
0.018621824 0.5497039 0
0.02060381 0.40795631 0
0.0084450583 0.7653097 0
0 0.80375136 0
0.0046917901 0.79282881 0
0.017752903 0.67550701 0
0.011461461 0.77461049 0
0.015895195 0.73351234 0
0.012041697 0.1807411 0
0 0.065798641 0
0.0086757871 0.11572353 0
0.017545413 0.2394854 0
0.020053182 0.31726786 0
0.021444058 0.53988894 0
0.019952448 0.62391373 0
0.023362279 0.53627186 0
0.022757569 0.41431664 0
0 0.81329002 0
0 0.81884456 0
0 0.82313163 0
0.0056827801 0.81722424 0
0.011437394 0.80336914 0
0.019772417 0.71454912 0
0.016979116 0.77198627 0
0 0 0
0.016221524 0.1681035 0
0.010361215 0.070925122 0
0.024320747 0.33458202 0
0.021681663 0.23588213 0
0.023205885 0.65414658 0
0.026277669 0.5172146 0
0 0.82813975 0
0 0.83912268 0
0 0.84325211 0
0 0.83411603 0
0 0.84653232 0
0 0.85054437 0
0.0057533827 0.84778509 0
0.013208804 0.82331656 0
0.022301604 0.75600498 0
0.017966935 0.82566537 0
0.013227965 0 0
0.020243948 0.12000936 0
0.029208317 0.36496453 0
0.027303889 0.20150239 0
0.028407793 0.68915251 0
0.031595174 0.53397591 0
0 0.85739021 0
0 0.86960734 0
0 0.89143919 0
0.0085679889 0.87693734 0
0.023848767 0.85172929 0
0.012741788 0.90946589 0
0.026881638 0 0
0.036596102 0.3534927 0
0.037268803 0.16177803 0
0.034996505 0.80883924 0
0.038648742 0.56927438 0
0.013227965 1 0
0 0.93043153 0
0.026881638 1 0
0 1 0
0.045732846 0 0
0.048939862 0.33487918 0
0.077018834 0 0
0.045732846 1 0
0.04890571 0.66273314 0
0.077018834 1 0
0.063795444 0.47500348 0
0.13328557 0 0
0.072355527 0.24413354 0
0.10531502 0.1735255 0
0.07032316 0.72753372 0
0.097102098 0.80175349 0
0.13328557 1 0
0.13972503 0.85459315 0
0.14454388 0.74333516 0
0.23397836 0 0
0.40871622 0 0
0.68055762 0 0
0.091169592 0.46843588 0
0.16924096 0.1648997 0
0.12075071 0.30904498 0
0.22159163 0.21620053 0
0.16511461 0.64550176 0
0.11440407 0.61483351 0
1 1 0
0.68055762 1 0
0.23397836 1 0
0.40871622 1 0
0.20356269 0.90159549 0
0.21498826 0.81839496 0
0.22257671 0.74540795 0
1 0 0
0.4504175 0.080665183 0
0.28377604 0.11619207 0
0.70939947 0.067059528 0
0.1456442 0.44753778 0
0.182086 0.30879002 0
0.25025638 0.28536001 0
0.30048561 0.198631 0
0.22260439 0.65354252 0
0.18393379 0.53799691 0
1 0.93043153 0
0.73484937 0.93377585 0
0.49189998 0.92178274 0
0.32366795 0.89503861 0
0.31299855 0.81752783 0
0.2859053 0.74643953 0
1 0.065798641 0
0.53377873 0.1136755 0
0.39585283 0.14641706 0
0.74538647 0.10784059 0
0.36437781 0.20240755 0
0.21649233 0.39757691 0
0.2715214 0.32422118 0
0.31821854 0.2557137 0
0.2719719 0.67175166 0
0.23416247 0.57076375 0
0.23496152 0.4747286 0
1 0.89143919 0
0.73751586 0.88924576 0
0.54997077 0.8848111 0
0.3267497 0.73958757 0
0.42098805 0.85355079 0
0.36662318 0.79504634 0
0.26702539 0.44251905 0
1 0.10290646 0
0.83199019 0.12419638 0
0.55374214 0.14018694 0
0.44934111 0.173817 0
0.67370183 0.1398165 0
0.3980579 0.21737769 0
0.26633767 0.38418761 0
0.35744782 0.2593504 0
0.30798791 0.31141263 0
0.31484468 0.67716945 0
0.27576533 0.61210331 0
0.27707028 0.47947794 0
0.26374905 0.53365394 0
1 0.86960734 0
0.76474764 0.86688908 0
0.80516144 0.85430687 0
0.56352195 0.855076 0
0.36582501 0.74706087 0
0.45543864 0.82492283 0
0.41371115 0.79091881 0
0.34402328 0.69183362 0
0.38267101 0.73955133 0
0.3655885 0.70385428 0
0.28815821 0.3867184 0
0.29131362 0.42515024 0
1 0.12552219 0
0.82755457 0.13898594 0
0.75386073 0.15127192 0
0.47220969 0.19235938 0
0.54959838 0.16429108 0
0.6543229 0.16646936 0
0.65812917 0.15604444 0
0.4244608 0.2277317 0
0.38168953 0.2617659 0
0.31029539 0.3422108 0
0.34420531 0.2986095 0
0.32326845 0.63858232 0
0.29858864 0.59419629 0
0.29318718 0.48150546 0
0.28851089 0.53331324 0
1 0.85739021 0
0.79109556 0.84540731 0
0.65693327 0.84688817 0
0.55058967 0.83210638 0
0.43091649 0.77611932 0
0.48323198 0.80834098 0
0.35148598 0.66546651 0
0.44108382 0.76552447 0
0.40322282 0.74106502 0
0.38175736 0.70544428 0
0.31151601 0.37185755 0
0.31160345 0.40263964 0
0.30510426 0.48758384 0
0.3015955 0.44348441 0
1 0.13977353 0
0.86852209 0.14585563 0
0.75492084 0.1593179 0
0.83330337 0.15521809 0
0.49034214 0.20172639 0
0.65887589 0.17384422 0
0.56684551 0.17929368 0
0.46802682 0.22409284 0
0.417074 0.25176449 0
0.3765058 0.28486177 0
0.34289773 0.32508727 0
0.33346428 0.62471541 0
0.31709835 0.5870023 0
0.30617423 0.53692363 0
1 0.85054437 0
0.83766933 0.84188186 0
0.72282739 0.83710613 0
0.63721144 0.83296096 0
0.35739993 0.65070693 0
0.55734424 0.81696874 0
0.49770742 0.79488172 0
0.47711231 0.77699951 0
0.44638519 0.7572572 0
0.38565749 0.69283806 0
0.41369902 0.73272334 0
0.33132976 0.35967176 0
0.3288189 0.38750822 0
0.31587893 0.50092625 0
0.31742065 0.42431491 0
0.31180254 0.45755716 0
1 0.14836546 0
0.92060553 0.14967767 0
0.86961355 0.15738219 0
0.77574377 0.16508415 0
0.70173698 0.1742468 0
0.53589638 0.19914537 0
0.50339527 0.22089978 0
0.64304376 0.18285568 0
0.5915019 0.18838358 0
0.47927136 0.24151853 0
0.44879992 0.24631411 0
0.40751982 0.27216852 0
0.37794327 0.30082582 0
0.35770246 0.33005287 0
0.3426088 0.61745644 0
0.33026378 0.58760706 0
0.32213666 0.54728289 0
1 0.84653232 0
0.8490291 0.83867226 0
0.75345049 0.834316 0
0.68091589 0.82972375 0
0.62335643 0.82132445 0
0.37705004 0.6665098 0
0.36071512 0.6327079 0
0.56619552 0.80605395 0
0.5201271 0.78966396 0
0.4904322 0.77405934 0
0.52080544 0.77918138 0
0.47104732 0.75933829 0
0.4020084 0.69590242 0
0.4560215 0.74513766 0
0.43894337 0.74229533 0
0.41568717 0.71895558 0
0.34594509 0.36037552 0
0.32904817 0.518203 0
0.36801766 0.33947133 0
0.33636013 0.39831334 0
0.32251466 0.47202637 0
0.32783297 0.43472423 0
1 0.15544112 0
0.93160858 0.15650854 0
0.85235692 0.1637576 0
0.76180375 0.17266732 0
0.83649251 0.16968835 0
0.6875785 0.18305657 0
0.56116791 0.20387965 0
0.52342439 0.22362843 0
0.61929147 0.19346287 0
0.50640436 0.24027576 0
0.46580586 0.25790251 0
0.43637647 0.26486657 0
0.40921759 0.28595262 0
0.38639191 0.31071817 0
0.34586338 0.599015 0
0.3381971 0.56608962 0
1 0.84325211 0
0.8844859 0.83679664 0
0.79998897 0.83271475 0
0.63213172 0.81376068 0
0.73470807 0.82834268 0
0.68266466 0.82334218 0
0.3873265 0.66455205 0
0.37673706 0.63656032 0
0.36013784 0.61147198 0
0.58725946 0.80164627 0
0.63509316 0.80625458 0
0.55708807 0.79129728 0
0.55063039 0.78039077 0
0.49844848 0.76674647 0
0.53010569 0.76995577 0
0.49274633 0.75421861 0
0.4117239 0.68949947 0
0.47611388 0.74411531 0
0.42439566 0.70890334 0
0.45607645 0.73140403 0
0.43693143 0.72680138 0
0.35366221 0.37308423 0
0.36913495 0.35708372 0
0.3950553 0.31856826 0
0.34260534 0.53658946 0
0.33477841 0.49237108 0
0.39095206 0.33778071 0
0.34628387 0.40805624 0
0.33326394 0.45781348 0
0.34240328 0.43602858 0
1 0.16267367 0
0.92093014 0.16431496 0
0.76740329 0.17832723 0
0.85800455 0.17298416 0
0.71472101 0.18729731 0
0.65818885 0.19364047 0
0.61714987 0.20183793 0
0.54904488 0.22344677 0
0.57059276 0.21013656 0
0.54294614 0.23390848 0
0.51240995 0.24800111 0
0.47795097 0.26364286 0
0.44166774 0.27900867 0
0.4164638 0.29780231 0
0.35558928 0.5821056 0
1 0.83912268 0
0.88289131 0.83170961 0
0.79420405 0.82751486 0
0.84006361 0.82548419 0
0.67895204 0.81474183 0
0.76100076 0.82252585 0
0.719295 0.82079516 0
0.40347262 0.66514345 0
0.38934753 0.6358692 0
0.37321192 0.61050566 0
0.6005565 0.79505466 0
0.63533223 0.79754861 0
0.66961547 0.80371304 0
0.56495073 0.77438314 0
0.58301704 0.78487295 0
0.51781207 0.76031639 0
0.54919939 0.76410559 0
0.5132278 0.74959808 0
0.49623802 0.73903475 0
0.42939318 0.69223784 0
0.47258168 0.72697715 0
0.4454164 0.71349 0
0.3530835 0.55228341 0
0.36272295 0.38529867 0
0.38001789 0.3655589 0
0.41694589 0.31497767 0
0.34253142 0.47581852 0
0.35000228 0.50923121 0
0.40387881 0.34170403 0
0.35761118 0.41891638 0
0.34930808 0.45278114 0
1 0.17010308 0
0.93845771 0.17119235 0
0.87629227 0.1768317 0
0.79368339 0.18261212 0
0.73726172 0.19112255 0
0.68493473 0.1974699 0
0.57744649 0.22410929 0
0.63988527 0.20622489 0
0.59407068 0.21310877 0
0.66689845 0.20784604 0
0.54496589 0.24249686 0
0.57673223 0.23271074 0
0.51021537 0.25951739 0
0.46939068 0.28034459 0
0.44103939 0.29636952 0
0.36180116 0.5528452 0
0.37076919 0.58630964 0
1 0.83411603 0
0.90794967 0.82605558 0
0.81214593 0.8200356 0
0.7067787 0.81146383 0
0.7497057 0.81570914 0
0.41667082 0.66414241 0
0.39860491 0.63174403 0
0.38433712 0.60726096 0
0.61561726 0.78594941 0
0.69769963 0.80089066 0
0.65591754 0.79155105 0
0.59095833 0.77376514 0
0.53575086 0.75333392 0
0.5670323 0.76088434 0
0.52047781 0.74062965 0
0.49296539 0.72521841 0
0.4462386 0.69372258 0
0.46233303 0.71192648 0
[...]
CELL_DATA 1188
Scalars  Label int 1
LOOKUP_TABLE FreeFempp_table
0
0
0
0
0
0
0
0
0
0
0
0
0
0
0
0
0
0
0
0
0
0
0
0
0
0
0
0
0
0
0
0
0
0
0
0
0
0
0
0
0
0
0
0
0
0
0
0
0
0
0
0
0
0
0
0
0
0
0
0
0
0
0
0
0
0
0
0
0
0
0
0
0
0
0
0
0
0
0
0
0
0
0
0
0
0
0
0
0
0
0
0
0
0
0
0
0
0
0
0
0
0
0
0
0
0
0
0
0
0
0
0
0
0
0
0
0
0
0
0
0
0
0
0
0
0
0
0
0
0
0
0
0
0
0
0
0
0
0
0
0
0
0
0
0
0
0
0
0
0
0
0
0
0
0
0
0
0
0
0
0
0
0
0
0
0
0
0
0
0
0
0
0
0
0
0
0
0
0
0
0
0
0
0
0
0
0
0
0
0
0
0
0
0
0
0
0
0
0
0
0
0
0
0
0
0
0
0
0
0
0
0
0
0
0
0
0
0
0
0
0
0
0
0
0
0
0
0
0
0
0
0
0
0
0
0
0
0
0
0
0
0
0
0
0
0
0
0
0
0
0
0
0
0
0
0
0
0
0
0
0
0
0
0
0
0
0
0
0
0
0
0
0
0
0
0
0
0
0
0
0
0
0
0
0
0
0
0
0
0
0
0
0
0
0
0
0
0
0
0
0
0
0
0
0
0
0
0
0
0
0
0
0
0
0
0
0
0
0
0
0
0
0
0
0
0
0
0
0
0
0
0
0
0
0
0
0
0
0
0
0
0
0
0
0
0
0
0
0
0
0
0
0
0
0
0
0
0
0
0
0
0
0
0
0
0
0
0
0
0
0
0
0
0
0
0
0
0
0
0
0
0
0
0
0
0
0
0
0
0
0
0
0
0
0
0
0
0
0
0
0
0
0
0
0
0
0
0
0
0
0
0
0
0
0
0
0
0
0
0
0
0
0
0
0
0
0
0
0
0
0
0
0
0
0
0
0
0
0
0
0
0
0
0
0
0
0
0
0
0
0
0
0
0
0
0
0
0
0
0
0
0
0
0
0
0
0
0
0
0
0
0
0
0
0
0
0
0
0
0
0
0
0
0
0
0
0
0
0
0
0
0
0
0
0
0
0
0
0
0
0
0
0
0
0
0
0
0
0
0
0
0
0
0
0
0
0
0
0
0
0
0
0
0
0
0
0
0
0
0
0
0
0
0
0
0
0
0
0
0
0
0
0
0
0
0
0
0
0
0
0
0
0
0
0
0
0
0
0
0
0
0
0
0
0
0
0
0
0
0
0
0
0
0
0
0
0
0
0
0
0
0
0
0
0
0
0
0
0
0
0
0
0
0
0
0
0
0
0
0
0
0
0
0
0
0
0
0
0
0
0
0
0
0
0
0
0
0
0
0
0
0
0
0
0
0
0
0
0
0
0
0
0
0
0
0
0
0
0
0
0
0
0
0
0
0
0
0
0
0
0
0
0
0
0
0
0
0
0
0
0
0
0
0
0
0
0
0
0
0
0
0
0
0
0
0
0
0
0
0
0
0
0
0
0
0
0
0
0
0
0
0
0
0
0
0
0
0
0
0
0
0
0
0
0
0
0
0
0
0
0
0
0
0
0
0
0
0
0
0
0
0
0
0
0
0
0
0
0
0
0
0
0
0
0
0
0
0
0
0
0
0
0
0
0
0
0
0
0
0
0
0
0
0
0
0
0
0
0
0
0
0
0
0
0
0
0
0
0
0
0
0
0
0
0
0
0
0
0
0
0
0
0
0
0
0
0
0
0
0
0
0
0
0
0
0
0
0
0
0
0
0
0
0
0
0
0
0
0
0
0
0
0
0
0
0
0
0
0
0
0
0
0
0
0
0
0
0
0
0
0
0
0
0
0
0
0
0
0
0
0
0
0
0
0
0
0
0
0
0
0
0
0
0
0
0
0
0
0
0
0
0
0
0
0
0
0
0
0
0
0
0
0
0
0
0
0
0
0
0
0
0
0
0
0
0
0
0
0
0
0
0
0
0
0
0
0
0
0
0
0
0
0
0
0
0
0
0
0
0
0
0
0
0
0
0
0
0
0
0
0
0
0
0
0
0
0
0
0
0
0
0
0
0
0
0
0
0
0
0
0
0
0
0
0
0
0
0
0
0
0
0
0
0
0
0
0
0
0
0
0
0
0
0
0
0
0
0
0
0
0
0
0
0
0
0
0
0
0
0
0
0
0
0
0
0
0
0
0
0
0
0
0
0
0
0
0
0
0
0
0
0
0
0
0
0
0
0
0
0
0
0
0
0
0
0
0
0
0
0
0
0
0
0
0
0
0
0
0
0
0
0
0
0
0
0
0
0
0
0
0
0
0
0
0
0
0
0
0
0
0
0
0
0
0
0
0
0
0
0
0
0
0
0
0
0
0
0
0
0
0
0
0
0
0
0
0
0
0
0
0
0
0
0
0
0
0
0
0
0
0
0
0
0
0
0
1
1
1
1
1
1
1
1
1
3
3
3
3
3
3
3
3
3
2
2
2
2
2
2
2
2
2
2
2
2
2
2
2
2
2
2
2
2
2
2
2
2
2
2
2
2
2
2
2
2
2
2
2
2
2
4
4
4
4
4
4
4
4
4
4
4
4
4
4
4
4
4
4
4
4
4
4
4
4
4
4
4
4
4
4
4
4
4
4
4
4
4

LOOKUP_TABLE FreeFempp_table 5
1.00000000 0.00000000 0.00000000 1.00000000
1.00000000 1.00000000 0.00000000 1.00000000
1.00000000 0.00000000 1.00000000 1.00000000
0.00000000 1.00000000 0.00000000 1.00000000
0.00000000 1.00000000 1.00000000 1.00000000

POINT_DATA 595
FIELD FieldData 1
Density 1 595 float
9.90001023e-01 9.88537729e-01 9.89694893e-01 9.90001023e-01 9.90001023e-01 9.90001023e-01 9.90001023e-01 9.90001023e-01 9.90001023e-01 9.90001023e-01 6.38832331e-01 9.80630934e-01 8.89490247e-01 9.37370360e-01 9.70301211e-01 8.13181758e-01 9.90001023e-01 9.38983083e-01 9.90001023e-01 9.90001023e-01 9.90001023e-01 9.90001023e-01 9.87646341e-01 3.27239394e-01 1.02627933e-01 9.76572692e-01 4.25058335e-01 8.65983784e-01 9.89962399e-01 9.89327729e-01 9.88912344e-01 9.74532425e-01 9.90001023e-01 9.83122468e-01 8.81072998e-01 1.03818839e-02 2.57926919e-02 1.00989901e-02 9.59457383e-02 7.62268186e-01 5.87027311e-01 1.07069880e-01 4.65147972e-01 9.58473802e-01 9.83513176e-01 8.16414356e-01 3.89197528e-01 9.32859838e-01 9.90001023e-01 9.45858479e-01 6.34149611e-01 5.70530355e-01 6.71534956e-01 4.89997603e-02 1.00989901e-02 1.00989901e-02 1.43532297e-02 3.16863596e-01 3.71864736e-02 1.22101553e-01 1.02820255e-01 6.93948388e-01 2.70263761e-01 2.04271507e-02 5.30167043e-01 9.90001023e-01 4.53192443e-01 2.15880245e-01 1.32519767e-01 2.18053609e-01 1.06922938e-02 1.00989901e-02 1.00989901e-02 1.64558291e-02 1.00989901e-02 1.75157711e-02 4.23796400e-02 1.02016823e-02 1.00989901e-02 9.77234125e-01 9.48273003e-01 8.45346093e-01 1.19300812e-01 1.93841290e-02 1.44413365e-02 1.87839679e-02 1.00989901e-02 1.00989901e-02 1.00989901e-02 1.00989901e-02 1.00989901e-02 1.00989901e-02 1.00989901e-02 6.84152484e-01 1.76531017e-01 7.33047575e-02 3.54144603e-01 3.59797180e-02 1.73965283e-02 1.00989901e-02 1.04165599e-02 1.00989901e-02 1.00989901e-02 1.00989901e-02 1.00989901e-02 1.00989901e-02 1.00989901e-02 1.00989901e-02 1.00989901e-02 1.00989901e-02 1.00989901e-02 1.00989901e-02 1.00989901e-02 1.00989901e-02 1.00989901e-02 1.00989901e-02 1.00989901e-02 1.00989901e-02 1.00989901e-02 1.00989901e-02 1.00989901e-02 1.00989901e-02 1.00989901e-02 1.00989901e-02 1.00989901e-02 1.00989901e-02 1.00989901e-02 1.00989901e-02 1.00989901e-02 1.00989901e-02 1.00989901e-02 1.00989901e-02 1.00989901e-02 1.00989901e-02 1.00989901e-02 1.00989901e-02 1.00989901e-02 1.00989901e-02 1.00989901e-02 1.00989901e-02 1.00989901e-02 1.00989901e-02 1.00989901e-02 1.00989901e-02 1.00989901e-02 1.00989901e-02 1.00989901e-02 1.00989901e-02 1.00989901e-02 1.00989901e-02 1.00989901e-02 1.00989901e-02 1.00989901e-02 1.00989901e-02 1.00989901e-02 1.00989901e-02 1.00989901e-02 1.00989901e-02 1.00989901e-02 1.00989901e-02 1.00989901e-02 1.00989901e-02 1.00989901e-02 1.00989901e-02 1.00989901e-02 1.00989901e-02 1.00989901e-02 1.00989901e-02 1.00989901e-02 1.00989901e-02 1.00989901e-02 1.00989901e-02 1.00989901e-02 1.00989901e-02 1.00989901e-02 1.00989901e-02 1.00989901e-02 1.00989901e-02 1.00989901e-02 1.00989901e-02 1.00989901e-02 1.00989901e-02 1.00989901e-02 1.00989901e-02 1.00989901e-02 1.00989901e-02 1.00989901e-02 1.00989901e-02 1.00989901e-02 1.00989901e-02 1.00989901e-02 1.00989901e-02 1.00989901e-02 1.00989901e-02 1.00989901e-02 1.00989901e-02 1.00989901e-02 1.00989901e-02 1.01356311e-02 1.01170633e-02 1.00989901e-02 1.01059983e-02 1.00989901e-02 1.00989901e-02 1.01139769e-02 1.00989901e-02 1.01789283e-02 1.00989901e-02 1.00989901e-02 1.06717981e-02 1.10555887e-02 1.69813950e-02 1.00989901e-02 1.01252543e-02 1.00989901e-02 1.01173129e-02 1.02293957e-02 1.00989901e-02 1.00989901e-02 1.00989901e-02 1.00989901e-02 1.00989901e-02 1.00989901e-02 1.08393375e-02 1.00989901e-02 1.90961342e-02 1.07860416e-02 1.16848918e-02 1.06404377e-02 1.00989901e-02 1.13708982e-02 1.01623684e-02 1.00989901e-02 1.02457609e-02 1.01541225e-02 2.45665777e-02 1.24443593e-02 1.46044474e-02 4.02357243e-02 1.56263411e-02 2.45554484e-02 3.28495614e-02 2.47213896e-02 1.03818839e-02 1.26829464e-02 1.99688468e-02 3.27509642e-02 1.00989901e-02 3.12787518e-02 1.04832808e-02 1.01048751e-02 1.95376370e-02 2.98975259e-02 2.02471334e-02 5.96453138e-02 2.44717710e-02 3.07042245e-02 1.73965283e-02 2.50276662e-02 2.63579395e-02 1.17695546e-02 9.56205279e-02 1.03371730e-02 1.19730318e-02 2.90641729e-02 3.39054689e-02 1.19155921e-01 7.13695884e-02 4.66805957e-02 5.59120812e-02 7.15773553e-02 3.83185111e-02 7.67543092e-02 2.57926919e-02 3.39124575e-02 7.42054507e-02 5.04268892e-02 6.43077865e-02 1.24173975e-02 4.41802181e-02 5.87798879e-02 3.21571603e-02 9.69194546e-02 5.72959296e-02 4.17296588e-02 8.30678344e-02 8.47824365e-02 1.61158487e-01 1.29270792e-01 1.09737247e-01 3.59797180e-02 4.57108282e-02 4.85716201e-02 2.73526460e-02 1.42000411e-02 1.28957510e-01 2.59760618e-01 2.23422479e-02 2.05402672e-02 5.51432632e-02 9.14981589e-02 1.02012098e-01 2.42463395e-01 1.39446512e-01 8.55494216e-02 1.49558708e-01 1.27111420e-01 2.12813616e-01 1.98511034e-01 1.49102911e-01 1.98926076e-01 2.04067886e-01 1.02627933e-01 1.37447432e-01 1.69161290e-01 1.58927158e-01 2.67975390e-01 2.09716439e-01 3.17723267e-02 1.34784922e-01 9.73036438e-02 2.59975672e-01 2.86618829e-01 1.46504000e-01 1.91697106e-01 2.04988480e-01 2.92254984e-01 2.72320092e-01 7.33047575e-02 1.13680847e-01 1.19819932e-01 3.74736898e-02 1.53536662e-01 7.67989755e-02 3.45705181e-01 5.06982923e-01 5.12573183e-01 8.70308727e-02 1.03702776e-01 1.63747087e-01 1.93652734e-01 2.77129322e-01 3.31744790e-01 3.95077735e-01 5.14217079e-01 2.71796107e-01 4.62196022e-01 3.80227715e-01 3.13218445e-01 3.20680708e-01 3.91432077e-01 3.74189109e-01 4.36103493e-01 3.80933940e-01 5.17220438e-01 2.97197908e-01 3.82232726e-01 4.49551284e-01 3.27239394e-01 3.36430252e-01 2.97792524e-01 4.95797962e-01 5.00599802e-01 3.68205220e-01 2.42444769e-01 3.06640923e-01 1.40510932e-01 5.80984771e-01 5.47443390e-01 4.94207263e-01 4.27692592e-01 4.17069644e-01 6.01583660e-01 1.76531017e-01 2.45356277e-01 2.40906492e-01 4.07340020e-01 1.17758498e-01 3.41625303e-01 2.77667433e-01 6.40526414e-01 7.17154860e-01 8.34199071e-01 2.73315847e-01 3.92068714e-01 3.60826254e-01 5.13080180e-01 4.59713012e-01 5.83108485e-01 6.43763900e-01 7.40902126e-01 6.33186996e-01 7.81288922e-01 6.37349844e-01 6.57163262e-01 6.55901015e-01 5.40776491e-01 6.34975433e-01 6.79560900e-01 5.93780398e-01 6.79047108e-01 7.41270483e-01 6.52110517e-01 6.94955289e-01 6.38832331e-01 6.50078654e-01 7.35623419e-01 5.78543127e-01 7.51555860e-01 7.43536651e-01 5.63750982e-01 5.80993056e-01 3.00725371e-01 8.21285903e-01 7.73266613e-01 8.56219947e-01 7.95904756e-01 7.38447428e-01 7.46034741e-01 8.40944707e-01 8.65435243e-01 3.54144603e-01 5.89646637e-01 5.48294783e-01 4.47076023e-01 6.34302914e-01 8.22544277e-01 9.04323757e-01 8.99898052e-01 6.50718212e-01 6.55869663e-01 6.72982275e-01 8.16954911e-01 8.09131324e-01 8.77884984e-01 9.18580532e-01 8.29857707e-01 8.85821819e-01 8.60084951e-01 8.04875195e-01 7.77911246e-01 8.80679846e-01 8.50702882e-01 8.46514702e-01 8.18225741e-01 8.67027640e-01 8.57087076e-01 8.89490247e-01 7.88669229e-01 8.57065856e-01 8.69702935e-01 8.89938056e-01 6.90354824e-01 9.38694477e-01 9.04028535e-01 9.41875517e-01 8.94643724e-01 9.05436158e-01 9.19201672e-01 9.55296338e-01 6.84152484e-01 7.85139382e-01 8.34498346e-01 7.66034842e-01 9.54208493e-01 9.51466322e-01 8.87784302e-01 8.54326427e-01 8.54655027e-01 9.22359943e-01 9.44638193e-01 9.77513075e-01 9.40324366e-01 9.34189618e-01 8.77695501e-01 9.30201232e-01 9.20406342e-01 9.57378328e-01 9.17859852e-01 9.51816559e-01 9.77003038e-01 9.37370360e-01 9.38544571e-01 9.29238081e-01 9.68774438e-01 9.19011831e-01 9.79163587e-01 9.76507604e-01 9.46207762e-01 9.71481383e-01 9.87282574e-01 9.85758662e-01 8.45346093e-01 9.15561557e-01 9.17439759e-01 9.17251825e-01 9.79663253e-01 9.88071740e-01 9.87391412e-01 9.58570123e-01 9.31142688e-01 9.70631063e-01 9.78950560e-01 9.80026424e-01 9.84224081e-01 9.57855821e-01 9.77207899e-01 9.88448858e-01 9.80630934e-01 9.76091146e-01 9.89985108e-01 9.82739627e-01 9.89051759e-01 9.89648283e-01 9.84952033e-01 9.86731708e-01 9.90001023e-01 9.90001023e-01 9.51706946e-01 9.48273003e-01 9.63521779e-01 9.85438883e-01 9.90001023e-01 9.89616275e-01 9.83893752e-01 9.89852250e-01 9.88988101e-01 9.89982069e-01 9.90001023e-01 9.90001023e-01 9.88537729e-01 9.88466382e-01 9.90001023e-01 9.90000308e-01 9.89992619e-01 9.89998281e-01 9.89852190e-01 9.90001023e-01 9.90001023e-01 9.85466421e-01 9.77234125e-01 9.89966631e-01 9.90001023e-01 9.90001023e-01 9.89675999e-01 9.90001023e-01 9.90001023e-01 9.89694893e-01 9.90001023e-01 9.90001023e-01 9.90001023e-01 9.90001023e-01 9.90001023e-01 9.90001023e-01 9.90001023e-01 9.90001023e-01 9.90001023e-01 9.90001023e-01 9.90001023e-01 9.90001023e-01 9.90001023e-01 9.90001023e-01 9.90001023e-01 9.90001023e-01 9.90001023e-01 9.90001023e-01 9.90001023e-01 9.90001023e-01 9.90001023e-01 9.90001023e-01 9.90001023e-01 9.90001023e-01 9.90001023e-01 9.90001023e-01 9.90001023e-01 9.90001023e-01 9.90001023e-01 9.90001023e-01 9.90001023e-01 9.90001023e-01 9.90001023e-01 9.90001023e-01 9.90001023e-01 9.90001023e-01 9.90001023e-01 9.90001023e-01 9.90001023e-01 9.90001023e-01 9.90001023e-01 9.90001023e-01 9.90001023e-01 9.90001023e-01 9.90001023e-01 9.90001023e-01 9.90001023e-01 
