# vtk DataFile Version 2.0
sol_toll1e-05_vf0.3iter17.vtk, Created by Freefem++ 
ASCII
DATASET UNSTRUCTURED_GRID
POINTS 589 float
1 0.60921774 0
1 0.47786468 0
0.79687938 0.53816739 0
1 0.69463906 0
0.79485924 0.6384469 0
1 0.74263016 0
1 0.35255897 0
0.75622662 0.42440125 0
0.65985725 0.54205105 0
0.80680838 0.70474954 0
0.66103537 0.64310439 0
1 0.77118616 0
0.81167643 0.74399279 0
1 0.28217209 0
0.79954735 0.32586376 0
0.64851757 0.37867817 0
0.56410692 0.56506876 0
0.57989883 0.46544173 0
0.66870652 0.6967355 0
0.55912665 0.63169168 0
0.85029861 0.77468258 0
1 0.78974278 0
0.73791761 0.75608858 0
0.65794759 0.72402333 0
0.74130083 0.77257451 0
1 0.24223371 0
0.81429031 0.27252285 0
0.67003376 0.31508057 0
0.55931517 0.38150907 0
0.49495004 0.45900781 0
0.50149556 0.54082485 0
0.56029605 0.6740196 0
0.48811533 0.60547924 0
0.84919758 0.79070667 0
1 0.80249754 0
0.64309489 0.74271493 0
0.56315248 0.70375453 0
0.64197456 0.75648773 0
0.72368161 0.78091267 0
1 0.21840412 0
0.8281971 0.24079545 0
0.69213673 0.27260667 0
0.58500733 0.32118419 0
0.50017749 0.38159827 0
0.45218685 0.45379279 0
0.44939209 0.53143105 0
0.49357987 0.65303931 0
0.44412465 0.59395492 0
0.79988691 0.79651573 0
1 0.81120879 0
0.88583122 0.80423633 0
1 0.8173804 0
0.50181175 0.68485728 0
0.56410357 0.72332616 0
0.56851002 0.73887522 0
0.7458455 0.79476426 0
0.62618142 0.76334458 0
0.67238119 0.78016614 0
1 0.20334881 0
0.84187643 0.22039063 0
0.7139557 0.24486019 0
0.5365299 0.32072764 0
0.61194165 0.27903064 0
0.44527469 0.41135908 0
0.47917322 0.3554876 0
0.42002486 0.48413268 0
0.41425724 0.43902277 0
0.41305142 0.54045264 0
0.45345263 0.63996787 0
0.41761422 0.59237053 0
0.81999456 0.80572991 0
0.89731405 0.81217039 0
0.8913183 0.81630031 0
1 0.82225879 0
1 0.82801439 0
0.46529676 0.67385331 0
0.5091965 0.70759117 0
0.77513097 0.80540403 0
0.73764591 0.80144163 0
0.52119126 0.72639562 0
0.56459918 0.74908731 0
0.69298736 0.79124 0
0.60437399 0.7672236 0
0.63583224 0.78031318 0
1 0.19287731 0
0.85620643 0.20651466 0
0.73651743 0.22550254 0
0.63965345 0.25064433 0
0.51502805 0.31062083 0
0.5686056 0.28012315 0
0.43707246 0.38179113 0
0.4763337 0.33077222 0
0.39576983 0.48864193 0
0.40075439 0.43177796 0
0.38147492 0.50065217 0
0.39313826 0.54775632 0
0.42814634 0.6334719 0
0.40153441 0.5948419 0
0.43794839 0.66234959 0
0.81457045 0.8120774 0
0.8811155 0.82048365 0
1 0.83525519 0
0.90806004 0.82773518 0
0.43361748 0.67149878 0
0.47023296 0.69541686 0
0.48414437 0.7131695 0
0.75201746 0.81017808 0
0.70762051 0.80285113 0
0.50223439 0.72975466 0
0.52996671 0.74192757 0
0.56035639 0.75737368 0
0.65955805 0.79280579 0
0.6134436 0.78379465 0
0.58654578 0.77172452 0
0.76532207 0.21025266 0
1 0.18492121 0
0.8742387 0.19603853 0
0.66695685 0.23055822 0
0.58632934 0.25737535 0
0.52942886 0.28613301 0
0.41660885 0.38219939 0
0.44673956 0.34177882 0
0.48788136 0.30352691 0
0.39169835 0.41272748 0
0.38107321 0.45962856 0
0.36905085 0.48259933 0
0.37614253 0.53406201 0
0.38581623 0.58062768 0
0.40649625 0.62542355 0
0.40262677 0.63691116 0
0.41974551 0.67067796 0
1 0.84011871 0
0.79112282 0.81708079 0
0.81354497 0.82358596 0
0.8728084 0.83129162 0
0.73859001 0.81734891 0
0.44811108 0.69649919 0
0.46638746 0.71404659 0
0.70794019 0.81287265 0
0.66644444 0.80430098 0
0.53563386 0.753102 0
0.47478283 0.72811683 0
0.49956339 0.74036779 0
0.51483187 0.74871515 0
0.55102965 0.76625887 0
0.62018127 0.79426707 0
0.57681025 0.78128037 0
0.59535185 0.24370541 0
0.71333801 0.21115479 0
1 0.17817342 0
0.78937121 0.19906179 0
0.89191121 0.18758768 0
0.65209559 0.22312267 0
0.54011133 0.26701053 0
0.41855947 0.35546203 0
0.44987401 0.31891431 0
0.4910567 0.28855849 0
0.38846355 0.39489242 0
0.36899044 0.44101185 0
0.36267688 0.51485108 0
0.35716471 0.47541092 0
0.37168305 0.56625371 0
0.36060774 0.54836573 0
0.38154404 0.60222693 0
0.42849845 0.6955953 0
0.40292107 0.6671085 0
0.38991043 0.63433056 0
1 0.84359602 0
0.85668515 0.83488464 0
1 0.84688914 0
0.74626751 0.8232834 0
0.7752427 0.82818298 0
0.70274642 0.82218553 0
0.4446368 0.71501195 0
0.67199302 0.81525081 0
0.62844475 0.80521836 0
0.45508166 0.73242859 0
0.52079446 0.76151911 0
0.47779993 0.7450902 0
0.49649888 0.75587791 0
0.53402132 0.77337896 0
0.58525966 0.79416391 0
0.54992892 0.78436344 0
0.60374031 0.23238902 0
0.55750302 0.24800765 0
0.72620278 0.20121788 0
0.67748606 0.20921487 0
1 0.17138694 0
0.92616293 0.17897698 0
0.79013749 0.19249617 0
0.85282065 0.18508581 0
0.62655341 0.21820451 0
0.4003598 0.3597576 0
0.50910731 0.26990985 0
0.42747073 0.32374022 0
0.45862203 0.2981414 0
0.37466208 0.3996359 0
0.35758811 0.42287796 0
0.35077223 0.45172276 0
0.34405527 0.47556001 0
0.34893565 0.51022113 0
0.36497335 0.58812261 0
0.35239537 0.55718847 0
0.36977613 0.61010496 0
0.41155167 0.69510144 0
0.42346054 0.71453329 0
0.38680217 0.66728092 0
0.37585411 0.63640636 0
0.84344694 0.83823186 0
0.76290438 0.8324655 0
0.8374707 0.84158347 0
1 0.85116772 0
0.70873982 0.82884724 0
0.66636451 0.82392396 0
0.43371744 0.73042275 0
0.62702888 0.81401907 0
0.58410158 0.80270258 0
0.45534056 0.74781272 0
0.50074606 0.76947693 0
0.47763732 0.7616858 0
0.51382707 0.78010327 0
0.54320034 0.79235917 0
0.87107403 0.17841118 0
0.55118109 0.2401306 0
0.58133452 0.2312118 0
0.51441285 0.25811648 0
0.65271875 0.20492565 0
0.73970415 0.19319852 0
0.69387518 0.19816525 0
0.5846348 0.22189418 0
1 0.16303184 0
0.93116942 0.17130702 0
0.79613618 0.18438031 0
0.60662299 0.21078634 0
0.40186174 0.33919068 0
0.37951349 0.36805541 0
0.41280659 0.31542582 0
0.46803582 0.2803457 0
0.43604039 0.29918157 0
0.36195921 0.38947606 0
0.34076678 0.43734951 0
0.34508062 0.40831304 0
0.35663813 0.61251057 0
0.33231276 0.45921262 0
0.33398441 0.49474998 0
0.33972055 0.53980101 0
0.35062692 0.58534521 0
0.41152917 0.72348145 0
0.40214581 0.70168944 0
0.37653921 0.66963006 0
0.35894515 0.63434227 0
0.73439312 0.836009 0
0.81483974 0.84536336 0
1 0.85810313 0
0.66002031 0.83128368 0
0.61290711 0.82183828 0
0.40573106 0.73366371 0
0.43253035 0.74584331 0
0.56034396 0.80723868 0
0.45684773 0.76420948 0
0.48217382 0.77637702 0
0.50728439 0.79020509 0
0.85650158 0.17371992 0
0.51984821 0.24517621 0
0.54995978 0.2307223 0
0.48259622 0.26192861 0
0.63308791 0.19918567 0
0.67374426 0.19259129 0
0.72499001 0.18771755 0
1 0.15516691 0
0.56035349 0.21893046 0
0.91914768 0.16429094 0
0.77346401 0.17879637 0
0.58991472 0.20424185 0
0.38365917 0.33976809 0
0.36443223 0.36144812 0
0.39069291 0.31707552 0
0.41352527 0.29676806 0
0.44184318 0.27859119 0
0.34957905 0.37427494 0
0.32631597 0.43546435 0
0.33351282 0.3978184 0
0.34172492 0.60168736 0
0.3212267 0.47326346 0
0.32549098 0.5202105 0
0.33340691 0.56878422 0
0.33981991 0.62093781 0
0.38406992 0.69603274 0
0.35545986 0.65248471 0
0.38051869 0.7102604 0
0.69230821 0.84022727 0
1 0.87017127 0
0.78761421 0.85247854 0
0.60478943 0.83247 0
0.55041955 0.81919154 0
0.39726783 0.74413413 0
0.43103086 0.76187441 0
0.49852729 0.80066014 0
0.46183578 0.78126674 0
0.83710508 0.16939227 0
0.51350388 0.23732641 0
0.46916316 0.25662339 0
0.63563866 0.19131415 0
0.69434101 0.18312696 0
0.92921043 0.15698089 0
1 0.14876533 0
0.53936769 0.21751742 0
0.44053633 0.26223398 0
0.84430735 0.16347008 0
0.75910664 0.17302199 0
0.57707839 0.19925826 0
0.36435583 0.3389468 0
0.3826395 0.30812709 0
0.40866347 0.28408687 0
0.34328737 0.35574865 0
0.31173992 0.45540976 0
0.32710216 0.37906096 0
0.31646859 0.42113121 0
0.32617973 0.59231939 0
0.31356606 0.50127551 0
0.318708 0.55222484 0
0.32822107 0.62567381 0
0.35114514 0.66714558 0
0.36030694 0.70191988 0
1 0.89172116 0
0.63721684 0.84597231 0
0.75732673 0.86553557 0
0.54161507 0.83296275 0
0.38834661 0.75375237 0
0.48000559 0.81049709 0
0.43443784 0.78218403 0
0.48731475 0.23804073 0
0.63220797 0.18559357 0
0.69142262 0.17644077 0
0.30314037 0.48000859 0
0.88327812 0.15499678 0
1 0.142332 0
0.41241722 0.26757699 0
0.51138678 0.21888489 0
0.45925548 0.24058401 0
0.7594127 0.16589716 0
0.53242609 0.2038379 0
0.58166151 0.18823254 0
0.35558044 0.32488369 0
0.3754329 0.29731664 0
0.33263267 0.34405951 0
0.30127757 0.43477971 0
0.31166711 0.39184441 0
0.31201875 0.58804609 0
0.30527177 0.53338432 0
0.3268774 0.65223075 0
0.34910038 0.71046955 0
1 0.93067697 0
0.7463756 0.89002237 0
0.58194756 0.85638301 0
0.36119968 0.75276131 0
0.47323525 0.82850098 0
0.41307747 0.79549423 0
0.64962138 0.1759345 0
0.29193588 0.48076156 0
0.82906455 0.15395224 0
1 0.13429759 0
0.37828333 0.27981075 0
0.42441222 0.24694819 0
0.4710471 0.22285912 0
0.68309954 0.16621184 0
0.50532582 0.20127129 0
0.5698388 0.18098263 0
1 1 0
0.34360763 0.3150379 0
0.31171831 0.36124992 0
0.29020945 0.41827503 0
0.29891367 0.60326445 0
0.29080788 0.540868 0
0.31661414 0.68147729 0
0.73863833 0.93462206 0
0.32105388 0.73803085 0
0.46964761 0.85176243 0
0.55596232 0.88489777 0
0.35776892 0.79086536 0
0.40103588 0.82667265 0
0.27792495 0.47626036 0
0.79730526 0.14991961 0
1 0.12206643 0
0.39320614 0.25311601 0
0.34906157 0.28765388 0
0.43382629 0.22425666 0
0.63649109 0.16066267 0
0.46727706 0.19831152 0
0.5235599 0.17579914 0
0.68551909 1 0
0.31021834 0.33298374 0
0.2853367 0.38234304 0
0.27901694 0.61029422 0
0.2644057 0.44221206 0
0.2668292 0.52777724 0
0.27536249 0.67193196 0
0.49417138 0.92536938 0
0.28471783 0.74822073 0
0.38616979 0.86391849 0
0.31492288 0.80991408 0
0.77951007 0.14362051 0
0.76089365 0.13337634 0
1 0.10156982 0
0.36485164 0.25517891 0
0.31163123 0.30319196 0
0.39278746 0.22188747 0
0.55253988 0.15150326 0
0.41949517 0.1875542 0
0.40785798 1 0
0.26558171 0.37887182 0
0.24109409 0.57071455 0
0.23834793 0.47181011 0
0.22783757 0.66140032 0
0.30328407 0.90682458 0
0.2264863 0.75348461 0
0.24459237 0.82977989 0
1 0.065407613 0
0.75120686 0.11094966 0
0.26452603 0.33100293 0
0.33709826 0.22168695 0
0.3163246 0.26336104 0
0.51873187 0.11930822 0
0.36947473 0.15886436 0
0.30074508 0.19984562 0
0.22757185 1 0
0.21852085 0.41879046 0
0.19554184 0.5388794 0
0.16966912 0.66786582 0
0.17636636 0.88288302 0
[...]
CELL_DATA 1176
Scalars  Label int 1
LOOKUP_TABLE FreeFempp_table
0
0
0
0
0
0
0
0
0
0
0
0
0
0
0
0
0
0
0
0
0
0
0
0
0
0
0
0
0
0
0
0
0
0
0
0
0
0
0
0
0
0
0
0
0
0
0
0
0
0
0
0
0
0
0
0
0
0
0
0
0
0
0
0
0
0
0
0
0
0
0
0
0
0
0
0
0
0
0
0
0
0
0
0
0
0
0
0
0
0
0
0
0
0
0
0
0
0
0
0
0
0
0
0
0
0
0
0
0
0
0
0
0
0
0
0
0
0
0
0
0
0
0
0
0
0
0
0
0
0
0
0
0
0
0
0
0
0
0
0
0
0
0
0
0
0
0
0
0
0
0
0
0
0
0
0
0
0
0
0
0
0
0
0
0
0
0
0
0
0
0
0
0
0
0
0
0
0
0
0
0
0
0
0
0
0
0
0
0
0
0
0
0
0
0
0
0
0
0
0
0
0
0
0
0
0
0
0
0
0
0
0
0
0
0
0
0
0
0
0
0
0
0
0
0
0
0
0
0
0
0
0
0
0
0
0
0
0
0
0
0
0
0
0
0
0
0
0
0
0
0
0
0
0
0
0
0
0
0
0
0
0
0
0
0
0
0
0
0
0
0
0
0
0
0
0
0
0
0
0
0
0
0
0
0
0
0
0
0
0
0
0
0
0
0
0
0
0
0
0
0
0
0
0
0
0
0
0
0
0
0
0
0
0
0
0
0
0
0
0
0
0
0
0
0
0
0
0
0
0
0
0
0
0
0
0
0
0
0
0
0
0
0
0
0
0
0
0
0
0
0
0
0
0
0
0
0
0
0
0
0
0
0
0
0
0
0
0
0
0
0
0
0
0
0
0
0
0
0
0
0
0
0
0
0
0
0
0
0
0
0
0
0
0
0
0
0
0
0
0
0
0
0
0
0
0
0
0
0
0
0
0
0
0
0
0
0
0
0
0
0
0
0
0
0
0
0
0
0
0
0
0
0
0
0
0
0
0
0
0
0
0
0
0
0
0
0
0
0
0
0
0
0
0
0
0
0
0
0
0
0
0
0
0
0
0
0
0
0
0
0
0
0
0
0
0
0
0
0
0
0
0
0
0
0
0
0
0
0
0
0
0
0
0
0
0
0
0
0
0
0
0
0
0
0
0
0
0
0
0
0
0
0
0
0
0
0
0
0
0
0
0
0
0
0
0
0
0
0
0
0
0
0
0
0
0
0
0
0
0
0
0
0
0
0
0
0
0
0
0
0
0
0
0
0
0
0
0
0
0
0
0
0
0
0
0
0
0
0
0
0
0
0
0
0
0
0
0
0
0
0
0
0
0
0
0
0
0
0
0
0
0
0
0
0
0
0
0
0
0
0
0
0
0
0
0
0
0
0
0
0
0
0
0
0
0
0
0
0
0
0
0
0
0
0
0
0
0
0
0
0
0
0
0
0
0
0
0
0
0
0
0
0
0
0
0
0
0
0
0
0
0
0
0
0
0
0
0
0
0
0
0
0
0
0
0
0
0
0
0
0
0
0
0
0
0
0
0
0
0
0
0
0
0
0
0
0
0
0
0
0
0
0
0
0
0
0
0
0
0
0
0
0
0
0
0
0
0
0
0
0
0
0
0
0
0
0
0
0
0
0
0
0
0
0
0
0
0
0
0
0
0
0
0
0
0
0
0
0
0
0
0
0
0
0
0
0
0
0
0
0
0
0
0
0
0
0
0
0
0
0
0
0
0
0
0
0
0
0
0
0
0
0
0
0
0
0
0
0
0
0
0
0
0
0
0
0
0
0
0
0
0
0
0
0
0
0
0
0
0
0
0
0
0
0
0
0
0
0
0
0
0
0
0
0
0
0
0
0
0
0
0
0
0
0
0
0
0
0
0
0
0
0
0
0
0
0
0
0
0
0
0
0
0
0
0
0
0
0
0
0
0
0
0
0
0
0
0
0
0
0
0
0
0
0
0
0
0
0
0
0
0
0
0
0
0
0
0
0
0
0
0
0
0
0
0
0
0
0
0
0
0
0
0
0
0
0
0
0
0
0
0
0
0
0
0
0
0
0
0
0
0
0
0
0
0
0
0
0
0
0
0
0
0
0
0
0
0
0
0
0
0
0
0
0
0
0
0
0
0
0
0
0
0
0
0
0
0
0
0
0
0
0
0
0
0
0
0
0
0
0
0
0
0
0
0
0
0
0
0
0
0
0
0
0
0
0
0
0
0
0
0
0
0
0
0
0
0
0
0
0
0
0
0
0
0
0
0
0
0
0
0
0
0
0
0
0
0
0
0
0
0
0
0
0
0
0
0
0
0
0
0
0
0
0
0
0
0
0
0
0
0
0
0
0
0
0
0
0
0
0
0
0
0
0
0
0
0
0
0
0
0
0
0
0
0
0
0
0
0
0
0
0
0
0
0
0
0
0
0
0
0
0
0
0
0
0
0
0
0
0
0
1
1
1
1
1
1
1
1
1
3
3
3
3
3
3
3
3
3
2
2
2
2
2
2
2
2
2
2
2
2
2
2
2
2
2
2
2
2
2
2
2
2
2
2
2
2
2
2
2
2
2
2
2
2
2
2
4
4
4
4
4
4
4
4
4
4
4
4
4
4
4
4
4
4
4
4
4
4
4
4
4
4
4
4
4
4
4
4
4
4
4
4
4
4

LOOKUP_TABLE FreeFempp_table 5
1.00000000 0.00000000 0.00000000 1.00000000
1.00000000 1.00000000 0.00000000 1.00000000
1.00000000 0.00000000 1.00000000 1.00000000
0.00000000 1.00000000 0.00000000 1.00000000
0.00000000 1.00000000 1.00000000 1.00000000

POINT_DATA 589
FIELD FieldData 1
Density 1 589 float
9.90001023e-01 9.90001023e-01 9.90001023e-01 9.89999831e-01 9.90001023e-01 9.89985824e-01 9.89999771e-01 9.90001023e-01 9.90001023e-01 9.90000665e-01 9.90001023e-01 9.89629984e-01 9.89993215e-01 9.89986181e-01 9.90000844e-01 9.90001023e-01 9.90001023e-01 9.90001023e-01 9.90000427e-01 9.90000904e-01 9.89824772e-01 9.87311661e-01 9.89906132e-01 9.89986300e-01 9.89147127e-01 9.89917994e-01 9.89999413e-01 9.90000963e-01 9.90000606e-01 9.90000844e-01 9.90001023e-01 9.89995837e-01 9.90000606e-01 9.88229573e-01 9.80073690e-01 9.89732802e-01 9.89886999e-01 9.87496436e-01 9.84339058e-01 9.89525318e-01 9.89991844e-01 9.90000367e-01 9.89994228e-01 9.89979863e-01 9.89996672e-01 9.90000904e-01 9.89959478e-01 9.89960253e-01 9.81217325e-01 9.61076736e-01 9.74729478e-01 9.14702415e-01 9.89354491e-01 9.88949180e-01 9.77706432e-01 9.41755354e-01 9.71744299e-01 9.52123404e-01 9.87582266e-01 9.89840627e-01 9.89988923e-01 9.89866734e-01 9.89981949e-01 9.89746630e-01 9.89398718e-01 9.89930570e-01 9.89411652e-01 9.89671171e-01 9.89460170e-01 9.89437521e-01 9.48440373e-01 9.41945732e-01 8.87125015e-01 8.19737673e-01 6.26785934e-01 9.85898137e-01 9.82440591e-01 9.06427562e-01 8.56548250e-01 9.51564193e-01 9.53121662e-01 8.65169466e-01 9.18802798e-01 8.80876541e-01 9.79287267e-01 9.87211525e-01 9.89335418e-01 9.89851773e-01 9.88933384e-01 9.89673197e-01 9.87055242e-01 9.85024810e-01 9.88009334e-01 9.73384976e-01 9.74892199e-01 9.85716224e-01 9.83647585e-01 9.82276678e-01 9.69435453e-01 8.76947582e-01 7.26841569e-01 3.45425606e-01 4.89276350e-01 9.28691804e-01 9.66270208e-01 9.16386068e-01 7.60148525e-01 6.72337294e-01 8.48947525e-01 9.23077643e-01 8.78904343e-01 6.58502579e-01 6.84667110e-01 8.02948833e-01 9.80279922e-01 9.50212538e-01 9.72715557e-01 9.84239519e-01 9.87800777e-01 9.86359656e-01 9.65585470e-01 9.73510742e-01 9.65046942e-01 9.34791923e-01 9.77180600e-01 9.30253088e-01 9.54098642e-01 9.59148109e-01 9.47387338e-01 8.95005465e-01 8.05619717e-01 1.75636649e-01 6.47544205e-01 4.24212873e-01 2.52759814e-01 5.14823616e-01 8.67433965e-01 8.35407019e-01 4.16043282e-01 3.40542108e-01 8.01312208e-01 6.33652151e-01 6.59132242e-01 7.52244413e-01 6.06078684e-01 4.02403057e-01 4.80597079e-01 9.72821236e-01 9.56197500e-01 8.66763949e-01 9.44023311e-01 9.29974794e-01 9.23825085e-01 9.70338821e-01 9.16816533e-01 9.33557749e-01 9.25117135e-01 8.73617709e-01 8.77632201e-01 8.49398196e-01 8.60173643e-01 8.89776707e-01 8.12634170e-01 8.88279796e-01 7.08714485e-01 6.07797444e-01 7.44150102e-01 8.97488967e-02 1.33462742e-01 4.51991893e-02 2.93587148e-01 2.00901389e-01 1.90905362e-01 6.11658394e-01 1.03666626e-01 1.15205169e-01 3.56526285e-01 5.56527495e-01 2.88771272e-01 4.11583215e-01 2.89192557e-01 2.30871305e-01 1.71889246e-01 8.92573357e-01 9.38040972e-01 9.03932631e-01 8.82527471e-01 6.81540132e-01 8.45189989e-01 8.81913483e-01 8.28382075e-01 7.08253562e-01 8.24786603e-01 8.86163652e-01 8.68512034e-01 8.66411686e-01 7.95001686e-01 6.67143106e-01 7.08136320e-01 6.21314704e-01 6.52459264e-01 7.46503949e-01 6.16813898e-01 7.32630968e-01 4.29879606e-01 3.57052594e-01 3.06702077e-01 4.93528873e-01 5.73790260e-02 9.43927467e-02 3.05695813e-02 2.31908318e-02 9.88182053e-02 5.50210364e-02 2.29765892e-01 3.75802182e-02 7.67802075e-02 1.20833792e-01 2.29313463e-01 1.39405608e-01 7.58643746e-02 1.00700490e-01 7.46154010e-01 7.76891828e-01 8.32667530e-01 7.98470438e-01 6.45064950e-01 7.95659423e-01 7.76717782e-01 5.40532649e-01 3.85757238e-01 6.30083740e-01 6.47844374e-01 3.61624986e-01 6.86855257e-01 6.45524144e-01 6.18729651e-01 7.22480357e-01 7.13374555e-01 5.49357951e-01 4.29886848e-01 2.88274497e-01 4.17609483e-01 3.63653719e-01 3.61778349e-01 3.74937505e-01 4.78325039e-01 1.09349221e-01 1.94990873e-01 1.22365601e-01 2.30029702e-01 3.62072848e-02 1.58125851e-02 1.27400756e-02 2.07762588e-02 1.36298109e-02 4.71586995e-02 6.00940250e-02 1.99518763e-02 3.93550843e-02 4.03765813e-02 1.81492474e-02 5.13254285e-01 5.64260840e-01 5.40112734e-01 5.09648979e-01 3.02786112e-01 4.30364013e-01 5.51970661e-01 1.54618129e-01 2.73441851e-01 3.38413060e-01 3.44309568e-01 1.38852820e-01 4.33486909e-01 3.63692492e-01 3.11199576e-01 3.70237708e-01 4.23678368e-01 2.60702223e-01 1.87574238e-01 1.24617331e-01 2.29065165e-01 1.80737779e-01 1.71585232e-01 2.11095482e-01 1.25986010e-01 9.70825255e-02 8.21226239e-02 3.08269449e-02 1.81301925e-02 1.01914573e-02 1.07292505e-02 1.10667767e-02 1.03241401e-02 1.30601134e-02 1.54046770e-02 1.12398742e-02 1.53608909e-02 2.65303940e-01 2.63916671e-01 2.88830131e-01 1.48118585e-01 2.40603641e-01 1.43039063e-01 5.38234785e-02 1.19218104e-01 1.42415091e-01 1.47975206e-01 1.61418706e-01 4.25851680e-02 1.73632622e-01 1.63584962e-01 1.68926209e-01 1.00431234e-01 7.79751688e-02 4.58194055e-02 3.77060324e-02 9.25944522e-02 6.30194098e-02 8.44341293e-02 4.13193926e-02 2.69034114e-02 1.56131433e-02 1.00992536e-02 1.06613720e-02 1.01201208e-02 1.01303291e-02 1.05830384e-02 1.01799201e-02 1.04789296e-02 1.01448409e-01 6.64637685e-02 8.02853853e-02 2.91769598e-02 6.39741197e-02 2.12280434e-02 4.03151885e-02 4.91088517e-02 5.22861406e-02 5.17300665e-02 2.14003585e-02 2.51203980e-02 6.71536922e-02 6.41662925e-02 2.90483758e-02 2.25653555e-02 2.20093802e-02 2.11739466e-02 2.99378857e-02 1.69429071e-02 1.05650220e-02 1.00989901e-02 1.01001356e-02 1.01164989e-02 1.01553015e-02 1.01083145e-02 1.01145394e-02 3.05171590e-02 1.19924610e-02 2.59346347e-02 1.21711651e-02 2.56522894e-02 1.94446817e-02 1.29981255e-02 1.80846788e-02 1.14853978e-02 1.24781625e-02 1.00989901e-02 1.72292590e-02 1.43415257e-02 1.04293656e-02 1.11777261e-02 1.22070964e-02 1.03033576e-02 1.00990068e-02 1.01031559e-02 1.00993989e-02 1.00993514e-02 1.01019349e-02 1.00991279e-02 1.01949479e-02 1.26963397e-02 1.03058666e-02 1.06867664e-02 1.01209525e-02 1.03399009e-02 1.06965061e-02 1.01734959e-02 1.03305727e-02 1.00989901e-02 1.05619114e-02 1.01864710e-02 1.02630034e-02 1.01041682e-02 1.01903519e-02 1.01083294e-02 1.00989901e-02 1.00994874e-02 1.00989910e-02 1.00989947e-02 1.03871478e-02 1.01354541e-02 1.01038432e-02 1.01105738e-02 1.00993337e-02 1.01050045e-02 1.01277241e-02 1.01055568e-02 1.00989901e-02 1.01034921e-02 1.01058250e-02 1.00997817e-02 1.00995600e-02 1.00989901e-02 1.00989966e-02 1.00989901e-02 1.00990050e-02 1.01009794e-02 1.00991130e-02 1.00992266e-02 1.00990208e-02 1.00995367e-02 1.00992518e-02 1.00991661e-02 1.00989901e-02 1.00991307e-02 1.00992545e-02 1.00989938e-02 1.00989901e-02 1.00989901e-02 1.00989901e-02 1.00989938e-02 1.00990096e-02 1.00989938e-02 1.00989901e-02 1.00989910e-02 1.00989910e-02 1.00989910e-02 1.00989938e-02 1.00989901e-02 1.00990022e-02 1.00990031e-02 1.00989910e-02 1.00989901e-02 1.00989901e-02 1.00989901e-02 1.00989901e-02 1.00989901e-02 1.00989901e-02 1.00989910e-02 1.00989901e-02 1.00989901e-02 1.00989901e-02 1.00989901e-02 1.00989901e-02 1.00989910e-02 1.00989901e-02 1.00989901e-02 1.00989901e-02 1.00989901e-02 1.00989901e-02 1.00990124e-02 1.00989901e-02 1.00989901e-02 1.00989901e-02 1.00989901e-02 1.00989938e-02 1.00990357e-02 1.00989901e-02 1.00989910e-02 1.00994734e-02 1.01218391e-02 1.02829654e-02 1.00989901e-02 1.06868111e-02 1.00992508e-02 1.01084691e-02 1.01914573e-02 1.00992536e-02 1.00989901e-02 1.01009132e-02 1.01202084e-02 1.01447348e-02 1.03605641e-02 1.28514888e-02 1.36249708e-02 1.01002920e-02 1.01191960e-02 1.27400756e-02 4.51991893e-02 2.31908318e-02 4.00815606e-02 1.00989901e-02 1.02276746e-02 1.02571044e-02 1.10327778e-02 1.06881866e-02 1.30131189e-02 5.46381213e-02 1.02105336e-02 1.07763549e-02 1.75636649e-01 3.45425606e-01 8.97488967e-02 6.26785934e-01 1.64671242e-01 8.19737673e-01 1.71723023e-01 1.00989901e-02 1.26075242e-02 1.07830856e-02 1.79159585e-02 2.15067863e-02 2.93988325e-02 1.68922037e-01 2.70399265e-02 3.46209034e-02 1.07537240e-01 4.20777053e-01 9.14702415e-01 9.61076736e-01 5.12246609e-01 1.00989901e-02 1.00990050e-02 2.40485054e-02 1.59966480e-02 7.58130774e-02 1.75460339e-01 7.37010613e-02 1.89698353e-01 4.88410234e-01 2.60331750e-01 2.90895224e-01 3.91439050e-01 9.87311661e-01 7.73703098e-01 9.80073690e-01 7.83916593e-01 1.01038432e-02 5.61863668e-02 1.66517794e-01 1.82462245e-01 5.72075784e-01 5.32343507e-01 6.07640624e-01 5.73514640e-01 8.65851998e-01 7.03683019e-01 8.32135439e-01 9.89629984e-01 9.21557665e-01 9.48912263e-01 1.21711651e-02 1.03058666e-02 5.38234785e-02 2.12280434e-02 1.54618129e-01 4.36843187e-01 7.27926970e-01 9.35393870e-01 8.80900681e-01 9.54047859e-01 9.45098042e-01 9.89985824e-01 9.77949560e-01 9.79905128e-01 8.66763949e-01 6.81540132e-01 9.50212538e-01 3.85757238e-01 8.86744559e-01 9.79287267e-01 9.88734305e-01 9.62157845e-01 9.88471806e-01 9.89999831e-01 9.88506198e-01 9.89525318e-01 9.87582266e-01 9.89917994e-01 9.89850283e-01 9.88220870e-01 9.89788949e-01 9.90001023e-01 9.89986181e-01 9.89935577e-01 9.90001023e-01 9.89999771e-01 
