# vtk DataFile Version 2.0
sol_toll1e-05_vf0.3iter3.vtk, Created by Freefem++ 
ASCII
DATASET UNSTRUCTURED_GRID
POINTS 358 float
1 1 0
0.82109784 1 0
1 0.95804774 0
0.85726753 0.96850747 0
0.4568183 1 0
0.61008552 0.97481572 0
0.2741195 1 0
0.56338009 1 0
0.68045208 1 0
0.29981762 0.97110856 0
0.36204668 1 0
0.75568375 0.95009505 0
1 0.9064671 0
0.88702547 0.92609315 0
0.52577838 0.96171748 0
0.43013275 0.96144785 0
0.65050702 0.94680445 0
0.19343234 1 0
0.22520499 0.9511971 0
0.28316607 0.93114728 0
0.35443059 0.94863288 0
0 0.80798123 0
0 0.9064671 0
0 0.85396143 0
0.18815843 0.90597296 0
0.15452773 0.94865027 0
0.851855 0.89542826 0
0.75395732 0.90119959 0
1 0.85396143 0
0.48939781 0.92215402 0
0.57650427 0.91999637 0
0.40906285 0.91409802 0
0.66917189 0.90223798 0
0.12559462 1 0
0.25382204 0.88924086 0
0.33315155 0.89705008 0
0.010338034 0.83115251 0
0 0.76122484 0
0 0.95804774 0
0.0099687583 0.90483915 0
0.1352001 0.88263265 0
0.19470703 0.8508988 0
0.10178705 0.94094635 0
0 0.71653116 0
0 0.6731173 0
0 1 0
0 0.59460553 0
0 0.6314801 0
0.25348774 0.83805368 0
0.1549748 0.8063403 0
0.87890613 0.84567508 0
0.77483164 0.84748041 0
1 0.80798123 0
0.48816869 0.87332907 0
0.56997816 0.87366476 0
0.66497916 0.86286743 0
0.41478357 0.8639894 0
0.079243933 1 0
0.32181876 0.83810924 0
0.36689451 0.84998388 0
0.010534948 0.74195087 0
0.019268087 0.82223087 0
0.019852736 0.89439802 0
0.013979966 0.9543198 0
0.086277739 0.88048122 0
0.10587665 0.82813005 0
0.23434611 0.78755894 0
0.06577055 0.92251383 0
0.013171998 1 0
0.012589307 0.66107041 0
0 0.55168146 0
0.29909256 0.79120341 0
0.10409335 0.76591919 0
0.18965926 0.75577736 0
0.14594703 0.73533649 0
0.12606441 0.68334341 0
0.013980078 0.58619812 0
0.88703098 0.79375611 0
0.77482852 0.80068803 0
1 0.76122484 0
0.50705796 0.82058244 0
0.60030704 0.81777464 0
0.68035449 0.81512663 0
0.43220322 0.8013209 0
0.049893207 1 0
0.37581916 0.77426996 0
0.021913008 0.75545062 0
0.027143596 0.85313839 0
0.025218925 0.94042563 0
0.070516788 0.80459695 0
0.34292643 0.73541278 0
0.26230426 0.72927081 0
0.050940788 0.88560839 0
0.029516475 1 0
0.023657888 0.67024475 0
0 0.50475595 0
0.090055302 0.69543841 0
0.21862691 0.69655615 0
0.18764847 0.66140222 0
0.13729451 0.61237498 0
0.18829167 0.61105103 0
0.014574165 0.51239721 0
0.023861032 0.56841497 0
0 0.41285992 0
0 0.45721015 0
0.53440371 0.77609997 0
0.47011284 0.74272835 0
0.83639962 0.75301076 0
0.92120508 0.74433854 0
0.73071802 0.76257972 0
1 0.71653116 0
0.63344566 0.76697261 0
0.55529875 0.73264527 0
0.039756953 0.90828709 0
0.45861253 0.70626552 0
0.02972954 0.76461245 0
0.033015079 0.86768202 0
0.050743037 0.76996313 0
0.066097256 0.68395173 0
0.36275747 0.684636 0
0.45704241 0.66569143 0
0.31980614 0.66248849 0
0.030080513 0.64570814 0
0.013365066 0.43973023 0
0.095941454 0.60670242 0
0.27970915 0.63246876 0
0.28443319 0.58737133 0
0.14458104 0.5553938 0
0.22604759 0.54742564 0
0.023217887 0.4626893 0
0.02895714 0.51713393 0
0.012384965 0.3610873 0
0 0.36657021 0
0.63934709 0.72647752 0
0.56958436 0.68756201 0
0 0.32110759 0
0 0.22903224 0
0 0.27542931 0
0.8064093 0.71159061 0
0.9013887 0.70322119 0
0.72459911 0.71366191 0
1 0.6731173 0
0.6703611 0.68227284 0
0.040569266 0.75304766 0
0.55775639 0.64835738 0
0.034767281 0.71568928 0
0.050436675 0.63280355 0
0.070382611 0.5821471 0
0.43876537 0.62359512 0
0.53835596 0.61031522 0
0.38288308 0.59782787 0
0.032664571 0.54283325 0
0.022905783 0.36487374 0
0.10424554 0.5351908 0
0.40314145 0.55350613 0
0.3284373 0.53827199 0
0.16471432 0.50287969 0
0.24271385 0.48916143 0
0.31974102 0.49730542 0
0.029236273 0.40924723 0
0.011493699 0.27954953 0
0.021756771 0.27210102 0
0.64378631 0.64631426 0
0.0097686128 0.20815981 0
0 0.18348368 0
0 0.13901955 0
0.12926478 0.45482087 0
0.10328904 0.48377309 0
0.86879626 0.65934318 0
0.77290552 0.66509727 0
1 0.6314801 0
0.72041749 0.62993347 0
0.040083635 0.59468022 0
0.64430298 0.60410767 0
0.035677289 0.53230691 0
0.045063674 0.49594575 0
0.055164763 0.52994716 0
0.072294931 0.49922938 0
0.49475417 0.57105371 0
0.59350658 0.56988687 0
0.033175333 0.37269355 0
0.029136305 0.29126178 0
0.48343957 0.53106867 0
0.41553213 0.50414367 0
0.1859601 0.44667693 0
0.2706364 0.43844754 0
0.36912243 0.46147195 0
0.018992504 0.19269808 0
0.027562957 0.19291233 0
0.011231922 0.13305361 0
0 0.091794865 0
0.12584488 0.40531662 0
0.084740689 0.42931708 0
0 0.042086524 0
0.63378249 0.53375363 0
0.801917 0.61484694 0
0.92890017 0.62385519 0
0.86699377 0.60250539 0
1 0.59460553 0
0.74112234 0.58244202 0
0.037819981 0.38809058 0
0.68538032 0.55783799 0
0.043764288 0.37271909 0
0.05687084 0.43028772 0
0.55916907 0.52059753 0
0.033763068 0.24089156 0
0.50157304 0.48844793 0
0.44520395 0.44909324 0
0.17731112 0.38905775 0
0.2356501 0.37345999 0
0.33882839 0.41133744 0
0.022092729 0.12460555 0
0.031309087 0.13769448 0
0.012496395 0.067495801 0
0.11560522 0.33762329 0
0.089086536 0.37037197 0
0.064560766 0.35914293 0
0 0 0
0.61258695 0.48957308 0
0.68436943 0.50554796 0
0.81988332 0.55978292 0
0.90948155 0.56350038 0
1 0.55168146 0
0.75783644 0.52711533 0
0.039579004 0.22333431 0
0.048921053 0.3034777 0
0.5459835 0.45177499 0
0.47030273 0.41131539 0
0.37666943 0.38262221 0
0.15200971 0.31642872 0
0.19386746 0.30104165 0
0.26872351 0.33881236 0
0.024758535 0.066878333 0
0.036730456 0.10019505 0
0.013171998 0 0
0.077874117 0.29212204 0
0.10315459 0.25630399 0
0.057347791 0.25482436 0
0.62904762 0.45407492 0
0.71283199 0.47066565 0
0.78339762 0.48453865 0
0.84513062 0.51085697 0
0.94977714 0.53204343 0
0.91158128 0.50983023 0
1 0.50475595 0
0.049981802 0.16605607 0
0.58341836 0.40595344 0
0.49736393 0.38430198 0
0.39208043 0.34325938 0
0.29302837 0.30650562 0
0.14568608 0.24026786 0
0.20553313 0.25203289 0
0.029516475 0 0
0.047326974 0.070799436 0
0.07059636 0.19647656 0
0.1017251 0.17817621 0
0.66675778 0.42394496 0
0.74671371 0.4356716 0
0.82156798 0.45398414 0
0.24920664 0.2486823 0
0.90470633 0.46821833 0
1 0.45721015 0
0.071029153 0.11365783 0
0.53522405 0.35306339 0
0.6253054 0.37400804 0
0.43006863 0.3199852 0
0.32148456 0.26768201 0
0.15017575 0.17098508 0
0.19979941 0.18945867 0
0.049893207 0 0
0.066602671 0.050922512 0
0.10658651 0.11507068 0
0.70147514 0.38943437 0
0.77811043 0.39841794 0
0.84708596 0.41675695 0
0.25415296 0.20345204 0
0.92005418 0.42423731 0
1 0.41285992 0
0.10494858 0.055210289 0
0.56102804 0.31885189 0
0.462174 0.29198389 0
0.64091248 0.33393276 0
0.36758121 0.25390362 0
0.30279518 0.19427385 0
0.18374962 0.13313651 0
0.14824954 0.095245467 0
0.23835996 0.14814428 0
0.079243933 0 0
0.71172869 0.34555318 0
0.81676793 0.36252418 0
0.76231749 0.35169021 0
0.87896112 0.38000575 0
0.93125379 0.36916535 0
1 0.36657021 0
0.12559462 0 0
0.16665109 0.046134133 0
0.55623532 0.27311759 0
0.47194747 0.25880485 0
0.3876659 0.21405946 0
0.65701593 0.29413436 0
0.32789256 0.16215743 0
0.28588005 0.12403071 0
0.21464366 0.09057058 0
0.75533966 0.30965968 0
0.84803595 0.32741478 0
0.92948686 0.31393996 0
1 0.32110759 0
0.19343234 0 0
0.24051297 0.038844839 0
0.56348124 0.2342181 0
0.45813391 0.20721018 0
0.37640678 0.14704831 0
0.6845601 0.25950115 0
0.27376167 0.073817423 0
0.33341243 0.092327184 0
0.7869529 0.26823499 0
0.85507496 0.29099177 0
0.62515504 0.2058925 0
0.56050738 0.20033299 0
0.89010631 0.25658708 0
1 0.27542931 0
0.2741195 0 0
0.33173596 0.043228178 0
0.46067499 0.1549173 0
0.3949019 0.092017607 0
0.70858028 0.21920626 0
0.78234451 0.21676567 0
0.51495887 0.14229414 0
0.60100744 0.16058396 0
1 0.22903224 0
0.87084416 0.21336599 0
0.36204668 0 0
0.42203385 0.042971199 0
0.45982408 0.092587854 0
0.66311172 0.15141959 0
0.76561719 0.16561978 0
0.5394415 0.10570818 0
0.88141772 0.17594905 0
1 0.18348368 0
0.4568183 0 0
0.51584928 0.027916921 0
0.51549683 0.05982264 0
0.59241305 0.086430758 0
0.67248317 0.10168317 0
0.77079201 0.12532179 0
0.86486235 0.12583529 0
1 0.13901955 0
0.56338009 0 0
0.62085259 0.045019731 0
0.73117838 0.075900586 0
0.85526349 0.078508161 0
1 0.091794865 0
0.68045208 0 0
0.73930857 0.036449311 0
0.877337 0.03734109 0
1 0.042086524 0
0.82109784 0 0
1 0 0

CELLS 714 2786
3 213 217 234
3 357 355 354
3 355 351 354
3 354 356 357
3 350 354 351
3 353 356 354
3 345 346 338
3 349 345 344
3 350 346 345
3 354 350 353
3 351 346 350
3 349 350 345
3 349 353 350
3 343 349 344
3 335 343 344
3 342 348 343
3 343 348 349
3 352 356 353
3 345 338 337
3 319 329 320
3 3 0 1
3 11 3 1
3 11 13 3
3 2 0 3
3 11 1 8
3 13 2 3
3 27 26 11
3 12 2 13
3 15 14 4
3 12 13 28
3 14 7 4
3 30 14 29
3 16 11 8
3 30 16 14
3 30 32 16
3 26 28 13
3 9 10 6
3 14 15 29
3 4 10 15
3 5 14 16
3 8 5 16
3 7 14 5
3 53 54 29
3 55 51 32
3 108 110 79
3 139 108 107
3 139 110 108
3 138 139 107
3 168 141 139
3 77 52 50
3 78 82 109
3 77 78 107
3 51 55 78
3 77 51 78
3 28 50 52
3 27 32 51
3 26 27 50
3 28 26 50
3 13 11 26
3 11 16 27
3 55 30 54
3 50 27 51
3 27 16 32
3 9 20 10
3 17 25 18
3 35 19 34
3 6 18 9
3 25 40 24
3 54 30 29
3 81 54 53
3 80 81 53
3 111 109 81
3 55 32 30
3 82 55 54
3 82 78 55
3 140 109 111
3 77 79 52
3 51 77 50
3 107 108 77
3 7 5 8
3 77 108 79
3 63 45 38
3 38 22 39
3 39 23 36
3 63 68 45
3 39 63 38
3 23 39 22
3 36 62 39
3 62 88 63
3 21 36 23
3 88 93 68
3 87 88 62
3 87 116 88
3 43 60 37
3 63 88 68
3 116 115 145
3 93 116 113
3 87 115 116
3 67 57 84
3 60 43 44
3 42 57 67
3 33 57 42
3 42 40 25
3 84 92 67
3 25 17 33
3 42 25 33
3 58 71 85
3 31 35 56
3 34 41 48
3 25 24 18
3 40 49 41
3 64 40 42
3 121 91 97
3 64 65 40
3 67 64 42
3 67 92 89
3 39 62 63
3 37 36 21
3 61 62 36
3 37 60 36
3 86 87 61
3 145 143 116
3 92 117 89
3 113 92 84
3 113 117 92
3 116 143 113
3 146 172 175
3 99 75 96
3 153 127 124
3 100 75 99
3 143 172 146
3 143 146 117
3 48 71 58
3 35 34 58
3 41 66 48
3 40 41 24
3 49 66 41
3 74 73 49
3 74 97 73
3 119 90 91
3 49 40 65
3 74 49 72
3 73 91 66
3 85 71 90
3 85 83 58
3 114 85 90
3 144 114 120
3 105 133 111
3 134 112 106
3 134 142 112
3 114 134 106
3 144 173 162
3 19 20 9
3 34 48 58
3 18 34 19
3 24 41 34
3 58 59 35
3 35 31 20
3 59 56 35
3 83 59 58
3 83 56 59
3 106 83 85
3 106 112 83
3 53 31 56
3 53 29 31
3 20 15 10
3 19 35 20
3 18 19 9
3 18 24 34
3 31 15 20
3 113 84 93
3 88 116 93
3 143 117 113
3 17 18 6
3 139 138 168
3 203 177 176
3 139 141 110
3 60 44 47
3 86 60 69
3 61 36 60
3 221 222 198
3 197 221 196
3 197 196 168
3 223 241 220
3 220 241 221
3 195 199 220
3 197 195 220
3 221 197 220
3 195 168 169
3 169 171 195
3 172 145 174
3 200 172 174
3 89 65 64
3 67 89 64
3 117 118 89
3 66 49 73
3 90 66 91
3 71 48 66
3 72 49 65
3 89 72 65
3 176 146 175
3 156 167 166
3 192 167 177
3 156 157 128
3 192 166 167
3 192 215 191
3 118 146 147
3 124 118 147
3 72 96 75
3 89 118 96
3 117 146 118
3 177 203 192
3 124 96 118
3 153 124 147
3 99 96 124
3 98 75 100
3 72 89 96
3 176 175 203
3 153 147 177
3 167 153 177
3 127 99 124
3 156 127 153
3 128 99 127
3 147 146 176
3 66 90 71
3 97 91 73
3 119 120 90
3 121 119 91
3 121 148 119
3 90 120 114
3 125 121 97
3 150 148 121
3 203 225 216
3 148 120 119
3 178 148 150
3 149 144 120
3 178 149 148
3 179 173 149
3 162 171 142
3 219 223 201
3 223 220 199
3 201 199 173
3 179 201 173
3 194 219 201
3 31 29 15
3 80 111 81
3 83 80 56
3 83 112 105
3 81 82 54
3 133 140 111
3 53 56 80
3 142 171 169
3 112 142 133
3 162 173 171
3 134 162 142
3 134 144 162
3 148 149 120
3 171 199 195
3 140 142 169
3 173 199 171
3 149 173 144
3 179 194 201
3 109 107 78
3 81 109 82
3 140 138 109
3 134 114 144
3 105 80 83
3 133 105 112
3 111 80 105
3 85 114 106
3 138 107 109
3 169 138 140
3 168 196 170
3 169 168 138
3 197 168 195
3 46 69 47
3 61 87 62
3 47 69 60
3 115 87 86
3 76 70 95
3 94 76 102
3 69 70 76
3 143 145 172
3 94 122 115
3 69 94 86
3 61 60 86
3 46 70 69
3 102 130 122
3 69 76 94
3 76 95 101
3 94 115 86
3 102 122 94
3 151 145 122
3 168 170 141
3 104 123 95
3 123 104 131
3 129 123 152
3 101 95 123
3 76 101 102
3 104 103 131
3 177 147 176
3 98 100 126
3 97 98 125
3 74 75 98
3 74 72 75
3 200 175 172
3 126 155 154
3 98 126 125
3 100 128 126
3 200 202 175
3 203 202 225
3 129 102 101
3 123 129 101
3 152 159 129
3 130 129 159
3 198 170 196
3 196 221 198
3 181 152 161
3 188 181 161
3 205 180 181
3 216 192 203
3 237 216 225
3 237 254 235
3 230 251 231
3 209 230 231
3 255 254 262
3 267 255 271
3 236 254 255
3 229 214 236
3 209 229 230
3 209 208 229
3 235 254 236
3 215 192 216
3 214 215 235
3 250 229 236
3 208 191 214
3 229 208 214
3 209 185 208
3 208 185 184
3 215 216 235
3 224 245 225
3 225 245 237
3 210 228 207
3 185 210 186
3 231 249 228
3 246 226 247
3 178 179 149
3 150 154 178
3 182 206 204
3 178 154 182
3 183 206 182
3 227 226 207
3 204 179 178
3 226 204 206
3 194 179 204
3 158 185 186
3 180 200 174
3 223 199 201
3 125 150 121
3 74 98 97
3 126 150 125
3 128 155 126
3 157 158 128
3 99 128 100
3 184 166 191
3 127 156 128
3 156 153 167
3 175 202 203
3 184 185 157
3 192 191 166
3 215 214 191
3 185 158 157
3 184 191 208
3 156 184 157
3 156 166 184
3 209 231 210
3 178 182 204
3 158 183 155
3 158 155 128
3 186 207 183
3 158 186 183
3 185 209 210
3 207 206 183
3 226 206 207
3 247 226 227
3 238 239 219
3 154 150 126
3 183 154 155
3 183 182 154
3 159 152 181
3 180 159 181
3 200 180 205
3 174 151 180
3 130 102 129
3 180 151 159
3 151 122 130
3 159 151 130
3 174 145 151
3 243 242 221
3 122 145 115
3 242 244 222
3 221 242 222
3 243 244 242
3 274 273 289
3 260 274 276
3 258 273 274
3 244 260 261
3 163 160 137
3 131 132 160
3 273 272 288
3 290 289 273
3 303 290 288
3 303 289 290
3 241 243 221
3 240 241 223
3 258 260 241
3 274 260 258
3 276 261 260
3 135 137 160
3 163 137 136
3 304 303 315
3 261 276 277
3 239 223 219
3 239 240 223
3 218 238 219
3 256 272 257
3 258 241 240
3 273 258 257
3 260 243 241
3 250 251 230
3 285 284 267
3 259 266 249
3 181 188 205
3 131 161 152
3 187 188 161
3 302 295 308
3 301 302 313
3 284 285 302
3 301 286 302
3 314 301 313
3 311 298 300
3 271 262 278
3 286 275 268
3 284 286 268
3 267 284 268
3 285 295 302
3 228 227 207
3 231 228 210
3 249 248 228
3 251 249 231
3 266 265 248
3 302 286 284
3 254 245 262
3 266 282 265
3 259 268 275
3 235 216 237
3 250 236 255
3 251 250 267
3 230 229 250
3 283 282 266
3 301 283 286
3 298 282 283
3 263 264 246
3 247 263 246
3 280 279 263
3 298 280 282
3 297 310 296
3 188 211 212
3 224 205 212
3 187 163 189
3 131 152 123
3 132 131 103
3 160 161 131
3 135 160 132
3 187 161 160
3 243 260 244
3 272 264 281
3 257 239 256
3 273 257 272
3 258 240 257
3 142 140 133
3 218 194 204
3 238 218 226
3 246 238 226
3 256 239 238
3 219 194 218
3 337 344 345
3 329 337 338
3 330 335 337
3 319 330 329
3 319 315 326
3 303 288 299
3 315 303 312
3 289 291 274
3 288 290 273
3 304 291 289
3 303 304 289
3 304 305 292
3 336 341 342
3 334 336 342
3 327 323 333
3 317 318 327
3 325 317 328
3 325 312 317
3 281 288 272
3 281 299 288
3 279 281 264
3 279 296 281
3 297 296 279
3 298 297 280
3 298 310 297
3 310 309 296
3 311 310 298
3 323 327 318
3 311 323 310
3 311 324 323
3 312 303 299
3 317 312 318
3 325 315 312
3 334 325 328
3 326 315 325
3 334 326 325
3 330 319 326
3 319 316 315
3 276 292 277
3 316 304 315
3 305 306 293
3 319 305 316
3 319 320 305
3 279 280 297
3 299 281 296
3 264 263 279
3 311 314 324
3 189 163 164
3 190 189 165
3 213 211 189
3 200 224 202
3 200 205 224
3 188 212 205
3 300 298 283
3 301 300 283
3 301 311 300
3 314 311 301
3 322 314 313
3 308 322 313
3 331 339 332
3 332 339 340
3 322 332 324
3 322 331 332
3 309 312 299
3 296 309 299
3 310 323 309
3 227 228 248
3 214 235 236
3 248 265 247
3 227 248 247
3 249 266 248
3 259 275 266
3 251 259 249
3 251 268 259
3 275 283 266
3 207 186 210
3 280 265 282
3 280 263 265
3 246 256 238
3 265 263 247
3 264 256 246
3 317 327 328
3 309 318 312
3 309 323 318
3 204 226 218
3 272 256 264
3 239 257 240
3 189 164 165
3 160 163 187
3 136 164 163
3 291 292 276
3 274 291 276
3 292 293 277
3 304 292 291
3 304 316 305
3 305 320 306
3 293 292 305
3 326 334 335
3 330 337 329
3 335 344 337
3 326 335 330
3 334 343 335
3 336 334 328
3 342 343 334
3 327 336 328
3 348 340 347
3 349 348 353
3 341 340 348
3 333 341 336
3 327 333 336
3 324 332 333
3 323 324 333
3 314 322 324
3 348 347 352
3 332 340 341
3 339 347 340
3 342 341 348
3 341 333 332
3 348 352 353
3 295 294 307
3 225 202 224
3 267 271 285
3 251 267 268
3 250 255 267
3 245 254 237
3 262 271 255
3 275 286 283
3 278 287 294
3 322 308 321
3 308 295 307
3 331 322 321
3 313 302 308
3 307 321 308
3 278 294 295
3 285 278 295
3 262 270 278
3 285 271 278
3 253 252 269
3 245 253 262
3 245 233 253
3 270 287 278
3 253 270 262
3 269 287 270
3 253 269 270
3 189 190 213
3 213 190 193
3 252 232 234
3 211 187 189
3 233 252 253
3 224 233 245
3 212 232 233
3 224 212 233
3 232 252 233
3 211 232 212
3 211 213 232
3 187 211 188
3 213 234 232
3 213 193 217
2 217 234
2 234 252
2 252 269
2 269 287
2 287 294
2 294 307
2 307 321
2 321 331
2 331 339
2 339 347
2 347 352
2 352 356
2 356 357
2 45 68
2 68 93
2 93 84
2 84 57
2 57 33
2 33 17
2 17 6
2 6 10
2 10 4
2 4 7
2 7 8
2 8 1
2 1 0
2 357 355
2 355 351
2 351 346
2 346 338
2 338 329
2 329 320
2 320 306
2 306 293
2 293 277
2 277 261
2 261 244
2 244 222
2 222 198
2 198 170
2 170 141
2 141 110
2 110 79
2 79 52
2 52 28
2 28 12
2 12 2
2 2 0
2 217 193
2 193 190
2 190 165
2 165 164
2 164 136
2 136 137
2 137 135
2 135 132
2 132 103
2 103 104
2 104 95
2 95 70
2 70 46
2 46 47
2 47 44
2 44 43
2 43 37
2 37 21
2 21 23
2 23 22
2 22 38
2 38 45

CELL_TYPES 714
5 5 5 5 5 5 5 5 5 5 5 5 5 5 5 5 5 5 5 5 5 5 5 5 5 5 5 5 5 5 5 5 5 5 5 5 5 5 5 5 5 5 5 5 5 5 5 5 5 5 5 5 5 5 5 5 5 5 5 5 5 5 5 5 5 5 5 5 5 5 5 5 5 5 5 5 5 5 5 5 5 5 5 5 5 5 5 5 5 5 5 5 5 5 5 5 5 5 5 5 5 5 5 5 5 5 5 5 5 5 5 5 5 5 5 5 5 5 5 5 5 5 5 5 5 5 5 5 5 5 5 5 5 5 5 5 5 5 5 5 5 5 5 5 5 5 5 5 5 5 5 5 5 5 5 5 5 5 5 5 5 5 5 5 5 5 5 5 5 5 5 5 5 5 5 5 5 5 5 5 5 5 5 5 5 5 5 5 5 5 5 5 5 5 5 5 5 5 5 5 5 5 5 5 5 5 5 5 5 5 5 5 5 5 5 5 5 5 5 5 5 5 5 5 5 5 5 5 5 5 5 5 5 5 5 5 5 5 5 5 5 5 5 5 5 5 5 5 5 5 5 5 5 5 5 5 5 5 5 5 5 5 5 5 5 5 5 5 5 5 5 5 5 5 5 5 5 5 5 5 5 5 5 5 5 5 5 5 5 5 5 5 5 5 5 5 5 5 5 5 5 5 5 5 5 5 5 5 5 5 5 5 5 5 5 5 5 5 5 5 5 5 5 5 5 5 5 5 5 5 5 5 5 5 5 5 5 5 5 5 5 5 5 5 5 5 5 5 5 5 5 5 5 5 5 5 5 5 5 5 5 5 5 5 5 5 5 5 5 5 5 5 5 5 5 5 5 5 5 5 5 5 5 5 5 5 5 5 5 5 5 5 5 5 5 5 5 5 5 5 5 5 5 5 5 5 5 5 5 5 5 5 5 5 5 5 5 5 5 5 5 5 5 5 5 5 5 5 5 5 5 5 5 5 5 5 5 5 5 5 5 5 5 5 5 5 5 5 5 5 5 5 5 5 5 5 5 5 5 5 5 5 5 5 5 5 5 5 5 5 5 5 5 5 5 5 5 5 5 5 5 5 5 5 5 5 5 5 5 5 5 5 5 5 5 5 5 5 5 5 5 5 5 5 5 5 5 5 5 5 5 5 5 5 5 5 5 5 5 5 5 5 5 5 5 5 5 5 5 5 5 5 5 5 5 5 5 5 5 5 5 5 5 5 5 5 5 5 5 5 5 5 5 5 5 5 5 5 5 5 5 5 5 5 5 5 5 5 5 5 5 5 5 5 5 5 5 5 5 5 5 5 5 5 5 5 5 5 5 5 5 5 5 5 5 5 5 5 5 5 5 5 5 5 5 5 5 5 5 5 5 5 5 5 5 5 5 5 5 5 5 5 5 5 5 5 5 5 5 5 5 5 5 5 5 5 5 5 5 5 5 5 5 5 3 3 3 3 3 3 3 3 3 3 3 3 3 3 3 3 3 3 3 3 3 3 3 3 3 3 3 3 3 3 3 3 3 3 3 3 3 3 3 3 3 3 3 3 3 3 3 3 3 3 3 3 3 3 3 3 3 3 3 3 3 3 3 3 3 3 3 3 3 3 
CELL_DATA 714
Scalars  Label int 1
LOOKUP_TABLE FreeFempp_table
0
0
0
0
0
0
0
0
0
0
0
0
0
0
0
0
0
0
0
0
0
0
0
0
0
0
0
0
0
0
0
0
0
0
0
0
0
0
0
0
0
0
0
0
0
0
0
0
0
0
0
0
0
0
0
0
0
0
0
0
0
0
0
0
0
0
0
0
0
0
0
0
0
0
0
0
0
0
0
0
0
0
0
0
0
0
0
0
0
0
0
0
0
0
0
0
0
0
0
0
0
0
0
0
0
0
0
0
0
0
0
0
0
0
0
0
0
0
0
0
0
0
0
0
0
0
0
0
0
0
0
0
0
0
0
0
0
0
0
0
0
0
0
0
0
0
0
0
0
0
0
0
0
0
0
0
0
0
0
0
0
0
0
0
0
0
0
0
0
0
0
0
0
0
0
0
0
0
0
0
0
0
0
0
0
0
0
0
0
0
0
0
0
0
0
0
0
0
0
0
0
0
0
0
0
0
0
0
0
0
0
0
0
0
0
0
0
0
0
0
0
0
0
0
0
0
0
0
0
0
0
0
0
0
0
0
0
0
0
0
0
0
0
0
0
0
0
0
0
0
0
0
0
0
0
0
0
0
0
0
0
0
0
0
0
0
0
0
0
0
0
0
0
0
0
0
0
0
0
0
0
0
0
0
0
0
0
0
0
0
0
0
0
0
0
0
0
0
0
0
0
0
0
0
0
0
0
0
0
0
0
0
0
0
0
0
0
0
0
0
0
0
0
0
0
0
0
0
0
0
0
0
0
0
0
0
0
0
0
0
0
0
0
0
0
0
0
0
0
0
0
0
0
0
0
0
0
0
0
0
0
0
0
0
0
0
0
0
0
0
0
0
0
0
0
0
0
0
0
0
0
0
0
0
0
0
0
0
0
0
0
0
0
0
0
0
0
0
0
0
0
0
0
0
0
0
0
0
0
0
0
0
0
0
0
0
0
0
0
0
0
0
0
0
0
0
0
0
0
0
0
0
0
0
0
0
0
0
0
0
0
0
0
0
0
0
0
0
0
0
0
0
0
0
0
0
0
0
0
0
0
0
0
0
0
0
0
0
0
0
0
0
0
0
0
0
0
0
0
0
0
0
0
0
0
0
0
0
0
0
0
0
0
0
0
0
0
0
0
0
0
0
0
0
0
0
0
0
0
0
0
0
0
0
0
0
0
0
0
0
0
0
0
0
0
0
0
0
0
0
0
0
0
0
0
0
0
0
0
0
0
0
0
0
0
0
0
0
0
0
0
0
0
0
0
0
0
0
0
0
0
0
0
0
0
0
0
0
0
0
0
0
0
0
0
0
0
0
0
0
0
0
0
0
0
0
0
0
0
0
0
0
0
0
0
0
0
0
0
0
0
0
0
0
0
0
0
0
0
0
0
0
0
0
0
0
0
0
0
0
0
0
0
0
0
0
0
0
0
0
0
0
0
0
0
0
0
0
0
0
0
0
0
0
1
1
1
1
1
1
1
1
1
1
1
1
1
3
3
3
3
3
3
3
3
3
3
3
3
3
2
2
2
2
2
2
2
2
2
2
2
2
2
2
2
2
2
2
2
2
2
2
4
4
4
4
4
4
4
4
4
4
4
4
4
4
4
4
4
4
4
4
4
4

LOOKUP_TABLE FreeFempp_table 5
1.00000000 0.00000000 0.00000000 1.00000000
1.00000000 1.00000000 0.00000000 1.00000000
1.00000000 0.00000000 1.00000000 1.00000000
0.00000000 1.00000000 0.00000000 1.00000000
0.00000000 1.00000000 1.00000000 1.00000000

POINT_DATA 358
FIELD FieldData 1
Density 1 358 float
1.00989901e-02 1.00989901e-02 1.32504731e-01 9.74135324e-02 1.00989901e-02 7.12195635e-02 1.00989901e-02 1.00989901e-02 1.00989901e-02 4.25913408e-02 1.00989901e-02 1.43952653e-01 2.87897915e-01 2.24745706e-01 8.83547068e-02 7.56208226e-02 1.41414210e-01 1.00989901e-02 5.26390821e-02 9.05578583e-02 8.49200115e-02 5.64586997e-01 2.87897915e-01 4.40279603e-01 8.53615180e-02 3.88061479e-02 3.11952710e-01 2.81816632e-01 4.40279603e-01 1.67313442e-01 1.94647521e-01 1.60125107e-01 2.62139082e-01 1.00989901e-02 1.32833064e-01 1.58464491e-01 3.63871843e-01 6.77950859e-01 1.32504731e-01 2.13162750e-01 7.73836449e-02 1.37196660e-01 3.01903933e-02 7.73882210e-01 8.52677703e-01 1.00989901e-02 9.52385724e-01 9.13299978e-01 1.88238323e-01 1.37504801e-01 4.54571754e-01 4.29819673e-01 5.64586997e-01 2.68561929e-01 3.02006871e-01 3.60010803e-01 2.51014888e-01 1.00989901e-02 2.35469997e-01 2.49403208e-01 5.14869332e-01 2.45551929e-01 1.46205232e-01 8.51443782e-02 4.89989333e-02 8.52997750e-02 2.21973836e-01 2.47325301e-02 1.00989901e-02 5.64008832e-01 9.79672909e-01 2.74789393e-01 1.08372793e-01 2.03278378e-01 1.67129904e-01 1.65356949e-01 5.74428976e-01 5.90357602e-01 5.44822216e-01 6.77950859e-01 3.80914122e-01 4.36703682e-01 4.79903817e-01 3.66322368e-01 1.00989901e-02 3.61495793e-01 2.74492085e-01 1.03329144e-01 4.10118811e-02 6.32679984e-02 3.79213929e-01 3.01233858e-01 2.76374742e-02 1.00989901e-02 2.82672346e-01 9.89748776e-01 1.13597646e-01 2.74551123e-01 2.53963619e-01 2.00294629e-01 2.73641258e-01 5.74639022e-01 3.07544321e-01 9.57947373e-01 9.83060598e-01 4.79763955e-01 4.85836536e-01 6.73861146e-01 7.06565976e-01 6.15332186e-01 7.73882210e-01 5.57942867e-01 5.68161666e-01 2.09657159e-02 5.25288165e-01 1.05911776e-01 2.66797040e-02 5.20711131e-02 8.62620026e-02 4.49930012e-01 5.68892956e-01 4.18437511e-01 1.29941523e-01 5.96084416e-01 1.41065255e-01 3.87610525e-01 4.13115084e-01 2.20757261e-01 3.41815770e-01 3.28207940e-01 1.74156457e-01 5.75414777e-01 9.09678817e-01 6.36247873e-01 6.45594001e-01 8.43473017e-01 6.57264769e-01 7.58513868e-01 7.44805992e-01 7.87440419e-01 7.06996500e-01 8.52677703e-01 7.25685775e-01 4.36435193e-02 6.83214068e-01 4.23940010e-02 7.16326758e-02 1.06050022e-01 5.84052444e-01 6.98321640e-01 5.35345733e-01 6.93660676e-02 3.13080192e-01 1.61307976e-01 5.76379061e-01 4.86510277e-01 2.55028397e-01 3.69401425e-01 4.78137761e-01 1.55883625e-01 5.12856960e-01 2.76534230e-01 7.54281104e-01 4.23624963e-01 5.42181551e-01 4.21688616e-01 1.98637679e-01 1.60307243e-01 8.52751076e-01 8.06367397e-01 9.13299978e-01 8.25382948e-01 5.82589023e-02 7.96381712e-01 5.58631644e-02 6.99175298e-02 8.54818076e-02 1.13115661e-01 6.79256678e-01 7.76450574e-01 5.50237037e-02 1.32495970e-01 6.82557285e-01 5.99553466e-01 2.83096910e-01 4.03153211e-01 5.41004241e-01 2.43644521e-01 1.12369351e-01 2.62843460e-01 2.83527642e-01 1.86542332e-01 1.28705785e-01 1.31550238e-01 8.29046607e-01 8.81283998e-01 9.09732163e-01 9.19660330e-01 9.52385724e-01 8.80714715e-01 5.49091250e-02 8.60889316e-01 6.25136122e-02 8.65544081e-02 7.61459708e-01 3.82713042e-02 7.01474845e-01 6.27699077e-01 2.57727921e-01 3.32151800e-01 4.84905690e-01 1.23009317e-01 4.42351997e-02 1.10757485e-01 1.56939685e-01 1.27412230e-01 9.03523713e-02 1.00989901e-02 8.15273523e-01 8.71598542e-01 9.37706888e-01 9.61186111e-01 9.79672909e-01 9.20566618e-01 4.07592319e-02 6.28503859e-02 7.42442310e-01 6.41482174e-01 5.17602324e-01 1.97912470e-01 2.41630509e-01 3.57415974e-01 4.95226942e-02 2.81364881e-02 1.00989901e-02 9.71800908e-02 1.16167046e-01 6.43545613e-02 8.18324804e-01 8.90513361e-01 9.36448038e-01 9.63039458e-01 9.81061339e-01 9.83995616e-01 9.89748776e-01 3.95153575e-02 7.52383947e-01 6.52372301e-01 5.06295204e-01 3.63843769e-01 1.55744508e-01 2.24654257e-01 1.00989901e-02 1.96469333e-02 6.49797097e-02 8.47860277e-02 8.37775767e-01 8.95610034e-01 9.45236564e-01 2.69246608e-01 9.75579262e-01 9.83060598e-01 3.91715355e-02 6.61502004e-01 7.61818528e-01 5.26902199e-01 3.60192865e-01 1.19962402e-01 1.72504038e-01 1.00989901e-02 1.76063068e-02 5.98180778e-02 8.30568016e-01 8.85529399e-01 9.31984007e-01 2.34345049e-01 9.54544246e-01 9.57947373e-01 2.86895595e-02 6.45417988e-01 5.25915623e-01 7.24045634e-01 3.89982641e-01 2.62561321e-01 1.18391044e-01 6.78464174e-02 1.61677092e-01 1.00989901e-02 7.87795007e-01 8.63310516e-01 8.22394252e-01 9.05843139e-01 9.02080476e-01 9.09678817e-01 1.00989901e-02 3.80197242e-02 5.78209579e-01 4.89104241e-01 3.56145829e-01 6.79139376e-01 2.43540883e-01 1.64035112e-01 9.17533189e-02 7.60025144e-01 8.24721277e-01 8.18183839e-01 8.43473017e-01 1.00989901e-02 4.47061472e-02 5.17336726e-01 3.98195326e-01 2.48676211e-01 6.37064695e-01 9.60357264e-02 1.43210247e-01 6.97930813e-01 7.66871631e-01 4.97908831e-01 4.53211993e-01 7.04756141e-01 7.58513868e-01 1.00989901e-02 6.73374757e-02 3.08653027e-01 1.64506525e-01 5.65835238e-01 5.89668155e-01 3.13253760e-01 3.91067952e-01 6.57264769e-01 6.03524804e-01 1.00989901e-02 8.33382830e-02 1.87047973e-01 3.94607276e-01 4.62102652e-01 2.44351730e-01 5.11256754e-01 5.42181551e-01 1.00989901e-02 6.74453527e-02 1.33886337e-01 2.14937657e-01 2.73321092e-01 3.57896805e-01 3.74108851e-01 4.21688616e-01 1.00989901e-02 1.17017202e-01 2.15232208e-01 2.35952437e-01 2.83527642e-01 1.00989901e-02 1.04956783e-01 1.15560465e-01 1.31550238e-01 1.00989901e-02 1.00989901e-02 
