# vtk DataFile Version 2.0
sol_toll1e-05_vf0.3iter15.vtk, Created by Freefem++ 
ASCII
DATASET UNSTRUCTURED_GRID
POINTS 590 float
0 0.75570075 0
0 0.70960482 0
0 0.62749828 0
0 0.35579159 0
0 0.48511557 0
0 0.28108861 0
0.0060453269 0.40136764 0
0.0063251731 0.682154 0
0 0.78178363 0
0.0070476746 0.60126436 0
0.0060727475 0.50037074 0
0 0.20037416 0
0 0.21515228 0
0 0.23895152 0
0.0069483431 0.34970607 0
0.0099619321 0.44805873 0
0.011076148 0.60328206 0
0.011121276 0.65425738 0
0.0069488148 0.72176176 0
0 0.79772954 0
0 0.80737303 0
0 0.1835182 0
0 0.19064792 0
0 0.17082926 0
0 0.17728789 0
0 0.16274448 0
0.011457048 0.52328989 0
0.0071435773 0.27640069 0
0.0081745077 0.31997283 0
0.011642417 0.41621512 0
0.01435328 0.57740671 0
0.013738452 0.6516228 0
0.011242656 0.70394222 0
0.0074102419 0.75191767 0
0 0.81389003 0
0 0.81889818 0
0.0077383289 0.25703925 0
0 0.14890877 0
0.0086695691 0.24186062 0
0 0.15518993 0
0 0.14253174 0
0.014255403 0.4801588 0
0.016464846 0.51546547 0
0.011546853 0.31667052 0
0.013100903 0.37772168 0
0 0.13445006 0
0 0.12193254 0
0.016022389 0.63789868 0
0.018628109 0.54941749 0
0.017465126 0.60097896 0
0.014971491 0.69561876 0
0.012571241 0.73199552 0
0.0079585229 0.77575546 0
0 0.82338258 0
0 0.83553661 0
0 0.84050281 0
0 0.82922758 0
0 0.84423843 0
0.008546118 0.79502129 0
0 0.10058469 0
0.013302105 0.29891893 0
0.014772062 0.28532665 0
0.0093533155 0.22524326 0
0.017929893 0.44903777 0
0.015959188 0.41403684 0
0.015331941 0.34541063 0
0.0197478 0.48072281 0
0.010178214 0.20842849 0
0.018066755 0.67387347 0
0.020010913 0.61477756 0
0.01684457 0.72312377 0
0.013568199 0.75646839 0
0 0.85242399 0
0 0.84772164 0
0 0.85966015 0
0.010016734 0.80767512 0
0 0.064005562 0
0 0 0
0.010352895 0.17476709 0
0.017768526 0.32679294 0
0.016249745 0.27662945 0
0.018454732 0.37654756 0
0.021576534 0.51898786 0
0.020589076 0.39710763 0
0.016573395 0.24363318 0
0.019939925 0.7035557 0
0.022331185 0.64290715 0
0.01671511 0.76358675 0
0 0.87168311 0
0 0.89312007 0
0.010759721 0.8365584 0
0.0099731027 0 0
0.012524671 0.13714452 0
0.023923882 0.5369393 0
0.020254826 0.32326397 0
0.022921082 0.41498216 0
0.020534261 0.24220948 0
0.026041832 0.63046034 0
0.022423082 0.73315839 0
0.01823123 0.79986237 0
0 0.9314543 0
0.012282501 0.88615202 0
0.022355613 0 0
0.020518937 0.133098 0
0.027098081 0.47233727 0
0.025083514 0.34235104 0
0.027663629 0.24341598 0
0.0314273 0.55385201 0
0.028920775 0.71221042 0
0.021700389 0.84818319 0
0.0099731027 1 0
0 1 0
0.041041388 0 0
0.033821464 0.13467875 0
0.033273238 0.39086045 0
0.039640362 0.25436675 0
0.038335108 0.59040893 0
0.03351224 0.82308689 0
0.022355613 1 0
0.07418879 0 0
0.057418781 0.15200936 0
0.13295813 0 0
0.054973833 0.28160309 0
0.046648527 0.42929755 0
0.048034878 0.69753312 0
0.041041388 1 0
0.68980048 0 0
0.098777999 0.13190619 0
0.080735808 0.24333748 0
0.23691684 0 0
0.17182668 0.11443228 0
0.41737497 0 0
0.062033952 0.52074029 0
0.074120098 0.36875326 0
0.057662107 0.84118618 0
0.07130454 0.67340102 0
0.07418879 1 0
1 0 0
0.48693255 0.075149836 0
0.74998727 0.065770129 0
0.11802423 0.29004692 0
0.13112439 0.20491581 0
0.17533358 0.27914519 0
0.22465665 0.17162859 0
0.30885803 0.10366705 0
0.1688173 0.33236215 0
0.11081097 0.38431428 0
0.092833702 0.51066067 0
0.089244298 0.80517604 0
0.10944787 0.68009594 0
0.11439893 0.88134494 0
0.13295813 1 0
1 0.064005562 0
0.52616538 0.11723649 0
0.74531884 0.11088949 0
0.201927 0.23041324 0
0.25293946 0.29534529 0
0.25473984 0.2596153 0
0.30319994 0.19602123 0
0.37681081 0.15563851 0
0.20885612 0.35311741 0
0.1356191 0.56540996 0
0.15295157 0.44009321 0
0.17098385 0.67404382 0
0.15167232 0.78192695 0
0.18286949 0.88858472 0
0.23691684 1 0
1 0.10058469 0
0.80563423 0.12757339 0
0.52633665 0.1515841 0
0.64722103 0.14737775 0
0.26493246 0.33096056 0
0.32823463 0.22125031 0
0.31908325 0.26309759 0
0.42187171 0.18666915 0
0.21771449 0.41898768 0
0.19411171 0.54204904 0
1 1 0
0.41737497 1 0
0.68980048 1 0
0.229021 0.6626909 0
0.22756047 0.75606682 0
0.24532291 0.83175495 0
0.30754994 0.90792211 0
1 0.12193254 0
0.79630087 0.14283332 0
0.79525129 0.15108882 0
0.53534402 0.17279031 0
0.64973767 0.16197687 0
0.26434353 0.38121996 0
0.31016745 0.30517471 0
0.36559641 0.2551479 0
0.39528719 0.22054515 0
0.47317746 0.19659089 0
0.23804918 0.47438546 0
0.2412537 0.57201767 0
1 0.9314543 0
0.73489291 0.93374125 0
0.49450748 0.92512233 0
0.27713631 0.67207367 0
0.28699274 0.74795331 0
0.31540409 0.80976443 0
0.38521759 0.86310809 0
0.3229533 0.73725854 0
1 0.13445006 0
0.84040679 0.15336492 0
0.69294779 0.16603868 0
0.2640559 0.44402163 0
0.28354757 0.38641643 0
0.57372418 0.18040329 0
0.65372011 0.17560154 0
0.50741986 0.20067293 0
0.3084743 0.33623669 0
0.34734625 0.28992021 0
0.39288711 0.25344541 0
0.43519171 0.22382514 0
0.27940704 0.60969352 0
0.26683767 0.52856601 0
1 0.89312007 0
0.74194512 0.88995403 0
0.5503877 0.88405855 0
0.46602881 0.84969593 0
0.31688752 0.6802198 0
0.35854455 0.78953816 0
0.40050659 0.82444866 0
0.36198066 0.75156681 0
0.34950647 0.70930173 0
1 0.14253174 0
0.88842387 0.15496711 0
0.76718952 0.16544167 0
0.27784958 0.47685682 0
0.31061628 0.36361258 0
0.28979163 0.41997992 0
0.69477166 0.17616328 0
0.58429425 0.18782002 0
0.53229279 0.20369616 0
0.63340473 0.18557148 0
0.47097054 0.22294897 0
0.34288135 0.31706578 0
0.37788969 0.28057823 0
0.42440059 0.24716822 0
0.51046601 0.21898361 0
0.29922523 0.60279098 0
0.29087233 0.54047843 0
1 0.87168311 0
1 0.85966015 0
0.75327215 0.866016 0
0.47395667 0.82703137 0
0.57963525 0.85525182 0
0.32734124 0.65177259 0
0.41488078 0.79463015 0
0.38971297 0.75299388 0
0.36144415 0.70175807 0
1 0.14890877 0
0.84785842 0.16347015 0
0.93067813 0.15734549 0
0.83731475 0.16958783 0
0.76141088 0.17292724 0
0.29190655 0.48099307 0
0.4821601 0.81014584 0
0.33218995 0.34645221 0
0.3114739 0.39301209 0
0.30118776 0.43566296 0
0.69471854 0.18318143 0
0.57598246 0.19954282 0
0.63403311 0.19176448 0
0.355881 0.32585519 0
0.45878092 0.24083816 0
0.37557031 0.29814993 0
0.41219984 0.26798321 0
0.48634894 0.23835841 0
0.53747247 0.21800264 0
0.31265092 0.58758684 0
0.30542832 0.53297685 0
0.3293411 0.62536304 0
1 0.85242399 0
0.8051385 0.84642256 0
0.78677644 0.85368698 0
0.64292837 0.84551547 0
0.54398041 0.83262772 0
0.35160112 0.66686644 0
0.38176664 0.71026985 0
0.43707097 0.78177855 0
0.40003386 0.74451355 0
1 0.15518993 0
0.9189963 0.16465499 0
0.85601316 0.17397037 0
0.77340128 0.17889363 0
0.30324766 0.48026881 0
0.55242718 0.81875251 0
0.4647077 0.78123459 0
0.50076682 0.80016043 0
0.32715737 0.38014443 0
0.36507035 0.33933226 0
0.34359362 0.35647551 0
0.31652757 0.42171513 0
0.31371736 0.5010252 0
0.31180542 0.45553717 0
0.72422637 0.18779863 0
0.67256093 0.19274336 0
0.5875924 0.20483857 0
0.63121998 0.1995968 0
0.38337514 0.30841305 0
0.55859096 0.21936809 0
0.44006807 0.26269419 0
0.40890796 0.28439184 0
0.46859266 0.2570094 0
0.51249504 0.23772206 0
1 0.84772164 0
0.32742914 0.5923787 0
0.31921984 0.5521585 0
0.34103352 0.6208185 0
0.35596602 0.65225122 0
0.82310973 0.84180238 0
0.69513142 0.83943718 0
0.60565683 0.83193598 0
0.84340044 0.83859653 0
0.38441355 0.69516867 0
0.40778837 0.73347981 0
0.43343509 0.76218448 0
0.37634634 0.66855826 0
1 0.16274448 0
0.93098204 0.17155503 0
0.87101235 0.17858068 0
0.79525185 0.18454466 0
0.39153489 0.31747318 0
0.45792432 0.76404369 0
0.61361983 0.82136718 0
0.56157415 0.80680101 0
0.48343159 0.77589382 0
0.50947342 0.78988249 0
0.32580778 0.52016722 0
0.38449001 0.34000596 0
0.36475988 0.36143871 0
0.3337166 0.39802524 0
0.3498132 0.37437627 0
0.32635038 0.435404 0
0.32129626 0.47320088 0
0.73950438 0.19323187 0
0.69338393 0.19815867 0
0.65169718 0.20506072 0
0.60512099 0.21111579 0
0.41412386 0.29707244 0
0.58342211 0.2220924 0
0.54908983 0.2309083 0
0.44196304 0.27898045 0
0.482209 0.2623855 0
0.51935139 0.24546891 0
1 0.84423843 0
0.34325457 0.60092636 0
0.33458724 0.56843421 0
0.35932069 0.63368359 0
0.72983738 0.83526185 0
0.6594541 0.83049773 0
0.76427921 0.83250219 0
0.85781359 0.83512261 0
0.40185821 0.70009438 0
0.41233976 0.72246745 0
0.43363652 0.74558276 0
0.38635723 0.6658391 0
1 0.17082926 0
0.92696341 0.17913429 0
0.85181712 0.18521852 0
0.78831948 0.19281475 0
0.41343815 0.31557391 0
0.40218167 0.3395257 0
0.4554338 0.74742423 0
0.47777573 0.76122878 0
0.6675557 0.82360607 0
0.62707969 0.81363876 0
0.54542051 0.7920093 0
0.58491186 0.80234206 0
0.50143529 0.76881458 0
0.51475133 0.7796399 0
0.33412529 0.49466918 0
0.34036212 0.53953856 0
0.37940185 0.36839947 0
0.36187115 0.38936102 0
0.34511002 0.40817795 0
0.34059074 0.43720955 0
0.33220476 0.45906744 0
0.72542481 0.20137026 0
0.67699633 0.20915318 0
0.62576004 0.21827086 0
0.43664767 0.29953058 0
0.58091471 0.23119929 0
0.55068055 0.24021616 0
0.4682914 0.2808316 0
0.51403024 0.25857834 0
1 0.84050281 0
0.35774312 0.61224366 0
0.35220107 0.58471061 0
0.37592473 0.63561308 0
0.71097991 0.82853151 0
0.87453698 0.83137587 0
0.77861188 0.8281316 0
0.41109227 0.69341708 0
0.42341722 0.71314453 0
0.43411379 0.72976696 0
0.40255564 0.66608247 0
1 0.17728789 0
0.89054546 0.18762841 0
0.78777421 0.19937411 0
0.35341333 0.55666678 0
0.42747973 0.32414668 0
0.39975721 0.36057091 0
0.45503766 0.73206846 0
0.47737104 0.74457887 0
0.49643685 0.75535386 0
0.70454674 0.82199679 0
0.52108182 0.76095078 0
0.67313799 0.81516339 0
0.62968893 0.80524936 0
0.55102946 0.78403479 0
0.5870174 0.79409598 0
0.53438685 0.77296899 0
0.34394002 0.47549282 0
0.34929042 0.51042147 0
0.37419286 0.39991736 0
0.35734119 0.42277782 0
0.35059165 0.45163722 0
0.6037893 0.23217214 0
0.71216121 0.21124699 0
0.65276224 0.2226534 0
0.46008901 0.29840177 0
0.55789966 0.24764005 0
0.50858507 0.27106637 0
1 0.83553661 0
0.36646779 0.5869577 0
0.37046133 0.60933674 0
0.3900491 0.63410981 0
0.74890938 0.82308165 0
0.90847553 0.82748235 0
0.81738439 0.82352273 0
0.42822224 0.69483909 0
0.44473849 0.71446616 0
0.41923617 0.67013327 0
1 0.1835182 0
0.87605851 0.19564729 0
0.76482281 0.210155 0
[...]
CELL_DATA 1178
Scalars  Label int 1
LOOKUP_TABLE FreeFempp_table
0
0
0
0
0
0
0
0
0
0
0
0
0
0
0
0
0
0
0
0
0
0
0
0
0
0
0
0
0
0
0
0
0
0
0
0
0
0
0
0
0
0
0
0
0
0
0
0
0
0
0
0
0
0
0
0
0
0
0
0
0
0
0
0
0
0
0
0
0
0
0
0
0
0
0
0
0
0
0
0
0
0
0
0
0
0
0
0
0
0
0
0
0
0
0
0
0
0
0
0
0
0
0
0
0
0
0
0
0
0
0
0
0
0
0
0
0
0
0
0
0
0
0
0
0
0
0
0
0
0
0
0
0
0
0
0
0
0
0
0
0
0
0
0
0
0
0
0
0
0
0
0
0
0
0
0
0
0
0
0
0
0
0
0
0
0
0
0
0
0
0
0
0
0
0
0
0
0
0
0
0
0
0
0
0
0
0
0
0
0
0
0
0
0
0
0
0
0
0
0
0
0
0
0
0
0
0
0
0
0
0
0
0
0
0
0
0
0
0
0
0
0
0
0
0
0
0
0
0
0
0
0
0
0
0
0
0
0
0
0
0
0
0
0
0
0
0
0
0
0
0
0
0
0
0
0
0
0
0
0
0
0
0
0
0
0
0
0
0
0
0
0
0
0
0
0
0
0
0
0
0
0
0
0
0
0
0
0
0
0
0
0
0
0
0
0
0
0
0
0
0
0
0
0
0
0
0
0
0
0
0
0
0
0
0
0
0
0
0
0
0
0
0
0
0
0
0
0
0
0
0
0
0
0
0
0
0
0
0
0
0
0
0
0
0
0
0
0
0
0
0
0
0
0
0
0
0
0
0
0
0
0
0
0
0
0
0
0
0
0
0
0
0
0
0
0
0
0
0
0
0
0
0
0
0
0
0
0
0
0
0
0
0
0
0
0
0
0
0
0
0
0
0
0
0
0
0
0
0
0
0
0
0
0
0
0
0
0
0
0
0
0
0
0
0
0
0
0
0
0
0
0
0
0
0
0
0
0
0
0
0
0
0
0
0
0
0
0
0
0
0
0
0
0
0
0
0
0
0
0
0
0
0
0
0
0
0
0
0
0
0
0
0
0
0
0
0
0
0
0
0
0
0
0
0
0
0
0
0
0
0
0
0
0
0
0
0
0
0
0
0
0
0
0
0
0
0
0
0
0
0
0
0
0
0
0
0
0
0
0
0
0
0
0
0
0
0
0
0
0
0
0
0
0
0
0
0
0
0
0
0
0
0
0
0
0
0
0
0
0
0
0
0
0
0
0
0
0
0
0
0
0
0
0
0
0
0
0
0
0
0
0
0
0
0
0
0
0
0
0
0
0
0
0
0
0
0
0
0
0
0
0
0
0
0
0
0
0
0
0
0
0
0
0
0
0
0
0
0
0
0
0
0
0
0
0
0
0
0
0
0
0
0
0
0
0
0
0
0
0
0
0
0
0
0
0
0
0
0
0
0
0
0
0
0
0
0
0
0
0
0
0
0
0
0
0
0
0
0
0
0
0
0
0
0
0
0
0
0
0
0
0
0
0
0
0
0
0
0
0
0
0
0
0
0
0
0
0
0
0
0
0
0
0
0
0
0
0
0
0
0
0
0
0
0
0
0
0
0
0
0
0
0
0
0
0
0
0
0
0
0
0
0
0
0
0
0
0
0
0
0
0
0
0
0
0
0
0
0
0
0
0
0
0
0
0
0
0
0
0
0
0
0
0
0
0
0
0
0
0
0
0
0
0
0
0
0
0
0
0
0
0
0
0
0
0
0
0
0
0
0
0
0
0
0
0
0
0
0
0
0
0
0
0
0
0
0
0
0
0
0
0
0
0
0
0
0
0
0
0
0
0
0
0
0
0
0
0
0
0
0
0
0
0
0
0
0
0
0
0
0
0
0
0
0
0
0
0
0
0
0
0
0
0
0
0
0
0
0
0
0
0
0
0
0
0
0
0
0
0
0
0
0
0
0
0
0
0
0
0
0
0
0
0
0
0
0
0
0
0
0
0
0
0
0
0
0
0
0
0
0
0
0
0
0
0
0
0
0
0
0
0
0
0
0
0
0
0
0
0
0
0
0
0
0
0
0
0
0
0
0
0
0
0
0
0
0
0
0
0
0
0
0
0
0
0
0
0
0
0
0
0
0
0
0
0
0
0
0
0
0
0
0
0
0
0
0
0
0
0
0
0
0
0
0
0
0
0
0
0
0
0
0
0
0
0
0
0
0
0
0
0
0
0
0
0
0
0
0
0
0
0
0
0
0
0
0
0
0
0
0
0
0
0
0
0
0
0
0
0
0
0
0
0
0
0
0
0
0
0
0
0
0
0
0
0
0
0
0
0
0
0
0
0
0
0
0
0
0
0
0
0
0
0
0
0
0
0
0
0
0
0
0
0
0
0
0
0
0
0
0
0
0
0
0
0
0
0
0
0
0
0
0
0
0
0
0
0
0
0
0
0
0
0
1
1
1
1
1
1
1
1
1
3
3
3
3
3
3
3
3
3
2
2
2
2
2
2
2
2
2
2
2
2
2
2
2
2
2
2
2
2
2
2
2
2
2
2
2
2
2
2
2
2
2
2
2
2
2
2
4
4
4
4
4
4
4
4
4
4
4
4
4
4
4
4
4
4
4
4
4
4
4
4
4
4
4
4
4
4
4
4
4
4
4
4
4
4

LOOKUP_TABLE FreeFempp_table 5
1.00000000 0.00000000 0.00000000 1.00000000
1.00000000 1.00000000 0.00000000 1.00000000
1.00000000 0.00000000 1.00000000 1.00000000
0.00000000 1.00000000 0.00000000 1.00000000
0.00000000 1.00000000 1.00000000 1.00000000

POINT_DATA 590
FIELD FieldData 1
Density 1 590 float
9.89979982e-01 9.90000963e-01 9.90001023e-01 9.90001023e-01 9.90001023e-01 9.89994466e-01 9.89926040e-01 9.82023716e-01 9.89433229e-01 9.89174485e-01 9.89990294e-01 9.87126470e-01 9.89463568e-01 9.89915550e-01 9.88520145e-01 9.89954114e-01 9.80930090e-01 9.51912642e-01 9.22450244e-01 9.85731602e-01 9.75888312e-01 9.43804026e-01 9.77080464e-01 6.68789327e-01 8.55835319e-01 3.67648244e-01 9.89103258e-01 8.97533417e-01 9.63402092e-01 9.89266574e-01 9.58636582e-01 8.75821352e-01 7.87599683e-01 7.84247100e-01 9.53319192e-01 9.03883755e-01 7.44129419e-01 4.94328961e-02 4.32206005e-01 1.45380974e-01 1.94028169e-02 9.43515778e-01 8.29175413e-01 8.82431984e-01 9.33799505e-01 1.13890329e-02 1.01360604e-02 5.97282946e-01 2.74829239e-01 5.99616230e-01 5.00203431e-01 5.27218044e-01 4.18615818e-01 8.02466035e-01 3.21564823e-01 1.51280209e-01 5.90713322e-01 6.87717050e-02 1.53439611e-01 1.00991819e-02 5.31767130e-01 1.77388147e-01 1.42260402e-01 3.80306512e-01 6.92987561e-01 5.64831614e-01 1.06803045e-01 5.14425188e-02 1.92785621e-01 6.23972788e-02 1.76890090e-01 1.64323449e-01 1.68915782e-02 3.35832871e-02 1.04917651e-02 3.68499272e-02 1.00989919e-02 1.00989901e-02 1.54038426e-02 1.75217614e-01 7.05434382e-02 2.62788057e-01 1.71217434e-02 3.59679833e-02 2.35043969e-02 2.44283099e-02 1.76929329e-02 5.04735559e-02 1.01010622e-02 1.00989901e-02 1.32746659e-02 1.00989901e-02 1.04010114e-02 1.05453711e-02 2.67939325e-02 1.05795423e-02 1.23640690e-02 1.04188882e-02 1.09476764e-02 1.33424895e-02 1.00989901e-02 1.06071662e-02 1.00989901e-02 1.01822596e-02 1.01049077e-02 1.01200249e-02 1.01116290e-02 1.01224761e-02 1.02423094e-02 1.02176163e-02 1.00989901e-02 1.00989901e-02 1.00989901e-02 1.01003964e-02 1.00989947e-02 1.01007288e-02 1.01000117e-02 1.01010269e-02 1.00989901e-02 1.00989901e-02 1.00989901e-02 1.00989901e-02 1.00989910e-02 1.00989975e-02 1.00990273e-02 1.00989901e-02 1.00989901e-02 1.00989901e-02 1.00989901e-02 1.00989901e-02 1.00989901e-02 1.00989901e-02 1.00989919e-02 1.00989901e-02 1.00989910e-02 1.00989901e-02 1.00989901e-02 1.00989901e-02 1.00989919e-02 1.00990040e-02 1.00989901e-02 1.00989901e-02 1.00989901e-02 1.00989910e-02 1.00989910e-02 1.00989901e-02 1.00989901e-02 1.00989901e-02 1.00989901e-02 1.00989910e-02 1.00989901e-02 1.00989901e-02 1.00989919e-02 1.00991679e-02 1.00993793e-02 1.00989901e-02 1.00989901e-02 1.00989901e-02 1.00990450e-02 1.00992592e-02 1.00989910e-02 1.00990031e-02 1.00989928e-02 1.00989910e-02 1.00989901e-02 1.00989901e-02 1.00989901e-02 1.00991819e-02 1.01101911e-02 1.01059387e-02 1.01522878e-02 1.00991158e-02 1.00991204e-02 1.00990208e-02 1.01051303e-02 1.00990431e-02 1.00992499e-02 1.00989901e-02 1.00989901e-02 1.00989901e-02 1.00993551e-02 1.00989901e-02 1.00989901e-02 1.00989901e-02 1.01360604e-02 1.03878984e-02 1.31612672e-02 1.02966689e-02 1.08598163e-02 1.01033058e-02 1.00990469e-02 1.01113878e-02 1.00998431e-02 1.01787196e-02 1.00997165e-02 1.01040928e-02 1.00989901e-02 1.00989901e-02 1.00989901e-02 1.01087103e-02 1.00995293e-02 1.00989901e-02 1.00989910e-02 1.01033431e-02 1.13890329e-02 2.72663850e-02 1.92108676e-02 1.01031959e-02 1.01526687e-02 1.25751020e-02 3.13803554e-02 1.15012722e-02 1.06031010e-02 1.01093007e-02 1.06941955e-02 1.03454180e-02 1.02537181e-02 1.01913773e-02 1.00989901e-02 1.00995908e-02 1.00989919e-02 1.00994138e-02 1.03102382e-02 1.01020960e-02 1.00991232e-02 1.01582790e-02 1.05952062e-02 1.94028169e-02 6.70025423e-02 5.40273935e-02 1.01851560e-02 1.43249528e-02 1.03402454e-02 8.25009868e-02 2.56710462e-02 2.07458287e-02 6.77069128e-02 1.24867288e-02 1.75352991e-02 2.61354111e-02 1.93581246e-02 4.73067723e-02 1.12032862e-02 1.22299585e-02 1.01010622e-02 1.04917651e-02 1.01165585e-02 1.01089599e-02 1.01174507e-02 1.71702281e-02 1.01154149e-02 1.06247244e-02 1.60067454e-02 4.94328961e-02 1.53937459e-01 1.51541114e-01 2.70320624e-01 1.64290696e-01 1.18587632e-02 1.01858927e-02 3.07697859e-02 2.21099593e-02 2.26323865e-02 2.43256435e-01 4.20497060e-02 1.48422450e-01 6.98842108e-02 5.24397455e-02 6.68584853e-02 4.07452546e-02 1.00067116e-01 1.17975526e-01 2.16404609e-02 3.02920733e-02 4.51632775e-02 1.68915782e-02 1.21433912e-02 1.01820771e-02 1.07442308e-02 1.01311011e-02 2.73963232e-02 3.24536711e-02 1.05082002e-02 1.33210467e-02 1.45380974e-01 3.49336207e-01 5.22129893e-01 3.46635222e-01 2.93669142e-02 1.03370706e-02 1.59088690e-02 1.13365911e-02 4.68230471e-02 1.79670930e-01 1.03603415e-01 3.79108824e-02 6.35824353e-02 7.85510242e-02 5.52816808e-01 4.28774357e-01 1.37064695e-01 2.99173266e-01 1.69900388e-01 2.72744238e-01 1.44234091e-01 1.73548162e-01 2.91439205e-01 2.63452619e-01 3.35832871e-02 9.97580588e-02 8.71956646e-02 1.34420842e-01 8.48338827e-02 2.48446614e-02 1.90335959e-02 1.11206761e-02 5.01238517e-02 1.02055244e-01 5.22891432e-02 1.58890933e-02 1.23710103e-01 3.67648244e-01 6.41424894e-01 7.52861261e-01 6.50100350e-01 3.23242277e-01 4.08997536e-02 1.37537504e-02 2.05200966e-02 4.24862839e-02 1.87027417e-02 1.74830422e-01 4.46863145e-01 3.68332714e-01 1.26558229e-01 2.64458895e-01 1.87861219e-01 1.81654364e-01 7.96292961e-01 7.75470316e-01 6.41132832e-01 3.56030554e-01 3.80462378e-01 5.38393736e-01 5.38841844e-01 4.31318372e-01 5.15777230e-01 5.66111684e-01 6.87717050e-02 2.50576437e-01 2.24623069e-01 2.38015458e-01 3.83463874e-02 2.14244854e-02 9.46731567e-02 1.27340272e-01 2.04842165e-01 1.16869971e-01 6.26979172e-02 3.14629376e-01 6.68789327e-01 8.52409720e-01 8.29029024e-01 8.86837602e-01 6.30373895e-01 6.94555283e-01 1.23220757e-01 1.43753126e-01 5.74679077e-02 3.82410735e-02 1.10700294e-01 8.03679824e-02 2.44463354e-01 7.97816589e-02 3.64348590e-01 3.86563659e-01 6.47236049e-01 5.47433674e-01 2.87586540e-01 4.25645828e-01 3.61405343e-01 9.05183792e-01 8.81291211e-01 7.04509795e-01 7.27766871e-01 8.31810176e-01 7.74996638e-01 7.34551072e-01 8.04896712e-01 1.51280209e-01 4.44461554e-01 5.13715684e-01 5.04484177e-01 1.05402678e-01 2.50880837e-01 2.06369087e-01 4.45253670e-01 3.77463192e-01 2.40511149e-01 6.13438189e-01 8.55835319e-01 9.30417955e-01 9.45695341e-01 6.43310189e-01 8.72708499e-01 8.23947847e-01 3.62070709e-01 2.88241118e-01 4.19645339e-01 1.99648067e-01 5.74346244e-01 1.05918899e-01 1.16651759e-01 1.77612931e-01 2.39042982e-01 2.98403829e-01 6.19320929e-01 6.59820735e-01 7.92759061e-01 6.63641095e-01 7.05798864e-01 8.90709758e-01 9.55949128e-01 9.21886861e-01 8.79866302e-01 9.38455522e-01 8.94830942e-01 3.21564823e-01 7.80964792e-01 7.58159876e-01 7.48725474e-01 3.04342568e-01 5.05109727e-01 4.34273630e-01 7.16822863e-01 6.23069823e-01 8.04966986e-01 9.43804026e-01 9.72753644e-01 9.80558395e-01 8.21868479e-01 8.71632457e-01 9.35395122e-01 9.15462196e-01 6.40971422e-01 7.54778206e-01 6.54884577e-01 5.26404917e-01 7.99972951e-01 4.24672216e-01 6.07317567e-01 3.45105231e-01 4.04749095e-01 4.84069377e-01 8.60144436e-01 8.99062216e-01 8.48474205e-01 8.76031756e-01 9.73023415e-01 9.84081447e-01 9.41104770e-01 9.75844264e-01 5.90713322e-01 8.92493546e-01 8.95698905e-01 6.53639972e-01 7.32059658e-01 8.54197741e-01 8.66480768e-01 9.26220834e-01 9.77080464e-01 9.87040877e-01 9.89296556e-01 9.33420837e-01 9.69735563e-01 9.73514199e-01 9.65626836e-01 8.53382528e-01 9.21286404e-01 7.64887512e-01 8.75640213e-01 6.74297214e-01 7.96956122e-01 6.61026895e-01 6.78266943e-01 9.57347274e-01 9.33265090e-01 9.55699801e-01 9.78886604e-01 9.89872694e-01 9.88713682e-01 9.88003671e-01 8.02466035e-01 9.45996761e-01 8.92788291e-01 8.77626121e-01 9.70092177e-01 9.35417235e-01 9.68054414e-01 9.87126470e-01 9.89832103e-01 9.89988029e-01 9.71706867e-01 9.86626208e-01 9.87688184e-01 9.51270640e-01 9.51543331e-01 8.55995834e-01 9.06702638e-01 9.17492807e-01 8.66357386e-01 8.80761921e-01 9.82358992e-01 9.85909939e-01 9.84970033e-01 9.88483429e-01 9.89613354e-01 9.89993513e-01 9.89873052e-01 9.03883755e-01 9.83564198e-01 9.42656636e-01 9.48350966e-01 9.85740125e-01 9.81973112e-01 9.89463568e-01 9.89992678e-01 9.90000963e-01 9.89536703e-01 9.89748061e-01 9.89855945e-01 9.77419674e-01 9.71672833e-01 9.41053391e-01 9.53273237e-01 9.89467025e-01 9.89800632e-01 9.89948630e-01 9.90000784e-01 9.89978671e-01 9.53319192e-01 9.89636004e-01 9.81334567e-01 9.73589957e-01 9.89442050e-01 9.89066601e-01 9.89915550e-01 9.90001023e-01 9.89999652e-01 9.89999950e-01 9.89995718e-01 9.87696469e-01 9.84814107e-01 9.89989877e-01 9.90001023e-01 9.90000904e-01 9.75888312e-01 9.89986360e-01 9.88134086e-01 9.89826977e-01 9.89935756e-01 9.90001023e-01 9.89994466e-01 9.90001023e-01 9.90001023e-01 9.89208460e-01 9.90001023e-01 9.90001023e-01 9.90001023e-01 9.85731602e-01 9.89999354e-01 9.89910364e-01 9.89879787e-01 9.89994526e-01 9.90001023e-01 9.90001023e-01 9.90001023e-01 9.90001023e-01 9.90001023e-01 9.89433229e-01 9.90001023e-01 9.89996731e-01 9.90001023e-01 9.90001023e-01 9.90001023e-01 9.90001023e-01 9.89979982e-01 9.90000963e-01 9.90001023e-01 9.90000963e-01 
