# vtk DataFile Version 2.0
sol_toll1e-05_vf0.3iter11.vtk, Created by Freefem++ 
ASCII
DATASET UNSTRUCTURED_GRID
POINTS 585 float
0 0.34053832 0
0 0.21613407 0
0 0.23867317 0
0 0.27606324 0
0 0.45425528 0
0.006225631 0.40707335 0
0 0.59111991 0
0 0.18536657 0
0 0.19255373 0
0 0.20201291 0
0.0068505955 0.28356772 0
0.0074946878 0.34124343 0
0.010743623 0.33921075 0
0.010509311 0.43704563 0
0.0076875905 0.51751699 0
0 0.68493863 0
0.0066307675 0.61329282 0
0 0.15771848 0
0 0.1657151 0
0 0.17314069 0
0 0.17923793 0
0.0071899545 0.25267609 0
0 0.15099443 0
0 0.13634382 0
0 0.14449438 0
0.011286093 0.30495656 0
0.012522248 0.40593738 0
0.013630864 0.36129884 0
0.012610255 0.50890544 0
0.010928549 0.59142361 0
0.014725476 0.48075786 0
0 0.73928245 0
0.0059884378 0.6833845 0
0.011074456 0.65086646 0
0 0.12413501 0
0 0.10346905 0
0.0082023395 0.23532791 0
0.012549484 0.28657425 0
0.0095111497 0.22434822 0
0.01533911 0.33732584 0
0.015738767 0.41106893 0
0.014489065 0.57974169 0
0.016573169 0.51570752 0
0.017824358 0.449559 0
0 0.77143185 0
0.0067649681 0.71784163 0
0.013502764 0.65584949 0
0.010642762 0.70736255 0
0.015939951 0.64032447 0
0.010371853 0.2041067 0
0 0.06647022 0
0.009985257 0.16633864 0
0.015687692 0.30006917 0
0.015922333 0.26898346 0
0.018184773 0.37280059 0
0.017504875 0.60175126 0
0.018677297 0.55236297 0
0.019664273 0.48497064 0
0 0.79084057 0
0.020527593 0.40052585 0
0.0059306253 0.75563984 0
0.014475535 0.7019494 0
0.011291333 0.74285797 0
0.017883684 0.67893474 0
0 0 0
0.016412535 0.23414776 0
0.012286046 0.13324119 0
0.019856078 0.31611498 0
0.020118582 0.62172249 0
0.021504859 0.52974692 0
0 0.80377062 0
0.022721436 0.41097027 0
0.0058818384 0.78623829 0
0.011976932 0.77183868 0
0.016265253 0.73372761 0
0.019963504 0.70938698 0
0.010081633 0 0
0.019552418 0.13228167 0
0.024534528 0.3363782 0
0.0208619 0.23593995 0
0.023178643 0.64760977 0
0.023413311 0.53352391 0
0 0.81250833 0
0 0.8228161 0
0 0.81841595 0
0.026282173 0.51669793 0
0 0.82850065 0
0.0057084834 0.81587191 0
0.011176984 0.80177755 0
0.017062213 0.76723728 0
0.022045236 0.74767601 0
0.021345688 0 0
0.029518719 0.37272582 0
0.027792058 0.19703494 0
0.02777461 0.68093726 0
0.031602417 0.53157118 0
0 0.83535942 0
0 0.84420331 0
0 0.84751261 0
0 0.84044498 0
0 0.85202846 0
0.0051974476 0.84768649 0
0.012569066 0.81989103 0
0.017399089 0.81850902 0
0.021554266 0.84457272 0
0.034893305 0 0
0.036461759 0.31977447 0
0.038246914 0.56237375 0
0.031722362 0.7936537 0
0.021345688 1 0
0 0.85911983 0
0 0.87102957 0
0 0.89241704 0
0.0080818332 0.87265709 0
0.011813024 0.90308957 0
0.010081633 1 0
0.034893305 1 0
0.085614808 0 0
0.054085214 0 0
0.048938114 0.30757819 0
0.047462881 0.6880878 0
0 0.93087211 0
0 1 0
0.054085214 1 0
0.14203945 0 0
0.11084861 0.16524817 0
0.063118205 0.4507259 0
0.077211125 0.2426181 0
0.071844415 0.67587718 0
0.085614808 1 0
0.091009182 0.81089013 0
0.41871765 0 0
0.17472464 0.14468271 0
0.24268906 0 0
0.68822424 0 0
0.11804175 0.60171517 0
0.12792311 0.28922527 0
0.094937377 0.4361716 0
0.17371205 0.31661911 0
0.1975526 0.22555653 0
0.17572505 0.65759557 0
0.14907547 0.75386524 0
0.14203945 1 0
0.13561984 0.86947602 0
1 0 0
0.46732109 0.082831702 0
0.28855088 0.12014182 0
0.74466806 0.064533536 0
0.28626433 0.1932102 0
0.18683771 0.53503964 0
0.14900611 0.43157966 0
0.21463141 0.33797532 0
0.26031174 0.26095478 0
0.23068557 0.65741543 0
0.23427186 0.75567643 0
0.24268906 1 0
0.2278523 0.83245413 0
0.20884753 0.90818661 0
0.23905678 0.56458124 0
1 0.06647022 0
0.54610526 0.11472074 0
0.39686494 0.15386513 0
0.74322983 0.10988457 0
0.34933469 0.21006061 0
0.23601858 0.47196127 0
0.21432364 0.41522282 0
0.26464362 0.32279942 0
0.32220173 0.2589258 0
0.41871765 1 0
0.27574081 0.66885989 0
0.29134554 0.75275234 0
0.32570412 0.82485483 0
0.32957909 0.90100328 0
0.26367816 0.44628998 0
0.2781627 0.47939143 0
0.26605619 0.52724027 0
0.2781782 0.60742496 0
1 0.10346905 0
0.80148243 0.12737397 0
0.44249759 0.18075835 0
0.53954295 0.14755838 0
0.65149974 0.14515778 0
0.40104784 0.21666741 0
0.36330852 0.25547889 0
0.26248533 0.3840375 0
0.30663994 0.30960896 0
0.68822424 1 0
0.48612551 0.92167081 0
0.32198726 0.7344576 0
0.28278271 0.39098322 0
0.31517807 0.67604715 0
0.35774352 0.78984095 0
0.40275346 0.82362661 0
0.43065247 0.86124227 0
0.28991304 0.42449747 0
0.29260697 0.48279857 0
0.29105542 0.54053061 0
0.29857609 0.60066405 0
1 0.12413501 0
0.79725542 0.14281844 0
0.48292902 0.1923985 0
0.55170161 0.16872858 0
0.67030794 0.15910884 0
0.38910121 0.25513841 0
0.43400411 0.22289682 0
0.34415338 0.29438105 0
0.30692408 0.34211112 0
1 1 0
0.7284524 0.93120566 0
0.55293076 0.88311811 0
0.36064916 0.74788992 0
0.34729552 0.70330436 0
0.30978604 0.36971808 0
0.32706086 0.6484423 0
0.41627013 0.79240759 0
0.47264523 0.83056527 0
0.5676109 0.8547209 0
0.31126887 0.3985888 0
0.30405825 0.48031465 0
0.3018122 0.43933792 0
0.30588196 0.53166846 0
0.31327213 0.58674085 0
1 0.13634382 0
0.82973085 0.14935483 0
0.83920385 0.15447228 0
0.71234142 0.16339589 0
0.5047111 0.19938131 0
0.58423237 0.17899735 0
0.66138427 0.17425591 0
0.37563653 0.28359401 0
0.4208358 0.24874603 0
0.47071052 0.22231171 0
0.34174811 0.32214146 0
1 0.93087211 0
0.74004668 0.88780562 0
0.38940519 0.74896533 0
0.36160187 0.69906785 0
0.74458124 0.86435826 0
0.33154398 0.35296902 0
0.3313054 0.62500379 0
0.35203021 0.66558748 0
0.48772181 0.81068243 0
0.44246853 0.78072729 0
0.54862211 0.83227602 0
0.64875123 0.84418136 0
0.327602 0.38403666 0
0.31447778 0.50045774 0
0.31708524 0.42343536 0
0.31253202 0.45592132 0
0.32013272 0.55126007 0
0.3291828 0.59166385 0
0.32647695 0.51932884 0
1 0.14449438 0
0.89652553 0.15508675 0
0.77320452 0.1649893 0
0.69784132 0.17558397 0
0.53424681 0.20096917 0
0.59386171 0.18668574 0
0.50590613 0.21984603 0
0.63600407 0.18527646 0
0.37568126 0.30018494 0
0.4095321 0.27019392 0
0.45445629 0.2426389 0
0.48276413 0.23977282 0
0.35650916 0.32874122 0
1 0.89241704 0
0.40296598 0.74304146 0
0.38321656 0.70907847 0
1 0.87102957 0
0.78993691 0.85358526 0
0.34449618 0.35871347 0
0.35714105 0.65196586 0
0.34292549 0.62031461 0
0.80017998 0.84588012 0
0.38513568 0.69342439 0
0.43698577 0.76195975 0
0.55690706 0.81835457 0
0.50635064 0.79975104 0
0.4715412 0.78076902 0
0.61325766 0.83102479 0
0.69744443 0.83778173 0
0.33476211 0.39859553 0
0.32175349 0.47257597 0
0.32688023 0.43508718 0
0.33420107 0.49350089 0
0.345465 0.60004846 0
0.33631957 0.56780066 0
0.34079324 0.53801715 0
1 0.15099443 0
0.93336729 0.15818173 0
0.85188964 0.16354658 0
0.83591228 0.16985454 0
0.76238782 0.17280756 0
0.69243914 0.18331516 0
0.62843247 0.19278604 0
0.53045174 0.22041425 0
0.57007139 0.20102527 0
0.3847834 0.3093554 0
0.40921577 0.28511343 0
0.43822967 0.26381465 0
0.50984587 0.23880641 0
0.46697168 0.25774856 0
0.36696649 0.33962697 0
0.41110303 0.73251004 0
1 0.85911983 0
0.3930717 0.31796359 0
0.3511237 0.37388459 0
0.36589508 0.36017936 0
0.37631639 0.666779 0
0.35997822 0.63282095 0
0.45960789 0.76365687 0
1 0.85202846 0
0.82424037 0.84136352 0
0.61716797 0.82078767 0
0.40167445 0.69682871 0
0.41396543 0.72016258 0
0.4357063 0.74501748 0
0.56448755 0.8062015 0
0.51579394 0.78970051 0
0.48612866 0.77520012 0
0.66795373 0.82979281 0
0.73522661 0.83453737 0
0.3598572 0.61142467 0
0.34577808 0.40724305 0
0.33204754 0.45835018 0
0.34048964 0.43636994 0
0.34338567 0.47509387 0
0.35279177 0.55310441 0
0.34926989 0.50995997 0
0.355404 0.58333544 0
1 0.15771848 0
0.91870521 0.16549749 0
0.85411157 0.17400155 0
0.77050696 0.17885641 0
0.72037059 0.18767969 0
0.66678741 0.19306307 0
0.62467506 0.20055771 0
0.55422087 0.22096009 0
0.57978941 0.20701018 0
0.54658373 0.23192591 0
0.51800537 0.24601729 0
0.41521344 0.29736427 0
0.44173704 0.27938728 0
0.48073153 0.2630549 0
0.38715365 0.33985362 0
0.41445618 0.31582487 0
0.36206246 0.38813829 0
0.37875444 0.36864677 0
0.38546585 0.66339942 0
0.37573899 0.63542146 0
0.5173544 0.77961542 0
0.45540823 0.74652235 0
0.47685828 0.76044513 0
1 0.84751261 0
0.84748765 0.83847545 0
0.67307666 0.82322378 0
0.62661443 0.81285388 0
0.7723708 0.83240758 0
0.58278337 0.80102643 0
0.41022683 0.68960651 0
0.42375427 0.71025448 0
0.43502048 0.72820973 0
0.55243462 0.79120604 0
0.50016496 0.76810605 0
0.71927965 0.82801312 0
0.37283821 0.61154358 0
0.35643086 0.422593 0
0.35014989 0.45132741 0
0.3562012 0.47547261 0
0.36209951 0.51561595 0
0.36212255 0.555505 0
0.37112527 0.58915385 0
1 0.1657151 0
0.93090285 0.17212953 0
0.87220041 0.17812355 0
0.79362928 0.18406952 0
0.73728409 0.19271822 0
0.69010275 0.19794195 0
0.64745255 0.20534767 0
0.58086669 0.22287116 0
0.6004064 0.21223552 0
0.57937678 0.23162086 0
0.5492118 0.24069916 0
0.51325288 0.25886013 0
0.43748603 0.29883947 0
0.46866299 0.28071042 0
0.40434481 0.34140008 0
0.42937491 0.32047732 0
0.54825604 0.78132679 0
0.37134779 0.40208384 0
0.39266206 0.36893021 0
0.40184008 0.66395226 0
0.39077052 0.63602203 0
0.52942386 0.7707053 0
0.45478734 0.73114751 0
0.47664945 0.74398334 0
0.49527229 0.75501036 0
1 0.84420331 0
0.8662521 0.8353644 0
0.63128864 0.80534292 0
0.71135637 0.82148661 0
0.67718687 0.81535615 0
0.78577374 0.82803149 0
0.5920711 0.79392443 0
0.42760752 0.69180049 0
0.44449061 0.71275922 0
0.57925259 0.78447986 0
0.52027601 0.75988969 0
0.75576138 0.82247274 0
0.38507466 0.60951483 0
0.36747186 0.43976878 0
0.3677902 0.4796981 0
0.37399609 0.52285367 0
0.37409865 0.56068397 0
0.38567366 0.58874727 0
1 0.17314069 0
0.85035525 0.18494227 0
0.92619828 0.17934741 0
0.78603366 0.19248045 0
0.72383972 0.20085106 0
0.6749878 0.20898784 0
0.62337802 0.21859257 0
0.60395548 0.23186437 0
0.55737235 0.24746427 0
0.50784254 0.27173528 0
0.46105135 0.29727401 0
0.41556065 0.3531228 0
0.4470474 0.31914602 0
0.56195812 0.77436672 0
0.38519351 0.3968332 0
0.41846844 0.66637841 0
0.40094382 0.63426671 0
0.54827879 0.76352784 0
0.47333451 0.72671095 0
0.49758162 0.73954232 0
0.5139795 0.74902042 0
0.39096696 0.40782209 0
1 0.84044498 0
0.88082277 0.8314808 0
0.63235721 0.79702497 0
[...]
CELL_DATA 1168
Scalars  Label int 1
LOOKUP_TABLE FreeFempp_table
0
0
0
0
0
0
0
0
0
0
0
0
0
0
0
0
0
0
0
0
0
0
0
0
0
0
0
0
0
0
0
0
0
0
0
0
0
0
0
0
0
0
0
0
0
0
0
0
0
0
0
0
0
0
0
0
0
0
0
0
0
0
0
0
0
0
0
0
0
0
0
0
0
0
0
0
0
0
0
0
0
0
0
0
0
0
0
0
0
0
0
0
0
0
0
0
0
0
0
0
0
0
0
0
0
0
0
0
0
0
0
0
0
0
0
0
0
0
0
0
0
0
0
0
0
0
0
0
0
0
0
0
0
0
0
0
0
0
0
0
0
0
0
0
0
0
0
0
0
0
0
0
0
0
0
0
0
0
0
0
0
0
0
0
0
0
0
0
0
0
0
0
0
0
0
0
0
0
0
0
0
0
0
0
0
0
0
0
0
0
0
0
0
0
0
0
0
0
0
0
0
0
0
0
0
0
0
0
0
0
0
0
0
0
0
0
0
0
0
0
0
0
0
0
0
0
0
0
0
0
0
0
0
0
0
0
0
0
0
0
0
0
0
0
0
0
0
0
0
0
0
0
0
0
0
0
0
0
0
0
0
0
0
0
0
0
0
0
0
0
0
0
0
0
0
0
0
0
0
0
0
0
0
0
0
0
0
0
0
0
0
0
0
0
0
0
0
0
0
0
0
0
0
0
0
0
0
0
0
0
0
0
0
0
0
0
0
0
0
0
0
0
0
0
0
0
0
0
0
0
0
0
0
0
0
0
0
0
0
0
0
0
0
0
0
0
0
0
0
0
0
0
0
0
0
0
0
0
0
0
0
0
0
0
0
0
0
0
0
0
0
0
0
0
0
0
0
0
0
0
0
0
0
0
0
0
0
0
0
0
0
0
0
0
0
0
0
0
0
0
0
0
0
0
0
0
0
0
0
0
0
0
0
0
0
0
0
0
0
0
0
0
0
0
0
0
0
0
0
0
0
0
0
0
0
0
0
0
0
0
0
0
0
0
0
0
0
0
0
0
0
0
0
0
0
0
0
0
0
0
0
0
0
0
0
0
0
0
0
0
0
0
0
0
0
0
0
0
0
0
0
0
0
0
0
0
0
0
0
0
0
0
0
0
0
0
0
0
0
0
0
0
0
0
0
0
0
0
0
0
0
0
0
0
0
0
0
0
0
0
0
0
0
0
0
0
0
0
0
0
0
0
0
0
0
0
0
0
0
0
0
0
0
0
0
0
0
0
0
0
0
0
0
0
0
0
0
0
0
0
0
0
0
0
0
0
0
0
0
0
0
0
0
0
0
0
0
0
0
0
0
0
0
0
0
0
0
0
0
0
0
0
0
0
0
0
0
0
0
0
0
0
0
0
0
0
0
0
0
0
0
0
0
0
0
0
0
0
0
0
0
0
0
0
0
0
0
0
0
0
0
0
0
0
0
0
0
0
0
0
0
0
0
0
0
0
0
0
0
0
0
0
0
0
0
0
0
0
0
0
0
0
0
0
0
0
0
0
0
0
0
0
0
0
0
0
0
0
0
0
0
0
0
0
0
0
0
0
0
0
0
0
0
0
0
0
0
0
0
0
0
0
0
0
0
0
0
0
0
0
0
0
0
0
0
0
0
0
0
0
0
0
0
0
0
0
0
0
0
0
0
0
0
0
0
0
0
0
0
0
0
0
0
0
0
0
0
0
0
0
0
0
0
0
0
0
0
0
0
0
0
0
0
0
0
0
0
0
0
0
0
0
0
0
0
0
0
0
0
0
0
0
0
0
0
0
0
0
0
0
0
0
0
0
0
0
0
0
0
0
0
0
0
0
0
0
0
0
0
0
0
0
0
0
0
0
0
0
0
0
0
0
0
0
0
0
0
0
0
0
0
0
0
0
0
0
0
0
0
0
0
0
0
0
0
0
0
0
0
0
0
0
0
0
0
0
0
0
0
0
0
0
0
0
0
0
0
0
0
0
0
0
0
0
0
0
0
0
0
0
0
0
0
0
0
0
0
0
0
0
0
0
0
0
0
0
0
0
0
0
0
0
0
0
0
0
0
0
0
0
0
0
0
0
0
0
0
0
0
0
0
0
0
0
0
0
0
0
0
0
0
0
0
0
0
0
0
0
0
0
0
0
0
0
0
0
0
0
0
0
0
0
0
0
0
0
0
0
0
0
0
0
0
0
0
0
0
0
0
0
0
0
0
0
0
0
0
0
0
0
0
0
0
0
0
0
0
0
0
0
0
0
0
0
0
0
0
0
0
0
0
0
0
0
0
0
0
0
0
0
0
0
0
0
0
0
0
0
0
0
0
0
0
0
0
0
0
0
0
0
0
0
0
0
0
0
0
0
0
0
0
0
0
0
0
0
0
0
0
0
0
0
0
0
0
0
0
0
0
0
0
0
0
0
0
0
0
0
0
0
0
0
1
1
1
1
1
1
1
1
1
1
3
3
3
3
3
3
3
3
3
3
2
2
2
2
2
2
2
2
2
2
2
2
2
2
2
2
2
2
2
2
2
2
2
2
2
2
2
2
2
2
2
2
2
2
2
2
2
2
4
4
4
4
4
4
4
4
4
4
4
4
4
4
4
4
4
4
4
4
4
4
4
4
4
4
4
4
4
4
4
4
4
4
4
4
4
4

LOOKUP_TABLE FreeFempp_table 5
1.00000000 0.00000000 0.00000000 1.00000000
1.00000000 1.00000000 0.00000000 1.00000000
1.00000000 0.00000000 1.00000000 1.00000000
0.00000000 1.00000000 0.00000000 1.00000000
0.00000000 1.00000000 1.00000000 1.00000000

POINT_DATA 585
FIELD FieldData 1
Density 1 585 float
9.90001023e-01 9.89857674e-01 9.90001023e-01 9.90001023e-01 9.90001023e-01 9.90000665e-01 9.90001023e-01 9.68893170e-01 9.85585570e-01 9.89174545e-01 9.56616819e-01 9.88262594e-01 9.44698095e-01 9.89981413e-01 9.90001023e-01 9.90001023e-01 9.89244342e-01 1.85879201e-01 4.59869325e-01 7.68327534e-01 9.15819168e-01 7.63184845e-01 5.89572564e-02 1.14912326e-02 2.09762268e-02 8.69316459e-01 9.89012182e-01 9.33728576e-01 9.89001095e-01 9.88840759e-01 9.42058086e-01 9.90001023e-01 9.85066831e-01 9.62226510e-01 1.01254024e-02 1.00990767e-02 4.07412678e-01 5.50770044e-01 1.31993994e-01 5.38398862e-01 7.35776782e-01 9.58821774e-01 8.23007226e-01 3.98353368e-01 9.90001023e-01 9.43330824e-01 8.99038553e-01 8.16320360e-01 5.96670151e-01 3.35515514e-02 1.00989901e-02 1.17731886e-02 1.96469516e-01 6.04800545e-02 2.97532469e-01 5.95036805e-01 2.61274546e-01 1.09665118e-01 9.89934027e-01 2.72468384e-02 8.80075991e-01 5.37387550e-01 5.80639958e-01 2.01045766e-01 1.00989901e-02 1.88866705e-02 1.01413233e-02 1.54854851e-02 4.03822102e-02 1.72354933e-02 9.86457229e-01 1.02913091e-02 4.63969022e-01 1.32743433e-01 1.91822037e-01 1.48641318e-02 1.00989901e-02 1.01613924e-02 1.01169860e-02 1.09542869e-02 1.06516089e-02 1.03037423e-02 9.72138405e-01 8.43964934e-01 9.32260215e-01 1.00997984e-02 6.37336493e-01 1.39243275e-01 3.30859944e-02 2.84538548e-02 1.07729333e-02 1.00989901e-02 1.00989901e-02 1.01021379e-02 1.01054274e-02 1.00989901e-02 3.14555883e-01 6.28729686e-02 3.19237523e-02 1.43989980e-01 1.59628801e-02 1.30315032e-02 1.32228639e-02 1.13140373e-02 1.02520892e-02 1.00989901e-02 1.00989901e-02 1.00989901e-02 1.01018790e-02 1.00989901e-02 1.00989901e-02 1.00989901e-02 1.00989901e-02 1.02912541e-02 1.01054255e-02 1.00989901e-02 1.00989901e-02 1.00989901e-02 1.00989901e-02 1.00989901e-02 1.00989901e-02 1.00989901e-02 1.00989901e-02 1.00989901e-02 1.00989901e-02 1.00989901e-02 1.00989901e-02 1.00989901e-02 1.00989901e-02 1.00989901e-02 1.00989901e-02 1.00989901e-02 1.00989901e-02 1.00989901e-02 1.00989901e-02 1.00989901e-02 1.00989901e-02 1.00989901e-02 1.00989901e-02 1.00989901e-02 1.00989901e-02 1.00989901e-02 1.00989901e-02 1.00989901e-02 1.00989901e-02 1.00989901e-02 1.00989901e-02 1.00989901e-02 1.00989901e-02 1.00989984e-02 1.00989901e-02 1.00989901e-02 1.00989901e-02 1.00992471e-02 1.00989901e-02 1.00989901e-02 1.00989901e-02 1.00989901e-02 1.01006450e-02 1.00989901e-02 1.00989901e-02 1.00991093e-02 1.00990776e-02 1.00989901e-02 1.00990068e-02 1.00989901e-02 1.00989901e-02 1.00989901e-02 1.00989901e-02 1.01083936e-02 1.00989901e-02 1.00989901e-02 1.00989901e-02 1.00991260e-02 1.01746460e-02 1.01464884e-02 1.01999985e-02 1.00990767e-02 1.01013491e-02 1.01007596e-02 1.01026492e-02 1.01067843e-02 1.00990459e-02 1.00990124e-02 1.00989901e-02 1.00989901e-02 1.00989901e-02 1.00989901e-02 1.01002092e-02 1.01113217e-02 1.03234230e-02 1.00989901e-02 1.00989901e-02 1.00989901e-02 1.01752784e-02 1.18247857e-02 1.22500397e-02 1.10310437e-02 1.01254024e-02 1.02310153e-02 1.01504344e-02 1.02245677e-02 1.06376661e-02 1.01737902e-02 1.01117743e-02 1.00989901e-02 1.07176108e-02 1.00989901e-02 1.00989901e-02 1.00989901e-02 1.01654632e-02 1.05434665e-02 1.47998687e-02 1.77559052e-02 1.01004364e-02 1.00989919e-02 1.00990571e-02 2.31725406e-02 3.07014026e-02 2.39669923e-02 3.12847681e-02 2.21737064e-02 1.14912326e-02 1.38065545e-02 3.12417056e-02 1.93014685e-02 1.06797256e-02 1.28354831e-02 3.14467177e-02 2.76086573e-02 1.87417064e-02 1.04186712e-02 1.85934231e-02 1.00989901e-02 1.00991605e-02 1.07316673e-02 1.68513581e-02 1.01111978e-02 3.72055024e-02 5.21416292e-02 2.84521021e-02 1.01507204e-02 1.05758067e-02 1.01094320e-02 1.07105924e-02 5.08506447e-02 6.63988590e-02 3.91523801e-02 8.25922862e-02 9.30116773e-02 1.12083688e-01 1.82448253e-01 2.09762268e-02 7.38643706e-02 5.52646369e-02 8.08071271e-02 1.51820974e-02 2.91599799e-02 4.29874659e-02 6.97222576e-02 7.29644895e-02 4.11454216e-02 5.26655763e-02 9.72788706e-02 7.78132305e-02 1.00989901e-02 1.40468553e-02 3.64801176e-02 1.00989901e-02 1.01483269e-02 1.14093639e-01 9.08091813e-02 1.49252161e-01 1.21263172e-02 1.13143407e-01 1.70298852e-02 1.03630899e-02 1.15516512e-02 1.78939980e-02 1.13229444e-02 2.15250738e-02 1.35828450e-01 1.88128605e-01 1.93241224e-01 3.67898464e-01 2.82551378e-01 2.45628014e-01 3.97407949e-01 5.89572564e-02 1.72161356e-01 1.62325352e-01 2.73146957e-01 1.63792238e-01 2.39429265e-01 1.41152009e-01 1.21503547e-01 3.79971229e-02 1.84435695e-01 1.82803005e-01 1.46693274e-01 2.61760324e-01 2.92827278e-01 1.93581566e-01 6.36760443e-02 1.00989901e-02 3.44477057e-01 2.82186568e-01 3.73889297e-01 1.26547307e-01 2.50706196e-01 4.39639799e-02 1.59628801e-02 2.60560568e-02 1.40557205e-02 2.30740547e-01 1.34725168e-01 6.80424571e-02 2.17459649e-02 1.99365001e-02 4.69219200e-02 2.37288624e-02 4.23986465e-02 5.04918218e-01 2.90802151e-01 3.58506560e-01 4.19290721e-01 6.09547615e-01 6.44893408e-01 6.60524547e-01 5.89747846e-01 1.85879201e-01 3.75816077e-01 5.17495811e-01 3.32565010e-01 5.36319017e-01 4.04347539e-01 2.72662103e-01 2.81863034e-01 1.33851588e-01 5.49815953e-01 5.64547002e-01 3.96382689e-01 4.35936719e-01 5.13888896e-01 4.82404202e-01 6.49841428e-01 5.44625819e-01 6.41728580e-01 3.26292634e-01 5.03216684e-01 8.11477974e-02 1.28228843e-01 1.44625947e-01 3.19237523e-02 5.16264923e-02 6.53100237e-02 3.86805311e-02 1.02002755e-01 8.87094885e-02 4.83557731e-01 4.28852260e-01 2.68417597e-01 1.44594967e-01 2.53972620e-01 1.24170199e-01 7.98099577e-01 6.50864363e-01 6.99586391e-01 8.55179846e-01 8.42987239e-01 8.35622907e-01 8.60293925e-01 4.59869325e-01 6.67310417e-01 7.48436391e-01 6.30257726e-01 7.82637775e-01 7.63707697e-01 6.18434787e-01 5.45444667e-01 3.39771777e-01 8.36722493e-01 7.73289263e-01 8.05729568e-01 7.31621325e-01 7.37336338e-01 7.43452728e-01 8.78040493e-01 1.80561379e-01 7.80357897e-01 8.17475379e-01 6.25256538e-01 7.39235699e-01 3.12837839e-01 3.75638723e-01 2.84667820e-01 4.12785798e-01 6.28729686e-02 1.29986137e-01 1.15258493e-01 2.32191831e-01 1.11303367e-01 2.18309641e-01 2.62191713e-01 7.54891932e-01 6.54856205e-01 4.28743720e-01 6.02707863e-01 3.34693313e-01 8.96776736e-01 8.66778255e-01 9.27365661e-01 9.57119346e-01 9.21200156e-01 9.55962121e-01 7.68327534e-01 8.20782900e-01 8.60562086e-01 8.82402837e-01 9.00365710e-01 8.76686335e-01 6.94739640e-01 8.88028979e-01 9.37695801e-01 8.99193525e-01 8.78450811e-01 9.01542246e-01 9.30207074e-01 4.87191677e-01 8.61920476e-01 8.24317336e-01 9.04175758e-01 6.51698649e-01 6.48514271e-01 6.45179987e-01 7.48225451e-01 9.26352501e-01 1.43989980e-01 2.55717069e-01 3.91839504e-01 5.79689026e-01 3.47375780e-01 4.51740682e-01 4.44567472e-01 6.33339643e-01 8.69218230e-01 8.85174930e-01 7.85558641e-01 8.32658708e-01 6.71377599e-01 9.50245738e-01 9.77831423e-01 9.84736085e-01 9.84608054e-01 9.86038923e-01 9.15819168e-01 9.36987102e-01 9.48448300e-01 9.54154074e-01 9.17423189e-01 9.71580863e-01 9.76052463e-01 9.49082613e-01 9.62935209e-01 9.72732842e-01 9.51997817e-01 8.78233552e-01 8.45173120e-01 9.23039675e-01 9.68170583e-01 3.14555883e-01 5.11741638e-01 6.66182518e-01 7.80109942e-01 6.80217206e-01 7.40602076e-01 8.79980743e-01 9.75969613e-01 9.39653754e-01 9.77424502e-01 9.21740234e-01 9.49853539e-01 8.87082517e-01 9.87040043e-01 9.88725305e-01 9.90001023e-01 9.90001023e-01 9.68893170e-01 9.78495479e-01 9.87065971e-01 9.82931495e-01 9.88750041e-01 9.89587545e-01 9.84867036e-01 9.87330854e-01 9.87458169e-01 9.47468460e-01 9.90001023e-01 6.37336493e-01 8.71047974e-01 9.07339036e-01 8.52402389e-01 9.03374553e-01 8.43964934e-01 9.47239280e-01 9.61300433e-01 9.87344563e-01 9.82040107e-01 9.80321467e-01 9.74994242e-01 9.47970033e-01 9.90001023e-01 9.90001023e-01 9.90001023e-01 9.90001023e-01 9.85585570e-01 9.88869131e-01 9.90000844e-01 9.89995539e-01 9.89990354e-01 9.89860654e-01 9.90000963e-01 9.89998400e-01 9.38901722e-01 9.32260215e-01 9.77131546e-01 9.81403887e-01 9.84777212e-01 9.89210606e-01 9.89684165e-01 9.89181936e-01 9.72138405e-01 9.90001023e-01 9.90001023e-01 9.90001023e-01 9.90001023e-01 9.89174545e-01 9.90001023e-01 9.90000963e-01 9.90000665e-01 9.90001023e-01 9.89995956e-01 9.90000963e-01 9.88789976e-01 9.89524961e-01 9.90001023e-01 9.90001023e-01 9.86457229e-01 9.90001023e-01 9.90001023e-01 9.90001023e-01 9.90001023e-01 9.89857674e-01 9.90001023e-01 9.90001023e-01 9.90001023e-01 9.90001023e-01 9.89959955e-01 9.90001023e-01 9.90001023e-01 9.89934027e-01 9.90001023e-01 9.90001023e-01 9.90001023e-01 9.90001023e-01 9.90001023e-01 9.90001023e-01 9.90001023e-01 9.90001023e-01 9.90000963e-01 9.90001023e-01 9.90001023e-01 9.90001023e-01 9.90001023e-01 9.90001023e-01 9.90001023e-01 9.90001023e-01 9.90001023e-01 9.90001023e-01 9.90001023e-01 9.90001023e-01 9.90001023e-01 9.90001023e-01 9.90001023e-01 9.90001023e-01 
