# vtk DataFile Version 2.0
sol_toll1e-05_vf0.3iter12.vtk, Created by Freefem++ 
ASCII
DATASET UNSTRUCTURED_GRID
POINTS 589 float
1 0.75199397 0
1 0.77300592 0
1 0.71576686 0
1 0.65359109 0
1 0.54763283 0
1 0.41100168 0
1 0.78672371 0
0.85138106 0.76788744 0
0.80688178 0.7025845 0
0.80584893 0.7398341 0
0.79160299 0.63579859 0
0.79689384 0.52307043 0
1 0.31745415 0
0.81113617 0.39929717 0
1 0.79706354 0
0.84431733 0.78117956 0
0.74105207 0.75507327 0
0.65745815 0.63880197 0
0.66441218 0.68965557 0
0.66023465 0.72110814 0
0.64446388 0.54559826 0
0.5627092 0.56535915 0
0.6659696 0.43928777 0
1 0.26390469 0
0.78567225 0.32969168 0
1 0.80641146 0
0.73800631 0.77204867 0
0.84299589 0.79279208 0
0.64577296 0.74181384 0
0.55238787 0.62379149 0
0.56305471 0.67190304 0
0.56816266 0.70483165 0
0.50492179 0.53829013 0
0.62681017 0.37830745 0
0.55750923 0.46572686 0
1 0.23208789 0
0.67038534 0.3177488 0
0.81341432 0.27233602 0
0.79127536 0.79644898 0
0.8807883 0.8053217 0
1 0.81393051 0
1 0.81908179 0
0.64993497 0.7581646 0
0.71969126 0.7804236 0
0.73727565 0.79359374 0
0.57283188 0.72880017 0
0.48657246 0.60737438 0
0.49761877 0.65636761 0
0.50904809 0.68972896 0
0.46763816 0.54178368 0
0.49069761 0.45754867 0
0.54868212 0.38197071 0
0.59286044 0.31950643 0
1 0.21241091 0
0.83108899 0.23970606 0
0.69147312 0.27303001 0
1 0.82360403 0
1 0.8298116 0
0.81064183 0.80541758 0
0.88505038 0.8119524 0
0.89242086 0.81643231 0
0.55746894 0.73642525 0
0.61527647 0.75830499 0
0.77124982 0.80511488 0
0.73363822 0.8008903 0
0.66158937 0.77733976 0
0.68688138 0.78965454 0
0.60081823 0.76596595 0
0.50745586 0.70828168 0
0.52174922 0.72825056 0
0.44272624 0.59780492 0
0.43508435 0.54289959 0
0.4566763 0.64350487 0
0.46760977 0.67549805 0
0.44607935 0.47449901 0
0.48008256 0.4027476 0
0.52253475 0.34375305 0
0.41607796 0.48394704 0
0.5841114 0.29388029 0
1 0.19991035 0
0.84856051 0.21883538 0
0.7336421 0.24059225 0
0.64439388 0.26060655 0
1 0.8360969 0
0.9095742 0.82771667 0
0.88347672 0.82059177 0
0.81345824 0.81210977 0
0.55935203 0.74851511 0
0.52497417 0.74072628 0
0.75179191 0.80969238 0
0.70632401 0.80214831 0
0.56503152 0.75973 0
0.62969235 0.77936123 0
0.65926696 0.79243816 0
0.58650784 0.77318633 0
0.46441833 0.69161671 0
0.4982209 0.72760201 0
0.48446855 0.71130581 0
0.4161874 0.59107679 0
0.40642817 0.53699596 0
0.43121899 0.66726174 0
0.43789142 0.66057754 0
0.42913709 0.63353696 0
0.47345452 0.36330144 0
0.43963226 0.41991334 0
0.41365001 0.4338732 0
0.5206202 0.31136536 0
0.39480379 0.47884983 0
0.3835494 0.50523834 0
0.58196317 0.2720831 0
1 0.19111953 0
0.85701177 0.20599464 0
0.75483938 0.22258431 0
0.66706916 0.239902 0
1 0.8409338 0
0.87870936 0.83156581 0
0.81999296 0.82347218 0
0.79270433 0.81669936 0
0.7432187 0.81661443 0
0.53665318 0.75156106 0
0.51418293 0.74877879 0
0.49786131 0.73954019 0
0.71140911 0.81274548 0
0.67312935 0.80524949 0
0.54789917 0.76331841 0
0.61203314 0.7857086 0
0.63200535 0.7969914 0
0.56125689 0.77431018 0
0.57949333 0.78419453 0
0.47338177 0.72681612 0
0.44667856 0.69399991 0
0.46463981 0.71194469 0
0.41932466 0.66846765 0
0.40232136 0.59962525 0
0.38995804 0.55718258 0
0.40269473 0.63719775 0
0.40720538 0.62654977 0
0.37435072 0.52409862 0
0.47088678 0.33788317 0
0.43546439 0.38089271 0
0.40099073 0.42374355 0
0.49125627 0.30817874 0
0.53701756 0.28117619 0
0.36814343 0.47990481 0
0.38004344 0.45803535 0
0.59510717 0.25317601 0
1 0.18432021 0
0.86914307 0.19674057 0
0.75230224 0.21328909 0
0.66485009 0.22863995 0
1 0.84459106 0
0.86215822 0.83533367 0
0.78288854 0.8279923 0
0.75312956 0.82259875 0
0.70902589 0.82173091 0
0.52026773 0.75978309 0
0.49568763 0.75503879 0
0.47684214 0.74405763 0
0.67580279 0.81529111 0
0.63045593 0.80529156 0
0.52913123 0.77077329 0
0.58987356 0.79352213 0
0.54895697 0.78186628 0
0.45471456 0.73126477 0
0.42790491 0.69285744 0
0.44433498 0.71297726 0
0.40217354 0.66469801 0
0.39042965 0.63544341 0
0.37413403 0.56136224 0
0.38556393 0.58867731 0
0.38450921 0.60853605 0
0.3622554 0.51584842 0
0.41854777 0.37394492 0
0.4493109 0.33678482 0
0.39152479 0.40838509 0
0.54497675 0.26396934 0
0.48983525 0.29478239 0
0.44752379 0.31916183 0
0.35656888 0.47540655 0
0.38607125 0.3964564 0
0.36788209 0.43994317 0
0.59558165 0.24253913 0
0.55728436 0.24760206 0
0.71031944 0.21109599 0
1 0.17830794 0
0.88752647 0.18808324 0
0.7823268 0.20031683 0
0.65093234 0.22241875 0
0.76899003 0.83241419 0
1 0.84791342 0
0.8443177 0.83856033 0
0.71586471 0.82820305 0
0.67066645 0.8232485 0
0.50031567 0.76832024 0
0.47736296 0.76069284 0
0.45545285 0.74679895 0
0.62547687 0.81281 0
0.58169231 0.80098955 0
0.51671343 0.77977989 0
0.55044841 0.7914645 0
0.41038927 0.69042983 0
0.43466567 0.72849161 0
0.42355507 0.71094256 0
0.37598999 0.63569294 0
0.38569919 0.66387897 0
0.37188703 0.61051927 0
0.36203538 0.55579001 0
0.37062247 0.58818033 0
0.35255254 0.55269818 0
0.34929532 0.51010533 0
0.41637388 0.35291391 0
0.39383694 0.36772582 0
0.50770177 0.27199277 0
0.46116199 0.29735845 0
0.42951293 0.32046543 0
0.34357559 0.47516577 0
0.35022064 0.45130281 0
0.37193691 0.4019907 0
0.35660141 0.42266697 0
0.60375501 0.23197588 0
0.51348295 0.25884079 0
0.57988368 0.23143306 0
0.54989103 0.24040506 0
0.67546051 0.20894482 0
0.72436937 0.20109748 0
0.92564381 0.17932677 0
1 0.17224751 0
0.85060251 0.18512339 0
0.78587266 0.19280408 0
0.62404512 0.21842995 0
0.73239771 0.83471904 0
1 0.8524562 0
0.82185565 0.84152908 0
1 0.8596098 0
0.66380968 0.82988073 0
0.61449702 0.82077393 0
0.48541699 0.77559782 0
0.45944961 0.7638974 0
0.43515248 0.7451525 0
0.56291139 0.80617321 0
0.51479313 0.78993037 0
0.41014979 0.73272529 0
0.40154035 0.6974874 0
0.4135858 0.72066436 0
0.37618216 0.6670194 0
0.35927562 0.61158635 0
0.3598113 0.63307202 0
0.35477119 0.58308813 0
0.34053534 0.53823787 0
0.33415391 0.49379032 0
0.37891007 0.36880459 0
0.40471482 0.34096395 0
0.4687277 0.28069039 0
0.43730907 0.29886002 0
0.41416936 0.31585147 0
0.34037586 0.43666602 0
0.33205824 0.45855887 0
0.36186771 0.38863432 0
0.34540748 0.40761731 0
0.87110056 0.17839036 0
0.51854224 0.24578795 0
0.48123612 0.26281639 0
0.5814173 0.22263846 0
0.54745447 0.23149489 0
0.64884098 0.20527652 0
0.6912423 0.19800301 0
0.7382335 0.19290494 0
1 0.16463196 0
0.93042758 0.17203537 0
0.79399641 0.18431201 0
0.60187645 0.21188344 0
1 0.87162512 0
1 0.89308483 0
0.69376574 0.83811555 0
0.789384 0.85373348 0
0.79903954 0.84607053 0
0.61030255 0.8311816 0
0.55503346 0.8185258 0
0.47014462 0.78116394 0
0.43623387 0.76204342 0
0.50513756 0.80012813 0
0.40249595 0.74353816 0
0.38270179 0.70937125 0
0.38492188 0.69380568 0
0.35681297 0.65203266 0
0.32622439 0.51975319 0
0.34500111 0.60012389 0
0.34245747 0.62049441 0
0.33595794 0.56815574 0
0.3215493 0.47290497 0
0.3654487 0.36071397 0
0.38662216 0.34015411 0
0.44175465 0.27923818 0
0.41474318 0.29733564 0
0.39248657 0.31801136 0
0.32662134 0.4351903 0
0.35065386 0.37409146 0
0.33434182 0.39848357 0
0.85468341 0.17407047 0
0.4674123 0.2575048 0
0.51070828 0.23838969 0
0.55531139 0.22048128 0
0.6267161 0.20040268 0
0.668742 0.19301795 0
0.72195642 0.18774543 0
1 0.15694709 0
0.91859857 0.16530301 0
0.77170199 0.1788804 0
0.58272167 0.20618884 0
0.43874327 0.26343024 0
1 0.93143902 0
0.74383126 0.88839768 0
0.74523879 0.86468876 0
0.64963233 0.84470752 0
0.5488418 0.83265193 0
0.48634545 0.81091389 0
0.4412876 0.78117815 0
0.38940443 0.74994256 0
0.36154108 0.69967532 0
0.35171798 0.6656422 0
0.31416308 0.50068964 0
0.33072546 0.62499121 0
0.31988585 0.55168097 0
0.32877938 0.59200533 0
0.31230535 0.4557626 0
0.30384799 0.48007713 0
0.36646567 0.33955933 0
0.40900884 0.28488503 0
0.38440801 0.30908195 0
0.31690386 0.42296866 0
0.3441909 0.3580337 0
0.32738419 0.38327292 0
0.83648213 0.16978594 0
0.48365434 0.23933357 0
0.53271839 0.21948341 0
0.62995616 0.19262048 0
0.6932062 0.18330374 0
0.93275457 0.15802951 0
1 0.15048722 0
0.85065245 0.16353995 0
0.76225298 0.17284616 0
0.57182002 0.20052673 0
0.45623509 0.24188141 0
0.41026356 0.26953647 0
1 1 0
0.72448799 0.93126295 0
0.47339308 0.83106316 0
0.55730211 0.88377212 0
0.57024401 0.85535973 0
0.41568465 0.79299239 0
0.36002427 0.74809859 0
0.34723038 0.70437859 0
0.3271323 0.64926284 0
0.30572881 0.53236393 0
0.31312775 0.5870928 0
0.30171045 0.43753805 0
0.29233976 0.48168369 0
0.35618694 0.32803016 0
0.37542252 0.29975216 0
0.3112481 0.39711678 0
0.33142514 0.35148518 0
0.50757208 0.21938337 0
0.63446127 0.18554062 0
0.6968584 0.17575686 0
0.89380012 0.15516928 0
1 0.14417512 0
0.77102938 0.16520541 0
0.59152021 0.1868942 0
0.53462882 0.20127049 0
0.42198175 0.24832903 0
0.47194302 0.22222946 0
0.37602561 0.28298393 0
0.70231907 1 0
0.49876572 0.92302605 0
0.40258356 0.82290497 0
0.43265213 0.86099929 0
0.35749208 0.78972265 0
0.32257894 0.73536428 0
0.31580678 0.6770708 0
0.298806 0.60124001 0
0.29083729 0.54043247 0
0.27795683 0.47762067 0
0.28975673 0.42301516 0
0.34163509 0.32123117 0
0.30982421 0.36820542 0
0.65978194 0.17455865 0
0.83438488 0.15477695 0
1 0.13631534 0
0.82326536 0.1500257 0
0.70270032 0.16463785 0
0.5076039 0.19923891 0
0.58163436 0.17989865 0
0.39008752 0.25472334 0
0.43708564 0.22237492 0
0.34461193 0.29345407 0
0.43940946 1 0
0.3402939 0.90068796 0
0.32613546 0.82362544 0
0.29344568 0.75471747 0
0.27715378 0.6704564 0
0.27910795 0.60749973 0
0.26614505 0.52581548 0
0.26360771 0.44517303 0
0.2824704 0.39024195 0
0.30712547 0.34077654 0
1 0.1242692 0
0.7957416 0.14348998 0
0.6655383 0.16036746 0
0.48427946 0.19312698 0
0.55044615 0.17011028 0
0.36494161 0.25483517 0
0.40269744 0.21650299 0
0.30717407 0.3087133 0
0.26211988 1 0
0.21231232 0.90320922 0
0.23693169 0.75741333 0
0.22890346 0.82982365 0
0.23330477 0.66043077 0
0.24011623 0.56416762 0
0.23643983 0.47006073 0
0.26272069 0.38255056 0
1 0.1034092 0
0.79935527 0.12869385 0
0.64894197 0.14687648 0
0.44334111 0.18134683 0
0.53581718 0.14931458 0
0.34944359 0.20984425 0
0.32319614 0.25825656 0
0.26489439 0.32214585 0
0.15441738 1 0
0.13638174 0.86696791 0
[...]
CELL_DATA 1176
Scalars  Label int 1
LOOKUP_TABLE FreeFempp_table
0
0
0
0
0
0
0
0
0
0
0
0
0
0
0
0
0
0
0
0
0
0
0
0
0
0
0
0
0
0
0
0
0
0
0
0
0
0
0
0
0
0
0
0
0
0
0
0
0
0
0
0
0
0
0
0
0
0
0
0
0
0
0
0
0
0
0
0
0
0
0
0
0
0
0
0
0
0
0
0
0
0
0
0
0
0
0
0
0
0
0
0
0
0
0
0
0
0
0
0
0
0
0
0
0
0
0
0
0
0
0
0
0
0
0
0
0
0
0
0
0
0
0
0
0
0
0
0
0
0
0
0
0
0
0
0
0
0
0
0
0
0
0
0
0
0
0
0
0
0
0
0
0
0
0
0
0
0
0
0
0
0
0
0
0
0
0
0
0
0
0
0
0
0
0
0
0
0
0
0
0
0
0
0
0
0
0
0
0
0
0
0
0
0
0
0
0
0
0
0
0
0
0
0
0
0
0
0
0
0
0
0
0
0
0
0
0
0
0
0
0
0
0
0
0
0
0
0
0
0
0
0
0
0
0
0
0
0
0
0
0
0
0
0
0
0
0
0
0
0
0
0
0
0
0
0
0
0
0
0
0
0
0
0
0
0
0
0
0
0
0
0
0
0
0
0
0
0
0
0
0
0
0
0
0
0
0
0
0
0
0
0
0
0
0
0
0
0
0
0
0
0
0
0
0
0
0
0
0
0
0
0
0
0
0
0
0
0
0
0
0
0
0
0
0
0
0
0
0
0
0
0
0
0
0
0
0
0
0
0
0
0
0
0
0
0
0
0
0
0
0
0
0
0
0
0
0
0
0
0
0
0
0
0
0
0
0
0
0
0
0
0
0
0
0
0
0
0
0
0
0
0
0
0
0
0
0
0
0
0
0
0
0
0
0
0
0
0
0
0
0
0
0
0
0
0
0
0
0
0
0
0
0
0
0
0
0
0
0
0
0
0
0
0
0
0
0
0
0
0
0
0
0
0
0
0
0
0
0
0
0
0
0
0
0
0
0
0
0
0
0
0
0
0
0
0
0
0
0
0
0
0
0
0
0
0
0
0
0
0
0
0
0
0
0
0
0
0
0
0
0
0
0
0
0
0
0
0
0
0
0
0
0
0
0
0
0
0
0
0
0
0
0
0
0
0
0
0
0
0
0
0
0
0
0
0
0
0
0
0
0
0
0
0
0
0
0
0
0
0
0
0
0
0
0
0
0
0
0
0
0
0
0
0
0
0
0
0
0
0
0
0
0
0
0
0
0
0
0
0
0
0
0
0
0
0
0
0
0
0
0
0
0
0
0
0
0
0
0
0
0
0
0
0
0
0
0
0
0
0
0
0
0
0
0
0
0
0
0
0
0
0
0
0
0
0
0
0
0
0
0
0
0
0
0
0
0
0
0
0
0
0
0
0
0
0
0
0
0
0
0
0
0
0
0
0
0
0
0
0
0
0
0
0
0
0
0
0
0
0
0
0
0
0
0
0
0
0
0
0
0
0
0
0
0
0
0
0
0
0
0
0
0
0
0
0
0
0
0
0
0
0
0
0
0
0
0
0
0
0
0
0
0
0
0
0
0
0
0
0
0
0
0
0
0
0
0
0
0
0
0
0
0
0
0
0
0
0
0
0
0
0
0
0
0
0
0
0
0
0
0
0
0
0
0
0
0
0
0
0
0
0
0
0
0
0
0
0
0
0
0
0
0
0
0
0
0
0
0
0
0
0
0
0
0
0
0
0
0
0
0
0
0
0
0
0
0
0
0
0
0
0
0
0
0
0
0
0
0
0
0
0
0
0
0
0
0
0
0
0
0
0
0
0
0
0
0
0
0
0
0
0
0
0
0
0
0
0
0
0
0
0
0
0
0
0
0
0
0
0
0
0
0
0
0
0
0
0
0
0
0
0
0
0
0
0
0
0
0
0
0
0
0
0
0
0
0
0
0
0
0
0
0
0
0
0
0
0
0
0
0
0
0
0
0
0
0
0
0
0
0
0
0
0
0
0
0
0
0
0
0
0
0
0
0
0
0
0
0
0
0
0
0
0
0
0
0
0
0
0
0
0
0
0
0
0
0
0
0
0
0
0
0
0
0
0
0
0
0
0
0
0
0
0
0
0
0
0
0
0
0
0
0
0
0
0
0
0
0
0
0
0
0
0
0
0
0
0
0
0
0
0
0
0
0
0
0
0
0
0
0
0
0
0
0
0
0
0
0
0
0
0
0
0
0
0
0
0
0
0
0
0
0
0
0
0
0
0
0
0
0
0
0
0
0
0
0
0
0
0
0
0
0
0
0
0
0
0
0
0
0
0
0
0
0
0
0
0
0
0
0
0
0
0
0
0
0
0
0
0
0
0
0
0
0
0
0
0
0
0
0
0
0
0
0
0
0
0
0
0
0
0
0
0
0
0
0
0
0
0
0
0
0
0
0
0
1
1
1
1
1
1
1
1
1
1
3
3
3
3
3
3
3
3
3
3
2
2
2
2
2
2
2
2
2
2
2
2
2
2
2
2
2
2
2
2
2
2
2
2
2
2
2
2
2
2
2
2
2
2
2
2
2
2
2
2
4
4
4
4
4
4
4
4
4
4
4
4
4
4
4
4
4
4
4
4
4
4
4
4
4
4
4
4
4
4
4
4
4
4
4
4
4
4
4
4

LOOKUP_TABLE FreeFempp_table 5
1.00000000 0.00000000 0.00000000 1.00000000
1.00000000 1.00000000 0.00000000 1.00000000
1.00000000 0.00000000 1.00000000 1.00000000
0.00000000 1.00000000 0.00000000 1.00000000
0.00000000 1.00000000 1.00000000 1.00000000

POINT_DATA 589
FIELD FieldData 1
Density 1 589 float
9.90001023e-01 9.89995599e-01 9.90001023e-01 9.90001023e-01 9.90001023e-01 9.90001023e-01 9.89948273e-01 9.90000963e-01 9.90001023e-01 9.90001023e-01 9.90001023e-01 9.90001023e-01 9.90001023e-01 9.90001023e-01 9.88260746e-01 9.89966154e-01 9.90001023e-01 9.90001023e-01 9.90001023e-01 9.90001023e-01 9.90001023e-01 9.90001023e-01 9.90001023e-01 9.90001023e-01 9.90001023e-01 9.82129574e-01 9.89550889e-01 9.88973677e-01 9.90001023e-01 9.90001023e-01 9.90001023e-01 9.90001023e-01 9.90001023e-01 9.90001023e-01 9.90001023e-01 9.89959121e-01 9.90001023e-01 9.90001023e-01 9.81917083e-01 9.77691948e-01 9.62538183e-01 9.18899238e-01 9.89244103e-01 9.84986246e-01 9.39902008e-01 9.89211321e-01 9.90001023e-01 9.90001023e-01 9.89698172e-01 9.90001023e-01 9.90001023e-01 9.90001023e-01 9.90001023e-01 9.89677548e-01 9.90001023e-01 9.90001023e-01 8.15324306e-01 5.75642049e-01 9.46706533e-01 9.45992529e-01 8.98336411e-01 9.75683749e-01 9.80661333e-01 9.06204104e-01 8.53684843e-01 9.61719751e-01 8.71403098e-01 9.22775567e-01 9.82160091e-01 9.48672950e-01 9.90001023e-01 9.90001023e-01 9.90001023e-01 9.87449706e-01 9.90001023e-01 9.90000904e-01 9.89996016e-01 9.90001023e-01 9.90000665e-01 9.88376796e-01 9.89959240e-01 9.90000963e-01 9.90000546e-01 2.89821595e-01 4.99993503e-01 7.34429419e-01 8.81133497e-01 9.50819373e-01 9.24198985e-01 7.76683509e-01 6.82156324e-01 8.79688501e-01 8.80101860e-01 6.66765571e-01 7.84911156e-01 9.76874590e-01 8.46867323e-01 9.34538484e-01 9.90001023e-01 9.90001023e-01 9.46835160e-01 9.74345744e-01 9.86336052e-01 9.89998400e-01 9.90000963e-01 9.90001023e-01 9.89861608e-01 9.88800406e-01 9.84764576e-01 9.89988029e-01 9.82254624e-01 9.88556385e-01 9.90000725e-01 9.89979565e-01 1.33439720e-01 2.50487626e-01 4.41466540e-01 6.67197347e-01 5.62994957e-01 8.35840464e-01 7.52317309e-01 6.48348868e-01 4.44987267e-01 3.46118361e-01 6.54190123e-01 6.32458746e-01 3.90910864e-01 4.82820064e-01 4.38209116e-01 6.46630526e-01 8.83763134e-01 8.61959815e-01 8.19400609e-01 9.84788299e-01 9.86068010e-01 8.98452818e-01 9.48494375e-01 9.57320511e-01 9.87450421e-01 9.87548709e-01 9.69404876e-01 9.84983981e-01 9.89588380e-01 9.28756297e-01 9.78236496e-01 9.88764882e-01 9.59831715e-01 9.77522314e-01 9.87139523e-01 9.82938170e-01 5.92466407e-02 1.26835510e-01 2.15323880e-01 3.24949533e-01 2.19163671e-01 6.04445279e-01 4.16995913e-01 2.86505312e-01 1.09298743e-01 1.14590392e-01 3.10296386e-01 2.61680782e-01 1.82735637e-01 3.73142272e-01 7.42803991e-01 6.49117589e-01 6.22662544e-01 7.41194487e-01 9.20443177e-01 9.55346942e-01 8.95706356e-01 8.44348311e-01 9.63804662e-01 9.73406851e-01 9.28470850e-01 9.76105392e-01 9.50154305e-01 9.31090951e-01 8.57175469e-01 8.65679681e-01 8.69559467e-01 9.71703053e-01 9.38041925e-01 9.54955637e-01 8.93322825e-01 9.36137080e-01 9.49435949e-01 9.17267323e-01 9.92800444e-02 3.05071380e-02 5.01133278e-02 1.16345704e-01 6.23959117e-02 2.50066012e-01 1.46006927e-01 1.26787513e-01 3.81783620e-02 8.78504217e-02 7.89723992e-02 1.33994654e-01 4.74745125e-01 2.60998696e-01 4.14599508e-01 5.04420519e-01 3.24937671e-01 7.83330202e-01 8.32712054e-01 8.55024338e-01 6.40199304e-01 6.60756409e-01 9.03823256e-01 8.19426179e-01 8.99957895e-01 8.79125237e-01 8.78441274e-01 6.13069713e-01 7.00347364e-01 7.84221292e-01 6.53489590e-01 8.88673127e-01 8.06800604e-01 8.33786488e-01 7.72673786e-01 8.77192676e-01 9.02484477e-01 8.59187067e-01 7.31225133e-01 8.24774146e-01 8.85214627e-01 6.96384072e-01 4.09434326e-02 1.56091806e-02 2.53849830e-02 1.00989901e-02 2.27899142e-02 1.38694812e-02 4.50860113e-02 4.31486331e-02 6.66340515e-02 2.13561673e-02 1.96031947e-02 6.03069738e-02 2.23736569e-01 1.30519092e-01 1.25779390e-01 4.88462180e-01 2.47196540e-01 5.76955557e-01 3.92211854e-01 3.66511345e-01 6.44764543e-01 7.44346082e-01 7.37551928e-01 7.29419649e-01 6.45715654e-01 4.18470949e-01 3.58529896e-01 5.43454349e-01 2.88211495e-01 7.50520766e-01 5.65060258e-01 5.14364958e-01 5.41768968e-01 5.43707132e-01 6.26482666e-01 7.67634213e-01 7.88025737e-01 4.22757298e-01 6.62298083e-01 6.39202476e-01 3.44927430e-01 1.00989901e-02 1.00989901e-02 2.07794011e-02 1.01478193e-02 1.20667452e-02 1.12582622e-02 1.03515098e-02 1.72257759e-02 1.67425610e-02 1.14831012e-02 1.38623258e-02 3.51485722e-02 1.10265017e-01 8.91372040e-02 1.79455236e-01 2.76139945e-01 1.45361513e-01 2.40677536e-01 1.85137406e-01 3.72078359e-01 4.77715373e-01 4.33607370e-01 3.90592158e-01 3.37924927e-01 1.90416589e-01 2.75811344e-01 1.32222354e-01 5.22164226e-01 2.91686416e-01 2.61116505e-01 2.77843833e-01 2.85508454e-01 4.15485620e-01 5.43857098e-01 1.71318561e-01 3.69284779e-01 3.38720441e-01 1.35006204e-01 1.45467326e-01 1.00989901e-02 1.00991577e-02 1.01110339e-02 1.06912814e-02 1.01092430e-02 1.01487413e-02 1.05559053e-02 1.07049355e-02 1.66381877e-02 2.81613171e-02 6.52211532e-02 5.01518548e-02 9.12462324e-02 1.08777650e-01 8.13242719e-02 3.03341132e-02 1.89845219e-01 1.79021686e-01 1.80362880e-01 3.87557261e-02 1.10622168e-01 4.97750603e-02 2.72931010e-01 9.72427279e-02 1.18658550e-01 1.45547181e-01 2.41776839e-01 1.68233633e-01 5.59935123e-02 1.60069808e-01 1.64386317e-01 3.86490636e-02 5.24886064e-02 4.09690253e-02 1.00989901e-02 1.00989901e-02 1.00989928e-02 1.00989919e-02 1.00990580e-02 1.01004010e-02 1.01637980e-02 1.05270734e-02 1.76081788e-02 3.08993384e-02 2.20214315e-02 2.34747808e-02 1.17697846e-02 7.52718523e-02 7.09145293e-02 2.28117425e-02 3.50862555e-02 4.31270376e-02 6.87353685e-02 8.10675323e-02 7.25655332e-02 2.06046924e-02 5.51442951e-02 2.81148273e-02 1.61541551e-02 1.91930514e-02 1.15714353e-02 2.72785258e-02 1.00989901e-02 1.00989901e-02 1.00990105e-02 1.00989910e-02 1.00989901e-02 1.01002026e-02 1.03211123e-02 1.10667972e-02 1.22310985e-02 1.01726083e-02 1.01963086e-02 1.82337817e-02 1.46334190e-02 3.14403772e-02 3.06900349e-02 1.14880465e-02 1.39922388e-02 1.90293640e-02 1.10002933e-02 1.28601734e-02 1.03264134e-02 1.01370485e-02 1.00989966e-02 1.00989901e-02 1.00989901e-02 1.00989901e-02 1.00989901e-02 1.01100001e-02 1.02313263e-02 1.01461979e-02 1.00991232e-02 1.01177013e-02 1.06938500e-02 1.01404153e-02 1.03999367e-02 1.08683379e-02 1.01906098e-02 1.03371684e-02 1.00999679e-02 1.00999204e-02 1.00989901e-02 1.00989901e-02 1.00989901e-02 1.00989901e-02 1.00989901e-02 1.00994091e-02 1.01028010e-02 1.00990068e-02 1.00989901e-02 1.00990767e-02 1.01106800e-02 1.01433182e-02 1.01021510e-02 1.01048900e-02 1.00989910e-02 1.00989910e-02 1.00989901e-02 1.00989901e-02 1.00989901e-02 1.00989910e-02 1.00989901e-02 1.00990646e-02 1.00989901e-02 1.00989901e-02 1.00993225e-02 1.00991102e-02 1.00989901e-02 1.00991083e-02 1.00989901e-02 1.00989901e-02 1.00989901e-02 1.00989901e-02 1.00989901e-02 1.00989910e-02 1.00989901e-02 1.00989919e-02 1.00989901e-02 1.00989901e-02 1.00989910e-02 1.00989901e-02 1.56091806e-02 1.00989901e-02 1.00989901e-02 1.00989901e-02 1.00989901e-02 1.00989901e-02 1.00989901e-02 1.00989901e-02 1.00989901e-02 5.92466407e-02 3.05071380e-02 2.89821595e-01 1.33439720e-01 1.00989901e-02 1.00989901e-02 1.00989901e-02 1.00989901e-02 1.00989901e-02 1.48796197e-02 1.03976745e-02 1.00989901e-02 1.00989901e-02 1.00989901e-02 1.01080816e-02 1.00989901e-02 1.00989901e-02 1.00989901e-02 5.75642049e-01 8.15324306e-01 9.18899238e-01 1.36125699e-01 9.62538183e-01 1.00989901e-02 1.00989901e-02 1.00989901e-02 3.62373963e-02 1.45098744e-02 1.22913281e-02 1.01018194e-02 1.02486834e-02 1.00989901e-02 1.00989901e-02 1.00989901e-02 1.35721624e-01 4.43170369e-01 9.82129574e-01 9.88260746e-01 3.31188925e-02 1.07754050e-02 1.00989901e-02 1.01051657e-02 1.00989901e-02 1.00989901e-02 1.88371912e-01 5.59753895e-01 8.39112341e-01 9.89995599e-01 9.89948273e-01 1.00989901e-02 1.52754420e-02 1.07807489e-02 1.00989901e-02 1.01023037e-02 1.05713895e-02 1.01019656e-02 1.97653681e-01 5.29514253e-01 9.90001023e-01 8.09259057e-01 9.42153811e-01 1.00989901e-02 1.02091040e-02 9.90001023e-01 4.10257503e-02 1.75857320e-02 1.01225451e-02 1.06122745e-02 1.09473476e-02 2.60857046e-01 5.97532749e-01 5.94966054e-01 8.97609413e-01 9.82345045e-01 9.61308420e-01 1.00989901e-02 1.03513021e-02 1.91945266e-02 9.90001023e-01 9.89082575e-01 9.90001023e-01 1.13337822e-01 3.87045108e-02 2.89132912e-02 3.91121149e-01 8.23625863e-01 9.59062338e-01 9.88856971e-01 1.00989901e-02 1.30550629e-02 4.12642546e-02 7.31631741e-02 9.90001023e-01 9.90001023e-01 3.04838121e-01 2.25843742e-01 7.00021684e-01 9.35747743e-01 9.89029467e-01 1.00990767e-02 1.01404153e-02 1.42393366e-01 9.90001023e-01 9.89915550e-01 9.89982665e-01 4.14922327e-01 5.45083106e-01 5.72520852e-01 9.17358637e-01 9.89054441e-01 1.71318561e-01 1.14880465e-02 2.06046924e-02 4.22757298e-01 5.59935123e-02 7.31225133e-01 8.93322825e-01 9.90001023e-01 9.88123953e-01 7.63489902e-01 8.73717070e-01 9.45957541e-01 9.59831715e-01 9.82254624e-01 9.89959121e-01 9.88376796e-01 9.54429626e-01 9.89677548e-01 
