# vtk DataFile Version 2.0
sol_toll1e-05_vf0.3iter9.vtk, Created by Freefem++ 
ASCII
DATASET UNSTRUCTURED_GRID
POINTS 591 float
0 0.3661247 0
0 0.29253565 0
0 0.2505366 0
0 0.22525801 0
0 0.4968509 0
0.0061890078 0.41547525 0
0 0.62898705 0
0 0.18528882 0
0 0.19125524 0
0 0.19846349 0
0 0.20918012 0
0.0073784701 0.34207562 0
0.0066931927 0.28439911 0
0.010621174 0.33426103 0
0 0.17384287 0
0 0.17962555 0
0 0.16667394 0
0.0079679904 0.5249142 0
0.010532136 0.43746619 0
0 0.70889883 0
0.0065911182 0.61936249 0
0.0069276569 0.25277647 0
0.012500425 0.40443974 0
0.013421434 0.35665999 0
0.011089004 0.29882089 0
0 0.15209491 0
0.0075453462 0.23084789 0
0 0.15896352 0
0 0.14515349 0
0.011166386 0.59123655 0
0.012825187 0.51017085 0
0.014816979 0.48383145 0
0 0.75504607 0
0.0068450906 0.67905682 0
0.011530788 0.64676992 0
0.012814577 0.28353654 0
0.015658508 0.41137267 0
0.015158207 0.33722265 0
0 0.12320466 0
0.012812704 0.25394641 0
0.0075919654 0.20278097 0
0 0.13614933 0
0 0.10211635 0
0.01464032 0.57917053 0
0.016638268 0.5123533 0
0.017821987 0.44934344 0
0 0.78222123 0
0.0055343644 0.7280145 0
0.01010759 0.70503969 0
0.013398562 0.660802 0
0.015825531 0.6402404 0
0.016980156 0.31210635 0
0.018261431 0.37789015 0
0.016275968 0.26463448 0
0.010169981 0.19924335 0
0.010541661 0.16734894 0
0 0.065347109 0
0.017413716 0.59828626 0
0.01865523 0.5511455 0
0.019649545 0.4868503 0
0.020524171 0.40487654 0
0 0.79900429 0
0.005707567 0.75632703 0
0.011804712 0.73433274 0
0.014423578 0.69887011 0
0.017779378 0.67641631 0
0.020053256 0.31658905 0
0.01693801 0.23390865 0
0.013433231 0.13554984 0
0 0 0
0.020010622 0.62193652 0
0.021471475 0.53605284 0
0.023411862 0.53721934 0
0.022716727 0.41482497 0
0.0085852849 0.76558533 0
0 0.80968389 0
0.0049391426 0.79327856 0
0.011599566 0.7735662 0
0.016062652 0.73352752 0
0.019859236 0.71116633 0
0.029292165 0.38542671 0
0.024360099 0.34021821 0
0.02120019 0.23598405 0
0.020813346 0.12549012 0
0.012107488 0 0
0.023263112 0.65105097 0
0.026317104 0.51770929 0
0 0.81622127 0
0 0.82044815 0
0 0.82467295 0
0.0058006926 0.81671973 0
0.011386277 0.80271585 0
0.017052479 0.76993717 0
0.022337906 0.75107696 0
0.031442007 0.53741846 0
0.0370849 0.3821199 0
0.028775014 0.23107203 0
0.025680118 0 0
0.02839337 0.68494694 0
0 0.83027292 0
0 0.84653297 0
0 0.83569857 0
0 0.84008845 0
0 0.84346869 0
0 0.85077028 0
0.0056207749 0.8475647 0
0.013010324 0.82151389 0
0.017989536 0.82186897 0
0.023373943 0.84664142 0
0.13215018 0 0
0.038465601 0.58430958 0
0.04997889 0.3611622 0
0.041401543 0.18768578 0
0.075355401 0 0
0.044522381 0 0
0.034349687 0.80932996 0
0.025680118 1 0
0 0.85790716 0
0 0.87009078 0
0 0.89177836 0
0.008693833 0.87428889 0
0.012107488 1 0
0.012350961 0.90770565 0
0.68249431 0 0
0.2361252 0 0
0.41520301 0 0
1 0 0
0.72955141 0.063581724 0
0.10654038 0.17104011 0
0.17185856 0.14851236 0
0.048810855 0.67352458 0
0.064327335 0.46837235 0
0.072101596 0.23955273 0
0.044522381 1 0
0 0.93058107 0
0 1 0
0.45868643 0.080674659 0
0.28348186 0.12010751 0
0.2071933 0.2233762 0
1 0.065347109 0
0.54485932 0.11201117 0
0.74440542 0.10761361 0
0.12656451 0.29547535 0
0.1743723 0.31428704 0
0.070061329 0.7257978 0
0.092680924 0.45387375 0
0.075355401 1 0
0.095969639 0.81489085 0
0.29502665 0.19867262 0
0.39175033 0.14971861 0
0.25593782 0.26947652 0
1 0.10211635 0
0.81602755 0.12518507 0
0.54644261 0.14215011 0
0.66748294 0.14101777 0
0.20833972 0.34860993 0
0.14764401 0.43673048 0
0.11589254 0.61114748 0
0.13215018 1 0
0.13713475 0.86059393 0
0.14669593 0.7460933 0
0.16992215 0.6480876 0
0.35859977 0.20554201 0
0.44811837 0.17543039 0
0.26473906 0.32401539 0
0.32035379 0.25678432 0
1 0.12320466 0
0.81564391 0.14019926 0
0.68307834 0.15573719 0
0.55842133 0.165613 0
0.7413018 0.15924609 0
0.21631014 0.41334957 0
0.18716703 0.53194111 0
1 1 0
0.68249431 1 0
0.2361252 1 0
0.20137769 0.90761886 0
0.41520301 1 0
0.22825472 0.74830723 0
0.22033095 0.82534819 0
0.22728493 0.65476518 0
0.3999859 0.21614804 0
0.47606941 0.19209481 0
0.26442419 0.38478503 0
0.35921493 0.25726439 0
0.30738023 0.3094608 0
1 0.13614933 0
0.85255681 0.14703927 0
0.83376319 0.15569145 0
0.6358723 0.16910581 0
0.56062281 0.18164634 0
0.68008437 0.17172507 0
0.23633399 0.47356704 0
0.23769877 0.56771905 0
1 0.93058107 0
0.72894441 0.93218015 0
0.48904646 0.92168885 0
0.32327528 0.89726273 0
0.28868198 0.74627892 0
0.31952798 0.8181551 0
0.2749597 0.6705911 0
0.26472201 0.44663078 0
0.28481044 0.39018675 0
0.38480929 0.25823228 0
0.49263207 0.20169189 0
0.42877197 0.22501765 0
0.30806538 0.34283991 0
0.34308697 0.29719488 0
0.89064413 0.15527639 0
1 0.14515349 0
0.78022943 0.16522992 0
1 0.15209491 0
0.59790212 0.18635165 0
0.53182603 0.20096839 0
0.69936622 0.17513312 0
0.6429225 0.18317758 0
0.27655541 0.60933287 0
0.26479665 0.5298017 0
1 0.89177836 0
0.73417237 0.88837949 0
0.54725812 0.88308133 0
0.42730525 0.85868764 0
1 0.87009078 0
0.277574 0.48071106 0
0.32511627 0.7361031 0
0.35606691 0.7848062 0
0.39674036 0.82043863 0
0.31484717 0.67553534 0
0.2902868 0.42516143 0
0.31020882 0.37174253 0
0.37545718 0.28473362 0
0.41887468 0.24989693 0
0.46886505 0.2229455 0
0.50217483 0.22107577 0
0.34216648 0.32428315 0
0.85556627 0.1634163 0
0.93991942 0.15645096 0
0.83501888 0.16976259 0
0.76157894 0.17273003 0
1 0.15896352 0
0.56209378 0.20304768 0
0.62154768 0.19287159 0
0.68954977 0.18323284 0
0.29755253 0.59928634 0
0.29051411 0.5402204 0
0.46725586 0.82766721 0
0.74907213 0.865181 0
0.55978073 0.85352475 0
0.79412711 0.85359337 0
1 0.85790716 0
0.29247677 0.4822232 0
0.36164747 0.74589379 0
0.3451953 0.69779383 0
0.41604073 0.79236536 0
0.32619669 0.64505181 0
0.30168619 0.44285609 0
0.31147188 0.40116851 0
0.33170802 0.35664607 0
0.37708876 0.30071828 0
0.40832498 0.27144742 0
0.45194414 0.24414101 0
0.52621505 0.2221865 0
0.48053448 0.24083467 0
0.35755366 0.33007851 0
0.92019971 0.16498651 0
0.85514362 0.17348738 0
0.76863431 0.17848386 0
1 0.16667394 0
0.57480018 0.20851751 0
0.61990163 0.20110353 0
0.66221871 0.19337661 0
0.71739254 0.18742856 0
0.30633141 0.53200311 0
0.31423237 0.58599904 0
0.54970281 0.83103115 0
0.48797869 0.80980978 0
0.64645693 0.8441814 0
0.78829586 0.84494568 0
1 0.85077028 0
0.30487422 0.48483217 0
0.38766315 0.7469962 0
0.3618146 0.69855884 0
0.33241019 0.62491802 0
0.44327387 0.78103637 0
0.35260467 0.66599095 0
0.31531313 0.50032246 0
0.31272843 0.45677965 0
0.31766188 0.42408302 0
0.32827244 0.38653696 0
0.34524334 0.36043447 0
0.62602059 0.83135506 0
0.55091949 0.22243281 0
0.38633076 0.30979926 0
0.40970042 0.28562437 0
0.4369011 0.26479247 0
0.50792384 0.2396899 0
0.46607734 0.25803757 0
0.36820471 0.33956816 0
0.39460291 0.31779839 0
0.93211971 0.17179584 0
0.87515972 0.17737746 0
0.793418 0.18321442 0
1 0.17384287 0
0.59725032 0.21295926 0
0.73587399 0.19184039 0
0.64377482 0.20588063 0
0.68693246 0.19807695 0
0.32136125 0.55003074 0
0.33027174 0.58994418 0
0.50515511 0.79829609 0
0.56022213 0.81801738 0
0.71123284 0.83698249 0
0.83216474 0.84127616 0
1 0.84653297 0
0.38293725 0.70732794 0
0.40353037 0.74232206 0
0.35720905 0.65127319 0
0.34325878 0.61905117 0
0.32766251 0.51824862 0
0.47541399 0.78027986 0
0.43972356 0.7631156 0
0.38515944 0.69247906 0
0.3222836 0.47213415 0
0.32746177 0.4350666 0
0.33586607 0.39841557 0
0.36765705 0.35841429 0
0.35252197 0.37302204 0
0.62255352 0.82117035 0
0.67672559 0.82945636 0
0.57901374 0.22359919 0
0.54438918 0.23317075 0
0.41662818 0.29743841 0
0.44184232 0.27959064 0
0.51538162 0.24701915 0
0.47919752 0.26364856 0
0.38930376 0.33812722 0
0.41624422 0.31517074 0
0.92766071 0.17909893 0
0.84682422 0.18419207 0
0.78399285 0.19161422 0
1 0.17962555 0
0.62151741 0.21888987 0
0.71999674 0.2005935 0
0.67397577 0.2100226 0
0.33732951 0.56677874 0
0.34624227 0.59954674 0
0.51857125 0.78934649 0
0.56608052 0.80610611 0
0.74952626 0.83393823 0
0.84762159 0.83820691 0
1 0.84346869 0
0.41344374 0.73266153 0
0.37674426 0.66662563 0
0.36068809 0.63292016 0
0.34159698 0.53660735 0
0.33457108 0.49276373 0
0.45844675 0.7623347 0
0.48846826 0.77416112 0
0.5195468 0.77925968 0
0.43733814 0.74394357 0
0.40183479 0.69609898 0
0.41490175 0.7190321 0
0.37958082 0.3666934 0
0.33237436 0.45814234 0
0.34137328 0.43613596 0
0.34649127 0.406986 0
0.36264785 0.38596891 0
0.62956734 0.81331076 0
0.67932743 0.82337496 0
0.72907524 0.82812535 0
0.57730117 0.23244941 0
0.54697692 0.24177556 0
0.43897713 0.2981821 0
0.46872782 0.2807729 0
0.51139036 0.25951077 0
0.60369765 0.23152012 0
0.4038805 0.3420812 0
0.42891549 0.31984298 0
0.88466641 0.18774429 0
0.77923384 0.19810158 0
1 0.18528882 0
0.65013026 0.22313984 0
0.72369256 0.20971664 0
0.36046402 0.61147368 0
0.35568324 0.58274185 0
0.58554333 0.80129425 0
0.55534069 0.79117687 0
0.79191627 0.8320691 0
0.87585898 0.83613467 0
1 0.84008845 0
0.35310341 0.5526731 0
0.38927678 0.37270484 0
0.54996974 0.78092255 0
0.38638817 0.66380454 0
0.37619998 0.63561306 0
0.34938256 0.50953854 0
0.34282678 0.47523175 0
0.45530188 0.74534918 0
0.47460201 0.75947297 0
0.49920006 0.76719466 0
0.52990564 0.77038627 0
0.78818284 0.82753182 0
0.41100513 0.68950903 0
0.4359781 0.72702566 0
0.42430032 0.70948935 0
0.37018182 0.40044492 0
0.34962761 0.45226133 0
0.35679921 0.42167036 0
0.63343586 0.80566355 0
0.67857464 0.81515831 0
0.71648509 0.82102369 0
0.75933122 0.82264882 0
0.55633928 0.24770309 0
0.46056548 0.29797302 0
0.50721034 0.27167636 0
0.59523631 0.24181909 0
0.44341907 0.32011316 0
0.41200993 0.35374997 0
0.84666076 0.19812988 0
1 0.19125524 0
0.74575799 0.21472458 0
0.66287077 0.22892017 0
0.37386734 0.6116405 0
0.36190216 0.55428518 0
0.37081987 0.58805682 0
0.59611643 0.79439374 0
0.58169672 0.78466827 0
1 0.83569857 0
0.8810626 0.83173564 0
0.38130897 0.39954145 0
0.56385194 0.77428455 0
0.40224067 0.66411918 0
0.39044544 0.6363959 0
0.36201698 0.5154228 0
0.35534231 0.47676723 0
0.45538058 0.73091894 0
0.47594554 0.74388198 0
0.4929595 0.75489892 0
0.54919143 0.76404371 0
0.51921591 0.76015463 0
0.83600506 0.82480089 0
[...]
CELL_DATA 1180
Scalars  Label int 1
LOOKUP_TABLE FreeFempp_table
0
0
0
0
0
0
0
0
0
0
0
0
0
0
0
0
0
0
0
0
0
0
0
0
0
0
0
0
0
0
0
0
0
0
0
0
0
0
0
0
0
0
0
0
0
0
0
0
0
0
0
0
0
0
0
0
0
0
0
0
0
0
0
0
0
0
0
0
0
0
0
0
0
0
0
0
0
0
0
0
0
0
0
0
0
0
0
0
0
0
0
0
0
0
0
0
0
0
0
0
0
0
0
0
0
0
0
0
0
0
0
0
0
0
0
0
0
0
0
0
0
0
0
0
0
0
0
0
0
0
0
0
0
0
0
0
0
0
0
0
0
0
0
0
0
0
0
0
0
0
0
0
0
0
0
0
0
0
0
0
0
0
0
0
0
0
0
0
0
0
0
0
0
0
0
0
0
0
0
0
0
0
0
0
0
0
0
0
0
0
0
0
0
0
0
0
0
0
0
0
0
0
0
0
0
0
0
0
0
0
0
0
0
0
0
0
0
0
0
0
0
0
0
0
0
0
0
0
0
0
0
0
0
0
0
0
0
0
0
0
0
0
0
0
0
0
0
0
0
0
0
0
0
0
0
0
0
0
0
0
0
0
0
0
0
0
0
0
0
0
0
0
0
0
0
0
0
0
0
0
0
0
0
0
0
0
0
0
0
0
0
0
0
0
0
0
0
0
0
0
0
0
0
0
0
0
0
0
0
0
0
0
0
0
0
0
0
0
0
0
0
0
0
0
0
0
0
0
0
0
0
0
0
0
0
0
0
0
0
0
0
0
0
0
0
0
0
0
0
0
0
0
0
0
0
0
0
0
0
0
0
0
0
0
0
0
0
0
0
0
0
0
0
0
0
0
0
0
0
0
0
0
0
0
0
0
0
0
0
0
0
0
0
0
0
0
0
0
0
0
0
0
0
0
0
0
0
0
0
0
0
0
0
0
0
0
0
0
0
0
0
0
0
0
0
0
0
0
0
0
0
0
0
0
0
0
0
0
0
0
0
0
0
0
0
0
0
0
0
0
0
0
0
0
0
0
0
0
0
0
0
0
0
0
0
0
0
0
0
0
0
0
0
0
0
0
0
0
0
0
0
0
0
0
0
0
0
0
0
0
0
0
0
0
0
0
0
0
0
0
0
0
0
0
0
0
0
0
0
0
0
0
0
0
0
0
0
0
0
0
0
0
0
0
0
0
0
0
0
0
0
0
0
0
0
0
0
0
0
0
0
0
0
0
0
0
0
0
0
0
0
0
0
0
0
0
0
0
0
0
0
0
0
0
0
0
0
0
0
0
0
0
0
0
0
0
0
0
0
0
0
0
0
0
0
0
0
0
0
0
0
0
0
0
0
0
0
0
0
0
0
0
0
0
0
0
0
0
0
0
0
0
0
0
0
0
0
0
0
0
0
0
0
0
0
0
0
0
0
0
0
0
0
0
0
0
0
0
0
0
0
0
0
0
0
0
0
0
0
0
0
0
0
0
0
0
0
0
0
0
0
0
0
0
0
0
0
0
0
0
0
0
0
0
0
0
0
0
0
0
0
0
0
0
0
0
0
0
0
0
0
0
0
0
0
0
0
0
0
0
0
0
0
0
0
0
0
0
0
0
0
0
0
0
0
0
0
0
0
0
0
0
0
0
0
0
0
0
0
0
0
0
0
0
0
0
0
0
0
0
0
0
0
0
0
0
0
0
0
0
0
0
0
0
0
0
0
0
0
0
0
0
0
0
0
0
0
0
0
0
0
0
0
0
0
0
0
0
0
0
0
0
0
0
0
0
0
0
0
0
0
0
0
0
0
0
0
0
0
0
0
0
0
0
0
0
0
0
0
0
0
0
0
0
0
0
0
0
0
0
0
0
0
0
0
0
0
0
0
0
0
0
0
0
0
0
0
0
0
0
0
0
0
0
0
0
0
0
0
0
0
0
0
0
0
0
0
0
0
0
0
0
0
0
0
0
0
0
0
0
0
0
0
0
0
0
0
0
0
0
0
0
0
0
0
0
0
0
0
0
0
0
0
0
0
0
0
0
0
0
0
0
0
0
0
0
0
0
0
0
0
0
0
0
0
0
0
0
0
0
0
0
0
0
0
0
0
0
0
0
0
0
0
0
0
0
0
0
0
0
0
0
0
0
0
0
0
0
0
0
0
0
0
0
0
0
0
0
0
0
0
0
0
0
0
0
0
0
0
0
0
0
0
0
0
0
0
0
0
0
0
0
0
0
0
0
0
0
0
0
0
0
0
0
0
0
0
0
0
0
0
0
0
0
0
0
0
0
0
0
0
0
0
0
0
0
0
0
0
0
0
0
0
0
0
0
0
0
0
0
0
0
0
0
0
0
0
0
0
0
0
0
0
0
0
0
0
0
0
0
0
0
0
0
0
0
0
0
0
0
0
0
0
0
0
0
0
0
0
0
0
0
0
0
0
0
0
0
0
0
0
0
0
0
1
1
1
1
1
1
1
1
1
3
3
3
3
3
3
3
3
3
2
2
2
2
2
2
2
2
2
2
2
2
2
2
2
2
2
2
2
2
2
2
2
2
2
2
2
2
2
2
2
2
2
2
2
2
2
2
2
4
4
4
4
4
4
4
4
4
4
4
4
4
4
4
4
4
4
4
4
4
4
4
4
4
4
4
4
4
4
4
4
4
4
4
4
4
4
4

LOOKUP_TABLE FreeFempp_table 5
1.00000000 0.00000000 0.00000000 1.00000000
1.00000000 1.00000000 0.00000000 1.00000000
1.00000000 0.00000000 1.00000000 1.00000000
0.00000000 1.00000000 0.00000000 1.00000000
0.00000000 1.00000000 1.00000000 1.00000000

POINT_DATA 591
FIELD FieldData 1
Density 1 591 float
9.90001023e-01 9.90001023e-01 9.90001023e-01 9.90001023e-01 9.90001023e-01 9.90001023e-01 9.90001023e-01 9.69135582e-01 9.84944284e-01 9.88928378e-01 9.89773810e-01 9.90001023e-01 9.66913462e-01 9.41009462e-01 7.97959507e-01 9.24313724e-01 4.95012969e-01 9.90001023e-01 9.89988148e-01 9.90001023e-01 9.89193618e-01 7.91405082e-01 9.89431679e-01 9.54653263e-01 8.59047294e-01 6.62911236e-02 4.26042855e-01 2.12018266e-01 2.00315788e-02 9.88893270e-01 9.88943577e-01 9.44203615e-01 9.90001023e-01 9.84103918e-01 9.66490805e-01 5.01791894e-01 7.49115050e-01 5.66325426e-01 1.00989901e-02 1.23368062e-01 9.61861461e-02 1.03099421e-02 1.00989901e-02 9.57607090e-01 8.20155740e-01 3.97538275e-01 9.90001023e-01 9.66565609e-01 8.60504031e-01 9.07455385e-01 6.10444367e-01 1.25705898e-01 3.11839551e-01 4.11085188e-02 2.56606359e-02 1.05384244e-02 1.00989901e-02 6.27148807e-01 2.64603615e-01 1.10914737e-01 2.83952802e-02 9.90001023e-01 8.91152978e-01 6.51462197e-01 5.59592485e-01 2.12464437e-01 1.01201190e-02 1.59273706e-02 1.00989901e-02 1.00989901e-02 4.15435694e-02 1.73504632e-02 1.01987589e-02 1.03002740e-02 5.13828695e-01 9.82060730e-01 4.29648548e-01 1.34113729e-01 2.06546962e-01 1.49290171e-02 1.00989901e-02 1.00989901e-02 1.08022140e-02 1.00989901e-02 1.00989901e-02 1.00994948e-02 1.00989901e-02 9.61950719e-01 9.09772992e-01 7.95736432e-01 1.18126363e-01 2.33433023e-02 2.04277989e-02 1.01101529e-02 1.00989901e-02 1.00989901e-02 1.00989901e-02 1.00989901e-02 1.00989901e-02 5.66359520e-01 3.59767266e-02 2.98003256e-01 1.52388945e-01 7.08403960e-02 1.71557162e-02 1.12799872e-02 1.12695694e-02 1.05276825e-02 1.00989901e-02 1.00989901e-02 1.00989901e-02 1.00989901e-02 1.00989901e-02 1.00989901e-02 1.00989901e-02 1.00989901e-02 1.00989901e-02 1.00989901e-02 1.00989901e-02 1.00989901e-02 1.01113319e-02 1.00989901e-02 1.00989901e-02 1.00989901e-02 1.00989901e-02 1.00989901e-02 1.00989901e-02 1.00989901e-02 1.00989901e-02 1.00989901e-02 1.00989901e-02 1.00989901e-02 1.00989901e-02 1.00989901e-02 1.00989901e-02 1.00989901e-02 1.00989901e-02 1.00989901e-02 1.00989901e-02 1.00989901e-02 1.00989901e-02 1.00989901e-02 1.00989901e-02 1.00989901e-02 1.00989901e-02 1.00989901e-02 1.00989901e-02 1.00989901e-02 1.00989901e-02 1.00989901e-02 1.00989901e-02 1.00989901e-02 1.00989901e-02 1.00989901e-02 1.00989901e-02 1.00989901e-02 1.00989901e-02 1.00989901e-02 1.00989901e-02 1.00989901e-02 1.00989901e-02 1.00989901e-02 1.00989901e-02 1.00989901e-02 1.00989901e-02 1.00989901e-02 1.00989901e-02 1.01163732e-02 1.01334499e-02 1.01459241e-02 1.73987802e-02 1.00989901e-02 1.00989901e-02 1.00989901e-02 1.00989901e-02 1.00989901e-02 1.00989901e-02 1.00989901e-02 1.00989901e-02 1.00989901e-02 1.00989901e-02 1.00989901e-02 1.01129990e-02 1.00989901e-02 1.00989901e-02 1.00989901e-02 1.03099421e-02 1.28567815e-02 3.60727459e-02 1.01801604e-02 1.05544040e-02 3.27993631e-02 1.00990077e-02 1.00999502e-02 1.00989901e-02 1.00989901e-02 1.00989901e-02 1.00989901e-02 1.00989901e-02 1.00989901e-02 1.01019228e-02 1.00991335e-02 1.00989901e-02 1.00989901e-02 1.02206850e-02 1.00989901e-02 1.07698860e-02 1.00989901e-02 7.17496052e-02 2.00315788e-02 6.13383316e-02 6.62911236e-02 3.10804602e-02 1.33741191e-02 7.58225769e-02 6.19509220e-02 1.01485699e-02 1.01076737e-02 1.00989901e-02 1.00989901e-02 1.00989901e-02 1.00989901e-02 1.00989901e-02 1.01355119e-02 1.01001132e-02 1.00989901e-02 1.00989901e-02 1.03232106e-02 1.01237381e-02 1.51770404e-02 2.86229383e-02 1.88456383e-02 1.01045202e-02 4.32155170e-02 1.95512138e-02 1.67000696e-01 1.35043636e-01 2.66167194e-01 1.59773007e-01 2.12018266e-01 3.13968062e-02 9.82688665e-02 2.24965706e-01 1.07053220e-02 1.16674928e-02 1.00989901e-02 1.01026427e-02 1.00989901e-02 1.01422183e-02 1.00989901e-02 1.16059864e-02 1.01707550e-02 1.05849309e-02 1.00996252e-02 1.82956140e-02 2.46566497e-02 2.39975303e-02 4.27423157e-02 7.94504583e-02 4.16454300e-02 5.42647243e-02 1.27387583e-01 9.68375951e-02 8.42847526e-02 3.60278219e-01 5.02477050e-01 3.09256196e-01 4.95012969e-01 1.34573966e-01 2.47350857e-01 3.86263549e-01 5.16073287e-01 3.19074281e-02 2.29103975e-02 1.01103196e-02 1.01531018e-02 1.03371190e-02 1.23005221e-02 1.71557162e-02 3.23229246e-02 1.07624670e-02 1.71017367e-02 5.60672060e-02 1.04461694e-02 2.87055131e-02 6.95316046e-02 8.47832412e-02 4.01510261e-02 5.41348793e-02 1.23325974e-01 1.15643460e-02 2.94999748e-01 1.98467076e-01 1.91634312e-01 1.49834037e-01 2.62121022e-01 2.91374058e-01 2.02219322e-01 3.61990869e-01 6.59590304e-01 7.42071807e-01 5.99654615e-01 7.97959507e-01 3.27447027e-01 7.62756228e-01 6.03583813e-01 7.58110583e-01 1.01336360e-01 1.23321675e-01 1.16914930e-02 1.03854341e-02 2.42146812e-02 2.71936357e-02 3.59767266e-02 3.90268937e-02 1.43157877e-02 9.30751041e-02 1.57596499e-01 1.96538568e-01 1.93064362e-02 1.71242598e-02 1.17604308e-01 1.95717856e-01 2.00506598e-01 1.44876778e-01 3.83161277e-01 3.00948203e-01 1.42540699e-02 2.61948667e-02 5.56804121e-01 5.70074499e-01 4.14029211e-01 4.40380841e-01 5.58482826e-01 5.09293675e-01 4.96570647e-01 6.70614958e-01 8.58923972e-01 7.99490035e-01 8.71485353e-01 9.24313724e-01 6.87529981e-01 8.94740045e-01 8.89091671e-01 2.60064960e-01 2.95564383e-01 2.06937976e-02 2.22636368e-02 5.04076481e-02 5.36247417e-02 7.08403960e-02 7.07001388e-02 1.27983853e-01 2.57919908e-01 4.15935099e-01 3.76125365e-01 4.59810086e-02 5.27790301e-02 8.80683810e-02 7.42698461e-02 2.38961905e-01 1.45029575e-01 6.38585567e-01 3.64667863e-01 4.32962865e-01 2.97679096e-01 5.43507755e-01 3.81937996e-02 7.21952841e-02 1.42913416e-01 8.50981712e-01 7.76451707e-01 7.43147612e-01 7.39230335e-01 8.02731156e-01 8.83630753e-01 7.43968546e-01 8.75233889e-01 9.33492362e-01 9.35835242e-01 9.69135582e-01 9.22551990e-01 9.69527125e-01 5.20191133e-01 5.99559247e-01 8.89891237e-02 1.57257572e-01 1.26565859e-01 1.20746911e-01 1.52388945e-01 6.54843390e-01 8.12795579e-01 1.88659966e-01 3.37841809e-01 5.09295166e-01 6.64169908e-01 5.98884165e-01 1.34772778e-01 1.36342630e-01 2.70149440e-01 3.21541131e-01 2.33896732e-01 4.99926120e-01 2.96372980e-01 4.49965000e-01 7.66811848e-01 6.96973085e-01 6.52810872e-01 1.13608167e-01 1.14754736e-01 2.61456579e-01 3.34952533e-01 9.37918663e-01 8.83491278e-01 8.96933854e-01 9.70383108e-01 9.25532162e-01 8.88435662e-01 9.78157103e-01 9.84944284e-01 9.89986360e-01 9.82798755e-01 8.27906787e-01 8.36712003e-01 8.60885561e-01 2.69498885e-01 4.49420899e-01 2.98003256e-01 2.42485628e-01 8.46615016e-01 5.06078422e-01 6.30610943e-01 7.28124440e-01 8.42530072e-01 8.52134466e-01 3.84297550e-01 2.75649756e-01 3.87689650e-01 6.45299435e-01 5.92750132e-01 4.23888355e-01 7.68607318e-01 6.62628889e-01 8.57509017e-01 9.54202354e-01 9.17186439e-01 3.51295859e-01 3.94411474e-01 4.47521389e-01 6.20924532e-01 5.81540823e-01 9.76721048e-01 9.46250796e-01 9.88671422e-01 9.68400359e-01 9.88928378e-01 9.88720596e-01 9.90000963e-01 9.90000188e-01 9.00702775e-01 8.99647593e-01 9.20626581e-01 9.55232978e-01 6.40659213e-01 8.00929129e-01 5.66359520e-01 5.62193334e-01 8.25451672e-01 9.57115710e-01 9.21718955e-01 7.31408000e-01 6.46452785e-01 6.36235118e-01 8.76002252e-01 8.21071744e-01 7.40463674e-01 8.64388943e-01 8.84889245e-01 9.76372838e-01 9.78275239e-01 9.60364819e-01 6.65556431e-01 6.65000439e-01 7.65726447e-01 8.38816643e-01 9.89654899e-01 9.84478116e-01 9.89992857e-01 9.86721992e-01 9.89773810e-01 9.90001023e-01 9.90001023e-01 9.90001023e-01 9.55834389e-01 9.49506164e-01 9.85012472e-01 9.85900342e-01 8.82053614e-01 9.21044648e-01 7.95736432e-01 9.84355867e-01 9.20553625e-01 8.38925719e-01 9.46870983e-01 8.99199188e-01 9.37347233e-01 9.77623343e-01 9.89983857e-01 9.88566041e-01 9.90001023e-01 8.49238694e-01 8.63503456e-01 9.14131284e-01 9.18772042e-01 9.90001023e-01 9.89852309e-01 9.90001023e-01 9.89998400e-01 9.90001023e-01 9.90001023e-01 9.79781985e-01 9.87505794e-01 9.90001023e-01 9.90001023e-01 9.59339440e-01 9.79404926e-01 9.09772992e-01 9.43517089e-01 9.72592890e-01 9.48535264e-01 9.81124938e-01 9.87509370e-01 9.90001023e-01 9.90001023e-01 9.35087919e-01 9.55186129e-01 9.90001023e-01 9.90001023e-01 9.89995778e-01 9.90001023e-01 9.90001023e-01 9.90001023e-01 9.90001023e-01 9.90001023e-01 9.90001023e-01 9.89142001e-01 9.89075661e-01 9.84358907e-01 9.61950719e-01 9.81285751e-01 9.89644825e-01 9.90001023e-01 9.81963933e-01 9.90001023e-01 9.90001023e-01 9.90001023e-01 9.90001023e-01 9.90001023e-01 9.90001023e-01 9.90001023e-01 9.90001023e-01 9.89480257e-01 9.90001023e-01 9.90001023e-01 9.89701271e-01 9.82060730e-01 9.89996076e-01 9.90001023e-01 9.90001023e-01 9.90001023e-01 9.90001023e-01 9.90001023e-01 9.90001023e-01 9.90001023e-01 9.90001023e-01 9.90001023e-01 9.90001023e-01 9.90001023e-01 9.90001023e-01 9.90001023e-01 9.90001023e-01 9.90001023e-01 9.90001023e-01 9.90001023e-01 9.90001023e-01 9.90001023e-01 9.90001023e-01 9.90001023e-01 9.90001023e-01 9.90001023e-01 9.90001023e-01 
