# vtk DataFile Version 2.0
sol_toll1e-05_vf0.3iter7.vtk, Created by Freefem++ 
ASCII
DATASET UNSTRUCTURED_GRID
POINTS 667 float
0 0.32617074 0
0 0.43467293 0
0.0044289399 0.31815196 0
0 0.26457374 0
0 0.20841798 0
0 0.22983468 0
0.0085563148 0.35104185 0
0.0060387372 0.39376116 0
0.0060483797 0.490947 0
0 0.57870587 0
0 0.17048174 0
0 0.1871984 0
0 0.1761801 0
0 0.19509083 0
0 0.18166893 0
0.011833836 0.39167143 0
0.0056873796 0.28109807 0
0.010306856 0.32545602 0
0.0051683068 0.23709908 0
0.010489158 0.44386502 0
0.013818768 0.43933825 0
0.0093893282 0.53006817 0
0 0.6796659 0
0.0055666212 0.60753109 0
0 0.16416496 0
0.0048809981 0.20291805 0
0 0.15816606 0
0.0091794077 0.24032044 0
0.013373654 0.35943966 0
0.010682247 0.28970328 0
0.012745835 0.51243289 0
0.015660517 0.41844404 0
0.014862922 0.50427282 0
0.010887524 0.58656946 0
0 0.73619892 0
0.0030534514 0.69413396 0
0.0078412764 0.66269824 0
0 0.15244835 0
0 0.14613012 0
0.0062475469 0.18995461 0
0.013543223 0.28421852 0
0.017075461 0.3726009 0
0.012302175 0.24254073 0
0.014900809 0.3351629 0
0.014408157 0.57991197 0
0.017875088 0.45300136 0
0.016527208 0.50889806 0
0.011808212 0.63565463 0
0 0.76931586 0
0.0050519243 0.72265143 0
0.015438911 0.63148034 0
0.012800189 0.66791962 0
0.0094432182 0.70489904 0
0 0.12486462 0
0 0.13786699 0
0.0059296426 0.16324436 0
0.011393615 0.20549824 0
0.018847107 0.381037 0
0.015814251 0.25350105 0
0.016698752 0.30338244 0
0.017273934 0.60070145 0
0.019786874 0.48037533 0
0.018847878 0.54305154 0
0.020725117 0.41357819 0
0 0.78955333 0
0.0056662482 0.75427399 0
0.014256893 0.69264599 0
0.016313671 0.68318545 0
0.011888977 0.73149154 0
0.018278669 0.67464935 0
0 0.10258424 0
0.0059561853 0.13621865 0
0 0.064724062 0
0.011290238 0.17569787 0
0.017104283 0.23701006 0
0.019849382 0.31255628 0
0.020042631 0.62940221 0
0.021308987 0.54200395 0
0.023393138 0.53457135 0
0.022639282 0.40715965 0
0.0086080709 0.76412041 0
0 0.80149775 0
0.0048305609 0.79240372 0
0.0158558 0.73465604 0
0.011147055 0.77678979 0
0.019791119 0.71911052 0
0 0 0
0.010251896 0.067042052 0
0.010026938 0.1222482 0
0.015750426 0.1765866 0
0.020837241 0.23207808 0
0.024081265 0.32910126 0
0.023085134 0.65803218 0
0.026331139 0.50797506 0
0 0.80911361 0
0 0.81457416 0
0 0.81881863 0
0.0054836626 0.81939309 0
0.016880908 0.77649564 0
0.011515541 0.80406898 0
0.022175874 0.76665804 0
0.014012061 0 0
0.018631601 0.12856449 0
0.029135234 0.35143399 0
0.025734108 0.21527397 0
0.02822021 0.69980191 0
0.031679796 0.52133894 0
0 0.82273294 0
0 0.83084311 0
0 0.84469365 0
0 0.84823101 0
0 0.83471649 0
0 0.82679484 0
0 0.83834983 0
0 0.84162853 0
0 0.8525723 0
0.018161699 0.82760295 0
0.0060787522 0.84641222 0
0.013478519 0.82432973 0
0.024405883 0.85929908 0
0.028102691 0 0
0.031442146 0.13958298 0
0.036326438 0.34290854 0
0.035265052 0.81888747 0
0.038843214 0.58443101 0
0.028102691 1 0
0 0.85947312 0
0 0.87160584 0
0.016721468 0.89264877 0
0 0.89335835 0
0.0086609165 0.87814487 0
0.014012061 1 0
0.075599981 0 0
0.046420946 0 0
0.048359142 0.32187831 0
0.046420946 1 0
0.0490564 0.66829773 0
0.0087204811 0.94377992 0
0 0.9316692 0
0 1 0
0.12305184 0 0
0.10373093 0.18761833 0
0.072629165 0.24906892 0
0.063516699 0.48163598 0
0.51542322 0 0
0.33463147 0 0
0.2043347 0 0
0.075599981 1 0
0.068962632 0.72532467 0
0.73658829 0 0
0.16247655 0.17372181 0
0.1205477 0.32943503 0
0.091227222 0.46947051 0
0.64740951 0.074965327 0
0.53942467 0.062101852 0
0.38752912 0.094222184 0
0.25989442 0.11452571 0
0.22455611 0.2162942 0
0.12305184 1 0
0.094240891 0.79930156 0
0.11228964 0.60277999 0
1 0 0
0.81954951 0.053816914 0
0.18455916 0.31380629 0
0.15128301 0.44226106 0
0.7050959 0.098733812 0
0.50575097 0.11680366 0
0.39713347 0.14917466 0
0.25159949 0.29048958 0
0.30528885 0.19492472 0
0.2043347 1 0
0.14111746 0.86284896 0
0.14135551 0.74187243 0
0.16280071 0.64816834 0
0.17995253 0.5358554 0
1 1 0
1 0.064724062 0
0.76374969 0.11259071 0
0.2198731 0.40252787 0
0.24040999 0.47510625 0
0.26895651 0.33201865 0
0.57557749 0.13480984 0
0.36364041 0.20532231 0
0.44684821 0.1701855 0
0.50904964 0.16457423 0
0.31338473 0.26217104 0
0.33463147 1 0
0.21877866 0.89745589 0
0.51542322 1 0
0.73658829 1 0
0.21531687 0.813282 0
0.22136343 0.74049027 0
0.21973158 0.64551553 0
0.26168048 0.53699553 0
0.23560897 0.57075636 0
1 0.9316692 0
0.72557981 0.93372872 0
0.80935036 0.90211679 0
0.28426392 0.56772786 0
1 0.10258424 0
0.27506741 0.4889052 0
0.26900134 0.43215537 0
0.68353945 0.13875544 0
0.8332662 0.12408634 0
0.27019554 0.37996218 0
0.29017392 0.3862066 0
0.30718301 0.31337753 0
0.67475173 0.15399668 0
0.57350218 0.16099058 0
0.39255599 0.22069724 0
0.47573092 0.1916629 0
0.35314952 0.26530691 0
0.33068856 0.8979448 0
0.48989833 0.91830219 0
0.31481347 0.82460239 0
0.28048285 0.74599055 0
0.26865599 0.66974522 0
0.27394361 0.612603 0
0.54224706 0.88677264 0
1 0.89335835 0
1 0.87160584 0
0.69658028 0.8846786 0
0.30397666 0.63344386 0
0.30092306 0.59339265 0
0.29188915 0.52878968 0
1 0.12486462 0
0.29387502 0.48130124 0
0.29128801 0.42806639 0
0.66336432 0.16561691 0
0.75819883 0.15035991 0
0.83047155 0.13803528 0
0.76164681 0.15683818 0
0.31198078 0.3409005 0
0.31405267 0.370115 0
0.34484618 0.29987343 0
0.56939476 0.17705534 0
0.59936432 0.17960889 0
0.49221222 0.2019822 0
0.3807189 0.26488621 0
0.42093609 0.23136679 0
0.42442022 0.85471496 0
0.31988734 0.73576251 0
0.36073449 0.79631407 0
0.31210746 0.68277044 0
0.33942145 0.68725063 0
0.54827646 0.85789245 0
1 0.85947312 0
0.82094496 0.85503704 0
0.79424136 0.86719401 0
0.6611513 0.86008121 0
0.30491883 0.53473278 0
0.3200413 0.6256323 0
0.30732396 0.57828823 0
1 0.13786699 0
0.31406014 0.5380271 0
0.30544026 0.48933809 0
0.30102421 0.44416966 0
0.31138672 0.40470904 0
0.65148384 0.17474928 0
0.72477811 0.16577148 0
0.85272087 0.1464375 0
0.91402541 0.14492601 0
0.8252648 0.15603444 0
0.32998131 0.36520169 0
0.34437894 0.32682183 0
0.37826382 0.28432461 0
0.59240857 0.19021044 0
0.53990323 0.19810432 0
0.46768669 0.22430873 0
0.41937774 0.25169998 0
0.36700072 0.70602291 0
0.34262374 0.66305418 0
0.45550118 0.82582624 0
0.40575964 0.78818063 0
0.36371479 0.74733066 0
0.38452539 0.7414498 0
1 0.84469365 0
1 0.8525723 0
1 0.84823101 0
0.57240539 0.83722985 0
0.80858496 0.84670917 0
0.70166346 0.84851299 0
0.3325546 0.62237341 0
0.31967162 0.58508566 0
1 0.14613012 0
0.32202467 0.5449696 0
0.31526373 0.49579102 0
0.32852554 0.3900933 0
0.31060524 0.45802543 0
0.31733833 0.42337243 0
0.34498352 0.36104327 0
0.64225249 0.18231317 0
0.70176935 0.17395731 0
0.6176854 0.19235044 0
0.7828764 0.16549738 0
0.91435427 0.15127561 0
0.86536808 0.15768317 0
0.35834033 0.32979766 0
0.36564914 0.33881046 0
0.37898902 0.29965059 0
0.40630549 0.27369703 0
0.43671694 0.25322305 0
0.55920297 0.20534668 0
0.51281779 0.21572426 0
0.47206808 0.23393067 0
0.39736979 0.73506385 0
0.37912363 0.70268088 0
0.35326148 0.66066641 0
0.48052853 0.80860623 0
0.42989033 0.77669704 0
0.42368082 0.75801443 0
0.55349078 0.81599806 0
1 0.84162853 0
0.87955454 0.83794621 0
0.83902287 0.83868985 0
0.83050432 0.8422 0
0.73714578 0.83787065 0
0.63701269 0.83399396 0
0.61262125 0.82064507 0
0.70532882 0.84032467 0
0.35654673 0.64867722 0
0.33166006 0.55566963 0
0.34068869 0.61524069 0
0.33051329 0.58794917 0
1 0.15244835 0
0.33333509 0.52058198 0
0.32493462 0.50635105 0
0.32188154 0.47018913 0
0.33658164 0.39848507 0
0.32576237 0.43538323 0
0.3553119 0.37122139 0
0.67603417 0.18250337 0
0.75954754 0.17339839 0
0.60008973 0.20212543 0
0.64767438 0.19265652 0
0.85454904 0.16374618 0
0.92929922 0.15705692 0
0.3717538 0.35824802 0
0.37735359 0.33790422 0
0.55680337 0.21357724 0
0.38655464 0.31167094 0
0.40823536 0.2866892 0
0.43765212 0.26378885 0
0.47629154 0.24239106 0
0.51692114 0.2249811 0
0.41262544 0.73223979 0
0.38694288 0.69523939 0
0.49609312 0.79519927 0
0.44208873 0.75597617 0
0.4601733 0.77425335 0
0.48962195 0.7836852 0
0.56725864 0.80530474 0
1 0.83834983 0
0.63851755 0.81970961 0
0.88055379 0.83459383 0
0.79709954 0.83280391 0
0.74981485 0.83406872 0
0.68436638 0.83066021 0
0.59010578 0.80189249 0
0.34079229 0.56625991 0
0.37618688 0.66594117 0
0.36024531 0.63268514 0
0.3442002 0.59716072 0
1 0.15816606 0
0.34296482 0.5393317 0
0.33282788 0.45309063 0
0.33361829 0.48727017 0
0.34367204 0.50686806 0
0.3441042 0.41291004 0
0.36258799 0.38511341 0
0.59005641 0.21095408 0
0.83955416 0.16956804 0
0.70093914 0.1841228 0
0.77074669 0.17788855 0
0.62840082 0.20320675 0
0.66932289 0.19497851 0
0.92085556 0.16402062 0
0.38134414 0.3640865 0
0.39197069 0.33833062 0
0.39789365 0.31870531 0
0.55101047 0.22327471 0
0.41388095 0.29846546 0
0.43724565 0.27732815 0
0.46610418 0.25744935 0
0.50547327 0.24054774 0
0.43823637 0.74136184 0
0.41601807 0.71896296 0
0.39988115 0.69412842 0
0.52337739 0.79044774 0
0.46737115 0.76075071 0
0.49126608 0.77492052 0
0.55098417 0.79126009 0
0.57360684 0.79047438 0
0.63067189 0.80649278 0
0.63393894 0.81306661 0
1 0.83471649 0
0.88120103 0.83106194 0
0.68615979 0.82304077 0
0.7910107 0.82825811 0
0.73153048 0.82844114 0
0.6080806 0.79681549 0
0.35361619 0.58497611 0
0.38914426 0.66642283 0
0.37802431 0.63813941 0
0.35961053 0.61242269 0
1 0.16416496 0
0.34399692 0.44099037 0
0.35288149 0.55103587 0
0.34276672 0.47533158 0
0.35257114 0.50869431 0
0.3724759 0.39316882 0
0.35809487 0.41210309 0
0.59906673 0.21574608 0
0.85715184 0.17319995 0
0.7148651 0.18771001 0
0.78137262 0.18141223 0
0.64408291 0.20739091 0
0.68741584 0.19777259 0
0.93316865 0.17035343 0
0.8802513 0.17632513 0
0.38762013 0.37479687 0
0.40276183 0.34159885 0
0.41841556 0.3122604 0
0.53960181 0.23507979 0
0.57246486 0.22562443 0
0.44354672 0.28657907 0
0.47592288 0.26427189 0
0.51131747 0.24859514 0
0.45815286 0.74497654 0
0.41184346 0.68824388 0
0.43848018 0.72588735 0
0.42227073 0.70698426 0
0.52159885 0.77889574 0
0.48333829 0.75702384 0
0.50043703 0.76740555 0
0.54810305 0.7794758 0
0.58468378 0.78491696 0
1 0.83084311 0
0.65262613 0.80460749 0
0.67964542 0.81500213 0
[...]
CELL_DATA 1332
Scalars  Label int 1
LOOKUP_TABLE FreeFempp_table
0
0
0
0
0
0
0
0
0
0
0
0
0
0
0
0
0
0
0
0
0
0
0
0
0
0
0
0
0
0
0
0
0
0
0
0
0
0
0
0
0
0
0
0
0
0
0
0
0
0
0
0
0
0
0
0
0
0
0
0
0
0
0
0
0
0
0
0
0
0
0
0
0
0
0
0
0
0
0
0
0
0
0
0
0
0
0
0
0
0
0
0
0
0
0
0
0
0
0
0
0
0
0
0
0
0
0
0
0
0
0
0
0
0
0
0
0
0
0
0
0
0
0
0
0
0
0
0
0
0
0
0
0
0
0
0
0
0
0
0
0
0
0
0
0
0
0
0
0
0
0
0
0
0
0
0
0
0
0
0
0
0
0
0
0
0
0
0
0
0
0
0
0
0
0
0
0
0
0
0
0
0
0
0
0
0
0
0
0
0
0
0
0
0
0
0
0
0
0
0
0
0
0
0
0
0
0
0
0
0
0
0
0
0
0
0
0
0
0
0
0
0
0
0
0
0
0
0
0
0
0
0
0
0
0
0
0
0
0
0
0
0
0
0
0
0
0
0
0
0
0
0
0
0
0
0
0
0
0
0
0
0
0
0
0
0
0
0
0
0
0
0
0
0
0
0
0
0
0
0
0
0
0
0
0
0
0
0
0
0
0
0
0
0
0
0
0
0
0
0
0
0
0
0
0
0
0
0
0
0
0
0
0
0
0
0
0
0
0
0
0
0
0
0
0
0
0
0
0
0
0
0
0
0
0
0
0
0
0
0
0
0
0
0
0
0
0
0
0
0
0
0
0
0
0
0
0
0
0
0
0
0
0
0
0
0
0
0
0
0
0
0
0
0
0
0
0
0
0
0
0
0
0
0
0
0
0
0
0
0
0
0
0
0
0
0
0
0
0
0
0
0
0
0
0
0
0
0
0
0
0
0
0
0
0
0
0
0
0
0
0
0
0
0
0
0
0
0
0
0
0
0
0
0
0
0
0
0
0
0
0
0
0
0
0
0
0
0
0
0
0
0
0
0
0
0
0
0
0
0
0
0
0
0
0
0
0
0
0
0
0
0
0
0
0
0
0
0
0
0
0
0
0
0
0
0
0
0
0
0
0
0
0
0
0
0
0
0
0
0
0
0
0
0
0
0
0
0
0
0
0
0
0
0
0
0
0
0
0
0
0
0
0
0
0
0
0
0
0
0
0
0
0
0
0
0
0
0
0
0
0
0
0
0
0
0
0
0
0
0
0
0
0
0
0
0
0
0
0
0
0
0
0
0
0
0
0
0
0
0
0
0
0
0
0
0
0
0
0
0
0
0
0
0
0
0
0
0
0
0
0
0
0
0
0
0
0
0
0
0
0
0
0
0
0
0
0
0
0
0
0
0
0
0
0
0
0
0
0
0
0
0
0
0
0
0
0
0
0
0
0
0
0
0
0
0
0
0
0
0
0
0
0
0
0
0
0
0
0
0
0
0
0
0
0
0
0
0
0
0
0
0
0
0
0
0
0
0
0
0
0
0
0
0
0
0
0
0
0
0
0
0
0
0
0
0
0
0
0
0
0
0
0
0
0
0
0
0
0
0
0
0
0
0
0
0
0
0
0
0
0
0
0
0
0
0
0
0
0
0
0
0
0
0
0
0
0
0
0
0
0
0
0
0
0
0
0
0
0
0
0
0
0
0
0
0
0
0
0
0
0
0
0
0
0
0
0
0
0
0
0
0
0
0
0
0
0
0
0
0
0
0
0
0
0
0
0
0
0
0
0
0
0
0
0
0
0
0
0
0
0
0
0
0
0
0
0
0
0
0
0
0
0
0
0
0
0
0
0
0
0
0
0
0
0
0
0
0
0
0
0
0
0
0
0
0
0
0
0
0
0
0
0
0
0
0
0
0
0
0
0
0
0
0
0
0
0
0
0
0
0
0
0
0
0
0
0
0
0
0
0
0
0
0
0
0
0
0
0
0
0
0
0
0
0
0
0
0
0
0
0
0
0
0
0
0
0
0
0
0
0
0
0
0
0
0
0
0
0
0
0
0
0
0
0
0
0
0
0
0
0
0
0
0
0
0
0
0
0
0
0
0
0
0
0
0
0
0
0
0
0
0
0
0
0
0
0
0
0
0
0
0
0
0
0
0
0
0
0
0
0
0
0
0
0
0
0
0
0
0
0
0
0
0
0
0
0
0
0
0
0
0
0
0
0
0
0
0
0
0
0
0
0
0
0
0
0
0
0
0
0
0
0
0
0
0
0
0
0
0
0
0
0
0
0
0
0
0
0
0
0
0
0
0
0
0
0
0
0
0
0
0
0
0
0
0
0
0
0
0
0
0
0
0
0
0
0
0
0
0
0
0
0
0
0
0
0
0
0
0
0
0
0
0
0
0
0
0
0
0
0
0
0
0
0
0
0
0
0
0
0
0
0
0
0
0
0
0
0
0
0
0
0
0
0
0
0
0
0
0
0
0
0
0
0
0
0
0
0
0
0
0
0
0
0
0
0
0
0
0
0
0
0
0
0
0
0
0
0
0
0
0
0
0
0
0
0
0
0
0
0
0
0
0
0
0
0
0
0
0
0
0
0
0
0
0
0
0
0
0
0
0
0
0
0
0
0
0
0
0
0
0
0
0
0
0
0
0
0
0
0
0
0
0
0
0
0
0
0
0
0
0
0
0
0
0
0
0
0
0
0
0
0
0
0
0
0
0
0
0
0
0
0
0
0
0
0
0
0
0
0
0
0
0
0
0
0
0
0
0
0
0
0
0
0
0
0
0
0
0
1
1
1
1
1
1
1
1
1
1
3
3
3
3
3
3
3
3
3
3
2
2
2
2
2
2
2
2
2
2
2
2
2
2
2
2
2
2
2
2
2
2
2
2
2
2
2
2
2
2
2
2
2
2
2
2
2
2
2
2
2
4
4
4
4
4
4
4
4
4
4
4
4
4
4
4
4
4
4
4
4
4
4
4
4
4
4
4
4
4
4
4
4
4
4
4
4
4
4
4
4
4

LOOKUP_TABLE FreeFempp_table 5
1.00000000 0.00000000 0.00000000 1.00000000
1.00000000 1.00000000 0.00000000 1.00000000
1.00000000 0.00000000 1.00000000 1.00000000
0.00000000 1.00000000 0.00000000 1.00000000
0.00000000 1.00000000 1.00000000 1.00000000

POINT_DATA 667
FIELD FieldData 1
Density 1 667 float
9.90001023e-01 9.90001023e-01 9.90001023e-01 9.90001023e-01 9.90001023e-01 9.90001023e-01 9.90001023e-01 9.90001023e-01 9.90001023e-01 9.90001023e-01 6.54931843e-01 9.83193398e-01 8.97408366e-01 9.88649666e-01 9.43038166e-01 9.90001023e-01 9.90001023e-01 9.32602525e-01 7.99886405e-01 9.90001023e-01 9.90001023e-01 9.90001023e-01 9.90001023e-01 9.90001023e-01 3.86364758e-01 4.36814874e-01 1.48526683e-01 3.13393772e-01 9.85373914e-01 8.62288356e-01 9.90001023e-01 7.71183550e-01 9.74733949e-01 9.90001023e-01 9.90001023e-01 9.90001023e-01 9.87315655e-01 5.22180200e-02 1.13250818e-02 8.53679627e-02 4.34870005e-01 4.65082556e-01 6.65505156e-02 5.96245706e-01 9.90001023e-01 3.87453765e-01 8.82539630e-01 9.82252538e-01 9.90001023e-01 9.82824206e-01 6.90953791e-01 9.76056874e-01 8.86814713e-01 1.00989901e-02 1.00989901e-02 4.73949723e-02 1.00989901e-02 2.37222716e-01 3.46704535e-02 1.02162793e-01 6.72982812e-01 9.11707208e-02 2.02938333e-01 1.00989901e-02 9.90001023e-01 9.44031417e-01 6.11574292e-01 3.61675292e-01 6.84872985e-01 1.52334765e-01 1.00989901e-02 1.00989901e-02 1.00989901e-02 1.00989901e-02 1.73922349e-02 1.00989901e-02 2.77166609e-02 1.80684477e-02 1.00989901e-02 1.00989901e-02 5.33857584e-01 9.90001023e-01 4.37315077e-01 2.18477204e-01 1.29403070e-01 1.10341143e-02 1.00989901e-02 1.00989901e-02 1.00989901e-02 1.00989901e-02 1.00989901e-02 1.00989901e-02 1.00989901e-02 1.00989901e-02 9.90001023e-01 9.73308682e-01 9.48895574e-01 1.11792497e-01 1.00989901e-02 1.46612730e-02 1.00989901e-02 1.00989901e-02 1.00989901e-02 1.00989901e-02 1.00989901e-02 1.00989901e-02 1.00989901e-02 8.54918122e-01 5.36925018e-01 4.70835865e-02 2.57212222e-02 3.20611328e-01 7.57397056e-01 1.99259624e-01 1.02837205e-01 1.00989901e-02 1.00989901e-02 1.00989901e-02 1.00989901e-02 1.00989901e-02 1.00989901e-02 1.00989901e-02 1.00989901e-02 1.00989901e-02 1.00989901e-02 1.00989901e-02 1.00989901e-02 1.00989901e-02 1.00989901e-02 1.00989901e-02 1.00989901e-02 1.00989901e-02 1.00989901e-02 1.00989901e-02 1.00989901e-02 1.00989901e-02 1.00989901e-02 1.00989901e-02 1.00989901e-02 1.00989901e-02 1.00989901e-02 1.00989901e-02 1.00989901e-02 1.00989901e-02 1.00989901e-02 1.00989901e-02 1.00989901e-02 1.00989901e-02 1.00989901e-02 1.00989901e-02 1.00989901e-02 1.00989901e-02 1.00989901e-02 1.00989901e-02 1.00989901e-02 1.00989901e-02 1.00989901e-02 1.00989901e-02 1.00989901e-02 1.00989901e-02 1.00989901e-02 1.00989901e-02 1.00989901e-02 1.00989901e-02 1.00989901e-02 1.00989901e-02 1.00989901e-02 1.00989901e-02 1.00989901e-02 1.00989901e-02 1.00989901e-02 1.00989901e-02 1.00989901e-02 1.00989901e-02 1.00989901e-02 1.00989901e-02 1.00989901e-02 1.00989901e-02 1.00989901e-02 1.00989901e-02 1.00989901e-02 1.00989901e-02 1.00989901e-02 1.00989901e-02 1.00989901e-02 1.00989901e-02 1.00989901e-02 1.00989901e-02 1.00989901e-02 1.00989901e-02 1.00989901e-02 1.00989901e-02 1.00989901e-02 1.00989901e-02 1.00989901e-02 1.00989901e-02 1.00989901e-02 1.00989901e-02 1.02906795e-02 1.00989901e-02 1.00989901e-02 1.00989901e-02 1.00989901e-02 1.00989901e-02 1.00989901e-02 1.00989901e-02 1.00989901e-02 1.00989901e-02 1.00989901e-02 1.00989901e-02 1.00989901e-02 1.00989901e-02 1.00989901e-02 1.00989901e-02 1.00989901e-02 1.00989901e-02 1.00989901e-02 1.00989901e-02 1.00989901e-02 1.00989901e-02 1.00989901e-02 1.00989901e-02 1.03351837e-02 1.09780775e-02 1.08343540e-02 1.00989901e-02 1.17471023e-02 1.00989901e-02 1.00989901e-02 1.00989901e-02 1.00989901e-02 1.43827926e-02 1.08763957e-02 1.62835587e-02 1.00989901e-02 1.00989901e-02 1.72797162e-02 1.00989901e-02 1.00989901e-02 1.00989901e-02 1.00989901e-02 1.00989901e-02 1.00989901e-02 1.00989901e-02 1.01488391e-02 1.00989901e-02 1.00989901e-02 1.00989901e-02 1.00989901e-02 1.00989901e-02 2.97815111e-02 2.20679473e-02 1.68082006e-02 1.00989901e-02 4.34884503e-02 3.35137621e-02 2.43214313e-02 2.49317959e-02 3.13928835e-02 3.02405935e-02 1.05920592e-02 1.85058545e-02 3.33112478e-02 5.33437319e-02 2.18011830e-02 3.13667953e-02 3.73930670e-02 1.25810299e-02 1.00989901e-02 2.05571465e-02 1.71933267e-02 1.42171681e-02 1.00989901e-02 1.00989901e-02 1.00989901e-02 1.11007318e-02 4.70835865e-02 1.00989901e-02 2.57212222e-02 1.00989901e-02 1.02026947e-02 1.02141555e-02 6.20202497e-02 2.70402916e-02 1.13250818e-02 1.12165026e-01 6.77474514e-02 5.54683059e-02 6.57740086e-02 3.40581983e-02 1.21960506e-01 5.07650375e-02 5.91186695e-02 7.36616179e-02 5.54842688e-02 4.02064547e-02 7.31846020e-02 8.68226290e-02 1.58890501e-01 8.39293376e-02 4.24108654e-02 7.19994009e-02 3.20375860e-02 3.79135236e-02 3.48234288e-02 1.63160674e-02 3.87776159e-02 2.98544783e-02 1.00989901e-02 1.00989901e-02 1.04690436e-02 1.03037981e-02 1.02837205e-01 8.16157162e-02 3.79815474e-02 2.26093717e-02 3.00846361e-02 1.10953171e-02 1.17515279e-02 1.15138041e-02 9.77847874e-02 2.07717597e-01 1.55251503e-01 1.31245151e-01 5.22180200e-02 2.57737458e-01 1.78332508e-01 1.91030309e-01 1.51598990e-01 1.82752833e-01 3.39681059e-01 1.60727501e-01 1.69242725e-01 9.91949961e-02 2.49958292e-01 1.73634514e-01 1.48130327e-01 4.40231860e-01 3.12871635e-01 1.53751761e-01 2.12271169e-01 1.92941785e-01 1.43073633e-01 8.92675146e-02 1.18400492e-01 7.10809380e-02 1.19833939e-01 1.14640286e-02 3.30761932e-02 1.36017511e-02 3.34021263e-02 2.32795440e-02 1.99259624e-01 1.80741195e-02 1.62951753e-01 1.14480197e-01 4.92773950e-02 2.72305142e-02 8.86425599e-02 3.09191763e-01 1.19576387e-01 2.51378149e-01 2.70797670e-01 1.48526683e-01 4.36784744e-01 3.75140578e-01 3.68971974e-01 5.36721885e-01 2.71820635e-01 5.37046194e-01 2.35033631e-01 2.72536814e-01 2.77654588e-01 2.91450024e-01 3.81652206e-01 5.05934656e-01 3.23956311e-01 6.42565668e-01 5.38733840e-01 4.10522699e-01 3.17095608e-01 3.91727924e-01 3.41806471e-01 2.81946570e-01 2.55615562e-01 8.85573700e-02 1.51166201e-01 2.28590146e-01 1.89126711e-02 4.28816006e-02 4.86335680e-02 1.37007594e-01 2.55636841e-01 7.69496188e-02 4.16477025e-02 3.20611328e-01 2.61263162e-01 8.57013389e-02 2.17912018e-01 1.47425041e-01 2.64390677e-01 5.54529905e-01 3.55502307e-01 5.10894001e-01 4.94249821e-01 3.86364758e-01 5.36093593e-01 6.56337678e-01 6.00202382e-01 7.40015209e-01 7.77804852e-01 6.08437717e-01 3.81522149e-01 5.02392054e-01 5.21902740e-01 4.75574821e-01 6.55794442e-01 7.78268754e-01 6.26487076e-01 7.36618936e-01 8.14823747e-01 7.27360189e-01 6.75001025e-01 5.87424636e-01 5.89483380e-01 6.14641964e-01 4.83948469e-01 5.47799051e-01 1.51542008e-01 5.33918858e-01 3.50154251e-01 4.67979848e-01 9.54518914e-02 2.67681569e-01 2.87892103e-01 1.83268487e-01 4.76833045e-01 5.36925018e-01 2.26067126e-01 1.15059309e-01 4.65055645e-01 3.30230355e-01 3.23678434e-01 5.20633817e-01 4.00985301e-01 7.39147842e-01 6.45453393e-01 7.07745492e-01 8.31928551e-01 6.54931843e-01 7.11207807e-01 7.47586370e-01 8.46959829e-01 8.53038013e-01 8.51701438e-01 8.32999945e-01 6.38794899e-01 6.60991192e-01 7.31794775e-01 8.44197750e-01 8.44191611e-01 7.81833708e-01 8.31374705e-01 8.85938764e-01 8.58508706e-01 8.81352305e-01 8.31083953e-01 7.74725974e-01 8.72015297e-01 7.48724818e-01 7.93981194e-01 4.39468533e-01 2.79114693e-01 3.78053218e-01 7.82139242e-01 6.32230341e-01 3.43455166e-01 5.82219720e-01 5.24054825e-01 7.10910976e-01 7.57397056e-01 6.71811283e-01 4.35285896e-01 5.49146593e-01 6.09485924e-01 6.87013507e-01 6.33131683e-01 9.06602025e-01 8.00612271e-01 8.44363749e-01 9.03965235e-01 9.01408494e-01 7.41822422e-01 8.97408366e-01 8.72036994e-01 9.19130385e-01 9.24586713e-01 9.58016276e-01 9.21574533e-01 8.43147695e-01 9.21688259e-01 8.86216998e-01 9.57864463e-01 9.48355377e-01 9.26197052e-01 8.73938859e-01 9.48043823e-01 9.46253121e-01 9.32258248e-01 9.06656146e-01 9.48606133e-01 8.98525774e-01 8.93972099e-01 6.20184004e-01 6.30094647e-01 8.63283455e-01 6.33377016e-01 7.97252297e-01 8.61485124e-01 8.88770640e-01 8.54918122e-01 7.90981233e-01 9.18293893e-01 7.52254725e-01 8.27338636e-01 8.45548451e-01 9.61185873e-01 9.57429647e-01 9.52836156e-01 9.15667176e-01 9.43038166e-01 9.76831317e-01 9.85060573e-01 9.84015346e-01 9.56757665e-01 9.86892283e-01 9.24373567e-01 9.50960577e-01 9.74134088e-01 9.63019311e-01 9.74287033e-01 9.74889636e-01 9.75407422e-01 9.67071056e-01 9.47591543e-01 9.77074981e-01 9.78500962e-01 9.40339148e-01 8.40006471e-01 9.38997388e-01 9.03451800e-01 9.22410309e-01 9.57997978e-01 9.48895574e-01 9.15557146e-01 9.49561894e-01 8.67155731e-01 9.14828956e-01 9.33368444e-01 9.90001023e-01 9.86125827e-01 9.79461014e-01 9.87988651e-01 9.90001023e-01 9.44191039e-01 9.78799880e-01 9.83193398e-01 9.88375962e-01 9.90001023e-01 9.90001023e-01 9.89461362e-01 9.82409656e-01 9.90001023e-01 9.89973485e-01 9.88166034e-01 9.89979446e-01 9.85835850e-01 9.90001023e-01 9.79000509e-01 9.82472360e-01 9.69068170e-01 9.61869061e-01 9.86846924e-01 9.73308682e-01 9.59873676e-01 9.85821009e-01 9.83021975e-01 9.84307051e-01 9.89633203e-01 9.90001023e-01 9.90001023e-01 9.90001023e-01 9.80613589e-01 9.89931703e-01 9.90001023e-01 9.88649666e-01 9.90001023e-01 9.90001023e-01 9.90001023e-01 9.90001023e-01 9.90001023e-01 9.90001023e-01 9.90001023e-01 9.90001023e-01 9.86978114e-01 9.88745391e-01 9.89577532e-01 9.90001023e-01 9.89008665e-01 9.90001023e-01 9.90001023e-01 9.89876807e-01 9.90001023e-01 9.90001023e-01 9.90001023e-01 9.90001023e-01 9.90001023e-01 9.90001023e-01 9.90001023e-01 9.90001023e-01 9.90001023e-01 9.90001023e-01 9.90001023e-01 9.90001023e-01 9.90001023e-01 9.90001023e-01 9.90001023e-01 9.90001023e-01 9.90001023e-01 9.90001023e-01 9.90001023e-01 9.90001023e-01 9.90001023e-01 9.90001023e-01 9.90001023e-01 9.90001023e-01 9.90001023e-01 9.90001023e-01 9.90001023e-01 9.90001023e-01 9.90001023e-01 9.90001023e-01 9.90001023e-01 9.90001023e-01 9.90001023e-01 9.90001023e-01 9.90001023e-01 9.90001023e-01 9.90001023e-01 9.90001023e-01 9.90001023e-01 9.90001023e-01 9.90001023e-01 9.90001023e-01 9.90001023e-01 9.90001023e-01 9.90001023e-01 9.90001023e-01 9.90001023e-01 9.90001023e-01 9.90001023e-01 9.90001023e-01 9.90001023e-01 9.90001023e-01 9.90001023e-01 9.90001023e-01 9.90001023e-01 
