# vtk DataFile Version 2.0
results/4_density.vtk, Created by Freefem++ 
ASCII
DATASET UNSTRUCTURED_GRID
POINTS 961 float
0 0 0
0.033333333 0 0
0.066666667 0 0
0.1 0 0
0.13333333 0 0
0.16666667 0 0
0.2 0 0
0.23333333 0 0
0.26666667 0 0
0.3 0 0
0.33333333 0 0
0.36666667 0 0
0.4 0 0
0.43333333 0 0
0.46666667 0 0
0.5 0 0
0.53333333 0 0
0.56666667 0 0
0.6 0 0
0.63333333 0 0
0.66666667 0 0
0.7 0 0
0.73333333 0 0
0.76666667 0 0
0.8 0 0
0.83333333 0 0
0.86666667 0 0
0.9 0 0
0.93333333 0 0
0.96666667 0 0
1 0 0
0 0.033333333 0
0.033333333 0.033333333 0
0.066666667 0.033333333 0
0.1 0.033333333 0
0.13333333 0.033333333 0
0.16666667 0.033333333 0
0.2 0.033333333 0
0.23333333 0.033333333 0
0.26666667 0.033333333 0
0.3 0.033333333 0
0.33333333 0.033333333 0
0.36666667 0.033333333 0
0.4 0.033333333 0
0.43333333 0.033333333 0
0.46666667 0.033333333 0
0.5 0.033333333 0
0.53333333 0.033333333 0
0.56666667 0.033333333 0
0.6 0.033333333 0
0.63333333 0.033333333 0
0.66666667 0.033333333 0
0.7 0.033333333 0
0.73333333 0.033333333 0
0.76666667 0.033333333 0
0.8 0.033333333 0
0.83333333 0.033333333 0
0.86666667 0.033333333 0
0.9 0.033333333 0
0.93333333 0.033333333 0
0.96666667 0.033333333 0
1 0.033333333 0
0 0.066666667 0
0.033333333 0.066666667 0
0.066666667 0.066666667 0
0.1 0.066666667 0
0.13333333 0.066666667 0
0.16666667 0.066666667 0
0.2 0.066666667 0
0.23333333 0.066666667 0
0.26666667 0.066666667 0
0.3 0.066666667 0
0.33333333 0.066666667 0
0.36666667 0.066666667 0
0.4 0.066666667 0
0.43333333 0.066666667 0
0.46666667 0.066666667 0
0.5 0.066666667 0
0.53333333 0.066666667 0
0.56666667 0.066666667 0
0.6 0.066666667 0
0.63333333 0.066666667 0
0.66666667 0.066666667 0
0.7 0.066666667 0
0.73333333 0.066666667 0
0.76666667 0.066666667 0
0.8 0.066666667 0
0.83333333 0.066666667 0
0.86666667 0.066666667 0
0.9 0.066666667 0
0.93333333 0.066666667 0
0.96666667 0.066666667 0
1 0.066666667 0
0 0.1 0
0.033333333 0.1 0
0.066666667 0.1 0
0.1 0.1 0
0.13333333 0.1 0
0.16666667 0.1 0
0.2 0.1 0
0.23333333 0.1 0
0.26666667 0.1 0
0.3 0.1 0
0.33333333 0.1 0
0.36666667 0.1 0
0.4 0.1 0
0.43333333 0.1 0
0.46666667 0.1 0
0.5 0.1 0
0.53333333 0.1 0
0.56666667 0.1 0
0.6 0.1 0
0.63333333 0.1 0
0.66666667 0.1 0
0.7 0.1 0
0.73333333 0.1 0
0.76666667 0.1 0
0.8 0.1 0
0.83333333 0.1 0
0.86666667 0.1 0
0.9 0.1 0
0.93333333 0.1 0
0.96666667 0.1 0
1 0.1 0
0 0.13333333 0
0.033333333 0.13333333 0
0.066666667 0.13333333 0
0.1 0.13333333 0
0.13333333 0.13333333 0
0.16666667 0.13333333 0
0.2 0.13333333 0
0.23333333 0.13333333 0
0.26666667 0.13333333 0
0.3 0.13333333 0
0.33333333 0.13333333 0
0.36666667 0.13333333 0
0.4 0.13333333 0
0.43333333 0.13333333 0
0.46666667 0.13333333 0
0.5 0.13333333 0
0.53333333 0.13333333 0
0.56666667 0.13333333 0
0.6 0.13333333 0
0.63333333 0.13333333 0
0.66666667 0.13333333 0
0.7 0.13333333 0
0.73333333 0.13333333 0
0.76666667 0.13333333 0
0.8 0.13333333 0
0.83333333 0.13333333 0
0.86666667 0.13333333 0
0.9 0.13333333 0
0.93333333 0.13333333 0
0.96666667 0.13333333 0
1 0.13333333 0
0 0.16666667 0
0.033333333 0.16666667 0
0.066666667 0.16666667 0
0.1 0.16666667 0
0.13333333 0.16666667 0
0.16666667 0.16666667 0
0.2 0.16666667 0
0.23333333 0.16666667 0
0.26666667 0.16666667 0
0.3 0.16666667 0
0.33333333 0.16666667 0
0.36666667 0.16666667 0
0.4 0.16666667 0
0.43333333 0.16666667 0
0.46666667 0.16666667 0
0.5 0.16666667 0
0.53333333 0.16666667 0
0.56666667 0.16666667 0
0.6 0.16666667 0
0.63333333 0.16666667 0
0.66666667 0.16666667 0
0.7 0.16666667 0
0.73333333 0.16666667 0
0.76666667 0.16666667 0
0.8 0.16666667 0
0.83333333 0.16666667 0
0.86666667 0.16666667 0
0.9 0.16666667 0
0.93333333 0.16666667 0
0.96666667 0.16666667 0
1 0.16666667 0
0 0.2 0
0.033333333 0.2 0
0.066666667 0.2 0
0.1 0.2 0
0.13333333 0.2 0
0.16666667 0.2 0
0.2 0.2 0
0.23333333 0.2 0
0.26666667 0.2 0
0.3 0.2 0
0.33333333 0.2 0
0.36666667 0.2 0
0.4 0.2 0
0.43333333 0.2 0
0.46666667 0.2 0
0.5 0.2 0
0.53333333 0.2 0
0.56666667 0.2 0
0.6 0.2 0
0.63333333 0.2 0
0.66666667 0.2 0
0.7 0.2 0
0.73333333 0.2 0
0.76666667 0.2 0
0.8 0.2 0
0.83333333 0.2 0
0.86666667 0.2 0
0.9 0.2 0
0.93333333 0.2 0
0.96666667 0.2 0
1 0.2 0
0 0.23333333 0
0.033333333 0.23333333 0
0.066666667 0.23333333 0
0.1 0.23333333 0
0.13333333 0.23333333 0
0.16666667 0.23333333 0
0.2 0.23333333 0
0.23333333 0.23333333 0
0.26666667 0.23333333 0
0.3 0.23333333 0
0.33333333 0.23333333 0
0.36666667 0.23333333 0
0.4 0.23333333 0
0.43333333 0.23333333 0
0.46666667 0.23333333 0
0.5 0.23333333 0
0.53333333 0.23333333 0
0.56666667 0.23333333 0
0.6 0.23333333 0
0.63333333 0.23333333 0
0.66666667 0.23333333 0
0.7 0.23333333 0
0.73333333 0.23333333 0
0.76666667 0.23333333 0
0.8 0.23333333 0
0.83333333 0.23333333 0
0.86666667 0.23333333 0
0.9 0.23333333 0
0.93333333 0.23333333 0
0.96666667 0.23333333 0
1 0.23333333 0
0 0.26666667 0
0.033333333 0.26666667 0
0.066666667 0.26666667 0
0.1 0.26666667 0
0.13333333 0.26666667 0
0.16666667 0.26666667 0
0.2 0.26666667 0
0.23333333 0.26666667 0
0.26666667 0.26666667 0
0.3 0.26666667 0
0.33333333 0.26666667 0
0.36666667 0.26666667 0
0.4 0.26666667 0
0.43333333 0.26666667 0
0.46666667 0.26666667 0
0.5 0.26666667 0
0.53333333 0.26666667 0
0.56666667 0.26666667 0
0.6 0.26666667 0
0.63333333 0.26666667 0
0.66666667 0.26666667 0
0.7 0.26666667 0
0.73333333 0.26666667 0
0.76666667 0.26666667 0
0.8 0.26666667 0
0.83333333 0.26666667 0
0.86666667 0.26666667 0
0.9 0.26666667 0
0.93333333 0.26666667 0
0.96666667 0.26666667 0
1 0.26666667 0
0 0.3 0
0.033333333 0.3 0
0.066666667 0.3 0
0.1 0.3 0
0.13333333 0.3 0
0.16666667 0.3 0
0.2 0.3 0
0.23333333 0.3 0
0.26666667 0.3 0
0.3 0.3 0
0.33333333 0.3 0
0.36666667 0.3 0
0.4 0.3 0
0.43333333 0.3 0
0.46666667 0.3 0
0.5 0.3 0
0.53333333 0.3 0
0.56666667 0.3 0
0.6 0.3 0
0.63333333 0.3 0
0.66666667 0.3 0
0.7 0.3 0
0.73333333 0.3 0
0.76666667 0.3 0
0.8 0.3 0
0.83333333 0.3 0
0.86666667 0.3 0
0.9 0.3 0
0.93333333 0.3 0
0.96666667 0.3 0
1 0.3 0
0 0.33333333 0
0.033333333 0.33333333 0
0.066666667 0.33333333 0
0.1 0.33333333 0
0.13333333 0.33333333 0
0.16666667 0.33333333 0
0.2 0.33333333 0
0.23333333 0.33333333 0
0.26666667 0.33333333 0
0.3 0.33333333 0
0.33333333 0.33333333 0
0.36666667 0.33333333 0
0.4 0.33333333 0
0.43333333 0.33333333 0
0.46666667 0.33333333 0
0.5 0.33333333 0
0.53333333 0.33333333 0
0.56666667 0.33333333 0
0.6 0.33333333 0
0.63333333 0.33333333 0
0.66666667 0.33333333 0
0.7 0.33333333 0
0.73333333 0.33333333 0
0.76666667 0.33333333 0
0.8 0.33333333 0
0.83333333 0.33333333 0
0.86666667 0.33333333 0
0.9 0.33333333 0
0.93333333 0.33333333 0
0.96666667 0.33333333 0
1 0.33333333 0
0 0.36666667 0
0.033333333 0.36666667 0
0.066666667 0.36666667 0
0.1 0.36666667 0
0.13333333 0.36666667 0
0.16666667 0.36666667 0
0.2 0.36666667 0
0.23333333 0.36666667 0
0.26666667 0.36666667 0
0.3 0.36666667 0
0.33333333 0.36666667 0
0.36666667 0.36666667 0
0.4 0.36666667 0
0.43333333 0.36666667 0
0.46666667 0.36666667 0
0.5 0.36666667 0
0.53333333 0.36666667 0
0.56666667 0.36666667 0
0.6 0.36666667 0
0.63333333 0.36666667 0
0.66666667 0.36666667 0
0.7 0.36666667 0
0.73333333 0.36666667 0
0.76666667 0.36666667 0
0.8 0.36666667 0
0.83333333 0.36666667 0
0.86666667 0.36666667 0
0.9 0.36666667 0
0.93333333 0.36666667 0
0.96666667 0.36666667 0
1 0.36666667 0
0 0.4 0
0.033333333 0.4 0
0.066666667 0.4 0
0.1 0.4 0
0.13333333 0.4 0
0.16666667 0.4 0
0.2 0.4 0
0.23333333 0.4 0
0.26666667 0.4 0
0.3 0.4 0
0.33333333 0.4 0
0.36666667 0.4 0
0.4 0.4 0
0.43333333 0.4 0
0.46666667 0.4 0
0.5 0.4 0
0.53333333 0.4 0
0.56666667 0.4 0
0.6 0.4 0
0.63333333 0.4 0
0.66666667 0.4 0
0.7 0.4 0
0.73333333 0.4 0
0.76666667 0.4 0
0.8 0.4 0
0.83333333 0.4 0
0.86666667 0.4 0
0.9 0.4 0
0.93333333 0.4 0
0.96666667 0.4 0
1 0.4 0
0 0.43333333 0
0.033333333 0.43333333 0
0.066666667 0.43333333 0
0.1 0.43333333 0
0.13333333 0.43333333 0
0.16666667 0.43333333 0
0.2 0.43333333 0
0.23333333 0.43333333 0
0.26666667 0.43333333 0
0.3 0.43333333 0
0.33333333 0.43333333 0
0.36666667 0.43333333 0
0.4 0.43333333 0
0.43333333 0.43333333 0
0.46666667 0.43333333 0
0.5 0.43333333 0
0.53333333 0.43333333 0
0.56666667 0.43333333 0
0.6 0.43333333 0
0.63333333 0.43333333 0
0.66666667 0.43333333 0
0.7 0.43333333 0
0.73333333 0.43333333 0
0.76666667 0.43333333 0
0.8 0.43333333 0
0.83333333 0.43333333 0
0.86666667 0.43333333 0
0.9 0.43333333 0
0.93333333 0.43333333 0
0.96666667 0.43333333 0
1 0.43333333 0
0 0.46666667 0
0.033333333 0.46666667 0
0.066666667 0.46666667 0
0.1 0.46666667 0
0.13333333 0.46666667 0
0.16666667 0.46666667 0
0.2 0.46666667 0
0.23333333 0.46666667 0
0.26666667 0.46666667 0
0.3 0.46666667 0
0.33333333 0.46666667 0
0.36666667 0.46666667 0
0.4 0.46666667 0
0.43333333 0.46666667 0
0.46666667 0.46666667 0
0.5 0.46666667 0
0.53333333 0.46666667 0
0.56666667 0.46666667 0
0.6 0.46666667 0
0.63333333 0.46666667 0
0.66666667 0.46666667 0
0.7 0.46666667 0
0.73333333 0.46666667 0
0.76666667 0.46666667 0
0.8 0.46666667 0
0.83333333 0.46666667 0
0.86666667 0.46666667 0
0.9 0.46666667 0
0.93333333 0.46666667 0
0.96666667 0.46666667 0
1 0.46666667 0
0 0.5 0
0.033333333 0.5 0
0.066666667 0.5 0
0.1 0.5 0
0.13333333 0.5 0
0.16666667 0.5 0
0.2 0.5 0
0.23333333 0.5 0
0.26666667 0.5 0
0.3 0.5 0
0.33333333 0.5 0
0.36666667 0.5 0
0.4 0.5 0
0.43333333 0.5 0
0.46666667 0.5 0
0.5 0.5 0
0.53333333 0.5 0
0.56666667 0.5 0
0.6 0.5 0
0.63333333 0.5 0
0.66666667 0.5 0
0.7 0.5 0
0.73333333 0.5 0
0.76666667 0.5 0
0.8 0.5 0
0.83333333 0.5 0
0.86666667 0.5 0
0.9 0.5 0
0.93333333 0.5 0
0.96666667 0.5 0
1 0.5 0
0 0.53333333 0
0.033333333 0.53333333 0
0.066666667 0.53333333 0
0.1 0.53333333 0
0.13333333 0.53333333 0
0.16666667 0.53333333 0
0.2 0.53333333 0
0.23333333 0.53333333 0
0.26666667 0.53333333 0
0.3 0.53333333 0
0.33333333 0.53333333 0
0.36666667 0.53333333 0
0.4 0.53333333 0
0.43333333 0.53333333 0
0.46666667 0.53333333 0
0.5 0.53333333 0
0.53333333 0.53333333 0
0.56666667 0.53333333 0
0.6 0.53333333 0
0.63333333 0.53333333 0
0.66666667 0.53333333 0
0.7 0.53333333 0
0.73333333 0.53333333 0
0.76666667 0.53333333 0
0.8 0.53333333 0
[...]
CELL_DATA 1920
Scalars  Label int 1
LOOKUP_TABLE FreeFempp_table
0
0
0
0
0
0
0
0
0
0
0
0
0
0
0
0
0
0
0
0
0
0
0
0
0
0
0
0
0
0
0
0
0
0
0
0
0
0
0
0
0
0
0
0
0
0
0
0
0
0
0
0
0
0
0
0
0
0
0
0
0
0
0
0
0
0
0
0
0
0
0
0
0
0
0
0
0
0
0
0
0
0
0
0
0
0
0
0
0
0
0
0
0
0
0
0
0
0
0
0
0
0
0
0
0
0
0
0
0
0
0
0
0
0
0
0
0
0
0
0
0
0
0
0
0
0
0
0
0
0
0
0
0
0
0
0
0
0
0
0
0
0
0
0
0
0
0
0
0
0
0
0
0
0
0
0
0
0
0
0
0
0
0
0
0
0
0
0
0
0
0
0
0
0
0
0
0
0
0
0
0
0
0
0
0
0
0
0
0
0
0
0
0
0
0
0
0
0
0
0
0
0
0
0
0
0
0
0
0
0
0
0
0
0
0
0
0
0
0
0
0
0
0
0
0
0
0
0
0
0
0
0
0
0
0
0
0
0
0
0
0
0
0
0
0
0
0
0
0
0
0
0
0
0
0
0
0
0
0
0
0
0
0
0
0
0
0
0
0
0
0
0
0
0
0
0
0
0
0
0
0
0
0
0
0
0
0
0
0
0
0
0
0
0
0
0
0
0
0
0
0
0
0
0
0
0
0
0
0
0
0
0
0
0
0
0
0
0
0
0
0
0
0
0
0
0
0
0
0
0
0
0
0
0
0
0
0
0
0
0
0
0
0
0
0
0
0
0
0
0
0
0
0
0
0
0
0
0
0
0
0
0
0
0
0
0
0
0
0
0
0
0
0
0
0
0
0
0
0
0
0
0
0
0
0
0
0
0
0
0
0
0
0
0
0
0
0
0
0
0
0
0
0
0
0
0
0
0
0
0
0
0
0
0
0
0
0
0
0
0
0
0
0
0
0
0
0
0
0
0
0
0
0
0
0
0
0
0
0
0
0
0
0
0
0
0
0
0
0
0
0
0
0
0
0
0
0
0
0
0
0
0
0
0
0
0
0
0
0
0
0
0
0
0
0
0
0
0
0
0
0
0
0
0
0
0
0
0
0
0
0
0
0
0
0
0
0
0
0
0
0
0
0
0
0
0
0
0
0
0
0
0
0
0
0
0
0
0
0
0
0
0
0
0
0
0
0
0
0
0
0
0
0
0
0
0
0
0
0
0
0
0
0
0
0
0
0
0
0
0
0
0
0
0
0
0
0
0
0
0
0
0
0
0
0
0
0
0
0
0
0
0
0
0
0
0
0
0
0
0
0
0
0
0
0
0
0
0
0
0
0
0
0
0
0
0
0
0
0
0
0
0
0
0
0
0
0
0
0
0
0
0
0
0
0
0
0
0
0
0
0
0
0
0
0
0
0
0
0
0
0
0
0
0
0
0
0
0
0
0
0
0
0
0
0
0
0
0
0
0
0
0
0
0
0
0
0
0
0
0
0
0
0
0
0
0
0
0
0
0
0
0
0
0
0
0
0
0
0
0
0
0
0
0
0
0
0
0
0
0
0
0
0
0
0
0
0
0
0
0
0
0
0
0
0
0
0
0
0
0
0
0
0
0
0
0
0
0
0
0
0
0
0
0
0
0
0
0
0
0
0
0
0
0
0
0
0
0
0
0
0
0
0
0
0
0
0
0
0
0
0
0
0
0
0
0
0
0
0
0
0
0
0
0
0
0
0
0
0
0
0
0
0
0
0
0
0
0
0
0
0
0
0
0
0
0
0
0
0
0
0
0
0
0
0
0
0
0
0
0
0
0
0
0
0
0
0
0
0
0
0
0
0
0
0
0
0
0
0
0
0
0
0
0
0
0
0
0
0
0
0
0
0
0
0
0
0
0
0
0
0
0
0
0
0
0
0
0
0
0
0
0
0
0
0
0
0
0
0
0
0
0
0
0
0
0
0
0
0
0
0
0
0
0
0
0
0
0
0
0
0
0
0
0
0
0
0
0
0
0
0
0
0
0
0
0
0
0
0
0
0
0
0
0
0
0
0
0
0
0
0
0
0
0
0
0
0
0
0
0
0
0
0
0
0
0
0
0
0
0
0
0
0
0
0
0
0
0
0
0
0
0
0
0
0
0
0
0
0
0
0
0
0
0
0
0
0
0
0
0
0
0
0
0
0
0
0
0
0
0
0
0
0
0
0
0
0
0
0
0
0
0
0
0
0
0
0
0
0
0
0
0
0
0
0
0
0
0
0
0
0
0
0
0
0
0
0
0
0
0
0
0
0
0
0
0
0
0
0
0
0
0
0
0
0
0
0
0
0
0
0
0
0
0
0
0
0
0
0
0
0
0
0
0
0
0
0
0
0
0
0
0
0
0
0
0
0
0
0
0
0
0
0
0
0
0
0
0
0
0
0
0
0
0
0
0
0
0
0
0
0
0
0
0
0
0
0
0
0
0
0
0
0
0
0
0
0
0
0
0
0
0
0
0
0
0
0
0
0
0
0
0
0
0
0
0
0
0
0
0
0
0
0
0
0
0
0
0
0
0
0
0
0
0
0
0
0
0
0
0
0
0
0
0
0
0
0
0
0
0
0
0
0
0
0
0
0
0
0
0
0
0
0
0
0
0
0
0
0
0
0
0
0
0
0
0
0
0
0
0
0
0
0
0
0
0
0
0
0
0
0
0
0
0
0
0
0
0
0
0
0
0
0
0
0
0
0
0
0
0
0
0
0
0
0
0
0
0
0
0
0
0
0
0
0
0
0
0
0
0
0
0
0
0
0
0
0
0
0
0
0
0
0
0
0
0
0
0
0
0
0
0
0
0
0
0
0
0
0
0
0
0
0
0
0
0
0
0
0
0
0
0
0
0
0
0
0
0
0
0
0
0
0
0
0
0
0
0
0
0
0
0
0
0
0
0
0
0
0
0
0
0
0
0
0
0
0
0
0
0
0
0
0
0
0
0
0
0
0
0
0
0
0
0
0
0
0
0
0
0
0
0
0
0
0
0
0
0
0
0
0
0
0
0
0
0
0
0
0
0
0
0
0
0
0
0
0
0
0
0
0
0
0
0
0
0
0
0
0
0
0
0
0
0
0
0
0
0
0
0
0
0
0
0
0
0
0
0
0
0
0
0
0
0
0
0
0
0
0
0
0
0
0
0
0
0
0
0
0
0
0
0
0
0
0
0
0
0
0
0
0
0
0
0
0
0
0
0
0
0
0
0
0
0
0
0
0
0
0
0
0
0
0
0
0
0
0
0
0
0
0
0
0
0
0
0
0
0
0
0
0
0
0
0
0
0
0
0
0
0
0
0
0
0
0
0
0
0
0
0
0
0
0
0
0
0
0
0
0
0
0
0
0
0
0
0
0
0
0
0
0
0
0
0
0
0
0
0
0
0
0
0
0
0
0
0
0
0
0
0
0
0
0
0
0
0
0
0
0
0
0
0
0
0
0
0
0
0
0
0
0
0
0
0
0
0
0
0
0
0
0
0
0
0
0
0
0
0
0
0
0
0
0
0
0
0
0
0
0
0
0
0
0
0
0
0
0
0
0
0
0
0
0
0
0
0
0
0
0
0
0
0
0
0
0
0
0
0
0
0
0
0
0
0
0
0
0
0
0
0
0
0
0
0
0
0
0
0
0
0
0
0
0
0
0
0
0
0
0
0
0
0
0
0
0
0
0
0
0
0
0
0
0
0
0
0
0
0
0
0
0
0
0
0
0
0
0
0
0
0
0
0
0
0
0
0
0
0
0
0
0
0
0
0
0
0
0
0
0
0
0
0
0
0
0
0
0
0
0
0
0
0
0
0
0
0
0
0
0
0
0
0
0
0
0
0
0
0
0
0
0
0
0
0
0
0
0
0
0
0
0
0
0
0
0
0
0
0
0
0
0
0
0
0
0
0
0
0
0
0
0
0
0
0
0
0
0
0
0
0
0
0
0
0
0
0
0
0
0
0
0
0
0
0
0
0
0
0
0
0
0
0
0
0
0
0
0
0
0
0
0
0
0
0
0
0
0
0
0
0
0
0
0
0
0
0
0
0
0
0
1
1
1
1
1
1
1
1
1
1
1
1
1
1
1
1
1
1
1
1
1
1
1
1
1
1
1
1
1
1
2
2
2
2
2
2
2
2
2
2
2
2
2
2
2
2
2
2
2
2
2
2
2
2
2
2
2
2
2
2
3
3
3
3
3
3
3
3
3
3
3
3
3
3
3
3
3
3
3
3
3
3
3
3
3
3
3
3
3
3
4
4
4
4
4
4
4
4
4
4
4
4
4
4
4
4
4
4
4
4
4
4
4
4
4
4
4
4
4
4

LOOKUP_TABLE FreeFempp_table 5
1.00000000 0.00000000 0.00000000 1.00000000
1.00000000 1.00000000 0.00000000 1.00000000
1.00000000 0.00000000 1.00000000 1.00000000
0.00000000 1.00000000 0.00000000 1.00000000
0.00000000 1.00000000 1.00000000 1.00000000

POINT_DATA 961
FIELD FieldData 1
Density 1 961 float
3.76132488e-01 2.66933113e-01 2.44629592e-01 2.41769850e-01 2.39661172e-01 2.31782347e-01 2.03704268e-01 8.59930664e-02 9.48623696e-04 3.41007952e-04 3.34035838e-04 5.33877115e-04 5.03395796e-02 1.57668114e-01 3.47002357e-01 8.78917992e-01 9.69379902e-01 9.33691561e-01 9.75849211e-01 9.85039830e-01 9.47779596e-01 8.85275841e-01 8.13646793e-01 7.26388991e-01 6.55879796e-01 6.08128667e-01 5.76854050e-01 5.56093276e-01 5.40911257e-01 5.44186711e-01 5.48026145e-01 2.83491999e-01 1.00813366e-01 9.15154666e-02 8.44236240e-02 8.61556828e-02 8.56168717e-02 7.39713013e-02 3.69656421e-02 1.72100251e-03 3.30276845e-04 2.88841198e-04 3.33740696e-04 1.36151006e-02 6.00159019e-02 1.04197755e-01 8.63356113e-01 9.84634876e-01 1.63547054e-01 1.69901907e-01 9.52026606e-01 9.52994823e-01 9.52357113e-01 9.27409351e-01 8.86351228e-01 7.97997832e-01 6.93001986e-01 6.15136504e-01 5.66302299e-01 5.34660041e-01 5.20721972e-01 5.43238163e-01 2.98968866e-04 2.81217537e-04 2.79805012e-04 2.29470359e-04 1.83144119e-04 1.50728229e-04 1.74099347e-04 1.67880586e-04 1.84167206e-04 2.14943866e-04 1.99099522e-04 2.14274260e-04 7.99052790e-03 7.58448467e-02 6.08672425e-02 1.60886750e-01 9.53572571e-01 3.85385472e-04 3.62290215e-04 3.54388729e-04 3.53366544e-04 5.89239411e-04 4.07406362e-03 1.27067462e-01 5.63378334e-01 5.31417966e-01 4.50856268e-01 4.08872098e-01 3.89747024e-01 3.69107395e-01 4.81680632e-01 2.77001993e-04 2.25893338e-04 2.34572872e-04 2.39888133e-04 2.00933748e-04 1.91037718e-04 1.75505484e-04 1.44324018e-04 1.70629515e-04 1.90186940e-04 2.05124437e-04 1.55226546e-04 1.46587394e-04 1.91944811e-04 2.77935527e-04 8.09100829e-03 1.63254201e-01 3.31012607e-02 3.57418001e-04 3.53882031e-04 3.52644158e-04 3.50263581e-04 3.47541092e-04 3.46866669e-04 3.46629095e-04 1.29852504e-01 2.88502753e-01 2.63905853e-01 2.49165818e-01 2.34936446e-01 3.95505011e-01 3.25520639e-04 2.80252541e-04 2.84586858e-04 2.91933800e-04 3.19450686e-04 1.33768655e-03 4.54619788e-02 6.76343516e-02 7.12161884e-02 7.05583170e-02 5.21367267e-02 3.00706481e-04 1.98302252e-04 1.44358855e-04 1.69768275e-04 1.76007277e-04 1.65212958e-04 9.98609304e-01 9.99684691e-01 3.65259242e-04 3.52821167e-04 3.50311602e-04 3.44245374e-04 3.36579222e-04 3.19904822e-04 3.25824280e-04 6.14100210e-02 1.71920329e-01 1.73085228e-01 1.64578080e-01 3.33759218e-01 7.50004947e-02 9.50183906e-03 6.66328147e-03 6.40358776e-03 6.63407519e-03 9.17513762e-03 2.64038146e-02 4.94242199e-02 5.91113791e-02 6.17004000e-02 5.99977337e-02 5.29497489e-02 5.71675003e-02 5.59485741e-02 2.88746058e-04 1.87781508e-04 1.50133201e-04 1.39183670e-04 1.88358026e-04 9.99803722e-01 1.25498767e-03 5.25455165e-04 3.48423811e-04 3.46214219e-04 3.20763444e-04 2.86051247e-04 3.12459248e-04 6.01288304e-02 1.41074434e-01 1.39598250e-01 3.07000935e-01 1.03943706e-01 1.09711122e-02 6.54883031e-03 6.61197538e-03 8.78733303e-03 1.42456526e-02 2.78059971e-02 4.86902222e-02 6.48014098e-02 7.44559839e-02 7.93520212e-02 7.67394155e-02 7.08718374e-02 7.34255910e-02 7.26433918e-02 8.04766789e-02 6.84935823e-02 1.89199767e-04 1.63790115e-04 1.60756696e-04 9.99239564e-01 9.71939206e-01 9.88807559e-01 9.87144053e-01 9.06621695e-01 3.47261172e-04 2.85219168e-04 3.08462710e-04 8.81194547e-02 1.26679286e-01 2.91263819e-01 2.00131595e-01 3.22916396e-02 2.29521506e-02 2.34099217e-02 3.01716514e-02 4.37644720e-02 6.23902939e-02 8.30317512e-02 1.04372658e-01 1.22986145e-01 1.36072904e-01 1.40334636e-01 1.36560664e-01 1.31141305e-01 1.23186357e-01 1.15909964e-01 1.14586808e-01 1.09533705e-01 1.01387858e-01 1.63946635e-04 1.85469733e-04 9.77198899e-01 9.87840474e-01 9.86955047e-01 6.45791352e-01 3.99803340e-01 3.88244953e-04 2.67641706e-04 3.32817406e-04 1.12268411e-01 2.77468413e-01 4.34310555e-01 1.74643904e-01 1.53907105e-01 1.50093779e-01 1.60702363e-01 1.79736376e-01 1.98775426e-01 2.17622563e-01 2.39859641e-01 2.61418015e-01 2.76028693e-01 2.79696763e-01 2.72870988e-01 2.59475619e-01 2.41694361e-01 2.22047552e-01 2.02590585e-01 1.78296372e-01 1.49887547e-01 1.34445637e-01 1.80290517e-04 2.09064005e-04 1.71416402e-02 1.08828826e-03 4.67311882e-04 4.98135807e-04 9.99924600e-01 2.20496528e-04 2.44180701e-04 2.39951722e-02 2.65455276e-01 7.08718300e-01 6.82406545e-01 6.49922967e-01 6.20197773e-01 5.92807889e-01 5.66599250e-01 5.41947126e-01 5.24232268e-01 5.15425920e-01 5.10723352e-01 5.03826737e-01 4.91350770e-01 4.73358065e-01 4.51436818e-01 4.27166998e-01 4.02320474e-01 3.77148956e-01 3.48710716e-01 3.09789509e-01 2.52026290e-01 1.90979719e-01 4.07383632e-04 6.36569632e-04 4.76719084e-04 3.75513220e-04 3.73809307e-04 9.98445690e-01 5.97500920e-01 1.98641093e-04 2.14905827e-04 2.44816929e-01 8.28779995e-01 9.15804088e-01 8.96313906e-01 8.81799579e-01 8.61004353e-01 8.33559930e-01 8.01162183e-01 7.68395185e-01 7.38746047e-01 7.12186396e-01 6.86507165e-01 6.60206318e-01 6.33463979e-01 6.07375324e-01 5.83416104e-01 5.62959373e-01 5.46636522e-01 5.35003603e-01 5.27116895e-01 5.17747164e-01 4.91522908e-01 3.65268797e-01 5.92013297e-04 5.00319933e-04 4.53511137e-04 4.01747820e-04 1.38651917e-03 9.99896169e-01 2.71230674e-04 2.29327750e-04 1.39571935e-01 8.15923810e-01 9.37559187e-01 9.23004031e-01 9.18526232e-01 9.08677161e-01 8.93130958e-01 8.71536434e-01 8.45772207e-01 8.18501115e-01 7.91022480e-01 7.62966454e-01 7.33990669e-01 7.04761505e-01 6.76668525e-01 6.51322126e-01 6.29955947e-01 6.13584578e-01 6.04560375e-01 6.07476175e-01 6.30724788e-01 6.80374086e-01 7.45533347e-01 8.28988433e-01 4.38048579e-02 4.03653190e-04 3.92016576e-04 3.82681465e-04 5.19746740e-04 9.99811292e-01 3.96865682e-04 4.80067130e-04 6.51411355e-01 8.33835244e-01 8.26718509e-01 8.43136132e-01 8.52460384e-01 8.53211164e-01 8.44691932e-01 8.29649329e-01 8.11227858e-01 7.90562510e-01 7.67120183e-01 7.40638614e-01 7.12044477e-01 6.83041453e-01 6.55278683e-01 6.29606247e-01 6.06326699e-01 5.86580873e-01 5.73695719e-01 5.75838327e-01 6.08738303e-01 6.82676256e-01 8.58158588e-01 9.50293124e-01 6.94139659e-01 4.29006806e-03 3.67548986e-04 4.09439497e-04 9.99278188e-01 4.11066983e-04 4.64719109e-04 3.37506056e-01 3.22086304e-01 3.64253134e-01 4.47465688e-01 5.45676768e-01 6.30216300e-01 6.85993493e-01 7.17333257e-01 7.31630325e-01 7.32662141e-01 7.22185135e-01 7.02271581e-01 6.75920606e-01 6.46495998e-01 6.16837859e-01 5.88581920e-01 5.62326908e-01 5.38412690e-01 5.17333508e-01 4.99950826e-01 4.86914754e-01 4.76359546e-01 5.04627645e-01 7.44569063e-01 9.75183606e-01 9.52149153e-01 3.91089134e-02 9.50180227e-04 9.99681592e-01 3.56294942e-04 3.68995563e-04 1.29622474e-01 3.92857902e-02 4.22956236e-02 6.16943501e-02 1.07839838e-01 1.99431390e-01 3.35940391e-01 4.75267529e-01 5.74754953e-01 6.26949489e-01 6.42647028e-01 6.33868158e-01 6.10176146e-01 5.78979015e-01 5.45818508e-01 5.14440835e-01 4.87224489e-01 4.65733856e-01 4.50645804e-01 4.40677911e-01 4.29395914e-01 3.98965001e-01 3.29752803e-01 2.70801634e-01 3.87879521e-01 6.38610125e-01 4.90245223e-01 7.81384587e-01 9.99488354e-01 3.49024282e-04 3.52124363e-04 5.81184849e-02 8.12976994e-03 6.54575042e-03 8.45157076e-03 1.44751184e-02 3.27724256e-02 9.07377899e-02 2.26429284e-01 3.94961923e-01 5.09140372e-01 5.57115853e-01 5.60725391e-01 5.38805723e-01 5.04076362e-01 4.65220958e-01 4.28133011e-01 3.96784991e-01 3.73861134e-01 3.60799909e-01 3.57030541e-01 3.57852519e-01 3.50345135e-01 3.12086076e-01 2.36400843e-01 1.64813027e-01 1.50294483e-01 4.31513399e-01 9.85521853e-01 9.98710215e-01 3.55014810e-04 3.54344811e-04 3.36812660e-02 3.03272577e-03 1.96632696e-03 2.31931615e-03 3.70769505e-03 8.17186851e-03 2.75395364e-02 1.08200274e-01 2.78398544e-01 4.28597301e-01 4.98585820e-01 5.09821296e-01 4.87796426e-01 4.48982269e-01 4.04106945e-01 3.60372305e-01 3.22572351e-01 2.93746799e-01 2.75385678e-01 2.67295927e-01 2.67327309e-01 2.71287292e-01 2.73352385e-01 2.67327756e-01 2.52199352e-01 3.20576668e-01 8.56931508e-01 9.94760513e-01 9.95681584e-01 3.57631769e-04 3.56968201e-04 2.27374248e-02 1.41619146e-03 8.14657018e-04 9.39779391e-04 1.58140028e-03 3.75764142e-03 1.45222284e-02 7.54324123e-02 2.42559224e-01 4.03970212e-01 4.78435904e-01 4.89910394e-01 4.66391176e-01 4.24549580e-01 3.75010312e-01 3.25275123e-01 2.80696690e-01 2.44850248e-01 2.19716802e-01 2.05971047e-01 2.03878254e-01 2.15439051e-01 2.48281315e-01 3.23426247e-01 4.83724147e-01 7.98366845e-01 9.76255894e-01 9.95901406e-01 6.68126106e-01 3.58130579e-04 3.58255929e-04 1.61193367e-02 7.37579656e-04 4.61541465e-04 5.21034119e-04 9.12458752e-04 2.71496200e-03 1.36466371e-02 8.62092525e-02 2.71346182e-01 4.22908008e-01 4.84586984e-01 4.90946889e-01 4.67154741e-01 4.25890416e-01 3.75193983e-01 3.21819603e-01 2.71692455e-01 2.29542419e-01 1.98775530e-01 1.81930527e-01 1.82447389e-01 2.09528476e-01 2.89223880e-01 4.82055455e-01 7.82190144e-01 9.54048216e-01 9.89052355e-01 9.85580564e-01 7.70452607e-04 3.56699806e-04 3.58103833e-04 1.07436385e-02 4.52268170e-04 3.54473246e-04 3.87111795e-04 6.94597431e-04 2.90153688e-03 2.22545899e-02 1.46229684e-01 3.45655024e-01 4.57223892e-01 4.94608939e-01 4.95784611e-01 4.76644635e-01 4.42624599e-01 3.97313833e-01 3.45716715e-01 2.94164717e-01 2.48952270e-01 2.15699360e-01 2.00187191e-01 2.11646751e-01 2.72855759e-01 4.38987613e-01 7.39639699e-01 9.37451541e-01 9.82310712e-01 9.87653673e-01 2.31641427e-01 3.52933537e-04 3.54118936e-04 3.55453027e-04 5.81906037e-03 3.54162767e-04 3.55128694e-04 3.54368152e-04 6.88762288e-04 4.84608579e-03 6.00466579e-02 2.72492975e-01 4.24819648e-01 4.76006150e-01 4.89885032e-01 4.91691262e-01 4.84520197e-01 4.65762615e-01 4.34390962e-01 3.93340528e-01 3.49164367e-01 3.10034096e-01 2.84539908e-01 2.83718616e-01 3.27369809e-01 4.54048157e-01 6.91322982e-01 9.10355091e-01 9.77076530e-01 9.85935688e-01 8.67263258e-01 6.64646272e-04 3.53636744e-04 3.53941490e-04 3.53753217e-04 2.19998905e-03 3.54921009e-04 3.56274017e-04 3.54643009e-04 9.25631030e-04 1.41957300e-02 1.90477699e-01 4.11127925e-01 4.62380469e-01 4.62128282e-01 4.64480460e-01 4.75634873e-01 4.86946225e-01 4.89613801e-01 4.79746014e-01 4.59353477e-01 4.35969055e-01 4.21005070e-01 4.28005606e-01 4.73672539e-01 5.77792525e-01 7.36981690e-01 8.86404514e-01 9.65443492e-01 9.83311594e-01 9.42632973e-01 3.31366947e-03 3.53010197e-04 3.53872398e-04 3.54114949e-04 3.53488809e-04 6.66602224e-04 3.55744793e-04 3.56982142e-04 3.54895921e-04 1.94728468e-03 7.13921785e-02 3.99075001e-01 4.76125568e-01 4.42856282e-01 4.18060482e-01 4.24311548e-01 4.51554477e-01 4.84095544e-01 5.10286689e-01 5.25685906e-01 5.33170640e-01 5.42503178e-01 5.69026351e-01 6.28863633e-01 7.26731777e-01 8.38740647e-01 9.20359313e-01 9.57638025e-01 9.68755305e-01 8.95353675e-01 6.22654706e-03 3.87698121e-04 3.53682786e-04 3.53688258e-04 3.53593321e-04 5.79634216e-04 3.55080352e-04 3.57357756e-04 3.56833945e-04 3.59136815e-04 7.59326993e-03 2.97494471e-01 5.12742758e-01 4.52735782e-01 3.80890369e-01 3.59018236e-01 3.79314244e-01 4.23765540e-01 4.75692302e-01 5.23652256e-01 5.63698709e-01 5.99616289e-01 6.41908944e-01 7.03981936e-01 7.90392935e-01 8.80873740e-01 9.43286419e-01 9.70344722e-01 9.67879415e-01 7.24747658e-01 3.11125442e-03 4.28319530e-04 3.53808136e-04 3.53643729e-04 3.53561685e-04 3.94723553e-04 8.95390008e-03 3.57547455e-04 3.60734004e-04 3.57224431e-04 5.37356595e-04 5.88591136e-02 5.31373918e-01 4.98348713e-01 3.70319396e-01 3.04531604e-01 3.00432533e-01 3.35292220e-01 3.92396331e-01 4.58724886e-01 5.24840355e-01 5.86460590e-01 6.45814419e-01 7.10492790e-01 7.87072778e-01 8.69066298e-01 9.34355736e-01 9.69567895e-01 9.81617868e-01 9.67088997e-01 1.79894999e-01 1.04579143e-03 4.22970101e-04 3.53718817e-04 3.53403302e-04 5.09179139e-04 3.52204475e-03 1.11419171e-01 3.61260929e-04 3.64671228e-04 3.58559191e-04 1.80271314e-03 3.32307309e-01 5.69652915e-01 3.99537265e-01 2.73998827e-01 2.36665636e-01 2.49416590e-01 2.91930109e-01 3.53816867e-01 4.28357810e-01 5.09063780e-01 5.89564741e-01 6.67021751e-01 7.43618071e-01 8.21470141e-01 8.93667936e-01 9.45882618e-01 9.73074913e-01 9.82290745e-01 9.70640481e-01 4.57113177e-01 3.35374544e-03 8.72800651e-04 9.93853551e-04 3.32939113e-03 5.68648688e-02 5.09127319e-01 5.17847836e-01 3.84866114e-04 3.70234018e-04 3.59158934e-04 1.87498275e-02 5.80626786e-01 4.66500163e-01 2.75875509e-01 1.97561458e-01 1.85603708e-01 2.05945164e-01 2.46424675e-01 3.04125190e-01 3.79810989e-01 4.71397787e-01 5.70140123e-01 6.64949059e-01 7.50057459e-01 8.25469553e-01 8.89963865e-01 9.37673390e-01 9.65388000e-01 9.76783335e-01 9.73023534e-01 8.90833199e-01 3.01330864e-01 2.37935394e-01 8.15257013e-01 9.73798990e-01 9.82407570e-01 9.83574629e-01 8.89979780e-01 4.58412891e-04 4.08212421e-04 4.36971051e-04 2.42458373e-01 5.56697547e-01 3.09198171e-01 1.83935836e-01 1.49299473e-01 1.50276303e-01 1.68314606e-01 1.98444009e-01 2.43919000e-01 3.12158942e-01 4.08010483e-01 5.24652779e-01 6.42006516e-01 7.41000414e-01 8.16405535e-01 8.72965336e-01 9.15574670e-01 9.45418417e-01 9.62732792e-01 9.68416154e-01 9.60898757e-01 9.46627259e-01 9.67065752e-01 9.86285269e-01 9.89180923e-01 9.86923873e-01 9.86662209e-01 9.35710967e-01 5.63191250e-04 4.94849461e-04 3.17787682e-03 5.56799829e-01 3.56392831e-01 1.93292513e-01 1.38827100e-01 1.26269385e-01 1.28690436e-01 1.37626991e-01 1.53056040e-01 1.80688381e-01 2.30110064e-01 3.12529922e-01 4.32394862e-01 5.73244035e-01 7.01445818e-01 7.95138597e-01 8.55925143e-01 8.95364583e-01 9.23213482e-01 9.43839967e-01 9.57353652e-01 9.63125348e-01 9.63801980e-01 9.64802027e-01 9.66148853e-01 9.64021623e-01 9.59049106e-01 9.60021734e-01 8.90339553e-01 5.97480044e-04 5.76771970e-04 2.54826993e-01 5.36441386e-01 2.38882110e-01 1.65045187e-01 1.37064397e-01 1.22556455e-01 1.13194004e-01 1.06972992e-01 1.05822705e-01 1.13844372e-01 1.37598723e-01 1.88510463e-01 2.84096956e-01 4.36310083e-01 6.19427562e-01 7.72962391e-01 8.67113292e-01 9.15232718e-01 9.37583625e-01 9.46267188e-01 9.46609020e-01 9.40206409e-01 9.26637471e-01 9.04370904e-01 8.72327566e-01 8.34910870e-01 8.00370514e-01 7.91994810e-01 7.55384088e-01 4.22981015e-04 4.96774854e-04 9.17173564e-01 5.13323605e-01 4.49471593e-01 3.92460495e-01 3.41780305e-01 2.99797833e-01 2.68059313e-01 2.44099319e-01 2.28821486e-01 2.26388663e-01 2.42176682e-01 2.81800926e-01 3.49617571e-01 4.44657177e-01 5.56259811e-01 6.65826201e-01 7.55778968e-01 8.17314506e-01 8.50110531e-01 8.56209278e-01 8.34637642e-01 7.83935964e-01 7.17092037e-01 6.60768151e-01 6.22713208e-01 5.90102494e-01 5.56214094e-01 5.24039686e-01 5.58933139e-01 
