# vtk DataFile Version 2.0
results/5_density.vtk, Created by Freefem++ 
ASCII
DATASET UNSTRUCTURED_GRID
POINTS 961 float
0 0 0
0.033333333 0 0
0.066666667 0 0
0.1 0 0
0.13333333 0 0
0.16666667 0 0
0.2 0 0
0.23333333 0 0
0.26666667 0 0
0.3 0 0
0.33333333 0 0
0.36666667 0 0
0.4 0 0
0.43333333 0 0
0.46666667 0 0
0.5 0 0
0.53333333 0 0
0.56666667 0 0
0.6 0 0
0.63333333 0 0
0.66666667 0 0
0.7 0 0
0.73333333 0 0
0.76666667 0 0
0.8 0 0
0.83333333 0 0
0.86666667 0 0
0.9 0 0
0.93333333 0 0
0.96666667 0 0
1 0 0
0 0.033333333 0
0.033333333 0.033333333 0
0.066666667 0.033333333 0
0.1 0.033333333 0
0.13333333 0.033333333 0
0.16666667 0.033333333 0
0.2 0.033333333 0
0.23333333 0.033333333 0
0.26666667 0.033333333 0
0.3 0.033333333 0
0.33333333 0.033333333 0
0.36666667 0.033333333 0
0.4 0.033333333 0
0.43333333 0.033333333 0
0.46666667 0.033333333 0
0.5 0.033333333 0
0.53333333 0.033333333 0
0.56666667 0.033333333 0
0.6 0.033333333 0
0.63333333 0.033333333 0
0.66666667 0.033333333 0
0.7 0.033333333 0
0.73333333 0.033333333 0
0.76666667 0.033333333 0
0.8 0.033333333 0
0.83333333 0.033333333 0
0.86666667 0.033333333 0
0.9 0.033333333 0
0.93333333 0.033333333 0
0.96666667 0.033333333 0
1 0.033333333 0
0 0.066666667 0
0.033333333 0.066666667 0
0.066666667 0.066666667 0
0.1 0.066666667 0
0.13333333 0.066666667 0
0.16666667 0.066666667 0
0.2 0.066666667 0
0.23333333 0.066666667 0
0.26666667 0.066666667 0
0.3 0.066666667 0
0.33333333 0.066666667 0
0.36666667 0.066666667 0
0.4 0.066666667 0
0.43333333 0.066666667 0
0.46666667 0.066666667 0
0.5 0.066666667 0
0.53333333 0.066666667 0
0.56666667 0.066666667 0
0.6 0.066666667 0
0.63333333 0.066666667 0
0.66666667 0.066666667 0
0.7 0.066666667 0
0.73333333 0.066666667 0
0.76666667 0.066666667 0
0.8 0.066666667 0
0.83333333 0.066666667 0
0.86666667 0.066666667 0
0.9 0.066666667 0
0.93333333 0.066666667 0
0.96666667 0.066666667 0
1 0.066666667 0
0 0.1 0
0.033333333 0.1 0
0.066666667 0.1 0
0.1 0.1 0
0.13333333 0.1 0
0.16666667 0.1 0
0.2 0.1 0
0.23333333 0.1 0
0.26666667 0.1 0
0.3 0.1 0
0.33333333 0.1 0
0.36666667 0.1 0
0.4 0.1 0
0.43333333 0.1 0
0.46666667 0.1 0
0.5 0.1 0
0.53333333 0.1 0
0.56666667 0.1 0
0.6 0.1 0
0.63333333 0.1 0
0.66666667 0.1 0
0.7 0.1 0
0.73333333 0.1 0
0.76666667 0.1 0
0.8 0.1 0
0.83333333 0.1 0
0.86666667 0.1 0
0.9 0.1 0
0.93333333 0.1 0
0.96666667 0.1 0
1 0.1 0
0 0.13333333 0
0.033333333 0.13333333 0
0.066666667 0.13333333 0
0.1 0.13333333 0
0.13333333 0.13333333 0
0.16666667 0.13333333 0
0.2 0.13333333 0
0.23333333 0.13333333 0
0.26666667 0.13333333 0
0.3 0.13333333 0
0.33333333 0.13333333 0
0.36666667 0.13333333 0
0.4 0.13333333 0
0.43333333 0.13333333 0
0.46666667 0.13333333 0
0.5 0.13333333 0
0.53333333 0.13333333 0
0.56666667 0.13333333 0
0.6 0.13333333 0
0.63333333 0.13333333 0
0.66666667 0.13333333 0
0.7 0.13333333 0
0.73333333 0.13333333 0
0.76666667 0.13333333 0
0.8 0.13333333 0
0.83333333 0.13333333 0
0.86666667 0.13333333 0
0.9 0.13333333 0
0.93333333 0.13333333 0
0.96666667 0.13333333 0
1 0.13333333 0
0 0.16666667 0
0.033333333 0.16666667 0
0.066666667 0.16666667 0
0.1 0.16666667 0
0.13333333 0.16666667 0
0.16666667 0.16666667 0
0.2 0.16666667 0
0.23333333 0.16666667 0
0.26666667 0.16666667 0
0.3 0.16666667 0
0.33333333 0.16666667 0
0.36666667 0.16666667 0
0.4 0.16666667 0
0.43333333 0.16666667 0
0.46666667 0.16666667 0
0.5 0.16666667 0
0.53333333 0.16666667 0
0.56666667 0.16666667 0
0.6 0.16666667 0
0.63333333 0.16666667 0
0.66666667 0.16666667 0
0.7 0.16666667 0
0.73333333 0.16666667 0
0.76666667 0.16666667 0
0.8 0.16666667 0
0.83333333 0.16666667 0
0.86666667 0.16666667 0
0.9 0.16666667 0
0.93333333 0.16666667 0
0.96666667 0.16666667 0
1 0.16666667 0
0 0.2 0
0.033333333 0.2 0
0.066666667 0.2 0
0.1 0.2 0
0.13333333 0.2 0
0.16666667 0.2 0
0.2 0.2 0
0.23333333 0.2 0
0.26666667 0.2 0
0.3 0.2 0
0.33333333 0.2 0
0.36666667 0.2 0
0.4 0.2 0
0.43333333 0.2 0
0.46666667 0.2 0
0.5 0.2 0
0.53333333 0.2 0
0.56666667 0.2 0
0.6 0.2 0
0.63333333 0.2 0
0.66666667 0.2 0
0.7 0.2 0
0.73333333 0.2 0
0.76666667 0.2 0
0.8 0.2 0
0.83333333 0.2 0
0.86666667 0.2 0
0.9 0.2 0
0.93333333 0.2 0
0.96666667 0.2 0
1 0.2 0
0 0.23333333 0
0.033333333 0.23333333 0
0.066666667 0.23333333 0
0.1 0.23333333 0
0.13333333 0.23333333 0
0.16666667 0.23333333 0
0.2 0.23333333 0
0.23333333 0.23333333 0
0.26666667 0.23333333 0
0.3 0.23333333 0
0.33333333 0.23333333 0
0.36666667 0.23333333 0
0.4 0.23333333 0
0.43333333 0.23333333 0
0.46666667 0.23333333 0
0.5 0.23333333 0
0.53333333 0.23333333 0
0.56666667 0.23333333 0
0.6 0.23333333 0
0.63333333 0.23333333 0
0.66666667 0.23333333 0
0.7 0.23333333 0
0.73333333 0.23333333 0
0.76666667 0.23333333 0
0.8 0.23333333 0
0.83333333 0.23333333 0
0.86666667 0.23333333 0
0.9 0.23333333 0
0.93333333 0.23333333 0
0.96666667 0.23333333 0
1 0.23333333 0
0 0.26666667 0
0.033333333 0.26666667 0
0.066666667 0.26666667 0
0.1 0.26666667 0
0.13333333 0.26666667 0
0.16666667 0.26666667 0
0.2 0.26666667 0
0.23333333 0.26666667 0
0.26666667 0.26666667 0
0.3 0.26666667 0
0.33333333 0.26666667 0
0.36666667 0.26666667 0
0.4 0.26666667 0
0.43333333 0.26666667 0
0.46666667 0.26666667 0
0.5 0.26666667 0
0.53333333 0.26666667 0
0.56666667 0.26666667 0
0.6 0.26666667 0
0.63333333 0.26666667 0
0.66666667 0.26666667 0
0.7 0.26666667 0
0.73333333 0.26666667 0
0.76666667 0.26666667 0
0.8 0.26666667 0
0.83333333 0.26666667 0
0.86666667 0.26666667 0
0.9 0.26666667 0
0.93333333 0.26666667 0
0.96666667 0.26666667 0
1 0.26666667 0
0 0.3 0
0.033333333 0.3 0
0.066666667 0.3 0
0.1 0.3 0
0.13333333 0.3 0
0.16666667 0.3 0
0.2 0.3 0
0.23333333 0.3 0
0.26666667 0.3 0
0.3 0.3 0
0.33333333 0.3 0
0.36666667 0.3 0
0.4 0.3 0
0.43333333 0.3 0
0.46666667 0.3 0
0.5 0.3 0
0.53333333 0.3 0
0.56666667 0.3 0
0.6 0.3 0
0.63333333 0.3 0
0.66666667 0.3 0
0.7 0.3 0
0.73333333 0.3 0
0.76666667 0.3 0
0.8 0.3 0
0.83333333 0.3 0
0.86666667 0.3 0
0.9 0.3 0
0.93333333 0.3 0
0.96666667 0.3 0
1 0.3 0
0 0.33333333 0
0.033333333 0.33333333 0
0.066666667 0.33333333 0
0.1 0.33333333 0
0.13333333 0.33333333 0
0.16666667 0.33333333 0
0.2 0.33333333 0
0.23333333 0.33333333 0
0.26666667 0.33333333 0
0.3 0.33333333 0
0.33333333 0.33333333 0
0.36666667 0.33333333 0
0.4 0.33333333 0
0.43333333 0.33333333 0
0.46666667 0.33333333 0
0.5 0.33333333 0
0.53333333 0.33333333 0
0.56666667 0.33333333 0
0.6 0.33333333 0
0.63333333 0.33333333 0
0.66666667 0.33333333 0
0.7 0.33333333 0
0.73333333 0.33333333 0
0.76666667 0.33333333 0
0.8 0.33333333 0
0.83333333 0.33333333 0
0.86666667 0.33333333 0
0.9 0.33333333 0
0.93333333 0.33333333 0
0.96666667 0.33333333 0
1 0.33333333 0
0 0.36666667 0
0.033333333 0.36666667 0
0.066666667 0.36666667 0
0.1 0.36666667 0
0.13333333 0.36666667 0
0.16666667 0.36666667 0
0.2 0.36666667 0
0.23333333 0.36666667 0
0.26666667 0.36666667 0
0.3 0.36666667 0
0.33333333 0.36666667 0
0.36666667 0.36666667 0
0.4 0.36666667 0
0.43333333 0.36666667 0
0.46666667 0.36666667 0
0.5 0.36666667 0
0.53333333 0.36666667 0
0.56666667 0.36666667 0
0.6 0.36666667 0
0.63333333 0.36666667 0
0.66666667 0.36666667 0
0.7 0.36666667 0
0.73333333 0.36666667 0
0.76666667 0.36666667 0
0.8 0.36666667 0
0.83333333 0.36666667 0
0.86666667 0.36666667 0
0.9 0.36666667 0
0.93333333 0.36666667 0
0.96666667 0.36666667 0
1 0.36666667 0
0 0.4 0
0.033333333 0.4 0
0.066666667 0.4 0
0.1 0.4 0
0.13333333 0.4 0
0.16666667 0.4 0
0.2 0.4 0
0.23333333 0.4 0
0.26666667 0.4 0
0.3 0.4 0
0.33333333 0.4 0
0.36666667 0.4 0
0.4 0.4 0
0.43333333 0.4 0
0.46666667 0.4 0
0.5 0.4 0
0.53333333 0.4 0
0.56666667 0.4 0
0.6 0.4 0
0.63333333 0.4 0
0.66666667 0.4 0
0.7 0.4 0
0.73333333 0.4 0
0.76666667 0.4 0
0.8 0.4 0
0.83333333 0.4 0
0.86666667 0.4 0
0.9 0.4 0
0.93333333 0.4 0
0.96666667 0.4 0
1 0.4 0
0 0.43333333 0
0.033333333 0.43333333 0
0.066666667 0.43333333 0
0.1 0.43333333 0
0.13333333 0.43333333 0
0.16666667 0.43333333 0
0.2 0.43333333 0
0.23333333 0.43333333 0
0.26666667 0.43333333 0
0.3 0.43333333 0
0.33333333 0.43333333 0
0.36666667 0.43333333 0
0.4 0.43333333 0
0.43333333 0.43333333 0
0.46666667 0.43333333 0
0.5 0.43333333 0
0.53333333 0.43333333 0
0.56666667 0.43333333 0
0.6 0.43333333 0
0.63333333 0.43333333 0
0.66666667 0.43333333 0
0.7 0.43333333 0
0.73333333 0.43333333 0
0.76666667 0.43333333 0
0.8 0.43333333 0
0.83333333 0.43333333 0
0.86666667 0.43333333 0
0.9 0.43333333 0
0.93333333 0.43333333 0
0.96666667 0.43333333 0
1 0.43333333 0
0 0.46666667 0
0.033333333 0.46666667 0
0.066666667 0.46666667 0
0.1 0.46666667 0
0.13333333 0.46666667 0
0.16666667 0.46666667 0
0.2 0.46666667 0
0.23333333 0.46666667 0
0.26666667 0.46666667 0
0.3 0.46666667 0
0.33333333 0.46666667 0
0.36666667 0.46666667 0
0.4 0.46666667 0
0.43333333 0.46666667 0
0.46666667 0.46666667 0
0.5 0.46666667 0
0.53333333 0.46666667 0
0.56666667 0.46666667 0
0.6 0.46666667 0
0.63333333 0.46666667 0
0.66666667 0.46666667 0
0.7 0.46666667 0
0.73333333 0.46666667 0
0.76666667 0.46666667 0
0.8 0.46666667 0
0.83333333 0.46666667 0
0.86666667 0.46666667 0
0.9 0.46666667 0
0.93333333 0.46666667 0
0.96666667 0.46666667 0
1 0.46666667 0
0 0.5 0
0.033333333 0.5 0
0.066666667 0.5 0
0.1 0.5 0
0.13333333 0.5 0
0.16666667 0.5 0
0.2 0.5 0
0.23333333 0.5 0
0.26666667 0.5 0
0.3 0.5 0
0.33333333 0.5 0
0.36666667 0.5 0
0.4 0.5 0
0.43333333 0.5 0
0.46666667 0.5 0
0.5 0.5 0
0.53333333 0.5 0
0.56666667 0.5 0
0.6 0.5 0
0.63333333 0.5 0
0.66666667 0.5 0
0.7 0.5 0
0.73333333 0.5 0
0.76666667 0.5 0
0.8 0.5 0
0.83333333 0.5 0
0.86666667 0.5 0
0.9 0.5 0
0.93333333 0.5 0
0.96666667 0.5 0
1 0.5 0
0 0.53333333 0
0.033333333 0.53333333 0
0.066666667 0.53333333 0
0.1 0.53333333 0
0.13333333 0.53333333 0
0.16666667 0.53333333 0
0.2 0.53333333 0
0.23333333 0.53333333 0
0.26666667 0.53333333 0
0.3 0.53333333 0
0.33333333 0.53333333 0
0.36666667 0.53333333 0
0.4 0.53333333 0
0.43333333 0.53333333 0
0.46666667 0.53333333 0
0.5 0.53333333 0
0.53333333 0.53333333 0
0.56666667 0.53333333 0
0.6 0.53333333 0
0.63333333 0.53333333 0
0.66666667 0.53333333 0
0.7 0.53333333 0
0.73333333 0.53333333 0
0.76666667 0.53333333 0
0.8 0.53333333 0
[...]
CELL_DATA 1920
Scalars  Label int 1
LOOKUP_TABLE FreeFempp_table
0
0
0
0
0
0
0
0
0
0
0
0
0
0
0
0
0
0
0
0
0
0
0
0
0
0
0
0
0
0
0
0
0
0
0
0
0
0
0
0
0
0
0
0
0
0
0
0
0
0
0
0
0
0
0
0
0
0
0
0
0
0
0
0
0
0
0
0
0
0
0
0
0
0
0
0
0
0
0
0
0
0
0
0
0
0
0
0
0
0
0
0
0
0
0
0
0
0
0
0
0
0
0
0
0
0
0
0
0
0
0
0
0
0
0
0
0
0
0
0
0
0
0
0
0
0
0
0
0
0
0
0
0
0
0
0
0
0
0
0
0
0
0
0
0
0
0
0
0
0
0
0
0
0
0
0
0
0
0
0
0
0
0
0
0
0
0
0
0
0
0
0
0
0
0
0
0
0
0
0
0
0
0
0
0
0
0
0
0
0
0
0
0
0
0
0
0
0
0
0
0
0
0
0
0
0
0
0
0
0
0
0
0
0
0
0
0
0
0
0
0
0
0
0
0
0
0
0
0
0
0
0
0
0
0
0
0
0
0
0
0
0
0
0
0
0
0
0
0
0
0
0
0
0
0
0
0
0
0
0
0
0
0
0
0
0
0
0
0
0
0
0
0
0
0
0
0
0
0
0
0
0
0
0
0
0
0
0
0
0
0
0
0
0
0
0
0
0
0
0
0
0
0
0
0
0
0
0
0
0
0
0
0
0
0
0
0
0
0
0
0
0
0
0
0
0
0
0
0
0
0
0
0
0
0
0
0
0
0
0
0
0
0
0
0
0
0
0
0
0
0
0
0
0
0
0
0
0
0
0
0
0
0
0
0
0
0
0
0
0
0
0
0
0
0
0
0
0
0
0
0
0
0
0
0
0
0
0
0
0
0
0
0
0
0
0
0
0
0
0
0
0
0
0
0
0
0
0
0
0
0
0
0
0
0
0
0
0
0
0
0
0
0
0
0
0
0
0
0
0
0
0
0
0
0
0
0
0
0
0
0
0
0
0
0
0
0
0
0
0
0
0
0
0
0
0
0
0
0
0
0
0
0
0
0
0
0
0
0
0
0
0
0
0
0
0
0
0
0
0
0
0
0
0
0
0
0
0
0
0
0
0
0
0
0
0
0
0
0
0
0
0
0
0
0
0
0
0
0
0
0
0
0
0
0
0
0
0
0
0
0
0
0
0
0
0
0
0
0
0
0
0
0
0
0
0
0
0
0
0
0
0
0
0
0
0
0
0
0
0
0
0
0
0
0
0
0
0
0
0
0
0
0
0
0
0
0
0
0
0
0
0
0
0
0
0
0
0
0
0
0
0
0
0
0
0
0
0
0
0
0
0
0
0
0
0
0
0
0
0
0
0
0
0
0
0
0
0
0
0
0
0
0
0
0
0
0
0
0
0
0
0
0
0
0
0
0
0
0
0
0
0
0
0
0
0
0
0
0
0
0
0
0
0
0
0
0
0
0
0
0
0
0
0
0
0
0
0
0
0
0
0
0
0
0
0
0
0
0
0
0
0
0
0
0
0
0
0
0
0
0
0
0
0
0
0
0
0
0
0
0
0
0
0
0
0
0
0
0
0
0
0
0
0
0
0
0
0
0
0
0
0
0
0
0
0
0
0
0
0
0
0
0
0
0
0
0
0
0
0
0
0
0
0
0
0
0
0
0
0
0
0
0
0
0
0
0
0
0
0
0
0
0
0
0
0
0
0
0
0
0
0
0
0
0
0
0
0
0
0
0
0
0
0
0
0
0
0
0
0
0
0
0
0
0
0
0
0
0
0
0
0
0
0
0
0
0
0
0
0
0
0
0
0
0
0
0
0
0
0
0
0
0
0
0
0
0
0
0
0
0
0
0
0
0
0
0
0
0
0
0
0
0
0
0
0
0
0
0
0
0
0
0
0
0
0
0
0
0
0
0
0
0
0
0
0
0
0
0
0
0
0
0
0
0
0
0
0
0
0
0
0
0
0
0
0
0
0
0
0
0
0
0
0
0
0
0
0
0
0
0
0
0
0
0
0
0
0
0
0
0
0
0
0
0
0
0
0
0
0
0
0
0
0
0
0
0
0
0
0
0
0
0
0
0
0
0
0
0
0
0
0
0
0
0
0
0
0
0
0
0
0
0
0
0
0
0
0
0
0
0
0
0
0
0
0
0
0
0
0
0
0
0
0
0
0
0
0
0
0
0
0
0
0
0
0
0
0
0
0
0
0
0
0
0
0
0
0
0
0
0
0
0
0
0
0
0
0
0
0
0
0
0
0
0
0
0
0
0
0
0
0
0
0
0
0
0
0
0
0
0
0
0
0
0
0
0
0
0
0
0
0
0
0
0
0
0
0
0
0
0
0
0
0
0
0
0
0
0
0
0
0
0
0
0
0
0
0
0
0
0
0
0
0
0
0
0
0
0
0
0
0
0
0
0
0
0
0
0
0
0
0
0
0
0
0
0
0
0
0
0
0
0
0
0
0
0
0
0
0
0
0
0
0
0
0
0
0
0
0
0
0
0
0
0
0
0
0
0
0
0
0
0
0
0
0
0
0
0
0
0
0
0
0
0
0
0
0
0
0
0
0
0
0
0
0
0
0
0
0
0
0
0
0
0
0
0
0
0
0
0
0
0
0
0
0
0
0
0
0
0
0
0
0
0
0
0
0
0
0
0
0
0
0
0
0
0
0
0
0
0
0
0
0
0
0
0
0
0
0
0
0
0
0
0
0
0
0
0
0
0
0
0
0
0
0
0
0
0
0
0
0
0
0
0
0
0
0
0
0
0
0
0
0
0
0
0
0
0
0
0
0
0
0
0
0
0
0
0
0
0
0
0
0
0
0
0
0
0
0
0
0
0
0
0
0
0
0
0
0
0
0
0
0
0
0
0
0
0
0
0
0
0
0
0
0
0
0
0
0
0
0
0
0
0
0
0
0
0
0
0
0
0
0
0
0
0
0
0
0
0
0
0
0
0
0
0
0
0
0
0
0
0
0
0
0
0
0
0
0
0
0
0
0
0
0
0
0
0
0
0
0
0
0
0
0
0
0
0
0
0
0
0
0
0
0
0
0
0
0
0
0
0
0
0
0
0
0
0
0
0
0
0
0
0
0
0
0
0
0
0
0
0
0
0
0
0
0
0
0
0
0
0
0
0
0
0
0
0
0
0
0
0
0
0
0
0
0
0
0
0
0
0
0
0
0
0
0
0
0
0
0
0
0
0
0
0
0
0
0
0
0
0
0
0
0
0
0
0
0
0
0
0
0
0
0
0
0
0
0
0
0
0
0
0
0
0
0
0
0
0
0
0
0
0
0
0
0
0
0
0
0
0
0
0
0
0
0
0
0
0
0
0
0
0
0
0
0
0
0
0
0
0
0
0
0
0
0
0
0
0
0
0
0
0
0
0
0
0
0
0
0
0
0
0
0
0
0
0
0
0
0
0
0
0
0
0
0
0
0
0
0
0
0
0
0
0
0
0
0
0
0
0
0
0
0
0
0
0
0
0
0
0
0
0
0
0
0
0
0
0
0
0
0
0
0
0
0
0
0
0
0
0
0
0
0
0
0
0
0
0
0
0
0
0
0
0
0
0
0
0
0
0
0
0
0
0
0
0
0
0
0
0
0
0
0
0
0
0
0
0
0
0
0
0
0
0
0
0
0
0
0
0
0
0
0
0
0
0
0
0
0
0
0
0
0
0
0
0
0
0
0
0
0
0
0
0
0
0
0
0
0
0
0
0
0
0
0
0
0
0
0
0
0
0
0
0
0
0
0
0
0
0
0
0
0
0
0
0
0
0
0
0
0
0
0
0
0
0
0
0
0
0
0
0
0
0
0
0
0
0
0
0
0
0
0
0
0
0
0
0
0
0
0
0
0
0
0
0
0
0
0
0
0
0
0
0
0
0
0
0
0
0
0
0
0
0
0
0
0
0
0
0
0
0
0
0
0
0
0
0
0
0
0
0
0
0
0
0
0
0
0
0
0
0
0
0
0
0
0
0
0
0
0
0
0
0
0
0
0
0
0
0
0
0
0
0
0
0
0
0
0
0
0
0
0
0
0
0
0
1
1
1
1
1
1
1
1
1
1
1
1
1
1
1
1
1
1
1
1
1
1
1
1
1
1
1
1
1
1
2
2
2
2
2
2
2
2
2
2
2
2
2
2
2
2
2
2
2
2
2
2
2
2
2
2
2
2
2
2
3
3
3
3
3
3
3
3
3
3
3
3
3
3
3
3
3
3
3
3
3
3
3
3
3
3
3
3
3
3
4
4
4
4
4
4
4
4
4
4
4
4
4
4
4
4
4
4
4
4
4
4
4
4
4
4
4
4
4
4

LOOKUP_TABLE FreeFempp_table 5
1.00000000 0.00000000 0.00000000 1.00000000
1.00000000 1.00000000 0.00000000 1.00000000
1.00000000 0.00000000 1.00000000 1.00000000
0.00000000 1.00000000 0.00000000 1.00000000
0.00000000 1.00000000 1.00000000 1.00000000

POINT_DATA 961
FIELD FieldData 1
Density 1 961 float
9.02477726e-02 1.87370684e-02 1.34148030e-02 1.28488531e-02 1.24460505e-02 1.10459905e-02 7.18896417e-03 1.03101844e-03 1.80535033e-04 1.78506743e-04 1.77736234e-04 1.79459996e-04 5.05264907e-04 3.49764712e-03 6.01542480e-02 9.95522738e-01 9.99463320e-01 9.98499215e-01 9.99586165e-01 9.99733865e-01 9.98944581e-01 9.96005297e-01 9.86792982e-01 9.50730741e-01 8.68988931e-01 7.63715923e-01 6.68890119e-01 5.96617937e-01 5.40773630e-01 5.52949250e-01 5.67137659e-01 2.39550546e-02 1.35352602e-03 1.14541512e-03 1.00507319e-03 1.03654538e-03 1.02243735e-03 8.11115198e-04 3.55451222e-04 1.74339235e-04 1.72874454e-04 1.71358304e-04 1.72404063e-04 1.96384673e-04 6.20368868e-04 1.43551687e-03 9.94130254e-01 9.99724865e-01 3.83801991e-03 4.25005471e-03 9.99061048e-01 9.99086499e-01 9.99069810e-01 9.98268545e-01 9.96082604e-01 9.83140886e-01 9.20775712e-01 7.82215297e-01 6.32919788e-01 5.17408729e-01 4.65142667e-01 5.49411178e-01 1.70404994e-04 1.71884531e-04 1.76234986e-04 1.76520785e-04 1.67407838e-04 1.48712483e-04 1.36545175e-04 1.37580195e-04 1.51213797e-04 1.63512203e-04 1.62411787e-04 1.58714887e-04 1.61301112e-04 8.30969599e-04 6.27678877e-04 3.67968529e-03 9.99087036e-01 1.81307929e-04 1.82354343e-04 1.82435077e-04 1.82438802e-04 1.82429198e-04 1.82438671e-04 2.12389021e-03 6.22626901e-01 5.05216300e-01 2.33564124e-01 1.39591828e-01 1.08500473e-01 8.19089711e-02 3.26079279e-01 1.60406766e-04 1.57804621e-04 1.68733925e-04 1.72587810e-04 1.70953645e-04 1.57778792e-04 1.41225188e-04 1.35227427e-04 1.44009100e-04 1.61612130e-04 1.63715726e-04 1.51504792e-04 1.28015148e-04 1.24969461e-04 1.56265829e-04 1.65814999e-04 3.81782814e-03 3.36028315e-04 1.82370743e-04 1.82300006e-04 1.82309610e-04 1.82124248e-04 1.81337688e-04 1.80710384e-04 1.80421659e-04 2.22418690e-03 2.57952530e-02 1.79042835e-02 1.43485684e-02 1.15662348e-02 1.17034815e-01 1.67675316e-04 1.57936447e-04 1.70651794e-04 1.74557063e-04 1.75455876e-04 1.76269474e-04 4.34203394e-04 7.08643405e-04 7.70289509e-04 7.64765020e-04 5.19486435e-04 1.73525725e-04 1.57462229e-04 1.24522863e-04 1.25839622e-04 1.21365745e-04 1.19154967e-04 9.99796093e-01 9.99797404e-01 1.83235941e-04 1.82335338e-04 1.82033051e-04 1.81049720e-04 1.78126764e-04 1.72042986e-04 1.74047513e-04 6.40491431e-04 4.38383268e-03 4.45862208e-03 3.88832577e-03 4.96495403e-02 8.31748359e-04 1.75286521e-04 1.75411376e-04 1.77144742e-04 1.77642782e-04 1.78595350e-04 2.76622508e-04 4.86632111e-04 6.05172536e-04 6.42131665e-04 6.20904029e-04 5.33560873e-04 5.78345440e-04 5.50351280e-04 1.66546859e-04 1.51512388e-04 1.08814318e-04 1.11141460e-04 1.23306585e-04 9.99808848e-01 1.83583034e-04 1.82551172e-04 1.82093281e-04 1.81008567e-04 1.73277818e-04 1.61678370e-04 1.71844003e-04 6.22961437e-04 2.66616442e-03 2.59253220e-03 3.36169191e-02 1.42651505e-03 1.85747034e-04 1.80863484e-04 1.80324336e-04 1.80124756e-04 2.00779643e-04 2.89790361e-04 4.80172224e-04 6.80430734e-04 8.28293967e-04 9.11984476e-04 8.67787690e-04 7.72861764e-04 8.12059152e-04 8.00154754e-04 9.24454303e-04 7.11003086e-04 1.22476107e-04 1.14506220e-04 1.14137743e-04 9.99799252e-01 9.99516487e-01 9.99783635e-01 9.99762654e-01 9.97328877e-01 1.71745283e-04 1.65723453e-04 1.76718153e-04 1.07076694e-03 2.08815956e-03 2.66136993e-02 6.80739945e-03 3.30819661e-04 2.58439715e-04 2.61378329e-04 3.12642631e-04 4.35697875e-04 6.52190356e-04 9.75432340e-04 1.43611687e-03 1.97965419e-03 2.46325647e-03 2.64203874e-03 2.48256861e-03 2.26953113e-03 1.98703748e-03 1.75484887e-03 1.71434239e-03 1.56986224e-03 1.35042483e-03 1.16475188e-04 1.18096774e-04 9.99610066e-01 9.99771059e-01 9.99755263e-01 8.55548143e-01 1.26074180e-01 1.78854476e-04 1.80055780e-04 1.78244911e-04 1.62950694e-03 2.16416996e-02 1.92061841e-01 4.58017876e-03 3.29496874e-03 3.09867552e-03 3.67327710e-03 4.96139983e-03 6.66978909e-03 8.90636537e-03 1.24813020e-02 1.72539558e-02 2.14482807e-02 2.26467606e-02 2.04646643e-02 1.67589579e-02 1.28298048e-02 9.52300802e-03 7.06737349e-03 4.84551257e-03 3.08504584e-03 2.39630835e-03 1.26426909e-04 1.34130401e-04 2.19709706e-04 1.83230324e-04 1.84701217e-04 1.86744131e-04 9.99793231e-01 1.93248663e-04 2.12726693e-04 2.60477857e-04 1.80202872e-02 9.36501741e-01 9.08265233e-01 8.58437836e-01 7.94912636e-01 7.19701648e-01 6.33965552e-01 5.44658661e-01 4.78302240e-01 4.45445925e-01 4.28070694e-01 4.02927727e-01 3.58803183e-01 2.99299836e-01 2.35109612e-01 1.75948307e-01 1.28174439e-01 9.15015116e-02 6.16196692e-02 3.52372937e-02 1.49909183e-02 5.91025781e-03 1.53878093e-04 1.72058397e-04 1.83976648e-04 1.85228753e-04 1.84107485e-04 9.99797940e-01 7.35789597e-01 2.33107960e-04 2.12495899e-04 1.31277656e-02 9.89612818e-01 9.97778833e-01 9.96740639e-01 9.95746195e-01 9.93890822e-01 9.90383625e-01 9.83946681e-01 9.73514080e-01 9.58852410e-01 9.39563751e-01 9.13294613e-01 8.76233041e-01 8.25523198e-01 7.61642039e-01 6.90314353e-01 6.21122420e-01 5.61987042e-01 5.18642783e-01 4.89060163e-01 4.54031408e-01 3.59395415e-01 7.77107924e-02 1.82724310e-04 1.83619442e-04 1.84940072e-04 1.84707023e-04 1.84126344e-04 9.99814451e-01 2.19267968e-04 2.25796786e-04 2.47866707e-03 9.87254858e-01 9.98630226e-01 9.98091578e-01 9.97900665e-01 9.97433066e-01 9.96539712e-01 9.94900644e-01 9.92118597e-01 9.87764359e-01 9.81222570e-01 9.71260309e-01 9.55881655e-01 9.32827652e-01 9.00756538e-01 8.60944390e-01 8.17772925e-01 7.78166473e-01 7.53862262e-01 7.61907458e-01 8.19495022e-01 9.05654550e-01 9.62757468e-01 9.89649236e-01 4.37783514e-04 1.83582626e-04 1.83886237e-04 1.83219512e-04 1.86264340e-04 9.99806523e-01 2.61790556e-04 2.33260129e-04 8.61118138e-01 9.90424633e-01 9.89263892e-01 9.91769433e-01 9.92944837e-01 9.93032098e-01 9.91975367e-01 9.89753962e-01 9.86275256e-01 9.81086373e-01 9.72994447e-01 9.59970951e-01 9.39429641e-01 9.09037650e-01 8.67927432e-01 8.16979289e-01 7.58744955e-01 7.00360715e-01 6.58232749e-01 6.65433109e-01 7.65312254e-01 9.08573627e-01 9.93588805e-01 9.99014139e-01 9.22015488e-01 1.82824588e-04 1.82819727e-04 1.87698795e-04 9.99820232e-01 2.21797134e-04 2.30842852e-04 5.25649786e-02 4.21253517e-02 7.66208619e-02 2.24577770e-01 5.58448970e-01 8.18354785e-01 9.12649155e-01 9.43827450e-01 9.54317987e-01 9.55004096e-01 9.47626293e-01 9.30415332e-01 8.99737120e-01 8.52001905e-01 7.86491811e-01 7.06636488e-01 6.18857086e-01 5.31364918e-01 4.52443957e-01 3.88954431e-01 3.43579262e-01 3.08773994e-01 4.05728698e-01 9.62215483e-01 9.99573827e-01 9.99064147e-01 3.92279326e-04 1.86051635e-04 9.99838173e-01 2.08105484e-04 2.13954962e-04 2.21641664e-03 3.93197814e-04 4.22177691e-04 6.45319116e-04 1.53140433e-03 6.73742639e-03 5.13919890e-02 3.05247992e-01 6.61695540e-01 8.10859978e-01 8.44509006e-01 8.26373041e-01 7.69194305e-01 6.75886571e-01 5.58961272e-01 4.41746026e-01 3.44663411e-01 2.75849462e-01 2.32969940e-01 2.07307816e-01 1.80853069e-01 1.22648217e-01 4.70325761e-02 1.98446698e-02 1.05832539e-01 8.36411715e-01 3.54933709e-01 9.78339434e-01 9.99800861e-01 1.95105371e-04 1.98573514e-04 5.99027437e-04 1.82549993e-04 1.82549105e-04 1.82548742e-04 2.04847369e-04 3.35087767e-04 1.12974003e-03 1.01809911e-02 1.16238639e-01 4.22039807e-01 6.00157082e-01 6.13164067e-01 5.32883227e-01 4.03847277e-01 2.74366766e-01 1.78093120e-01 1.19187310e-01 8.74887332e-02 7.30259940e-02 6.92820102e-02 7.00900480e-02 6.30829409e-02 3.64527442e-02 1.18508041e-02 3.92145803e-03 3.10892914e-03 1.85640901e-01 9.99740779e-01 9.99798059e-01 1.87734287e-04 1.90192994e-04 3.42833926e-04 1.82546573e-04 1.82545467e-04 1.82544609e-04 1.82543561e-04 1.82541829e-04 2.92778597e-04 1.54010102e-03 2.21952982e-02 1.78942770e-01 3.84010583e-01 4.24701869e-01 3.46653461e-01 2.28607967e-01 1.31255031e-01 7.26131499e-02 4.24337611e-02 2.78757922e-02 2.12527420e-02 1.88443456e-02 1.88551117e-02 2.00029649e-02 2.06283797e-02 1.88580099e-02 1.50358919e-02 4.12175953e-02 9.93457258e-01 9.99797106e-01 9.99797285e-01 1.85576006e-04 1.86812409e-04 2.57453852e-04 1.82542877e-04 1.82541960e-04 1.82542717e-04 1.82541597e-04 1.82540229e-04 2.05082644e-04 8.47868796e-04 1.29899066e-02 1.30865723e-01 3.15417707e-01 3.53825331e-01 2.77880043e-01 1.70375988e-01 8.89032409e-02 4.41238210e-02 2.29969658e-02 1.34649035e-02 9.20007564e-03 7.45408796e-03 7.21827522e-03 8.61927960e-03 1.41797038e-02 4.29638214e-02 3.32982451e-01 9.83238161e-01 9.99593437e-01 9.99797106e-01 8.88648331e-01 1.84375924e-04 1.85086916e-04 2.14375323e-04 1.82539603e-04 1.82538788e-04 1.82540694e-04 1.82540520e-04 1.82542033e-04 2.00244045e-04 1.03945204e-03 1.99969411e-02 1.66791365e-01 3.35734457e-01 3.57403159e-01 2.80170530e-01 1.73218712e-01 8.91118571e-02 4.19702046e-02 2.01178584e-02 1.06820930e-02 6.67126197e-03 5.13540814e-03 5.17712254e-03 7.87200313e-03 2.60803420e-02 3.27442199e-01 9.78512526e-01 9.99114037e-01 9.99786258e-01 9.99741614e-01 1.82604941e-04 1.83534328e-04 1.84096512e-04 1.85493307e-04 1.82536663e-04 1.82536096e-04 1.82538526e-04 1.82541145e-04 1.82545584e-04 2.54095590e-04 2.91082682e-03 5.90147562e-02 2.51076162e-01 3.70116174e-01 3.74243826e-01 3.09740275e-01 2.12156639e-01 1.20006785e-01 5.90692945e-02 2.80396231e-02 1.43169491e-02 8.65023397e-03 6.81719650e-03 8.13075434e-03 2.04681903e-02 2.03232810e-01 9.59397256e-01 9.98628139e-01 9.99693573e-01 9.99769092e-01 1.10257585e-02 1.82583317e-04 1.82738673e-04 1.83117765e-04 1.82545657e-04 1.82533666e-04 1.82533928e-04 1.82534292e-04 1.82540607e-04 1.82555566e-04 6.23795728e-04 2.03615297e-02 1.70955226e-01 3.07738483e-01 3.53761554e-01 3.59955609e-01 3.35529745e-01 2.75908411e-01 1.92203403e-01 1.13828391e-01 6.20122701e-02 3.53639275e-02 2.43306272e-02 2.40386818e-02 4.54614647e-02 2.42288247e-01 9.18918967e-01 9.97519791e-01 9.99607682e-01 9.99746323e-01 9.94511783e-01 1.82562930e-04 1.82570919e-04 1.82599135e-04 1.82608317e-04 1.82541000e-04 1.82527074e-04 1.82530013e-04 1.82532443e-04 1.82540927e-04 2.03310803e-04 5.86749148e-03 1.43784240e-01 2.66005397e-01 2.65217572e-01 2.72123754e-01 3.06487530e-01 3.43681306e-01 3.52755725e-01 3.19721788e-01 2.57101238e-01 1.95909768e-01 1.62920699e-01 1.77780300e-01 3.00298125e-01 6.72008216e-01 9.57782090e-01 9.96087015e-01 9.99381900e-01 9.99708593e-01 9.98792946e-01 1.82555930e-04 1.82547781e-04 1.82550197e-04 1.82562595e-04 1.82567746e-04 1.82530814e-04 1.82510688e-04 1.82512886e-04 1.82528689e-04 1.82550328e-04 7.84346077e-04 1.22891039e-01 3.08192998e-01 2.12780371e-01 1.57003790e-01 1.69819370e-01 2.35410661e-01 3.34105998e-01 4.26381946e-01 4.83630329e-01 5.11714756e-01 5.46617091e-01 6.42296016e-01 8.15317690e-01 9.50973213e-01 9.91160035e-01 9.97982025e-01 9.99203384e-01 9.99450505e-01 9.96681452e-01 1.82544987e-04 1.82546282e-04 1.82541931e-04 1.82539807e-04 1.82541058e-04 1.82553369e-04 1.82510310e-04 1.82478689e-04 1.82479038e-04 1.82517091e-04 1.82563672e-04 2.94534843e-02 4.35605228e-01 2.38678381e-01 9.62929502e-02 7.12250844e-02 9.42476243e-02 1.68664381e-01 3.06679040e-01 4.76042330e-01 6.23707831e-01 7.39804029e-01 8.43076527e-01 9.32082713e-01 9.81041253e-01 9.95676041e-01 9.98812973e-01 9.99482632e-01 9.99432266e-01 9.49506402e-01 1.82501972e-04 1.82540869e-04 1.82540782e-04 1.82538890e-04 1.82542964e-04 1.82543416e-04 1.82551346e-04 1.82467236e-04 1.82425443e-04 1.82447577e-04 1.82504184e-04 6.08491886e-04 5.05127490e-01 3.83354187e-01 8.33203048e-02 3.26366611e-02 3.07384823e-02 5.09249568e-02 1.12424128e-01 2.55351841e-01 4.80517238e-01 7.00008035e-01 8.50713968e-01 9.38080370e-01 9.80051160e-01 9.94679272e-01 9.98522758e-01 9.99467313e-01 9.99682605e-01 9.99415278e-01 4.96853190e-03 1.82476040e-04 1.82541320e-04 1.82542615e-04 1.82544056e-04 1.82551186e-04 1.82556891e-04 1.62919797e-03 1.82364281e-04 1.82236399e-04 1.82414282e-04 1.82514719e-04 4.88068871e-02 6.44552410e-01 1.23577163e-01 2.08105817e-02 1.18944030e-02 1.44156860e-02 2.71321293e-02 6.62214682e-02 1.78566381e-01 4.21963900e-01 7.09723771e-01 8.86962652e-01 9.61693168e-01 9.88329232e-01 9.96575773e-01 9.98890042e-01 9.99535263e-01 9.99693036e-01 9.99487579e-01 2.50566870e-01 1.82458796e-04 1.82560325e-04 1.82572519e-04 1.82590244e-04 5.83516725e-04 4.22262520e-01 4.54436392e-01 1.82178817e-04 1.81951604e-04 1.82259027e-04 2.30658217e-04 6.81346059e-01 2.78178185e-01 2.13979520e-02 6.54427428e-03 5.43612847e-03 7.44747557e-03 1.37811387e-02 3.24451961e-02 9.48904827e-02 2.93174684e-01 6.46169603e-01 8.83790731e-01 9.65169668e-01 9.89049852e-01 9.96332705e-01 9.98635113e-01 9.99380648e-01 9.99602437e-01 9.99533832e-01 9.96385932e-01 3.11326813e-02 1.21283131e-02 9.87129152e-01 9.99549270e-01 9.99695480e-01 9.99713063e-01 9.96334970e-01 1.81481548e-04 1.81891868e-04 1.82222022e-04 1.29851969e-02 5.98823428e-01 3.49358879e-02 5.29645057e-03 3.05818208e-03 3.10647301e-03 4.14321618e-03 6.63354667e-03 1.32699646e-02 3.64759117e-02 1.38041854e-01 4.79830295e-01 8.43292058e-01 9.60190237e-01 9.87354577e-01 9.95027959e-01 9.97768998e-01 9.98876393e-01 9.99322414e-01 9.99443889e-01 9.99280155e-01 9.98910487e-01 9.99415994e-01 9.99751151e-01 9.99787629e-01 9.99759614e-01 9.99756157e-01 9.98569608e-01 1.80160743e-04 1.80969757e-04 1.82436270e-04 5.99174500e-01 6.86683878e-02 6.12739474e-03 2.57972954e-03 2.09513935e-03 2.18054117e-03 2.52696732e-03 3.24679725e-03 5.03249327e-03 1.07690850e-02 3.66727039e-02 1.87627897e-01 6.56750619e-01 9.29614067e-01 9.82377827e-01 9.93344605e-01 9.96682644e-01 9.98101294e-01 9.98829484e-01 9.99196589e-01 9.99331176e-01 9.99346018e-01 9.99367774e-01 9.99396682e-01 9.99350905e-01 9.99237299e-01 9.99260187e-01 9.96357739e-01 1.81522293e-04 1.80636765e-04 1.56361703e-02 5.24095476e-01 1.23038990e-02 3.93671077e-03 2.50701909e-03 1.96932186e-03 1.67884992e-03 1.50703650e-03 1.47690682e-03 1.69705949e-03 2.52725556e-03 5.68771875e-03 2.41715442e-02 1.96752012e-01 7.92985976e-01 9.75275934e-01 9.94496942e-01 9.97753143e-01 9.98631954e-01 9.98901069e-01 9.98911023e-01 9.98717308e-01 9.98238981e-01 9.97208536e-01 9.94974136e-01 9.90594625e-01 9.83751774e-01 9.81506944e-01 9.67818856e-01 1.82853517e-04 1.82561620e-04 9.97842133e-01 4.37662572e-01 2.29906216e-01 1.12566106e-01 5.58805726e-02 3.04603837e-02 1.90524943e-02 1.33039905e-02 1.05584571e-02 1.01757115e-02 1.29246647e-02 2.33635921e-02 6.24183901e-02 2.17313349e-01 5.97193599e-01 8.85142386e-01 9.68006492e-01 9.87534702e-01 9.92666066e-01 9.93376136e-01 9.90549862e-01 9.79072750e-01 9.43667829e-01 8.77182603e-01 8.01040590e-01 7.11450994e-01 5.97087562e-01 4.77585196e-01 6.06839240e-01 
