# vtk DataFile Version 2.0
results/6_density.vtk, Created by Freefem++ 
ASCII
DATASET UNSTRUCTURED_GRID
POINTS 961 float
0 0 0
0.033333333 0 0
0.066666667 0 0
0.1 0 0
0.13333333 0 0
0.16666667 0 0
0.2 0 0
0.23333333 0 0
0.26666667 0 0
0.3 0 0
0.33333333 0 0
0.36666667 0 0
0.4 0 0
0.43333333 0 0
0.46666667 0 0
0.5 0 0
0.53333333 0 0
0.56666667 0 0
0.6 0 0
0.63333333 0 0
0.66666667 0 0
0.7 0 0
0.73333333 0 0
0.76666667 0 0
0.8 0 0
0.83333333 0 0
0.86666667 0 0
0.9 0 0
0.93333333 0 0
0.96666667 0 0
1 0 0
0 0.033333333 0
0.033333333 0.033333333 0
0.066666667 0.033333333 0
0.1 0.033333333 0
0.13333333 0.033333333 0
0.16666667 0.033333333 0
0.2 0.033333333 0
0.23333333 0.033333333 0
0.26666667 0.033333333 0
0.3 0.033333333 0
0.33333333 0.033333333 0
0.36666667 0.033333333 0
0.4 0.033333333 0
0.43333333 0.033333333 0
0.46666667 0.033333333 0
0.5 0.033333333 0
0.53333333 0.033333333 0
0.56666667 0.033333333 0
0.6 0.033333333 0
0.63333333 0.033333333 0
0.66666667 0.033333333 0
0.7 0.033333333 0
0.73333333 0.033333333 0
0.76666667 0.033333333 0
0.8 0.033333333 0
0.83333333 0.033333333 0
0.86666667 0.033333333 0
0.9 0.033333333 0
0.93333333 0.033333333 0
0.96666667 0.033333333 0
1 0.033333333 0
0 0.066666667 0
0.033333333 0.066666667 0
0.066666667 0.066666667 0
0.1 0.066666667 0
0.13333333 0.066666667 0
0.16666667 0.066666667 0
0.2 0.066666667 0
0.23333333 0.066666667 0
0.26666667 0.066666667 0
0.3 0.066666667 0
0.33333333 0.066666667 0
0.36666667 0.066666667 0
0.4 0.066666667 0
0.43333333 0.066666667 0
0.46666667 0.066666667 0
0.5 0.066666667 0
0.53333333 0.066666667 0
0.56666667 0.066666667 0
0.6 0.066666667 0
0.63333333 0.066666667 0
0.66666667 0.066666667 0
0.7 0.066666667 0
0.73333333 0.066666667 0
0.76666667 0.066666667 0
0.8 0.066666667 0
0.83333333 0.066666667 0
0.86666667 0.066666667 0
0.9 0.066666667 0
0.93333333 0.066666667 0
0.96666667 0.066666667 0
1 0.066666667 0
0 0.1 0
0.033333333 0.1 0
0.066666667 0.1 0
0.1 0.1 0
0.13333333 0.1 0
0.16666667 0.1 0
0.2 0.1 0
0.23333333 0.1 0
0.26666667 0.1 0
0.3 0.1 0
0.33333333 0.1 0
0.36666667 0.1 0
0.4 0.1 0
0.43333333 0.1 0
0.46666667 0.1 0
0.5 0.1 0
0.53333333 0.1 0
0.56666667 0.1 0
0.6 0.1 0
0.63333333 0.1 0
0.66666667 0.1 0
0.7 0.1 0
0.73333333 0.1 0
0.76666667 0.1 0
0.8 0.1 0
0.83333333 0.1 0
0.86666667 0.1 0
0.9 0.1 0
0.93333333 0.1 0
0.96666667 0.1 0
1 0.1 0
0 0.13333333 0
0.033333333 0.13333333 0
0.066666667 0.13333333 0
0.1 0.13333333 0
0.13333333 0.13333333 0
0.16666667 0.13333333 0
0.2 0.13333333 0
0.23333333 0.13333333 0
0.26666667 0.13333333 0
0.3 0.13333333 0
0.33333333 0.13333333 0
0.36666667 0.13333333 0
0.4 0.13333333 0
0.43333333 0.13333333 0
0.46666667 0.13333333 0
0.5 0.13333333 0
0.53333333 0.13333333 0
0.56666667 0.13333333 0
0.6 0.13333333 0
0.63333333 0.13333333 0
0.66666667 0.13333333 0
0.7 0.13333333 0
0.73333333 0.13333333 0
0.76666667 0.13333333 0
0.8 0.13333333 0
0.83333333 0.13333333 0
0.86666667 0.13333333 0
0.9 0.13333333 0
0.93333333 0.13333333 0
0.96666667 0.13333333 0
1 0.13333333 0
0 0.16666667 0
0.033333333 0.16666667 0
0.066666667 0.16666667 0
0.1 0.16666667 0
0.13333333 0.16666667 0
0.16666667 0.16666667 0
0.2 0.16666667 0
0.23333333 0.16666667 0
0.26666667 0.16666667 0
0.3 0.16666667 0
0.33333333 0.16666667 0
0.36666667 0.16666667 0
0.4 0.16666667 0
0.43333333 0.16666667 0
0.46666667 0.16666667 0
0.5 0.16666667 0
0.53333333 0.16666667 0
0.56666667 0.16666667 0
0.6 0.16666667 0
0.63333333 0.16666667 0
0.66666667 0.16666667 0
0.7 0.16666667 0
0.73333333 0.16666667 0
0.76666667 0.16666667 0
0.8 0.16666667 0
0.83333333 0.16666667 0
0.86666667 0.16666667 0
0.9 0.16666667 0
0.93333333 0.16666667 0
0.96666667 0.16666667 0
1 0.16666667 0
0 0.2 0
0.033333333 0.2 0
0.066666667 0.2 0
0.1 0.2 0
0.13333333 0.2 0
0.16666667 0.2 0
0.2 0.2 0
0.23333333 0.2 0
0.26666667 0.2 0
0.3 0.2 0
0.33333333 0.2 0
0.36666667 0.2 0
0.4 0.2 0
0.43333333 0.2 0
0.46666667 0.2 0
0.5 0.2 0
0.53333333 0.2 0
0.56666667 0.2 0
0.6 0.2 0
0.63333333 0.2 0
0.66666667 0.2 0
0.7 0.2 0
0.73333333 0.2 0
0.76666667 0.2 0
0.8 0.2 0
0.83333333 0.2 0
0.86666667 0.2 0
0.9 0.2 0
0.93333333 0.2 0
0.96666667 0.2 0
1 0.2 0
0 0.23333333 0
0.033333333 0.23333333 0
0.066666667 0.23333333 0
0.1 0.23333333 0
0.13333333 0.23333333 0
0.16666667 0.23333333 0
0.2 0.23333333 0
0.23333333 0.23333333 0
0.26666667 0.23333333 0
0.3 0.23333333 0
0.33333333 0.23333333 0
0.36666667 0.23333333 0
0.4 0.23333333 0
0.43333333 0.23333333 0
0.46666667 0.23333333 0
0.5 0.23333333 0
0.53333333 0.23333333 0
0.56666667 0.23333333 0
0.6 0.23333333 0
0.63333333 0.23333333 0
0.66666667 0.23333333 0
0.7 0.23333333 0
0.73333333 0.23333333 0
0.76666667 0.23333333 0
0.8 0.23333333 0
0.83333333 0.23333333 0
0.86666667 0.23333333 0
0.9 0.23333333 0
0.93333333 0.23333333 0
0.96666667 0.23333333 0
1 0.23333333 0
0 0.26666667 0
0.033333333 0.26666667 0
0.066666667 0.26666667 0
0.1 0.26666667 0
0.13333333 0.26666667 0
0.16666667 0.26666667 0
0.2 0.26666667 0
0.23333333 0.26666667 0
0.26666667 0.26666667 0
0.3 0.26666667 0
0.33333333 0.26666667 0
0.36666667 0.26666667 0
0.4 0.26666667 0
0.43333333 0.26666667 0
0.46666667 0.26666667 0
0.5 0.26666667 0
0.53333333 0.26666667 0
0.56666667 0.26666667 0
0.6 0.26666667 0
0.63333333 0.26666667 0
0.66666667 0.26666667 0
0.7 0.26666667 0
0.73333333 0.26666667 0
0.76666667 0.26666667 0
0.8 0.26666667 0
0.83333333 0.26666667 0
0.86666667 0.26666667 0
0.9 0.26666667 0
0.93333333 0.26666667 0
0.96666667 0.26666667 0
1 0.26666667 0
0 0.3 0
0.033333333 0.3 0
0.066666667 0.3 0
0.1 0.3 0
0.13333333 0.3 0
0.16666667 0.3 0
0.2 0.3 0
0.23333333 0.3 0
0.26666667 0.3 0
0.3 0.3 0
0.33333333 0.3 0
0.36666667 0.3 0
0.4 0.3 0
0.43333333 0.3 0
0.46666667 0.3 0
0.5 0.3 0
0.53333333 0.3 0
0.56666667 0.3 0
0.6 0.3 0
0.63333333 0.3 0
0.66666667 0.3 0
0.7 0.3 0
0.73333333 0.3 0
0.76666667 0.3 0
0.8 0.3 0
0.83333333 0.3 0
0.86666667 0.3 0
0.9 0.3 0
0.93333333 0.3 0
0.96666667 0.3 0
1 0.3 0
0 0.33333333 0
0.033333333 0.33333333 0
0.066666667 0.33333333 0
0.1 0.33333333 0
0.13333333 0.33333333 0
0.16666667 0.33333333 0
0.2 0.33333333 0
0.23333333 0.33333333 0
0.26666667 0.33333333 0
0.3 0.33333333 0
0.33333333 0.33333333 0
0.36666667 0.33333333 0
0.4 0.33333333 0
0.43333333 0.33333333 0
0.46666667 0.33333333 0
0.5 0.33333333 0
0.53333333 0.33333333 0
0.56666667 0.33333333 0
0.6 0.33333333 0
0.63333333 0.33333333 0
0.66666667 0.33333333 0
0.7 0.33333333 0
0.73333333 0.33333333 0
0.76666667 0.33333333 0
0.8 0.33333333 0
0.83333333 0.33333333 0
0.86666667 0.33333333 0
0.9 0.33333333 0
0.93333333 0.33333333 0
0.96666667 0.33333333 0
1 0.33333333 0
0 0.36666667 0
0.033333333 0.36666667 0
0.066666667 0.36666667 0
0.1 0.36666667 0
0.13333333 0.36666667 0
0.16666667 0.36666667 0
0.2 0.36666667 0
0.23333333 0.36666667 0
0.26666667 0.36666667 0
0.3 0.36666667 0
0.33333333 0.36666667 0
0.36666667 0.36666667 0
0.4 0.36666667 0
0.43333333 0.36666667 0
0.46666667 0.36666667 0
0.5 0.36666667 0
0.53333333 0.36666667 0
0.56666667 0.36666667 0
0.6 0.36666667 0
0.63333333 0.36666667 0
0.66666667 0.36666667 0
0.7 0.36666667 0
0.73333333 0.36666667 0
0.76666667 0.36666667 0
0.8 0.36666667 0
0.83333333 0.36666667 0
0.86666667 0.36666667 0
0.9 0.36666667 0
0.93333333 0.36666667 0
0.96666667 0.36666667 0
1 0.36666667 0
0 0.4 0
0.033333333 0.4 0
0.066666667 0.4 0
0.1 0.4 0
0.13333333 0.4 0
0.16666667 0.4 0
0.2 0.4 0
0.23333333 0.4 0
0.26666667 0.4 0
0.3 0.4 0
0.33333333 0.4 0
0.36666667 0.4 0
0.4 0.4 0
0.43333333 0.4 0
0.46666667 0.4 0
0.5 0.4 0
0.53333333 0.4 0
0.56666667 0.4 0
0.6 0.4 0
0.63333333 0.4 0
0.66666667 0.4 0
0.7 0.4 0
0.73333333 0.4 0
0.76666667 0.4 0
0.8 0.4 0
0.83333333 0.4 0
0.86666667 0.4 0
0.9 0.4 0
0.93333333 0.4 0
0.96666667 0.4 0
1 0.4 0
0 0.43333333 0
0.033333333 0.43333333 0
0.066666667 0.43333333 0
0.1 0.43333333 0
0.13333333 0.43333333 0
0.16666667 0.43333333 0
0.2 0.43333333 0
0.23333333 0.43333333 0
0.26666667 0.43333333 0
0.3 0.43333333 0
0.33333333 0.43333333 0
0.36666667 0.43333333 0
0.4 0.43333333 0
0.43333333 0.43333333 0
0.46666667 0.43333333 0
0.5 0.43333333 0
0.53333333 0.43333333 0
0.56666667 0.43333333 0
0.6 0.43333333 0
0.63333333 0.43333333 0
0.66666667 0.43333333 0
0.7 0.43333333 0
0.73333333 0.43333333 0
0.76666667 0.43333333 0
0.8 0.43333333 0
0.83333333 0.43333333 0
0.86666667 0.43333333 0
0.9 0.43333333 0
0.93333333 0.43333333 0
0.96666667 0.43333333 0
1 0.43333333 0
0 0.46666667 0
0.033333333 0.46666667 0
0.066666667 0.46666667 0
0.1 0.46666667 0
0.13333333 0.46666667 0
0.16666667 0.46666667 0
0.2 0.46666667 0
0.23333333 0.46666667 0
0.26666667 0.46666667 0
0.3 0.46666667 0
0.33333333 0.46666667 0
0.36666667 0.46666667 0
0.4 0.46666667 0
0.43333333 0.46666667 0
0.46666667 0.46666667 0
0.5 0.46666667 0
0.53333333 0.46666667 0
0.56666667 0.46666667 0
0.6 0.46666667 0
0.63333333 0.46666667 0
0.66666667 0.46666667 0
0.7 0.46666667 0
0.73333333 0.46666667 0
0.76666667 0.46666667 0
0.8 0.46666667 0
0.83333333 0.46666667 0
0.86666667 0.46666667 0
0.9 0.46666667 0
0.93333333 0.46666667 0
0.96666667 0.46666667 0
1 0.46666667 0
0 0.5 0
0.033333333 0.5 0
0.066666667 0.5 0
0.1 0.5 0
0.13333333 0.5 0
0.16666667 0.5 0
0.2 0.5 0
0.23333333 0.5 0
0.26666667 0.5 0
0.3 0.5 0
0.33333333 0.5 0
0.36666667 0.5 0
0.4 0.5 0
0.43333333 0.5 0
0.46666667 0.5 0
0.5 0.5 0
0.53333333 0.5 0
0.56666667 0.5 0
0.6 0.5 0
0.63333333 0.5 0
0.66666667 0.5 0
0.7 0.5 0
0.73333333 0.5 0
0.76666667 0.5 0
0.8 0.5 0
0.83333333 0.5 0
0.86666667 0.5 0
0.9 0.5 0
0.93333333 0.5 0
0.96666667 0.5 0
1 0.5 0
0 0.53333333 0
0.033333333 0.53333333 0
0.066666667 0.53333333 0
0.1 0.53333333 0
0.13333333 0.53333333 0
0.16666667 0.53333333 0
0.2 0.53333333 0
0.23333333 0.53333333 0
0.26666667 0.53333333 0
0.3 0.53333333 0
0.33333333 0.53333333 0
0.36666667 0.53333333 0
0.4 0.53333333 0
0.43333333 0.53333333 0
0.46666667 0.53333333 0
0.5 0.53333333 0
0.53333333 0.53333333 0
0.56666667 0.53333333 0
0.6 0.53333333 0
0.63333333 0.53333333 0
0.66666667 0.53333333 0
0.7 0.53333333 0
0.73333333 0.53333333 0
0.76666667 0.53333333 0
0.8 0.53333333 0
[...]
CELL_DATA 1920
Scalars  Label int 1
LOOKUP_TABLE FreeFempp_table
0
0
0
0
0
0
0
0
0
0
0
0
0
0
0
0
0
0
0
0
0
0
0
0
0
0
0
0
0
0
0
0
0
0
0
0
0
0
0
0
0
0
0
0
0
0
0
0
0
0
0
0
0
0
0
0
0
0
0
0
0
0
0
0
0
0
0
0
0
0
0
0
0
0
0
0
0
0
0
0
0
0
0
0
0
0
0
0
0
0
0
0
0
0
0
0
0
0
0
0
0
0
0
0
0
0
0
0
0
0
0
0
0
0
0
0
0
0
0
0
0
0
0
0
0
0
0
0
0
0
0
0
0
0
0
0
0
0
0
0
0
0
0
0
0
0
0
0
0
0
0
0
0
0
0
0
0
0
0
0
0
0
0
0
0
0
0
0
0
0
0
0
0
0
0
0
0
0
0
0
0
0
0
0
0
0
0
0
0
0
0
0
0
0
0
0
0
0
0
0
0
0
0
0
0
0
0
0
0
0
0
0
0
0
0
0
0
0
0
0
0
0
0
0
0
0
0
0
0
0
0
0
0
0
0
0
0
0
0
0
0
0
0
0
0
0
0
0
0
0
0
0
0
0
0
0
0
0
0
0
0
0
0
0
0
0
0
0
0
0
0
0
0
0
0
0
0
0
0
0
0
0
0
0
0
0
0
0
0
0
0
0
0
0
0
0
0
0
0
0
0
0
0
0
0
0
0
0
0
0
0
0
0
0
0
0
0
0
0
0
0
0
0
0
0
0
0
0
0
0
0
0
0
0
0
0
0
0
0
0
0
0
0
0
0
0
0
0
0
0
0
0
0
0
0
0
0
0
0
0
0
0
0
0
0
0
0
0
0
0
0
0
0
0
0
0
0
0
0
0
0
0
0
0
0
0
0
0
0
0
0
0
0
0
0
0
0
0
0
0
0
0
0
0
0
0
0
0
0
0
0
0
0
0
0
0
0
0
0
0
0
0
0
0
0
0
0
0
0
0
0
0
0
0
0
0
0
0
0
0
0
0
0
0
0
0
0
0
0
0
0
0
0
0
0
0
0
0
0
0
0
0
0
0
0
0
0
0
0
0
0
0
0
0
0
0
0
0
0
0
0
0
0
0
0
0
0
0
0
0
0
0
0
0
0
0
0
0
0
0
0
0
0
0
0
0
0
0
0
0
0
0
0
0
0
0
0
0
0
0
0
0
0
0
0
0
0
0
0
0
0
0
0
0
0
0
0
0
0
0
0
0
0
0
0
0
0
0
0
0
0
0
0
0
0
0
0
0
0
0
0
0
0
0
0
0
0
0
0
0
0
0
0
0
0
0
0
0
0
0
0
0
0
0
0
0
0
0
0
0
0
0
0
0
0
0
0
0
0
0
0
0
0
0
0
0
0
0
0
0
0
0
0
0
0
0
0
0
0
0
0
0
0
0
0
0
0
0
0
0
0
0
0
0
0
0
0
0
0
0
0
0
0
0
0
0
0
0
0
0
0
0
0
0
0
0
0
0
0
0
0
0
0
0
0
0
0
0
0
0
0
0
0
0
0
0
0
0
0
0
0
0
0
0
0
0
0
0
0
0
0
0
0
0
0
0
0
0
0
0
0
0
0
0
0
0
0
0
0
0
0
0
0
0
0
0
0
0
0
0
0
0
0
0
0
0
0
0
0
0
0
0
0
0
0
0
0
0
0
0
0
0
0
0
0
0
0
0
0
0
0
0
0
0
0
0
0
0
0
0
0
0
0
0
0
0
0
0
0
0
0
0
0
0
0
0
0
0
0
0
0
0
0
0
0
0
0
0
0
0
0
0
0
0
0
0
0
0
0
0
0
0
0
0
0
0
0
0
0
0
0
0
0
0
0
0
0
0
0
0
0
0
0
0
0
0
0
0
0
0
0
0
0
0
0
0
0
0
0
0
0
0
0
0
0
0
0
0
0
0
0
0
0
0
0
0
0
0
0
0
0
0
0
0
0
0
0
0
0
0
0
0
0
0
0
0
0
0
0
0
0
0
0
0
0
0
0
0
0
0
0
0
0
0
0
0
0
0
0
0
0
0
0
0
0
0
0
0
0
0
0
0
0
0
0
0
0
0
0
0
0
0
0
0
0
0
0
0
0
0
0
0
0
0
0
0
0
0
0
0
0
0
0
0
0
0
0
0
0
0
0
0
0
0
0
0
0
0
0
0
0
0
0
0
0
0
0
0
0
0
0
0
0
0
0
0
0
0
0
0
0
0
0
0
0
0
0
0
0
0
0
0
0
0
0
0
0
0
0
0
0
0
0
0
0
0
0
0
0
0
0
0
0
0
0
0
0
0
0
0
0
0
0
0
0
0
0
0
0
0
0
0
0
0
0
0
0
0
0
0
0
0
0
0
0
0
0
0
0
0
0
0
0
0
0
0
0
0
0
0
0
0
0
0
0
0
0
0
0
0
0
0
0
0
0
0
0
0
0
0
0
0
0
0
0
0
0
0
0
0
0
0
0
0
0
0
0
0
0
0
0
0
0
0
0
0
0
0
0
0
0
0
0
0
0
0
0
0
0
0
0
0
0
0
0
0
0
0
0
0
0
0
0
0
0
0
0
0
0
0
0
0
0
0
0
0
0
0
0
0
0
0
0
0
0
0
0
0
0
0
0
0
0
0
0
0
0
0
0
0
0
0
0
0
0
0
0
0
0
0
0
0
0
0
0
0
0
0
0
0
0
0
0
0
0
0
0
0
0
0
0
0
0
0
0
0
0
0
0
0
0
0
0
0
0
0
0
0
0
0
0
0
0
0
0
0
0
0
0
0
0
0
0
0
0
0
0
0
0
0
0
0
0
0
0
0
0
0
0
0
0
0
0
0
0
0
0
0
0
0
0
0
0
0
0
0
0
0
0
0
0
0
0
0
0
0
0
0
0
0
0
0
0
0
0
0
0
0
0
0
0
0
0
0
0
0
0
0
0
0
0
0
0
0
0
0
0
0
0
0
0
0
0
0
0
0
0
0
0
0
0
0
0
0
0
0
0
0
0
0
0
0
0
0
0
0
0
0
0
0
0
0
0
0
0
0
0
0
0
0
0
0
0
0
0
0
0
0
0
0
0
0
0
0
0
0
0
0
0
0
0
0
0
0
0
0
0
0
0
0
0
0
0
0
0
0
0
0
0
0
0
0
0
0
0
0
0
0
0
0
0
0
0
0
0
0
0
0
0
0
0
0
0
0
0
0
0
0
0
0
0
0
0
0
0
0
0
0
0
0
0
0
0
0
0
0
0
0
0
0
0
0
0
0
0
0
0
0
0
0
0
0
0
0
0
0
0
0
0
0
0
0
0
0
0
0
0
0
0
0
0
0
0
0
0
0
0
0
0
0
0
0
0
0
0
0
0
0
0
0
0
0
0
0
0
0
0
0
0
0
0
0
0
0
0
0
0
0
0
0
0
0
0
0
0
0
0
0
0
0
0
0
0
0
0
0
0
0
0
0
0
0
0
0
0
0
0
0
0
0
0
0
0
0
0
0
0
0
0
0
0
0
0
0
0
0
0
0
0
0
0
0
0
0
0
0
0
0
0
0
0
0
0
0
0
0
0
0
0
0
0
0
0
0
0
0
0
0
0
0
0
0
0
0
0
0
0
0
0
0
0
0
0
0
0
0
0
0
0
0
0
0
0
0
0
0
0
0
0
0
0
0
0
0
0
0
0
0
0
0
0
0
0
0
0
0
0
0
0
0
0
0
0
0
0
0
0
0
0
0
0
0
0
0
0
0
0
0
0
0
0
0
0
0
0
0
0
0
0
0
0
0
0
0
0
0
0
0
0
0
0
0
0
0
0
0
0
0
0
0
0
0
0
0
0
0
0
0
0
0
0
0
0
0
0
0
0
0
0
0
0
0
0
0
0
0
0
0
0
0
0
0
0
0
0
0
0
0
0
0
0
0
0
0
0
0
0
0
0
0
0
0
0
0
0
0
0
0
0
0
0
0
0
0
0
0
0
0
0
0
0
0
0
0
0
0
0
0
0
0
0
0
0
0
0
0
0
0
0
0
0
0
0
0
0
0
0
0
0
0
0
0
0
0
0
0
0
0
0
0
1
1
1
1
1
1
1
1
1
1
1
1
1
1
1
1
1
1
1
1
1
1
1
1
1
1
1
1
1
1
2
2
2
2
2
2
2
2
2
2
2
2
2
2
2
2
2
2
2
2
2
2
2
2
2
2
2
2
2
2
3
3
3
3
3
3
3
3
3
3
3
3
3
3
3
3
3
3
3
3
3
3
3
3
3
3
3
3
3
3
4
4
4
4
4
4
4
4
4
4
4
4
4
4
4
4
4
4
4
4
4
4
4
4
4
4
4
4
4
4

LOOKUP_TABLE FreeFempp_table 5
1.00000000 0.00000000 0.00000000 1.00000000
1.00000000 1.00000000 0.00000000 1.00000000
1.00000000 0.00000000 1.00000000 1.00000000
0.00000000 1.00000000 0.00000000 1.00000000
0.00000000 1.00000000 1.00000000 1.00000000

POINT_DATA 961
FIELD FieldData 1
Density 1 961 float
3.60592276e-01 3.11180919e-01 3.13906252e-01 3.09440762e-01 3.03882599e-01 3.00098956e-01 2.95226187e-01 2.85567313e-01 2.69781023e-01 2.45643824e-01 2.05067456e-01 1.50816754e-01 1.29289344e-01 1.84806243e-01 4.50386494e-01 7.12591171e-01 6.56941652e-01 6.31003022e-01 6.17078125e-01 6.07551038e-01 6.06540322e-01 5.98733187e-01 5.88370502e-01 5.72032750e-01 5.63538492e-01 5.61397612e-01 5.65034211e-01 5.71373820e-01 5.77070773e-01 5.81892967e-01 5.28273225e-01 1.60450265e-01 1.31999597e-01 1.44019306e-01 1.51978508e-01 1.54462740e-01 1.56401858e-01 1.59041837e-01 1.60648108e-01 1.59269258e-01 1.53091028e-01 1.38970062e-01 1.15290999e-01 9.67616290e-02 1.16456322e-01 3.00570369e-01 7.98596203e-01 6.88693285e-01 3.91481638e-01 5.36167681e-01 6.51417017e-01 6.55764520e-01 6.57831728e-01 6.51598990e-01 6.26649678e-01 6.06857479e-01 6.08267665e-01 6.16621435e-01 6.24473095e-01 6.31226540e-01 6.31128371e-01 5.79173803e-01 6.03339784e-02 5.00599407e-02 5.57629876e-02 6.15928993e-02 6.71151876e-02 7.18823671e-02 7.64619112e-02 8.13282579e-02 8.63881484e-02 9.10125449e-02 9.39393342e-02 9.37201530e-02 9.16587263e-02 1.01774320e-01 1.82443276e-01 7.78324723e-01 7.94226944e-01 1.41655222e-01 7.10321367e-02 8.07878301e-02 1.00003347e-01 1.47411585e-01 2.72923976e-01 4.29139972e-01 5.26424706e-01 5.28873801e-01 5.34485519e-01 5.37991405e-01 5.40765524e-01 5.40145695e-01 5.34480870e-01 2.55353358e-02 2.09145565e-02 2.26305071e-02 2.40197573e-02 2.59704236e-02 2.82979682e-02 3.07980645e-02 3.34420316e-02 3.63761485e-02 3.97812463e-02 4.37582098e-02 4.83299196e-02 5.36743551e-02 6.15464896e-02 8.37897733e-02 2.20020339e-01 8.90335619e-01 2.46300682e-01 8.21355730e-02 5.25922626e-02 3.18953283e-02 2.17226483e-02 1.84984803e-02 1.96941607e-02 2.53536664e-02 3.86714078e-02 7.01604337e-02 1.42729655e-01 2.67656088e-01 3.63828689e-01 4.45356220e-01 1.96565166e-02 1.39707429e-02 1.47498706e-02 1.46273430e-02 1.47014502e-02 1.49923582e-02 1.54348137e-02 1.59251373e-02 1.64226647e-02 1.69843528e-02 1.77483056e-02 1.89468637e-02 2.10080817e-02 2.46542543e-02 3.15889195e-02 5.28494678e-02 2.58229107e-01 8.96518171e-01 1.00483656e-01 9.58962739e-02 5.83152287e-02 3.12017612e-02 2.04407144e-02 1.64880957e-02 1.41905556e-02 1.21791698e-02 1.20816333e-02 1.89238507e-02 5.03061526e-02 9.96360630e-02 1.83648258e-01 2.76817717e-02 1.70050673e-02 1.75327305e-02 1.66238565e-02 1.58429909e-02 1.51762236e-02 1.46948863e-02 1.43298302e-02 1.39800487e-02 1.35853309e-02 1.31423268e-02 1.26636513e-02 1.21588614e-02 1.17545845e-02 1.19664520e-02 1.42028928e-02 2.55871974e-02 1.60037503e-01 8.30937624e-01 6.57298684e-01 5.18775403e-01 5.07697463e-01 2.19510034e-01 8.18563476e-02 3.67719121e-02 1.94301456e-02 1.15407398e-02 1.02282055e-02 1.39824692e-02 4.30477150e-02 9.00701061e-02 6.51047006e-02 3.76235917e-02 3.77167314e-02 3.53527479e-02 3.29025462e-02 3.01716048e-02 2.75785681e-02 2.53290720e-02 2.33872570e-02 2.15842929e-02 1.97849032e-02 1.79338548e-02 1.59905497e-02 1.38488254e-02 1.12916492e-02 8.79907142e-03 8.33303202e-03 1.19858030e-02 6.20875731e-02 6.86861932e-01 7.67321765e-01 7.82436788e-01 7.95958221e-01 7.47406304e-01 6.30121946e-01 3.71547699e-01 1.33030593e-01 1.78970452e-02 9.33113042e-03 1.94181949e-02 8.60288069e-02 2.19167933e-01 1.36969730e-01 1.28607273e-01 1.21596813e-01 1.15377694e-01 1.07320838e-01 9.79748517e-02 8.84921849e-02 7.99733847e-02 7.25522041e-02 6.55718893e-02 5.83975166e-02 5.06631881e-02 4.19499464e-02 3.13557722e-02 1.91814173e-02 9.88400914e-03 6.84546400e-03 7.37130363e-03 1.67196039e-02 2.17017904e-01 6.17954552e-01 6.83908880e-01 7.48991132e-01 8.01052570e-01 8.51544440e-01 4.45264369e-01 1.69626504e-01 1.00507941e-02 1.00034885e-02 1.03987150e-01 4.74277049e-01 4.31271613e-01 4.12803650e-01 3.87415051e-01 3.68134826e-01 3.52828562e-01 3.37801188e-01 3.19334567e-01 2.98465967e-01 2.77647555e-01 2.59597123e-01 2.44497612e-01 2.30092034e-01 2.13339910e-01 1.88741386e-01 1.44264027e-01 7.24035203e-02 2.05457788e-02 8.09690356e-03 6.78214151e-03 7.42744422e-03 1.01785278e-02 5.58335260e-02 1.34857297e-01 1.41195461e-01 1.22647129e-01 5.57471037e-01 9.60270226e-01 1.77938007e-02 9.00878105e-03 3.33068147e-02 5.36457539e-01 5.50351739e-01 5.47538400e-01 5.40989697e-01 5.31073034e-01 5.16551137e-01 4.99122500e-01 4.82557297e-01 4.69115585e-01 4.60150391e-01 4.55352873e-01 4.53333497e-01 4.52247947e-01 4.50454473e-01 4.46422100e-01 4.37104613e-01 4.09312487e-01 3.13731313e-01 1.09400891e-01 2.04316583e-02 9.50301252e-03 7.44827511e-03 9.27618798e-03 2.19617821e-02 4.83959317e-02 6.55862391e-02 1.52529687e-01 9.17342901e-01 5.00483550e-02 8.41027591e-03 1.40358992e-02 5.59294939e-01 5.98167479e-01 5.93985498e-01 5.90867579e-01 5.86033285e-01 5.77378809e-01 5.65059602e-01 5.48820138e-01 5.31804860e-01 5.17647862e-01 5.08547723e-01 5.03988564e-01 5.02402842e-01 5.02181351e-01 5.02163112e-01 5.01520097e-01 4.99441236e-01 4.95236337e-01 4.89999920e-01 4.84142989e-01 4.66657132e-01 2.81354576e-01 1.98113341e-02 1.82940587e-02 2.19967440e-02 4.86084595e-02 1.31241128e-01 6.15471423e-01 8.62470865e-01 1.01601463e-02 8.68527405e-03 5.76399505e-01 6.31478846e-01 6.25352144e-01 6.19185269e-01 6.11807346e-01 6.04109049e-01 5.93311191e-01 5.79806149e-01 5.66455245e-01 5.54880917e-01 5.46546876e-01 5.42128503e-01 5.40962160e-01 5.42141914e-01 5.45001864e-01 5.49100518e-01 5.53699434e-01 5.57319939e-01 5.57874620e-01 5.54324746e-01 5.48845947e-01 5.45014203e-01 5.39576054e-01 2.44012326e-01 3.72942351e-02 1.07099473e-01 1.38547063e-01 2.82991350e-01 9.16069627e-01 9.58496612e-03 1.13002956e-02 5.69238245e-01 6.35114431e-01 6.33284628e-01 6.28125966e-01 6.18968606e-01 6.12072647e-01 6.05235934e-01 5.93323410e-01 5.80443680e-01 5.68544209e-01 5.59780717e-01 5.54699600e-01 5.52793503e-01 5.53059936e-01 5.54799259e-01 5.58063924e-01 5.62971413e-01 5.69030881e-01 5.75126827e-01 5.80546081e-01 5.88959098e-01 6.04378760e-01 6.08306408e-01 6.24076784e-01 6.29105866e-01 6.23761535e-01 4.61140722e-01 5.57183087e-01 9.29538965e-01 1.31574702e-02 1.17154811e-02 5.40396512e-01 5.85243464e-01 5.79471171e-01 5.78944802e-01 5.78951299e-01 5.81760824e-01 5.89357495e-01 5.90621054e-01 5.80678284e-01 5.67384362e-01 5.55932701e-01 5.47737062e-01 5.43193340e-01 5.41008770e-01 5.39753258e-01 5.39838254e-01 5.42070746e-01 5.46005785e-01 5.50255299e-01 5.53790390e-01 5.57540476e-01 5.64832807e-01 5.74083984e-01 6.01770461e-01 5.95453978e-01 5.95539331e-01 5.08540094e-01 6.11642122e-01 8.98805678e-01 1.15694348e-02 1.35914236e-02 5.39254785e-01 5.84501028e-01 5.76935291e-01 5.65547109e-01 5.45981944e-01 5.25935471e-01 5.20836890e-01 5.30355871e-01 5.48742115e-01 5.50610662e-01 5.42256176e-01 5.32393336e-01 5.25752485e-01 5.23450255e-01 5.24471939e-01 5.28520882e-01 5.34349561e-01 5.40650666e-01 5.46587646e-01 5.50441265e-01 5.49945891e-01 5.43926001e-01 5.29104114e-01 5.15303254e-01 5.19566298e-01 5.60900211e-01 5.67064226e-01 7.04691410e-01 8.56739819e-01 1.21243754e-02 1.55666796e-02 5.33685327e-01 5.73541105e-01 5.67338526e-01 5.58741748e-01 5.43669462e-01 5.15438676e-01 4.86909598e-01 4.68294710e-01 4.79189128e-01 5.13937235e-01 5.26535690e-01 5.23315489e-01 5.19161522e-01 5.20751238e-01 5.27567089e-01 5.36978483e-01 5.46383202e-01 5.53393841e-01 5.59366345e-01 5.63831270e-01 5.64764261e-01 5.63975930e-01 5.55841386e-01 5.33355236e-01 5.19363105e-01 5.52428722e-01 6.31644547e-01 7.39259303e-01 7.85253525e-01 1.44201592e-02 1.33572407e-02 5.28275371e-01 5.66150308e-01 5.62833786e-01 5.54450393e-01 5.36839068e-01 5.04519641e-01 4.69944626e-01 4.43106115e-01 4.28820431e-01 4.52184558e-01 4.95488286e-01 5.14024854e-01 5.17537713e-01 5.20915270e-01 5.29592037e-01 5.41141510e-01 5.48998475e-01 5.52570701e-01 5.56487441e-01 5.61932921e-01 5.64845800e-01 5.68152249e-01 5.66706896e-01 5.54333508e-01 5.59267640e-01 5.93984306e-01 6.94920778e-01 7.35128820e-01 6.95140600e-01 1.72465183e-02 1.57086868e-02 5.21278322e-01 5.55892706e-01 5.55169523e-01 5.46224177e-01 5.22740722e-01 4.74876106e-01 4.33769763e-01 4.17096496e-01 4.08461303e-01 4.12375897e-01 4.46456671e-01 4.85645056e-01 5.04950881e-01 5.10667384e-01 5.16279161e-01 5.25756955e-01 5.31769633e-01 5.33101082e-01 5.37719548e-01 5.45515537e-01 5.54139256e-01 5.64523160e-01 5.60106814e-01 5.63291967e-01 5.99230051e-01 6.70456529e-01 7.02382386e-01 6.91402972e-01 5.62003791e-01 1.97532922e-02 1.80839244e-02 5.12726426e-01 5.41953981e-01 5.42932034e-01 5.31403184e-01 4.95885342e-01 4.06976044e-01 3.43778133e-01 3.65763277e-01 3.88064086e-01 3.95767450e-01 4.13543999e-01 4.49401170e-01 4.82521743e-01 4.97054517e-01 5.00246286e-01 5.05750000e-01 5.14834940e-01 5.21306574e-01 5.24665415e-01 5.35262048e-01 5.47450602e-01 5.56323886e-01 5.66939950e-01 6.07564688e-01 6.73574805e-01 6.86398447e-01 6.86233521e-01 6.19567573e-01 1.87029421e-01 2.05571279e-02 1.94095951e-02 5.03864050e-01 5.25789142e-01 5.27939677e-01 5.12113333e-01 4.61025238e-01 3.17314923e-01 2.13970259e-01 2.74364918e-01 3.51307720e-01 3.83907139e-01 4.05370504e-01 4.33083326e-01 4.68343973e-01 4.95778978e-01 5.05651176e-01 5.10035574e-01 5.19134820e-01 5.30104697e-01 5.37134945e-01 5.39307475e-01 5.50333381e-01 5.61385214e-01 6.03448689e-01 6.79077446e-01 6.91728890e-01 6.83468640e-01 6.09532177e-01 2.90565401e-01 7.73041695e-02 2.45365091e-02 2.09181570e-02 4.95738655e-01 5.09387076e-01 5.13797641e-01 4.96038795e-01 4.41149682e-01 2.82319158e-01 1.62436560e-01 1.88910484e-01 2.98970520e-01 3.86223823e-01 4.21023905e-01 4.42485511e-01 4.74476904e-01 5.08610964e-01 5.28348386e-01 5.34885168e-01 5.37915409e-01 5.36802471e-01 5.31984210e-01 5.31546116e-01 5.48328459e-01 5.98676443e-01 6.73099637e-01 6.91570997e-01 6.93611920e-01 6.44182920e-01 4.50235158e-01 1.39000624e-01 5.17407656e-02 3.53492424e-02 3.19370739e-02 4.88223195e-01 4.93353009e-01 5.00684559e-01 4.85798120e-01 4.41252589e-01 2.96069920e-01 1.22083828e-01 1.17425948e-01 2.28491321e-01 3.80181581e-01 4.36255127e-01 4.59920794e-01 4.87102717e-01 5.16555309e-01 5.35225570e-01 5.39488554e-01 5.36343277e-01 5.32001436e-01 5.32070875e-01 5.47526121e-01 5.83608031e-01 6.40928447e-01 6.74350321e-01 6.93398952e-01 6.69426322e-01 5.02410412e-01 1.73636079e-01 7.68906474e-02 4.90771011e-02 4.74523008e-02 6.84470236e-02 4.80817288e-01 4.79346067e-01 4.91686553e-01 4.83971268e-01 4.60741013e-01 3.35242063e-01 9.81003791e-02 8.75606015e-02 1.53981835e-01 3.25409621e-01 4.24059480e-01 4.68495965e-01 4.97945458e-01 5.19547880e-01 5.29151022e-01 5.30324101e-01 5.27490795e-01 5.28002024e-01 5.40449858e-01 5.71692348e-01 6.08501792e-01 6.41974807e-01 6.74078286e-01 6.77348018e-01 5.75569332e-01 2.37075314e-01 1.02816612e-01 6.30732477e-02 5.80025539e-02 6.96927011e-02 1.56188577e-01 4.74418610e-01 4.68064308e-01 4.91639048e-01 4.90984380e-01 4.78165954e-01 3.65901649e-01 9.67583656e-02 7.62686282e-02 1.11616082e-01 2.49743462e-01 3.79147738e-01 4.55248952e-01 5.00018179e-01 5.21877468e-01 5.27921736e-01 5.32953143e-01 5.41642129e-01 5.55939078e-01 5.77616453e-01 6.05027795e-01 6.36760175e-01 6.65259659e-01 6.70348823e-01 5.74046016e-01 2.82191813e-01 1.32551357e-01 8.00262317e-02 7.16138184e-02 8.43523741e-02 1.35173768e-01 2.84407586e-01 4.70757574e-01 4.57414031e-01 4.86251414e-01 4.97622132e-01 4.75214869e-01 3.32092315e-01 8.06635916e-02 5.79827763e-02 8.11602101e-02 2.01233968e-01 3.53044093e-01 4.42534178e-01 5.04037917e-01 5.32916546e-01 5.38834929e-01 5.46498418e-01 5.60904503e-01 5.80890536e-01 6.05540276e-01 6.36615455e-01 6.65079892e-01 6.66796327e-01 5.81152797e-01 2.76862144e-01 1.61086187e-01 1.11110628e-01 9.47981626e-02 1.05920091e-01 1.56418294e-01 2.53964514e-01 3.90013099e-01 4.71752346e-01 4.53567237e-01 4.71033216e-01 4.86415148e-01 4.71613407e-01 2.84913212e-01 6.45460188e-02 4.69470322e-02 6.46256134e-02 1.83099940e-01 3.81237626e-01 4.68224704e-01 5.24958372e-01 5.48995554e-01 5.48321724e-01 5.54415941e-01 5.69612741e-01 5.90637922e-01 6.16974235e-01 6.45860314e-01 6.67943656e-01 6.54889345e-01 5.28344631e-01 3.26923668e-01 1.92384511e-01 1.57706857e-01 1.80069849e-01 2.45365456e-01 3.52683008e-01 4.43234980e-01 4.68741983e-01 4.77326304e-01 4.54290181e-01 4.71430987e-01 4.78501320e-01 4.70969737e-01 3.18209708e-01 5.54245897e-02 4.21976894e-02 5.98156042e-02 1.97421238e-01 4.24430192e-01 5.02747655e-01 5.44233739e-01 5.63636422e-01 5.50051033e-01 5.50316453e-01 5.65435410e-01 5.86324215e-01 6.10747635e-01 6.35305822e-01 6.53500676e-01 6.48229420e-01 5.78663647e-01 4.43930984e-01 4.39045221e-01 5.10408223e-01 5.81701279e-01 6.05059266e-01 6.04841173e-01 6.05196476e-01 5.40979981e-01 4.85444188e-01 4.58644092e-01 4.70831126e-01 4.81994987e-01 5.09991169e-01 3.44284147e-01 5.09599783e-02 3.41230892e-02 5.45357727e-02 3.01835477e-01 4.65804905e-01 5.04981220e-01 5.29051244e-01 5.63584387e-01 5.55937409e-01 5.42136490e-01 5.54395974e-01 5.74906290e-01 5.96667171e-01 6.16634130e-01 6.33601427e-01 6.41124904e-01 6.31247640e-01 6.14081144e-01 6.42167330e-01 6.89104915e-01 6.74510181e-01 6.46473050e-01 6.31265700e-01 6.29314959e-01 5.67929327e-01 4.85253185e-01 4.69995350e-01 4.71987784e-01 4.85208571e-01 5.10331988e-01 4.87789720e-01 5.37406094e-02 2.52577700e-02 4.40604426e-02 4.21795279e-01 4.92865562e-01 4.92793262e-01 5.05586445e-01 5.41734815e-01 5.68074226e-01 5.50926208e-01 5.47687709e-01 5.65742016e-01 5.87178349e-01 6.05559766e-01 6.21221900e-01 6.33803964e-01 6.38900876e-01 6.40141666e-01 6.40945733e-01 6.39973342e-01 6.32711411e-01 6.16985559e-01 6.06647134e-01 6.04253292e-01 5.59952736e-01 4.98434842e-01 4.86361027e-01 4.97598201e-01 5.17443657e-01 5.25789917e-01 6.02564454e-01 7.21993446e-02 1.60408951e-02 2.90161483e-02 4.99031126e-01 4.99220878e-01 4.82408345e-01 4.90942329e-01 5.22784293e-01 5.71330965e-01 5.81554294e-01 5.59300900e-01 5.66120744e-01 5.90393841e-01 6.11902893e-01 6.23742878e-01 6.28530025e-01 6.24634206e-01 6.15053773e-01 6.04622424e-01 5.93146205e-01 5.83379626e-01 5.76515257e-01 5.70256472e-01 5.64392686e-01 5.40751219e-01 4.99002367e-01 4.99126792e-01 5.19256115e-01 5.33144593e-01 5.46771228e-01 5.58081746e-01 3.01337332e-01 2.30644699e-02 2.12097764e-02 5.93256891e-01 5.03213108e-01 4.92415249e-01 4.93434489e-01 4.99874055e-01 5.21983981e-01 5.58152258e-01 5.52471876e-01 5.38025856e-01 5.49740314e-01 5.63817501e-01 5.70550144e-01 5.69250345e-01 5.60174286e-01 5.48672855e-01 5.39153814e-01 5.32837451e-01 5.27892768e-01 5.23211658e-01 5.17543018e-01 5.12129843e-01 5.10081112e-01 
