# vtk DataFile Version 2.0
results_case1_non_linear/4_density.vtk, Created by Freefem++ 
ASCII
DATASET UNSTRUCTURED_GRID
POINTS 961 float
0 0 0
0.033333333 0 0
0.066666667 0 0
0.1 0 0
0.13333333 0 0
0.16666667 0 0
0.2 0 0
0.23333333 0 0
0.26666667 0 0
0.3 0 0
0.33333333 0 0
0.36666667 0 0
0.4 0 0
0.43333333 0 0
0.46666667 0 0
0.5 0 0
0.53333333 0 0
0.56666667 0 0
0.6 0 0
0.63333333 0 0
0.66666667 0 0
0.7 0 0
0.73333333 0 0
0.76666667 0 0
0.8 0 0
0.83333333 0 0
0.86666667 0 0
0.9 0 0
0.93333333 0 0
0.96666667 0 0
1 0 0
0 0.033333333 0
0.033333333 0.033333333 0
0.066666667 0.033333333 0
0.1 0.033333333 0
0.13333333 0.033333333 0
0.16666667 0.033333333 0
0.2 0.033333333 0
0.23333333 0.033333333 0
0.26666667 0.033333333 0
0.3 0.033333333 0
0.33333333 0.033333333 0
0.36666667 0.033333333 0
0.4 0.033333333 0
0.43333333 0.033333333 0
0.46666667 0.033333333 0
0.5 0.033333333 0
0.53333333 0.033333333 0
0.56666667 0.033333333 0
0.6 0.033333333 0
0.63333333 0.033333333 0
0.66666667 0.033333333 0
0.7 0.033333333 0
0.73333333 0.033333333 0
0.76666667 0.033333333 0
0.8 0.033333333 0
0.83333333 0.033333333 0
0.86666667 0.033333333 0
0.9 0.033333333 0
0.93333333 0.033333333 0
0.96666667 0.033333333 0
1 0.033333333 0
0 0.066666667 0
0.033333333 0.066666667 0
0.066666667 0.066666667 0
0.1 0.066666667 0
0.13333333 0.066666667 0
0.16666667 0.066666667 0
0.2 0.066666667 0
0.23333333 0.066666667 0
0.26666667 0.066666667 0
0.3 0.066666667 0
0.33333333 0.066666667 0
0.36666667 0.066666667 0
0.4 0.066666667 0
0.43333333 0.066666667 0
0.46666667 0.066666667 0
0.5 0.066666667 0
0.53333333 0.066666667 0
0.56666667 0.066666667 0
0.6 0.066666667 0
0.63333333 0.066666667 0
0.66666667 0.066666667 0
0.7 0.066666667 0
0.73333333 0.066666667 0
0.76666667 0.066666667 0
0.8 0.066666667 0
0.83333333 0.066666667 0
0.86666667 0.066666667 0
0.9 0.066666667 0
0.93333333 0.066666667 0
0.96666667 0.066666667 0
1 0.066666667 0
0 0.1 0
0.033333333 0.1 0
0.066666667 0.1 0
0.1 0.1 0
0.13333333 0.1 0
0.16666667 0.1 0
0.2 0.1 0
0.23333333 0.1 0
0.26666667 0.1 0
0.3 0.1 0
0.33333333 0.1 0
0.36666667 0.1 0
0.4 0.1 0
0.43333333 0.1 0
0.46666667 0.1 0
0.5 0.1 0
0.53333333 0.1 0
0.56666667 0.1 0
0.6 0.1 0
0.63333333 0.1 0
0.66666667 0.1 0
0.7 0.1 0
0.73333333 0.1 0
0.76666667 0.1 0
0.8 0.1 0
0.83333333 0.1 0
0.86666667 0.1 0
0.9 0.1 0
0.93333333 0.1 0
0.96666667 0.1 0
1 0.1 0
0 0.13333333 0
0.033333333 0.13333333 0
0.066666667 0.13333333 0
0.1 0.13333333 0
0.13333333 0.13333333 0
0.16666667 0.13333333 0
0.2 0.13333333 0
0.23333333 0.13333333 0
0.26666667 0.13333333 0
0.3 0.13333333 0
0.33333333 0.13333333 0
0.36666667 0.13333333 0
0.4 0.13333333 0
0.43333333 0.13333333 0
0.46666667 0.13333333 0
0.5 0.13333333 0
0.53333333 0.13333333 0
0.56666667 0.13333333 0
0.6 0.13333333 0
0.63333333 0.13333333 0
0.66666667 0.13333333 0
0.7 0.13333333 0
0.73333333 0.13333333 0
0.76666667 0.13333333 0
0.8 0.13333333 0
0.83333333 0.13333333 0
0.86666667 0.13333333 0
0.9 0.13333333 0
0.93333333 0.13333333 0
0.96666667 0.13333333 0
1 0.13333333 0
0 0.16666667 0
0.033333333 0.16666667 0
0.066666667 0.16666667 0
0.1 0.16666667 0
0.13333333 0.16666667 0
0.16666667 0.16666667 0
0.2 0.16666667 0
0.23333333 0.16666667 0
0.26666667 0.16666667 0
0.3 0.16666667 0
0.33333333 0.16666667 0
0.36666667 0.16666667 0
0.4 0.16666667 0
0.43333333 0.16666667 0
0.46666667 0.16666667 0
0.5 0.16666667 0
0.53333333 0.16666667 0
0.56666667 0.16666667 0
0.6 0.16666667 0
0.63333333 0.16666667 0
0.66666667 0.16666667 0
0.7 0.16666667 0
0.73333333 0.16666667 0
0.76666667 0.16666667 0
0.8 0.16666667 0
0.83333333 0.16666667 0
0.86666667 0.16666667 0
0.9 0.16666667 0
0.93333333 0.16666667 0
0.96666667 0.16666667 0
1 0.16666667 0
0 0.2 0
0.033333333 0.2 0
0.066666667 0.2 0
0.1 0.2 0
0.13333333 0.2 0
0.16666667 0.2 0
0.2 0.2 0
0.23333333 0.2 0
0.26666667 0.2 0
0.3 0.2 0
0.33333333 0.2 0
0.36666667 0.2 0
0.4 0.2 0
0.43333333 0.2 0
0.46666667 0.2 0
0.5 0.2 0
0.53333333 0.2 0
0.56666667 0.2 0
0.6 0.2 0
0.63333333 0.2 0
0.66666667 0.2 0
0.7 0.2 0
0.73333333 0.2 0
0.76666667 0.2 0
0.8 0.2 0
0.83333333 0.2 0
0.86666667 0.2 0
0.9 0.2 0
0.93333333 0.2 0
0.96666667 0.2 0
1 0.2 0
0 0.23333333 0
0.033333333 0.23333333 0
0.066666667 0.23333333 0
0.1 0.23333333 0
0.13333333 0.23333333 0
0.16666667 0.23333333 0
0.2 0.23333333 0
0.23333333 0.23333333 0
0.26666667 0.23333333 0
0.3 0.23333333 0
0.33333333 0.23333333 0
0.36666667 0.23333333 0
0.4 0.23333333 0
0.43333333 0.23333333 0
0.46666667 0.23333333 0
0.5 0.23333333 0
0.53333333 0.23333333 0
0.56666667 0.23333333 0
0.6 0.23333333 0
0.63333333 0.23333333 0
0.66666667 0.23333333 0
0.7 0.23333333 0
0.73333333 0.23333333 0
0.76666667 0.23333333 0
0.8 0.23333333 0
0.83333333 0.23333333 0
0.86666667 0.23333333 0
0.9 0.23333333 0
0.93333333 0.23333333 0
0.96666667 0.23333333 0
1 0.23333333 0
0 0.26666667 0
0.033333333 0.26666667 0
0.066666667 0.26666667 0
0.1 0.26666667 0
0.13333333 0.26666667 0
0.16666667 0.26666667 0
0.2 0.26666667 0
0.23333333 0.26666667 0
0.26666667 0.26666667 0
0.3 0.26666667 0
0.33333333 0.26666667 0
0.36666667 0.26666667 0
0.4 0.26666667 0
0.43333333 0.26666667 0
0.46666667 0.26666667 0
0.5 0.26666667 0
0.53333333 0.26666667 0
0.56666667 0.26666667 0
0.6 0.26666667 0
0.63333333 0.26666667 0
0.66666667 0.26666667 0
0.7 0.26666667 0
0.73333333 0.26666667 0
0.76666667 0.26666667 0
0.8 0.26666667 0
0.83333333 0.26666667 0
0.86666667 0.26666667 0
0.9 0.26666667 0
0.93333333 0.26666667 0
0.96666667 0.26666667 0
1 0.26666667 0
0 0.3 0
0.033333333 0.3 0
0.066666667 0.3 0
0.1 0.3 0
0.13333333 0.3 0
0.16666667 0.3 0
0.2 0.3 0
0.23333333 0.3 0
0.26666667 0.3 0
0.3 0.3 0
0.33333333 0.3 0
0.36666667 0.3 0
0.4 0.3 0
0.43333333 0.3 0
0.46666667 0.3 0
0.5 0.3 0
0.53333333 0.3 0
0.56666667 0.3 0
0.6 0.3 0
0.63333333 0.3 0
0.66666667 0.3 0
0.7 0.3 0
0.73333333 0.3 0
0.76666667 0.3 0
0.8 0.3 0
0.83333333 0.3 0
0.86666667 0.3 0
0.9 0.3 0
0.93333333 0.3 0
0.96666667 0.3 0
1 0.3 0
0 0.33333333 0
0.033333333 0.33333333 0
0.066666667 0.33333333 0
0.1 0.33333333 0
0.13333333 0.33333333 0
0.16666667 0.33333333 0
0.2 0.33333333 0
0.23333333 0.33333333 0
0.26666667 0.33333333 0
0.3 0.33333333 0
0.33333333 0.33333333 0
0.36666667 0.33333333 0
0.4 0.33333333 0
0.43333333 0.33333333 0
0.46666667 0.33333333 0
0.5 0.33333333 0
0.53333333 0.33333333 0
0.56666667 0.33333333 0
0.6 0.33333333 0
0.63333333 0.33333333 0
0.66666667 0.33333333 0
0.7 0.33333333 0
0.73333333 0.33333333 0
0.76666667 0.33333333 0
0.8 0.33333333 0
0.83333333 0.33333333 0
0.86666667 0.33333333 0
0.9 0.33333333 0
0.93333333 0.33333333 0
0.96666667 0.33333333 0
1 0.33333333 0
0 0.36666667 0
0.033333333 0.36666667 0
0.066666667 0.36666667 0
0.1 0.36666667 0
0.13333333 0.36666667 0
0.16666667 0.36666667 0
0.2 0.36666667 0
0.23333333 0.36666667 0
0.26666667 0.36666667 0
0.3 0.36666667 0
0.33333333 0.36666667 0
0.36666667 0.36666667 0
0.4 0.36666667 0
0.43333333 0.36666667 0
0.46666667 0.36666667 0
0.5 0.36666667 0
0.53333333 0.36666667 0
0.56666667 0.36666667 0
0.6 0.36666667 0
0.63333333 0.36666667 0
0.66666667 0.36666667 0
0.7 0.36666667 0
0.73333333 0.36666667 0
0.76666667 0.36666667 0
0.8 0.36666667 0
0.83333333 0.36666667 0
0.86666667 0.36666667 0
0.9 0.36666667 0
0.93333333 0.36666667 0
0.96666667 0.36666667 0
1 0.36666667 0
0 0.4 0
0.033333333 0.4 0
0.066666667 0.4 0
0.1 0.4 0
0.13333333 0.4 0
0.16666667 0.4 0
0.2 0.4 0
0.23333333 0.4 0
0.26666667 0.4 0
0.3 0.4 0
0.33333333 0.4 0
0.36666667 0.4 0
0.4 0.4 0
0.43333333 0.4 0
0.46666667 0.4 0
0.5 0.4 0
0.53333333 0.4 0
0.56666667 0.4 0
0.6 0.4 0
0.63333333 0.4 0
0.66666667 0.4 0
0.7 0.4 0
0.73333333 0.4 0
0.76666667 0.4 0
0.8 0.4 0
0.83333333 0.4 0
0.86666667 0.4 0
0.9 0.4 0
0.93333333 0.4 0
0.96666667 0.4 0
1 0.4 0
0 0.43333333 0
0.033333333 0.43333333 0
0.066666667 0.43333333 0
0.1 0.43333333 0
0.13333333 0.43333333 0
0.16666667 0.43333333 0
0.2 0.43333333 0
0.23333333 0.43333333 0
0.26666667 0.43333333 0
0.3 0.43333333 0
0.33333333 0.43333333 0
0.36666667 0.43333333 0
0.4 0.43333333 0
0.43333333 0.43333333 0
0.46666667 0.43333333 0
0.5 0.43333333 0
0.53333333 0.43333333 0
0.56666667 0.43333333 0
0.6 0.43333333 0
0.63333333 0.43333333 0
0.66666667 0.43333333 0
0.7 0.43333333 0
0.73333333 0.43333333 0
0.76666667 0.43333333 0
0.8 0.43333333 0
0.83333333 0.43333333 0
0.86666667 0.43333333 0
0.9 0.43333333 0
0.93333333 0.43333333 0
0.96666667 0.43333333 0
1 0.43333333 0
0 0.46666667 0
0.033333333 0.46666667 0
0.066666667 0.46666667 0
0.1 0.46666667 0
0.13333333 0.46666667 0
0.16666667 0.46666667 0
0.2 0.46666667 0
0.23333333 0.46666667 0
0.26666667 0.46666667 0
0.3 0.46666667 0
0.33333333 0.46666667 0
0.36666667 0.46666667 0
0.4 0.46666667 0
0.43333333 0.46666667 0
0.46666667 0.46666667 0
0.5 0.46666667 0
0.53333333 0.46666667 0
0.56666667 0.46666667 0
0.6 0.46666667 0
0.63333333 0.46666667 0
0.66666667 0.46666667 0
0.7 0.46666667 0
0.73333333 0.46666667 0
0.76666667 0.46666667 0
0.8 0.46666667 0
0.83333333 0.46666667 0
0.86666667 0.46666667 0
0.9 0.46666667 0
0.93333333 0.46666667 0
0.96666667 0.46666667 0
1 0.46666667 0
0 0.5 0
0.033333333 0.5 0
0.066666667 0.5 0
0.1 0.5 0
0.13333333 0.5 0
0.16666667 0.5 0
0.2 0.5 0
0.23333333 0.5 0
0.26666667 0.5 0
0.3 0.5 0
0.33333333 0.5 0
0.36666667 0.5 0
0.4 0.5 0
0.43333333 0.5 0
0.46666667 0.5 0
0.5 0.5 0
0.53333333 0.5 0
0.56666667 0.5 0
0.6 0.5 0
0.63333333 0.5 0
0.66666667 0.5 0
0.7 0.5 0
0.73333333 0.5 0
0.76666667 0.5 0
0.8 0.5 0
0.83333333 0.5 0
0.86666667 0.5 0
0.9 0.5 0
0.93333333 0.5 0
0.96666667 0.5 0
1 0.5 0
0 0.53333333 0
0.033333333 0.53333333 0
0.066666667 0.53333333 0
0.1 0.53333333 0
0.13333333 0.53333333 0
0.16666667 0.53333333 0
0.2 0.53333333 0
0.23333333 0.53333333 0
0.26666667 0.53333333 0
0.3 0.53333333 0
0.33333333 0.53333333 0
0.36666667 0.53333333 0
0.4 0.53333333 0
0.43333333 0.53333333 0
0.46666667 0.53333333 0
0.5 0.53333333 0
0.53333333 0.53333333 0
0.56666667 0.53333333 0
0.6 0.53333333 0
0.63333333 0.53333333 0
0.66666667 0.53333333 0
0.7 0.53333333 0
0.73333333 0.53333333 0
0.76666667 0.53333333 0
[...]
CELL_DATA 1920
Scalars  Label int 1
LOOKUP_TABLE FreeFempp_table
0
0
0
0
0
0
0
0
0
0
0
0
0
0
0
0
0
0
0
0
0
0
0
0
0
0
0
0
0
0
0
0
0
0
0
0
0
0
0
0
0
0
0
0
0
0
0
0
0
0
0
0
0
0
0
0
0
0
0
0
0
0
0
0
0
0
0
0
0
0
0
0
0
0
0
0
0
0
0
0
0
0
0
0
0
0
0
0
0
0
0
0
0
0
0
0
0
0
0
0
0
0
0
0
0
0
0
0
0
0
0
0
0
0
0
0
0
0
0
0
0
0
0
0
0
0
0
0
0
0
0
0
0
0
0
0
0
0
0
0
0
0
0
0
0
0
0
0
0
0
0
0
0
0
0
0
0
0
0
0
0
0
0
0
0
0
0
0
0
0
0
0
0
0
0
0
0
0
0
0
0
0
0
0
0
0
0
0
0
0
0
0
0
0
0
0
0
0
0
0
0
0
0
0
0
0
0
0
0
0
0
0
0
0
0
0
0
0
0
0
0
0
0
0
0
0
0
0
0
0
0
0
0
0
0
0
0
0
0
0
0
0
0
0
0
0
0
0
0
0
0
0
0
0
0
0
0
0
0
0
0
0
0
0
0
0
0
0
0
0
0
0
0
0
0
0
0
0
0
0
0
0
0
0
0
0
0
0
0
0
0
0
0
0
0
0
0
0
0
0
0
0
0
0
0
0
0
0
0
0
0
0
0
0
0
0
0
0
0
0
0
0
0
0
0
0
0
0
0
0
0
0
0
0
0
0
0
0
0
0
0
0
0
0
0
0
0
0
0
0
0
0
0
0
0
0
0
0
0
0
0
0
0
0
0
0
0
0
0
0
0
0
0
0
0
0
0
0
0
0
0
0
0
0
0
0
0
0
0
0
0
0
0
0
0
0
0
0
0
0
0
0
0
0
0
0
0
0
0
0
0
0
0
0
0
0
0
0
0
0
0
0
0
0
0
0
0
0
0
0
0
0
0
0
0
0
0
0
0
0
0
0
0
0
0
0
0
0
0
0
0
0
0
0
0
0
0
0
0
0
0
0
0
0
0
0
0
0
0
0
0
0
0
0
0
0
0
0
0
0
0
0
0
0
0
0
0
0
0
0
0
0
0
0
0
0
0
0
0
0
0
0
0
0
0
0
0
0
0
0
0
0
0
0
0
0
0
0
0
0
0
0
0
0
0
0
0
0
0
0
0
0
0
0
0
0
0
0
0
0
0
0
0
0
0
0
0
0
0
0
0
0
0
0
0
0
0
0
0
0
0
0
0
0
0
0
0
0
0
0
0
0
0
0
0
0
0
0
0
0
0
0
0
0
0
0
0
0
0
0
0
0
0
0
0
0
0
0
0
0
0
0
0
0
0
0
0
0
0
0
0
0
0
0
0
0
0
0
0
0
0
0
0
0
0
0
0
0
0
0
0
0
0
0
0
0
0
0
0
0
0
0
0
0
0
0
0
0
0
0
0
0
0
0
0
0
0
0
0
0
0
0
0
0
0
0
0
0
0
0
0
0
0
0
0
0
0
0
0
0
0
0
0
0
0
0
0
0
0
0
0
0
0
0
0
0
0
0
0
0
0
0
0
0
0
0
0
0
0
0
0
0
0
0
0
0
0
0
0
0
0
0
0
0
0
0
0
0
0
0
0
0
0
0
0
0
0
0
0
0
0
0
0
0
0
0
0
0
0
0
0
0
0
0
0
0
0
0
0
0
0
0
0
0
0
0
0
0
0
0
0
0
0
0
0
0
0
0
0
0
0
0
0
0
0
0
0
0
0
0
0
0
0
0
0
0
0
0
0
0
0
0
0
0
0
0
0
0
0
0
0
0
0
0
0
0
0
0
0
0
0
0
0
0
0
0
0
0
0
0
0
0
0
0
0
0
0
0
0
0
0
0
0
0
0
0
0
0
0
0
0
0
0
0
0
0
0
0
0
0
0
0
0
0
0
0
0
0
0
0
0
0
0
0
0
0
0
0
0
0
0
0
0
0
0
0
0
0
0
0
0
0
0
0
0
0
0
0
0
0
0
0
0
0
0
0
0
0
0
0
0
0
0
0
0
0
0
0
0
0
0
0
0
0
0
0
0
0
0
0
0
0
0
0
0
0
0
0
0
0
0
0
0
0
0
0
0
0
0
0
0
0
0
0
0
0
0
0
0
0
0
0
0
0
0
0
0
0
0
0
0
0
0
0
0
0
0
0
0
0
0
0
0
0
0
0
0
0
0
0
0
0
0
0
0
0
0
0
0
0
0
0
0
0
0
0
0
0
0
0
0
0
0
0
0
0
0
0
0
0
0
0
0
0
0
0
0
0
0
0
0
0
0
0
0
0
0
0
0
0
0
0
0
0
0
0
0
0
0
0
0
0
0
0
0
0
0
0
0
0
0
0
0
0
0
0
0
0
0
0
0
0
0
0
0
0
0
0
0
0
0
0
0
0
0
0
0
0
0
0
0
0
0
0
0
0
0
0
0
0
0
0
0
0
0
0
0
0
0
0
0
0
0
0
0
0
0
0
0
0
0
0
0
0
0
0
0
0
0
0
0
0
0
0
0
0
0
0
0
0
0
0
0
0
0
0
0
0
0
0
0
0
0
0
0
0
0
0
0
0
0
0
0
0
0
0
0
0
0
0
0
0
0
0
0
0
0
0
0
0
0
0
0
0
0
0
0
0
0
0
0
0
0
0
0
0
0
0
0
0
0
0
0
0
0
0
0
0
0
0
0
0
0
0
0
0
0
0
0
0
0
0
0
0
0
0
0
0
0
0
0
0
0
0
0
0
0
0
0
0
0
0
0
0
0
0
0
0
0
0
0
0
0
0
0
0
0
0
0
0
0
0
0
0
0
0
0
0
0
0
0
0
0
0
0
0
0
0
0
0
0
0
0
0
0
0
0
0
0
0
0
0
0
0
0
0
0
0
0
0
0
0
0
0
0
0
0
0
0
0
0
0
0
0
0
0
0
0
0
0
0
0
0
0
0
0
0
0
0
0
0
0
0
0
0
0
0
0
0
0
0
0
0
0
0
0
0
0
0
0
0
0
0
0
0
0
0
0
0
0
0
0
0
0
0
0
0
0
0
0
0
0
0
0
0
0
0
0
0
0
0
0
0
0
0
0
0
0
0
0
0
0
0
0
0
0
0
0
0
0
0
0
0
0
0
0
0
0
0
0
0
0
0
0
0
0
0
0
0
0
0
0
0
0
0
0
0
0
0
0
0
0
0
0
0
0
0
0
0
0
0
0
0
0
0
0
0
0
0
0
0
0
0
0
0
0
0
0
0
0
0
0
0
0
0
0
0
0
0
0
0
0
0
0
0
0
0
0
0
0
0
0
0
0
0
0
0
0
0
0
0
0
0
0
0
0
0
0
0
0
0
0
0
0
0
0
0
0
0
0
0
0
0
0
0
0
0
0
0
0
0
0
0
0
0
0
0
0
0
0
0
0
0
0
0
0
0
0
0
0
0
0
0
0
0
0
0
0
0
0
0
0
0
0
0
0
0
0
0
0
0
0
0
0
0
0
0
0
0
0
0
0
0
0
0
0
0
0
0
0
0
0
0
0
0
0
0
0
0
0
0
0
0
0
0
0
0
0
0
0
0
0
0
0
0
0
0
0
0
0
0
0
0
0
0
0
0
0
0
0
0
0
0
0
0
0
0
0
0
0
0
0
0
0
0
0
0
0
0
0
0
0
0
0
0
0
0
0
0
0
0
0
0
0
0
0
0
0
0
0
0
0
0
0
0
0
0
0
0
0
0
0
0
0
0
0
0
0
0
0
0
0
0
0
0
0
0
0
0
0
0
0
0
0
0
0
0
0
0
0
0
0
0
0
0
0
0
0
0
0
0
0
0
0
0
0
0
0
0
0
0
0
0
0
0
0
0
0
0
0
0
0
0
0
0
0
0
0
0
0
0
0
0
0
0
0
0
0
0
0
0
0
0
0
0
0
0
0
0
0
0
0
0
0
0
0
0
0
0
0
0
0
0
0
0
0
0
0
0
0
0
0
0
0
0
0
0
0
0
0
0
0
0
0
0
0
0
0
0
0
1
1
1
1
1
1
1
1
1
1
1
1
1
1
1
1
1
1
1
1
1
1
1
1
1
1
1
1
1
1
2
2
2
2
2
2
2
2
2
2
2
2
2
2
2
2
2
2
2
2
2
2
2
2
2
2
2
2
2
2
3
3
3
3
3
3
3
3
3
3
3
3
3
3
3
3
3
3
3
3
3
3
3
3
3
3
3
3
3
3
4
4
4
4
4
4
4
4
4
4
4
4
4
4
4
4
4
4
4
4
4
4
4
4
4
4
4
4
4
4

LOOKUP_TABLE FreeFempp_table 5
1.00000000 0.00000000 0.00000000 1.00000000
1.00000000 1.00000000 0.00000000 1.00000000
1.00000000 0.00000000 1.00000000 1.00000000
0.00000000 1.00000000 0.00000000 1.00000000
0.00000000 1.00000000 1.00000000 1.00000000

POINT_DATA 961
FIELD FieldData 1
Density 1 961 float
1.70560703e-01 2.14345098e-01 2.56558716e-01 2.68223733e-01 2.63063520e-01 2.48320237e-01 2.21314117e-01 1.69763833e-01 9.84079763e-02 7.48232305e-02 1.20531119e-01 2.23877430e-01 3.10516506e-01 3.53983968e-01 3.77342254e-01 4.09221917e-01 4.73656297e-01 5.71041107e-01 6.39530420e-01 6.41160190e-01 6.09173357e-01 5.79521000e-01 5.77712357e-01 5.85282087e-01 5.83346128e-01 5.78910291e-01 5.75503886e-01 5.74322701e-01 5.75134516e-01 5.68292916e-01 5.60201764e-01 4.70856652e-02 1.19433835e-01 1.79673478e-01 1.95759103e-01 1.92943618e-01 1.82457209e-01 1.63815364e-01 1.29830316e-01 7.98116475e-02 5.48345856e-02 8.33259821e-02 1.90946937e-01 2.89769799e-01 3.36930394e-01 3.63281250e-01 4.00990874e-01 4.69119072e-01 5.61121941e-01 5.93948066e-01 5.57922542e-01 5.20723879e-01 4.85069215e-01 4.73728418e-01 4.79286820e-01 4.81922150e-01 4.86128360e-01 5.01597762e-01 5.27128279e-01 5.49786448e-01 5.56909978e-01 5.53075850e-01 1.35020083e-02 9.87123977e-03 2.25215275e-02 2.44197715e-02 2.35070810e-02 2.21584234e-02 2.00030599e-02 1.61165874e-02 9.92986467e-03 7.53429020e-03 2.02111490e-02 1.02514453e-01 1.97091788e-01 2.41461158e-01 2.86952645e-01 3.63515407e-01 4.38078463e-01 5.15994132e-01 4.30362940e-01 2.77484685e-01 2.57116109e-01 2.42444992e-01 2.29562327e-01 2.27190673e-01 2.29653269e-01 2.40784496e-01 2.82193065e-01 3.63311023e-01 4.44410563e-01 4.96512651e-01 5.10820270e-01 1.61698237e-01 5.18311448e-02 1.86803471e-02 2.01697201e-02 2.99612936e-02 3.41342725e-02 3.51487510e-02 3.56638990e-02 3.61462794e-02 3.47509570e-02 1.88913103e-02 8.47021770e-03 2.36694422e-02 3.28522399e-02 5.92490807e-02 2.05467537e-01 3.07115883e-01 4.47254628e-01 3.79498959e-01 9.54030827e-02 4.47843969e-02 4.21941467e-02 3.55514325e-02 3.28494385e-02 3.27251628e-02 3.66612226e-02 6.48394600e-02 1.70778036e-01 2.93137103e-01 3.98959190e-01 4.41197306e-01 3.42242062e-01 2.59317696e-01 1.45376876e-01 1.49825394e-01 2.25894704e-01 2.66654551e-01 2.77669370e-01 2.80176371e-01 2.79212534e-01 2.63511986e-01 1.98027477e-01 6.00245297e-02 3.55375633e-02 2.45054588e-02 6.07258361e-03 1.97931062e-02 5.71249835e-02 2.09494039e-01 4.31355745e-01 2.62340397e-01 9.50362533e-02 6.50075823e-02 4.37891968e-02 3.07834409e-02 2.48184707e-02 1.59556493e-02 9.40524321e-03 3.42024118e-02 1.49482548e-01 2.83397436e-01 3.55822235e-01 3.78497571e-01 3.23165178e-01 2.01184452e-01 1.80371478e-01 2.87807971e-01 3.62893492e-01 3.88080329e-01 3.94986540e-01 3.97352219e-01 3.92097563e-01 3.65197510e-01 3.05689782e-01 2.72680402e-01 2.28451625e-01 1.21889226e-01 4.77930456e-02 2.08288729e-02 1.65696871e-02 1.14820205e-01 4.72610235e-01 4.86177385e-01 3.93727660e-01 2.82822222e-01 1.94337949e-01 1.49611771e-01 1.10867798e-01 4.13739346e-02 1.20251346e-02 3.07961889e-02 1.59105688e-01 2.59447694e-01 3.76145780e-01 3.33550423e-01 2.38435924e-01 1.99963465e-01 2.81457335e-01 3.65420341e-01 4.02959913e-01 4.16229993e-01 4.22043145e-01 4.23773229e-01 4.19407457e-01 4.09860432e-01 4.06640351e-01 3.91748339e-01 3.39173913e-01 2.88003206e-01 2.16728196e-01 6.36024028e-02 2.19297595e-02 1.00431286e-01 4.11822498e-01 5.46421707e-01 5.16078532e-01 3.96889389e-01 3.02314013e-01 2.49608025e-01 1.84098557e-01 6.42012730e-02 7.76809687e-03 4.76611517e-02 1.76972985e-01 4.06643778e-01 3.74294788e-01 3.11449498e-01 2.75641054e-01 3.17344457e-01 3.83336842e-01 4.21898782e-01 4.37984705e-01 4.45168316e-01 4.48427022e-01 4.48652744e-01 4.47224289e-01 4.47063744e-01 4.44647074e-01 4.33947355e-01 4.23502415e-01 3.99067342e-01 3.17843050e-01 2.06302613e-01 4.98773046e-02 6.42510206e-02 2.54369438e-01 4.65549737e-01 5.28590322e-01 4.69564170e-01 3.93145561e-01 3.12108874e-01 1.70641437e-01 2.11366341e-02 3.37308049e-02 1.57210767e-01 4.87823576e-01 4.66769576e-01 4.30088371e-01 4.05709893e-01 4.16835815e-01 4.48490918e-01 4.70559150e-01 4.79690433e-01 4.82929736e-01 4.83479381e-01 4.82084364e-01 4.79396939e-01 4.76369292e-01 4.72891539e-01 4.68486071e-01 4.64877129e-01 4.58752066e-01 4.40003365e-01 3.95369887e-01 2.62829274e-01 5.47017753e-02 3.61872762e-02 1.87971026e-01 4.32532281e-01 5.45306921e-01 5.29191375e-01 4.47061628e-01 2.64775932e-01 3.51667888e-02 2.94613652e-02 1.51867360e-01 5.78726947e-01 5.72808504e-01 5.56334615e-01 5.40688753e-01 5.34911394e-01 5.36547601e-01 5.36608994e-01 5.33189416e-01 5.28612852e-01 5.23700535e-01 5.18418491e-01 5.12878656e-01 5.07338226e-01 5.01863539e-01 4.96436983e-01 4.91334051e-01 4.86188293e-01 4.79885250e-01 4.67969745e-01 4.19907719e-01 2.71696389e-01 5.82615472e-02 3.33690979e-02 1.72432810e-01 3.78254622e-01 4.88332242e-01 5.20419538e-01 4.12560821e-01 8.38001370e-02 1.38570210e-02 8.97623152e-02 6.02717161e-01 6.11942053e-01 6.14105225e-01 6.10070407e-01 6.04792893e-01 5.97574711e-01 5.87841094e-01 5.77162921e-01 5.67091525e-01 5.57916701e-01 5.49496114e-01 5.41768491e-01 5.34711659e-01 5.28239608e-01 5.22243679e-01 5.16669750e-01 5.11410594e-01 5.06390929e-01 5.01153350e-01 4.89146829e-01 4.40221369e-01 2.91951567e-01 6.39309660e-02 2.31938623e-02 7.69425929e-02 2.13796020e-01 3.20732445e-01 4.94014621e-01 3.10755402e-01 3.15815285e-02 1.59448944e-02 5.24993539e-01 5.38484693e-01 5.56742191e-01 5.74550450e-01 5.90312660e-01 5.98321974e-01 5.97568095e-01 5.91404319e-01 5.83100677e-01 5.74378729e-01 5.66005886e-01 5.58336973e-01 5.51501095e-01 5.45478940e-01 5.40177584e-01 5.35473645e-01 5.31220138e-01 5.27330577e-01 5.23889899e-01 5.20677090e-01 5.12023270e-01 4.67759579e-01 3.17238778e-01 7.72661567e-02 2.35876441e-02 3.58786359e-02 8.57071429e-02 3.40355396e-01 5.00051200e-01 7.33879432e-02 2.92257708e-03 3.93248439e-01 3.94006819e-01 4.14855242e-01 4.55180317e-01 5.02640665e-01 5.41054547e-01 5.63092828e-01 5.71673691e-01 5.72308838e-01 5.69004297e-01 5.64062595e-01 5.58741927e-01 5.53712189e-01 5.49295902e-01 5.45598030e-01 5.42568386e-01 5.40051699e-01 5.37882507e-01 5.36034286e-01 5.34882009e-01 5.34930527e-01 5.31052947e-01 4.92544532e-01 3.52800399e-01 1.51832342e-01 5.48633561e-02 3.70636992e-02 2.18266934e-01 5.76751053e-01 9.70134065e-02 -3.41794593e-03 2.78743595e-01 2.63189971e-01 2.72941411e-01 3.21086526e-01 3.90947402e-01 4.57492918e-01 5.04357100e-01 5.30915737e-01 5.43501139e-01 5.47949612e-01 5.48033178e-01 5.46012044e-01 5.43247998e-01 5.40561855e-01 5.38412631e-01 5.36978900e-01 5.36214769e-01 5.35914779e-01 5.35791516e-01 5.35665035e-01 5.35888791e-01 5.37229359e-01 5.36274135e-01 5.10780215e-01 4.16562527e-01 2.49402925e-01 9.95468050e-02 2.37456247e-01 6.11271560e-01 1.07840016e-01 -7.21361162e-03 1.97271943e-01 1.76229477e-01 1.79148152e-01 2.26623818e-01 3.04961473e-01 3.86145949e-01 4.48840737e-01 4.88735467e-01 5.11228025e-01 5.22570729e-01 5.27204931e-01 5.28001130e-01 5.26845098e-01 5.25023162e-01 5.23416579e-01 5.22578716e-01 5.22760093e-01 5.23910940e-01 5.25653720e-01 5.27257204e-01 5.27726948e-01 5.26032805e-01 5.21160364e-01 5.11044323e-01 4.82488215e-01 3.87098968e-01 2.40111634e-01 3.39506596e-01 6.00028396e-01 1.06402583e-01 -8.22028611e-03 1.34372398e-01 1.18736140e-01 1.26624465e-01 1.78657711e-01 2.62343585e-01 3.47512662e-01 4.14344817e-01 4.59155053e-01 4.86604303e-01 5.02157390e-01 5.09846866e-01 5.12457192e-01 5.11986613e-01 5.09965837e-01 5.07628679e-01 5.05965769e-01 5.05695164e-01 5.07173955e-01 5.10267556e-01 5.14211476e-01 5.17511487e-01 5.17722666e-01 5.10356724e-01 4.87911940e-01 4.47612107e-01 3.90803933e-01 3.32024485e-01 4.28198159e-01 5.64014912e-01 9.57007632e-02 -7.16789300e-03 8.55044350e-02 8.15746933e-02 1.00984596e-01 1.66149050e-01 2.57639110e-01 3.41472417e-01 4.03730065e-01 4.45965946e-01 4.73463655e-01 4.90439475e-01 4.99748558e-01 5.03469706e-01 5.03264248e-01 5.00579298e-01 4.96778339e-01 4.93187338e-01 4.91025001e-01 4.91198212e-01 4.94015485e-01 4.98997629e-01 5.04974067e-01 5.10250092e-01 5.11474371e-01 4.98680651e-01 4.58510339e-01 4.10088420e-01 4.11166489e-01 5.14077365e-01 5.31124473e-01 8.62393230e-02 -4.68444452e-03 5.40401861e-02 5.99567816e-02 9.61087719e-02 1.81288913e-01 2.80334651e-01 3.58040661e-01 4.10287082e-01 4.45569366e-01 4.70087707e-01 4.86638606e-01 4.96658057e-01 5.01268327e-01 5.01529634e-01 4.98518676e-01 4.93422449e-01 4.87620831e-01 4.82646316e-01 4.79903519e-01 4.80204523e-01 4.83506352e-01 4.89195973e-01 4.96637940e-01 5.05248845e-01 5.11157393e-01 5.01931429e-01 4.84309733e-01 5.17254233e-01 6.00541830e-01 5.10974050e-01 8.05472732e-02 -1.82119524e-03 3.67620029e-02 4.79681678e-02 1.10062398e-01 2.18296543e-01 3.18903625e-01 3.84823650e-01 4.24598157e-01 4.51924175e-01 4.72663105e-01 4.88072723e-01 4.98392493e-01 5.03933549e-01 5.05162060e-01 5.02661645e-01 4.97187436e-01 4.89794642e-01 4.81889367e-01 4.75007474e-01 4.70429927e-01 4.69136983e-01 4.72066104e-01 4.79829967e-01 4.92785186e-01 5.12040436e-01 5.35941422e-01 5.63517809e-01 6.08864784e-01 6.30021214e-01 4.59945291e-01 7.33158290e-02 9.58014512e-04 2.72497535e-02 4.42008786e-02 1.42595291e-01 2.68826604e-01 3.61570150e-01 4.11565274e-01 4.39473689e-01 4.60227519e-01 4.77786720e-01 4.92030770e-01 5.02487063e-01 5.09000719e-01 5.11633933e-01 5.10536373e-01 5.05927980e-01 4.98198211e-01 4.88005668e-01 4.76298064e-01 4.64671999e-01 4.56394494e-01 4.56274986e-01 4.67448056e-01 4.89557892e-01 5.22950649e-01 5.68924427e-01 6.20935738e-01 6.50774062e-01 5.81419408e-01 3.47310990e-01 5.84274307e-02 5.02843875e-03 2.05086470e-02 4.56080921e-02 1.87736213e-01 3.22473437e-01 3.99273843e-01 4.32923019e-01 4.51712459e-01 4.68013197e-01 4.83249903e-01 4.96441573e-01 5.06881177e-01 5.14258981e-01 5.18455267e-01 5.19351006e-01 5.16688406e-01 5.10015249e-01 4.98743802e-01 4.82676089e-01 4.63931024e-01 4.49631453e-01 4.50302094e-01 4.71600056e-01 5.10329545e-01 5.60777783e-01 6.14833117e-01 6.52256489e-01 6.24093890e-01 4.68222857e-01 2.18108073e-01 4.23116125e-02 1.19908284e-02 1.51830139e-02 4.84733172e-02 2.34875053e-01 3.70655864e-01 4.27851111e-01 4.48031247e-01 4.60895538e-01 4.74325597e-01 4.87717003e-01 4.99834627e-01 5.10019422e-01 5.17966628e-01 5.23524880e-01 5.26487172e-01 5.26326597e-01 5.21947563e-01 5.11761963e-01 4.95049715e-01 4.75634992e-01 4.64810103e-01 4.75953996e-01 5.12228847e-01 5.64631224e-01 6.17640436e-01 6.46162987e-01 6.23913229e-01 5.07780671e-01 2.88643569e-01 8.38889256e-02 2.50884462e-02 2.01872345e-02 1.16022285e-02 5.05565256e-02 2.72404373e-01 4.06774163e-01 4.46789920e-01 4.57999974e-01 4.67398912e-01 4.78660613e-01 4.90274787e-01 5.01166463e-01 5.10795891e-01 5.18886268e-01 5.25315166e-01 5.29966950e-01 5.32474220e-01 5.31946421e-01 5.27212262e-01 5.18805027e-01 5.12779772e-01 5.19647419e-01 5.43746471e-01 5.78356683e-01 6.12533331e-01 6.22468114e-01 5.61820090e-01 4.49749053e-01 3.06243330e-01 9.27190110e-02 2.81706881e-02 2.46239677e-02 3.63758765e-02 9.38070193e-03 5.13491184e-02 2.95112640e-01 4.28751826e-01 4.57794189e-01 4.64086682e-01 4.71296459e-01 4.80496347e-01 4.90240484e-01 4.99746829e-01 5.08551419e-01 5.16371369e-01 5.23127496e-01 5.28965235e-01 5.34222245e-01 5.39364457e-01 5.45235157e-01 5.54343700e-01 5.71963012e-01 5.97661912e-01 6.05838001e-01 5.70968747e-01 5.15627325e-01 4.53885376e-01 3.10609341e-01 1.16918229e-01 6.29982352e-02 2.60603074e-02 2.28239801e-02 5.94929941e-02 9.78060737e-02 7.85707030e-03 5.14260493e-02 3.07093948e-01 4.40704614e-01 4.63747680e-01 4.67057794e-01 4.72269267e-01 4.79336858e-01 4.87193078e-01 4.95260715e-01 5.03094077e-01 5.10384381e-01 5.17079890e-01 5.23604810e-01 5.31152189e-01 5.41876972e-01 5.58756351e-01 5.84974170e-01 6.21538997e-01 6.55706823e-01 6.35088444e-01 4.95263159e-01 2.94119596e-01 1.54871106e-01 8.69736373e-02 4.10046652e-02 4.39521298e-02 7.47242123e-02 1.06445603e-01 2.27266818e-01 2.89597631e-01 6.61617005e-03 5.13294227e-02 3.14304262e-01 4.47779685e-01 4.66642916e-01 4.67071116e-01 4.70037699e-01 4.75024998e-01 4.81132090e-01 4.87828493e-01 4.94673938e-01 5.01359284e-01 5.07823586e-01 5.14554799e-01 5.23087204e-01 5.36389351e-01 5.58417261e-01 5.92158914e-01 6.36087716e-01 6.77216828e-01 6.75164521e-01 5.66199720e-01 3.71284097e-01 2.19183728e-01 1.42533123e-01 1.34155110e-01 2.12239116e-01 4.08821970e-01 5.00043333e-01 5.46473086e-01 5.63787997e-01 5.50066540e-03 5.12563810e-02 3.19831192e-01 4.52162951e-01 4.66741502e-01 4.64016795e-01 4.64777797e-01 4.67979550e-01 4.72577125e-01 4.78004664e-01 4.83881414e-01 4.89980340e-01 4.96236712e-01 5.02945006e-01 5.11219800e-01 5.23492455e-01 5.43264925e-01 5.73252499e-01 6.12363815e-01 6.53117776e-01 6.78335845e-01 6.60849452e-01 6.02751911e-01 5.68372369e-01 5.66929400e-01 5.77041566e-01 6.07001007e-01 6.78025544e-01 7.18602777e-01 7.15315580e-01 7.04346836e-01 4.33855690e-03 5.12132943e-02 3.24633241e-01 4.53917086e-01 4.63673860e-01 4.58145082e-01 4.57290232e-01 4.59174871e-01 4.62479979e-01 4.66661721e-01 4.71510708e-01 4.77007061e-01 4.83185947e-01 4.90120292e-01 4.98132288e-01 5.08215904e-01 5.22232234e-01 5.42097867e-01 5.67944765e-01 5.96844435e-01 6.23199284e-01 6.40294909e-01 6.48850143e-01 6.65188313e-01 6.85256541e-01 6.96366906e-01 7.00610697e-01 7.03078389e-01 6.93704486e-01 6.76598549e-01 6.64882481e-01 2.60915235e-03 5.15865460e-02 3.30916792e-01 4.54789758e-01 4.59314346e-01 4.51988906e-01 4.50363398e-01 4.51308727e-01 4.53369796e-01 4.56181049e-01 4.59808588e-01 4.64533299e-01 4.70630676e-01 4.78169799e-01 4.86913085e-01 4.96433496e-01 5.06415129e-01 5.16762555e-01 5.27124524e-01 5.36337614e-01 5.43174267e-01 5.48411489e-01 5.55677533e-01 5.67949951e-01 5.78877449e-01 5.83158314e-01 5.83088636e-01 5.81380308e-01 5.77657342e-01 5.74257731e-01 5.71506143e-01 2.24609091e-03 5.37192225e-02 3.44061345e-01 4.62140262e-01 4.60359275e-01 4.51930314e-01 4.50143993e-01 4.50330198e-01 4.51156706e-01 4.52527165e-01 4.54749227e-01 4.58339453e-01 4.63810682e-01 4.71408933e-01 4.80822057e-01 4.90967751e-01 4.99998748e-01 5.05563736e-01 5.05208492e-01 4.97063547e-01 4.81790513e-01 4.65722889e-01 4.59398955e-01 4.66993153e-01 4.80433017e-01 4.90746558e-01 4.95991081e-01 4.98181790e-01 4.99836832e-01 5.03338695e-01 5.05622327e-01 1.29758390e-02 5.29131331e-02 3.51937979e-01 4.77479845e-01 4.67064232e-01 4.55906540e-01 4.54239547e-01 4.54207152e-01 4.54467058e-01 4.55124974e-01 4.56557870e-01 4.59325463e-01 4.63994205e-01 4.70893145e-01 4.79802877e-01 4.89651144e-01 4.98351514e-01 5.02928436e-01 5.00027955e-01 4.87045974e-01 4.64603543e-01 4.40219969e-01 4.27340716e-01 4.33274060e-01 4.50408638e-01 4.66358840e-01 4.75661635e-01 4.79411036e-01 4.80989248e-01 4.83474433e-01 4.84688878e-01 
