# vtk DataFile Version 2.0
results_case1_non_linear/6_density.vtk, Created by Freefem++ 
ASCII
DATASET UNSTRUCTURED_GRID
POINTS 961 float
0 0 0
0.033333333 0 0
0.066666667 0 0
0.1 0 0
0.13333333 0 0
0.16666667 0 0
0.2 0 0
0.23333333 0 0
0.26666667 0 0
0.3 0 0
0.33333333 0 0
0.36666667 0 0
0.4 0 0
0.43333333 0 0
0.46666667 0 0
0.5 0 0
0.53333333 0 0
0.56666667 0 0
0.6 0 0
0.63333333 0 0
0.66666667 0 0
0.7 0 0
0.73333333 0 0
0.76666667 0 0
0.8 0 0
0.83333333 0 0
0.86666667 0 0
0.9 0 0
0.93333333 0 0
0.96666667 0 0
1 0 0
0 0.033333333 0
0.033333333 0.033333333 0
0.066666667 0.033333333 0
0.1 0.033333333 0
0.13333333 0.033333333 0
0.16666667 0.033333333 0
0.2 0.033333333 0
0.23333333 0.033333333 0
0.26666667 0.033333333 0
0.3 0.033333333 0
0.33333333 0.033333333 0
0.36666667 0.033333333 0
0.4 0.033333333 0
0.43333333 0.033333333 0
0.46666667 0.033333333 0
0.5 0.033333333 0
0.53333333 0.033333333 0
0.56666667 0.033333333 0
0.6 0.033333333 0
0.63333333 0.033333333 0
0.66666667 0.033333333 0
0.7 0.033333333 0
0.73333333 0.033333333 0
0.76666667 0.033333333 0
0.8 0.033333333 0
0.83333333 0.033333333 0
0.86666667 0.033333333 0
0.9 0.033333333 0
0.93333333 0.033333333 0
0.96666667 0.033333333 0
1 0.033333333 0
0 0.066666667 0
0.033333333 0.066666667 0
0.066666667 0.066666667 0
0.1 0.066666667 0
0.13333333 0.066666667 0
0.16666667 0.066666667 0
0.2 0.066666667 0
0.23333333 0.066666667 0
0.26666667 0.066666667 0
0.3 0.066666667 0
0.33333333 0.066666667 0
0.36666667 0.066666667 0
0.4 0.066666667 0
0.43333333 0.066666667 0
0.46666667 0.066666667 0
0.5 0.066666667 0
0.53333333 0.066666667 0
0.56666667 0.066666667 0
0.6 0.066666667 0
0.63333333 0.066666667 0
0.66666667 0.066666667 0
0.7 0.066666667 0
0.73333333 0.066666667 0
0.76666667 0.066666667 0
0.8 0.066666667 0
0.83333333 0.066666667 0
0.86666667 0.066666667 0
0.9 0.066666667 0
0.93333333 0.066666667 0
0.96666667 0.066666667 0
1 0.066666667 0
0 0.1 0
0.033333333 0.1 0
0.066666667 0.1 0
0.1 0.1 0
0.13333333 0.1 0
0.16666667 0.1 0
0.2 0.1 0
0.23333333 0.1 0
0.26666667 0.1 0
0.3 0.1 0
0.33333333 0.1 0
0.36666667 0.1 0
0.4 0.1 0
0.43333333 0.1 0
0.46666667 0.1 0
0.5 0.1 0
0.53333333 0.1 0
0.56666667 0.1 0
0.6 0.1 0
0.63333333 0.1 0
0.66666667 0.1 0
0.7 0.1 0
0.73333333 0.1 0
0.76666667 0.1 0
0.8 0.1 0
0.83333333 0.1 0
0.86666667 0.1 0
0.9 0.1 0
0.93333333 0.1 0
0.96666667 0.1 0
1 0.1 0
0 0.13333333 0
0.033333333 0.13333333 0
0.066666667 0.13333333 0
0.1 0.13333333 0
0.13333333 0.13333333 0
0.16666667 0.13333333 0
0.2 0.13333333 0
0.23333333 0.13333333 0
0.26666667 0.13333333 0
0.3 0.13333333 0
0.33333333 0.13333333 0
0.36666667 0.13333333 0
0.4 0.13333333 0
0.43333333 0.13333333 0
0.46666667 0.13333333 0
0.5 0.13333333 0
0.53333333 0.13333333 0
0.56666667 0.13333333 0
0.6 0.13333333 0
0.63333333 0.13333333 0
0.66666667 0.13333333 0
0.7 0.13333333 0
0.73333333 0.13333333 0
0.76666667 0.13333333 0
0.8 0.13333333 0
0.83333333 0.13333333 0
0.86666667 0.13333333 0
0.9 0.13333333 0
0.93333333 0.13333333 0
0.96666667 0.13333333 0
1 0.13333333 0
0 0.16666667 0
0.033333333 0.16666667 0
0.066666667 0.16666667 0
0.1 0.16666667 0
0.13333333 0.16666667 0
0.16666667 0.16666667 0
0.2 0.16666667 0
0.23333333 0.16666667 0
0.26666667 0.16666667 0
0.3 0.16666667 0
0.33333333 0.16666667 0
0.36666667 0.16666667 0
0.4 0.16666667 0
0.43333333 0.16666667 0
0.46666667 0.16666667 0
0.5 0.16666667 0
0.53333333 0.16666667 0
0.56666667 0.16666667 0
0.6 0.16666667 0
0.63333333 0.16666667 0
0.66666667 0.16666667 0
0.7 0.16666667 0
0.73333333 0.16666667 0
0.76666667 0.16666667 0
0.8 0.16666667 0
0.83333333 0.16666667 0
0.86666667 0.16666667 0
0.9 0.16666667 0
0.93333333 0.16666667 0
0.96666667 0.16666667 0
1 0.16666667 0
0 0.2 0
0.033333333 0.2 0
0.066666667 0.2 0
0.1 0.2 0
0.13333333 0.2 0
0.16666667 0.2 0
0.2 0.2 0
0.23333333 0.2 0
0.26666667 0.2 0
0.3 0.2 0
0.33333333 0.2 0
0.36666667 0.2 0
0.4 0.2 0
0.43333333 0.2 0
0.46666667 0.2 0
0.5 0.2 0
0.53333333 0.2 0
0.56666667 0.2 0
0.6 0.2 0
0.63333333 0.2 0
0.66666667 0.2 0
0.7 0.2 0
0.73333333 0.2 0
0.76666667 0.2 0
0.8 0.2 0
0.83333333 0.2 0
0.86666667 0.2 0
0.9 0.2 0
0.93333333 0.2 0
0.96666667 0.2 0
1 0.2 0
0 0.23333333 0
0.033333333 0.23333333 0
0.066666667 0.23333333 0
0.1 0.23333333 0
0.13333333 0.23333333 0
0.16666667 0.23333333 0
0.2 0.23333333 0
0.23333333 0.23333333 0
0.26666667 0.23333333 0
0.3 0.23333333 0
0.33333333 0.23333333 0
0.36666667 0.23333333 0
0.4 0.23333333 0
0.43333333 0.23333333 0
0.46666667 0.23333333 0
0.5 0.23333333 0
0.53333333 0.23333333 0
0.56666667 0.23333333 0
0.6 0.23333333 0
0.63333333 0.23333333 0
0.66666667 0.23333333 0
0.7 0.23333333 0
0.73333333 0.23333333 0
0.76666667 0.23333333 0
0.8 0.23333333 0
0.83333333 0.23333333 0
0.86666667 0.23333333 0
0.9 0.23333333 0
0.93333333 0.23333333 0
0.96666667 0.23333333 0
1 0.23333333 0
0 0.26666667 0
0.033333333 0.26666667 0
0.066666667 0.26666667 0
0.1 0.26666667 0
0.13333333 0.26666667 0
0.16666667 0.26666667 0
0.2 0.26666667 0
0.23333333 0.26666667 0
0.26666667 0.26666667 0
0.3 0.26666667 0
0.33333333 0.26666667 0
0.36666667 0.26666667 0
0.4 0.26666667 0
0.43333333 0.26666667 0
0.46666667 0.26666667 0
0.5 0.26666667 0
0.53333333 0.26666667 0
0.56666667 0.26666667 0
0.6 0.26666667 0
0.63333333 0.26666667 0
0.66666667 0.26666667 0
0.7 0.26666667 0
0.73333333 0.26666667 0
0.76666667 0.26666667 0
0.8 0.26666667 0
0.83333333 0.26666667 0
0.86666667 0.26666667 0
0.9 0.26666667 0
0.93333333 0.26666667 0
0.96666667 0.26666667 0
1 0.26666667 0
0 0.3 0
0.033333333 0.3 0
0.066666667 0.3 0
0.1 0.3 0
0.13333333 0.3 0
0.16666667 0.3 0
0.2 0.3 0
0.23333333 0.3 0
0.26666667 0.3 0
0.3 0.3 0
0.33333333 0.3 0
0.36666667 0.3 0
0.4 0.3 0
0.43333333 0.3 0
0.46666667 0.3 0
0.5 0.3 0
0.53333333 0.3 0
0.56666667 0.3 0
0.6 0.3 0
0.63333333 0.3 0
0.66666667 0.3 0
0.7 0.3 0
0.73333333 0.3 0
0.76666667 0.3 0
0.8 0.3 0
0.83333333 0.3 0
0.86666667 0.3 0
0.9 0.3 0
0.93333333 0.3 0
0.96666667 0.3 0
1 0.3 0
0 0.33333333 0
0.033333333 0.33333333 0
0.066666667 0.33333333 0
0.1 0.33333333 0
0.13333333 0.33333333 0
0.16666667 0.33333333 0
0.2 0.33333333 0
0.23333333 0.33333333 0
0.26666667 0.33333333 0
0.3 0.33333333 0
0.33333333 0.33333333 0
0.36666667 0.33333333 0
0.4 0.33333333 0
0.43333333 0.33333333 0
0.46666667 0.33333333 0
0.5 0.33333333 0
0.53333333 0.33333333 0
0.56666667 0.33333333 0
0.6 0.33333333 0
0.63333333 0.33333333 0
0.66666667 0.33333333 0
0.7 0.33333333 0
0.73333333 0.33333333 0
0.76666667 0.33333333 0
0.8 0.33333333 0
0.83333333 0.33333333 0
0.86666667 0.33333333 0
0.9 0.33333333 0
0.93333333 0.33333333 0
0.96666667 0.33333333 0
1 0.33333333 0
0 0.36666667 0
0.033333333 0.36666667 0
0.066666667 0.36666667 0
0.1 0.36666667 0
0.13333333 0.36666667 0
0.16666667 0.36666667 0
0.2 0.36666667 0
0.23333333 0.36666667 0
0.26666667 0.36666667 0
0.3 0.36666667 0
0.33333333 0.36666667 0
0.36666667 0.36666667 0
0.4 0.36666667 0
0.43333333 0.36666667 0
0.46666667 0.36666667 0
0.5 0.36666667 0
0.53333333 0.36666667 0
0.56666667 0.36666667 0
0.6 0.36666667 0
0.63333333 0.36666667 0
0.66666667 0.36666667 0
0.7 0.36666667 0
0.73333333 0.36666667 0
0.76666667 0.36666667 0
0.8 0.36666667 0
0.83333333 0.36666667 0
0.86666667 0.36666667 0
0.9 0.36666667 0
0.93333333 0.36666667 0
0.96666667 0.36666667 0
1 0.36666667 0
0 0.4 0
0.033333333 0.4 0
0.066666667 0.4 0
0.1 0.4 0
0.13333333 0.4 0
0.16666667 0.4 0
0.2 0.4 0
0.23333333 0.4 0
0.26666667 0.4 0
0.3 0.4 0
0.33333333 0.4 0
0.36666667 0.4 0
0.4 0.4 0
0.43333333 0.4 0
0.46666667 0.4 0
0.5 0.4 0
0.53333333 0.4 0
0.56666667 0.4 0
0.6 0.4 0
0.63333333 0.4 0
0.66666667 0.4 0
0.7 0.4 0
0.73333333 0.4 0
0.76666667 0.4 0
0.8 0.4 0
0.83333333 0.4 0
0.86666667 0.4 0
0.9 0.4 0
0.93333333 0.4 0
0.96666667 0.4 0
1 0.4 0
0 0.43333333 0
0.033333333 0.43333333 0
0.066666667 0.43333333 0
0.1 0.43333333 0
0.13333333 0.43333333 0
0.16666667 0.43333333 0
0.2 0.43333333 0
0.23333333 0.43333333 0
0.26666667 0.43333333 0
0.3 0.43333333 0
0.33333333 0.43333333 0
0.36666667 0.43333333 0
0.4 0.43333333 0
0.43333333 0.43333333 0
0.46666667 0.43333333 0
0.5 0.43333333 0
0.53333333 0.43333333 0
0.56666667 0.43333333 0
0.6 0.43333333 0
0.63333333 0.43333333 0
0.66666667 0.43333333 0
0.7 0.43333333 0
0.73333333 0.43333333 0
0.76666667 0.43333333 0
0.8 0.43333333 0
0.83333333 0.43333333 0
0.86666667 0.43333333 0
0.9 0.43333333 0
0.93333333 0.43333333 0
0.96666667 0.43333333 0
1 0.43333333 0
0 0.46666667 0
0.033333333 0.46666667 0
0.066666667 0.46666667 0
0.1 0.46666667 0
0.13333333 0.46666667 0
0.16666667 0.46666667 0
0.2 0.46666667 0
0.23333333 0.46666667 0
0.26666667 0.46666667 0
0.3 0.46666667 0
0.33333333 0.46666667 0
0.36666667 0.46666667 0
0.4 0.46666667 0
0.43333333 0.46666667 0
0.46666667 0.46666667 0
0.5 0.46666667 0
0.53333333 0.46666667 0
0.56666667 0.46666667 0
0.6 0.46666667 0
0.63333333 0.46666667 0
0.66666667 0.46666667 0
0.7 0.46666667 0
0.73333333 0.46666667 0
0.76666667 0.46666667 0
0.8 0.46666667 0
0.83333333 0.46666667 0
0.86666667 0.46666667 0
0.9 0.46666667 0
0.93333333 0.46666667 0
0.96666667 0.46666667 0
1 0.46666667 0
0 0.5 0
0.033333333 0.5 0
0.066666667 0.5 0
0.1 0.5 0
0.13333333 0.5 0
0.16666667 0.5 0
0.2 0.5 0
0.23333333 0.5 0
0.26666667 0.5 0
0.3 0.5 0
0.33333333 0.5 0
0.36666667 0.5 0
0.4 0.5 0
0.43333333 0.5 0
0.46666667 0.5 0
0.5 0.5 0
0.53333333 0.5 0
0.56666667 0.5 0
0.6 0.5 0
0.63333333 0.5 0
0.66666667 0.5 0
0.7 0.5 0
0.73333333 0.5 0
0.76666667 0.5 0
0.8 0.5 0
0.83333333 0.5 0
0.86666667 0.5 0
0.9 0.5 0
0.93333333 0.5 0
0.96666667 0.5 0
1 0.5 0
0 0.53333333 0
0.033333333 0.53333333 0
0.066666667 0.53333333 0
0.1 0.53333333 0
0.13333333 0.53333333 0
0.16666667 0.53333333 0
0.2 0.53333333 0
0.23333333 0.53333333 0
0.26666667 0.53333333 0
0.3 0.53333333 0
0.33333333 0.53333333 0
0.36666667 0.53333333 0
0.4 0.53333333 0
0.43333333 0.53333333 0
0.46666667 0.53333333 0
0.5 0.53333333 0
0.53333333 0.53333333 0
0.56666667 0.53333333 0
0.6 0.53333333 0
0.63333333 0.53333333 0
0.66666667 0.53333333 0
0.7 0.53333333 0
0.73333333 0.53333333 0
0.76666667 0.53333333 0
[...]
CELL_DATA 1920
Scalars  Label int 1
LOOKUP_TABLE FreeFempp_table
0
0
0
0
0
0
0
0
0
0
0
0
0
0
0
0
0
0
0
0
0
0
0
0
0
0
0
0
0
0
0
0
0
0
0
0
0
0
0
0
0
0
0
0
0
0
0
0
0
0
0
0
0
0
0
0
0
0
0
0
0
0
0
0
0
0
0
0
0
0
0
0
0
0
0
0
0
0
0
0
0
0
0
0
0
0
0
0
0
0
0
0
0
0
0
0
0
0
0
0
0
0
0
0
0
0
0
0
0
0
0
0
0
0
0
0
0
0
0
0
0
0
0
0
0
0
0
0
0
0
0
0
0
0
0
0
0
0
0
0
0
0
0
0
0
0
0
0
0
0
0
0
0
0
0
0
0
0
0
0
0
0
0
0
0
0
0
0
0
0
0
0
0
0
0
0
0
0
0
0
0
0
0
0
0
0
0
0
0
0
0
0
0
0
0
0
0
0
0
0
0
0
0
0
0
0
0
0
0
0
0
0
0
0
0
0
0
0
0
0
0
0
0
0
0
0
0
0
0
0
0
0
0
0
0
0
0
0
0
0
0
0
0
0
0
0
0
0
0
0
0
0
0
0
0
0
0
0
0
0
0
0
0
0
0
0
0
0
0
0
0
0
0
0
0
0
0
0
0
0
0
0
0
0
0
0
0
0
0
0
0
0
0
0
0
0
0
0
0
0
0
0
0
0
0
0
0
0
0
0
0
0
0
0
0
0
0
0
0
0
0
0
0
0
0
0
0
0
0
0
0
0
0
0
0
0
0
0
0
0
0
0
0
0
0
0
0
0
0
0
0
0
0
0
0
0
0
0
0
0
0
0
0
0
0
0
0
0
0
0
0
0
0
0
0
0
0
0
0
0
0
0
0
0
0
0
0
0
0
0
0
0
0
0
0
0
0
0
0
0
0
0
0
0
0
0
0
0
0
0
0
0
0
0
0
0
0
0
0
0
0
0
0
0
0
0
0
0
0
0
0
0
0
0
0
0
0
0
0
0
0
0
0
0
0
0
0
0
0
0
0
0
0
0
0
0
0
0
0
0
0
0
0
0
0
0
0
0
0
0
0
0
0
0
0
0
0
0
0
0
0
0
0
0
0
0
0
0
0
0
0
0
0
0
0
0
0
0
0
0
0
0
0
0
0
0
0
0
0
0
0
0
0
0
0
0
0
0
0
0
0
0
0
0
0
0
0
0
0
0
0
0
0
0
0
0
0
0
0
0
0
0
0
0
0
0
0
0
0
0
0
0
0
0
0
0
0
0
0
0
0
0
0
0
0
0
0
0
0
0
0
0
0
0
0
0
0
0
0
0
0
0
0
0
0
0
0
0
0
0
0
0
0
0
0
0
0
0
0
0
0
0
0
0
0
0
0
0
0
0
0
0
0
0
0
0
0
0
0
0
0
0
0
0
0
0
0
0
0
0
0
0
0
0
0
0
0
0
0
0
0
0
0
0
0
0
0
0
0
0
0
0
0
0
0
0
0
0
0
0
0
0
0
0
0
0
0
0
0
0
0
0
0
0
0
0
0
0
0
0
0
0
0
0
0
0
0
0
0
0
0
0
0
0
0
0
0
0
0
0
0
0
0
0
0
0
0
0
0
0
0
0
0
0
0
0
0
0
0
0
0
0
0
0
0
0
0
0
0
0
0
0
0
0
0
0
0
0
0
0
0
0
0
0
0
0
0
0
0
0
0
0
0
0
0
0
0
0
0
0
0
0
0
0
0
0
0
0
0
0
0
0
0
0
0
0
0
0
0
0
0
0
0
0
0
0
0
0
0
0
0
0
0
0
0
0
0
0
0
0
0
0
0
0
0
0
0
0
0
0
0
0
0
0
0
0
0
0
0
0
0
0
0
0
0
0
0
0
0
0
0
0
0
0
0
0
0
0
0
0
0
0
0
0
0
0
0
0
0
0
0
0
0
0
0
0
0
0
0
0
0
0
0
0
0
0
0
0
0
0
0
0
0
0
0
0
0
0
0
0
0
0
0
0
0
0
0
0
0
0
0
0
0
0
0
0
0
0
0
0
0
0
0
0
0
0
0
0
0
0
0
0
0
0
0
0
0
0
0
0
0
0
0
0
0
0
0
0
0
0
0
0
0
0
0
0
0
0
0
0
0
0
0
0
0
0
0
0
0
0
0
0
0
0
0
0
0
0
0
0
0
0
0
0
0
0
0
0
0
0
0
0
0
0
0
0
0
0
0
0
0
0
0
0
0
0
0
0
0
0
0
0
0
0
0
0
0
0
0
0
0
0
0
0
0
0
0
0
0
0
0
0
0
0
0
0
0
0
0
0
0
0
0
0
0
0
0
0
0
0
0
0
0
0
0
0
0
0
0
0
0
0
0
0
0
0
0
0
0
0
0
0
0
0
0
0
0
0
0
0
0
0
0
0
0
0
0
0
0
0
0
0
0
0
0
0
0
0
0
0
0
0
0
0
0
0
0
0
0
0
0
0
0
0
0
0
0
0
0
0
0
0
0
0
0
0
0
0
0
0
0
0
0
0
0
0
0
0
0
0
0
0
0
0
0
0
0
0
0
0
0
0
0
0
0
0
0
0
0
0
0
0
0
0
0
0
0
0
0
0
0
0
0
0
0
0
0
0
0
0
0
0
0
0
0
0
0
0
0
0
0
0
0
0
0
0
0
0
0
0
0
0
0
0
0
0
0
0
0
0
0
0
0
0
0
0
0
0
0
0
0
0
0
0
0
0
0
0
0
0
0
0
0
0
0
0
0
0
0
0
0
0
0
0
0
0
0
0
0
0
0
0
0
0
0
0
0
0
0
0
0
0
0
0
0
0
0
0
0
0
0
0
0
0
0
0
0
0
0
0
0
0
0
0
0
0
0
0
0
0
0
0
0
0
0
0
0
0
0
0
0
0
0
0
0
0
0
0
0
0
0
0
0
0
0
0
0
0
0
0
0
0
0
0
0
0
0
0
0
0
0
0
0
0
0
0
0
0
0
0
0
0
0
0
0
0
0
0
0
0
0
0
0
0
0
0
0
0
0
0
0
0
0
0
0
0
0
0
0
0
0
0
0
0
0
0
0
0
0
0
0
0
0
0
0
0
0
0
0
0
0
0
0
0
0
0
0
0
0
0
0
0
0
0
0
0
0
0
0
0
0
0
0
0
0
0
0
0
0
0
0
0
0
0
0
0
0
0
0
0
0
0
0
0
0
0
0
0
0
0
0
0
0
0
0
0
0
0
0
0
0
0
0
0
0
0
0
0
0
0
0
0
0
0
0
0
0
0
0
0
0
0
0
0
0
0
0
0
0
0
0
0
0
0
0
0
0
0
0
0
0
0
0
0
0
0
0
0
0
0
0
0
0
0
0
0
0
0
0
0
0
0
0
0
0
0
0
0
0
0
0
0
0
0
0
0
0
0
0
0
0
0
0
0
0
0
0
0
0
0
0
0
0
0
0
0
0
0
0
0
0
0
0
0
0
0
0
0
0
0
0
0
0
0
0
0
0
0
0
0
0
0
0
0
0
0
0
0
0
0
0
0
0
0
0
0
0
0
0
0
0
0
0
0
0
0
0
0
0
0
0
0
0
0
0
0
0
0
0
0
0
0
0
0
0
0
0
0
0
0
0
0
0
0
0
0
0
0
0
0
0
0
0
0
0
0
0
0
0
0
0
0
0
0
0
0
0
0
0
0
0
0
0
0
0
0
0
0
0
0
0
0
0
0
0
0
0
0
0
0
0
0
0
0
0
0
0
0
0
0
0
0
0
0
0
0
0
0
0
0
0
0
0
0
0
0
0
0
0
0
0
0
0
0
0
0
0
0
0
0
0
0
0
0
0
0
0
0
0
0
0
0
0
0
0
0
0
0
0
0
0
0
0
0
0
0
0
0
0
0
0
0
0
0
0
0
0
0
0
0
0
0
0
0
0
0
0
0
0
0
0
0
0
0
0
0
0
0
0
0
0
0
0
0
0
0
0
0
0
0
0
0
0
0
0
0
0
0
0
0
0
0
0
0
0
0
0
0
0
0
0
0
0
0
0
0
0
0
0
0
0
0
0
0
0
0
0
0
0
0
1
1
1
1
1
1
1
1
1
1
1
1
1
1
1
1
1
1
1
1
1
1
1
1
1
1
1
1
1
1
2
2
2
2
2
2
2
2
2
2
2
2
2
2
2
2
2
2
2
2
2
2
2
2
2
2
2
2
2
2
3
3
3
3
3
3
3
3
3
3
3
3
3
3
3
3
3
3
3
3
3
3
3
3
3
3
3
3
3
3
4
4
4
4
4
4
4
4
4
4
4
4
4
4
4
4
4
4
4
4
4
4
4
4
4
4
4
4
4
4

LOOKUP_TABLE FreeFempp_table 5
1.00000000 0.00000000 0.00000000 1.00000000
1.00000000 1.00000000 0.00000000 1.00000000
1.00000000 0.00000000 1.00000000 1.00000000
0.00000000 1.00000000 0.00000000 1.00000000
0.00000000 1.00000000 1.00000000 1.00000000

POINT_DATA 961
FIELD FieldData 1
Density 1 961 float
3.05943310e-01 3.45033050e-01 3.78753603e-01 3.89701635e-01 3.89679521e-01 3.83518457e-01 3.49908561e-01 2.14173913e-01 6.17995113e-02 4.38000299e-02 1.27591863e-01 3.19372416e-01 3.98367077e-01 4.36433583e-01 5.08216441e-01 6.03041589e-01 6.13783538e-01 5.83121717e-01 6.01546168e-01 6.02061570e-01 5.92614532e-01 5.84788620e-01 5.78932643e-01 5.73610604e-01 5.66412330e-01 5.55759370e-01 5.45392394e-01 5.36817789e-01 5.30817926e-01 5.25701523e-01 5.19762099e-01 9.25527960e-02 2.30476469e-01 2.97890931e-01 3.11798096e-01 3.11402053e-01 3.05308819e-01 2.82895118e-01 1.95623413e-01 5.82768284e-02 2.80973334e-02 8.98225456e-02 2.84486711e-01 3.75497371e-01 4.09929663e-01 4.87852573e-01 6.32245898e-01 6.22604489e-01 5.04040897e-01 5.24701416e-01 5.55238485e-01 5.72807372e-01 5.73942602e-01 5.72725296e-01 5.71273088e-01 5.66243768e-01 5.52842557e-01 5.41452289e-01 5.32097638e-01 5.25395215e-01 5.21717072e-01 5.18693149e-01 2.65615024e-02 2.02137381e-02 4.01912518e-02 4.12782505e-02 4.06196043e-02 3.97541821e-02 3.75997871e-02 2.80803535e-02 8.37285630e-03 3.67208780e-03 3.85031886e-02 2.36354738e-01 3.20360333e-01 3.37469578e-01 4.06861603e-01 6.01713240e-01 5.82762182e-01 2.04335704e-01 1.43772200e-01 1.82328671e-01 3.17111015e-01 3.82148921e-01 4.04647261e-01 4.15446877e-01 4.22282010e-01 4.43915814e-01 4.78384316e-01 4.80278045e-01 4.82013464e-01 4.86736476e-01 4.95567381e-01 2.57997274e-01 7.72506073e-02 3.74141932e-02 3.73933800e-02 4.17918526e-02 4.36889715e-02 4.44677025e-02 4.51094024e-02 4.64482717e-02 5.02348319e-02 3.26138139e-02 2.70468611e-02 4.50681522e-02 4.75659631e-02 9.60431769e-02 3.99883837e-01 6.38356805e-01 3.39142472e-01 9.38381627e-02 3.91474888e-02 4.37094644e-02 5.53096645e-02 5.79994507e-02 5.88206388e-02 6.14939481e-02 9.65927616e-02 3.35637271e-01 4.18077171e-01 4.31005478e-01 4.44258451e-01 4.63331163e-01 3.98965985e-01 3.25479090e-01 2.63850152e-01 2.72842824e-01 3.07293266e-01 3.25867712e-01 3.33104342e-01 3.37153554e-01 3.39464128e-01 3.36239845e-01 2.87974149e-01 8.19837004e-02 4.68261130e-02 4.59708050e-02 2.79619563e-02 4.01642844e-02 1.63059235e-01 5.98881245e-01 4.00073200e-01 1.65834308e-01 9.71260369e-02 8.03666264e-02 6.79863989e-02 5.67681529e-02 4.47762161e-02 2.21482720e-02 6.94240332e-02 3.12626630e-01 3.93002391e-01 4.12541389e-01 4.36836302e-01 4.13882047e-01 3.68743956e-01 3.19055974e-01 3.11827570e-01 3.52966011e-01 3.84941489e-01 3.97074729e-01 4.02371109e-01 4.05785501e-01 4.06900674e-01 4.01190847e-01 3.59211355e-01 3.38904887e-01 3.33865762e-01 2.81912923e-01 8.47261250e-02 3.26863229e-02 1.51700318e-01 6.15016460e-01 6.22435689e-01 5.45885563e-01 5.21715939e-01 4.78760928e-01 4.13062483e-01 3.34347188e-01 2.16529623e-01 5.43208830e-02 6.81881532e-02 3.04420680e-01 3.88571203e-01 4.17005867e-01 4.19723272e-01 3.82875204e-01 3.49415392e-01 3.36154431e-01 3.62332255e-01 3.92700225e-01 4.06676859e-01 4.12247002e-01 4.15335208e-01 4.17242080e-01 4.17213619e-01 4.14737940e-01 4.16180849e-01 4.15581405e-01 4.05770034e-01 3.62191021e-01 3.00220847e-01 7.25137368e-02 7.59145394e-02 1.72134921e-01 5.57050467e-01 6.37849927e-01 6.38621151e-01 6.20118558e-01 5.57736576e-01 4.35074508e-01 2.76681185e-01 5.72786033e-02 6.52427450e-02 3.07293773e-01 3.96360308e-01 4.34495002e-01 4.04173255e-01 3.85439247e-01 3.78526717e-01 3.91668469e-01 4.12201941e-01 4.24290955e-01 4.29799199e-01 4.32671726e-01 4.34403121e-01 4.35087442e-01 4.34735984e-01 4.34309185e-01 4.33295578e-01 4.30565953e-01 4.26033705e-01 4.19041872e-01 3.33471090e-01 9.06218663e-02 3.26882005e-02 9.51864794e-02 3.43944937e-01 4.32914972e-01 4.98304516e-01 5.58804095e-01 5.86617827e-01 4.77862149e-01 2.55034596e-01 2.64965687e-02 8.48671645e-02 3.05481166e-01 4.67914760e-01 4.45086956e-01 4.34455425e-01 4.32156026e-01 4.37382758e-01 4.46494699e-01 4.52571094e-01 4.55416173e-01 4.56664294e-01 4.57059771e-01 4.56753701e-01 4.55858916e-01 4.54730421e-01 4.53427851e-01 4.51686352e-01 4.49402809e-01 4.45778221e-01 4.36367214e-01 3.85094911e-01 3.05507541e-01 7.61285797e-02 4.74646799e-02 1.40931845e-01 2.04437673e-01 2.28802264e-01 3.06204289e-01 5.56954682e-01 5.11865616e-01 1.08894728e-01 3.05223223e-02 1.88264966e-01 5.16224802e-01 5.06074250e-01 4.99376088e-01 4.96094078e-01 4.93831575e-01 4.92311001e-01 4.90361691e-01 4.88145500e-01 4.85948682e-01 4.83748913e-01 4.81480271e-01 4.79191929e-01 4.77015972e-01 4.74946499e-01 4.72876996e-01 4.70771700e-01 4.68424916e-01 4.65322971e-01 4.58967119e-01 4.43517536e-01 3.45842659e-01 7.72445649e-02 1.88631285e-02 4.08794954e-02 5.78910001e-02 7.96226561e-02 2.13079259e-01 6.53905451e-01 4.38436270e-01 4.48186621e-02 2.97786910e-02 5.51701069e-01 5.57852626e-01 5.53556740e-01 5.47250211e-01 5.39786339e-01 5.31982899e-01 5.24632573e-01 5.18298924e-01 5.12921810e-01 5.08251846e-01 5.04150450e-01 5.00605226e-01 4.97622162e-01 4.95118439e-01 4.92995232e-01 4.91239160e-01 4.89871770e-01 4.88993138e-01 4.88326550e-01 4.85285580e-01 4.69677180e-01 3.68698001e-01 9.60876271e-02 3.07752434e-02 2.80195437e-02 4.72505577e-02 1.03880271e-01 4.22324330e-01 6.83694601e-01 1.02769732e-01 3.18019697e-03 5.46119690e-01 5.63166738e-01 5.62822402e-01 5.58200359e-01 5.52803516e-01 5.46407640e-01 5.39721608e-01 5.33387899e-01 5.27594566e-01 5.22379220e-01 5.17812252e-01 5.13978779e-01 5.10910034e-01 5.08559644e-01 5.06882131e-01 5.05906641e-01 5.05747736e-01 5.06667435e-01 5.09040236e-01 5.12998164e-01 5.17459214e-01 5.14426529e-01 4.35891688e-01 2.30843917e-01 1.38229474e-01 1.16939992e-01 1.28449142e-01 3.13199192e-01 7.02394009e-01 1.21757723e-01 -4.93757520e-03 5.04402578e-01 5.18790305e-01 5.22214890e-01 5.24138331e-01 5.27429581e-01 5.29416442e-01 5.29359460e-01 5.27619660e-01 5.24809480e-01 5.21499455e-01 5.18174410e-01 5.15196621e-01 5.12783766e-01 5.11035383e-01 5.10007143e-01 5.09768963e-01 5.10434747e-01 5.12216270e-01 5.15482306e-01 5.20925164e-01 5.30002117e-01 5.44581950e-01 5.61271071e-01 5.46220005e-01 5.08919477e-01 4.45348501e-01 3.70630205e-01 4.41632748e-01 7.30301678e-01 1.25418797e-01 -7.79686077e-03 4.56148535e-01 4.58848119e-01 4.62776780e-01 4.69638556e-01 4.80570525e-01 4.91894901e-01 5.00631571e-01 5.05784631e-01 5.07874906e-01 5.07880867e-01 5.06728768e-01 5.05137205e-01 5.03597736e-01 5.02418399e-01 5.01788795e-01 5.01825392e-01 5.02597034e-01 5.04154801e-01 5.06575227e-01 5.10107279e-01 5.15581906e-01 5.24879634e-01 5.40132701e-01 5.58384538e-01 5.69203675e-01 5.43224692e-01 4.80908066e-01 5.51092505e-01 7.35381663e-01 1.23903677e-01 -7.77258724e-03 4.12291139e-01 4.03645456e-01 4.08318311e-01 4.19639856e-01 4.35571849e-01 4.53099966e-01 4.68377262e-01 4.79229450e-01 4.85673994e-01 4.88726497e-01 4.89528090e-01 4.89036411e-01 4.87971663e-01 4.86847728e-01 4.86018062e-01 4.85703319e-01 4.86003041e-01 4.86902744e-01 4.88285661e-01 4.89990026e-01 4.91965711e-01 4.94530439e-01 4.98561651e-01 5.04545808e-01 5.09370446e-01 5.01530051e-01 4.91954356e-01 6.01392090e-01 7.10268199e-01 1.17971897e-01 -6.20357133e-03 3.65085751e-01 3.47306520e-01 3.55627984e-01 3.76134485e-01 4.00432348e-01 4.24143195e-01 4.43652272e-01 4.57576811e-01 4.66366768e-01 4.71146584e-01 4.73042905e-01 4.73010600e-01 4.71831679e-01 4.70145226e-01 4.68470335e-01 4.67207581e-01 4.66625363e-01 4.66842115e-01 4.67818409e-01 4.69376206e-01 4.71237689e-01 4.73058969e-01 4.74522203e-01 4.75798965e-01 4.78717268e-01 4.87339050e-01 5.20861804e-01 6.42638862e-01 6.72771811e-01 1.11159176e-01 -2.87609524e-03 3.07950854e-01 2.84840673e-01 3.00612986e-01 3.36337119e-01 3.74319702e-01 4.06251341e-01 4.29177791e-01 4.44227159e-01 4.53532726e-01 4.58755821e-01 4.60976243e-01 4.60964590e-01 4.59376007e-01 4.56834465e-01 4.53958839e-01 4.51349020e-01 4.49537069e-01 4.48917419e-01 4.49701250e-01 4.51936603e-01 4.55567151e-01 4.60444093e-01 4.66275901e-01 4.72914368e-01 4.82861757e-01 5.06458998e-01 5.62107027e-01 6.57599270e-01 6.12283587e-01 1.00917950e-01 -4.16714201e-08 2.39987150e-01 2.19189212e-01 2.46711046e-01 3.03130537e-01 3.57964218e-01 3.98040891e-01 4.23112959e-01 4.38005179e-01 4.46820349e-01 4.51805174e-01 4.54002380e-01 4.53956544e-01 4.52094257e-01 4.48886871e-01 4.44920152e-01 4.40907180e-01 4.37628537e-01 4.35803384e-01 4.35985744e-01 4.38585043e-01 4.43955779e-01 4.52407092e-01 4.64250386e-01 4.80152458e-01 5.02354503e-01 5.38291335e-01 5.95196903e-01 6.40708923e-01 5.26680112e-01 8.71718749e-02 2.64405436e-03 1.67906627e-01 1.58760726e-01 2.00753018e-01 2.81300455e-01 3.52702290e-01 3.97776544e-01 4.22616810e-01 4.36351150e-01 4.44338739e-01 4.48953837e-01 4.51130778e-01 4.51244265e-01 4.49510753e-01 4.46180969e-01 4.41659957e-01 4.36583877e-01 4.31811392e-01 4.28321600e-01 4.27147448e-01 4.29412961e-01 4.36300457e-01 4.48735476e-01 4.67272937e-01 4.92755026e-01 5.25987804e-01 5.67617595e-01 6.08700573e-01 5.94153583e-01 4.20829535e-01 7.28703290e-02 6.58309273e-03 1.07707337e-01 1.11876875e-01 1.68949321e-01 2.74437726e-01 3.57931554e-01 4.02933180e-01 4.25162673e-01 4.37157661e-01 4.44326788e-01 4.48669285e-01 4.50945705e-01 4.51448500e-01 4.50275481e-01 4.47476208e-01 4.43177849e-01 4.37706560e-01 4.31683183e-01 4.26144302e-01 4.22815174e-01 4.24242675e-01 4.33245748e-01 4.51570570e-01 4.78947252e-01 5.13950884e-01 5.52685976e-01 5.88397324e-01 5.96535981e-01 5.13892949e-01 2.86033183e-01 5.80953807e-02 1.37417130e-02 7.05359206e-02 8.34983960e-02 1.57730967e-01 2.84577042e-01 3.71021181e-01 4.10765767e-01 4.29007322e-01 4.39158857e-01 4.45588738e-01 4.49719757e-01 4.52155054e-01 4.53175783e-01 4.52854306e-01 4.51115161e-01 4.47800905e-01 4.42772061e-01 4.36119050e-01 4.28710908e-01 4.23173398e-01 4.24280584e-01 4.37422365e-01 4.64870393e-01 5.03055096e-01 5.45363545e-01 5.79587698e-01 5.89969337e-01 5.41365087e-01 3.86305094e-01 1.58962727e-01 4.41880189e-02 2.48587485e-02 4.85599525e-02 6.83178157e-02 1.69322371e-01 3.10029417e-01 3.88126820e-01 4.19121563e-01 4.33167338e-01 4.41590160e-01 4.47263926e-01 4.51127023e-01 4.53678876e-01 4.55211401e-01 4.55823034e-01 4.55408007e-01 4.53635842e-01 4.49986100e-01 4.44060564e-01 4.36594337e-01 4.31151122e-01 4.34871405e-01 4.56282914e-01 4.97326314e-01 5.45500398e-01 5.83595335e-01 5.87960720e-01 5.38479924e-01 4.15465444e-01 2.15314448e-01 8.83392319e-02 4.30415496e-02 4.01849486e-02 3.59455608e-02 6.30776063e-02 2.03049213e-01 3.43557388e-01 4.05198306e-01 4.26706493e-01 4.37049806e-01 4.43789303e-01 4.48576570e-01 4.52054501e-01 4.54635262e-01 4.56591100e-01 4.58056390e-01 4.59005117e-01 4.59195793e-01 4.58174467e-01 4.55647260e-01 4.52715099e-01 4.53733236e-01 4.66842830e-01 5.01663327e-01 5.56377292e-01 5.97632706e-01 5.87749481e-01 5.14503479e-01 3.86590689e-01 2.11823404e-01 1.04493387e-01 5.64589910e-02 5.40650748e-02 6.59206286e-02 2.84423828e-02 6.29807487e-02 2.46156096e-01 3.75308931e-01 4.19379920e-01 4.32958841e-01 4.40074295e-01 4.45018470e-01 4.48780090e-01 4.51804608e-01 4.54373628e-01 4.56685245e-01 4.58905101e-01 4.61203873e-01 4.63770211e-01 4.66855139e-01 4.71083403e-01 4.78390455e-01 4.93118733e-01 5.20976245e-01 5.63957930e-01 6.04205668e-01 5.93958378e-01 4.92082596e-01 2.91384906e-01 1.56045377e-01 8.81380662e-02 6.24792390e-02 6.34182617e-02 9.16432664e-02 1.32874191e-01 2.34004054e-02 6.34879544e-02 2.81522483e-01 4.00075287e-01 4.30076033e-01 4.37495679e-01 4.41463202e-01 4.44506407e-01 4.47245210e-01 4.49882448e-01 4.52504665e-01 4.55197036e-01 4.58142459e-01 4.61741716e-01 4.66748208e-01 4.74363238e-01 4.86257464e-01 5.04546463e-01 5.31262100e-01 5.65525651e-01 5.96647024e-01 5.88955939e-01 4.78487074e-01 3.21310580e-01 2.00527057e-01 1.26205817e-01 9.92627591e-02 1.11693144e-01 1.45113796e-01 2.08064958e-01 2.86714882e-01 1.95661057e-02 6.37311339e-02 3.07284743e-01 4.18474734e-01 4.37692016e-01 4.39611137e-01 4.40408826e-01 4.41701412e-01 4.43635046e-01 4.46070045e-01 4.48879123e-01 4.52044368e-01 4.55739290e-01 4.60472643e-01 4.67300475e-01 4.77943152e-01 4.94480550e-01 5.18374443e-01 5.48853040e-01 5.80714285e-01 6.01557076e-01 5.88479817e-01 5.07580340e-01 3.70926410e-01 2.68713504e-01 2.42928296e-01 2.79814214e-01 3.55768591e-01 4.18599486e-01 4.50219035e-01 4.67053801e-01 1.64594017e-02 6.42477199e-02 3.28146040e-01 4.32336748e-01 4.41783756e-01 4.38450962e-01 4.36525345e-01 4.36583668e-01 4.38060701e-01 4.40459877e-01 4.43524897e-01 4.47217613e-01 4.51697052e-01 4.57390159e-01 4.65183288e-01 4.76570219e-01 4.93336558e-01 5.16407013e-01 5.44223011e-01 5.71891367e-01 5.91883779e-01 5.96226394e-01 5.82792521e-01 5.65319538e-01 5.56046963e-01 5.56411147e-01 5.66299081e-01 5.78406215e-01 5.80638885e-01 5.73385298e-01 5.58557093e-01 1.39237959e-02 6.54029474e-02 3.47648382e-01 4.41786438e-01 4.41379160e-01 4.33881581e-01 4.30408835e-01 4.29945558e-01 4.31192309e-01 4.33480471e-01 4.36625212e-01 4.40714628e-01 4.45954412e-01 4.52609628e-01 4.61085469e-01 4.72085088e-01 4.86568451e-01 5.05143106e-01 5.27009308e-01 5.49469233e-01 5.68891108e-01 5.82899153e-01 5.93511045e-01 6.06469870e-01 6.18276536e-01 6.21303916e-01 6.16467118e-01 6.05899453e-01 5.91014922e-01 5.77619433e-01 5.61576664e-01 1.00429039e-02 6.63990751e-02 3.66902590e-01 4.45720583e-01 4.36465144e-01 4.27129269e-01 4.23432320e-01 4.22725111e-01 4.23438698e-01 4.25112098e-01 4.27864373e-01 4.32050318e-01 4.38033313e-01 4.46025491e-01 4.56020445e-01 4.67849016e-01 4.81310457e-01 4.96186793e-01 5.11956871e-01 5.27390003e-01 5.40588319e-01 5.49947679e-01 5.55731833e-01 5.59449971e-01 5.59967816e-01 5.55973530e-01 5.49285173e-01 5.42288840e-01 5.36209583e-01 5.33363461e-01 5.29981375e-01 8.48533399e-03 7.41627142e-02 3.98918509e-01 4.53346550e-01 4.37552124e-01 4.28438216e-01 4.24693912e-01 4.23083305e-01 4.22438204e-01 4.22729075e-01 4.24387932e-01 4.27997708e-01 4.34098572e-01 4.43003595e-01 4.54626083e-01 4.68365341e-01 4.83109355e-01 4.97377217e-01 5.09544611e-01 5.18058419e-01 5.21739542e-01 5.20538092e-01 5.16263008e-01 5.11324704e-01 5.06505013e-01 5.01734674e-01 4.97323900e-01 4.93855774e-01 4.91801620e-01 4.93139476e-01 4.98479098e-01 2.46068127e-02 7.89599046e-02 4.55990076e-01 4.86913949e-01 4.58485484e-01 4.50423658e-01 4.46864069e-01 4.44861263e-01 4.43571925e-01 4.43055570e-01 4.43705946e-01 4.46022689e-01 4.50479597e-01 4.57377911e-01 4.66684163e-01 4.77886707e-01 4.89918798e-01 5.01197338e-01 5.09828687e-01 5.14030457e-01 5.12842894e-01 5.07107496e-01 4.99790102e-01 4.94023860e-01 4.90575343e-01 4.88371074e-01 4.86429870e-01 4.84637290e-01 4.83407348e-01 4.83884603e-01 4.87932950e-01 
