# vtk DataFile Version 2.0
results_case1_non_linear/2_density.vtk, Created by Freefem++ 
ASCII
DATASET UNSTRUCTURED_GRID
POINTS 865 float
0.013884782 1 0
0 1 0
0.024696662 1 0
0.023701374 0.84212793 0
0.013854522 0.83319396 0
0 0.81931825 0
0.033199003 1 0
0.032697652 0.84036044 0
0.030380356 0.74412524 0
0.015425816 0.73109978 0
0 0.71088646 0
0.042797866 1 0
0.04075696 0.86901216 0
0.041314518 0.76741518 0
0.055293033 1 0
0.047884303 0.69996902 0
0.031987072 0.68223341 0
0 0.64267921 0
0.019541312 0.66025795 0
0.051649847 0.84530485 0
0.052534064 0.75662675 0
0.066315155 0.73161369 0
0.061813374 0.8808934 0
0.064769824 1 0
0.06757236 0.67137323 0
0.08068865 0.69932212 0
0.040587196 0.62622748 0
0.051007122 0.64641003 0
0 0.59258404 0
0.035439649 0.58873084 0
0.099102561 0.69267892 0
0.067997953 0.8015685 0
0.082036455 0.75318602 0
0.074005408 1 0
0.072891146 0.87935073 0
0 0.54719945 0
0 0.50390101 0
0 0.46585131 0
0.074315273 0.6216661 0
0.09830609 0.6392855 0
0.10068513 0.5955284 0
0.12372099 0.64137958 0
0.06577876 0.58380513 0
0.037185767 0.53781622 0
0.063582972 0.5409932 0
0.087097465 1 0
0.10532521 0.72900869 0
0.13868273 0.66381851 0
0.16068236 0.66338199 0
0.09030467 0.80358775 0
0.087105708 0.88852107 0
0.035925197 0.49593644 0
0.03605429 0.46333869 0
0 0.43375303 0
0.097909125 0.56654122 0
0.12790603 0.57611208 0
0.14946644 0.59126748 0
0.092984087 0.53017674 0
0.071634753 0.50036086 0
0.17382145 0.59355999 0
0.10984614 1 0
0.14878704 1 0
0.10464631 0.91412911 0
0.200796 0.61471455 0
0.17413737 0.69651246 0
0.12616695 0.7473829 0
0.1163073 0.82401886 0
0.20653413 1 0
0.28320694 1 0
0.065125494 0.46473186 0
0.036135293 0.43412445 0
0 0.40466038 0
0.13014399 0.52936249 0
0.16221225 0.54357905 0
0.11513079 0.49685371 0
0.1007359 0.46943605 0
0 0.24428963 0
0 0.21227054 0
0.23011983 0.58702423 0
0.19846627 0.54518412 0
0.13521666 0.93167559 0
0.17884371 0.95099019 0
0.138778 0.87185057 0
0.23236624 0.66238662 0
0.15453383 0.81250821 0
0.17503042 0.75022795 0
0.26420941 0.95536735 0
0.36816787 1 0
0.05717219 0.26285007 0
0.097833656 0.26861036 0
0 0.27204503 0
0.090090328 0.44287589 0
0.064444387 0.42693601 0
0 0.37533019 0
0.032721649 0.40010135 0
0 0.35352515 0
0 0.3353234 0
0.16556174 0.50131052 0
0.12711806 0.43733374 0
0.14642809 0.4663791 0
0.20758073 0.50436371 0
0.057274437 0.23879844 0
0.042108627 0.22095417 0
0.030481806 0.19483249 0
0 0.1706953 0
0.096760215 0.2373636 0
0.26804414 0.59581935 0
0.24495422 0.5372592 0
0.20143152 0.90180862 0
0.20006323 0.84216173 0
0.29716524 0.6447237 0
0.26195952 0.71565048 0
0.21812986 0.78126386 0
0.29970246 0.91443548 0
0.37495147 0.96153719 0
0.45670444 1 0
0.13126318 0.26487602 0
0.12854881 0.2923393 0
0.043081031 0.28975288 0
0.086346387 0.2955736 0
0 0.29518662 0
0.13462044 0.40626477 0
0.097603945 0.40936713 0
0.053971602 0.36580612 0
0.064241813 0.38956186 0
0.059709632 0.34838485 0
0 0.31555085 0
0.19271014 0.4675548 0
0.17009453 0.43465095 0
0.23498771 0.48374066 0
0.081510469 0.21300703 0
0.06019688 0.19041655 0
0.029796561 0.16298699 0
0 0.13681581 0
0.16393545 0.26429276 0
0.13078874 0.23709393 0
0.11305438 0.20776521 0
0.27492886 0.51226634 0
0.30076726 0.56568175 0
0.34292691 0.6291559 0
0.28932421 0.85911263 0
0.29234087 0.80511254 0
0.34699111 0.70069392 0
0.30390136 0.75220487 0
0.64100368 1 0
0.41344881 0.93449607 0
0.3844909 0.88700576 0
0.4862012 0.96335751 0
0.59066233 1 0
0.53356628 1 0
0.91289878 1 0
0.82824314 1 0
1 1 0
0.94935182 0.98321802 0
0.80398941 0.9795823 0
0.16600672 0.29307026 0
0.12739001 0.31494713 0
0.070962551 0.31964208 0
0.16878851 0.39857198 0
0.11268341 0.37528955 0
0.094802036 0.34566086 0
0.27048681 0.46972912 0
0.21852426 0.43896175 0
0 0.11494594 0
0 0.09368666 0
0.083063516 0.17810614 0
0.055827866 0.15912194 0
0.034022253 0.1364589 0
0.19933987 0.27267939 0
0.10174476 0.16736031 0
0.16338817 0.23364635 0
0.1338937 0.19766763 0
0.32182927 0.52121816 0
0.35834474 0.5838566 0
0.4019426 0.6702931 0
0.42653879 0.73664326 0
0.38704929 0.81982595 0
0.3826839 0.76664713 0
0.75591224 1 0
0.69558804 1 0
0.75015717 0.97094471 0
0.63390831 0.96999475 0
0.44918981 0.8589847 0
0.49395736 0.91767462 0
0.56258378 0.95719348 0
0.89854448 0.9707064 0
1 0.97131191 0
0.83942616 0.95935929 0
0.19094284 0.31126704 0
0.15127846 0.33228499 0
0.14713278 0.34730544 0
0.2132107 0.40253934 0
0.17548246 0.37334786 0
0.31494568 0.47029427 0
0.27248686 0.43313301 0
0.35781896 0.50023668 0
0.24630568 0.29599444 0
0 0.074609092 0
0.036997054 0.10096302 0
0.039895195 0.11777453 0
0.067928821 0.14113509 0
0 0.026258356 0
0 0.047370812 0
0 0.061606285 0
0.24039042 0.26191822 0
0.08406942 0.13208244 0
0.20687415 0.23233306 0
0.10722313 0.14175179 0
0.1930135 0.19641276 0
0.13352697 0.16678746 0
0.16597272 0.20111507 0
0.39028216 0.55515615 0
0.41767657 0.51797057 0
0.44956569 0.61331025 0
0.42158493 0.63014466 0
0.46925582 0.71170215 0
0.49057252 0.76893854 0
0.46342734 0.80388664 0
0.6951997 0.96581272 0
0.75384836 0.95096172 0
0.60032684 0.93787665 0
0.64394924 0.93788138 0
0.50838883 0.8680264 0
0.55566466 0.90516329 0
1 0.95079935 0
0.87901859 0.94300105 0
0.24085365 0.32712661 0
0.23713824 0.36990987 0
0.23665674 0.34877752 0
0.28297582 0.40706852 0
0.36195734 0.45691814 0
0.33297545 0.397626 0
0.45869533 0.49028511 0
0 0 0
0.050135572 0 0
0.3181658 0.30452771 0
0.30789166 0.26922599 0
0.042160601 0.09003095 0
0.066387951 0.11115824 0
0.042714296 0.035794974 0
0.039870428 0.058338107 0
0.049666406 0.08149938 0
0.2672991 0.23287151 0
0.097622625 0.11676199 0
0.23192629 0.19794345 0
0.13332211 0.13683401 0
0.19653042 0.16252768 0
0.16292194 0.16316532 0
0.340814 0.23381233 0
0.5003174 0.54415997 0
0.47011726 0.57718191 0
0.50428257 0.63983137 0
0.49853231 0.68672255 0
0.52710843 0.75209352 0
0.52595461 0.83861276 0
0.52538431 0.80372478 0
0.55941134 0.7958281 0
0.78286542 0.93293183 0
0.69597966 0.93243387 0
0.60167552 0.90042616 0
0.64667536 0.90788836 0
0.56910323 0.86603819 0
0.87199269 0.92252621 0
1 0.92919523 0
0.34050644 0.33785711 0
0.41079404 0.31029172 0
0.34631127 0.37021634 0
0.43652032 0.36074207 0
0.43658966 0.40269274 0
0.41947881 0.43561753 0
0.51984151 0.47034751 0
0.5597299 0.52436153 0
0.09323204 0 0
0.069009806 0.021652597 0
0.087078612 0.043849188 0
0.40459647 0.2715645 0
0.41215173 0.23274467 0
0.086608641 0.098212999 0
0.079051256 0.062355711 0
0.078225652 0.078873919 0
0.28723408 0.19515116 0
0.12900248 0.11412381 0
0.16962206 0.12099605 0
0.23583332 0.15833028 0
0.1756521 0.13976649 0
0.35398451 0.19712819 0
0.58374034 0.57487815 0
0.55770731 0.60343063 0
0.54661765 0.6371997 0
0.55782102 0.68365753 0
0.5559789 0.72196383 0
0.57089668 0.76463328 0
0.57597135 0.82930119 0
0.59963247 0.80042902 0
0.79476826 0.91317745 0
0.73703165 0.91733299 0
0.70302409 0.90468983 0
0.62672386 0.87395604 0
0.66625657 0.88690952 0
0.61342549 0.85016331 0
0.8408475 0.90273089 0
0.9251035 0.90880451 0
1 0.90575358 0
1 0.88353244 0
0.48010257 0.33621355 0
0.49815379 0.30046189 0
0.51614693 0.39496719 0
0.55462563 0.36918349 0
0.62482584 0.43024426 0
0.54800724 0.43917695 0
0.61091377 0.49705741 0
0.64063801 0.57021331 0
0.13622568 0 0
0.1195504 0.027129346 0
0.13011989 0.055187772 0
0.49205677 0.2643167 0
0.4560058 0.22498214 0
0.12235367 0.09187018 0
0.13319278 0.073888022 0
0.2875812 0.15862882 0
0.2517942 0.13570139 0
0.16493442 0.10391398 0
0.20986158 0.12335536 0
0.33293168 0.16867046 0
0.39829416 0.19000267 0
0.60849935 0.7683438 0
0.62628267 0.62595639 0
0.60601323 0.66059069 0
0.61197246 0.69824429 0
0.59981555 0.73191532 0
0.66449194 0.6296633 0
0.63093176 0.82914848 0
0.65394017 0.81776552 0
0.63625273 0.79493364 0
0.76633096 0.89713098 0
0.70621436 0.88597325 0
0.66077359 0.86130863 0
0.83204691 0.88719926 0
0.89502941 0.89034297 0
0.94822613 0.88471857 0
1 0.86412455 0
0.56955475 0.30636409 0
0.57553892 0.34069378 0
0.62692483 0.39980618 0
0.63851047 0.37684189 0
0.69272886 0.42470524 0
0.69117961 0.45559888 0
0.65729345 0.47752314 0
0.68564028 0.53724828 0
0.6976793 0.59300893 0
0.18569221 0 0
0.17374492 0.025964358 0
0.16733611 0.04390602 0
0.21566807 0.02070286 0
0.19964806 0.061167382 0
0.61859517 0.31922911 0
0.55328179 0.26751066 0
0.47658117 0.21686002 0
0.18593931 0.08701502 0
0.21090178 0.073946496 0
0.31649415 0.14542515 0
0.25524112 0.1134376 0
0.28998458 0.1264702 0
0.22977853 0.099245433 0
0.37112961 0.16526368 0
0.42519042 0.18303954 0
0.35155723 0.14587761 0
0.66597218 0.77493341 0
0.6330156 0.73719752 0
0.64680341 0.76063133 0
0.65395342 0.67044869 0
0.65642033 0.70421062 0
0.69694666 0.64227222 0
0.77998469 0.88142784 0
0.67110859 0.8460748 0
0.68004786 0.83187819 0
0.66722707 0.80269913 0
0.7379655 0.88164567 0
0.70016398 0.86753063 0
0.68483547 0.80103682 0
0.68418353 0.78091434 0
0.82986081 0.87476503 0
0.89117654 0.87627239 0
0.94065979 0.8657202 0
1 0.84633954 0
0.66377417 0.36616322 0
0.74141204 0.43726203 0
0.70659748 0.40660213 0
0.73547832 0.46266678 0
0.72528516 0.49490298 0
0.73696393 0.60528186 0
0.72880242 0.52851465 0
0.74167803 0.56901504 0
0.24355874 0 0
0.29092309 0 0
0.23229503 0.046451449 0
0.25708456 0.031468267 0
0.26362356 0.065838725 0
0.65359675 0.33265346 0
0.54579291 0.24196797 0
0.61202909 0.28622938 0
0.48524813 0.20419055 0
0.26710477 0.083645539 0
0.32666727 0.12261742 0
0.30062106 0.10243291 0
0.44622236 0.17666487 0
0.36569828 0.13304297 0
0.4020834 0.15459401 0
0.69879223 0.76618898 0
0.68913881 0.74848083 0
0.67937614 0.72621642 0
0.69901588 0.67121211 0
0.71085231 0.68776364 0
0.7391768 0.63450429 0
0.82133934 0.86680782 0
0.76864554 0.8696592 0
0.70433322 0.8518817 0
0.69826036 0.8273871 0
0.73013413 0.86436497 0
0.70627564 0.79787833 0
0.71554909 0.81748662 0
0.71425865 0.78277597 0
0.73295107 0.76469119 0
0.87012046 0.86552524 0
0.90911957 0.85922484 0
0.95084697 0.84584647 0
1 0.83009668 0
0.96368566 0.8274413 0
0.73097754 0.39744566 0
0.77432784 0.46768037 0
0.7708223 0.43750222 0
0.76750986 0.49956216 0
0.76997254 0.53354072 0
0.77213919 0.59980289 0
[...]
CELL_DATA 1728
Scalars  Label int 1
LOOKUP_TABLE FreeFempp_table
0
0
0
0
0
0
0
0
0
0
0
0
0
0
0
0
0
0
0
0
0
0
0
0
0
0
0
0
0
0
0
0
0
0
0
0
0
0
0
0
0
0
0
0
0
0
0
0
0
0
0
0
0
0
0
0
0
0
0
0
0
0
0
0
0
0
0
0
0
0
0
0
0
0
0
0
0
0
0
0
0
0
0
0
0
0
0
0
0
0
0
0
0
0
0
0
0
0
0
0
0
0
0
0
0
0
0
0
0
0
0
0
0
0
0
0
0
0
0
0
0
0
0
0
0
0
0
0
0
0
0
0
0
0
0
0
0
0
0
0
0
0
0
0
0
0
0
0
0
0
0
0
0
0
0
0
0
0
0
0
0
0
0
0
0
0
0
0
0
0
0
0
0
0
0
0
0
0
0
0
0
0
0
0
0
0
0
0
0
0
0
0
0
0
0
0
0
0
0
0
0
0
0
0
0
0
0
0
0
0
0
0
0
0
0
0
0
0
0
0
0
0
0
0
0
0
0
0
0
0
0
0
0
0
0
0
0
0
0
0
0
0
0
0
0
0
0
0
0
0
0
0
0
0
0
0
0
0
0
0
0
0
0
0
0
0
0
0
0
0
0
0
0
0
0
0
0
0
0
0
0
0
0
0
0
0
0
0
0
0
0
0
0
0
0
0
0
0
0
0
0
0
0
0
0
0
0
0
0
0
0
0
0
0
0
0
0
0
0
0
0
0
0
0
0
0
0
0
0
0
0
0
0
0
0
0
0
0
0
0
0
0
0
0
0
0
0
0
0
0
0
0
0
0
0
0
0
0
0
0
0
0
0
0
0
0
0
0
0
0
0
0
0
0
0
0
0
0
0
0
0
0
0
0
0
0
0
0
0
0
0
0
0
0
0
0
0
0
0
0
0
0
0
0
0
0
0
0
0
0
0
0
0
0
0
0
0
0
0
0
0
0
0
0
0
0
0
0
0
0
0
0
0
0
0
0
0
0
0
0
0
0
0
0
0
0
0
0
0
0
0
0
0
0
0
0
0
0
0
0
0
0
0
0
0
0
0
0
0
0
0
0
0
0
0
0
0
0
0
0
0
0
0
0
0
0
0
0
0
0
0
0
0
0
0
0
0
0
0
0
0
0
0
0
0
0
0
0
0
0
0
0
0
0
0
0
0
0
0
0
0
0
0
0
0
0
0
0
0
0
0
0
0
0
0
0
0
0
0
0
0
0
0
0
0
0
0
0
0
0
0
0
0
0
0
0
0
0
0
0
0
0
0
0
0
0
0
0
0
0
0
0
0
0
0
0
0
0
0
0
0
0
0
0
0
0
0
0
0
0
0
0
0
0
0
0
0
0
0
0
0
0
0
0
0
0
0
0
0
0
0
0
0
0
0
0
0
0
0
0
0
0
0
0
0
0
0
0
0
0
0
0
0
0
0
0
0
0
0
0
0
0
0
0
0
0
0
0
0
0
0
0
0
0
0
0
0
0
0
0
0
0
0
0
0
0
0
0
0
0
0
0
0
0
0
0
0
0
0
0
0
0
0
0
0
0
0
0
0
0
0
0
0
0
0
0
0
0
0
0
0
0
0
0
0
0
0
0
0
0
0
0
0
0
0
0
0
0
0
0
0
0
0
0
0
0
0
0
0
0
0
0
0
0
0
0
0
0
0
0
0
0
0
0
0
0
0
0
0
0
0
0
0
0
0
0
0
0
0
0
0
0
0
0
0
0
0
0
0
0
0
0
0
0
0
0
0
0
0
0
0
0
0
0
0
0
0
0
0
0
0
0
0
0
0
0
0
0
0
0
0
0
0
0
0
0
0
0
0
0
0
0
0
0
0
0
0
0
0
0
0
0
0
0
0
0
0
0
0
0
0
0
0
0
0
0
0
0
0
0
0
0
0
0
0
0
0
0
0
0
0
0
0
0
0
0
0
0
0
0
0
0
0
0
0
0
0
0
0
0
0
0
0
0
0
0
0
0
0
0
0
0
0
0
0
0
0
0
0
0
0
0
0
0
0
0
0
0
0
0
0
0
0
0
0
0
0
0
0
0
0
0
0
0
0
0
0
0
0
0
0
0
0
0
0
0
0
0
0
0
0
0
0
0
0
0
0
0
0
0
0
0
0
0
0
0
0
0
0
0
0
0
0
0
0
0
0
0
0
0
0
0
0
0
0
0
0
0
0
0
0
0
0
0
0
0
0
0
0
0
0
0
0
0
0
0
0
0
0
0
0
0
0
0
0
0
0
0
0
0
0
0
0
0
0
0
0
0
0
0
0
0
0
0
0
0
0
0
0
0
0
0
0
0
0
0
0
0
0
0
0
0
0
0
0
0
0
0
0
0
0
0
0
0
0
0
0
0
0
0
0
0
0
0
0
0
0
0
0
0
0
0
0
0
0
0
0
0
0
0
0
0
0
0
0
0
0
0
0
0
0
0
0
0
0
0
0
0
0
0
0
0
0
0
0
0
0
0
0
0
0
0
0
0
0
0
0
0
0
0
0
0
0
0
0
0
0
0
0
0
0
0
0
0
0
0
0
0
0
0
0
0
0
0
0
0
0
0
0
0
0
0
0
0
0
0
0
0
0
0
0
0
0
0
0
0
0
0
0
0
0
0
0
0
0
0
0
0
0
0
0
0
0
0
0
0
0
0
0
0
0
0
0
0
0
0
0
0
0
0
0
0
0
0
0
0
0
0
0
0
0
0
0
0
0
0
0
0
0
0
0
0
0
0
0
0
0
0
0
0
0
0
0
0
0
0
0
0
0
0
0
0
0
0
0
0
0
0
0
0
0
0
0
0
0
0
0
0
0
0
0
0
0
0
0
0
0
0
0
0
0
0
0
0
0
0
0
0
0
0
0
0
0
0
0
0
0
0
0
0
0
0
0
0
0
0
0
0
0
0
0
0
0
0
0
0
0
0
0
0
0
0
0
0
0
0
0
0
0
0
0
0
0
0
0
0
0
0
0
0
0
0
0
0
0
0
0
0
0
0
0
0
0
0
0
0
0
0
0
0
0
0
0
0
0
0
0
0
0
0
0
0
0
0
0
0
0
0
0
0
0
0
0
0
0
0
0
0
0
0
0
0
0
0
0
0
0
0
0
0
0
0
0
0
0
0
0
0
0
0
0
0
0
0
0
0
0
0
0
0
0
0
0
0
0
0
0
0
0
0
0
0
0
0
0
0
0
0
0
0
0
0
0
0
0
0
0
0
0
0
0
0
0
0
0
0
0
0
0
0
0
0
0
0
0
0
0
0
0
0
0
0
0
0
0
0
0
0
0
0
0
0
0
0
0
0
0
0
0
0
0
0
0
0
0
0
0
0
0
0
0
0
0
0
0
0
0
0
0
0
0
0
0
0
0
0
0
0
0
0
0
0
0
0
0
0
0
0
0
0
0
0
0
0
0
0
0
0
0
0
0
0
0
0
0
0
0
0
0
0
0
0
0
0
0
0
0
0
0
0
0
0
0
0
0
0
0
0
0
0
0
0
0
0
0
0
0
0
0
0
0
0
0
0
0
0
0
0
0
0
0
0
0
0
0
0
0
0
0
0
0
0
0
0
0
0
0
0
0
0
0
0
0
0
0
0
0
0
0
0
0
0
0
0
0
0
0
0
0
0
0
0
0
0
0
0
0
0
0
0
0
0
0
0
0
1
1
1
1
1
1
1
1
1
1
1
1
1
1
1
1
1
1
1
1
1
1
1
2
2
2
2
2
2
2
2
2
2
2
2
2
2
2
2
2
2
2
2
2
2
2
2
2
2
2
2
2
2
2
2
3
3
3
3
3
3
3
3
3
3
3
3
3
3
3
3
3
3
3
3
3
3
4
4
4
4
4
4
4
4
4
4
4
4
4
4
4
4
4
4
4
4
4
4
4
4
4
4

LOOKUP_TABLE FreeFempp_table 5
1.00000000 0.00000000 0.00000000 1.00000000
1.00000000 1.00000000 0.00000000 1.00000000
1.00000000 0.00000000 1.00000000 1.00000000
0.00000000 1.00000000 0.00000000 1.00000000
0.00000000 1.00000000 1.00000000 1.00000000

POINT_DATA 865
FIELD FieldData 1
Density 1 865 float
4.52128053e-02 2.91952416e-02 7.85315335e-02 6.25421554e-02 3.84017751e-02 2.49505453e-02 1.23417944e-01 9.94047895e-02 8.19454566e-02 4.10748608e-02 2.40460634e-02 1.99248075e-01 1.57758042e-01 1.45153776e-01 3.17641556e-01 1.46881357e-01 6.41666651e-02 2.61412412e-02 3.66904624e-02 2.44662106e-01 2.23072380e-01 2.97994316e-01 3.34972501e-01 3.94228786e-01 1.99608997e-01 3.05529684e-01 6.03819042e-02 1.01079606e-01 4.48959358e-02 5.60933948e-02 3.62903774e-01 3.51944655e-01 3.80348921e-01 4.41521466e-01 3.96667808e-01 8.41169059e-02 1.46520272e-01 2.20226228e-01 1.48896679e-01 2.73323357e-01 2.12793112e-01 3.48552644e-01 9.62067544e-02 8.69264975e-02 9.65867639e-02 4.71037447e-01 4.14530069e-01 3.98818821e-01 4.20335978e-01 4.26480919e-01 4.35944587e-01 1.31703183e-01 1.88847348e-01 2.99722493e-01 1.73101708e-01 2.76614457e-01 3.44862819e-01 1.54089183e-01 1.38767868e-01 3.88340950e-01 4.73898768e-01 4.57539320e-01 4.57574636e-01 4.26937103e-01 4.42499280e-01 4.40664768e-01 4.56064552e-01 4.53527033e-01 4.53010023e-01 1.85161516e-01 2.68585086e-01 3.91936660e-01 2.52469182e-01 3.39418381e-01 2.23018363e-01 2.29159132e-01 4.44899440e-01 3.99190217e-01 4.43515241e-01 4.04517561e-01 4.49726522e-01 4.43550885e-01 4.56970781e-01 4.60923254e-01 4.58350182e-01 4.56213683e-01 4.44011688e-01 4.60886598e-01 4.31264758e-01 4.23153251e-01 5.14010370e-01 2.82390237e-01 2.99654037e-01 5.01701653e-01 4.01574939e-01 5.71750402e-01 6.05816364e-01 3.48570943e-01 3.76237184e-01 3.45318288e-01 4.28077221e-01 3.43902200e-01 3.34368140e-01 3.39425594e-01 3.99086505e-01 2.84993708e-01 4.69406724e-01 4.55228627e-01 4.51551020e-01 4.62746203e-01 4.88364398e-01 4.81968701e-01 4.70241070e-01 4.56548095e-01 4.52059388e-01 4.73096550e-01 4.11470294e-01 5.21337926e-01 5.47783434e-01 5.48214793e-01 5.73479950e-01 5.00970960e-01 4.24957037e-01 5.72349489e-01 4.74740416e-01 6.20149374e-01 6.04814291e-01 4.40217137e-01 4.71740633e-01 4.73214239e-01 2.33335942e-01 2.47704208e-01 3.48929763e-01 3.95273894e-01 4.40313250e-01 3.16929996e-01 2.31854841e-01 4.86613125e-01 4.83677268e-01 5.00037849e-01 4.73693430e-01 4.87674326e-01 5.09599268e-01 4.97015744e-01 4.75840688e-01 4.66527462e-01 4.79867071e-01 4.79943037e-01 4.96209174e-01 4.93660122e-01 4.78526682e-01 4.56660986e-01 4.90288317e-01 4.88333136e-01 4.55943018e-01 5.26090324e-01 5.90956807e-01 6.21199131e-01 5.60024619e-01 5.79525173e-01 6.30652606e-01 5.11370063e-01 5.19502699e-01 3.35348099e-01 2.14720413e-01 1.83922961e-01 2.41946101e-01 3.07126313e-01 4.83193219e-01 1.87924519e-01 3.74101639e-01 2.77697474e-01 4.94654447e-01 4.95083123e-01 5.15616953e-01 5.25789499e-01 5.04566789e-01 5.15609384e-01 4.27058578e-01 4.31684971e-01 4.44428235e-01 4.86342669e-01 5.03635287e-01 4.92281079e-01 4.99828577e-01 4.87632006e-01 5.01414359e-01 4.95212644e-01 5.65176845e-01 6.15645349e-01 6.23553872e-01 5.75063825e-01 6.05609715e-01 5.20010710e-01 5.48620760e-01 5.10016024e-01 5.28070867e-01 1.07421421e-01 1.17310524e-01 1.97001413e-01 1.80297241e-01 1.27148509e-01 7.35582411e-02 6.92410320e-02 4.73588675e-01 1.39517590e-01 4.22919184e-01 1.99641019e-01 3.94375205e-01 2.92714030e-01 3.61196339e-01 4.99148667e-01 5.00350237e-01 4.98726428e-01 5.07669330e-01 5.25802374e-01 5.34128249e-01 5.24430513e-01 4.55783129e-01 4.94024336e-01 5.09382486e-01 5.18887103e-01 5.18789530e-01 5.21600664e-01 5.30182302e-01 5.39333344e-01 5.73449910e-01 5.98213911e-01 5.93149424e-01 5.71937561e-01 5.33130825e-01 5.67526579e-01 5.08989573e-01 2.02953860e-01 2.42934242e-01 5.26290536e-01 4.85163003e-01 6.69243783e-02 8.64610225e-02 1.56596065e-01 7.08409399e-02 4.16532718e-02 4.42833513e-01 1.14057280e-01 4.11351502e-01 2.75177628e-01 3.85338157e-01 3.64086688e-01 4.47357863e-01 4.86289322e-01 4.89939600e-01 4.96360242e-01 5.15196025e-01 5.35562277e-01 5.43785334e-01 5.49631000e-01 5.72634876e-01 5.62062025e-01 5.42789817e-01 5.58040738e-01 5.79170406e-01 5.67352414e-01 6.14379048e-01 5.75801909e-01 5.52528322e-01 5.13882756e-01 5.65783560e-01 5.43463826e-01 5.49218178e-01 5.39510190e-01 5.16378880e-01 4.89256203e-01 2.69050211e-01 2.22465098e-01 1.58378363e-01 4.78710711e-01 4.44411576e-01 4.73468080e-02 7.17830881e-02 3.86044607e-02 4.17543650e-01 1.49771929e-01 2.25687727e-01 3.88688147e-01 3.33642334e-01 4.13399965e-01 4.70770806e-01 4.72245842e-01 4.81467247e-01 4.92642403e-01 5.13073444e-01 5.49807906e-01 5.98849714e-01 6.21310234e-01 6.46440208e-01 6.06556296e-01 6.27833903e-01 6.27973497e-01 6.43386781e-01 6.41040802e-01 6.96442366e-01 6.66011989e-01 6.38048768e-01 6.85530722e-01 5.20186365e-01 4.90072101e-01 5.38160980e-01 5.26237369e-01 5.29081523e-01 5.30052781e-01 5.05908966e-01 4.75501627e-01 2.56466687e-01 2.20638424e-01 1.03578091e-01 4.62602615e-01 4.32887107e-01 5.50586283e-02 4.87308986e-02 3.88934612e-01 3.31426561e-01 1.10002652e-01 2.55859911e-01 3.82832736e-01 3.97374153e-01 5.76507449e-01 4.53662813e-01 4.58073139e-01 4.64088142e-01 5.04939497e-01 4.50187743e-01 6.77621722e-01 6.82276547e-01 6.54561222e-01 6.79886937e-01 6.65955007e-01 6.85031414e-01 7.15092421e-01 7.23076224e-01 7.22575486e-01 6.93408549e-01 4.82930005e-01 5.06748497e-01 5.28605938e-01 5.19027710e-01 5.27399063e-01 5.18637300e-01 5.15767097e-01 4.98294592e-01 4.73592967e-01 2.37963706e-01 2.08215147e-01 1.49214670e-01 1.84564367e-01 6.74403608e-02 4.82530117e-01 4.56168652e-01 4.11657304e-01 5.43029010e-02 4.40849066e-02 3.32249552e-01 1.81240290e-01 2.61638910e-01 8.90988410e-02 3.36233646e-01 3.68699938e-01 2.59850353e-01 6.13071918e-01 5.12543619e-01 5.87645054e-01 4.39356804e-01 4.59922493e-01 4.54051822e-01 6.82729006e-01 6.90365553e-01 6.58414423e-01 6.46658897e-01 6.61826253e-01 6.74041510e-01 5.59869707e-01 5.56029379e-01 6.91624463e-01 7.27060914e-01 7.37944424e-01 6.52777791e-01 5.11175871e-01 5.27139485e-01 5.28947711e-01 5.09627879e-01 5.03748059e-01 4.83644247e-01 5.05020559e-01 4.99533802e-01 1.76853418e-01 1.35810018e-01 1.04880095e-01 1.30437374e-01 4.12032530e-02 4.80476916e-01 4.28279221e-01 4.47470486e-01 3.70412886e-01 4.48356196e-02 1.84359193e-01 8.97529945e-02 3.00847352e-01 1.30705595e-01 2.37264708e-01 5.63757777e-01 5.72227776e-01 5.22344947e-01 4.57361698e-01 4.86344099e-01 4.82008308e-01 6.40834868e-01 6.34880722e-01 6.34783089e-01 5.61099946e-01 6.19527459e-01 4.25702631e-01 3.85714233e-01 4.53191459e-01 5.52302957e-01 6.63544476e-01 6.96593881e-01 6.68985903e-01 5.71146190e-01 5.38256526e-01 5.11881173e-01 4.93411958e-01 5.29172540e-01 4.70994562e-01 4.91536081e-01 5.06228268e-01 5.08467555e-01 1.43387169e-01 1.02578200e-01 6.51006550e-02 3.36804576e-02 3.67490321e-01 4.46086347e-01 4.01062250e-01 4.03547645e-01 2.46956110e-01 4.39953879e-02 6.97875097e-02 1.72354311e-01 8.99178609e-02 6.11238599e-01 6.20144784e-01 5.92657685e-01 5.45183301e-01 5.42662024e-01 5.07588923e-01 5.30255020e-01 5.45610607e-01 4.76055473e-01 4.55141425e-01 2.65197754e-01 2.43944868e-01 3.84432912e-01 5.09717345e-01 3.36664170e-01 5.17418742e-01 5.59905529e-01 5.68216145e-01 5.51716030e-01 4.42005366e-01 4.21765178e-01 4.47172403e-01 4.85714853e-01 4.29595828e-01 4.78300810e-01 4.34296072e-01 4.88355219e-01 5.29885471e-01 4.63208914e-01 3.62973630e-01 2.62875736e-01 1.94204360e-01 1.17545009e-01 5.96531332e-02 4.26647477e-02 3.25976521e-01 2.85170555e-01 3.08491766e-01 3.10377002e-01 1.86181486e-01 1.56906769e-01 9.28198323e-02 4.99297716e-02 6.69103563e-02 6.24683559e-01 6.42672956e-01 6.54613197e-01 6.06835365e-01 5.66328406e-01 3.23880792e-01 2.41765112e-01 1.77772492e-01 2.88481414e-01 3.84748071e-01 1.80621043e-01 2.76603878e-01 3.27163905e-01 3.36267561e-01 5.42065799e-01 3.94295216e-01 3.25123519e-01 2.42508158e-01 2.32607260e-01 2.92918772e-01 3.38100821e-01 3.90699148e-01 3.80562395e-01 3.89446825e-01 3.80696326e-01 5.49663305e-01 3.03033680e-01 3.70483905e-01 4.79063243e-01 1.85486972e-01 1.26259491e-01 2.07701832e-01 2.82823026e-01 1.31268337e-01 7.68936127e-02 6.82659522e-02 1.80297881e-01 1.82066008e-01 1.53303355e-01 8.60924199e-02 8.19259807e-02 5.66227622e-02 5.05190566e-02 5.66734195e-01 6.35000885e-01 6.52586043e-01 6.62207723e-01 6.30692482e-01 1.29458427e-01 1.43302694e-01 1.83465973e-01 2.20639154e-01 1.20379291e-01 1.59411401e-01 4.24269468e-01 2.27309182e-01 4.50051814e-01 1.28692910e-01 1.55820265e-01 1.57561675e-01 1.86344862e-01 3.06606591e-01 5.56329310e-01 2.31547445e-01 3.58920813e-01 4.47810054e-01 6.59419775e-01 8.65751430e-02 8.07692111e-02 8.17210749e-02 2.34492153e-01 2.91864306e-01 3.34252298e-01 1.57341480e-01 7.81508610e-02 9.23207626e-02 5.20481132e-02 1.03828058e-01 6.16728887e-02 5.97276807e-01 4.75209892e-01 3.58825088e-01 6.27480328e-01 6.53594315e-01 8.31801146e-02 1.16023690e-01 9.12961364e-02 2.43646011e-01 1.20582193e-01 2.52686679e-01 2.67374814e-01 1.01447083e-01 5.46438098e-02 7.17165023e-02 6.78459480e-02 1.12566851e-01 1.94439948e-01 2.84097105e-01 5.73490024e-01 4.30344552e-01 6.34881377e-01 6.74280301e-02 7.83202425e-02 6.52925521e-02 7.90857822e-02 1.14894897e-01 2.80212492e-01 3.24860036e-01 3.65523636e-01 1.92640841e-01 1.58278510e-01 2.11706445e-01 6.34927303e-02 8.08275193e-02 1.08699828e-01 1.82365239e-01 3.51825118e-01 5.32868266e-01 6.38028204e-01 6.35943651e-01 7.00378716e-02 1.04153082e-01 1.17510669e-01 5.71137033e-02 3.97540703e-02 4.33055535e-02 8.51371735e-02 1.71869650e-01 3.47289354e-01 2.23149210e-01 5.15517533e-01 1.08808391e-01 1.25385001e-01 1.09107137e-01 1.70190439e-01 2.23550081e-01 1.98764533e-01 1.71647608e-01 3.41199756e-01 3.15005749e-01 3.88891160e-01 3.61232698e-01 2.97468185e-01 3.26662183e-01 2.18768567e-01 1.53089449e-01 1.17684208e-01 2.24502072e-01 5.00467837e-01 6.28960669e-01 5.92869222e-01 5.84314644e-01 5.01200631e-02 6.64803162e-02 2.94632949e-02 3.27170193e-02 1.87484697e-01 2.13300690e-01 3.32048386e-01 3.83686304e-01 5.33421993e-01 2.15888843e-01 3.04172337e-01 4.77404237e-01 3.92868131e-01 2.49083415e-01 2.68124133e-01 3.86994213e-01 4.73437458e-01 3.57030064e-01 3.32507789e-01 3.01532984e-01 4.21059072e-01 3.75042468e-01 3.88860643e-01 4.28202987e-01 3.74458045e-01 3.37542295e-01 1.04661569e-01 2.61894047e-01 5.52891612e-01 5.51481724e-01 4.89675403e-02 2.80593503e-02 1.74069516e-02 3.80722672e-01 3.52380306e-01 4.19375896e-01 5.09352863e-01 3.69847596e-01 4.04197007e-01 4.63583499e-01 4.08212423e-01 2.82693028e-01 5.21895885e-01 4.54142094e-01 4.98557657e-01 5.54929078e-01 5.85822642e-01 4.44608897e-01 4.26540554e-01 4.77820039e-01 3.99270922e-01 4.72373515e-01 4.20156598e-01 5.01026988e-01 4.36645478e-01 4.26047236e-01 9.43033546e-02 5.25416493e-01 4.31745410e-01 4.28952515e-01 2.86843218e-02 4.02335078e-01 4.13758993e-01 4.94742453e-01 5.19864380e-01 2.49560803e-01 1.69830516e-01 5.08925140e-01 5.56542218e-01 6.05515897e-01 5.37779152e-01 6.05327427e-01 4.52761680e-01 4.89080936e-01 4.33900297e-01 4.55288023e-01 3.90263826e-01 3.91648293e-01 5.70836723e-01 5.32541394e-01 4.95463908e-01 6.68825507e-02 3.71659338e-01 2.23398328e-01 3.84424701e-02 3.06197673e-01 2.96098948e-01 1.20763145e-01 5.44318855e-01 5.05201638e-01 5.84639311e-01 4.45921481e-01 4.44501549e-01 3.37341398e-01 3.96456510e-01 3.39057714e-01 2.41489649e-01 2.68014342e-01 2.74051696e-01 6.43025637e-01 6.33282542e-01 5.58541238e-01 7.61452690e-02 1.48071125e-01 3.88919413e-02 1.48447871e-01 9.79246721e-02 5.20118177e-01 3.43504846e-01 4.81988221e-01 4.08800393e-01 5.01813531e-01 2.82389432e-01 1.76892847e-01 3.48993093e-01 2.86800563e-01 2.61087567e-01 1.72862411e-01 1.31367654e-01 1.81637689e-01 6.57597721e-01 6.37845218e-01 5.29893786e-02 2.94994414e-02 3.03326622e-02 7.88087472e-02 5.07916212e-02 4.10843492e-01 3.86671573e-01 2.65173823e-01 5.68033695e-01 3.21946174e-01 1.54833302e-01 2.29829580e-01 8.87870863e-02 7.44113028e-02 2.14907631e-01 1.77949607e-01 1.60929188e-01 7.44021609e-02 1.79256588e-01 7.44984075e-02 6.24180734e-01 6.20077729e-01 5.47037780e-01 5.54577559e-02 1.03970110e-01 4.83484268e-02 6.46219701e-02 3.77337456e-01 1.16672076e-01 1.10907212e-01 5.25488779e-02 1.06583737e-01 4.71084058e-01 6.38021752e-02 8.49692002e-02 3.42558660e-02 2.55057603e-01 1.06655367e-01 4.10735756e-02 6.08826160e-01 5.57801783e-01 9.40247625e-02 1.58478394e-01 2.16728717e-01 3.29207145e-02 6.27532080e-02 4.94653396e-02 4.59459983e-02 3.86559099e-01 3.33913714e-02 3.02900001e-02 2.87978332e-02 1.43692777e-01 7.47568831e-02 3.34388129e-02 6.09788656e-01 5.05985975e-01 5.78733742e-01 1.55355260e-01 2.65571117e-01 5.78763559e-02 3.24434191e-01 1.40250042e-01 3.13627087e-02 5.68042882e-02 8.81748572e-02 1.80221289e-01 3.95705044e-01 7.14038983e-02 5.97314894e-01 5.78423202e-01 5.41458070e-01 2.73082793e-01 1.41313851e-01 2.36200988e-01 8.14022943e-02 1.38058051e-01 2.14920193e-01 4.49988455e-01 1.91269666e-01 5.82004249e-01 5.67762017e-01 5.58444321e-01 5.32067001e-01 3.29417020e-01 2.97773153e-01 2.40114138e-01 4.56990600e-01 3.48185837e-01 3.56684923e-01 5.52305937e-01 5.67485392e-01 5.52405000e-01 5.39640427e-01 5.07960200e-01 5.03650486e-01 4.03972626e-01 4.08081025e-01 4.61074710e-01 
