# vtk DataFile Version 2.0
results_case1_non_linear/4_density.vtk, Created by Freefem++ 
ASCII
DATASET UNSTRUCTURED_GRID
POINTS 771 float
0 1 0
0.008248155 1 0
0.016204334 1 0
0.024421293 1 0
0 0.81618589 0
0.012739589 0.84040534 0
0.022571274 0.84675497 0
0.033779315 1 0
0.047154515 1 0
0.033388986 0.84410997 0
0.062659293 1 0
0 0.70759954 0
0.013491402 0.73065109 0
0.02757834 0.75048321 0
0.042641983 0.76632492 0
0.048873489 0.8618034 0
0.064242195 0.8734151 0
0.074765085 1 0
0 0.63882228 0
0.016380029 0.65371798 0
0.029179927 0.67872626 0
0.0472536 0.70751424 0
0.063181285 0.7838139 0
0.071124147 0.731226 0
0.076086146 0.85531497 0
0.085624245 0.88670221 0
0.086128025 1 0
0 0.58865609 0
0.025751382 0.59322306 0
0.038185777 0.61870944 0
0.050373674 0.64642176 0
0.069248423 0.66986471 0
0.091009292 0.70141671 0
0.08731275 0.78710016 0
0.099660233 1 0
0.12013484 1 0
0.15609092 1 0
0.098287769 0.87608953 0
0 0.54698671 0
0.056932833 0.55691619 0
0.037093919 0.53961543 0
0.066242689 0.58659865 0
0.080319878 0.61034102 0
0.097005994 0.63312226 0
0.11806091 0.64560892 0
0.10775225 0.72350136 0
0.10567381 0.78766613 0
0.21584442 1 0
0.18379092 0.95264443 0
0.11359794 0.9138795 0
0.1425803 0.93514442 0
0.120812 0.82850808 0
0 0.51118231 0
0.038220317 0.49990203 0
0.090019209 0.53231235 0
0.07261771 0.5032367 0
0.30756678 1 0
0.10460343 0.56055409 0
0.12164496 0.58402129 0
0.13803495 0.66031428 0
0.14729471 0.59346681 0
0.13118955 0.73507339 0
0.16388539 0.65661 0
0.25695732 0.95366534 0
0.19614518 0.90854232 0
0.14457328 0.87564894 0
0.14603979 0.76673172 0
0.15660033 0.81420924 0
0 0.47907555 0
0.050140445 0.46575712 0
0.13106719 0.52531271 0
0.11832543 0.49699957 0
0.09867234 0.47089683 0
0.081904005 0.44588931 0
0.35203489 0.9612486 0
0.4942034 1 0
0.40328319 1 0
0.15694633 0.54629091 0
0.17422153 0.59021594 0
0.17939196 0.6927584 0
0.20095916 0.61639349 0
0.23040037 0.88259471 0
0.30529213 0.9140759 0
0.19751492 0.84447737 0
0.19517312 0.73961933 0
0.21683954 0.78432652 0
1 1 0
0.6267655 1 0
0.69795124 1 0
0 0.44734568 0
0.0434023 0.42274463 0
0.091891235 0.4164928 0
0.16755962 0.50325416 0
0.14843744 0.46726897 0
0.12740553 0.43852175 0
0.56530051 1 0
0.41613235 0.93918603 0
0.49183397 0.96488125 0
0.19714211 0.54707472 0
0.22758377 0.58427205 0
0.2350563 0.65732478 0
0.2077245 0.50679632 0
0.38463074 0.88246786 0
0.29251944 0.85416563 0
0.28515903 0.80359835 0
0.30071638 0.75154132 0
0.26554218 0.71216678 0
0.88302599 1 0
0.92287388 0.9858522 0
0.7776746 1 0
1 0.97642135 0
0.69331784 0.97248049 0
0.62333025 0.9708322 0
0 0.41322439 0
0 0.37894848 0
0.12989074 0.40619788 0
0.069339085 0.39187987 0
0.19338818 0.46829282 0
0.1720397 0.43417839 0
0.5560513 0.95356907 0
0.48540921 0.91403581 0
0.26512129 0.59456435 0
0.24224429 0.53774948 0
0.29513618 0.64332902 0
0.23334853 0.4846868 0
0.4423591 0.85339196 0
0.37778846 0.81794606 0
0.38085259 0.76548695 0
0.34621153 0.69895459 0
0.77148839 0.97340574 0
0.85960812 0.97510191 0
1 0.95621713 0
0.59609148 0.93813233 0
0.72825615 0.95290159 0
0.64476105 0.9402013 0
1 0.93332244 0
0.054830418 0.36766717 0
0 0.35315851 0
0.17651069 0.40221704 0
0.1199323 0.37935626 0
0.22246515 0.44029012 0
0.54744319 0.90737592 0
0.50259379 0.86620789 0
0.33787554 0.62449812 0
0.27294866 0.51467959 0
0.29713338 0.56537818 0
0.27309481 0.47479143 0
0.45821823 0.80358544 0
0.42356823 0.73482826 0
0.39625065 0.66503215 0
0.86025437 0.95131339 0
0.59746876 0.90481858 0
0.78277117 0.93684135 0
0.69527941 0.92888115 0
0.64506262 0.91020408 0
0.92504048 0.92806255 0
1 0.90749626 0
0.086577265 0.3572838 0
0 0.33692765 0
0.22301251 0.40557578 0
0.17263784 0.37398935 0
0.27926969 0.43982429 0
0.52386741 0.83968482 0
0.56657712 0.8689355 0
0.3569529 0.58251571 0
0.3295099 0.48485127 0
0.32755987 0.52493982 0
0.48633723 0.77005152 0
0.52098592 0.80321807 0
0.4663383 0.71259427 0
0.42400875 0.63198044 0
0.85430869 0.92245945 0
0.62246609 0.87812423 0
0.76756704 0.91577619 0
0.70490413 0.906256 0
0.66591645 0.88803437 0
0.92434934 0.90367966 0
1 0.88652001 0
0.0901559 0.34446191 0
0 0.32176438 0
0.15453288 0.34985038 0
0.23414092 0.37033304 0
0.28381189 0.4078001 0
0.33273535 0.39722645 0
0.35879672 0.45929816 0
0.61137314 0.85103296 0
0.57419679 0.82864097 0
0.55430481 0.79297296 0
0.39442238 0.55998663 0
0.39919332 0.51560342 0
0.45648287 0.61001861 0
0.52256383 0.75075089 0
0.49646042 0.68767096 0
0.51093005 0.65232867 0
0.84224123 0.90238595 0
0.6602739 0.86293303 0
0.7652636 0.89827214 0
0.71019547 0.88690461 0
0.91621622 0.88595156 0
1 0.86933336 0
0.089605522 0.32863165 0
0 0.30597673 0
0.16401881 0.33354503 0
0.23587503 0.34954203 0
0.34216869 0.37053466 0
0.41602403 0.43759196 0
0.43468979 0.40459716 0
0.45664226 0.4920667 0
0.51758888 0.46748424 0
0.62922118 0.82933879 0
0.59743663 0.79939564 0
0.65172628 0.81989799 0
0.56798343 0.76190387 0
0.46771877 0.56746132 0
0.50460685 0.54453492 0
0.53552734 0.62435326 0
0.55298188 0.72007601 0
0.55979351 0.68045585 0
0.6721118 0.84833826 0
0.82607731 0.88866264 0
0.70661287 0.87077344 0
0.76028411 0.88232542 0
0.67651018 0.82329664 0
0.88306249 0.87520178 0
1 0.85342809 0
0.94215595 0.86716295 0
0.068260209 0.31081309 0
0.12730319 0.31414842 0
0 0.28734333 0
0.19229937 0.31224237 0
0.24269666 0.32769863 0
0.33906787 0.33824084 0
0.51322862 0.39390967 0
0.43792454 0.3607345 0
0.54595825 0.43718263 0
0.56000994 0.52660921 0
0.60551594 0.49595303 0
0.63314187 0.79256687 0
0.61125735 0.7666504 0
0.66247736 0.79543226 0
0.60160638 0.73019011 0
0.63938394 0.73709459 0
0.56420848 0.60358865 0
0.59718018 0.58596601 0
0.60444473 0.65721511 0
0.60927304 0.69529297 0
0.70024506 0.84912857 0
0.87146647 0.86409726 0
0.81870836 0.87400711 0
0.76757591 0.86987772 0
0.7314076 0.8634349 0
0.70182874 0.82888287 0
0.69367605 0.8046824 0
1 0.83777453 0
0.93926276 0.85032255 0
0.88793742 0.8462967 0
0.060015814 0.28941156 0
0.11513352 0.29290433 0
0.16286708 0.29431678 0
0.24898555 0.29726766 0
0 0.26113024 0
0.20261951 0.275195 0
0.62475172 0.42953658 0
0.62254374 0.40104285 0
0.32336148 0.30429071 0
0.41447332 0.3096588 0
0.47993295 0.33555922 0
0.55635647 0.36874968 0
0.65587564 0.47919352 0
0.68364013 0.53990613 0
0.63989136 0.56842731 0
0.65573055 0.76245829 0
0.67992782 0.77944746 0
0.6537311 0.70212896 0
0.68014069 0.72370303 0
0.6426619 0.63024127 0
0.65500608 0.66915345 0
0.73045523 0.84008817 0
0.79617999 0.85930363 0
0.83606475 0.85251769 0
0.75988727 0.8514317 0
0.73108673 0.81823191 0
0.70714299 0.78475759 0
0.7275821 0.80127924 0
0.73033574 0.76748151 0
0.7021495 0.7652166 0
0.93844542 0.83081546 0
1 0.81700363 0
0.86607676 0.83170317 0
0.90632818 0.82034881 0
1 0.7943027 0
0.049225392 0.26627517 0
0.088598928 0.26676391 0
0.16461785 0.26616795 0
0.12807012 0.266117 0
0.31252889 0.26959946 0
0.24408403 0.26299434 0
0.69244209 0.45427269 0
0 0.23381285 0
0.053260906 0.24205399 0
0.17104927 0.23785527 0
0.21034131 0.23071084 0
0.69615934 0.42321704 0
0.64672249 0.38439129 0
0.40987598 0.27159442 0
0.50406307 0.30201807 0
0.57504162 0.34176193 0
0.72289368 0.49544176 0
0.72822044 0.53298082 0
0.73963448 0.57165255 0
0.69131762 0.59827426 0
0.69467933 0.74693585 0
0.71128271 0.70492997 0
0.69804276 0.6776548 0
0.69610894 0.64151167 0
0.8347627 0.82997038 0
0.7682907 0.83086372 0
0.79895979 0.83975588 0
0.7723246 0.81851476 0
0.76689916 0.80479252 0
0.74089509 0.78683787 0
0.76048819 0.77222462 0
0.78948168 0.75373874 0
0.76556833 0.74858371 0
0.73951781 0.74161229 0
0.94776793 0.80382332 0
0.88210108 0.80881537 0
1 0.77867581 0
0.095941979 0.23749884 0
0.13046768 0.23482307 0
0.046233865 0.22119457 0
0.33775429 0.23406137 0
0.26879057 0.23128064 0
0.73897479 0.4563379 0
0 0.20106035 0
0.029605562 0.19512855 0
0.07920988 0.21290571 0
0.13278456 0.20341103 0
0.23365658 0.19809608 0
0.19437051 0.18987827 0
0.16650121 0.20016522 0
0.39744308 0.22889025 0
0.71143502 0.40540733 0
0.64484635 0.35825413 0
0.49400064 0.26476 0
0.57634355 0.30842315 0
0.76724708 0.498626 0
0.76936522 0.53446534 0
0.77735263 0.56947071 0
0.74303948 0.60606534 0
0.73815803 0.71567538 0
0.75380728 0.67195165 0
0.74856969 0.6387086 0
0.8094388 0.80730614 0
0.82191116 0.816985 0
0.81287724 0.79378972 0
0.79662824 0.7722312 0
0.78109359 0.78873529 0
0.82502394 0.7442612 0
0.81259858 0.72633413 0
0.7951004 0.71807556 0
0.78096508 0.70799482 0
0.88036207 0.79592231 0
0.9334939 0.786733 0
1 0.76431893 0
1 0.748861 0
0.10379898 0.20626239 0
0.060683355 0.18947357 0
0.28669593 0.19496187 0
0.77589665 0.46527432 0
0.76364269 0.43614409 0
0 0.16299388 0
0.03252247 0.16109825 0
0.13115106 0.16790662 0
0.082684238 0.17339651 0
0.10371866 0.16944086 0
0.2134621 0.1665057 0
0.16524598 0.16382707 0
0.73103269 0.39670748 0
0.34409677 0.19080468 0
0.44613524 0.22071672 0
0.64765909 0.33588913 0
0.55575388 0.27001518 0
0.80454215 0.52524353 0
0.80333117 0.49379786 0
0.80513993 0.55951912 0
0.78881474 0.59946385 0
0.79620143 0.67420769 0
0.80085094 0.63435581 0
0.85548864 0.79210404 0
0.85492848 0.77825028 0
0.82914053 0.77012176 0
0.85675833 0.73790952 0
0.8500123 0.71096179 0
0.83934132 0.69499245 0
0.83210263 0.67528224 0
0.90692845 0.77435901 0
0.94689577 0.76629967 0
1 0.72921933 0
0.059053195 0.1568327 0
0.26940888 0.16431617 0
0.80982448 0.46650012 0
0.7881089 0.43474797 0
0 0.13403716 0
0.034261776 0.13131711 0
0.065049129 0.13328952 0
0.13502835 0.13878566 0
0.10526316 0.13461019 0
0.084273632 0.13309824 0
0.21809664 0.14471767 0
0.17318573 0.13812045 0
0.76464638 0.40430633 0
0.6857298 0.34589588 0
0.33259036 0.16669966 0
0.49930664 0.22687847 0
0.41573335 0.18623667 0
0.60925354 0.28393623 0
0.55721266 0.24496227 0
0.83672208 0.53028338 0
0.83458323 0.50071298 0
0.82902305 0.57088589 0
0.83104776 0.60392025 0
0.84431379 0.63221014 0
0.88763259 0.7325503 0
0.89658073 0.76190571 0
0.87375959 0.75608422 0
0.87859767 0.70623257 0
0.8760221 0.67541024 0
0.8718517 0.65490249 0
0.8752255 0.62755526 0
0.88495325 0.59818324 0
0.93291202 0.74715086 0
0.95894654 0.7408744 0
1 0.70450055 0
[...]
CELL_DATA 1540
Scalars  Label int 1
LOOKUP_TABLE FreeFempp_table
0
0
0
0
0
0
0
0
0
0
0
0
0
0
0
0
0
0
0
0
0
0
0
0
0
0
0
0
0
0
0
0
0
0
0
0
0
0
0
0
0
0
0
0
0
0
0
0
0
0
0
0
0
0
0
0
0
0
0
0
0
0
0
0
0
0
0
0
0
0
0
0
0
0
0
0
0
0
0
0
0
0
0
0
0
0
0
0
0
0
0
0
0
0
0
0
0
0
0
0
0
0
0
0
0
0
0
0
0
0
0
0
0
0
0
0
0
0
0
0
0
0
0
0
0
0
0
0
0
0
0
0
0
0
0
0
0
0
0
0
0
0
0
0
0
0
0
0
0
0
0
0
0
0
0
0
0
0
0
0
0
0
0
0
0
0
0
0
0
0
0
0
0
0
0
0
0
0
0
0
0
0
0
0
0
0
0
0
0
0
0
0
0
0
0
0
0
0
0
0
0
0
0
0
0
0
0
0
0
0
0
0
0
0
0
0
0
0
0
0
0
0
0
0
0
0
0
0
0
0
0
0
0
0
0
0
0
0
0
0
0
0
0
0
0
0
0
0
0
0
0
0
0
0
0
0
0
0
0
0
0
0
0
0
0
0
0
0
0
0
0
0
0
0
0
0
0
0
0
0
0
0
0
0
0
0
0
0
0
0
0
0
0
0
0
0
0
0
0
0
0
0
0
0
0
0
0
0
0
0
0
0
0
0
0
0
0
0
0
0
0
0
0
0
0
0
0
0
0
0
0
0
0
0
0
0
0
0
0
0
0
0
0
0
0
0
0
0
0
0
0
0
0
0
0
0
0
0
0
0
0
0
0
0
0
0
0
0
0
0
0
0
0
0
0
0
0
0
0
0
0
0
0
0
0
0
0
0
0
0
0
0
0
0
0
0
0
0
0
0
0
0
0
0
0
0
0
0
0
0
0
0
0
0
0
0
0
0
0
0
0
0
0
0
0
0
0
0
0
0
0
0
0
0
0
0
0
0
0
0
0
0
0
0
0
0
0
0
0
0
0
0
0
0
0
0
0
0
0
0
0
0
0
0
0
0
0
0
0
0
0
0
0
0
0
0
0
0
0
0
0
0
0
0
0
0
0
0
0
0
0
0
0
0
0
0
0
0
0
0
0
0
0
0
0
0
0
0
0
0
0
0
0
0
0
0
0
0
0
0
0
0
0
0
0
0
0
0
0
0
0
0
0
0
0
0
0
0
0
0
0
0
0
0
0
0
0
0
0
0
0
0
0
0
0
0
0
0
0
0
0
0
0
0
0
0
0
0
0
0
0
0
0
0
0
0
0
0
0
0
0
0
0
0
0
0
0
0
0
0
0
0
0
0
0
0
0
0
0
0
0
0
0
0
0
0
0
0
0
0
0
0
0
0
0
0
0
0
0
0
0
0
0
0
0
0
0
0
0
0
0
0
0
0
0
0
0
0
0
0
0
0
0
0
0
0
0
0
0
0
0
0
0
0
0
0
0
0
0
0
0
0
0
0
0
0
0
0
0
0
0
0
0
0
0
0
0
0
0
0
0
0
0
0
0
0
0
0
0
0
0
0
0
0
0
0
0
0
0
0
0
0
0
0
0
0
0
0
0
0
0
0
0
0
0
0
0
0
0
0
0
0
0
0
0
0
0
0
0
0
0
0
0
0
0
0
0
0
0
0
0
0
0
0
0
0
0
0
0
0
0
0
0
0
0
0
0
0
0
0
0
0
0
0
0
0
0
0
0
0
0
0
0
0
0
0
0
0
0
0
0
0
0
0
0
0
0
0
0
0
0
0
0
0
0
0
0
0
0
0
0
0
0
0
0
0
0
0
0
0
0
0
0
0
0
0
0
0
0
0
0
0
0
0
0
0
0
0
0
0
0
0
0
0
0
0
0
0
0
0
0
0
0
0
0
0
0
0
0
0
0
0
0
0
0
0
0
0
0
0
0
0
0
0
0
0
0
0
0
0
0
0
0
0
0
0
0
0
0
0
0
0
0
0
0
0
0
0
0
0
0
0
0
0
0
0
0
0
0
0
0
0
0
0
0
0
0
0
0
0
0
0
0
0
0
0
0
0
0
0
0
0
0
0
0
0
0
0
0
0
0
0
0
0
0
0
0
0
0
0
0
0
0
0
0
0
0
0
0
0
0
0
0
0
0
0
0
0
0
0
0
0
0
0
0
0
0
0
0
0
0
0
0
0
0
0
0
0
0
0
0
0
0
0
0
0
0
0
0
0
0
0
0
0
0
0
0
0
0
0
0
0
0
0
0
0
0
0
0
0
0
0
0
0
0
0
0
0
0
0
0
0
0
0
0
0
0
0
0
0
0
0
0
0
0
0
0
0
0
0
0
0
0
0
0
0
0
0
0
0
0
0
0
0
0
0
0
0
0
0
0
0
0
0
0
0
0
0
0
0
0
0
0
0
0
0
0
0
0
0
0
0
0
0
0
0
0
0
0
0
0
0
0
0
0
0
0
0
0
0
0
0
0
0
0
0
0
0
0
0
0
0
0
0
0
0
0
0
0
0
0
0
0
0
0
0
0
0
0
0
0
0
0
0
0
0
0
0
0
0
0
0
0
0
0
0
0
0
0
0
0
0
0
0
0
0
0
0
0
0
0
0
0
0
0
0
0
0
0
0
0
0
0
0
0
0
0
0
0
0
0
0
0
0
0
0
0
0
0
0
0
0
0
0
0
0
0
0
0
0
0
0
0
0
0
0
0
0
0
0
0
0
0
0
0
0
0
0
0
0
0
0
0
0
0
0
0
0
0
0
0
0
0
0
0
0
0
0
0
0
0
0
0
0
0
0
0
0
0
0
0
0
0
0
0
0
0
0
0
0
0
0
0
0
0
0
0
0
0
0
0
0
0
0
0
0
0
0
0
0
0
0
0
0
0
0
0
0
0
0
0
0
0
0
0
0
0
0
0
0
0
0
0
0
0
0
0
0
0
0
0
0
0
0
0
0
0
0
0
0
0
0
0
0
0
0
0
0
0
0
0
0
0
0
0
0
0
0
0
0
0
0
0
0
0
0
0
0
0
0
0
0
0
0
0
0
0
0
0
0
0
0
0
0
0
0
0
0
0
0
0
0
0
0
0
0
0
0
0
0
0
0
0
0
0
0
0
0
0
0
0
0
0
0
0
0
0
0
0
0
0
0
0
0
0
0
0
0
0
0
0
0
0
0
0
0
0
0
0
0
0
0
0
0
0
0
0
0
0
0
0
0
0
0
0
0
0
0
0
0
1
1
1
1
1
1
1
1
1
1
1
1
1
1
1
1
1
1
1
2
2
2
2
2
2
2
2
2
2
2
2
2
2
2
2
2
2
2
2
2
2
2
2
2
2
2
2
2
2
2
2
2
2
3
3
3
3
3
3
3
3
3
3
3
3
3
3
3
3
3
3
3
3
3
4
4
4
4
4
4
4
4
4
4
4
4
4
4
4
4
4
4
4
4
4
4
4
4
4
4

LOOKUP_TABLE FreeFempp_table 5
1.00000000 0.00000000 0.00000000 1.00000000
1.00000000 1.00000000 0.00000000 1.00000000
1.00000000 0.00000000 1.00000000 1.00000000
0.00000000 1.00000000 0.00000000 1.00000000
0.00000000 1.00000000 1.00000000 1.00000000

POINT_DATA 771
FIELD FieldData 1
Density 1 771 float
6.23185486e-02 7.21084997e-02 8.84591788e-02 1.16243266e-01 5.37124947e-02 6.58908710e-02 9.27600861e-02 1.62229002e-01 2.44876713e-01 1.36977836e-01 3.41533214e-01 4.68123332e-02 6.07688315e-02 9.89312604e-02 1.70914829e-01 2.27009922e-01 3.20297837e-01 4.00309294e-01 4.07740884e-02 4.91038971e-02 7.81156495e-02 1.58144534e-01 2.86942095e-01 2.90811121e-01 3.71337295e-01 4.10067469e-01 4.35138077e-01 5.47130071e-02 6.01715334e-02 7.16045797e-02 1.11546941e-01 2.05908090e-01 3.29241037e-01 3.86880130e-01 4.53540683e-01 4.60578084e-01 4.57071275e-01 4.33184236e-01 8.61738771e-02 9.91611928e-02 9.33187604e-02 1.13058195e-01 1.67935163e-01 2.52239704e-01 3.30433995e-01 3.96263361e-01 4.23299700e-01 4.51963276e-01 4.47413594e-01 4.50357527e-01 4.51668531e-01 4.49097097e-01 1.31220937e-01 1.39633238e-01 1.58742040e-01 1.50622740e-01 4.53906953e-01 1.98750943e-01 2.65121043e-01 3.86258721e-01 3.37722272e-01 4.31869984e-01 4.14474398e-01 4.47191656e-01 4.51058030e-01 4.56130296e-01 4.49053317e-01 4.58164662e-01 1.86698377e-01 2.01880440e-01 2.60248393e-01 2.40977690e-01 2.38856971e-01 2.79891431e-01 4.54088807e-01 4.82552350e-01 4.64370966e-01 3.27272952e-01 3.83326888e-01 4.42674637e-01 4.26369101e-01 4.59624171e-01 4.57886010e-01 4.61966068e-01 4.61103797e-01 4.69686210e-01 4.97212678e-01 4.80480820e-01 4.49857444e-01 2.61075556e-01 3.28115731e-01 3.96450698e-01 3.54427159e-01 3.54448467e-01 3.79922152e-01 4.92892057e-01 4.68454331e-01 4.82604921e-01 4.01175708e-01 4.40057099e-01 4.60980117e-01 4.26388621e-01 4.81356740e-01 4.75439191e-01 4.85361189e-01 4.95018274e-01 4.82468963e-01 4.78924513e-01 4.88737941e-01 4.46358204e-01 5.07663548e-01 4.68092114e-01 4.91348743e-01 3.65242749e-01 4.82540905e-01 4.88091707e-01 4.68752921e-01 4.41453844e-01 4.73217905e-01 5.00365674e-01 4.92659271e-01 4.66813087e-01 4.52564955e-01 4.86542761e-01 4.71682549e-01 5.04216015e-01 5.02383530e-01 5.14274299e-01 5.08375406e-01 4.64801967e-01 4.85384971e-01 5.30980229e-01 5.13301611e-01 5.00376344e-01 5.19105971e-01 5.75793982e-01 5.47143817e-01 5.58774114e-01 5.49164951e-01 5.60408890e-01 5.17504692e-01 5.19621491e-01 5.19044757e-01 4.97530311e-01 4.83303219e-01 4.81583714e-01 5.08282661e-01 5.23087680e-01 5.23867667e-01 5.12908280e-01 5.28078914e-01 5.51661670e-01 5.52698970e-01 5.53387702e-01 5.74848831e-01 5.93053043e-01 6.31654084e-01 5.89693069e-01 5.86475909e-01 5.66701889e-01 5.93957782e-01 5.42257428e-01 5.42327106e-01 5.62975109e-01 4.95675057e-01 5.14921010e-01 4.96382236e-01 5.32548726e-01 5.47382772e-01 5.24312198e-01 5.06962180e-01 6.11434162e-01 6.12366796e-01 6.11257255e-01 6.13655150e-01 6.32148743e-01 6.63550496e-01 6.65903807e-01 6.06393874e-01 5.93019545e-01 6.08226240e-01 5.91875017e-01 5.68035722e-01 5.64901471e-01 5.31288087e-01 6.31020904e-01 5.93640149e-01 5.66452801e-01 4.98892009e-01 5.03816009e-01 4.98158634e-01 5.34054756e-01 5.14401138e-01 4.98066217e-01 6.62604332e-01 6.63066864e-01 6.42682195e-01 6.41098499e-01 6.92791581e-01 6.69455469e-01 6.03505075e-01 5.79036355e-01 5.98017335e-01 5.88445485e-01 5.63592970e-01 5.38190007e-01 5.47141254e-01 5.09215355e-01 5.17727137e-01 6.60226703e-01 6.10742092e-01 6.56991184e-01 5.48702955e-01 4.91512328e-01 4.87723261e-01 4.82695639e-01 5.13411343e-01 4.89839762e-01 6.61508918e-01 6.63109064e-01 6.36780798e-01 6.30125105e-01 6.22575223e-01 6.66841686e-01 6.44067705e-01 6.88881934e-01 5.79957843e-01 5.75618148e-01 5.44372320e-01 5.61129928e-01 5.69114387e-01 5.50327718e-01 5.36062181e-01 5.41399658e-01 5.28791785e-01 4.89791870e-01 5.06274343e-01 6.31643295e-01 5.73362291e-01 6.16678894e-01 5.08626521e-01 5.25574863e-01 4.72315878e-01 4.69278753e-01 4.60919291e-01 4.71425712e-01 6.08402014e-01 6.05883360e-01 6.16551220e-01 5.80962360e-01 5.85377157e-01 5.39256155e-01 5.25796771e-01 5.84717631e-01 6.26182258e-01 5.13328671e-01 5.27368844e-01 5.16931057e-01 5.24540067e-01 5.27869582e-01 4.80024129e-01 4.88823712e-01 5.27522087e-01 5.26641250e-01 5.23758292e-01 5.12152553e-01 5.18668711e-01 5.23661554e-01 5.14564157e-01 4.95973229e-01 4.76668805e-01 5.78377187e-01 5.66764355e-01 4.71797407e-01 5.21792650e-01 4.54694390e-01 4.48422581e-01 4.61460203e-01 5.12189925e-01 4.67414200e-01 4.65624005e-01 3.75551105e-01 4.84076619e-01 3.81569862e-01 5.11238575e-01 5.42278290e-01 5.00664234e-01 4.54401404e-01 3.33681703e-01 3.51623774e-01 2.94407606e-01 4.53456372e-01 4.28891629e-01 4.48650897e-01 4.24234957e-01 4.85999048e-01 4.77154106e-01 5.18413067e-01 4.20601815e-01 3.73434365e-01 3.95309597e-01 4.25566971e-01 5.23755729e-01 5.19059539e-01 4.78461295e-01 4.90114510e-01 5.06511748e-01 5.04237771e-01 5.00886559e-01 4.95852351e-01 4.71742570e-01 5.58007360e-01 5.27327895e-01 4.74682361e-01 4.61026907e-01 2.72265106e-01 3.12673092e-01 3.44416589e-01 2.64969587e-01 2.71750957e-01 4.00511324e-01 4.52024311e-01 5.07810771e-01 5.68230748e-01 5.82960546e-01 2.92055935e-01 2.13720351e-01 2.07098290e-01 3.15417767e-01 3.30688000e-01 3.36445719e-01 4.48406935e-01 4.44244534e-01 5.09955704e-01 3.85166258e-01 3.39281797e-01 2.62722880e-01 2.91306406e-01 4.10097808e-01 3.86645913e-01 3.57761651e-01 4.39389288e-01 5.11111617e-01 5.02399027e-01 4.60901290e-01 4.80939150e-01 4.77393776e-01 4.85738933e-01 4.99882251e-01 4.91193265e-01 5.76067567e-01 5.39019108e-01 5.00665963e-01 1.97450414e-01 2.01960102e-01 2.13544756e-01 3.73216331e-01 3.05571556e-01 4.52768803e-01 5.78951418e-01 6.19693339e-01 6.21016979e-01 1.51213720e-01 1.61689177e-01 1.44576401e-01 9.76073816e-02 2.50339687e-01 2.60590136e-01 4.14010882e-01 4.87468630e-01 4.96317416e-01 3.63476068e-01 3.14229786e-01 2.74690032e-01 2.08649695e-01 2.14562759e-01 3.74565929e-01 3.40412140e-01 4.74349946e-01 4.00798380e-01 4.17037398e-01 4.71262604e-01 4.48381543e-01 4.36237693e-01 4.36649233e-01 4.76995826e-01 5.18059611e-01 6.06198132e-01 5.61764002e-01 1.40331134e-01 1.66219786e-01 2.75691509e-01 3.68570507e-01 5.35319924e-01 6.10428929e-01 6.33964121e-01 1.08717255e-01 9.96244252e-02 6.08956553e-02 2.32979849e-01 3.74034286e-01 4.41418111e-01 4.45665717e-01 3.18961710e-01 2.58890480e-01 1.74730137e-01 2.42195070e-01 1.75470933e-01 1.57590538e-01 3.23375881e-01 2.89047122e-01 4.10328507e-01 4.30417925e-01 3.55186254e-01 4.01116103e-01 3.52602661e-01 4.21451688e-01 3.94648999e-01 3.94458324e-01 3.75623196e-01 4.80841547e-01 5.52561581e-01 6.15654230e-01 2.51444042e-01 1.21721543e-01 2.02371031e-01 4.25590873e-01 5.56105673e-01 6.13663971e-01 6.25626445e-01 6.00667059e-01 7.33251646e-02 5.94590493e-02 3.72991115e-02 2.97955930e-01 3.48553032e-01 3.67641479e-01 2.33462319e-01 1.57910109e-01 1.07408628e-01 1.61405772e-01 9.41329747e-02 2.13652030e-01 3.59583676e-01 2.99903244e-01 3.64460021e-01 2.44634956e-01 2.76895851e-01 3.34127218e-01 2.46014163e-01 3.25368732e-01 3.11525971e-01 3.82964820e-01 3.18588138e-01 4.65131581e-01 5.52153051e-01 5.45848548e-01 8.29678550e-02 2.62715638e-01 1.47125795e-01 4.17713702e-01 5.26516259e-01 5.86096525e-01 5.75159073e-01 3.20449583e-02 4.50480282e-02 1.82732686e-01 2.61734962e-01 2.84383297e-01 2.68762589e-01 1.25300288e-01 1.37558997e-01 9.11567882e-02 8.89510736e-02 6.99437335e-02 1.17610656e-01 2.71668941e-01 1.88615650e-01 2.57003248e-01 1.86315566e-01 2.59002715e-01 1.21869795e-01 1.64815485e-01 1.32200062e-01 2.30067015e-01 1.71760023e-01 2.05910459e-01 2.06681997e-01 3.36620510e-01 4.41700339e-01 4.90029097e-01 5.94740324e-02 1.05695039e-01 2.17106685e-01 3.74234080e-01 5.00454187e-01 5.13263047e-01 4.50091094e-01 4.81938347e-02 2.03990310e-01 8.79301503e-02 2.77199417e-01 1.02591984e-01 8.38773400e-02 8.88535529e-02 8.05355608e-02 7.50599131e-02 1.91102579e-01 1.52075589e-01 1.40073150e-01 1.73389807e-01 1.30073801e-01 1.70677572e-01 1.06045164e-01 7.30776116e-02 9.70743075e-02 1.34948626e-01 1.48288652e-01 3.75075936e-01 4.57098901e-01 8.00088048e-02 1.43656477e-01 2.83051550e-01 3.00848812e-01 4.46750045e-01 4.65852588e-01 3.58980149e-01 7.13895112e-02 7.63653740e-02 2.26271734e-01 1.06067970e-01 1.01558849e-01 1.02386795e-01 1.41871944e-01 1.39438599e-01 8.71455297e-02 5.75812571e-02 6.67615533e-02 1.51033953e-01 1.44006580e-01 1.54543728e-01 1.22829475e-01 3.37094098e-01 1.36685133e-01 8.48804191e-02 1.50294945e-01 9.42297727e-02 9.39364955e-02 1.37445286e-01 1.14474334e-01 4.11798745e-01 2.10337996e-01 1.43357351e-01 4.01354253e-01 3.78560990e-01 2.74212867e-01 8.60676318e-02 2.52817243e-01 1.43997461e-01 1.91939846e-01 1.00896478e-01 1.46285579e-01 2.06123993e-01 1.03548646e-01 7.85493627e-02 7.42894188e-02 1.51838973e-01 1.71238437e-01 1.91548079e-01 2.36702025e-01 1.73749149e-01 3.51253062e-01 2.42254332e-01 1.65782064e-01 1.65335238e-01 1.24147169e-01 2.17239320e-01 1.93974257e-01 1.23136632e-01 3.46013725e-01 1.67799219e-01 1.20499477e-01 3.21208984e-01 2.36922219e-01 9.14928019e-02 3.21428329e-01 2.21817181e-01 1.79253072e-01 1.44144401e-01 2.31560826e-01 1.86865881e-01 1.29796848e-01 1.30539596e-01 1.03434414e-01 2.80572146e-01 2.31128350e-01 1.94901764e-01 2.41302088e-01 3.47863138e-01 3.63255143e-01 3.13957095e-01 3.23929548e-01 3.49371672e-01 2.81373382e-01 2.89143801e-01 1.88415274e-01 2.41876826e-01 2.22280279e-01 2.96142727e-01 1.86386466e-01 2.41349563e-01 1.24965258e-01 1.66806087e-01 8.12616646e-02 2.47263491e-01 2.03168467e-01 1.56095341e-01 1.48065910e-01 1.33667424e-01 4.21933740e-01 3.21167290e-01 3.19389135e-01 3.17696363e-01 4.88675237e-01 4.58399266e-01 4.21286345e-01 3.78537327e-01 1.78668588e-01 2.82449037e-01 3.58754694e-01 2.84873486e-01 3.63948941e-01 3.34607720e-01 3.23550045e-01 1.30597815e-01 9.25203040e-02 6.83720633e-02 5.11401594e-01 3.68191689e-01 3.97826999e-01 4.81805116e-01 3.51938933e-01 5.21270633e-01 3.62768918e-01 4.80923980e-01 1.25129059e-01 2.04392210e-01 4.11194980e-01 4.22203600e-01 3.61232132e-01 4.27966416e-01 4.18064147e-01 3.92720073e-01 9.57951918e-02 8.34698752e-02 8.08257312e-02 4.11447346e-01 4.61390913e-01 3.72000962e-01 3.52419674e-01 2.57310957e-01 4.52231288e-01 4.74234730e-01 4.11925763e-01 3.27214062e-01 9.44399685e-02 1.47405133e-01 4.84905094e-01 5.13943076e-01 4.06714231e-01 5.05915523e-01 4.63198125e-01 8.92984942e-02 1.20329611e-01 1.41856432e-01 3.86023551e-01 3.13767016e-01 3.51192087e-01 2.21699953e-01 2.85730720e-01 1.63398579e-01 3.61505091e-01 3.53797317e-01 3.13261807e-01 1.84104070e-01 3.96251917e-01 6.55292794e-02 8.64150822e-02 5.88375509e-01 5.91265619e-01 5.09634435e-01 7.85662234e-02 1.45053938e-01 1.88916564e-01 2.74302721e-01 1.61990166e-01 2.13494629e-01 1.12322375e-01 1.17617019e-01 2.14498967e-01 2.25781739e-01 6.51527718e-02 2.16434389e-01 1.08613200e-01 4.97393280e-01 3.70926589e-01 5.59328645e-02 5.04601113e-02 6.31941676e-01 5.98010421e-01 1.14800476e-01 2.11332798e-01 1.01781644e-01 6.03777952e-02 8.66569430e-02 7.44075179e-02 1.42167732e-01 4.81851399e-02 2.15045691e-01 6.93079531e-02 1.33095086e-01 8.22452456e-02 3.87537003e-01 5.16148686e-01 5.50938398e-02 5.88333309e-01 6.15452707e-01 1.83600932e-01 2.40406707e-01 6.18867539e-02 1.05115309e-01 2.77787060e-01 1.69597894e-01 1.63219959e-01 1.12293132e-01 4.50759649e-01 5.36717057e-01 1.05872788e-01 5.77933431e-01 2.91061878e-01 2.98118830e-01 1.32556662e-01 2.23144338e-01 3.71792376e-01 3.02165210e-01 2.42867112e-01 2.13213533e-01 5.45042574e-01 4.82255608e-01 2.64785588e-01 5.66600859e-01 3.84397328e-01 3.83003831e-01 3.91741812e-01 3.70163858e-01 3.84257913e-01 5.10165989e-01 4.40658629e-01 5.69956005e-01 5.47342658e-01 4.69405562e-01 4.51683789e-01 4.97058362e-01 5.70381045e-01 5.32543838e-01 5.60331047e-01 5.01885593e-01 5.56105256e-01 5.61523557e-01 5.32928348e-01 5.49665868e-01 
