# vtk DataFile Version 2.0
results_case1_non_linear/6_density.vtk, Created by Freefem++ 
ASCII
DATASET UNSTRUCTURED_GRID
POINTS 712 float
0.019127186 1 0
0 1 0
0.04737867 1 0
0.030718669 1 0
0.0097946171 1 0
0.066973089 1 0
0.021725958 0.85998988 0
0.011762099 0.82891296 0
0 0.79642919 0
0.03414673 0.85114346 0
0.050966872 0.85885487 0
0.077023813 0.84881806 0
0.066227803 0.87015738 0
0.082440323 1 0
0.025563629 0.74977669 0
0.012183656 0.72084291 0
0 0.68186207 0
0.040770076 0.76470674 0
0.061473847 0.77742484 0
0.089641059 0.86139092 0
0.087238972 0.77186305 0
0.096714959 1 0
0.1005242 0.88572521 0
0.068967931 0.72685301 0
0.026704069 0.67581183 0
0.04434689 0.70490045 0
0.015518458 0.64086799 0
0 0.61639378 0
0.10710212 0.79691467 0
0.091299096 0.69870614 0
0.11076874 0.72512122 0
0.12166811 0.86176079 0
0.11418865 1 0
0.066981644 0.66624606 0
0.17623348 1 0
0.13751441 1 0
0.23877116 1 0
0.036436488 0.6130124 0
0.047419206 0.64365485 0
0.02423379 0.58548158 0
0 0.56995359 0
0.13330264 0.74502638 0
0.1186032 0.64767443 0
0.095557745 0.63296782 0
0.14011033 0.66186705 0
0.16000835 0.81802925 0
0.14809229 0.77410972 0
0.14556077 0.89804376 0
0.0792054 0.60662933 0
0.18449259 0.92914839 0
0.32881308 1 0
0.2541685 0.94527291 0
0.16549901 0.65952907 0
0.065676384 0.58345809 0
0.053759776 0.55817776 0
0.035646542 0.53955168 0
0 0.53013739 0
0.18225222 0.69356989 0
0.12245022 0.58391559 0
0.14778079 0.59459881 0
0.1753883 0.58990931 0
0.19742145 0.84787249 0
0.19879283 0.73754725 0
0.21622244 0.78352799 0
0.10813912 0.55590938 0
0.22738051 0.88944326 0
0.35119448 0.95985334 0
0.43500221 1 0
0.31946729 0.91283473 0
0.20270109 0.61470904 0
1 1 0
0.087735154 0.53282156 0
0.070385106 0.50741178 0
0.039487364 0.50238992 0
0 0.49334675 0
0.23697391 0.65371636 0
0.15886751 0.54540199 0
0.19811045 0.54635749 0
0.27962987 0.80148009 0
0.28560093 0.8534935 0
0.26680107 0.70792778 0
0.29619986 0.74963354 0
0.1336722 0.52114366 0
0.44420849 0.95042404 0
0.5340687 1 0
0.38802139 0.88540722 0
0.22813298 0.58228831 0
1 0.97634034 0
0.92076414 0.98667246 0
0.8780221 1 0
0.60891274 1 0
0.68912946 1 0
0.77543173 1 0
0.11753971 0.49656414 0
0.095395214 0.47295029 0
0.046105466 0.47012757 0
0 0.45680475 0
0.26506119 0.59106876 0
0.29479497 0.63973061 0
0.1697088 0.50241679 0
0.24261151 0.53703122 0
0.20942902 0.50697579 0
0.37123928 0.8176379 0
0.3753719 0.76381026 0
0.34393427 0.69688991 0
0.54327081 0.9596306 0
0.48168236 0.91495994 0
0.4374513 0.85084309 0
0.86758193 0.97489697 0
1 0.95499898 0
0.62423434 0.97096226 0
0.69700531 0.9728466 0
0.78097249 0.97394457 0
0.077631375 0.44877625 0
0.58957539 0.94239446 0
0.1478713 0.46711253 0
0.12501356 0.43864099 0
0.041479341 0.42491201 0
0 0.41935027 0
0.29682317 0.56414901 0
0.33612523 0.6226388 0
0.19424752 0.46790043 0
0.23520177 0.48456341 0
0.27421331 0.51524399 0
0.45294692 0.80274339 0
0.41880746 0.73373137 0
0.39356262 0.66409003 0
0.54209707 0.91158431 0
0.49850593 0.86696862 0
0.87233319 0.95096384 0
1 0.92909626 0
0.64625882 0.94225793 0
0.73826283 0.95377555 0
0.090492517 0.41623502 0
0.59475992 0.90829854 0
1 0.9041106 0
0.17241272 0.43365689 0
0.12991825 0.40556554 0
0 0.38036408 0
0.06783362 0.39153764 0
0.35655889 0.58253449 0
0.32854197 0.52684973 0
0.22527841 0.4408088 0
0.2761158 0.47609431 0
0.48237875 0.77027205 0
0.52141657 0.84054662 0
0.51775021 0.80390852 0
0.46250336 0.71193331 0
0.42470106 0.63379926 0
0.56405737 0.87105315 0
0.78507949 0.93778753 0
0.87506524 0.92405719 0
0.92636399 0.90510506 0
0.69384905 0.92840399 0
0.64250667 0.91098392 0
0.61984924 0.87911183 0
1 0.88444688 0
0.17959339 0.40281562 0
0.12161816 0.37926806 0
0.055090172 0.36668191 0
0 0.3522018 0
0.39554349 0.56168847 0
0.3998545 0.51755709 0
0.33260458 0.48823598 0
0.28217185 0.4418598 0
0.22650231 0.40642088 0
0.51868636 0.75017378 0
0.57265922 0.82882596 0
0.55110875 0.79162858 0
0.49640033 0.6884301 0
0.45558773 0.60978965 0
0.61015282 0.85240453 0
0.7738016 0.91668647 0
0.83933333 0.90344452 0
0.91216389 0.88701619 0
0.70562006 0.90756462 0
0.66293569 0.88930479 0
0.65934932 0.86525067 0
1 0.86731427 0
0.50762863 0.65120712 0
0.17506039 0.374511 0
0.089007629 0.35669551 0
0 0.33540413 0
0.47125789 0.56851687 0
0.35978332 0.46135844 0
0.50549081 0.54544036 0
0.45732844 0.4921149 0
0.28221493 0.40757084 0
0.55063932 0.71768405 0
0.56480317 0.7597902 0
0.59516389 0.79933469 0
0.62662086 0.83101219 0
0.561031 0.67746577 0
0.5367342 0.62452676 0
0.76708358 0.89821149 0
0.83145451 0.88707481 0
0.91937935 0.87156605 0
0.71111001 0.88856584 0
0.67113642 0.85174328 0
0.70690879 0.87304118 0
1 0.85056386 0
0.64841071 0.82384248 0
0.23266024 0.36911509 0
0.094405126 0.34459622 0
0.15548769 0.34924041 0
0 0.32250264 0
0.57059932 0.60604814 0
0.40133888 0.43716428 0
0.56188019 0.52714993 0
0.60012238 0.58818473 0
0.51371652 0.46293388 0
0.32783353 0.39591138 0
0.59910704 0.72767712 0
0.60958253 0.69262851 0
0.60852562 0.76602551 0
0.63085312 0.79240148 0
0.6098724 0.65570255 0
0.76185767 0.87940344 0
0.80796421 0.8760514 0
0.86712355 0.86912782 0
0.93921703 0.85233904 0
0.67335525 0.82448667 0
0.69827698 0.85043943 0
0.73135059 0.86529629 0
1 0.83140971 0
0.65909301 0.79736509 0
0.63704489 0.73618917 0
0.89045713 0.84980774 0
0.7012375 0.8296349 0
0.34413734 0.37104549 0
0.23603099 0.34873111 0
0.089020442 0.32864276 0
0.16240393 0.33243818 0
0 0.30963655 0
0.64680233 0.62972719 0
0.43859531 0.4089966 0
0.60947258 0.49672924 0
0.64184569 0.56914378 0
0.56052219 0.43833492 0
0.65309228 0.6995803 0
0.65860056 0.66794675 0
0.65408208 0.76154065 0
0.79336857 0.86048035 0
0.76047265 0.85435008 0
0.83883118 0.85550263 0
0.94395738 0.8298941 0
0.69109795 0.80523168 0
0.73241743 0.8417589 0
1 0.80471185 0
0.67470222 0.77812791 0
0.67682306 0.72329011 0
0.88441248 0.82985625 0
0.73240089 0.81900768 0
0.70403433 0.78616145 0
0.683217 0.54049266 0
0.34164225 0.33768196 0
0.44009848 0.35975854 0
0.51416069 0.39344939 0
0.24234558 0.3279516 0
0.10403049 0.3137045 0
0.1899897 0.31429996 0
0 0.29388042 0
0.69277763 0.5995257 0
0.69963491 0.63826998 0
0.66220722 0.47901303 0
0.61943273 0.43019476 0
0.70123499 0.67700762 0
0.69503606 0.74666406 0
0.79364286 0.83867395 0
0.83231052 0.83507663 0
0.77179519 0.82708092 0
0.93701214 0.80741242 0
0.73116801 0.80120282 0
1 0.78267145 0
0.70120896 0.76582432 0
0.71007756 0.70996788 0
0.87547579 0.81214176 0
0.76805748 0.80914095 0
0.73134799 0.76859848 0
0.74841809 0.78489974 0
0.72812968 0.53114646 0
0.73631913 0.57201344 0
0.77483852 0.76010291 0
0.41706843 0.30719339 0
0.48184286 0.33481312 0
0.32612439 0.3052092 0
0.55963325 0.36996894 0
0.63078553 0.40564677 0
0.25301024 0.30051313 0
0.16090034 0.29820685 0
0.054387046 0.29230142 0
0.11185613 0.29417459 0
0.20741926 0.27978721 0
0 0.26885602 0
0.74537439 0.60592118 0
0.74903909 0.63846684 0
0.68837752 0.44695649 0
0.72635456 0.48952377 0
0.75377934 0.67359028 0
0.7399886 0.74002966 0
0.74245955 0.71396502 0
0.82170536 0.81736972 0
0.8069348 0.80644425 0
0.93207845 0.78859285 0
0.78924723 0.79325639 0
1 0.76523421 0
0.87356951 0.79876555 0
0.76619482 0.74395366 0
0.79008057 0.77500063 0
0.77032082 0.53513946 0
0.77435287 0.57156597 0
0.82016736 0.74798952 0
0.81172638 0.72663444 0
0.76500639 0.4909791 0
0.4068069 0.26878039 0
0.5021571 0.30061148 0
0.57381067 0.3421146 0
0.31569095 0.26843909 0
0.64275785 0.38496203 0
0.70961031 0.43119455 0
0.25093667 0.26550146 0
0.12589528 0.26881042 0
0.16713877 0.27048801 0
0.075521742 0.26931457 0
0.17591776 0.24109047 0
0.2146357 0.23178145 0
0.039651159 0.22969356 0
0 0.2375152 0
0.053328561 0.24918409 0
0.79193619 0.60153131 0
0.80060437 0.63523809 0
0.79859751 0.67150551 0
0.78601094 0.70292351 0
0.80142297 0.71020042 0
0.85464767 0.79285377 0
0.84610285 0.78319985 0
0.94279399 0.76838924 0
0.83194603 0.77045134 0
1 0.74997878 0
0.90595973 0.77432881 0
0.80492716 0.56103467 0
0.80649029 0.5246858 0
0.84722165 0.71286549 0
0.85609368 0.740487 0
0.84118692 0.68910787 0
0.80565573 0.49304882 0
0.76710952 0.45758992 0
0.769933 0.43485142 0
0.39123033 0.22662433 0
0.48958153 0.26416876 0
0.33492972 0.23166278 0
0.57032727 0.30765433 0
0.64476332 0.36182949 0
0.27079527 0.22908011 0
0.71112865 0.39868245 0
0.096072562 0.23922033 0
0.13196277 0.23725354 0
0.13397904 0.20602782 0
0.16924942 0.20074196 0
0.19748795 0.18868439 0
0.238016 0.19590783 0
0.076931326 0.21402604 0
0.031701287 0.19913973 0
0.059903215 0.18690374 0
0 0.19920262 0
0.83067609 0.57156281 0
0.83529109 0.60267529 0
0.84385378 0.63156116 0
0.83663503 0.66541984 0
0.90162916 0.76134509 0
0.87616235 0.75940959 0
1 0.73251376 0
0.94932367 0.74496529 0
0.83829907 0.5302121 0
0.83884257 0.49759361 0
0.87773897 0.70742576 0
0.87207634 0.6769816 0
0.88886635 0.73488394 0
0.87183178 0.6480085 0
0.81589492 0.46833003 0
0.81334746 0.44355072 0
0.75253439 0.40286243 0
0.8395437 0.43763678 0
0.79450601 0.40944808 0
0.29366278 0.19569935 0
0.35461772 0.19200275 0
0.45614006 0.22834037 0
0.55026235 0.269045 0
0.62937676 0.32658431 0
0.67993093 0.34709966 0
0.10214875 0.20454128 0
0.13178487 0.16816203 0
0.10433682 0.16570876 0
0.16576741 0.1601573 0
0.21775803 0.16351579 0
0.26952458 0.16749503 0
0.081109464 0.16858035 0
0.030081759 0.15909522 0
0.054862052 0.13967684 0
0 0.15587913 0
0.86587706 0.56341457 0
0.86082419 0.5315704 0
0.87400111 0.58971788 0
0.88076291 0.60891343 0
0.91472033 0.73271002 0
0.9376499 0.7286395 0
1 0.70901588 0
0.96517305 0.71656746 0
0.86469228 0.49309881 0
0.85131514 0.4671717 0
0.90053947 0.67636063 0
0.91140855 0.70525029 0
0.89896819 0.64081273 0
0.90418729 0.6073617 0
0.71558928 0.35190081 0
0.81848733 0.40186361 0
0.85697718 0.43523261 0
0.76323351 0.36939844 0
0.87154463 0.42727688 0
0.84636087 0.40425176 0
0.31432228 0.15966151 0
0.41186577 0.1896091 0
0.50355599 0.23034631 0
0.55846756 0.24059643 0
0.60544984 0.28391598 0
0.64298229 0.2891974 0
0.12360476 0.13482217 0
0.089503022 0.13168488 0
0.1788834 0.13488902 0
0.24392552 0.13847956 0
0 0.11897808 0
0.069586947 0.1103994 0
[...]
CELL_DATA 1422
Scalars  Label int 1
LOOKUP_TABLE FreeFempp_table
0
0
0
0
0
0
0
0
0
0
0
0
0
0
0
0
0
0
0
0
0
0
0
0
0
0
0
0
0
0
0
0
0
0
0
0
0
0
0
0
0
0
0
0
0
0
0
0
0
0
0
0
0
0
0
0
0
0
0
0
0
0
0
0
0
0
0
0
0
0
0
0
0
0
0
0
0
0
0
0
0
0
0
0
0
0
0
0
0
0
0
0
0
0
0
0
0
0
0
0
0
0
0
0
0
0
0
0
0
0
0
0
0
0
0
0
0
0
0
0
0
0
0
0
0
0
0
0
0
0
0
0
0
0
0
0
0
0
0
0
0
0
0
0
0
0
0
0
0
0
0
0
0
0
0
0
0
0
0
0
0
0
0
0
0
0
0
0
0
0
0
0
0
0
0
0
0
0
0
0
0
0
0
0
0
0
0
0
0
0
0
0
0
0
0
0
0
0
0
0
0
0
0
0
0
0
0
0
0
0
0
0
0
0
0
0
0
0
0
0
0
0
0
0
0
0
0
0
0
0
0
0
0
0
0
0
0
0
0
0
0
0
0
0
0
0
0
0
0
0
0
0
0
0
0
0
0
0
0
0
0
0
0
0
0
0
0
0
0
0
0
0
0
0
0
0
0
0
0
0
0
0
0
0
0
0
0
0
0
0
0
0
0
0
0
0
0
0
0
0
0
0
0
0
0
0
0
0
0
0
0
0
0
0
0
0
0
0
0
0
0
0
0
0
0
0
0
0
0
0
0
0
0
0
0
0
0
0
0
0
0
0
0
0
0
0
0
0
0
0
0
0
0
0
0
0
0
0
0
0
0
0
0
0
0
0
0
0
0
0
0
0
0
0
0
0
0
0
0
0
0
0
0
0
0
0
0
0
0
0
0
0
0
0
0
0
0
0
0
0
0
0
0
0
0
0
0
0
0
0
0
0
0
0
0
0
0
0
0
0
0
0
0
0
0
0
0
0
0
0
0
0
0
0
0
0
0
0
0
0
0
0
0
0
0
0
0
0
0
0
0
0
0
0
0
0
0
0
0
0
0
0
0
0
0
0
0
0
0
0
0
0
0
0
0
0
0
0
0
0
0
0
0
0
0
0
0
0
0
0
0
0
0
0
0
0
0
0
0
0
0
0
0
0
0
0
0
0
0
0
0
0
0
0
0
0
0
0
0
0
0
0
0
0
0
0
0
0
0
0
0
0
0
0
0
0
0
0
0
0
0
0
0
0
0
0
0
0
0
0
0
0
0
0
0
0
0
0
0
0
0
0
0
0
0
0
0
0
0
0
0
0
0
0
0
0
0
0
0
0
0
0
0
0
0
0
0
0
0
0
0
0
0
0
0
0
0
0
0
0
0
0
0
0
0
0
0
0
0
0
0
0
0
0
0
0
0
0
0
0
0
0
0
0
0
0
0
0
0
0
0
0
0
0
0
0
0
0
0
0
0
0
0
0
0
0
0
0
0
0
0
0
0
0
0
0
0
0
0
0
0
0
0
0
0
0
0
0
0
0
0
0
0
0
0
0
0
0
0
0
0
0
0
0
0
0
0
0
0
0
0
0
0
0
0
0
0
0
0
0
0
0
0
0
0
0
0
0
0
0
0
0
0
0
0
0
0
0
0
0
0
0
0
0
0
0
0
0
0
0
0
0
0
0
0
0
0
0
0
0
0
0
0
0
0
0
0
0
0
0
0
0
0
0
0
0
0
0
0
0
0
0
0
0
0
0
0
0
0
0
0
0
0
0
0
0
0
0
0
0
0
0
0
0
0
0
0
0
0
0
0
0
0
0
0
0
0
0
0
0
0
0
0
0
0
0
0
0
0
0
0
0
0
0
0
0
0
0
0
0
0
0
0
0
0
0
0
0
0
0
0
0
0
0
0
0
0
0
0
0
0
0
0
0
0
0
0
0
0
0
0
0
0
0
0
0
0
0
0
0
0
0
0
0
0
0
0
0
0
0
0
0
0
0
0
0
0
0
0
0
0
0
0
0
0
0
0
0
0
0
0
0
0
0
0
0
0
0
0
0
0
0
0
0
0
0
0
0
0
0
0
0
0
0
0
0
0
0
0
0
0
0
0
0
0
0
0
0
0
0
0
0
0
0
0
0
0
0
0
0
0
0
0
0
0
0
0
0
0
0
0
0
0
0
0
0
0
0
0
0
0
0
0
0
0
0
0
0
0
0
0
0
0
0
0
0
0
0
0
0
0
0
0
0
0
0
0
0
0
0
0
0
0
0
0
0
0
0
0
0
0
0
0
0
0
0
0
0
0
0
0
0
0
0
0
0
0
0
0
0
0
0
0
0
0
0
0
0
0
0
0
0
0
0
0
0
0
0
0
0
0
0
0
0
0
0
0
0
0
0
0
0
0
0
0
0
0
0
0
0
0
0
0
0
0
0
0
0
0
0
0
0
0
0
0
0
0
0
0
0
0
0
0
0
0
0
0
0
0
0
0
0
0
0
0
0
0
0
0
0
0
0
0
0
0
0
0
0
0
0
0
0
0
0
0
0
0
0
0
0
0
0
0
0
0
0
0
0
0
0
0
0
0
0
0
0
0
0
0
0
0
0
0
0
0
0
0
0
0
0
0
0
0
0
0
0
0
0
0
0
0
0
0
0
0
0
0
0
0
0
0
0
0
0
0
0
0
0
0
0
0
0
0
0
0
0
0
0
0
0
0
0
0
0
0
0
0
0
0
0
0
0
0
0
0
0
0
0
0
0
0
0
0
0
0
0
0
0
0
0
0
0
0
0
0
0
0
0
0
0
0
0
0
0
0
0
0
0
0
0
0
0
0
0
0
0
0
0
0
0
0
0
0
0
0
0
0
0
0
0
0
0
0
0
0
0
0
0
0
0
0
0
0
0
0
0
0
0
0
0
0
0
0
0
0
0
0
0
0
0
0
0
0
0
0
0
0
0
0
0
0
0
0
0
0
0
0
0
0
0
0
0
0
0
0
0
0
0
0
0
0
0
0
0
0
0
0
0
0
1
1
1
1
1
1
1
1
1
1
1
1
1
1
1
1
1
1
2
2
2
2
2
2
2
2
2
2
2
2
2
2
2
2
2
2
2
2
2
2
2
2
2
2
2
2
2
2
2
2
3
3
3
3
3
3
3
3
3
3
3
3
3
3
3
3
3
3
3
4
4
4
4
4
4
4
4
4
4
4
4
4
4
4
4
4
4
4
4
4
4
4
4

LOOKUP_TABLE FreeFempp_table 5
1.00000000 0.00000000 0.00000000 1.00000000
1.00000000 1.00000000 0.00000000 1.00000000
1.00000000 0.00000000 1.00000000 1.00000000
0.00000000 1.00000000 0.00000000 1.00000000
0.00000000 1.00000000 1.00000000 1.00000000

POINT_DATA 712
FIELD FieldData 1
Density 1 712 float
1.27651900e-01 9.58704054e-02 2.46528715e-01 1.69669837e-01 1.06947578e-01 3.41479123e-01 1.17770642e-01 9.08581465e-02 7.92055801e-02 1.60680860e-01 2.39722580e-01 3.49926323e-01 3.13567728e-01 3.98591429e-01 1.12170406e-01 7.79416114e-02 6.31234497e-02 1.70993298e-01 2.65882552e-01 3.93246531e-01 3.59387845e-01 4.29744601e-01 4.22474295e-01 2.64829248e-01 8.73756707e-02 1.52854919e-01 6.25109226e-02 5.68823591e-02 4.14416760e-01 3.15199703e-01 3.87438804e-01 4.43855375e-01 4.47441667e-01 1.95292622e-01 4.54078376e-01 4.54614609e-01 4.51383114e-01 8.12054873e-02 1.15450092e-01 7.17675239e-02 7.38506839e-02 4.30075884e-01 3.26785892e-01 2.45403349e-01 3.82865340e-01 4.57183719e-01 4.47335452e-01 4.53311294e-01 1.69062659e-01 4.51089740e-01 4.55392778e-01 4.50051665e-01 4.13046092e-01 1.23342142e-01 1.05363175e-01 1.02452576e-01 1.09660640e-01 4.42666322e-01 2.66496271e-01 3.35968822e-01 3.81381035e-01 4.61630553e-01 4.61195856e-01 4.69437182e-01 2.12329045e-01 4.58016306e-01 4.56956506e-01 4.70550358e-01 4.61454928e-01 4.25500929e-01 5.03510654e-01 1.65791452e-01 1.57182246e-01 1.46505237e-01 1.64284751e-01 4.60927486e-01 3.30781072e-01 4.01130289e-01 4.83661443e-01 4.74189878e-01 4.82082427e-01 4.92803603e-01 2.72095233e-01 4.75132912e-01 4.88235205e-01 4.81445670e-01 4.39780593e-01 5.14452159e-01 4.95606244e-01 4.86662716e-01 4.87045974e-01 4.65366244e-01 4.57829565e-01 2.49979988e-01 2.44815215e-01 2.05624297e-01 2.42839441e-01 4.66082543e-01 4.85390365e-01 3.61427546e-01 4.53152418e-01 4.28122014e-01 5.00513852e-01 5.12137830e-01 5.06636262e-01 4.96351779e-01 4.92745578e-01 5.04102707e-01 4.97152269e-01 5.39774060e-01 4.94072825e-01 4.76281613e-01 4.78703231e-01 2.82359421e-01 5.11914670e-01 3.58870417e-01 3.81402701e-01 3.32987517e-01 3.48587990e-01 4.81598914e-01 4.96376961e-01 4.43434745e-01 4.73502308e-01 4.83362526e-01 5.21761656e-01 5.21801233e-01 5.11466503e-01 5.17432630e-01 5.18385291e-01 5.37426233e-01 5.87890565e-01 5.21426141e-01 5.07690549e-01 4.02786225e-01 5.47953844e-01 6.32580996e-01 4.72676605e-01 4.86056536e-01 4.71670926e-01 4.69598532e-01 4.96047139e-01 4.97108042e-01 5.16234934e-01 5.07876217e-01 5.31221688e-01 5.41202128e-01 5.45421898e-01 5.22719920e-01 5.06900907e-01 5.59756458e-01 5.52631676e-01 6.01575494e-01 6.43471837e-01 5.54831803e-01 5.71417391e-01 6.04211330e-01 6.53601527e-01 5.42931855e-01 5.50011396e-01 5.36252856e-01 5.45572400e-01 4.98984098e-01 5.04777968e-01 5.13971567e-01 5.39572001e-01 5.60817659e-01 5.33020020e-01 5.89177072e-01 5.62776804e-01 5.13557971e-01 4.98684824e-01 6.21332645e-01 5.97597778e-01 6.32677495e-01 6.61183655e-01 6.00679040e-01 6.18426859e-01 6.43400669e-01 6.46668077e-01 4.98508334e-01 5.84103167e-01 5.74113131e-01 5.70653498e-01 4.91819620e-01 5.30231655e-01 4.89120990e-01 5.09906828e-01 5.65065920e-01 5.13306379e-01 5.46916902e-01 6.02167368e-01 6.43225133e-01 4.88631904e-01 4.82948035e-01 6.14803135e-01 6.22628510e-01 6.44416153e-01 6.19891584e-01 6.39546514e-01 6.15820587e-01 6.07803345e-01 6.39358461e-01 5.86126208e-01 5.87510288e-01 5.95057487e-01 5.74976623e-01 4.72315997e-01 5.39129853e-01 4.90871072e-01 4.70531851e-01 5.19703209e-01 5.63278258e-01 5.11926234e-01 4.76222157e-01 5.69880247e-01 6.16034985e-01 4.62883830e-01 5.88044822e-01 5.82547724e-01 5.91667831e-01 5.95963597e-01 6.10644698e-01 5.97084820e-01 5.74647784e-01 5.22032082e-01 6.07235014e-01 5.27303338e-01 5.19328654e-01 5.44500291e-01 5.60485423e-01 5.82348943e-01 5.86543560e-01 5.85356772e-01 5.67278266e-01 4.57632303e-01 5.43970764e-01 5.06050289e-01 4.77544993e-01 5.26549935e-01 4.79529738e-01 4.58495080e-01 5.69076419e-01 5.02397954e-01 4.86044139e-01 4.86716986e-01 4.76534456e-01 5.41931748e-01 4.84967262e-01 3.64110678e-01 5.66963971e-01 5.20585179e-01 3.78459811e-01 4.17407930e-01 5.07666290e-01 4.94748324e-01 5.46998978e-01 5.38494110e-01 5.33811331e-01 5.65312743e-01 5.65194786e-01 5.58282018e-01 5.45230627e-01 4.73902673e-01 4.68846947e-01 5.13407290e-01 5.25919795e-01 4.86136347e-01 5.47023118e-01 3.71976823e-01 3.47601235e-01 3.42411399e-01 3.15961480e-01 4.18100566e-01 2.37949118e-01 5.34639835e-01 5.32021224e-01 2.56411433e-01 3.24030727e-01 4.97763723e-01 4.13192272e-01 4.97828126e-01 4.93957490e-01 4.74567741e-01 5.08883476e-01 5.16869128e-01 5.22880018e-01 5.22083640e-01 5.23831189e-01 5.29924333e-01 5.28011560e-01 5.27593553e-01 5.15810490e-01 4.96941686e-01 4.92219180e-01 4.95160609e-01 5.07645071e-01 5.17549694e-01 5.03101647e-01 5.44155657e-01 5.59427917e-01 5.68602204e-01 2.56355256e-01 2.55037904e-01 2.02361733e-01 3.04246604e-01 1.59680426e-01 2.00126424e-01 5.43523550e-01 3.73587638e-01 4.82091486e-01 4.95986104e-01 4.32360411e-01 5.46068370e-01 4.80721325e-01 4.76091683e-01 4.88562465e-01 5.05282402e-01 4.84981596e-01 5.15220106e-01 5.10850608e-01 4.81967807e-01 4.38119531e-01 4.62726861e-01 4.48494345e-01 4.09885734e-01 4.29571480e-01 3.69653732e-01 4.26149338e-01 4.02545810e-01 5.22300482e-01 5.63472569e-01 5.98041475e-01 6.00272417e-01 5.94786584e-01 1.94030926e-01 2.14615911e-01 1.34678245e-01 2.87147194e-01 1.09970964e-01 1.46958917e-01 4.77459669e-01 4.38914329e-01 5.06294847e-01 3.51241529e-01 5.85383475e-01 4.30643350e-01 4.77553934e-01 4.53690052e-01 4.33571517e-01 4.56933379e-01 4.45966870e-01 4.77609843e-01 4.95411515e-01 4.43116397e-01 4.83981252e-01 3.40765029e-01 3.52798015e-01 3.05440784e-01 3.58639866e-01 3.78498971e-01 4.03938234e-01 2.88699389e-01 3.37920278e-01 2.70750225e-01 3.72042209e-01 4.88400996e-01 5.50322592e-01 5.99700332e-01 6.12300992e-01 1.46600336e-01 2.08659559e-01 7.51182884e-02 9.05690044e-02 4.08778936e-01 3.71555388e-01 4.07183617e-01 5.32904625e-01 2.42738664e-01 5.84188461e-01 4.02112007e-01 3.65973026e-01 4.16109562e-01 2.70890594e-01 3.11900795e-01 4.09262419e-01 3.88610423e-01 4.15287405e-01 4.39270765e-01 4.60806727e-01 4.25816089e-01 2.66240925e-01 2.67530262e-01 2.24481329e-01 3.11722279e-01 3.54402632e-01 3.63609076e-01 2.21011430e-01 2.96802193e-01 2.14214846e-01 3.20188046e-01 4.87434000e-01 4.06477839e-01 5.51703811e-01 5.79279959e-01 1.58159465e-01 1.05192952e-01 5.29681668e-02 6.85811937e-02 3.34970564e-01 3.09451878e-01 4.03890103e-01 2.46536553e-01 5.09501934e-01 5.38194239e-01 3.48997414e-01 2.15158492e-01 2.27444440e-01 2.63371944e-01 2.09777072e-01 1.73200652e-01 3.27323526e-01 3.48923594e-01 3.90123636e-01 3.59506577e-01 4.08688337e-01 3.44543129e-01 2.02075824e-01 1.64622903e-01 2.58727610e-01 2.84881562e-01 2.43635625e-01 1.34341016e-01 1.53791130e-01 3.89192343e-01 4.82083797e-01 5.05514205e-01 1.31780088e-01 7.58856684e-02 5.10922782e-02 2.88997829e-01 2.31590554e-01 3.66334051e-01 4.21606362e-01 4.49120760e-01 2.71593958e-01 2.19483674e-01 1.85415536e-01 1.92110747e-01 2.66153842e-01 1.68469608e-01 2.76316553e-01 2.01447979e-01 2.12660730e-01 2.12579221e-01 2.24061087e-01 2.67806858e-01 2.53087819e-01 3.17196399e-01 3.05822670e-01 2.40997106e-01 2.47775152e-01 1.56379655e-01 1.15702234e-01 2.12831736e-01 1.43496454e-01 1.54032797e-01 1.60513297e-01 1.00161165e-01 1.24122046e-01 3.65589440e-01 4.26998258e-01 4.15679097e-01 4.29453045e-01 1.64150685e-01 1.04276419e-01 7.26736262e-02 2.59277076e-01 2.95802206e-01 3.35957617e-01 2.19089344e-01 1.90460399e-01 1.95511729e-01 2.72602916e-01 2.72606432e-01 3.27748835e-01 3.86656314e-01 3.05672586e-01 3.33591104e-01 1.98246643e-01 2.45975539e-01 1.78019598e-01 1.30764797e-01 2.22421616e-01 1.69150025e-01 2.00187758e-01 1.66816577e-01 1.95219934e-01 1.07100271e-01 1.09487720e-01 9.72201079e-02 1.05310000e-01 1.08670160e-01 1.23391360e-01 3.66184115e-01 3.47431213e-01 3.41928065e-01 2.89134175e-01 1.66119277e-01 1.13045201e-01 2.23050535e-01 2.13674515e-01 2.01719820e-01 3.09063405e-01 3.06993008e-01 4.53422010e-01 3.80184442e-01 4.42194641e-01 3.47963721e-01 2.74457574e-01 4.68051076e-01 1.26324818e-01 9.94172692e-02 1.38526425e-01 1.63812190e-01 1.41860366e-01 1.99059278e-01 1.01519644e-01 8.75964761e-02 8.17029700e-02 1.38093069e-01 1.36592165e-01 1.45504922e-01 3.04394901e-01 2.78471619e-01 2.32162237e-01 1.92555875e-01 1.61326572e-01 1.33475527e-01 2.31354088e-01 2.77021021e-01 3.46763492e-01 4.41501409e-01 4.28442955e-01 3.87295574e-01 3.02062362e-01 4.11086529e-01 4.45165515e-01 4.15968686e-01 3.77304375e-01 1.13748863e-01 1.24920554e-01 1.62896410e-01 1.37140423e-01 2.64461249e-01 2.09477320e-01 1.19928926e-01 9.82108042e-02 9.57541242e-02 1.84497461e-01 1.74245730e-01 1.69320270e-01 1.65858105e-01 2.25281104e-01 1.70021787e-01 1.52339116e-01 1.36871204e-01 2.78391153e-01 1.95046455e-01 3.51914495e-01 3.95927221e-01 3.42375785e-01 3.58266771e-01 3.45233470e-01 3.21972102e-01 3.48308444e-01 2.63834178e-01 1.37585878e-01 1.45116523e-01 2.17322424e-01 1.72091648e-01 3.21081042e-01 2.77912825e-01 1.35677129e-01 1.71835616e-01 1.22857451e-01 1.34194046e-01 2.02001065e-01 2.03961641e-01 1.45141453e-01 1.18514724e-01 1.19112968e-01 2.19191968e-01 1.44485280e-01 2.56245226e-01 2.77858853e-01 3.06437969e-01 2.82352298e-01 2.07077727e-01 2.13925093e-01 1.53607473e-01 1.75084010e-01 2.04866752e-01 1.93642423e-01 2.25166053e-01 2.68660337e-01 3.27400327e-01 3.34913552e-01 1.60969764e-01 1.18507124e-01 1.03757583e-01 1.01564743e-01 1.49964869e-01 1.13493845e-01 1.59538791e-01 2.55064636e-01 3.23944956e-01 1.97867945e-01 1.18328385e-01 1.20186239e-01 9.69638973e-02 3.38928878e-01 2.84719616e-01 2.35216662e-01 2.95369357e-01 3.21043372e-01 3.97267938e-01 4.17544693e-01 3.91494125e-01 1.08504497e-01 1.21879317e-01 1.01650432e-01 9.37446654e-02 8.41341987e-02 1.46990940e-01 2.29084164e-01 7.73061588e-02 1.01839319e-01 7.63298199e-02 2.68909872e-01 4.12165612e-01 3.60789120e-01 3.31598818e-01 4.06370133e-01 4.83507544e-01 4.90984380e-01 1.16149701e-01 1.26017749e-01 6.81287795e-02 7.74843469e-02 1.40636384e-01 8.95819515e-02 6.71624467e-02 2.31871963e-01 3.90344560e-01 5.00136435e-01 4.06013638e-01 4.32334125e-01 5.14374614e-01 5.65548658e-01 5.70699751e-01 1.32321715e-01 1.69175580e-01 7.80642554e-02 1.04142696e-01 1.55873939e-01 1.35072619e-01 8.78475830e-02 2.66032726e-01 3.84824663e-01 5.08310258e-01 5.05643249e-01 5.84724009e-01 6.01554930e-01 5.76621354e-01 1.85990155e-01 2.01309130e-01 1.35107622e-01 1.35614842e-01 1.82530627e-01 2.82659739e-01 2.14998201e-01 4.17203069e-01 5.16946137e-01 5.40428460e-01 2.85664797e-01 2.53667086e-01 2.33976811e-01 2.63316393e-01 2.79774815e-01 3.67698491e-01 4.41986024e-01 5.12805700e-01 5.29373825e-01 3.88325125e-01 3.49714458e-01 3.75824690e-01 3.92757654e-01 4.33533281e-01 4.86901045e-01 5.15611410e-01 5.36367834e-01 4.62486565e-01 4.35670257e-01 4.87337232e-01 5.43664157e-01 5.15106618e-01 5.55046380e-01 4.87959534e-01 5.22761285e-01 5.52646458e-01 5.55075049e-01 5.43004215e-01 
