# vtk DataFile Version 2.0
results_case1_non_linear/1_density.vtk, Created by Freefem++ 
ASCII
DATASET UNSTRUCTURED_GRID
POINTS 961 float
0 0 0
0.033333333 0 0
0.066666667 0 0
0.1 0 0
0.13333333 0 0
0.16666667 0 0
0.2 0 0
0.23333333 0 0
0.26666667 0 0
0.3 0 0
0.33333333 0 0
0.36666667 0 0
0.4 0 0
0.43333333 0 0
0.46666667 0 0
0.5 0 0
0.53333333 0 0
0.56666667 0 0
0.6 0 0
0.63333333 0 0
0.66666667 0 0
0.7 0 0
0.73333333 0 0
0.76666667 0 0
0.8 0 0
0.83333333 0 0
0.86666667 0 0
0.9 0 0
0.93333333 0 0
0.96666667 0 0
1 0 0
0 0.033333333 0
0.033333333 0.033333333 0
0.066666667 0.033333333 0
0.1 0.033333333 0
0.13333333 0.033333333 0
0.16666667 0.033333333 0
0.2 0.033333333 0
0.23333333 0.033333333 0
0.26666667 0.033333333 0
0.3 0.033333333 0
0.33333333 0.033333333 0
0.36666667 0.033333333 0
0.4 0.033333333 0
0.43333333 0.033333333 0
0.46666667 0.033333333 0
0.5 0.033333333 0
0.53333333 0.033333333 0
0.56666667 0.033333333 0
0.6 0.033333333 0
0.63333333 0.033333333 0
0.66666667 0.033333333 0
0.7 0.033333333 0
0.73333333 0.033333333 0
0.76666667 0.033333333 0
0.8 0.033333333 0
0.83333333 0.033333333 0
0.86666667 0.033333333 0
0.9 0.033333333 0
0.93333333 0.033333333 0
0.96666667 0.033333333 0
1 0.033333333 0
0 0.066666667 0
0.033333333 0.066666667 0
0.066666667 0.066666667 0
0.1 0.066666667 0
0.13333333 0.066666667 0
0.16666667 0.066666667 0
0.2 0.066666667 0
0.23333333 0.066666667 0
0.26666667 0.066666667 0
0.3 0.066666667 0
0.33333333 0.066666667 0
0.36666667 0.066666667 0
0.4 0.066666667 0
0.43333333 0.066666667 0
0.46666667 0.066666667 0
0.5 0.066666667 0
0.53333333 0.066666667 0
0.56666667 0.066666667 0
0.6 0.066666667 0
0.63333333 0.066666667 0
0.66666667 0.066666667 0
0.7 0.066666667 0
0.73333333 0.066666667 0
0.76666667 0.066666667 0
0.8 0.066666667 0
0.83333333 0.066666667 0
0.86666667 0.066666667 0
0.9 0.066666667 0
0.93333333 0.066666667 0
0.96666667 0.066666667 0
1 0.066666667 0
0 0.1 0
0.033333333 0.1 0
0.066666667 0.1 0
0.1 0.1 0
0.13333333 0.1 0
0.16666667 0.1 0
0.2 0.1 0
0.23333333 0.1 0
0.26666667 0.1 0
0.3 0.1 0
0.33333333 0.1 0
0.36666667 0.1 0
0.4 0.1 0
0.43333333 0.1 0
0.46666667 0.1 0
0.5 0.1 0
0.53333333 0.1 0
0.56666667 0.1 0
0.6 0.1 0
0.63333333 0.1 0
0.66666667 0.1 0
0.7 0.1 0
0.73333333 0.1 0
0.76666667 0.1 0
0.8 0.1 0
0.83333333 0.1 0
0.86666667 0.1 0
0.9 0.1 0
0.93333333 0.1 0
0.96666667 0.1 0
1 0.1 0
0 0.13333333 0
0.033333333 0.13333333 0
0.066666667 0.13333333 0
0.1 0.13333333 0
0.13333333 0.13333333 0
0.16666667 0.13333333 0
0.2 0.13333333 0
0.23333333 0.13333333 0
0.26666667 0.13333333 0
0.3 0.13333333 0
0.33333333 0.13333333 0
0.36666667 0.13333333 0
0.4 0.13333333 0
0.43333333 0.13333333 0
0.46666667 0.13333333 0
0.5 0.13333333 0
0.53333333 0.13333333 0
0.56666667 0.13333333 0
0.6 0.13333333 0
0.63333333 0.13333333 0
0.66666667 0.13333333 0
0.7 0.13333333 0
0.73333333 0.13333333 0
0.76666667 0.13333333 0
0.8 0.13333333 0
0.83333333 0.13333333 0
0.86666667 0.13333333 0
0.9 0.13333333 0
0.93333333 0.13333333 0
0.96666667 0.13333333 0
1 0.13333333 0
0 0.16666667 0
0.033333333 0.16666667 0
0.066666667 0.16666667 0
0.1 0.16666667 0
0.13333333 0.16666667 0
0.16666667 0.16666667 0
0.2 0.16666667 0
0.23333333 0.16666667 0
0.26666667 0.16666667 0
0.3 0.16666667 0
0.33333333 0.16666667 0
0.36666667 0.16666667 0
0.4 0.16666667 0
0.43333333 0.16666667 0
0.46666667 0.16666667 0
0.5 0.16666667 0
0.53333333 0.16666667 0
0.56666667 0.16666667 0
0.6 0.16666667 0
0.63333333 0.16666667 0
0.66666667 0.16666667 0
0.7 0.16666667 0
0.73333333 0.16666667 0
0.76666667 0.16666667 0
0.8 0.16666667 0
0.83333333 0.16666667 0
0.86666667 0.16666667 0
0.9 0.16666667 0
0.93333333 0.16666667 0
0.96666667 0.16666667 0
1 0.16666667 0
0 0.2 0
0.033333333 0.2 0
0.066666667 0.2 0
0.1 0.2 0
0.13333333 0.2 0
0.16666667 0.2 0
0.2 0.2 0
0.23333333 0.2 0
0.26666667 0.2 0
0.3 0.2 0
0.33333333 0.2 0
0.36666667 0.2 0
0.4 0.2 0
0.43333333 0.2 0
0.46666667 0.2 0
0.5 0.2 0
0.53333333 0.2 0
0.56666667 0.2 0
0.6 0.2 0
0.63333333 0.2 0
0.66666667 0.2 0
0.7 0.2 0
0.73333333 0.2 0
0.76666667 0.2 0
0.8 0.2 0
0.83333333 0.2 0
0.86666667 0.2 0
0.9 0.2 0
0.93333333 0.2 0
0.96666667 0.2 0
1 0.2 0
0 0.23333333 0
0.033333333 0.23333333 0
0.066666667 0.23333333 0
0.1 0.23333333 0
0.13333333 0.23333333 0
0.16666667 0.23333333 0
0.2 0.23333333 0
0.23333333 0.23333333 0
0.26666667 0.23333333 0
0.3 0.23333333 0
0.33333333 0.23333333 0
0.36666667 0.23333333 0
0.4 0.23333333 0
0.43333333 0.23333333 0
0.46666667 0.23333333 0
0.5 0.23333333 0
0.53333333 0.23333333 0
0.56666667 0.23333333 0
0.6 0.23333333 0
0.63333333 0.23333333 0
0.66666667 0.23333333 0
0.7 0.23333333 0
0.73333333 0.23333333 0
0.76666667 0.23333333 0
0.8 0.23333333 0
0.83333333 0.23333333 0
0.86666667 0.23333333 0
0.9 0.23333333 0
0.93333333 0.23333333 0
0.96666667 0.23333333 0
1 0.23333333 0
0 0.26666667 0
0.033333333 0.26666667 0
0.066666667 0.26666667 0
0.1 0.26666667 0
0.13333333 0.26666667 0
0.16666667 0.26666667 0
0.2 0.26666667 0
0.23333333 0.26666667 0
0.26666667 0.26666667 0
0.3 0.26666667 0
0.33333333 0.26666667 0
0.36666667 0.26666667 0
0.4 0.26666667 0
0.43333333 0.26666667 0
0.46666667 0.26666667 0
0.5 0.26666667 0
0.53333333 0.26666667 0
0.56666667 0.26666667 0
0.6 0.26666667 0
0.63333333 0.26666667 0
0.66666667 0.26666667 0
0.7 0.26666667 0
0.73333333 0.26666667 0
0.76666667 0.26666667 0
0.8 0.26666667 0
0.83333333 0.26666667 0
0.86666667 0.26666667 0
0.9 0.26666667 0
0.93333333 0.26666667 0
0.96666667 0.26666667 0
1 0.26666667 0
0 0.3 0
0.033333333 0.3 0
0.066666667 0.3 0
0.1 0.3 0
0.13333333 0.3 0
0.16666667 0.3 0
0.2 0.3 0
0.23333333 0.3 0
0.26666667 0.3 0
0.3 0.3 0
0.33333333 0.3 0
0.36666667 0.3 0
0.4 0.3 0
0.43333333 0.3 0
0.46666667 0.3 0
0.5 0.3 0
0.53333333 0.3 0
0.56666667 0.3 0
0.6 0.3 0
0.63333333 0.3 0
0.66666667 0.3 0
0.7 0.3 0
0.73333333 0.3 0
0.76666667 0.3 0
0.8 0.3 0
0.83333333 0.3 0
0.86666667 0.3 0
0.9 0.3 0
0.93333333 0.3 0
0.96666667 0.3 0
1 0.3 0
0 0.33333333 0
0.033333333 0.33333333 0
0.066666667 0.33333333 0
0.1 0.33333333 0
0.13333333 0.33333333 0
0.16666667 0.33333333 0
0.2 0.33333333 0
0.23333333 0.33333333 0
0.26666667 0.33333333 0
0.3 0.33333333 0
0.33333333 0.33333333 0
0.36666667 0.33333333 0
0.4 0.33333333 0
0.43333333 0.33333333 0
0.46666667 0.33333333 0
0.5 0.33333333 0
0.53333333 0.33333333 0
0.56666667 0.33333333 0
0.6 0.33333333 0
0.63333333 0.33333333 0
0.66666667 0.33333333 0
0.7 0.33333333 0
0.73333333 0.33333333 0
0.76666667 0.33333333 0
0.8 0.33333333 0
0.83333333 0.33333333 0
0.86666667 0.33333333 0
0.9 0.33333333 0
0.93333333 0.33333333 0
0.96666667 0.33333333 0
1 0.33333333 0
0 0.36666667 0
0.033333333 0.36666667 0
0.066666667 0.36666667 0
0.1 0.36666667 0
0.13333333 0.36666667 0
0.16666667 0.36666667 0
0.2 0.36666667 0
0.23333333 0.36666667 0
0.26666667 0.36666667 0
0.3 0.36666667 0
0.33333333 0.36666667 0
0.36666667 0.36666667 0
0.4 0.36666667 0
0.43333333 0.36666667 0
0.46666667 0.36666667 0
0.5 0.36666667 0
0.53333333 0.36666667 0
0.56666667 0.36666667 0
0.6 0.36666667 0
0.63333333 0.36666667 0
0.66666667 0.36666667 0
0.7 0.36666667 0
0.73333333 0.36666667 0
0.76666667 0.36666667 0
0.8 0.36666667 0
0.83333333 0.36666667 0
0.86666667 0.36666667 0
0.9 0.36666667 0
0.93333333 0.36666667 0
0.96666667 0.36666667 0
1 0.36666667 0
0 0.4 0
0.033333333 0.4 0
0.066666667 0.4 0
0.1 0.4 0
0.13333333 0.4 0
0.16666667 0.4 0
0.2 0.4 0
0.23333333 0.4 0
0.26666667 0.4 0
0.3 0.4 0
0.33333333 0.4 0
0.36666667 0.4 0
0.4 0.4 0
0.43333333 0.4 0
0.46666667 0.4 0
0.5 0.4 0
0.53333333 0.4 0
0.56666667 0.4 0
0.6 0.4 0
0.63333333 0.4 0
0.66666667 0.4 0
0.7 0.4 0
0.73333333 0.4 0
0.76666667 0.4 0
0.8 0.4 0
0.83333333 0.4 0
0.86666667 0.4 0
0.9 0.4 0
0.93333333 0.4 0
0.96666667 0.4 0
1 0.4 0
0 0.43333333 0
0.033333333 0.43333333 0
0.066666667 0.43333333 0
0.1 0.43333333 0
0.13333333 0.43333333 0
0.16666667 0.43333333 0
0.2 0.43333333 0
0.23333333 0.43333333 0
0.26666667 0.43333333 0
0.3 0.43333333 0
0.33333333 0.43333333 0
0.36666667 0.43333333 0
0.4 0.43333333 0
0.43333333 0.43333333 0
0.46666667 0.43333333 0
0.5 0.43333333 0
0.53333333 0.43333333 0
0.56666667 0.43333333 0
0.6 0.43333333 0
0.63333333 0.43333333 0
0.66666667 0.43333333 0
0.7 0.43333333 0
0.73333333 0.43333333 0
0.76666667 0.43333333 0
0.8 0.43333333 0
0.83333333 0.43333333 0
0.86666667 0.43333333 0
0.9 0.43333333 0
0.93333333 0.43333333 0
0.96666667 0.43333333 0
1 0.43333333 0
0 0.46666667 0
0.033333333 0.46666667 0
0.066666667 0.46666667 0
0.1 0.46666667 0
0.13333333 0.46666667 0
0.16666667 0.46666667 0
0.2 0.46666667 0
0.23333333 0.46666667 0
0.26666667 0.46666667 0
0.3 0.46666667 0
0.33333333 0.46666667 0
0.36666667 0.46666667 0
0.4 0.46666667 0
0.43333333 0.46666667 0
0.46666667 0.46666667 0
0.5 0.46666667 0
0.53333333 0.46666667 0
0.56666667 0.46666667 0
0.6 0.46666667 0
0.63333333 0.46666667 0
0.66666667 0.46666667 0
0.7 0.46666667 0
0.73333333 0.46666667 0
0.76666667 0.46666667 0
0.8 0.46666667 0
0.83333333 0.46666667 0
0.86666667 0.46666667 0
0.9 0.46666667 0
0.93333333 0.46666667 0
0.96666667 0.46666667 0
1 0.46666667 0
0 0.5 0
0.033333333 0.5 0
0.066666667 0.5 0
0.1 0.5 0
0.13333333 0.5 0
0.16666667 0.5 0
0.2 0.5 0
0.23333333 0.5 0
0.26666667 0.5 0
0.3 0.5 0
0.33333333 0.5 0
0.36666667 0.5 0
0.4 0.5 0
0.43333333 0.5 0
0.46666667 0.5 0
0.5 0.5 0
0.53333333 0.5 0
0.56666667 0.5 0
0.6 0.5 0
0.63333333 0.5 0
0.66666667 0.5 0
0.7 0.5 0
0.73333333 0.5 0
0.76666667 0.5 0
0.8 0.5 0
0.83333333 0.5 0
0.86666667 0.5 0
0.9 0.5 0
0.93333333 0.5 0
0.96666667 0.5 0
1 0.5 0
0 0.53333333 0
0.033333333 0.53333333 0
0.066666667 0.53333333 0
0.1 0.53333333 0
0.13333333 0.53333333 0
0.16666667 0.53333333 0
0.2 0.53333333 0
0.23333333 0.53333333 0
0.26666667 0.53333333 0
0.3 0.53333333 0
0.33333333 0.53333333 0
0.36666667 0.53333333 0
0.4 0.53333333 0
0.43333333 0.53333333 0
0.46666667 0.53333333 0
0.5 0.53333333 0
0.53333333 0.53333333 0
0.56666667 0.53333333 0
0.6 0.53333333 0
0.63333333 0.53333333 0
0.66666667 0.53333333 0
0.7 0.53333333 0
0.73333333 0.53333333 0
0.76666667 0.53333333 0
[...]
CELL_DATA 1920
Scalars  Label int 1
LOOKUP_TABLE FreeFempp_table
0
0
0
0
0
0
0
0
0
0
0
0
0
0
0
0
0
0
0
0
0
0
0
0
0
0
0
0
0
0
0
0
0
0
0
0
0
0
0
0
0
0
0
0
0
0
0
0
0
0
0
0
0
0
0
0
0
0
0
0
0
0
0
0
0
0
0
0
0
0
0
0
0
0
0
0
0
0
0
0
0
0
0
0
0
0
0
0
0
0
0
0
0
0
0
0
0
0
0
0
0
0
0
0
0
0
0
0
0
0
0
0
0
0
0
0
0
0
0
0
0
0
0
0
0
0
0
0
0
0
0
0
0
0
0
0
0
0
0
0
0
0
0
0
0
0
0
0
0
0
0
0
0
0
0
0
0
0
0
0
0
0
0
0
0
0
0
0
0
0
0
0
0
0
0
0
0
0
0
0
0
0
0
0
0
0
0
0
0
0
0
0
0
0
0
0
0
0
0
0
0
0
0
0
0
0
0
0
0
0
0
0
0
0
0
0
0
0
0
0
0
0
0
0
0
0
0
0
0
0
0
0
0
0
0
0
0
0
0
0
0
0
0
0
0
0
0
0
0
0
0
0
0
0
0
0
0
0
0
0
0
0
0
0
0
0
0
0
0
0
0
0
0
0
0
0
0
0
0
0
0
0
0
0
0
0
0
0
0
0
0
0
0
0
0
0
0
0
0
0
0
0
0
0
0
0
0
0
0
0
0
0
0
0
0
0
0
0
0
0
0
0
0
0
0
0
0
0
0
0
0
0
0
0
0
0
0
0
0
0
0
0
0
0
0
0
0
0
0
0
0
0
0
0
0
0
0
0
0
0
0
0
0
0
0
0
0
0
0
0
0
0
0
0
0
0
0
0
0
0
0
0
0
0
0
0
0
0
0
0
0
0
0
0
0
0
0
0
0
0
0
0
0
0
0
0
0
0
0
0
0
0
0
0
0
0
0
0
0
0
0
0
0
0
0
0
0
0
0
0
0
0
0
0
0
0
0
0
0
0
0
0
0
0
0
0
0
0
0
0
0
0
0
0
0
0
0
0
0
0
0
0
0
0
0
0
0
0
0
0
0
0
0
0
0
0
0
0
0
0
0
0
0
0
0
0
0
0
0
0
0
0
0
0
0
0
0
0
0
0
0
0
0
0
0
0
0
0
0
0
0
0
0
0
0
0
0
0
0
0
0
0
0
0
0
0
0
0
0
0
0
0
0
0
0
0
0
0
0
0
0
0
0
0
0
0
0
0
0
0
0
0
0
0
0
0
0
0
0
0
0
0
0
0
0
0
0
0
0
0
0
0
0
0
0
0
0
0
0
0
0
0
0
0
0
0
0
0
0
0
0
0
0
0
0
0
0
0
0
0
0
0
0
0
0
0
0
0
0
0
0
0
0
0
0
0
0
0
0
0
0
0
0
0
0
0
0
0
0
0
0
0
0
0
0
0
0
0
0
0
0
0
0
0
0
0
0
0
0
0
0
0
0
0
0
0
0
0
0
0
0
0
0
0
0
0
0
0
0
0
0
0
0
0
0
0
0
0
0
0
0
0
0
0
0
0
0
0
0
0
0
0
0
0
0
0
0
0
0
0
0
0
0
0
0
0
0
0
0
0
0
0
0
0
0
0
0
0
0
0
0
0
0
0
0
0
0
0
0
0
0
0
0
0
0
0
0
0
0
0
0
0
0
0
0
0
0
0
0
0
0
0
0
0
0
0
0
0
0
0
0
0
0
0
0
0
0
0
0
0
0
0
0
0
0
0
0
0
0
0
0
0
0
0
0
0
0
0
0
0
0
0
0
0
0
0
0
0
0
0
0
0
0
0
0
0
0
0
0
0
0
0
0
0
0
0
0
0
0
0
0
0
0
0
0
0
0
0
0
0
0
0
0
0
0
0
0
0
0
0
0
0
0
0
0
0
0
0
0
0
0
0
0
0
0
0
0
0
0
0
0
0
0
0
0
0
0
0
0
0
0
0
0
0
0
0
0
0
0
0
0
0
0
0
0
0
0
0
0
0
0
0
0
0
0
0
0
0
0
0
0
0
0
0
0
0
0
0
0
0
0
0
0
0
0
0
0
0
0
0
0
0
0
0
0
0
0
0
0
0
0
0
0
0
0
0
0
0
0
0
0
0
0
0
0
0
0
0
0
0
0
0
0
0
0
0
0
0
0
0
0
0
0
0
0
0
0
0
0
0
0
0
0
0
0
0
0
0
0
0
0
0
0
0
0
0
0
0
0
0
0
0
0
0
0
0
0
0
0
0
0
0
0
0
0
0
0
0
0
0
0
0
0
0
0
0
0
0
0
0
0
0
0
0
0
0
0
0
0
0
0
0
0
0
0
0
0
0
0
0
0
0
0
0
0
0
0
0
0
0
0
0
0
0
0
0
0
0
0
0
0
0
0
0
0
0
0
0
0
0
0
0
0
0
0
0
0
0
0
0
0
0
0
0
0
0
0
0
0
0
0
0
0
0
0
0
0
0
0
0
0
0
0
0
0
0
0
0
0
0
0
0
0
0
0
0
0
0
0
0
0
0
0
0
0
0
0
0
0
0
0
0
0
0
0
0
0
0
0
0
0
0
0
0
0
0
0
0
0
0
0
0
0
0
0
0
0
0
0
0
0
0
0
0
0
0
0
0
0
0
0
0
0
0
0
0
0
0
0
0
0
0
0
0
0
0
0
0
0
0
0
0
0
0
0
0
0
0
0
0
0
0
0
0
0
0
0
0
0
0
0
0
0
0
0
0
0
0
0
0
0
0
0
0
0
0
0
0
0
0
0
0
0
0
0
0
0
0
0
0
0
0
0
0
0
0
0
0
0
0
0
0
0
0
0
0
0
0
0
0
0
0
0
0
0
0
0
0
0
0
0
0
0
0
0
0
0
0
0
0
0
0
0
0
0
0
0
0
0
0
0
0
0
0
0
0
0
0
0
0
0
0
0
0
0
0
0
0
0
0
0
0
0
0
0
0
0
0
0
0
0
0
0
0
0
0
0
0
0
0
0
0
0
0
0
0
0
0
0
0
0
0
0
0
0
0
0
0
0
0
0
0
0
0
0
0
0
0
0
0
0
0
0
0
0
0
0
0
0
0
0
0
0
0
0
0
0
0
0
0
0
0
0
0
0
0
0
0
0
0
0
0
0
0
0
0
0
0
0
0
0
0
0
0
0
0
0
0
0
0
0
0
0
0
0
0
0
0
0
0
0
0
0
0
0
0
0
0
0
0
0
0
0
0
0
0
0
0
0
0
0
0
0
0
0
0
0
0
0
0
0
0
0
0
0
0
0
0
0
0
0
0
0
0
0
0
0
0
0
0
0
0
0
0
0
0
0
0
0
0
0
0
0
0
0
0
0
0
0
0
0
0
0
0
0
0
0
0
0
0
0
0
0
0
0
0
0
0
0
0
0
0
0
0
0
0
0
0
0
0
0
0
0
0
0
0
0
0
0
0
0
0
0
0
0
0
0
0
0
0
0
0
0
0
0
0
0
0
0
0
0
0
0
0
0
0
0
0
0
0
0
0
0
0
0
0
0
0
0
0
0
0
0
0
0
0
0
0
0
0
0
0
0
0
0
0
0
0
0
0
0
0
0
0
0
0
0
0
0
0
0
0
0
0
0
0
0
0
0
0
0
0
0
0
0
0
0
0
0
0
0
0
0
0
0
0
0
0
0
0
0
0
0
0
0
0
0
0
0
0
0
0
0
0
0
0
0
0
0
0
0
0
0
0
0
0
0
0
0
0
0
0
0
0
0
0
0
0
0
0
0
0
0
0
0
0
0
0
0
0
0
0
0
0
0
0
0
0
0
0
0
0
0
0
0
0
0
0
0
0
0
0
0
0
0
0
0
0
0
0
0
0
0
0
0
0
0
0
0
0
0
0
0
0
0
0
0
0
0
0
0
0
0
0
0
0
0
0
0
0
0
0
0
0
0
0
0
0
0
0
0
0
0
0
0
0
0
0
0
0
0
0
0
0
0
0
0
0
0
0
0
0
0
0
0
0
0
0
0
0
0
0
0
0
0
0
0
0
0
0
0
0
0
0
0
0
0
0
0
0
1
1
1
1
1
1
1
1
1
1
1
1
1
1
1
1
1
1
1
1
1
1
1
1
1
1
1
1
1
1
2
2
2
2
2
2
2
2
2
2
2
2
2
2
2
2
2
2
2
2
2
2
2
2
2
2
2
2
2
2
3
3
3
3
3
3
3
3
3
3
3
3
3
3
3
3
3
3
3
3
3
3
3
3
3
3
3
3
3
3
4
4
4
4
4
4
4
4
4
4
4
4
4
4
4
4
4
4
4
4
4
4
4
4
4
4
4
4
4
4

LOOKUP_TABLE FreeFempp_table 5
1.00000000 0.00000000 0.00000000 1.00000000
1.00000000 1.00000000 0.00000000 1.00000000
1.00000000 0.00000000 1.00000000 1.00000000
0.00000000 1.00000000 0.00000000 1.00000000
0.00000000 1.00000000 1.00000000 1.00000000

POINT_DATA 961
FIELD FieldData 1
Density 1 961 float
1.92308322e-01 1.73107743e-01 2.17628166e-01 2.29819000e-01 2.19817042e-01 1.99630141e-01 1.69569880e-01 1.25108823e-01 7.55506530e-02 5.65174893e-02 8.34933147e-02 1.92510024e-01 3.14338714e-01 3.65497559e-01 3.93134803e-01 4.27076072e-01 4.96529102e-01 6.29821897e-01 7.68084228e-01 8.14311445e-01 7.82581568e-01 7.61118233e-01 8.12609315e-01 8.17366838e-01 7.84656346e-01 7.80279160e-01 7.63085425e-01 7.00855017e-01 6.99082732e-01 6.98413491e-01 6.23829961e-01 1.07330235e-03 1.15811191e-01 1.66267723e-01 1.74670622e-01 1.63782284e-01 1.47373304e-01 1.25914827e-01 9.67706218e-02 6.24319166e-02 4.05799039e-02 4.64793891e-02 9.79761258e-02 2.15317905e-01 2.69241393e-01 2.96921372e-01 3.27046365e-01 3.94279778e-01 5.93327761e-01 8.48453462e-01 9.04607117e-01 8.44117880e-01 6.96624637e-01 6.80450499e-01 7.57101059e-01 7.55010426e-01 7.52501190e-01 7.59535968e-01 7.35464036e-01 7.60138392e-01 7.34800994e-01 6.84489965e-01 7.34292611e-04 6.11578987e-04 9.76118085e-04 9.62002901e-04 9.79783945e-04 9.89810098e-04 9.96987801e-04 1.00098061e-03 9.91016277e-04 1.04955863e-03 9.48700239e-04 6.79220334e-02 3.21785510e-01 3.52157742e-01 3.64282727e-01 3.79762977e-01 3.94441515e-01 5.20125687e-01 7.75205374e-01 6.13862872e-01 1.21872962e-01 7.14296997e-02 4.51779217e-02 3.45306657e-02 3.14722694e-02 4.24028113e-02 8.72167423e-02 3.45776170e-01 5.52769184e-01 5.93813956e-01 6.09650612e-01 5.11561453e-01 9.54566291e-04 1.02981669e-03 9.48047382e-04 9.69236367e-04 9.82336933e-04 9.92289628e-04 9.99129144e-04 1.00157282e-03 1.01979764e-03 6.36901474e-04 6.44145068e-04 1.05948816e-03 1.18329411e-03 1.52522675e-03 3.50883722e-01 4.41732883e-01 4.32500064e-01 6.88337803e-01 2.59410851e-02 2.12312452e-02 1.89420935e-02 1.20549900e-02 1.00327097e-02 7.23854778e-03 6.43909397e-03 7.02932198e-03 1.54070379e-02 2.23507017e-01 4.55399692e-01 5.37101924e-01 4.98659819e-01 3.82380277e-01 7.35602230e-02 7.99039230e-02 3.73625159e-01 4.00986761e-01 4.00848508e-01 4.05180454e-01 4.13813859e-01 4.14363682e-01 2.49718204e-01 9.85806109e-04 1.10481051e-03 9.95204318e-04 8.05038027e-04 8.33774451e-04 1.16652122e-03 1.20539991e-02 3.57967049e-01 7.18300641e-01 1.01096462e-02 1.87512618e-02 1.32099465e-02 1.15456302e-02 9.22322180e-03 6.81676669e-03 4.48997831e-03 3.93199129e-03 9.99187119e-03 2.59340733e-01 4.96023744e-01 4.56589550e-01 3.34855884e-01 7.67862424e-02 5.76509051e-02 2.84912020e-01 3.78045201e-01 3.91516030e-01 3.96400869e-01 4.02006418e-01 4.03424770e-01 3.88892353e-01 3.85246843e-01 4.17334914e-01 4.22799498e-01 7.13910582e-03 1.16611249e-03 8.14493163e-04 8.63081776e-04 1.18550844e-03 7.07141399e-01 9.62232292e-01 7.06221238e-02 4.59044501e-02 3.48642766e-02 2.99351625e-02 2.64663044e-02 1.58197079e-02 3.78750847e-03 2.72950134e-03 1.59923341e-02 4.62537140e-01 4.26997870e-01 2.78560132e-01 1.20820157e-01 6.69719130e-02 1.81432888e-01 3.48905772e-01 3.96631956e-01 4.14275825e-01 4.24482465e-01 4.31098491e-01 4.30521935e-01 4.23987865e-01 4.29956198e-01 4.38461781e-01 4.37004745e-01 4.45376754e-01 3.96719694e-01 1.49727997e-03 8.68695555e-04 8.38033913e-04 9.86258760e-02 9.82224047e-01 2.96480626e-01 1.20674767e-01 1.44302920e-01 1.25155494e-01 1.20777555e-01 3.21483016e-02 2.35583447e-03 3.50738503e-03 4.61851925e-01 4.63855773e-01 3.01595211e-01 2.21783191e-01 1.33930102e-01 2.05857813e-01 3.63046527e-01 4.26987290e-01 4.54792380e-01 4.70045894e-01 4.78916436e-01 4.81905937e-01 4.79800463e-01 4.77491915e-01 4.76701736e-01 4.72593069e-01 4.68925178e-01 4.71636921e-01 4.71572399e-01 3.90153438e-01 9.43261839e-04 1.05271849e-03 9.17033013e-03 9.73763645e-01 7.05456614e-01 2.90996045e-01 2.57741243e-01 1.94286451e-01 9.30454358e-02 2.48832791e-03 2.92584486e-03 4.88945156e-01 5.97298920e-01 4.96481121e-01 4.46745843e-01 4.03705388e-01 4.19286400e-01 4.88813579e-01 5.22697151e-01 5.37995696e-01 5.45611203e-01 5.48028111e-01 5.46096921e-01 5.40814757e-01 5.34270704e-01 5.27502894e-01 5.19799590e-01 5.12021363e-01 5.05527437e-01 4.98881936e-01 4.91889298e-01 4.80568826e-01 1.23570219e-03 1.43028086e-03 4.41382173e-03 9.56600070e-01 8.63804340e-01 5.86659133e-01 3.34636629e-01 1.57319352e-01 2.23950366e-03 2.43601645e-03 5.04909873e-01 7.36512601e-01 7.72232234e-01 7.41893172e-01 7.15519011e-01 6.92506373e-01 6.75349474e-01 6.61205411e-01 6.49356127e-01 6.38857126e-01 6.28435850e-01 6.17496252e-01 6.06173813e-01 5.94944537e-01 5.83873808e-01 5.72820067e-01 5.62098444e-01 5.51733673e-01 5.41387856e-01 5.31443417e-01 5.19720435e-01 5.06364465e-01 2.05132412e-03 2.16872012e-03 3.55103170e-03 9.06066597e-01 8.75983298e-01 7.74926245e-01 3.17970276e-01 2.46179616e-03 2.15926487e-03 4.43803370e-01 7.57090449e-01 8.59191120e-01 8.37041140e-01 8.25462401e-01 8.06750536e-01 7.82793462e-01 7.57000923e-01 7.33212709e-01 7.12233961e-01 6.93612635e-01 6.76779687e-01 6.61477923e-01 6.47521794e-01 6.34595811e-01 6.22478485e-01 6.11065149e-01 6.00040078e-01 5.89105010e-01 5.78568161e-01 5.68774700e-01 5.59673607e-01 5.39606452e-01 4.42866888e-03 2.88348156e-03 3.52214719e-03 6.28982723e-01 3.50921392e-01 9.60564256e-01 3.18763452e-03 1.68195693e-03 1.21542737e-02 6.25787258e-01 7.49703228e-01 7.50075221e-01 7.74695814e-01 7.87410140e-01 7.86481798e-01 7.74681985e-01 7.57761180e-01 7.39660144e-01 7.22158432e-01 7.05917656e-01 6.91213071e-01 6.78064108e-01 6.66306078e-01 6.55738652e-01 6.46067679e-01 6.36875451e-01 6.27881408e-01 6.19124830e-01 6.11555636e-01 6.08144045e-01 6.12444103e-01 5.89588046e-01 9.38733108e-03 3.36029939e-03 3.66184744e-03 1.95637420e-02 3.63396779e-02 7.34809935e-01 1.72241090e-03 2.44102976e-03 4.15851802e-01 3.65136296e-01 4.22960162e-01 5.29181659e-01 6.32378459e-01 6.95299864e-01 7.20482469e-01 7.25215435e-01 7.20320225e-01 7.11223781e-01 7.00650811e-01 6.90085232e-01 6.80311680e-01 6.71680987e-01 6.64262593e-01 6.57833517e-01 6.51955247e-01 6.46204650e-01 6.40337229e-01 6.34744644e-01 6.32592022e-01 6.41760945e-01 6.68303072e-01 6.62041485e-01 3.01060509e-02 4.89820633e-03 6.67946413e-03 2.01332476e-02 9.74429786e-01 2.79125432e-03 2.63564102e-03 2.71315157e-01 1.42284006e-01 1.65479705e-01 2.46187270e-01 3.89258236e-01 5.30310273e-01 6.13211334e-01 6.52402401e-01 6.68105364e-01 6.71798229e-01 6.69436634e-01 6.64319158e-01 6.58403039e-01 6.52870119e-01 6.48362577e-01 6.45028770e-01 6.42614245e-01 6.40598893e-01 6.38266265e-01 6.34822965e-01 6.30436003e-01 6.30254209e-01 6.42165482e-01 6.95360661e-01 7.78154850e-01 2.51178414e-01 1.95480492e-02 2.39687748e-02 9.80967045e-01 3.02694645e-03 2.72386638e-03 1.73409358e-01 7.55509287e-02 8.21197703e-02 1.25996292e-01 2.32999071e-01 3.84919137e-01 5.02762973e-01 5.71510971e-01 6.07163012e-01 6.23575330e-01 6.29091561e-01 6.28582895e-01 6.25115454e-01 6.20785773e-01 6.17045283e-01 6.14763916e-01 6.14273071e-01 6.15371048e-01 6.17279887e-01 6.18436217e-01 6.16170347e-01 6.07230186e-01 5.85948765e-01 5.62185049e-01 5.84042311e-01 7.68317997e-01 7.63850361e-02 4.00311835e-02 9.87982690e-01 3.60251428e-03 3.12947109e-03 9.41143110e-02 4.45282906e-02 4.92378138e-02 8.46950263e-02 1.77601382e-01 3.14409077e-01 4.33168679e-01 5.12211621e-01 5.59052825e-01 5.84319532e-01 5.95739245e-01 5.98385036e-01 5.95741332e-01 5.90469539e-01 5.84773779e-01 5.80474019e-01 5.78911781e-01 5.80784380e-01 5.85947931e-01 5.93182743e-01 5.99777102e-01 6.00963354e-01 5.84682345e-01 5.21350443e-01 3.46236229e-01 3.14341009e-01 1.94368094e-01 5.07046506e-02 9.82630372e-01 3.25244665e-03 3.30966851e-03 4.49385829e-02 2.83608939e-02 3.39237489e-02 7.39545524e-02 1.77017808e-01 3.05704653e-01 4.09686446e-01 4.83343512e-01 5.31846344e-01 5.61239541e-01 5.76562285e-01 5.81680954e-01 5.79589128e-01 5.72840691e-01 5.63914955e-01 5.55363178e-01 5.49663186e-01 5.48772693e-01 5.53552210e-01 5.63336134e-01 5.76048076e-01 5.89383125e-01 6.00936472e-01 6.03786230e-01 4.91761386e-01 2.82140464e-01 2.50148177e-01 2.45553911e-01 9.70480800e-01 2.90818070e-03 2.81674298e-03 2.15709358e-02 1.97857898e-02 2.76061073e-02 8.48920122e-02 2.17630416e-01 3.35080028e-01 4.17157441e-01 4.78271693e-01 5.22829175e-01 5.52899957e-01 5.70627570e-01 5.78184426e-01 5.77544749e-01 5.70563316e-01 5.59292316e-01 5.46313167e-01 5.34782946e-01 5.27924478e-01 5.27870655e-01 5.34542859e-01 5.45700848e-01 5.59383452e-01 5.77277184e-01 6.08422160e-01 6.40805900e-01 4.77368683e-01 4.06709135e-01 8.09566915e-01 9.50368822e-01 3.38817295e-03 3.03222705e-03 1.15760406e-02 1.38255600e-02 2.86762007e-02 1.26809612e-01 2.89093882e-01 3.78238320e-01 4.37866569e-01 4.86374229e-01 5.25469601e-01 5.54504454e-01 5.73617756e-01 5.83626688e-01 5.85523367e-01 5.80276608e-01 5.69011331e-01 5.53459764e-01 5.36397994e-01 5.21539509e-01 5.12346983e-01 5.10389924e-01 5.14896572e-01 5.25385380e-01 5.42654812e-01 5.72170377e-01 6.30336225e-01 6.82711244e-01 6.75750554e-01 9.25277174e-01 9.02606785e-01 4.03256714e-03 3.60282371e-03 7.51226069e-03 9.32921376e-03 4.07496765e-02 2.20113754e-01 3.60980839e-01 4.17786002e-01 4.60478663e-01 4.99550611e-01 5.33753037e-01 5.61147809e-01 5.80921948e-01 5.93140900e-01 5.98174989e-01 5.96315622e-01 5.87720513e-01 5.72735727e-01 5.52501738e-01 5.29374480e-01 5.06613016e-01 4.88620728e-01 4.81478363e-01 4.93851960e-01 5.26889563e-01 5.74577689e-01 6.50911391e-01 7.55272210e-01 8.59026253e-01 9.23719704e-01 1.52899683e-01 4.69154539e-03 4.13932791e-03 5.82440896e-03 6.79276837e-03 8.15738961e-02 3.36208463e-01 4.14068073e-01 4.48556751e-01 4.80617315e-01 5.13195992e-01 5.43386221e-01 5.68924606e-01 5.88749647e-01 6.02653146e-01 6.10763907e-01 6.13076150e-01 6.09115183e-01 5.97874582e-01 5.78117788e-01 5.48799157e-01 5.10011196e-01 4.68668282e-01 4.47379678e-01 4.72799033e-01 5.45021534e-01 6.37951791e-01 7.51865327e-01 8.36508572e-01 8.85174453e-01 8.27739000e-01 2.16476638e-02 5.72593277e-03 4.85659903e-03 5.04262047e-03 5.58882533e-03 2.02966899e-01 4.19782996e-01 4.50196296e-01 4.71535474e-01 4.97105300e-01 5.24861872e-01 5.51526546e-01 5.75004578e-01 5.94307303e-01 6.09188497e-01 6.19767547e-01 6.26080096e-01 6.27514780e-01 6.22235060e-01 6.06802106e-01 5.76268852e-01 5.27353525e-01 4.72999036e-01 4.51028585e-01 5.07225990e-01 6.33745909e-01 7.49428689e-01 8.36897612e-01 8.59041691e-01 8.46640348e-01 1.48741856e-01 9.61520895e-03 7.18214875e-03 7.04791816e-03 4.53360984e-03 4.90759593e-03 3.50827068e-01 4.61113244e-01 4.74438816e-01 4.88852382e-01 5.09713054e-01 5.33145070e-01 5.56275606e-01 5.77385545e-01 5.95599890e-01 6.10625505e-01 6.22565925e-01 6.31619096e-01 6.37460887e-01 6.38292193e-01 6.29913807e-01 6.06388807e-01 5.68630695e-01 5.42211235e-01 5.74735284e-01 6.99730337e-01 7.89216518e-01 8.58544767e-01 8.79714191e-01 8.34039748e-01 5.12883902e-01 1.72803942e-02 6.93785772e-03 7.11059151e-03 1.49050057e-02 4.13557887e-03 4.42792010e-03 4.27959532e-01 4.80744690e-01 4.90141779e-01 5.01388669e-01 5.17913759e-01 5.36885858e-01 5.56260347e-01 5.74698687e-01 5.91345429e-01 6.05741203e-01 6.17862999e-01 6.28158271e-01 6.37365520e-01 6.45980239e-01 6.53809428e-01 6.62201703e-01 6.84023380e-01 7.45565355e-01 8.17515075e-01 8.38418901e-01 8.32044363e-01 8.55125964e-01 6.69198334e-01 1.33136632e-02 7.82303698e-03 7.19594816e-03 8.54432490e-03 1.01305572e-02 9.08384621e-02 3.81172542e-03 4.05163597e-03 4.59322035e-01 4.94251341e-01 5.00232399e-01 5.08413076e-01 5.20445168e-01 5.34926414e-01 5.50543070e-01 5.66213071e-01 5.81039131e-01 5.94360411e-01 6.05966151e-01 6.16546214e-01 6.28328741e-01 6.45523071e-01 6.73880935e-01 7.19175935e-01 7.83759117e-01 8.53658617e-01 8.79826486e-01 2.99102306e-01 3.42781693e-02 2.06177961e-02 1.45998336e-02 1.08773634e-02 8.66848789e-03 7.41549395e-03 1.01870969e-02 3.62090692e-02 4.91398156e-01 3.54006118e-03 3.74433515e-03 4.79376674e-01 5.06087005e-01 5.05894363e-01 5.09159684e-01 5.16478837e-01 5.26781499e-01 5.38948596e-01 5.51962972e-01 5.64930499e-01 5.77118337e-01 5.88149965e-01 5.98615468e-01 6.11281991e-01 6.32369816e-01 6.70617044e-01 7.30748773e-01 8.03139210e-01 8.64449978e-01 8.92185330e-01 8.33513439e-01 7.18809962e-02 3.21875960e-02 1.92289278e-02 1.33349691e-02 1.82786994e-02 7.99302280e-01 8.72833133e-01 9.04842913e-01 7.72135973e-01 3.30136018e-03 3.48549779e-03 4.98330861e-01 5.14741361e-01 5.05976915e-01 5.03452122e-01 5.06425083e-01 5.13194323e-01 5.22344053e-01 5.32828212e-01 5.43915570e-01 5.55074155e-01 5.65929294e-01 5.76592386e-01 5.88723421e-01 6.07152164e-01 6.39923394e-01 6.92673087e-01 7.58653402e-01 8.19870174e-01 8.63415003e-01 8.79429519e-01 8.69881868e-01 9.13318932e-01 9.50367987e-01 9.57461476e-01 9.62574184e-01 9.53288913e-01 9.31860805e-01 9.28756595e-01 8.55951905e-01 3.06267291e-03 3.25829489e-03 5.18990874e-01 5.16977966e-01 4.98840064e-01 4.91804391e-01 4.91901338e-01 4.96102691e-01 5.02617836e-01 5.10524452e-01 5.19506395e-01 5.29554129e-01 5.40635347e-01 5.52511275e-01 5.65060258e-01 5.79451680e-01 5.99535346e-01 6.30665302e-01 6.74140334e-01 7.24104226e-01 7.73972094e-01 8.17289650e-01 8.50809097e-01 8.80494416e-01 8.95784974e-01 8.99493992e-01 8.97692800e-01 8.90123427e-01 8.68778169e-01 8.65545452e-01 7.93997228e-01 2.71406514e-03 3.04600364e-03 5.41433096e-01 5.08707225e-01 4.84737575e-01 4.76679116e-01 4.75940645e-01 4.78422076e-01 4.82409239e-01 4.87423688e-01 4.93761927e-01 5.02124548e-01 5.13165891e-01 5.26960313e-01 5.42567790e-01 5.58164716e-01 5.72249651e-01 5.85438371e-01 6.00507915e-01 6.19268537e-01 6.39347076e-01 6.54613793e-01 6.62851095e-01 6.66653752e-01 6.57384455e-01 6.50061071e-01 6.48612499e-01 6.53947234e-01 6.70813024e-01 6.86289907e-01 6.68115973e-01 2.08923128e-03 2.60329177e-03 5.81596494e-01 4.92402017e-01 4.69059080e-01 4.62820321e-01 4.61481214e-01 4.61579323e-01 4.62226599e-01 4.63670939e-01 4.66872215e-01 4.73227590e-01 4.84201610e-01 5.00729561e-01 5.22364736e-01 5.46397865e-01 5.67554772e-01 5.78898370e-01 5.73638618e-01 5.46683371e-01 4.96934980e-01 4.38948154e-01 4.15226281e-01 4.41846788e-01 4.84985203e-01 5.15867174e-01 5.29704571e-01 5.36462426e-01 5.42753637e-01 5.48448622e-01 5.81860244e-01 3.07934731e-03 2.31516082e-03 7.04651892e-01 5.36289930e-01 5.23022056e-01 5.18987298e-01 5.17631948e-01 5.16843021e-01 5.16051829e-01 5.15523970e-01 5.15976727e-01 5.18384039e-01 5.23785353e-01 5.32964408e-01 5.45962811e-01 5.61512589e-01 5.76548278e-01 5.85932136e-01 5.82508206e-01 5.58039308e-01 5.07574618e-01 4.43119437e-01 4.06353891e-01 4.26481098e-01 4.80772078e-01 5.24193168e-01 5.45784891e-01 5.50415039e-01 5.47135353e-01 5.41553497e-01 5.56988537e-01 
