# vtk DataFile Version 2.0
results_case1_non_linear/9_density.vtk, Created by Freefem++ 
ASCII
DATASET UNSTRUCTURED_GRID
POINTS 961 float
0 0 0
0.033333333 0 0
0.066666667 0 0
0.1 0 0
0.13333333 0 0
0.16666667 0 0
0.2 0 0
0.23333333 0 0
0.26666667 0 0
0.3 0 0
0.33333333 0 0
0.36666667 0 0
0.4 0 0
0.43333333 0 0
0.46666667 0 0
0.5 0 0
0.53333333 0 0
0.56666667 0 0
0.6 0 0
0.63333333 0 0
0.66666667 0 0
0.7 0 0
0.73333333 0 0
0.76666667 0 0
0.8 0 0
0.83333333 0 0
0.86666667 0 0
0.9 0 0
0.93333333 0 0
0.96666667 0 0
1 0 0
0 0.033333333 0
0.033333333 0.033333333 0
0.066666667 0.033333333 0
0.1 0.033333333 0
0.13333333 0.033333333 0
0.16666667 0.033333333 0
0.2 0.033333333 0
0.23333333 0.033333333 0
0.26666667 0.033333333 0
0.3 0.033333333 0
0.33333333 0.033333333 0
0.36666667 0.033333333 0
0.4 0.033333333 0
0.43333333 0.033333333 0
0.46666667 0.033333333 0
0.5 0.033333333 0
0.53333333 0.033333333 0
0.56666667 0.033333333 0
0.6 0.033333333 0
0.63333333 0.033333333 0
0.66666667 0.033333333 0
0.7 0.033333333 0
0.73333333 0.033333333 0
0.76666667 0.033333333 0
0.8 0.033333333 0
0.83333333 0.033333333 0
0.86666667 0.033333333 0
0.9 0.033333333 0
0.93333333 0.033333333 0
0.96666667 0.033333333 0
1 0.033333333 0
0 0.066666667 0
0.033333333 0.066666667 0
0.066666667 0.066666667 0
0.1 0.066666667 0
0.13333333 0.066666667 0
0.16666667 0.066666667 0
0.2 0.066666667 0
0.23333333 0.066666667 0
0.26666667 0.066666667 0
0.3 0.066666667 0
0.33333333 0.066666667 0
0.36666667 0.066666667 0
0.4 0.066666667 0
0.43333333 0.066666667 0
0.46666667 0.066666667 0
0.5 0.066666667 0
0.53333333 0.066666667 0
0.56666667 0.066666667 0
0.6 0.066666667 0
0.63333333 0.066666667 0
0.66666667 0.066666667 0
0.7 0.066666667 0
0.73333333 0.066666667 0
0.76666667 0.066666667 0
0.8 0.066666667 0
0.83333333 0.066666667 0
0.86666667 0.066666667 0
0.9 0.066666667 0
0.93333333 0.066666667 0
0.96666667 0.066666667 0
1 0.066666667 0
0 0.1 0
0.033333333 0.1 0
0.066666667 0.1 0
0.1 0.1 0
0.13333333 0.1 0
0.16666667 0.1 0
0.2 0.1 0
0.23333333 0.1 0
0.26666667 0.1 0
0.3 0.1 0
0.33333333 0.1 0
0.36666667 0.1 0
0.4 0.1 0
0.43333333 0.1 0
0.46666667 0.1 0
0.5 0.1 0
0.53333333 0.1 0
0.56666667 0.1 0
0.6 0.1 0
0.63333333 0.1 0
0.66666667 0.1 0
0.7 0.1 0
0.73333333 0.1 0
0.76666667 0.1 0
0.8 0.1 0
0.83333333 0.1 0
0.86666667 0.1 0
0.9 0.1 0
0.93333333 0.1 0
0.96666667 0.1 0
1 0.1 0
0 0.13333333 0
0.033333333 0.13333333 0
0.066666667 0.13333333 0
0.1 0.13333333 0
0.13333333 0.13333333 0
0.16666667 0.13333333 0
0.2 0.13333333 0
0.23333333 0.13333333 0
0.26666667 0.13333333 0
0.3 0.13333333 0
0.33333333 0.13333333 0
0.36666667 0.13333333 0
0.4 0.13333333 0
0.43333333 0.13333333 0
0.46666667 0.13333333 0
0.5 0.13333333 0
0.53333333 0.13333333 0
0.56666667 0.13333333 0
0.6 0.13333333 0
0.63333333 0.13333333 0
0.66666667 0.13333333 0
0.7 0.13333333 0
0.73333333 0.13333333 0
0.76666667 0.13333333 0
0.8 0.13333333 0
0.83333333 0.13333333 0
0.86666667 0.13333333 0
0.9 0.13333333 0
0.93333333 0.13333333 0
0.96666667 0.13333333 0
1 0.13333333 0
0 0.16666667 0
0.033333333 0.16666667 0
0.066666667 0.16666667 0
0.1 0.16666667 0
0.13333333 0.16666667 0
0.16666667 0.16666667 0
0.2 0.16666667 0
0.23333333 0.16666667 0
0.26666667 0.16666667 0
0.3 0.16666667 0
0.33333333 0.16666667 0
0.36666667 0.16666667 0
0.4 0.16666667 0
0.43333333 0.16666667 0
0.46666667 0.16666667 0
0.5 0.16666667 0
0.53333333 0.16666667 0
0.56666667 0.16666667 0
0.6 0.16666667 0
0.63333333 0.16666667 0
0.66666667 0.16666667 0
0.7 0.16666667 0
0.73333333 0.16666667 0
0.76666667 0.16666667 0
0.8 0.16666667 0
0.83333333 0.16666667 0
0.86666667 0.16666667 0
0.9 0.16666667 0
0.93333333 0.16666667 0
0.96666667 0.16666667 0
1 0.16666667 0
0 0.2 0
0.033333333 0.2 0
0.066666667 0.2 0
0.1 0.2 0
0.13333333 0.2 0
0.16666667 0.2 0
0.2 0.2 0
0.23333333 0.2 0
0.26666667 0.2 0
0.3 0.2 0
0.33333333 0.2 0
0.36666667 0.2 0
0.4 0.2 0
0.43333333 0.2 0
0.46666667 0.2 0
0.5 0.2 0
0.53333333 0.2 0
0.56666667 0.2 0
0.6 0.2 0
0.63333333 0.2 0
0.66666667 0.2 0
0.7 0.2 0
0.73333333 0.2 0
0.76666667 0.2 0
0.8 0.2 0
0.83333333 0.2 0
0.86666667 0.2 0
0.9 0.2 0
0.93333333 0.2 0
0.96666667 0.2 0
1 0.2 0
0 0.23333333 0
0.033333333 0.23333333 0
0.066666667 0.23333333 0
0.1 0.23333333 0
0.13333333 0.23333333 0
0.16666667 0.23333333 0
0.2 0.23333333 0
0.23333333 0.23333333 0
0.26666667 0.23333333 0
0.3 0.23333333 0
0.33333333 0.23333333 0
0.36666667 0.23333333 0
0.4 0.23333333 0
0.43333333 0.23333333 0
0.46666667 0.23333333 0
0.5 0.23333333 0
0.53333333 0.23333333 0
0.56666667 0.23333333 0
0.6 0.23333333 0
0.63333333 0.23333333 0
0.66666667 0.23333333 0
0.7 0.23333333 0
0.73333333 0.23333333 0
0.76666667 0.23333333 0
0.8 0.23333333 0
0.83333333 0.23333333 0
0.86666667 0.23333333 0
0.9 0.23333333 0
0.93333333 0.23333333 0
0.96666667 0.23333333 0
1 0.23333333 0
0 0.26666667 0
0.033333333 0.26666667 0
0.066666667 0.26666667 0
0.1 0.26666667 0
0.13333333 0.26666667 0
0.16666667 0.26666667 0
0.2 0.26666667 0
0.23333333 0.26666667 0
0.26666667 0.26666667 0
0.3 0.26666667 0
0.33333333 0.26666667 0
0.36666667 0.26666667 0
0.4 0.26666667 0
0.43333333 0.26666667 0
0.46666667 0.26666667 0
0.5 0.26666667 0
0.53333333 0.26666667 0
0.56666667 0.26666667 0
0.6 0.26666667 0
0.63333333 0.26666667 0
0.66666667 0.26666667 0
0.7 0.26666667 0
0.73333333 0.26666667 0
0.76666667 0.26666667 0
0.8 0.26666667 0
0.83333333 0.26666667 0
0.86666667 0.26666667 0
0.9 0.26666667 0
0.93333333 0.26666667 0
0.96666667 0.26666667 0
1 0.26666667 0
0 0.3 0
0.033333333 0.3 0
0.066666667 0.3 0
0.1 0.3 0
0.13333333 0.3 0
0.16666667 0.3 0
0.2 0.3 0
0.23333333 0.3 0
0.26666667 0.3 0
0.3 0.3 0
0.33333333 0.3 0
0.36666667 0.3 0
0.4 0.3 0
0.43333333 0.3 0
0.46666667 0.3 0
0.5 0.3 0
0.53333333 0.3 0
0.56666667 0.3 0
0.6 0.3 0
0.63333333 0.3 0
0.66666667 0.3 0
0.7 0.3 0
0.73333333 0.3 0
0.76666667 0.3 0
0.8 0.3 0
0.83333333 0.3 0
0.86666667 0.3 0
0.9 0.3 0
0.93333333 0.3 0
0.96666667 0.3 0
1 0.3 0
0 0.33333333 0
0.033333333 0.33333333 0
0.066666667 0.33333333 0
0.1 0.33333333 0
0.13333333 0.33333333 0
0.16666667 0.33333333 0
0.2 0.33333333 0
0.23333333 0.33333333 0
0.26666667 0.33333333 0
0.3 0.33333333 0
0.33333333 0.33333333 0
0.36666667 0.33333333 0
0.4 0.33333333 0
0.43333333 0.33333333 0
0.46666667 0.33333333 0
0.5 0.33333333 0
0.53333333 0.33333333 0
0.56666667 0.33333333 0
0.6 0.33333333 0
0.63333333 0.33333333 0
0.66666667 0.33333333 0
0.7 0.33333333 0
0.73333333 0.33333333 0
0.76666667 0.33333333 0
0.8 0.33333333 0
0.83333333 0.33333333 0
0.86666667 0.33333333 0
0.9 0.33333333 0
0.93333333 0.33333333 0
0.96666667 0.33333333 0
1 0.33333333 0
0 0.36666667 0
0.033333333 0.36666667 0
0.066666667 0.36666667 0
0.1 0.36666667 0
0.13333333 0.36666667 0
0.16666667 0.36666667 0
0.2 0.36666667 0
0.23333333 0.36666667 0
0.26666667 0.36666667 0
0.3 0.36666667 0
0.33333333 0.36666667 0
0.36666667 0.36666667 0
0.4 0.36666667 0
0.43333333 0.36666667 0
0.46666667 0.36666667 0
0.5 0.36666667 0
0.53333333 0.36666667 0
0.56666667 0.36666667 0
0.6 0.36666667 0
0.63333333 0.36666667 0
0.66666667 0.36666667 0
0.7 0.36666667 0
0.73333333 0.36666667 0
0.76666667 0.36666667 0
0.8 0.36666667 0
0.83333333 0.36666667 0
0.86666667 0.36666667 0
0.9 0.36666667 0
0.93333333 0.36666667 0
0.96666667 0.36666667 0
1 0.36666667 0
0 0.4 0
0.033333333 0.4 0
0.066666667 0.4 0
0.1 0.4 0
0.13333333 0.4 0
0.16666667 0.4 0
0.2 0.4 0
0.23333333 0.4 0
0.26666667 0.4 0
0.3 0.4 0
0.33333333 0.4 0
0.36666667 0.4 0
0.4 0.4 0
0.43333333 0.4 0
0.46666667 0.4 0
0.5 0.4 0
0.53333333 0.4 0
0.56666667 0.4 0
0.6 0.4 0
0.63333333 0.4 0
0.66666667 0.4 0
0.7 0.4 0
0.73333333 0.4 0
0.76666667 0.4 0
0.8 0.4 0
0.83333333 0.4 0
0.86666667 0.4 0
0.9 0.4 0
0.93333333 0.4 0
0.96666667 0.4 0
1 0.4 0
0 0.43333333 0
0.033333333 0.43333333 0
0.066666667 0.43333333 0
0.1 0.43333333 0
0.13333333 0.43333333 0
0.16666667 0.43333333 0
0.2 0.43333333 0
0.23333333 0.43333333 0
0.26666667 0.43333333 0
0.3 0.43333333 0
0.33333333 0.43333333 0
0.36666667 0.43333333 0
0.4 0.43333333 0
0.43333333 0.43333333 0
0.46666667 0.43333333 0
0.5 0.43333333 0
0.53333333 0.43333333 0
0.56666667 0.43333333 0
0.6 0.43333333 0
0.63333333 0.43333333 0
0.66666667 0.43333333 0
0.7 0.43333333 0
0.73333333 0.43333333 0
0.76666667 0.43333333 0
0.8 0.43333333 0
0.83333333 0.43333333 0
0.86666667 0.43333333 0
0.9 0.43333333 0
0.93333333 0.43333333 0
0.96666667 0.43333333 0
1 0.43333333 0
0 0.46666667 0
0.033333333 0.46666667 0
0.066666667 0.46666667 0
0.1 0.46666667 0
0.13333333 0.46666667 0
0.16666667 0.46666667 0
0.2 0.46666667 0
0.23333333 0.46666667 0
0.26666667 0.46666667 0
0.3 0.46666667 0
0.33333333 0.46666667 0
0.36666667 0.46666667 0
0.4 0.46666667 0
0.43333333 0.46666667 0
0.46666667 0.46666667 0
0.5 0.46666667 0
0.53333333 0.46666667 0
0.56666667 0.46666667 0
0.6 0.46666667 0
0.63333333 0.46666667 0
0.66666667 0.46666667 0
0.7 0.46666667 0
0.73333333 0.46666667 0
0.76666667 0.46666667 0
0.8 0.46666667 0
0.83333333 0.46666667 0
0.86666667 0.46666667 0
0.9 0.46666667 0
0.93333333 0.46666667 0
0.96666667 0.46666667 0
1 0.46666667 0
0 0.5 0
0.033333333 0.5 0
0.066666667 0.5 0
0.1 0.5 0
0.13333333 0.5 0
0.16666667 0.5 0
0.2 0.5 0
0.23333333 0.5 0
0.26666667 0.5 0
0.3 0.5 0
0.33333333 0.5 0
0.36666667 0.5 0
0.4 0.5 0
0.43333333 0.5 0
0.46666667 0.5 0
0.5 0.5 0
0.53333333 0.5 0
0.56666667 0.5 0
0.6 0.5 0
0.63333333 0.5 0
0.66666667 0.5 0
0.7 0.5 0
0.73333333 0.5 0
0.76666667 0.5 0
0.8 0.5 0
0.83333333 0.5 0
0.86666667 0.5 0
0.9 0.5 0
0.93333333 0.5 0
0.96666667 0.5 0
1 0.5 0
0 0.53333333 0
0.033333333 0.53333333 0
0.066666667 0.53333333 0
0.1 0.53333333 0
0.13333333 0.53333333 0
0.16666667 0.53333333 0
0.2 0.53333333 0
0.23333333 0.53333333 0
0.26666667 0.53333333 0
0.3 0.53333333 0
0.33333333 0.53333333 0
0.36666667 0.53333333 0
0.4 0.53333333 0
0.43333333 0.53333333 0
0.46666667 0.53333333 0
0.5 0.53333333 0
0.53333333 0.53333333 0
0.56666667 0.53333333 0
0.6 0.53333333 0
0.63333333 0.53333333 0
0.66666667 0.53333333 0
0.7 0.53333333 0
0.73333333 0.53333333 0
0.76666667 0.53333333 0
[...]
CELL_DATA 1920
Scalars  Label int 1
LOOKUP_TABLE FreeFempp_table
0
0
0
0
0
0
0
0
0
0
0
0
0
0
0
0
0
0
0
0
0
0
0
0
0
0
0
0
0
0
0
0
0
0
0
0
0
0
0
0
0
0
0
0
0
0
0
0
0
0
0
0
0
0
0
0
0
0
0
0
0
0
0
0
0
0
0
0
0
0
0
0
0
0
0
0
0
0
0
0
0
0
0
0
0
0
0
0
0
0
0
0
0
0
0
0
0
0
0
0
0
0
0
0
0
0
0
0
0
0
0
0
0
0
0
0
0
0
0
0
0
0
0
0
0
0
0
0
0
0
0
0
0
0
0
0
0
0
0
0
0
0
0
0
0
0
0
0
0
0
0
0
0
0
0
0
0
0
0
0
0
0
0
0
0
0
0
0
0
0
0
0
0
0
0
0
0
0
0
0
0
0
0
0
0
0
0
0
0
0
0
0
0
0
0
0
0
0
0
0
0
0
0
0
0
0
0
0
0
0
0
0
0
0
0
0
0
0
0
0
0
0
0
0
0
0
0
0
0
0
0
0
0
0
0
0
0
0
0
0
0
0
0
0
0
0
0
0
0
0
0
0
0
0
0
0
0
0
0
0
0
0
0
0
0
0
0
0
0
0
0
0
0
0
0
0
0
0
0
0
0
0
0
0
0
0
0
0
0
0
0
0
0
0
0
0
0
0
0
0
0
0
0
0
0
0
0
0
0
0
0
0
0
0
0
0
0
0
0
0
0
0
0
0
0
0
0
0
0
0
0
0
0
0
0
0
0
0
0
0
0
0
0
0
0
0
0
0
0
0
0
0
0
0
0
0
0
0
0
0
0
0
0
0
0
0
0
0
0
0
0
0
0
0
0
0
0
0
0
0
0
0
0
0
0
0
0
0
0
0
0
0
0
0
0
0
0
0
0
0
0
0
0
0
0
0
0
0
0
0
0
0
0
0
0
0
0
0
0
0
0
0
0
0
0
0
0
0
0
0
0
0
0
0
0
0
0
0
0
0
0
0
0
0
0
0
0
0
0
0
0
0
0
0
0
0
0
0
0
0
0
0
0
0
0
0
0
0
0
0
0
0
0
0
0
0
0
0
0
0
0
0
0
0
0
0
0
0
0
0
0
0
0
0
0
0
0
0
0
0
0
0
0
0
0
0
0
0
0
0
0
0
0
0
0
0
0
0
0
0
0
0
0
0
0
0
0
0
0
0
0
0
0
0
0
0
0
0
0
0
0
0
0
0
0
0
0
0
0
0
0
0
0
0
0
0
0
0
0
0
0
0
0
0
0
0
0
0
0
0
0
0
0
0
0
0
0
0
0
0
0
0
0
0
0
0
0
0
0
0
0
0
0
0
0
0
0
0
0
0
0
0
0
0
0
0
0
0
0
0
0
0
0
0
0
0
0
0
0
0
0
0
0
0
0
0
0
0
0
0
0
0
0
0
0
0
0
0
0
0
0
0
0
0
0
0
0
0
0
0
0
0
0
0
0
0
0
0
0
0
0
0
0
0
0
0
0
0
0
0
0
0
0
0
0
0
0
0
0
0
0
0
0
0
0
0
0
0
0
0
0
0
0
0
0
0
0
0
0
0
0
0
0
0
0
0
0
0
0
0
0
0
0
0
0
0
0
0
0
0
0
0
0
0
0
0
0
0
0
0
0
0
0
0
0
0
0
0
0
0
0
0
0
0
0
0
0
0
0
0
0
0
0
0
0
0
0
0
0
0
0
0
0
0
0
0
0
0
0
0
0
0
0
0
0
0
0
0
0
0
0
0
0
0
0
0
0
0
0
0
0
0
0
0
0
0
0
0
0
0
0
0
0
0
0
0
0
0
0
0
0
0
0
0
0
0
0
0
0
0
0
0
0
0
0
0
0
0
0
0
0
0
0
0
0
0
0
0
0
0
0
0
0
0
0
0
0
0
0
0
0
0
0
0
0
0
0
0
0
0
0
0
0
0
0
0
0
0
0
0
0
0
0
0
0
0
0
0
0
0
0
0
0
0
0
0
0
0
0
0
0
0
0
0
0
0
0
0
0
0
0
0
0
0
0
0
0
0
0
0
0
0
0
0
0
0
0
0
0
0
0
0
0
0
0
0
0
0
0
0
0
0
0
0
0
0
0
0
0
0
0
0
0
0
0
0
0
0
0
0
0
0
0
0
0
0
0
0
0
0
0
0
0
0
0
0
0
0
0
0
0
0
0
0
0
0
0
0
0
0
0
0
0
0
0
0
0
0
0
0
0
0
0
0
0
0
0
0
0
0
0
0
0
0
0
0
0
0
0
0
0
0
0
0
0
0
0
0
0
0
0
0
0
0
0
0
0
0
0
0
0
0
0
0
0
0
0
0
0
0
0
0
0
0
0
0
0
0
0
0
0
0
0
0
0
0
0
0
0
0
0
0
0
0
0
0
0
0
0
0
0
0
0
0
0
0
0
0
0
0
0
0
0
0
0
0
0
0
0
0
0
0
0
0
0
0
0
0
0
0
0
0
0
0
0
0
0
0
0
0
0
0
0
0
0
0
0
0
0
0
0
0
0
0
0
0
0
0
0
0
0
0
0
0
0
0
0
0
0
0
0
0
0
0
0
0
0
0
0
0
0
0
0
0
0
0
0
0
0
0
0
0
0
0
0
0
0
0
0
0
0
0
0
0
0
0
0
0
0
0
0
0
0
0
0
0
0
0
0
0
0
0
0
0
0
0
0
0
0
0
0
0
0
0
0
0
0
0
0
0
0
0
0
0
0
0
0
0
0
0
0
0
0
0
0
0
0
0
0
0
0
0
0
0
0
0
0
0
0
0
0
0
0
0
0
0
0
0
0
0
0
0
0
0
0
0
0
0
0
0
0
0
0
0
0
0
0
0
0
0
0
0
0
0
0
0
0
0
0
0
0
0
0
0
0
0
0
0
0
0
0
0
0
0
0
0
0
0
0
0
0
0
0
0
0
0
0
0
0
0
0
0
0
0
0
0
0
0
0
0
0
0
0
0
0
0
0
0
0
0
0
0
0
0
0
0
0
0
0
0
0
0
0
0
0
0
0
0
0
0
0
0
0
0
0
0
0
0
0
0
0
0
0
0
0
0
0
0
0
0
0
0
0
0
0
0
0
0
0
0
0
0
0
0
0
0
0
0
0
0
0
0
0
0
0
0
0
0
0
0
0
0
0
0
0
0
0
0
0
0
0
0
0
0
0
0
0
0
0
0
0
0
0
0
0
0
0
0
0
0
0
0
0
0
0
0
0
0
0
0
0
0
0
0
0
0
0
0
0
0
0
0
0
0
0
0
0
0
0
0
0
0
0
0
0
0
0
0
0
0
0
0
0
0
0
0
0
0
0
0
0
0
0
0
0
0
0
0
0
0
0
0
0
0
0
0
0
0
0
0
0
0
0
0
0
0
0
0
0
0
0
0
0
0
0
0
0
0
0
0
0
0
0
0
0
0
0
0
0
0
0
0
0
0
0
0
0
0
0
0
0
0
0
0
0
0
0
0
0
0
0
0
0
0
0
0
0
0
0
0
0
0
0
0
0
0
0
0
0
0
0
0
0
0
0
0
0
0
0
0
0
0
0
0
0
0
0
0
0
0
0
0
0
0
0
0
0
0
0
0
0
0
0
0
0
0
0
0
0
0
0
0
0
0
0
0
0
0
0
0
0
0
0
0
0
0
0
0
0
0
0
0
0
0
0
0
0
0
0
0
0
0
0
0
0
0
0
0
0
0
0
0
0
0
0
0
0
0
0
0
0
0
0
0
0
0
0
0
0
0
0
0
0
0
0
0
0
0
0
0
0
0
0
0
0
0
0
0
0
0
0
0
0
0
0
0
0
0
0
0
0
0
0
0
0
0
0
0
0
0
0
0
0
0
0
0
0
0
0
0
0
0
0
0
0
0
0
0
0
0
0
0
0
0
0
0
0
0
0
0
0
0
0
0
0
0
0
0
0
0
0
0
0
0
0
0
0
0
0
0
0
0
0
0
0
0
0
0
0
0
0
0
0
0
0
0
0
0
0
0
0
0
0
0
0
0
0
0
0
0
0
0
0
0
0
0
0
0
0
0
1
1
1
1
1
1
1
1
1
1
1
1
1
1
1
1
1
1
1
1
1
1
1
1
1
1
1
1
1
1
2
2
2
2
2
2
2
2
2
2
2
2
2
2
2
2
2
2
2
2
2
2
2
2
2
2
2
2
2
2
3
3
3
3
3
3
3
3
3
3
3
3
3
3
3
3
3
3
3
3
3
3
3
3
3
3
3
3
3
3
4
4
4
4
4
4
4
4
4
4
4
4
4
4
4
4
4
4
4
4
4
4
4
4
4
4
4
4
4
4

LOOKUP_TABLE FreeFempp_table 5
1.00000000 0.00000000 0.00000000 1.00000000
1.00000000 1.00000000 0.00000000 1.00000000
1.00000000 0.00000000 1.00000000 1.00000000
0.00000000 1.00000000 0.00000000 1.00000000
0.00000000 1.00000000 1.00000000 1.00000000

POINT_DATA 961
FIELD FieldData 1
Density 1 961 float
8.75353664e-02 7.92963430e-02 8.09093863e-02 8.16558376e-02 8.23079795e-02 8.29878002e-02 8.37460831e-02 8.46250951e-02 8.56653228e-02 8.68924335e-02 8.82673562e-02 8.95016417e-02 8.99583846e-02 9.41747278e-02 1.28443688e-01 8.88909578e-01 8.32366526e-01 8.89002085e-01 8.76096010e-01 7.97310233e-01 7.75786042e-01 7.56077170e-01 7.36816347e-01 7.12487400e-01 6.77023351e-01 6.32276535e-01 5.55233121e-01 5.06442487e-01 4.77992743e-01 4.76702482e-01 2.87159681e-01 7.20165819e-02 5.00796363e-02 5.21557666e-02 5.33593707e-02 5.43573722e-02 5.53399622e-02 5.63828349e-02 5.75456209e-02 5.88845797e-02 6.04366697e-02 6.21853359e-02 6.39789253e-02 6.52963966e-02 6.83149919e-02 9.90096554e-02 9.03679132e-01 8.83708000e-01 1.18356027e-01 2.96259940e-01 8.46259058e-01 8.58625531e-01 8.64229679e-01 8.63523304e-01 8.60816002e-01 8.55332375e-01 8.47585201e-01 8.12097669e-01 7.53550291e-01 7.22758174e-01 7.15440452e-01 4.74541456e-01 6.90695867e-02 4.60850671e-02 4.73708138e-02 4.79842313e-02 4.88650836e-02 4.97621186e-02 5.06543405e-02 5.15618250e-02 5.24932928e-02 5.33972420e-02 5.40571138e-02 5.37756160e-02 5.04693687e-02 4.29272018e-02 6.15075640e-02 8.99317980e-01 8.94106627e-01 1.12839721e-01 1.01795040e-01 8.71545598e-02 8.00063089e-02 8.02699849e-02 7.91716278e-02 8.25505182e-02 9.22384262e-02 1.62923247e-01 3.99080098e-01 5.20236254e-01 5.17591357e-01 5.24781585e-01 3.91570538e-01 6.70493320e-02 4.46819291e-02 4.64918800e-02 4.71262448e-02 4.78037596e-02 4.83743846e-02 4.87902537e-02 4.90312763e-02 4.90573011e-02 4.87567447e-02 4.78657112e-02 4.57599089e-02 4.09382470e-02 3.16447653e-02 2.80835070e-02 6.59988523e-02 9.28968847e-01 1.15816675e-01 1.00558572e-01 7.42908716e-02 5.78625239e-02 5.39958216e-02 4.62818295e-02 4.03985754e-02 3.67259644e-02 4.32070866e-02 6.29022345e-02 8.10142905e-02 9.17033404e-02 9.93666425e-02 1.38434768e-01 6.45032004e-02 4.30862941e-02 4.59108613e-02 4.69475985e-02 4.75639440e-02 4.77538817e-02 4.75635827e-02 4.70033400e-02 4.60270531e-02 4.45188619e-02 4.22701798e-02 3.89040560e-02 3.36985998e-02 2.57992614e-02 1.80850886e-02 2.28282586e-02 7.13290125e-02 9.44154680e-01 1.20131619e-01 1.03465527e-01 7.96136260e-02 6.44171312e-02 4.73818630e-02 3.20032164e-02 2.30883006e-02 2.20706910e-02 2.96898596e-02 4.41853181e-02 5.96980751e-02 7.02466071e-02 9.39735323e-02 6.12340719e-02 4.12056074e-02 4.56827581e-02 4.73309644e-02 4.78704274e-02 4.76072505e-02 4.67707142e-02 4.54453342e-02 4.36028764e-02 4.11288887e-02 3.78393196e-02 3.34854312e-02 2.77702957e-02 2.06961278e-02 1.37694608e-02 1.11729512e-02 1.78218260e-02 5.85808568e-02 9.23896730e-01 9.14553761e-01 6.64514184e-01 1.29569575e-01 8.93147141e-02 6.49608597e-02 3.56867090e-02 2.14556195e-02 2.40048934e-02 3.32873017e-02 4.62240465e-02 5.94527498e-02 8.54610428e-02 6.16442449e-02 4.11208309e-02 4.73413020e-02 4.93290350e-02 4.94651645e-02 4.86160256e-02 4.72037047e-02 4.53410298e-02 4.29915152e-02 4.00361121e-02 3.62889767e-02 3.15078311e-02 2.55570188e-02 1.89921428e-02 1.33015690e-02 9.89014003e-03 9.79537889e-03 1.12152779e-02 3.10485680e-02 8.92319083e-01 9.10999775e-01 9.18232739e-01 9.09067392e-01 8.97905767e-01 2.47456297e-01 5.26239462e-02 2.65041124e-02 2.70741843e-02 3.41060869e-02 4.91278581e-02 8.22307840e-02 8.55262056e-02 5.68568185e-02 5.83086498e-02 5.73493429e-02 5.56837097e-02 5.40339909e-02 5.23948967e-02 5.05532511e-02 4.83097695e-02 4.55220975e-02 4.21099439e-02 3.80586907e-02 3.34612951e-02 2.85827629e-02 2.36994978e-02 1.84898973e-02 1.24167707e-02 9.66622587e-03 9.64796450e-03 1.15756504e-02 4.47826050e-02 1.84709594e-01 8.95911276e-01 8.95682752e-01 9.10161257e-01 9.14775252e-01 6.93353564e-02 2.42596641e-02 2.05187760e-02 3.24740782e-02 7.37002790e-02 2.22370282e-01 1.41157731e-01 9.99605581e-02 8.91068727e-02 8.40716511e-02 8.15360919e-02 8.01892802e-02 7.91781545e-02 7.79889449e-02 7.63527378e-02 7.42002651e-02 7.15630502e-02 6.83528781e-02 6.41148463e-02 5.81383407e-02 5.02417646e-02 3.93856540e-02 2.27024294e-02 9.80212353e-03 9.64759756e-03 9.71215032e-03 9.85996239e-03 2.05093808e-02 4.59137931e-02 8.33169073e-02 1.30275592e-01 9.58887041e-01 6.01987578e-02 1.49041861e-02 1.47647467e-02 5.46659231e-02 4.38793629e-01 5.73925197e-01 6.05257571e-01 5.93541384e-01 5.68372548e-01 5.40600240e-01 5.15577018e-01 4.93130475e-01 4.71476465e-01 4.48699623e-01 4.22822624e-01 3.92143667e-01 3.56103122e-01 3.16342354e-01 2.74399370e-01 2.32919395e-01 1.96055859e-01 1.50333911e-01 5.96882775e-02 2.62331795e-02 9.90679674e-03 9.82216559e-03 9.88307595e-03 1.44942403e-02 3.69495340e-02 9.25612822e-02 1.28462762e-01 9.16225493e-01 2.44299583e-02 9.64376610e-03 2.38195043e-02 7.09441543e-01 8.31690550e-01 8.23295832e-01 8.09680581e-01 7.90360332e-01 7.67273664e-01 7.41369545e-01 7.13167012e-01 6.83222353e-01 6.52067423e-01 6.19498372e-01 5.84442139e-01 5.45658827e-01 5.02966762e-01 4.58439827e-01 4.12820458e-01 3.72559845e-01 3.38410318e-01 3.03658575e-01 2.70155132e-01 2.12547809e-01 1.20663300e-01 4.31616083e-02 2.49130167e-02 2.61017829e-02 8.13558996e-02 1.06822096e-01 8.83221090e-01 9.00052428e-01 9.60991997e-03 9.74718947e-03 8.34685624e-01 8.83317828e-01 8.70749772e-01 8.64379108e-01 8.53466392e-01 8.30061793e-01 8.04426134e-01 7.76070118e-01 7.46380270e-01 7.17197597e-01 6.89879596e-01 6.64154291e-01 6.38532341e-01 6.12571418e-01 5.87647736e-01 5.65969050e-01 5.47884047e-01 5.35005033e-01 5.25055885e-01 5.16712129e-01 5.05701423e-01 4.66882527e-01 4.49413449e-01 8.28337312e-01 1.18192010e-01 1.08347028e-01 1.17080174e-01 1.26151010e-01 9.18714106e-01 9.78731271e-03 9.74774081e-03 7.30155706e-01 8.77917171e-01 8.55477393e-01 8.52904260e-01 8.60589623e-01 8.46630096e-01 8.15584242e-01 7.78865635e-01 7.42836475e-01 7.12472081e-01 6.89190507e-01 6.72763765e-01 6.60422266e-01 6.49254441e-01 6.40299201e-01 6.33466125e-01 6.36230409e-01 6.45725727e-01 6.69746876e-01 6.93125963e-01 7.17262566e-01 7.33497202e-01 7.45118618e-01 7.51720548e-01 6.20792150e-01 1.27071753e-01 1.31477594e-01 5.06689787e-01 9.45630074e-01 1.00879725e-02 9.79579613e-03 1.75454110e-01 3.03296626e-01 3.36073190e-01 3.98615420e-01 5.38882792e-01 6.49872065e-01 6.98098838e-01 6.81830466e-01 6.54766202e-01 6.18327975e-01 5.97921491e-01 5.87976336e-01 5.90760648e-01 6.06772363e-01 6.17904305e-01 6.21249795e-01 6.25084817e-01 6.35275006e-01 6.65242851e-01 7.07665920e-01 7.40910411e-01 7.82807827e-01 8.38654935e-01 8.42810452e-01 8.21994483e-01 6.54268265e-01 2.74873912e-01 9.01362658e-01 9.26303685e-01 1.17349420e-02 1.06588844e-02 1.10390224e-01 9.69460085e-02 9.63768288e-02 9.61868688e-02 1.00767978e-01 1.15721643e-01 1.91554189e-01 3.32907230e-01 4.11177576e-01 4.24098492e-01 4.16387826e-01 4.16293681e-01 4.23907459e-01 4.59433138e-01 5.03123283e-01 5.18652797e-01 5.27700007e-01 5.44178545e-01 5.63650787e-01 5.71773946e-01 5.14933825e-01 4.68856722e-01 4.75749582e-01 5.78129411e-01 7.92532444e-01 7.50573993e-01 7.20870972e-01 8.94357443e-01 9.09022748e-01 1.24385916e-02 1.19181564e-02 1.00696526e-01 8.95863473e-02 8.61079916e-02 8.65526795e-02 8.96291062e-02 9.10187885e-02 9.65195298e-02 1.06106773e-01 1.40682802e-01 2.24664807e-01 2.51814574e-01 2.65090525e-01 2.71717966e-01 2.89453059e-01 3.08785081e-01 2.51223922e-01 2.28346944e-01 2.67864227e-01 3.69835138e-01 5.35196662e-01 6.11436903e-01 5.29652417e-01 4.04391348e-01 2.11891517e-01 2.90014207e-01 6.90764368e-01 8.60171139e-01 8.91784430e-01 8.99036169e-01 1.28239151e-02 1.24268355e-02 8.74839053e-02 6.78169355e-02 7.71357119e-02 8.66185054e-02 9.83314887e-02 9.90627781e-02 9.57060084e-02 9.72277373e-02 1.01212680e-01 1.06944218e-01 1.39682204e-01 2.07689196e-01 2.07134649e-01 1.65241003e-01 1.36907309e-01 1.31291077e-01 1.28063932e-01 1.33502945e-01 1.65812328e-01 2.75159568e-01 4.83499050e-01 6.02545977e-01 6.12119913e-01 5.84928036e-01 4.75750387e-01 8.06102633e-01 8.82122397e-01 8.90949965e-01 8.89644802e-01 1.32572185e-02 1.29353460e-02 1.33942232e-01 8.49147886e-02 8.29425454e-02 8.30974355e-02 8.74549076e-02 9.99798477e-02 1.01123050e-01 1.02188870e-01 1.01795316e-01 1.02235690e-01 1.04139574e-01 1.04707234e-01 1.07033618e-01 1.07156426e-01 1.07392758e-01 1.08227283e-01 1.10824980e-01 1.18092179e-01 1.33401662e-01 1.73631251e-01 2.29356915e-01 3.47894102e-01 5.47537148e-01 6.97868168e-01 8.34641695e-01 8.82013679e-01 8.88358235e-01 8.87379467e-01 7.52645433e-01 1.30826226e-02 1.30512556e-02 2.91067868e-01 2.97623903e-01 2.57278293e-01 1.75083652e-01 1.00154914e-01 9.46524814e-02 1.02442414e-01 1.04052663e-01 1.03901476e-01 1.03952974e-01 1.02748811e-01 1.01137586e-01 9.95735675e-02 1.00557573e-01 1.03369787e-01 1.06226318e-01 1.09834984e-01 1.18885256e-01 1.41213849e-01 1.73224106e-01 2.24642053e-01 3.76401901e-01 6.66937113e-01 8.48041534e-01 8.71242404e-01 8.81549776e-01 8.79518449e-01 8.05161417e-01 9.54445377e-02 1.54218627e-02 1.23881306e-02 3.67456406e-01 5.65853715e-01 5.75853229e-01 4.74801332e-01 2.19461516e-01 1.13015987e-01 1.07702479e-01 1.07729487e-01 1.06526278e-01 1.05660528e-01 1.04442768e-01 1.04208656e-01 1.05411321e-01 1.07900120e-01 1.11272559e-01 1.17703788e-01 1.34427175e-01 1.62470192e-01 2.07109466e-01 3.03398579e-01 4.45820093e-01 6.96325779e-01 8.55556488e-01 8.70663404e-01 8.76843512e-01 8.75735223e-01 8.27486575e-01 1.80474535e-01 7.92386457e-02 3.81333381e-02 1.71901621e-02 2.88956612e-01 5.32573581e-01 5.82012594e-01 3.40799540e-01 1.22801147e-01 1.26423299e-01 1.22207835e-01 1.15156941e-01 1.11017175e-01 1.08337402e-01 1.06689446e-01 1.06941611e-01 1.34176537e-01 1.64980829e-01 1.89277247e-01 1.99971601e-01 2.23862723e-01 3.01081121e-01 4.31828469e-01 6.46798551e-01 7.90819228e-01 8.60861540e-01 8.66723239e-01 8.69164169e-01 8.62261295e-01 8.21401238e-01 3.01082432e-01 1.03880055e-01 7.95984194e-02 6.09952435e-02 6.67894930e-02 1.73821315e-01 3.38396043e-01 5.00183582e-01 1.51268542e-01 1.23635054e-01 1.28053159e-01 1.26913294e-01 1.21855475e-01 1.17697068e-01 1.13290846e-01 1.10941418e-01 1.13300726e-01 1.37730822e-01 1.53302610e-01 1.62721485e-01 1.79409981e-01 2.29156271e-01 3.43753904e-01 5.35964251e-01 7.14702547e-01 8.43894482e-01 8.52299690e-01 8.50797594e-01 8.39451909e-01 7.83896923e-01 3.06701273e-01 1.07357934e-01 9.39556211e-02 8.52078572e-02 7.97934681e-02 8.94739032e-02 1.22164756e-01 1.76819026e-01 5.03627896e-01 1.24130972e-01 1.22797742e-01 1.27823249e-01 1.26760766e-01 1.24057531e-01 1.21806137e-01 1.18612967e-01 1.16130263e-01 1.49141937e-01 1.96333915e-01 2.11154327e-01 2.31618062e-01 2.63757288e-01 3.24559659e-01 4.35319871e-01 5.91730595e-01 7.23926842e-01 7.80312121e-01 8.11278284e-01 8.01081777e-01 7.14684010e-01 1.73959613e-01 1.05279192e-01 9.48261470e-02 8.82982761e-02 8.62584114e-02 8.95306021e-02 9.92839932e-02 1.12508222e-01 1.20974027e-01 5.95384121e-01 1.24517225e-01 1.18498795e-01 1.21435873e-01 1.25972465e-01 1.27639771e-01 1.22791246e-01 1.17811836e-01 1.69255212e-01 3.74611348e-01 4.10955995e-01 3.19006771e-01 3.27492863e-01 3.81666481e-01 4.66809213e-01 5.87258816e-01 7.14720428e-01 7.94596970e-01 8.05160224e-01 7.46161342e-01 5.15396059e-01 1.10188484e-01 1.02380164e-01 9.80971381e-02 8.78107995e-02 8.33830237e-02 8.89512897e-02 9.31929201e-02 1.03246935e-01 1.12062976e-01 1.12657920e-01 6.65849209e-01 1.41988188e-01 1.10198326e-01 1.13818385e-01 1.17616914e-01 1.22912049e-01 1.24489084e-01 1.28189325e-01 3.44367862e-01 6.06485009e-01 5.97023249e-01 4.67418790e-01 4.07239974e-01 4.59185839e-01 5.52197158e-01 6.66774511e-01 7.68359423e-01 8.20688546e-01 7.91704834e-01 3.38104069e-01 1.06210135e-01 9.80442464e-02 9.31102857e-02 9.28304866e-02 9.56127569e-02 9.56771299e-02 9.93584991e-02 1.03471026e-01 1.13390222e-01 1.14631414e-01 1.14347361e-01 6.44440055e-01 1.66736826e-01 9.28718746e-02 9.91735905e-02 1.13426656e-01 1.16262473e-01 1.18558645e-01 2.49323502e-01 5.13873339e-01 5.71660936e-01 6.34493172e-01 5.75549901e-01 4.85846072e-01 5.18987000e-01 6.03979886e-01 6.98511422e-01 7.75857747e-01 8.14553022e-01 7.78371394e-01 3.60262364e-01 1.06508546e-01 1.01176888e-01 9.84177440e-02 1.03096016e-01 1.06006287e-01 1.11085869e-01 3.29954565e-01 4.88459378e-01 2.72549152e-01 1.15694635e-01 1.16692916e-01 5.22218168e-01 1.72452882e-01 7.19129443e-02 7.06598163e-02 9.33247581e-02 1.17314711e-01 1.38790488e-01 3.71114641e-01 4.84373271e-01 4.63229835e-01 4.86314476e-01 5.70246339e-01 5.83442271e-01 5.78661561e-01 6.39389694e-01 7.06042528e-01 7.60526597e-01 7.93826759e-01 7.80832350e-01 6.05208933e-01 1.79462492e-01 1.22947089e-01 2.25791007e-01 6.98127389e-01 8.47491145e-01 8.69601429e-01 8.52171540e-01 8.27697277e-01 5.09927213e-01 1.15974098e-01 1.17644303e-01 3.82493109e-01 2.31554911e-01 5.76557852e-02 4.66752425e-02 7.11283386e-02 1.11478403e-01 2.46313259e-01 3.23027492e-01 3.16152960e-01 3.34205478e-01 3.86923075e-01 5.34050345e-01 6.48962855e-01 6.26878262e-01 6.56484783e-01 7.08510101e-01 7.46249676e-01 7.80189335e-01 7.99646556e-01 7.88106084e-01 7.52792716e-01 7.90093780e-01 8.61481547e-01 8.72407317e-01 8.63053441e-01 8.47911596e-01 8.31403315e-01 8.26560736e-01 5.80776751e-01 1.18371703e-01 1.18030466e-01 3.31734151e-01 2.57724285e-01 4.50461991e-02 2.46463753e-02 5.32313548e-02 1.59572676e-01 3.17916334e-01 2.81117946e-01 2.81650484e-01 3.54553521e-01 4.96090889e-01 6.48659885e-01 7.21099854e-01 7.12673903e-01 6.51322305e-01 6.93112671e-01 7.41748035e-01 7.78752089e-01 8.09076190e-01 8.26151073e-01 8.29772294e-01 8.28613520e-01 8.24421525e-01 8.04436386e-01 7.64253259e-01 7.26301074e-01 6.94962144e-01 7.01062739e-01 4.98149037e-01 1.18696481e-01 1.24155179e-01 3.32687557e-01 3.58886212e-01 3.02727297e-02 1.06831910e-02 3.05097438e-02 4.10158873e-01 3.40038687e-01 2.93064147e-01 3.20087016e-01 4.13986951e-01 5.75856507e-01 7.58315861e-01 7.72645950e-01 7.79315174e-01 7.70507753e-01 7.34576523e-01 7.72895455e-01 7.97651708e-01 8.02671492e-01 7.93595135e-01 7.70270467e-01 7.30305851e-01 6.72483563e-01 6.02534592e-01 5.30578494e-01 4.78440285e-01 4.46713299e-01 4.29381490e-01 3.54455948e-01 1.17729664e-01 1.23184755e-01 3.83992106e-01 2.88089812e-01 7.24520609e-02 2.03241147e-02 3.07884421e-02 7.54631639e-01 3.34081173e-01 2.95534551e-01 2.97798038e-01 3.22019577e-01 3.76444727e-01 4.86938983e-01 5.60076833e-01 5.89454293e-01 6.29362226e-01 5.89583635e-01 5.62822104e-01 5.75551689e-01 5.52606463e-01 4.95643348e-01 4.22640562e-01 3.62211376e-01 3.24500889e-01 2.99764961e-01 2.81392634e-01 2.61703402e-01 2.50556380e-01 2.37335742e-01 2.39120170e-01 
