# vtk DataFile Version 2.0
results_case1_non_linear/1_density.vtk, Created by Freefem++ 
ASCII
DATASET UNSTRUCTURED_GRID
POINTS 961 float
0 0 0
0.033333333 0 0
0.066666667 0 0
0.1 0 0
0.13333333 0 0
0.16666667 0 0
0.2 0 0
0.23333333 0 0
0.26666667 0 0
0.3 0 0
0.33333333 0 0
0.36666667 0 0
0.4 0 0
0.43333333 0 0
0.46666667 0 0
0.5 0 0
0.53333333 0 0
0.56666667 0 0
0.6 0 0
0.63333333 0 0
0.66666667 0 0
0.7 0 0
0.73333333 0 0
0.76666667 0 0
0.8 0 0
0.83333333 0 0
0.86666667 0 0
0.9 0 0
0.93333333 0 0
0.96666667 0 0
1 0 0
0 0.033333333 0
0.033333333 0.033333333 0
0.066666667 0.033333333 0
0.1 0.033333333 0
0.13333333 0.033333333 0
0.16666667 0.033333333 0
0.2 0.033333333 0
0.23333333 0.033333333 0
0.26666667 0.033333333 0
0.3 0.033333333 0
0.33333333 0.033333333 0
0.36666667 0.033333333 0
0.4 0.033333333 0
0.43333333 0.033333333 0
0.46666667 0.033333333 0
0.5 0.033333333 0
0.53333333 0.033333333 0
0.56666667 0.033333333 0
0.6 0.033333333 0
0.63333333 0.033333333 0
0.66666667 0.033333333 0
0.7 0.033333333 0
0.73333333 0.033333333 0
0.76666667 0.033333333 0
0.8 0.033333333 0
0.83333333 0.033333333 0
0.86666667 0.033333333 0
0.9 0.033333333 0
0.93333333 0.033333333 0
0.96666667 0.033333333 0
1 0.033333333 0
0 0.066666667 0
0.033333333 0.066666667 0
0.066666667 0.066666667 0
0.1 0.066666667 0
0.13333333 0.066666667 0
0.16666667 0.066666667 0
0.2 0.066666667 0
0.23333333 0.066666667 0
0.26666667 0.066666667 0
0.3 0.066666667 0
0.33333333 0.066666667 0
0.36666667 0.066666667 0
0.4 0.066666667 0
0.43333333 0.066666667 0
0.46666667 0.066666667 0
0.5 0.066666667 0
0.53333333 0.066666667 0
0.56666667 0.066666667 0
0.6 0.066666667 0
0.63333333 0.066666667 0
0.66666667 0.066666667 0
0.7 0.066666667 0
0.73333333 0.066666667 0
0.76666667 0.066666667 0
0.8 0.066666667 0
0.83333333 0.066666667 0
0.86666667 0.066666667 0
0.9 0.066666667 0
0.93333333 0.066666667 0
0.96666667 0.066666667 0
1 0.066666667 0
0 0.1 0
0.033333333 0.1 0
0.066666667 0.1 0
0.1 0.1 0
0.13333333 0.1 0
0.16666667 0.1 0
0.2 0.1 0
0.23333333 0.1 0
0.26666667 0.1 0
0.3 0.1 0
0.33333333 0.1 0
0.36666667 0.1 0
0.4 0.1 0
0.43333333 0.1 0
0.46666667 0.1 0
0.5 0.1 0
0.53333333 0.1 0
0.56666667 0.1 0
0.6 0.1 0
0.63333333 0.1 0
0.66666667 0.1 0
0.7 0.1 0
0.73333333 0.1 0
0.76666667 0.1 0
0.8 0.1 0
0.83333333 0.1 0
0.86666667 0.1 0
0.9 0.1 0
0.93333333 0.1 0
0.96666667 0.1 0
1 0.1 0
0 0.13333333 0
0.033333333 0.13333333 0
0.066666667 0.13333333 0
0.1 0.13333333 0
0.13333333 0.13333333 0
0.16666667 0.13333333 0
0.2 0.13333333 0
0.23333333 0.13333333 0
0.26666667 0.13333333 0
0.3 0.13333333 0
0.33333333 0.13333333 0
0.36666667 0.13333333 0
0.4 0.13333333 0
0.43333333 0.13333333 0
0.46666667 0.13333333 0
0.5 0.13333333 0
0.53333333 0.13333333 0
0.56666667 0.13333333 0
0.6 0.13333333 0
0.63333333 0.13333333 0
0.66666667 0.13333333 0
0.7 0.13333333 0
0.73333333 0.13333333 0
0.76666667 0.13333333 0
0.8 0.13333333 0
0.83333333 0.13333333 0
0.86666667 0.13333333 0
0.9 0.13333333 0
0.93333333 0.13333333 0
0.96666667 0.13333333 0
1 0.13333333 0
0 0.16666667 0
0.033333333 0.16666667 0
0.066666667 0.16666667 0
0.1 0.16666667 0
0.13333333 0.16666667 0
0.16666667 0.16666667 0
0.2 0.16666667 0
0.23333333 0.16666667 0
0.26666667 0.16666667 0
0.3 0.16666667 0
0.33333333 0.16666667 0
0.36666667 0.16666667 0
0.4 0.16666667 0
0.43333333 0.16666667 0
0.46666667 0.16666667 0
0.5 0.16666667 0
0.53333333 0.16666667 0
0.56666667 0.16666667 0
0.6 0.16666667 0
0.63333333 0.16666667 0
0.66666667 0.16666667 0
0.7 0.16666667 0
0.73333333 0.16666667 0
0.76666667 0.16666667 0
0.8 0.16666667 0
0.83333333 0.16666667 0
0.86666667 0.16666667 0
0.9 0.16666667 0
0.93333333 0.16666667 0
0.96666667 0.16666667 0
1 0.16666667 0
0 0.2 0
0.033333333 0.2 0
0.066666667 0.2 0
0.1 0.2 0
0.13333333 0.2 0
0.16666667 0.2 0
0.2 0.2 0
0.23333333 0.2 0
0.26666667 0.2 0
0.3 0.2 0
0.33333333 0.2 0
0.36666667 0.2 0
0.4 0.2 0
0.43333333 0.2 0
0.46666667 0.2 0
0.5 0.2 0
0.53333333 0.2 0
0.56666667 0.2 0
0.6 0.2 0
0.63333333 0.2 0
0.66666667 0.2 0
0.7 0.2 0
0.73333333 0.2 0
0.76666667 0.2 0
0.8 0.2 0
0.83333333 0.2 0
0.86666667 0.2 0
0.9 0.2 0
0.93333333 0.2 0
0.96666667 0.2 0
1 0.2 0
0 0.23333333 0
0.033333333 0.23333333 0
0.066666667 0.23333333 0
0.1 0.23333333 0
0.13333333 0.23333333 0
0.16666667 0.23333333 0
0.2 0.23333333 0
0.23333333 0.23333333 0
0.26666667 0.23333333 0
0.3 0.23333333 0
0.33333333 0.23333333 0
0.36666667 0.23333333 0
0.4 0.23333333 0
0.43333333 0.23333333 0
0.46666667 0.23333333 0
0.5 0.23333333 0
0.53333333 0.23333333 0
0.56666667 0.23333333 0
0.6 0.23333333 0
0.63333333 0.23333333 0
0.66666667 0.23333333 0
0.7 0.23333333 0
0.73333333 0.23333333 0
0.76666667 0.23333333 0
0.8 0.23333333 0
0.83333333 0.23333333 0
0.86666667 0.23333333 0
0.9 0.23333333 0
0.93333333 0.23333333 0
0.96666667 0.23333333 0
1 0.23333333 0
0 0.26666667 0
0.033333333 0.26666667 0
0.066666667 0.26666667 0
0.1 0.26666667 0
0.13333333 0.26666667 0
0.16666667 0.26666667 0
0.2 0.26666667 0
0.23333333 0.26666667 0
0.26666667 0.26666667 0
0.3 0.26666667 0
0.33333333 0.26666667 0
0.36666667 0.26666667 0
0.4 0.26666667 0
0.43333333 0.26666667 0
0.46666667 0.26666667 0
0.5 0.26666667 0
0.53333333 0.26666667 0
0.56666667 0.26666667 0
0.6 0.26666667 0
0.63333333 0.26666667 0
0.66666667 0.26666667 0
0.7 0.26666667 0
0.73333333 0.26666667 0
0.76666667 0.26666667 0
0.8 0.26666667 0
0.83333333 0.26666667 0
0.86666667 0.26666667 0
0.9 0.26666667 0
0.93333333 0.26666667 0
0.96666667 0.26666667 0
1 0.26666667 0
0 0.3 0
0.033333333 0.3 0
0.066666667 0.3 0
0.1 0.3 0
0.13333333 0.3 0
0.16666667 0.3 0
0.2 0.3 0
0.23333333 0.3 0
0.26666667 0.3 0
0.3 0.3 0
0.33333333 0.3 0
0.36666667 0.3 0
0.4 0.3 0
0.43333333 0.3 0
0.46666667 0.3 0
0.5 0.3 0
0.53333333 0.3 0
0.56666667 0.3 0
0.6 0.3 0
0.63333333 0.3 0
0.66666667 0.3 0
0.7 0.3 0
0.73333333 0.3 0
0.76666667 0.3 0
0.8 0.3 0
0.83333333 0.3 0
0.86666667 0.3 0
0.9 0.3 0
0.93333333 0.3 0
0.96666667 0.3 0
1 0.3 0
0 0.33333333 0
0.033333333 0.33333333 0
0.066666667 0.33333333 0
0.1 0.33333333 0
0.13333333 0.33333333 0
0.16666667 0.33333333 0
0.2 0.33333333 0
0.23333333 0.33333333 0
0.26666667 0.33333333 0
0.3 0.33333333 0
0.33333333 0.33333333 0
0.36666667 0.33333333 0
0.4 0.33333333 0
0.43333333 0.33333333 0
0.46666667 0.33333333 0
0.5 0.33333333 0
0.53333333 0.33333333 0
0.56666667 0.33333333 0
0.6 0.33333333 0
0.63333333 0.33333333 0
0.66666667 0.33333333 0
0.7 0.33333333 0
0.73333333 0.33333333 0
0.76666667 0.33333333 0
0.8 0.33333333 0
0.83333333 0.33333333 0
0.86666667 0.33333333 0
0.9 0.33333333 0
0.93333333 0.33333333 0
0.96666667 0.33333333 0
1 0.33333333 0
0 0.36666667 0
0.033333333 0.36666667 0
0.066666667 0.36666667 0
0.1 0.36666667 0
0.13333333 0.36666667 0
0.16666667 0.36666667 0
0.2 0.36666667 0
0.23333333 0.36666667 0
0.26666667 0.36666667 0
0.3 0.36666667 0
0.33333333 0.36666667 0
0.36666667 0.36666667 0
0.4 0.36666667 0
0.43333333 0.36666667 0
0.46666667 0.36666667 0
0.5 0.36666667 0
0.53333333 0.36666667 0
0.56666667 0.36666667 0
0.6 0.36666667 0
0.63333333 0.36666667 0
0.66666667 0.36666667 0
0.7 0.36666667 0
0.73333333 0.36666667 0
0.76666667 0.36666667 0
0.8 0.36666667 0
0.83333333 0.36666667 0
0.86666667 0.36666667 0
0.9 0.36666667 0
0.93333333 0.36666667 0
0.96666667 0.36666667 0
1 0.36666667 0
0 0.4 0
0.033333333 0.4 0
0.066666667 0.4 0
0.1 0.4 0
0.13333333 0.4 0
0.16666667 0.4 0
0.2 0.4 0
0.23333333 0.4 0
0.26666667 0.4 0
0.3 0.4 0
0.33333333 0.4 0
0.36666667 0.4 0
0.4 0.4 0
0.43333333 0.4 0
0.46666667 0.4 0
0.5 0.4 0
0.53333333 0.4 0
0.56666667 0.4 0
0.6 0.4 0
0.63333333 0.4 0
0.66666667 0.4 0
0.7 0.4 0
0.73333333 0.4 0
0.76666667 0.4 0
0.8 0.4 0
0.83333333 0.4 0
0.86666667 0.4 0
0.9 0.4 0
0.93333333 0.4 0
0.96666667 0.4 0
1 0.4 0
0 0.43333333 0
0.033333333 0.43333333 0
0.066666667 0.43333333 0
0.1 0.43333333 0
0.13333333 0.43333333 0
0.16666667 0.43333333 0
0.2 0.43333333 0
0.23333333 0.43333333 0
0.26666667 0.43333333 0
0.3 0.43333333 0
0.33333333 0.43333333 0
0.36666667 0.43333333 0
0.4 0.43333333 0
0.43333333 0.43333333 0
0.46666667 0.43333333 0
0.5 0.43333333 0
0.53333333 0.43333333 0
0.56666667 0.43333333 0
0.6 0.43333333 0
0.63333333 0.43333333 0
0.66666667 0.43333333 0
0.7 0.43333333 0
0.73333333 0.43333333 0
0.76666667 0.43333333 0
0.8 0.43333333 0
0.83333333 0.43333333 0
0.86666667 0.43333333 0
0.9 0.43333333 0
0.93333333 0.43333333 0
0.96666667 0.43333333 0
1 0.43333333 0
0 0.46666667 0
0.033333333 0.46666667 0
0.066666667 0.46666667 0
0.1 0.46666667 0
0.13333333 0.46666667 0
0.16666667 0.46666667 0
0.2 0.46666667 0
0.23333333 0.46666667 0
0.26666667 0.46666667 0
0.3 0.46666667 0
0.33333333 0.46666667 0
0.36666667 0.46666667 0
0.4 0.46666667 0
0.43333333 0.46666667 0
0.46666667 0.46666667 0
0.5 0.46666667 0
0.53333333 0.46666667 0
0.56666667 0.46666667 0
0.6 0.46666667 0
0.63333333 0.46666667 0
0.66666667 0.46666667 0
0.7 0.46666667 0
0.73333333 0.46666667 0
0.76666667 0.46666667 0
0.8 0.46666667 0
0.83333333 0.46666667 0
0.86666667 0.46666667 0
0.9 0.46666667 0
0.93333333 0.46666667 0
0.96666667 0.46666667 0
1 0.46666667 0
0 0.5 0
0.033333333 0.5 0
0.066666667 0.5 0
0.1 0.5 0
0.13333333 0.5 0
0.16666667 0.5 0
0.2 0.5 0
0.23333333 0.5 0
0.26666667 0.5 0
0.3 0.5 0
0.33333333 0.5 0
0.36666667 0.5 0
0.4 0.5 0
0.43333333 0.5 0
0.46666667 0.5 0
0.5 0.5 0
0.53333333 0.5 0
0.56666667 0.5 0
0.6 0.5 0
0.63333333 0.5 0
0.66666667 0.5 0
0.7 0.5 0
0.73333333 0.5 0
0.76666667 0.5 0
0.8 0.5 0
0.83333333 0.5 0
0.86666667 0.5 0
0.9 0.5 0
0.93333333 0.5 0
0.96666667 0.5 0
1 0.5 0
0 0.53333333 0
0.033333333 0.53333333 0
0.066666667 0.53333333 0
0.1 0.53333333 0
0.13333333 0.53333333 0
0.16666667 0.53333333 0
0.2 0.53333333 0
0.23333333 0.53333333 0
0.26666667 0.53333333 0
0.3 0.53333333 0
0.33333333 0.53333333 0
0.36666667 0.53333333 0
0.4 0.53333333 0
0.43333333 0.53333333 0
0.46666667 0.53333333 0
0.5 0.53333333 0
0.53333333 0.53333333 0
0.56666667 0.53333333 0
0.6 0.53333333 0
0.63333333 0.53333333 0
0.66666667 0.53333333 0
0.7 0.53333333 0
0.73333333 0.53333333 0
0.76666667 0.53333333 0
[...]
CELL_DATA 1920
Scalars  Label int 1
LOOKUP_TABLE FreeFempp_table
0
0
0
0
0
0
0
0
0
0
0
0
0
0
0
0
0
0
0
0
0
0
0
0
0
0
0
0
0
0
0
0
0
0
0
0
0
0
0
0
0
0
0
0
0
0
0
0
0
0
0
0
0
0
0
0
0
0
0
0
0
0
0
0
0
0
0
0
0
0
0
0
0
0
0
0
0
0
0
0
0
0
0
0
0
0
0
0
0
0
0
0
0
0
0
0
0
0
0
0
0
0
0
0
0
0
0
0
0
0
0
0
0
0
0
0
0
0
0
0
0
0
0
0
0
0
0
0
0
0
0
0
0
0
0
0
0
0
0
0
0
0
0
0
0
0
0
0
0
0
0
0
0
0
0
0
0
0
0
0
0
0
0
0
0
0
0
0
0
0
0
0
0
0
0
0
0
0
0
0
0
0
0
0
0
0
0
0
0
0
0
0
0
0
0
0
0
0
0
0
0
0
0
0
0
0
0
0
0
0
0
0
0
0
0
0
0
0
0
0
0
0
0
0
0
0
0
0
0
0
0
0
0
0
0
0
0
0
0
0
0
0
0
0
0
0
0
0
0
0
0
0
0
0
0
0
0
0
0
0
0
0
0
0
0
0
0
0
0
0
0
0
0
0
0
0
0
0
0
0
0
0
0
0
0
0
0
0
0
0
0
0
0
0
0
0
0
0
0
0
0
0
0
0
0
0
0
0
0
0
0
0
0
0
0
0
0
0
0
0
0
0
0
0
0
0
0
0
0
0
0
0
0
0
0
0
0
0
0
0
0
0
0
0
0
0
0
0
0
0
0
0
0
0
0
0
0
0
0
0
0
0
0
0
0
0
0
0
0
0
0
0
0
0
0
0
0
0
0
0
0
0
0
0
0
0
0
0
0
0
0
0
0
0
0
0
0
0
0
0
0
0
0
0
0
0
0
0
0
0
0
0
0
0
0
0
0
0
0
0
0
0
0
0
0
0
0
0
0
0
0
0
0
0
0
0
0
0
0
0
0
0
0
0
0
0
0
0
0
0
0
0
0
0
0
0
0
0
0
0
0
0
0
0
0
0
0
0
0
0
0
0
0
0
0
0
0
0
0
0
0
0
0
0
0
0
0
0
0
0
0
0
0
0
0
0
0
0
0
0
0
0
0
0
0
0
0
0
0
0
0
0
0
0
0
0
0
0
0
0
0
0
0
0
0
0
0
0
0
0
0
0
0
0
0
0
0
0
0
0
0
0
0
0
0
0
0
0
0
0
0
0
0
0
0
0
0
0
0
0
0
0
0
0
0
0
0
0
0
0
0
0
0
0
0
0
0
0
0
0
0
0
0
0
0
0
0
0
0
0
0
0
0
0
0
0
0
0
0
0
0
0
0
0
0
0
0
0
0
0
0
0
0
0
0
0
0
0
0
0
0
0
0
0
0
0
0
0
0
0
0
0
0
0
0
0
0
0
0
0
0
0
0
0
0
0
0
0
0
0
0
0
0
0
0
0
0
0
0
0
0
0
0
0
0
0
0
0
0
0
0
0
0
0
0
0
0
0
0
0
0
0
0
0
0
0
0
0
0
0
0
0
0
0
0
0
0
0
0
0
0
0
0
0
0
0
0
0
0
0
0
0
0
0
0
0
0
0
0
0
0
0
0
0
0
0
0
0
0
0
0
0
0
0
0
0
0
0
0
0
0
0
0
0
0
0
0
0
0
0
0
0
0
0
0
0
0
0
0
0
0
0
0
0
0
0
0
0
0
0
0
0
0
0
0
0
0
0
0
0
0
0
0
0
0
0
0
0
0
0
0
0
0
0
0
0
0
0
0
0
0
0
0
0
0
0
0
0
0
0
0
0
0
0
0
0
0
0
0
0
0
0
0
0
0
0
0
0
0
0
0
0
0
0
0
0
0
0
0
0
0
0
0
0
0
0
0
0
0
0
0
0
0
0
0
0
0
0
0
0
0
0
0
0
0
0
0
0
0
0
0
0
0
0
0
0
0
0
0
0
0
0
0
0
0
0
0
0
0
0
0
0
0
0
0
0
0
0
0
0
0
0
0
0
0
0
0
0
0
0
0
0
0
0
0
0
0
0
0
0
0
0
0
0
0
0
0
0
0
0
0
0
0
0
0
0
0
0
0
0
0
0
0
0
0
0
0
0
0
0
0
0
0
0
0
0
0
0
0
0
0
0
0
0
0
0
0
0
0
0
0
0
0
0
0
0
0
0
0
0
0
0
0
0
0
0
0
0
0
0
0
0
0
0
0
0
0
0
0
0
0
0
0
0
0
0
0
0
0
0
0
0
0
0
0
0
0
0
0
0
0
0
0
0
0
0
0
0
0
0
0
0
0
0
0
0
0
0
0
0
0
0
0
0
0
0
0
0
0
0
0
0
0
0
0
0
0
0
0
0
0
0
0
0
0
0
0
0
0
0
0
0
0
0
0
0
0
0
0
0
0
0
0
0
0
0
0
0
0
0
0
0
0
0
0
0
0
0
0
0
0
0
0
0
0
0
0
0
0
0
0
0
0
0
0
0
0
0
0
0
0
0
0
0
0
0
0
0
0
0
0
0
0
0
0
0
0
0
0
0
0
0
0
0
0
0
0
0
0
0
0
0
0
0
0
0
0
0
0
0
0
0
0
0
0
0
0
0
0
0
0
0
0
0
0
0
0
0
0
0
0
0
0
0
0
0
0
0
0
0
0
0
0
0
0
0
0
0
0
0
0
0
0
0
0
0
0
0
0
0
0
0
0
0
0
0
0
0
0
0
0
0
0
0
0
0
0
0
0
0
0
0
0
0
0
0
0
0
0
0
0
0
0
0
0
0
0
0
0
0
0
0
0
0
0
0
0
0
0
0
0
0
0
0
0
0
0
0
0
0
0
0
0
0
0
0
0
0
0
0
0
0
0
0
0
0
0
0
0
0
0
0
0
0
0
0
0
0
0
0
0
0
0
0
0
0
0
0
0
0
0
0
0
0
0
0
0
0
0
0
0
0
0
0
0
0
0
0
0
0
0
0
0
0
0
0
0
0
0
0
0
0
0
0
0
0
0
0
0
0
0
0
0
0
0
0
0
0
0
0
0
0
0
0
0
0
0
0
0
0
0
0
0
0
0
0
0
0
0
0
0
0
0
0
0
0
0
0
0
0
0
0
0
0
0
0
0
0
0
0
0
0
0
0
0
0
0
0
0
0
0
0
0
0
0
0
0
0
0
0
0
0
0
0
0
0
0
0
0
0
0
0
0
0
0
0
0
0
0
0
0
0
0
0
0
0
0
0
0
0
0
0
0
0
0
0
0
0
0
0
0
0
0
0
0
0
0
0
0
0
0
0
0
0
0
0
0
0
0
0
0
0
0
0
0
0
0
0
0
0
0
0
0
0
0
0
0
0
0
0
0
0
0
0
0
0
0
0
0
0
0
0
0
0
0
0
0
0
0
0
0
0
0
0
0
0
0
0
0
0
0
0
0
0
0
0
0
0
0
0
0
0
0
0
0
0
0
0
0
0
0
0
0
0
0
0
0
0
0
0
0
0
0
0
0
0
0
0
0
0
0
0
0
0
0
0
0
0
0
0
0
0
0
0
0
0
0
0
0
0
0
0
0
0
0
0
0
0
0
0
0
0
0
0
0
0
0
0
0
0
0
0
0
0
0
0
0
0
0
0
0
0
0
0
0
0
0
0
0
0
0
0
0
0
0
0
0
0
0
0
0
0
0
0
0
0
0
0
0
0
0
0
0
0
0
0
0
0
0
0
0
0
0
0
0
0
0
0
0
0
0
0
0
0
0
0
0
0
0
0
0
0
0
0
0
0
0
0
0
0
0
0
0
0
0
0
0
0
0
0
0
0
0
0
0
0
0
0
0
0
0
0
0
0
0
0
0
0
0
0
0
0
0
0
0
0
0
0
0
0
0
0
0
0
0
0
0
0
0
0
0
0
0
0
0
0
0
0
0
0
0
0
0
0
0
0
0
0
0
0
0
0
0
0
0
0
0
0
0
0
0
0
0
0
0
0
0
0
0
0
0
0
0
0
0
0
0
0
0
0
0
0
0
0
0
0
0
0
0
0
1
1
1
1
1
1
1
1
1
1
1
1
1
1
1
1
1
1
1
1
1
1
1
1
1
1
1
1
1
1
2
2
2
2
2
2
2
2
2
2
2
2
2
2
2
2
2
2
2
2
2
2
2
2
2
2
2
2
2
2
3
3
3
3
3
3
3
3
3
3
3
3
3
3
3
3
3
3
3
3
3
3
3
3
3
3
3
3
3
3
4
4
4
4
4
4
4
4
4
4
4
4
4
4
4
4
4
4
4
4
4
4
4
4
4
4
4
4
4
4

LOOKUP_TABLE FreeFempp_table 5
1.00000000 0.00000000 0.00000000 1.00000000
1.00000000 1.00000000 0.00000000 1.00000000
1.00000000 0.00000000 1.00000000 1.00000000
0.00000000 1.00000000 0.00000000 1.00000000
0.00000000 1.00000000 1.00000000 1.00000000

POINT_DATA 961
FIELD FieldData 1
Density 1 961 float
2.11921439e-01 1.93048403e-01 2.36596733e-01 2.48351842e-01 2.38742694e-01 2.19131991e-01 1.89379677e-01 1.43935412e-01 9.06948298e-02 6.93371147e-02 9.96729210e-02 2.12101340e-01 3.27601075e-01 3.74315202e-01 3.99324507e-01 4.30029690e-01 4.92625922e-01 6.12899542e-01 7.41435409e-01 7.85670578e-01 7.53802776e-01 7.32938766e-01 7.83386827e-01 7.88213789e-01 7.55545855e-01 7.50741303e-01 7.34238505e-01 6.76021874e-01 6.74298525e-01 6.73690140e-01 6.05450094e-01 1.40262523e-03 1.34659275e-01 1.86318353e-01 1.94772407e-01 1.83922544e-01 1.67303070e-01 1.45137683e-01 1.14166558e-01 7.61130303e-02 5.07933125e-02 5.78328967e-02 1.15662336e-01 2.34792665e-01 2.86074847e-01 3.11864346e-01 3.39731872e-01 4.01436478e-01 5.81275463e-01 8.22663188e-01 8.80385578e-01 8.14926684e-01 6.71244144e-01 6.57335937e-01 7.30946362e-01 7.28997409e-01 7.25923598e-01 7.32359111e-01 7.09107995e-01 7.31677055e-01 7.07587838e-01 6.60758793e-01 9.49484180e-04 7.85322336e-04 1.27324846e-03 1.25451537e-03 1.27769564e-03 1.29070866e-03 1.30019605e-03 1.30555255e-03 1.29217980e-03 1.37015316e-03 1.23549777e-03 8.28649774e-02 3.34231347e-01 3.62133473e-01 3.73298526e-01 3.87227446e-01 4.00704354e-01 5.15237331e-01 7.49336302e-01 5.90999782e-01 1.36449382e-01 8.66607279e-02 5.65553755e-02 4.38444018e-02 4.00410444e-02 5.33154719e-02 1.04504071e-01 3.58395994e-01 5.42436004e-01 5.78015745e-01 5.92562079e-01 5.04840970e-01 1.24403008e-03 1.34474679e-03 1.23586680e-03 1.26390532e-03 1.28088798e-03 1.29394722e-03 1.30306988e-03 1.30634487e-03 1.33054517e-03 8.18849541e-04 8.28568358e-04 1.38356397e-03 1.54891412e-03 2.00390792e-03 3.62542272e-01 4.42108244e-01 4.35024798e-01 6.67907596e-01 2.54471302e-02 2.74961274e-02 2.44949590e-02 1.58950221e-02 1.32216848e-02 9.56653617e-03 8.50175321e-03 9.27496143e-03 2.01658271e-02 2.44340852e-01 4.55127895e-01 5.27629137e-01 4.93382096e-01 3.89903188e-01 8.92465189e-02 9.60132927e-02 3.81957680e-01 4.06375289e-01 4.06125367e-01 4.09884155e-01 4.17535633e-01 4.17904437e-01 2.69137561e-01 1.28537056e-03 1.44411263e-03 1.29790255e-03 1.04345917e-03 1.08188251e-03 1.52643304e-03 1.58179235e-02 3.68968576e-01 6.89397514e-01 1.43775595e-02 2.45727245e-02 1.74120069e-02 1.52096143e-02 1.21325813e-02 8.99290666e-03 5.93023421e-03 5.18337358e-03 1.32003324e-02 2.78179914e-01 4.91022915e-01 4.55876589e-01 3.46631110e-01 9.23380107e-02 7.09797516e-02 3.01036686e-01 3.85585874e-01 3.97574753e-01 4.01883483e-01 4.06848222e-01 4.08092648e-01 3.95044029e-01 3.91671866e-01 4.20410484e-01 4.25370574e-01 9.42441728e-03 1.52578787e-03 1.05613377e-03 1.12099689e-03 1.55273953e-03 6.92107677e-01 9.48574662e-01 8.44663307e-02 5.80600575e-02 4.43620905e-02 3.82859334e-02 3.39404121e-02 2.05563195e-02 4.99137864e-03 3.59277963e-03 2.09083911e-02 4.61162925e-01 4.29151058e-01 2.94222444e-01 1.39117017e-01 8.13355371e-02 2.01134428e-01 3.58813882e-01 4.01887894e-01 4.17713463e-01 4.26849514e-01 4.32762653e-01 4.32254791e-01 4.26392227e-01 4.31667119e-01 4.39291120e-01 4.37965602e-01 4.45418090e-01 4.02999282e-01 1.96672813e-03 1.12934678e-03 1.08847639e-03 1.17535241e-01 9.74508047e-01 3.08846474e-01 1.40263334e-01 1.64484382e-01 1.44915536e-01 1.39979020e-01 4.07053418e-02 3.09681357e-03 4.62112390e-03 4.60435748e-01 4.61472690e-01 3.14625919e-01 2.39255756e-01 1.51905820e-01 2.23890737e-01 3.70996326e-01 4.28789258e-01 4.53737468e-01 4.67409164e-01 4.75362241e-01 4.78061795e-01 4.76198494e-01 4.74132031e-01 4.73424435e-01 4.69754279e-01 4.66474056e-01 4.68923450e-01 4.68788415e-01 3.97481501e-01 1.22895534e-03 1.37426797e-03 1.20907808e-02 9.63224888e-01 6.80105150e-01 3.06912243e-01 2.75953710e-01 2.14710563e-01 1.10203587e-01 3.26727214e-03 3.84799903e-03 4.84601825e-01 5.80611110e-01 4.89268422e-01 4.44497079e-01 4.05567884e-01 4.19970959e-01 4.83223230e-01 5.13948143e-01 5.27831793e-01 5.34773290e-01 5.37023008e-01 5.35355270e-01 5.30664802e-01 5.24825335e-01 5.18779933e-01 5.11897266e-01 5.04947066e-01 4.99153346e-01 4.93223757e-01 4.86955523e-01 4.76838470e-01 1.61692023e-03 1.87612581e-03 5.85387880e-03 9.41272497e-01 8.36462915e-01 5.73988676e-01 3.47579181e-01 1.77533507e-01 2.93682562e-03 3.19617894e-03 4.98739898e-01 7.09828913e-01 7.43437290e-01 7.14116335e-01 6.89008415e-01 6.67567194e-01 6.51920915e-01 6.39114738e-01 6.28405690e-01 6.18929505e-01 6.09522939e-01 5.99648714e-01 5.89433253e-01 5.79309642e-01 5.69340944e-01 5.59400797e-01 5.49771428e-01 5.40477037e-01 5.31211555e-01 5.22306740e-01 5.11789918e-01 4.99714434e-01 2.70175445e-03 2.86683813e-03 4.71111527e-03 8.81482124e-01 8.48931611e-01 7.48294115e-01 3.31078172e-01 3.23308585e-03 2.83230096e-03 4.45092946e-01 7.30348885e-01 8.32120359e-01 8.09098661e-01 7.97149241e-01 7.78197050e-01 7.54443586e-01 7.29395986e-01 7.06688821e-01 6.86924279e-01 6.69552624e-01 6.53967083e-01 6.39881670e-01 6.27094567e-01 6.15296841e-01 6.04273260e-01 5.93919337e-01 5.83944380e-01 5.74075460e-01 5.64581752e-01 5.55757344e-01 5.47519326e-01 5.29428899e-01 5.87019371e-03 3.82555649e-03 4.67683189e-03 6.06865883e-01 3.49637866e-01 9.45799053e-01 4.20079799e-03 2.20768200e-03 1.58730149e-02 6.08104289e-01 7.23937929e-01 7.24061668e-01 7.47643590e-01 7.59826362e-01 7.58661091e-01 7.46944904e-01 7.30464756e-01 7.13079691e-01 6.96460187e-01 6.81180298e-01 6.67448580e-01 6.55242920e-01 6.44380927e-01 6.34656847e-01 6.25786960e-01 6.17382228e-01 6.09184623e-01 6.01227045e-01 5.94360054e-01 5.91240466e-01 5.95036030e-01 5.74319422e-01 1.24106025e-02 4.46919352e-03 4.87701269e-03 2.54203454e-02 4.58277389e-02 7.17563987e-01 2.26241839e-03 3.21973301e-03 4.19217587e-01 3.74064595e-01 4.26256806e-01 5.21401227e-01 6.14421487e-01 6.72135293e-01 6.95472956e-01 6.99741960e-01 6.94988251e-01 6.86342716e-01 6.76382422e-01 6.66493118e-01 6.57391071e-01 6.49384201e-01 6.42520905e-01 6.36584878e-01 6.31168365e-01 6.25883758e-01 6.20510697e-01 6.15408182e-01 6.13443911e-01 6.21765435e-01 6.45937860e-01 6.40357196e-01 3.86749804e-02 6.53161621e-03 8.87946691e-03 2.61058453e-02 9.64247406e-01 3.66955251e-03 3.46891047e-03 2.87358582e-01 1.62320852e-01 1.85766339e-01 2.64128953e-01 3.95819336e-01 5.22155702e-01 5.96635461e-01 6.32194638e-01 6.46489620e-01 6.49786294e-01 6.47523344e-01 6.42744184e-01 6.37254238e-01 6.32135212e-01 6.27967894e-01 6.24880433e-01 6.22635782e-01 6.20759070e-01 6.18599474e-01 6.15439653e-01 6.11436784e-01 6.11265242e-01 6.22074962e-01 6.70961201e-01 7.49837101e-01 2.72103608e-01 2.56099887e-02 3.10736448e-02 9.73075807e-01 3.98467388e-03 3.58255696e-03 1.93559751e-01 9.14077312e-02 9.86897871e-02 1.45547688e-01 2.51417130e-01 3.91639322e-01 4.97233540e-01 5.58774710e-01 5.90867579e-01 6.05679274e-01 6.10623837e-01 6.10096812e-01 6.06889307e-01 6.02910638e-01 5.99476576e-01 5.97370386e-01 5.96887469e-01 5.97843885e-01 5.99536240e-01 6.00550711e-01 5.98472416e-01 5.90372562e-01 5.71171761e-01 5.49779236e-01 5.69689870e-01 7.39976764e-01 9.27982256e-02 5.14276586e-02 9.82540011e-01 4.76739230e-03 4.13118582e-03 1.11731134e-01 5.58112003e-02 6.13580830e-02 1.01451375e-01 1.97565421e-01 3.27269047e-01 4.34795380e-01 5.05503774e-01 5.47454298e-01 5.70149660e-01 5.80406845e-01 5.82746983e-01 5.80311775e-01 5.75513184e-01 5.70344567e-01 5.66443264e-01 5.65010667e-01 5.66669464e-01 5.71290553e-01 5.77780664e-01 5.83701372e-01 5.84751904e-01 5.70051372e-01 5.13176978e-01 3.57058704e-01 3.28243732e-01 2.12340578e-01 6.33262917e-02 9.75140095e-01 4.28616488e-03 4.37436160e-03 5.62581010e-02 3.63084748e-02 4.31063697e-02 8.94921347e-02 1.96866781e-01 3.19137931e-01 4.13612902e-01 4.79612112e-01 5.23011863e-01 5.49365997e-01 5.63121438e-01 5.67697227e-01 5.65775335e-01 5.59666216e-01 5.51614285e-01 5.43916583e-01 5.38791358e-01 5.37984550e-01 5.42260170e-01 5.51020801e-01 5.62408328e-01 5.74355125e-01 5.84659338e-01 5.86851001e-01 4.86768305e-01 2.98356831e-01 2.68306881e-01 2.57780880e-01 9.58914280e-01 3.82455764e-03 3.70575418e-03 2.78745145e-02 2.56342683e-02 3.53724919e-02 1.01492539e-01 2.36356720e-01 3.46067458e-01 4.20306355e-01 4.75047737e-01 5.14909387e-01 5.41860104e-01 5.57777822e-01 5.64557970e-01 5.63952744e-01 5.57638705e-01 5.47482550e-01 5.35819530e-01 5.25483668e-01 5.19352138e-01 5.19319892e-01 5.25303543e-01 5.35284579e-01 5.47484815e-01 5.63365340e-01 5.90940475e-01 6.19482577e-01 4.74712938e-01 4.11667854e-01 7.79161930e-01 9.33474660e-01 4.46880562e-03 3.99271958e-03 1.51856327e-02 1.80688798e-02 3.66618596e-02 1.46004513e-01 3.03794831e-01 3.85302573e-01 4.38901603e-01 4.82287943e-01 5.17255366e-01 5.43281972e-01 5.60457110e-01 5.69459379e-01 5.71146905e-01 5.66388905e-01 5.56220114e-01 5.42228878e-01 5.26927829e-01 5.13644516e-01 5.05461454e-01 5.03760636e-01 5.07828414e-01 5.17193198e-01 5.32503009e-01 5.58569968e-01 6.10421717e-01 6.58620358e-01 6.54469490e-01 9.03236210e-01 8.78413498e-01 5.32765174e-03 4.75648232e-03 9.91318375e-03 1.22770276e-02 5.12242950e-02 2.38807395e-01 3.69755805e-01 4.20950264e-01 4.59158093e-01 4.94065464e-01 5.24658263e-01 5.49229026e-01 5.67018270e-01 5.78032792e-01 5.82563996e-01 5.80857217e-01 5.73065698e-01 5.59537530e-01 5.41345716e-01 5.20635724e-01 5.00319958e-01 4.84304935e-01 4.78004128e-01 4.89108980e-01 5.18564105e-01 5.61085105e-01 6.29924953e-01 7.27273285e-01 8.31103325e-01 9.01716053e-01 1.73615173e-01 6.20212546e-03 5.47130965e-03 7.70124095e-03 8.97156447e-03 9.79382768e-02 3.47284406e-01 4.17663604e-01 4.48532134e-01 4.77162093e-01 5.06259322e-01 5.33275723e-01 5.56200683e-01 5.74057877e-01 5.86616039e-01 5.93949139e-01 5.96023202e-01 5.92400610e-01 5.82192302e-01 5.64340651e-01 5.37990391e-01 5.03284276e-01 4.66377795e-01 4.47443634e-01 4.70261276e-01 5.34753501e-01 6.18424892e-01 7.24352479e-01 8.07753682e-01 8.58780026e-01 7.98548341e-01 2.79469546e-02 7.56497681e-03 6.42134715e-03 6.67103613e-03 7.39074033e-03 2.22905830e-01 4.22785282e-01 4.50002462e-01 4.69062209e-01 4.91885543e-01 5.16684175e-01 5.40561557e-01 5.61653733e-01 5.79057157e-01 5.92517972e-01 6.02108717e-01 6.07831419e-01 6.09108686e-01 6.04265094e-01 5.90213478e-01 5.62597513e-01 5.18665433e-01 4.70081270e-01 4.50570911e-01 5.00837564e-01 6.14482820e-01 7.21984386e-01 8.08139265e-01 8.30977142e-01 8.17943990e-01 1.68099061e-01 1.26433000e-02 9.46964696e-03 9.29740444e-03 5.99851925e-03 6.49237586e-03 3.60910803e-01 4.59704995e-01 4.71626401e-01 4.84507948e-01 5.03137231e-01 5.24084926e-01 5.44809341e-01 5.63781679e-01 5.80208957e-01 5.93806863e-01 6.04644239e-01 6.12876177e-01 6.18183613e-01 6.18901670e-01 6.11192405e-01 5.89732528e-01 5.55582106e-01 5.31882048e-01 5.61350644e-01 6.75370216e-01 7.60371089e-01 8.30454051e-01 8.52885962e-01 8.05020452e-01 5.05357385e-01 2.24541500e-02 9.15674400e-03 9.38106515e-03 1.94231626e-02 5.47199789e-03 5.85848931e-03 4.30058569e-01 4.77209210e-01 4.85619605e-01 4.95681405e-01 5.10450244e-01 5.27420044e-01 5.44782281e-01 5.61349332e-01 5.76353312e-01 5.89371085e-01 6.00366414e-01 6.09728515e-01 6.18112803e-01 6.25955224e-01 6.33063138e-01 6.40676081e-01 6.60755098e-01 7.18607485e-01 7.88789451e-01 8.09827387e-01 8.02837372e-01 8.26700985e-01 6.46179974e-01 1.74199343e-02 1.03136906e-02 9.49297193e-03 1.12486351e-02 1.33100599e-02 1.07644364e-01 5.04323328e-03 5.36068901e-03 4.58098739e-01 4.89262849e-01 4.94614154e-01 5.01936913e-01 5.12696743e-01 5.25651872e-01 5.39640903e-01 5.53705931e-01 5.67047536e-01 5.79069138e-01 5.89572966e-01 5.99173188e-01 6.09886527e-01 6.25563681e-01 6.51584029e-01 6.93735719e-01 7.55577445e-01 8.25838149e-01 8.52970719e-01 3.04006964e-01 4.35145982e-02 2.66482383e-02 1.90430805e-02 1.42813670e-02 1.14193494e-02 9.78044793e-03 1.33810183e-02 4.57490310e-02 4.86789018e-01 4.68321377e-03 4.95376764e-03 4.76045430e-01 4.99823332e-01 4.99660701e-01 5.02590477e-01 5.09137869e-01 5.18351555e-01 5.29239833e-01 5.40902078e-01 5.52543998e-01 5.63510537e-01 5.73460698e-01 5.82921743e-01 5.94395339e-01 6.13558173e-01 6.48593366e-01 7.04702318e-01 7.74701476e-01 8.37153137e-01 8.66633713e-01 8.03423524e-01 8.47833231e-02 4.09235135e-02 2.48884745e-02 1.74303800e-02 2.37242244e-02 7.71994650e-01 8.45745862e-01 8.80719304e-01 7.44214535e-01 4.36659204e-03 4.61054593e-03 4.92962092e-01 5.07540166e-01 4.99727130e-01 4.97484028e-01 5.00145078e-01 5.06194234e-01 5.14372230e-01 5.23750007e-01 5.33679247e-01 5.43687403e-01 5.53439915e-01 5.63036025e-01 5.73970914e-01 5.90623319e-01 6.20403290e-01 6.68961644e-01 7.31259346e-01 7.91348517e-01 8.36013615e-01 8.52764130e-01 8.42476606e-01 8.90149891e-01 9.33604479e-01 9.42347586e-01 9.48780000e-01 9.37125206e-01 9.11383212e-01 9.07802224e-01 8.28156471e-01 4.05105902e-03 4.30924632e-03 5.11386275e-01 5.09528399e-01 4.93349910e-01 4.87077296e-01 4.87166673e-01 4.90918398e-01 4.96736407e-01 5.03799498e-01 5.11827826e-01 5.20815313e-01 5.30735433e-01 5.41376352e-01 5.52631438e-01 5.65558136e-01 5.83651721e-01 6.11858487e-01 6.51670456e-01 6.98247075e-01 7.45960295e-01 7.88726628e-01 8.22942913e-01 8.54267120e-01 8.70720387e-01 8.74754608e-01 8.72730970e-01 8.64428699e-01 8.41452301e-01 8.38064671e-01 7.65384555e-01 3.59003502e-03 4.02945140e-03 5.31425834e-01 5.02140045e-01 4.80755240e-01 4.73566234e-01 4.72908586e-01 4.75125790e-01 4.78687912e-01 4.83167708e-01 4.88829643e-01 4.96298790e-01 5.06159425e-01 5.18479466e-01 5.32423198e-01 5.46364665e-01 5.58962703e-01 5.70775330e-01 5.84313929e-01 6.01239741e-01 6.19457781e-01 6.33433878e-01 6.41059399e-01 6.44505858e-01 6.35993123e-01 6.29330277e-01 6.28013968e-01 6.32882297e-01 6.48348272e-01 6.62635088e-01 6.45950139e-01 2.77174264e-03 3.44238942e-03 5.67435265e-01 4.87580091e-01 4.66746479e-01 4.61180598e-01 4.59990978e-01 4.60086495e-01 4.60673273e-01 4.61971760e-01 4.64837909e-01 4.70516920e-01 4.80311811e-01 4.95052487e-01 5.14342129e-01 5.35775781e-01 5.54645300e-01 5.64699233e-01 5.59788108e-01 5.35386145e-01 4.90702331e-01 4.38870996e-01 4.17836219e-01 4.41899091e-01 4.80604947e-01 5.08307338e-01 5.20762920e-01 5.26821494e-01 5.32418251e-01 5.37517428e-01 5.67554057e-01 4.20589466e-03 3.12084099e-03 6.79628372e-01 5.26781738e-01 5.14922619e-01 5.11324763e-01 5.10122538e-01 5.09426415e-01 5.08727968e-01 5.08264124e-01 5.08675158e-01 5.10830343e-01 5.15657485e-01 5.23857057e-01 5.35469234e-01 5.49365819e-01 5.62801301e-01 5.71141720e-01 5.67913294e-01 5.45745134e-01 5.00410795e-01 4.42781776e-01 4.09980834e-01 4.28267658e-01 4.77005035e-01 5.15954435e-01 5.35293698e-01 5.39416432e-01 5.36454260e-01 5.31445265e-01 5.45312405e-01 
