# vtk DataFile Version 2.0
results_case1_non_linear/3_density.vtk, Created by Freefem++ 
ASCII
DATASET UNSTRUCTURED_GRID
POINTS 961 float
0 0 0
0.033333333 0 0
0.066666667 0 0
0.1 0 0
0.13333333 0 0
0.16666667 0 0
0.2 0 0
0.23333333 0 0
0.26666667 0 0
0.3 0 0
0.33333333 0 0
0.36666667 0 0
0.4 0 0
0.43333333 0 0
0.46666667 0 0
0.5 0 0
0.53333333 0 0
0.56666667 0 0
0.6 0 0
0.63333333 0 0
0.66666667 0 0
0.7 0 0
0.73333333 0 0
0.76666667 0 0
0.8 0 0
0.83333333 0 0
0.86666667 0 0
0.9 0 0
0.93333333 0 0
0.96666667 0 0
1 0 0
0 0.033333333 0
0.033333333 0.033333333 0
0.066666667 0.033333333 0
0.1 0.033333333 0
0.13333333 0.033333333 0
0.16666667 0.033333333 0
0.2 0.033333333 0
0.23333333 0.033333333 0
0.26666667 0.033333333 0
0.3 0.033333333 0
0.33333333 0.033333333 0
0.36666667 0.033333333 0
0.4 0.033333333 0
0.43333333 0.033333333 0
0.46666667 0.033333333 0
0.5 0.033333333 0
0.53333333 0.033333333 0
0.56666667 0.033333333 0
0.6 0.033333333 0
0.63333333 0.033333333 0
0.66666667 0.033333333 0
0.7 0.033333333 0
0.73333333 0.033333333 0
0.76666667 0.033333333 0
0.8 0.033333333 0
0.83333333 0.033333333 0
0.86666667 0.033333333 0
0.9 0.033333333 0
0.93333333 0.033333333 0
0.96666667 0.033333333 0
1 0.033333333 0
0 0.066666667 0
0.033333333 0.066666667 0
0.066666667 0.066666667 0
0.1 0.066666667 0
0.13333333 0.066666667 0
0.16666667 0.066666667 0
0.2 0.066666667 0
0.23333333 0.066666667 0
0.26666667 0.066666667 0
0.3 0.066666667 0
0.33333333 0.066666667 0
0.36666667 0.066666667 0
0.4 0.066666667 0
0.43333333 0.066666667 0
0.46666667 0.066666667 0
0.5 0.066666667 0
0.53333333 0.066666667 0
0.56666667 0.066666667 0
0.6 0.066666667 0
0.63333333 0.066666667 0
0.66666667 0.066666667 0
0.7 0.066666667 0
0.73333333 0.066666667 0
0.76666667 0.066666667 0
0.8 0.066666667 0
0.83333333 0.066666667 0
0.86666667 0.066666667 0
0.9 0.066666667 0
0.93333333 0.066666667 0
0.96666667 0.066666667 0
1 0.066666667 0
0 0.1 0
0.033333333 0.1 0
0.066666667 0.1 0
0.1 0.1 0
0.13333333 0.1 0
0.16666667 0.1 0
0.2 0.1 0
0.23333333 0.1 0
0.26666667 0.1 0
0.3 0.1 0
0.33333333 0.1 0
0.36666667 0.1 0
0.4 0.1 0
0.43333333 0.1 0
0.46666667 0.1 0
0.5 0.1 0
0.53333333 0.1 0
0.56666667 0.1 0
0.6 0.1 0
0.63333333 0.1 0
0.66666667 0.1 0
0.7 0.1 0
0.73333333 0.1 0
0.76666667 0.1 0
0.8 0.1 0
0.83333333 0.1 0
0.86666667 0.1 0
0.9 0.1 0
0.93333333 0.1 0
0.96666667 0.1 0
1 0.1 0
0 0.13333333 0
0.033333333 0.13333333 0
0.066666667 0.13333333 0
0.1 0.13333333 0
0.13333333 0.13333333 0
0.16666667 0.13333333 0
0.2 0.13333333 0
0.23333333 0.13333333 0
0.26666667 0.13333333 0
0.3 0.13333333 0
0.33333333 0.13333333 0
0.36666667 0.13333333 0
0.4 0.13333333 0
0.43333333 0.13333333 0
0.46666667 0.13333333 0
0.5 0.13333333 0
0.53333333 0.13333333 0
0.56666667 0.13333333 0
0.6 0.13333333 0
0.63333333 0.13333333 0
0.66666667 0.13333333 0
0.7 0.13333333 0
0.73333333 0.13333333 0
0.76666667 0.13333333 0
0.8 0.13333333 0
0.83333333 0.13333333 0
0.86666667 0.13333333 0
0.9 0.13333333 0
0.93333333 0.13333333 0
0.96666667 0.13333333 0
1 0.13333333 0
0 0.16666667 0
0.033333333 0.16666667 0
0.066666667 0.16666667 0
0.1 0.16666667 0
0.13333333 0.16666667 0
0.16666667 0.16666667 0
0.2 0.16666667 0
0.23333333 0.16666667 0
0.26666667 0.16666667 0
0.3 0.16666667 0
0.33333333 0.16666667 0
0.36666667 0.16666667 0
0.4 0.16666667 0
0.43333333 0.16666667 0
0.46666667 0.16666667 0
0.5 0.16666667 0
0.53333333 0.16666667 0
0.56666667 0.16666667 0
0.6 0.16666667 0
0.63333333 0.16666667 0
0.66666667 0.16666667 0
0.7 0.16666667 0
0.73333333 0.16666667 0
0.76666667 0.16666667 0
0.8 0.16666667 0
0.83333333 0.16666667 0
0.86666667 0.16666667 0
0.9 0.16666667 0
0.93333333 0.16666667 0
0.96666667 0.16666667 0
1 0.16666667 0
0 0.2 0
0.033333333 0.2 0
0.066666667 0.2 0
0.1 0.2 0
0.13333333 0.2 0
0.16666667 0.2 0
0.2 0.2 0
0.23333333 0.2 0
0.26666667 0.2 0
0.3 0.2 0
0.33333333 0.2 0
0.36666667 0.2 0
0.4 0.2 0
0.43333333 0.2 0
0.46666667 0.2 0
0.5 0.2 0
0.53333333 0.2 0
0.56666667 0.2 0
0.6 0.2 0
0.63333333 0.2 0
0.66666667 0.2 0
0.7 0.2 0
0.73333333 0.2 0
0.76666667 0.2 0
0.8 0.2 0
0.83333333 0.2 0
0.86666667 0.2 0
0.9 0.2 0
0.93333333 0.2 0
0.96666667 0.2 0
1 0.2 0
0 0.23333333 0
0.033333333 0.23333333 0
0.066666667 0.23333333 0
0.1 0.23333333 0
0.13333333 0.23333333 0
0.16666667 0.23333333 0
0.2 0.23333333 0
0.23333333 0.23333333 0
0.26666667 0.23333333 0
0.3 0.23333333 0
0.33333333 0.23333333 0
0.36666667 0.23333333 0
0.4 0.23333333 0
0.43333333 0.23333333 0
0.46666667 0.23333333 0
0.5 0.23333333 0
0.53333333 0.23333333 0
0.56666667 0.23333333 0
0.6 0.23333333 0
0.63333333 0.23333333 0
0.66666667 0.23333333 0
0.7 0.23333333 0
0.73333333 0.23333333 0
0.76666667 0.23333333 0
0.8 0.23333333 0
0.83333333 0.23333333 0
0.86666667 0.23333333 0
0.9 0.23333333 0
0.93333333 0.23333333 0
0.96666667 0.23333333 0
1 0.23333333 0
0 0.26666667 0
0.033333333 0.26666667 0
0.066666667 0.26666667 0
0.1 0.26666667 0
0.13333333 0.26666667 0
0.16666667 0.26666667 0
0.2 0.26666667 0
0.23333333 0.26666667 0
0.26666667 0.26666667 0
0.3 0.26666667 0
0.33333333 0.26666667 0
0.36666667 0.26666667 0
0.4 0.26666667 0
0.43333333 0.26666667 0
0.46666667 0.26666667 0
0.5 0.26666667 0
0.53333333 0.26666667 0
0.56666667 0.26666667 0
0.6 0.26666667 0
0.63333333 0.26666667 0
0.66666667 0.26666667 0
0.7 0.26666667 0
0.73333333 0.26666667 0
0.76666667 0.26666667 0
0.8 0.26666667 0
0.83333333 0.26666667 0
0.86666667 0.26666667 0
0.9 0.26666667 0
0.93333333 0.26666667 0
0.96666667 0.26666667 0
1 0.26666667 0
0 0.3 0
0.033333333 0.3 0
0.066666667 0.3 0
0.1 0.3 0
0.13333333 0.3 0
0.16666667 0.3 0
0.2 0.3 0
0.23333333 0.3 0
0.26666667 0.3 0
0.3 0.3 0
0.33333333 0.3 0
0.36666667 0.3 0
0.4 0.3 0
0.43333333 0.3 0
0.46666667 0.3 0
0.5 0.3 0
0.53333333 0.3 0
0.56666667 0.3 0
0.6 0.3 0
0.63333333 0.3 0
0.66666667 0.3 0
0.7 0.3 0
0.73333333 0.3 0
0.76666667 0.3 0
0.8 0.3 0
0.83333333 0.3 0
0.86666667 0.3 0
0.9 0.3 0
0.93333333 0.3 0
0.96666667 0.3 0
1 0.3 0
0 0.33333333 0
0.033333333 0.33333333 0
0.066666667 0.33333333 0
0.1 0.33333333 0
0.13333333 0.33333333 0
0.16666667 0.33333333 0
0.2 0.33333333 0
0.23333333 0.33333333 0
0.26666667 0.33333333 0
0.3 0.33333333 0
0.33333333 0.33333333 0
0.36666667 0.33333333 0
0.4 0.33333333 0
0.43333333 0.33333333 0
0.46666667 0.33333333 0
0.5 0.33333333 0
0.53333333 0.33333333 0
0.56666667 0.33333333 0
0.6 0.33333333 0
0.63333333 0.33333333 0
0.66666667 0.33333333 0
0.7 0.33333333 0
0.73333333 0.33333333 0
0.76666667 0.33333333 0
0.8 0.33333333 0
0.83333333 0.33333333 0
0.86666667 0.33333333 0
0.9 0.33333333 0
0.93333333 0.33333333 0
0.96666667 0.33333333 0
1 0.33333333 0
0 0.36666667 0
0.033333333 0.36666667 0
0.066666667 0.36666667 0
0.1 0.36666667 0
0.13333333 0.36666667 0
0.16666667 0.36666667 0
0.2 0.36666667 0
0.23333333 0.36666667 0
0.26666667 0.36666667 0
0.3 0.36666667 0
0.33333333 0.36666667 0
0.36666667 0.36666667 0
0.4 0.36666667 0
0.43333333 0.36666667 0
0.46666667 0.36666667 0
0.5 0.36666667 0
0.53333333 0.36666667 0
0.56666667 0.36666667 0
0.6 0.36666667 0
0.63333333 0.36666667 0
0.66666667 0.36666667 0
0.7 0.36666667 0
0.73333333 0.36666667 0
0.76666667 0.36666667 0
0.8 0.36666667 0
0.83333333 0.36666667 0
0.86666667 0.36666667 0
0.9 0.36666667 0
0.93333333 0.36666667 0
0.96666667 0.36666667 0
1 0.36666667 0
0 0.4 0
0.033333333 0.4 0
0.066666667 0.4 0
0.1 0.4 0
0.13333333 0.4 0
0.16666667 0.4 0
0.2 0.4 0
0.23333333 0.4 0
0.26666667 0.4 0
0.3 0.4 0
0.33333333 0.4 0
0.36666667 0.4 0
0.4 0.4 0
0.43333333 0.4 0
0.46666667 0.4 0
0.5 0.4 0
0.53333333 0.4 0
0.56666667 0.4 0
0.6 0.4 0
0.63333333 0.4 0
0.66666667 0.4 0
0.7 0.4 0
0.73333333 0.4 0
0.76666667 0.4 0
0.8 0.4 0
0.83333333 0.4 0
0.86666667 0.4 0
0.9 0.4 0
0.93333333 0.4 0
0.96666667 0.4 0
1 0.4 0
0 0.43333333 0
0.033333333 0.43333333 0
0.066666667 0.43333333 0
0.1 0.43333333 0
0.13333333 0.43333333 0
0.16666667 0.43333333 0
0.2 0.43333333 0
0.23333333 0.43333333 0
0.26666667 0.43333333 0
0.3 0.43333333 0
0.33333333 0.43333333 0
0.36666667 0.43333333 0
0.4 0.43333333 0
0.43333333 0.43333333 0
0.46666667 0.43333333 0
0.5 0.43333333 0
0.53333333 0.43333333 0
0.56666667 0.43333333 0
0.6 0.43333333 0
0.63333333 0.43333333 0
0.66666667 0.43333333 0
0.7 0.43333333 0
0.73333333 0.43333333 0
0.76666667 0.43333333 0
0.8 0.43333333 0
0.83333333 0.43333333 0
0.86666667 0.43333333 0
0.9 0.43333333 0
0.93333333 0.43333333 0
0.96666667 0.43333333 0
1 0.43333333 0
0 0.46666667 0
0.033333333 0.46666667 0
0.066666667 0.46666667 0
0.1 0.46666667 0
0.13333333 0.46666667 0
0.16666667 0.46666667 0
0.2 0.46666667 0
0.23333333 0.46666667 0
0.26666667 0.46666667 0
0.3 0.46666667 0
0.33333333 0.46666667 0
0.36666667 0.46666667 0
0.4 0.46666667 0
0.43333333 0.46666667 0
0.46666667 0.46666667 0
0.5 0.46666667 0
0.53333333 0.46666667 0
0.56666667 0.46666667 0
0.6 0.46666667 0
0.63333333 0.46666667 0
0.66666667 0.46666667 0
0.7 0.46666667 0
0.73333333 0.46666667 0
0.76666667 0.46666667 0
0.8 0.46666667 0
0.83333333 0.46666667 0
0.86666667 0.46666667 0
0.9 0.46666667 0
0.93333333 0.46666667 0
0.96666667 0.46666667 0
1 0.46666667 0
0 0.5 0
0.033333333 0.5 0
0.066666667 0.5 0
0.1 0.5 0
0.13333333 0.5 0
0.16666667 0.5 0
0.2 0.5 0
0.23333333 0.5 0
0.26666667 0.5 0
0.3 0.5 0
0.33333333 0.5 0
0.36666667 0.5 0
0.4 0.5 0
0.43333333 0.5 0
0.46666667 0.5 0
0.5 0.5 0
0.53333333 0.5 0
0.56666667 0.5 0
0.6 0.5 0
0.63333333 0.5 0
0.66666667 0.5 0
0.7 0.5 0
0.73333333 0.5 0
0.76666667 0.5 0
0.8 0.5 0
0.83333333 0.5 0
0.86666667 0.5 0
0.9 0.5 0
0.93333333 0.5 0
0.96666667 0.5 0
1 0.5 0
0 0.53333333 0
0.033333333 0.53333333 0
0.066666667 0.53333333 0
0.1 0.53333333 0
0.13333333 0.53333333 0
0.16666667 0.53333333 0
0.2 0.53333333 0
0.23333333 0.53333333 0
0.26666667 0.53333333 0
0.3 0.53333333 0
0.33333333 0.53333333 0
0.36666667 0.53333333 0
0.4 0.53333333 0
0.43333333 0.53333333 0
0.46666667 0.53333333 0
0.5 0.53333333 0
0.53333333 0.53333333 0
0.56666667 0.53333333 0
0.6 0.53333333 0
0.63333333 0.53333333 0
0.66666667 0.53333333 0
0.7 0.53333333 0
0.73333333 0.53333333 0
0.76666667 0.53333333 0
[...]
CELL_DATA 1920
Scalars  Label int 1
LOOKUP_TABLE FreeFempp_table
0
0
0
0
0
0
0
0
0
0
0
0
0
0
0
0
0
0
0
0
0
0
0
0
0
0
0
0
0
0
0
0
0
0
0
0
0
0
0
0
0
0
0
0
0
0
0
0
0
0
0
0
0
0
0
0
0
0
0
0
0
0
0
0
0
0
0
0
0
0
0
0
0
0
0
0
0
0
0
0
0
0
0
0
0
0
0
0
0
0
0
0
0
0
0
0
0
0
0
0
0
0
0
0
0
0
0
0
0
0
0
0
0
0
0
0
0
0
0
0
0
0
0
0
0
0
0
0
0
0
0
0
0
0
0
0
0
0
0
0
0
0
0
0
0
0
0
0
0
0
0
0
0
0
0
0
0
0
0
0
0
0
0
0
0
0
0
0
0
0
0
0
0
0
0
0
0
0
0
0
0
0
0
0
0
0
0
0
0
0
0
0
0
0
0
0
0
0
0
0
0
0
0
0
0
0
0
0
0
0
0
0
0
0
0
0
0
0
0
0
0
0
0
0
0
0
0
0
0
0
0
0
0
0
0
0
0
0
0
0
0
0
0
0
0
0
0
0
0
0
0
0
0
0
0
0
0
0
0
0
0
0
0
0
0
0
0
0
0
0
0
0
0
0
0
0
0
0
0
0
0
0
0
0
0
0
0
0
0
0
0
0
0
0
0
0
0
0
0
0
0
0
0
0
0
0
0
0
0
0
0
0
0
0
0
0
0
0
0
0
0
0
0
0
0
0
0
0
0
0
0
0
0
0
0
0
0
0
0
0
0
0
0
0
0
0
0
0
0
0
0
0
0
0
0
0
0
0
0
0
0
0
0
0
0
0
0
0
0
0
0
0
0
0
0
0
0
0
0
0
0
0
0
0
0
0
0
0
0
0
0
0
0
0
0
0
0
0
0
0
0
0
0
0
0
0
0
0
0
0
0
0
0
0
0
0
0
0
0
0
0
0
0
0
0
0
0
0
0
0
0
0
0
0
0
0
0
0
0
0
0
0
0
0
0
0
0
0
0
0
0
0
0
0
0
0
0
0
0
0
0
0
0
0
0
0
0
0
0
0
0
0
0
0
0
0
0
0
0
0
0
0
0
0
0
0
0
0
0
0
0
0
0
0
0
0
0
0
0
0
0
0
0
0
0
0
0
0
0
0
0
0
0
0
0
0
0
0
0
0
0
0
0
0
0
0
0
0
0
0
0
0
0
0
0
0
0
0
0
0
0
0
0
0
0
0
0
0
0
0
0
0
0
0
0
0
0
0
0
0
0
0
0
0
0
0
0
0
0
0
0
0
0
0
0
0
0
0
0
0
0
0
0
0
0
0
0
0
0
0
0
0
0
0
0
0
0
0
0
0
0
0
0
0
0
0
0
0
0
0
0
0
0
0
0
0
0
0
0
0
0
0
0
0
0
0
0
0
0
0
0
0
0
0
0
0
0
0
0
0
0
0
0
0
0
0
0
0
0
0
0
0
0
0
0
0
0
0
0
0
0
0
0
0
0
0
0
0
0
0
0
0
0
0
0
0
0
0
0
0
0
0
0
0
0
0
0
0
0
0
0
0
0
0
0
0
0
0
0
0
0
0
0
0
0
0
0
0
0
0
0
0
0
0
0
0
0
0
0
0
0
0
0
0
0
0
0
0
0
0
0
0
0
0
0
0
0
0
0
0
0
0
0
0
0
0
0
0
0
0
0
0
0
0
0
0
0
0
0
0
0
0
0
0
0
0
0
0
0
0
0
0
0
0
0
0
0
0
0
0
0
0
0
0
0
0
0
0
0
0
0
0
0
0
0
0
0
0
0
0
0
0
0
0
0
0
0
0
0
0
0
0
0
0
0
0
0
0
0
0
0
0
0
0
0
0
0
0
0
0
0
0
0
0
0
0
0
0
0
0
0
0
0
0
0
0
0
0
0
0
0
0
0
0
0
0
0
0
0
0
0
0
0
0
0
0
0
0
0
0
0
0
0
0
0
0
0
0
0
0
0
0
0
0
0
0
0
0
0
0
0
0
0
0
0
0
0
0
0
0
0
0
0
0
0
0
0
0
0
0
0
0
0
0
0
0
0
0
0
0
0
0
0
0
0
0
0
0
0
0
0
0
0
0
0
0
0
0
0
0
0
0
0
0
0
0
0
0
0
0
0
0
0
0
0
0
0
0
0
0
0
0
0
0
0
0
0
0
0
0
0
0
0
0
0
0
0
0
0
0
0
0
0
0
0
0
0
0
0
0
0
0
0
0
0
0
0
0
0
0
0
0
0
0
0
0
0
0
0
0
0
0
0
0
0
0
0
0
0
0
0
0
0
0
0
0
0
0
0
0
0
0
0
0
0
0
0
0
0
0
0
0
0
0
0
0
0
0
0
0
0
0
0
0
0
0
0
0
0
0
0
0
0
0
0
0
0
0
0
0
0
0
0
0
0
0
0
0
0
0
0
0
0
0
0
0
0
0
0
0
0
0
0
0
0
0
0
0
0
0
0
0
0
0
0
0
0
0
0
0
0
0
0
0
0
0
0
0
0
0
0
0
0
0
0
0
0
0
0
0
0
0
0
0
0
0
0
0
0
0
0
0
0
0
0
0
0
0
0
0
0
0
0
0
0
0
0
0
0
0
0
0
0
0
0
0
0
0
0
0
0
0
0
0
0
0
0
0
0
0
0
0
0
0
0
0
0
0
0
0
0
0
0
0
0
0
0
0
0
0
0
0
0
0
0
0
0
0
0
0
0
0
0
0
0
0
0
0
0
0
0
0
0
0
0
0
0
0
0
0
0
0
0
0
0
0
0
0
0
0
0
0
0
0
0
0
0
0
0
0
0
0
0
0
0
0
0
0
0
0
0
0
0
0
0
0
0
0
0
0
0
0
0
0
0
0
0
0
0
0
0
0
0
0
0
0
0
0
0
0
0
0
0
0
0
0
0
0
0
0
0
0
0
0
0
0
0
0
0
0
0
0
0
0
0
0
0
0
0
0
0
0
0
0
0
0
0
0
0
0
0
0
0
0
0
0
0
0
0
0
0
0
0
0
0
0
0
0
0
0
0
0
0
0
0
0
0
0
0
0
0
0
0
0
0
0
0
0
0
0
0
0
0
0
0
0
0
0
0
0
0
0
0
0
0
0
0
0
0
0
0
0
0
0
0
0
0
0
0
0
0
0
0
0
0
0
0
0
0
0
0
0
0
0
0
0
0
0
0
0
0
0
0
0
0
0
0
0
0
0
0
0
0
0
0
0
0
0
0
0
0
0
0
0
0
0
0
0
0
0
0
0
0
0
0
0
0
0
0
0
0
0
0
0
0
0
0
0
0
0
0
0
0
0
0
0
0
0
0
0
0
0
0
0
0
0
0
0
0
0
0
0
0
0
0
0
0
0
0
0
0
0
0
0
0
0
0
0
0
0
0
0
0
0
0
0
0
0
0
0
0
0
0
0
0
0
0
0
0
0
0
0
0
0
0
0
0
0
0
0
0
0
0
0
0
0
0
0
0
0
0
0
0
0
0
0
0
0
0
0
0
0
0
0
0
0
0
0
0
0
0
0
0
0
0
0
0
0
0
0
0
0
0
0
0
0
0
0
0
0
0
0
0
0
0
0
0
0
0
0
0
0
0
0
0
0
0
0
0
0
0
0
0
0
0
0
0
0
0
0
0
0
0
0
0
0
0
0
0
0
0
0
0
0
0
0
0
0
0
0
0
0
0
0
0
0
0
0
0
0
0
0
0
0
0
0
0
0
0
0
0
0
0
0
0
0
0
0
0
0
0
0
0
0
0
0
0
0
0
0
0
0
0
0
0
0
0
0
0
0
0
0
0
0
0
0
0
0
0
0
0
0
0
0
0
0
0
0
0
0
0
0
0
0
0
0
0
0
0
0
0
0
0
0
0
0
0
0
0
0
0
0
0
0
0
0
0
0
0
0
0
0
0
0
0
0
0
0
0
0
0
0
0
0
0
0
0
0
0
0
0
0
0
0
0
0
0
0
0
0
0
0
0
0
0
0
0
0
0
0
0
0
0
0
0
0
0
0
0
0
0
0
0
0
0
0
0
0
0
0
1
1
1
1
1
1
1
1
1
1
1
1
1
1
1
1
1
1
1
1
1
1
1
1
1
1
1
1
1
1
2
2
2
2
2
2
2
2
2
2
2
2
2
2
2
2
2
2
2
2
2
2
2
2
2
2
2
2
2
2
3
3
3
3
3
3
3
3
3
3
3
3
3
3
3
3
3
3
3
3
3
3
3
3
3
3
3
3
3
3
4
4
4
4
4
4
4
4
4
4
4
4
4
4
4
4
4
4
4
4
4
4
4
4
4
4
4
4
4
4

LOOKUP_TABLE FreeFempp_table 5
1.00000000 0.00000000 0.00000000 1.00000000
1.00000000 1.00000000 0.00000000 1.00000000
1.00000000 0.00000000 1.00000000 1.00000000
0.00000000 1.00000000 0.00000000 1.00000000
0.00000000 1.00000000 1.00000000 1.00000000

POINT_DATA 961
FIELD FieldData 1
Density 1 961 float
5.48521519e-01 5.09102762e-01 5.08138180e-01 5.07892132e-01 5.07821083e-01 5.07979333e-01 5.08560658e-01 5.09895027e-01 5.13109505e-01 5.18409669e-01 4.81442690e-01 5.99624142e-02 2.90479837e-03 4.67982050e-03 2.00334892e-01 7.20703661e-01 7.80787408e-01 7.05144584e-01 6.10357702e-01 6.14011407e-01 6.22707307e-01 6.17833138e-01 6.15165234e-01 6.12484455e-01 6.09814286e-01 6.08519435e-01 6.08354211e-01 6.08789861e-01 6.09378159e-01 6.06022179e-01 6.17453039e-01 5.15031695e-01 4.12496775e-01 4.11079556e-01 4.11268979e-01 4.11671638e-01 4.12151068e-01 4.12582964e-01 4.13301706e-01 4.15345937e-01 4.18020606e-01 3.84109497e-01 9.28587615e-02 2.82543316e-03 2.36394024e-03 5.95925599e-02 7.05060720e-01 8.71311426e-01 8.40133846e-01 6.84820354e-01 6.36471391e-01 6.37700379e-01 6.22717261e-01 6.10751092e-01 6.02821708e-01 5.95034659e-01 5.89051843e-01 5.85657954e-01 5.84625006e-01 5.84777892e-01 5.79988301e-01 6.02890968e-01 5.81106928e-04 5.35154017e-04 5.47502015e-04 5.36708569e-04 5.17048582e-04 5.08112076e-04 5.07548451e-04 5.10671700e-04 5.57477470e-04 6.47696783e-04 6.12077012e-04 6.73815026e-04 6.71464950e-04 9.81961493e-04 2.98424698e-02 6.29217744e-01 8.79939616e-01 7.94742644e-01 5.75795054e-01 6.99211061e-01 6.96273565e-01 6.39637470e-01 6.26438081e-01 6.19038522e-01 5.99961996e-01 5.85418284e-01 5.74856758e-01 5.68672836e-01 5.66234291e-01 5.60761452e-01 5.95236242e-01 7.95861823e-04 4.84999677e-04 5.47919539e-04 5.44019102e-04 5.25625539e-04 5.09977748e-04 5.06544602e-04 5.06541401e-04 5.23265626e-04 6.07386930e-04 6.34186435e-04 6.38573780e-04 5.77886181e-04 4.59337520e-04 4.70874744e-04 4.82244126e-04 9.18004155e-01 5.85525990e-01 3.58490981e-02 2.57211141e-02 3.20214301e-01 5.51987410e-01 5.70428133e-01 6.09604359e-01 5.95946729e-01 5.78330874e-01 5.57660162e-01 5.44019282e-01 5.37627161e-01 5.31928718e-01 5.82232177e-01 5.01855671e-01 3.81648898e-01 3.76654327e-01 3.74748915e-01 3.72924030e-01 3.73068243e-01 3.75648201e-01 3.80975872e-01 3.88878763e-01 3.98518980e-01 4.02686685e-01 3.14598769e-01 2.26875804e-02 1.57888397e-03 5.89526084e-04 3.46557965e-04 3.50574584e-04 9.80850875e-01 1.55699672e-02 5.80186304e-03 3.42655554e-03 2.81751552e-03 3.18364240e-03 8.55630077e-03 1.31094083e-01 4.88088489e-01 5.07264197e-01 5.07190883e-01 5.01090705e-01 4.96877313e-01 5.65148890e-01 5.24058759e-01 4.09390330e-01 4.01981354e-01 3.99115443e-01 3.96255285e-01 3.94276708e-01 3.93869251e-01 3.95043522e-01 3.97568345e-01 4.01136100e-01 4.03878391e-01 3.99364352e-01 3.91853213e-01 3.97964150e-01 3.90331298e-01 1.05635084e-01 4.62676486e-04 4.10294539e-04 9.90059078e-01 1.85338669e-02 5.51680429e-03 3.22523643e-03 2.02267198e-03 1.33773731e-03 1.20850932e-03 1.26002729e-03 2.30956282e-02 4.50174391e-01 4.61536705e-01 4.64927435e-01 5.48001111e-01 5.48497677e-01 4.58095968e-01 4.54017043e-01 4.49794322e-01 4.45447654e-01 4.41162974e-01 4.37261194e-01 4.33836281e-01 4.30957019e-01 4.28877175e-01 4.27468657e-01 4.24754888e-01 4.18374151e-01 4.14881378e-01 4.17142928e-01 4.15205181e-01 4.14782643e-01 3.74245312e-04 4.30766377e-04 9.95246291e-01 9.52059031e-01 2.61592478e-01 2.99368054e-02 3.30289477e-03 1.46494166e-03 7.51946762e-04 6.65728527e-04 9.09959991e-03 4.30152595e-01 4.44431782e-01 5.36236465e-01 5.72982371e-01 5.06607771e-01 5.05574286e-01 5.00447392e-01 4.94406253e-01 4.87943143e-01 4.81446773e-01 4.75243330e-01 4.69678283e-01 4.65113372e-01 4.61562783e-01 4.58059430e-01 4.53169882e-01 4.47642416e-01 4.43082124e-01 4.36870128e-01 4.27749902e-01 4.18867737e-01 4.72483749e-04 5.16743166e-04 8.56547267e-04 9.84101057e-01 8.94818127e-01 8.87274981e-01 8.52388978e-01 3.13220322e-02 6.69357774e-04 6.69434376e-04 6.74725277e-03 4.30090964e-01 5.30697644e-01 5.96993089e-01 5.55226028e-01 5.55008650e-01 5.49136281e-01 5.42015254e-01 5.34228802e-01 5.26347518e-01 5.18887639e-01 5.12292624e-01 5.06844759e-01 5.02462983e-01 4.98568267e-01 4.94441450e-01 4.89976436e-01 4.85254675e-01 4.79299396e-01 4.71034735e-01 4.57964212e-01 4.49391156e-01 6.71451038e-04 4.94173786e-04 5.67564624e-04 8.39871705e-01 8.74070287e-01 8.84939909e-01 9.48364317e-01 9.90599096e-01 6.07434777e-04 5.63020934e-04 6.53831381e-03 5.23277462e-01 6.18476570e-01 6.00160539e-01 5.98863602e-01 5.92399001e-01 5.84694803e-01 5.76413393e-01 5.68232656e-01 5.60742736e-01 5.54377496e-01 5.49331605e-01 5.45496941e-01 5.42533457e-01 5.40108502e-01 5.37984848e-01 5.35690486e-01 5.32484353e-01 5.27804554e-01 5.21185756e-01 5.14503300e-01 5.06260514e-01 4.86098617e-01 8.69900221e-04 4.79545415e-04 3.61494988e-01 2.33818516e-01 6.19609468e-02 3.56798060e-02 9.58660483e-01 6.80666300e-04 6.90779183e-04 6.92548184e-03 6.34662986e-01 6.35829687e-01 6.32361472e-01 6.25364423e-01 6.17189944e-01 6.08770907e-01 6.00871444e-01 5.94071627e-01 5.88720322e-01 5.84916174e-01 5.82531691e-01 5.81325829e-01 5.81077218e-01 5.81515610e-01 5.82134128e-01 5.82383633e-01 5.82009733e-01 5.81282437e-01 5.81734955e-01 5.82849264e-01 5.75857699e-01 5.47196746e-01 7.34001282e-04 8.93072109e-04 1.61352300e-03 1.70645188e-03 6.14005607e-03 1.31312767e-02 9.95083988e-01 7.34707748e-04 1.03356328e-03 6.43021703e-01 6.57186508e-01 6.51331842e-01 6.43450201e-01 6.34390116e-01 6.25587821e-01 6.17949605e-01 6.11968517e-01 6.07802629e-01 6.05384588e-01 6.04504347e-01 6.04901671e-01 6.06334627e-01 6.08536363e-01 6.11189008e-01 6.14165962e-01 6.17840648e-01 6.23385549e-01 6.33004189e-01 6.47629976e-01 6.63342893e-01 6.83962882e-01 7.00904548e-01 1.32045103e-03 1.54609221e-03 1.55316619e-03 3.29192728e-03 6.70743082e-03 9.31727052e-01 1.34496996e-03 1.23646401e-03 6.42577410e-01 6.61723077e-01 6.53507352e-01 6.43565476e-01 6.32564425e-01 6.22705877e-01 6.15040779e-01 6.09803915e-01 6.06769085e-01 6.05549634e-01 6.05740666e-01 6.06966734e-01 6.08899951e-01 6.11262977e-01 6.13906443e-01 6.17040336e-01 6.21465623e-01 6.28708303e-01 6.40862107e-01 6.59342527e-01 6.83798075e-01 7.17002928e-01 7.74035573e-01 8.42955351e-01 6.76718414e-01 2.70256221e-01 2.25211263e-01 2.44126931e-01 9.83770072e-01 1.28901668e-03 1.21102051e-03 6.34863257e-01 6.50441706e-01 6.38693690e-01 6.23521447e-01 6.08430028e-01 5.96959889e-01 5.89599311e-01 5.85700452e-01 5.84358633e-01 5.84666848e-01 5.85887253e-01 5.87453485e-01 5.88917136e-01 5.89957118e-01 5.90489447e-01 5.90845942e-01 5.91879487e-01 5.94879150e-01 6.01152122e-01 6.11231685e-01 6.24819458e-01 6.43398762e-01 6.72299445e-01 7.14138091e-01 7.97907412e-01 8.18911374e-01 7.10562289e-01 7.77126372e-01 9.82770979e-01 1.49156665e-03 1.30102411e-03 6.23699605e-01 6.28327489e-01 6.09120011e-01 5.82084537e-01 5.58532119e-01 5.45480371e-01 5.40518463e-01 5.40212989e-01 5.42571485e-01 5.46077311e-01 5.49556911e-01 5.52215457e-01 5.53510487e-01 5.53113461e-01 5.51009476e-01 5.47620952e-01 5.43810010e-01 5.40662944e-01 5.39005280e-01 5.38832724e-01 5.39422035e-01 5.40436089e-01 5.42388678e-01 5.42772710e-01 5.35383880e-01 5.60841262e-01 6.05046868e-01 8.13661277e-01 9.71909046e-01 1.74830528e-03 1.55940361e-03 6.13393247e-01 6.03234351e-01 5.69854438e-01 5.19407034e-01 4.79931831e-01 4.66245294e-01 4.68647331e-01 4.76590425e-01 4.86233294e-01 4.96062726e-01 5.04588306e-01 5.10748565e-01 5.13947427e-01 5.13946354e-01 5.10916531e-01 5.05517781e-01 4.98852462e-01 4.92245793e-01 4.86889303e-01 4.83561307e-01 4.82809782e-01 4.85446155e-01 4.92599010e-01 5.05378127e-01 5.25604606e-01 5.76363385e-01 6.99517250e-01 8.74481857e-01 9.49545979e-01 1.92592945e-03 1.77748129e-03 6.06622338e-01 5.83078146e-01 5.29194176e-01 4.38622743e-01 3.75189722e-01 3.62725407e-01 3.76893520e-01 3.99246544e-01 4.21349436e-01 4.41589296e-01 4.58918154e-01 4.72064137e-01 4.80334640e-01 4.83629048e-01 4.82407123e-01 4.77686197e-01 4.70948219e-01 4.63951051e-01 4.58510667e-01 4.56397474e-01 4.59465057e-01 4.69777614e-01 4.89527076e-01 5.21529377e-01 5.71860254e-01 6.58328712e-01 7.86826968e-01 8.92888069e-01 8.59173715e-01 2.07678252e-03 1.93216803e-03 6.03304148e-01 5.72337091e-01 4.98477370e-01 3.53004187e-01 2.56096631e-01 2.46272296e-01 2.75208890e-01 3.14639151e-01 3.53607565e-01 3.88412327e-01 4.18307185e-01 4.41861540e-01 4.58159655e-01 4.67240006e-01 4.69953567e-01 4.67775643e-01 4.62610483e-01 4.56622899e-01 4.52130049e-01 4.51589465e-01 4.57678735e-01 4.73375052e-01 5.02296627e-01 5.49656630e-01 6.23687208e-01 7.31237948e-01 8.38809729e-01 8.87599707e-01 6.49369478e-01 2.30016839e-03 2.09121290e-03 6.01142168e-01 5.69353163e-01 4.86920178e-01 2.81691015e-01 1.49467811e-01 1.40260294e-01 1.78620666e-01 2.33026281e-01 2.89429605e-01 3.41451526e-01 3.86682689e-01 4.23012704e-01 4.49048191e-01 4.65032905e-01 4.72447336e-01 4.73433822e-01 4.70406294e-01 4.65908855e-01 4.62654561e-01 4.63660657e-01 4.72429752e-01 4.93289113e-01 5.32449543e-01 5.97843766e-01 6.95656121e-01 8.04540753e-01 8.64667773e-01 8.20504904e-01 5.81321381e-02 2.79562944e-03 2.34927959e-03 5.97826540e-01 5.67938864e-01 4.95762050e-01 2.40548685e-01 7.78634772e-02 6.72803149e-02 1.02804169e-01 1.63720414e-01 2.35137030e-01 3.05072844e-01 3.67013782e-01 4.16851819e-01 4.52494591e-01 4.74738955e-01 4.86177295e-01 4.89958018e-01 4.89155382e-01 4.86732572e-01 4.85854000e-01 4.90338475e-01 5.05067050e-01 5.36267698e-01 5.91828942e-01 6.76310241e-01 7.78698146e-01 8.50464284e-01 8.39593887e-01 3.28499377e-01 1.30277546e-02 4.08967305e-03 3.17048607e-03 5.92528164e-01 5.62366903e-01 5.16544521e-01 2.38623992e-01 4.19203043e-02 2.83456333e-02 5.40322997e-02 1.12080172e-01 1.95166394e-01 2.82822520e-01 3.61231804e-01 4.23246771e-01 4.66226280e-01 4.92396504e-01 5.06147027e-01 5.11924624e-01 5.13556182e-01 5.14504611e-01 5.18584669e-01 5.30817151e-01 5.57816088e-01 6.06392264e-01 6.79081559e-01 7.63906717e-01 8.33175898e-01 8.36378396e-01 4.90933925e-01 2.98390817e-02 7.42785539e-03 5.83868753e-03 5.73485950e-03 5.85521758e-01 5.50640702e-01 5.35123587e-01 2.82317370e-01 2.98693981e-02 1.21627515e-02 2.64494903e-02 7.80517086e-02 1.71340466e-01 2.77451098e-01 3.69830877e-01 4.39929575e-01 4.85937893e-01 5.12731731e-01 5.26945531e-01 5.34211755e-01 5.38950503e-01 5.45116425e-01 5.57253242e-01 5.81384301e-01 6.24361098e-01 6.88639760e-01 7.62948513e-01 8.18500400e-01 8.26046169e-01 5.85209966e-01 6.99498653e-02 1.30984634e-02 7.30922399e-03 7.57633895e-03 1.44557245e-02 5.77289701e-01 5.34209907e-01 5.41239560e-01 3.67404789e-01 3.21805216e-02 6.75565284e-03 1.25212222e-02 5.65019734e-02 1.64074868e-01 2.90625900e-01 3.91061485e-01 4.62191790e-01 5.05857944e-01 5.30318379e-01 5.43972015e-01 5.52897751e-01 5.61605394e-01 5.74276447e-01 5.95787644e-01 6.31836057e-01 6.86279058e-01 7.53489792e-01 8.12189639e-01 8.30299735e-01 7.30255663e-01 2.25842237e-01 3.37604731e-02 1.22232949e-02 1.09667731e-02 1.64502356e-02 1.23533614e-01 5.68261623e-01 5.15503645e-01 5.34092486e-01 4.55322981e-01 5.16999774e-02 5.16687427e-03 6.84284093e-03 4.09283303e-02 1.73775405e-01 3.21717978e-01 4.20079738e-01 4.83839989e-01 5.20559847e-01 5.41199803e-01 5.54431617e-01 5.65646648e-01 5.78731537e-01 5.97573161e-01 6.26625717e-01 6.69845045e-01 7.26759851e-01 7.86523521e-01 8.27341855e-01 8.17350626e-01 6.41936004e-01 1.98166102e-01 4.45009917e-02 2.63674669e-02 3.47666629e-02 9.08259898e-02 3.90607595e-01 5.58863580e-01 4.95972216e-01 5.17746508e-01 5.04511774e-01 1.17846675e-01 4.82758600e-03 4.90230229e-03 2.70010699e-02 2.01429829e-01 3.65480244e-01 4.49723870e-01 4.99312401e-01 5.26727676e-01 5.43671489e-01 5.57343304e-01 5.71412981e-01 5.88500857e-01 6.11649752e-01 6.44310534e-01 6.88477993e-01 7.40977168e-01 7.90367544e-01 8.18536580e-01 7.97881186e-01 6.48144126e-01 3.09958428e-01 1.55907229e-01 1.49166018e-01 2.29149729e-01 3.66326571e-01 5.19056201e-01 5.50067902e-01 4.77022618e-01 4.97089952e-01 5.17970920e-01 2.79419482e-01 5.53399837e-03 3.90082179e-03 1.46698011e-02 2.47866184e-01 4.11825538e-01 4.72982585e-01 5.05152702e-01 5.23343503e-01 5.37707567e-01 5.52722096e-01 5.69824219e-01 5.90053916e-01 6.15236461e-01 6.47623181e-01 6.87964439e-01 7.32668281e-01 7.72365630e-01 7.93552220e-01 7.78157234e-01 6.94466770e-01 5.43056607e-01 4.70183492e-01 5.03584504e-01 5.58585048e-01 5.91181338e-01 5.98838270e-01 5.43911517e-01 4.61832315e-01 4.76137429e-01 5.13243556e-01 4.33281779e-01 8.19259603e-03 3.00142774e-03 7.05856783e-03 3.10725123e-01 4.49709952e-01 4.84651953e-01 4.99886543e-01 5.10777891e-01 5.23948550e-01 5.40760458e-01 5.60701013e-01 5.83390534e-01 6.09258056e-01 6.39235258e-01 6.73450708e-01 7.09337592e-01 7.40685880e-01 7.58763492e-01 7.53953457e-01 7.19145358e-01 6.70018613e-01 6.48969173e-01 6.57128394e-01 6.67131782e-01 6.78697109e-01 6.46672308e-01 5.43047607e-01 4.55432802e-01 4.60384607e-01 4.95674491e-01 5.07547677e-01 1.84920430e-02 2.20696023e-03 3.61246569e-03 3.81141782e-01 4.71692473e-01 4.81982589e-01 4.84003693e-01 4.90508258e-01 5.03415525e-01 5.21693945e-01 5.43963313e-01 5.69059372e-01 5.96055388e-01 6.24258459e-01 6.53014958e-01 6.81025326e-01 7.05523372e-01 7.22226322e-01 7.26404548e-01 7.15856135e-01 6.96878970e-01 6.82139814e-01 6.77621841e-01 6.81406498e-01 6.91497922e-01 6.60939753e-01 5.51026464e-01 4.64727372e-01 4.60600704e-01 4.73589063e-01 5.13115764e-01 1.21723160e-01 1.81865261e-03 2.23425077e-03 4.44028348e-01 4.74972904e-01 4.66087639e-01 4.61149633e-01 4.65833992e-01 4.77979630e-01 4.96110469e-01 5.19506037e-01 5.47254205e-01 5.77656209e-01 6.08349502e-01 6.37032449e-01 6.62134945e-01 6.82736933e-01 6.97753191e-01 7.05231011e-01 7.03086436e-01 6.91933274e-01 6.77136898e-01 6.66608691e-01 6.65022850e-01 6.70601130e-01 6.53557003e-01 5.73803544e-01 5.02557874e-01 4.98190463e-01 4.96204466e-01 5.05997658e-01 4.84037310e-01 1.48183270e-03 1.82789692e-03 4.99427348e-01 4.62471426e-01 4.43986028e-01 4.37241763e-01 4.39446539e-01 4.48310643e-01 4.64260697e-01 4.88326877e-01 5.20667493e-01 5.59586585e-01 6.01275444e-01 6.40624046e-01 6.72847629e-01 6.94850206e-01 7.05482066e-01 7.04975486e-01 6.94512606e-01 6.76601410e-01 6.55736089e-01 6.37734234e-01 6.26851201e-01 6.26882911e-01 6.35437667e-01 6.14691794e-01 5.86213768e-01 5.87955475e-01 5.90107918e-01 5.86851597e-01 5.57028532e-01 2.53276248e-03 1.85525510e-03 6.27986431e-01 5.46997666e-01 5.31682730e-01 5.24960637e-01 5.22933900e-01 5.24840355e-01 5.31576216e-01 5.44076204e-01 5.62544823e-01 5.86023450e-01 6.12315238e-01 6.38278127e-01 6.60410881e-01 6.75548792e-01 6.81519926e-01 6.77776456e-01 6.65977836e-01 6.49938583e-01 6.34100974e-01 6.21400833e-01 6.12767577e-01 6.07880712e-01 6.17191792e-01 
