# vtk DataFile Version 2.0
results_case1_non_linear/4_density.vtk, Created by Freefem++ 
ASCII
DATASET UNSTRUCTURED_GRID
POINTS 961 float
0 0 0
0.033333333 0 0
0.066666667 0 0
0.1 0 0
0.13333333 0 0
0.16666667 0 0
0.2 0 0
0.23333333 0 0
0.26666667 0 0
0.3 0 0
0.33333333 0 0
0.36666667 0 0
0.4 0 0
0.43333333 0 0
0.46666667 0 0
0.5 0 0
0.53333333 0 0
0.56666667 0 0
0.6 0 0
0.63333333 0 0
0.66666667 0 0
0.7 0 0
0.73333333 0 0
0.76666667 0 0
0.8 0 0
0.83333333 0 0
0.86666667 0 0
0.9 0 0
0.93333333 0 0
0.96666667 0 0
1 0 0
0 0.033333333 0
0.033333333 0.033333333 0
0.066666667 0.033333333 0
0.1 0.033333333 0
0.13333333 0.033333333 0
0.16666667 0.033333333 0
0.2 0.033333333 0
0.23333333 0.033333333 0
0.26666667 0.033333333 0
0.3 0.033333333 0
0.33333333 0.033333333 0
0.36666667 0.033333333 0
0.4 0.033333333 0
0.43333333 0.033333333 0
0.46666667 0.033333333 0
0.5 0.033333333 0
0.53333333 0.033333333 0
0.56666667 0.033333333 0
0.6 0.033333333 0
0.63333333 0.033333333 0
0.66666667 0.033333333 0
0.7 0.033333333 0
0.73333333 0.033333333 0
0.76666667 0.033333333 0
0.8 0.033333333 0
0.83333333 0.033333333 0
0.86666667 0.033333333 0
0.9 0.033333333 0
0.93333333 0.033333333 0
0.96666667 0.033333333 0
1 0.033333333 0
0 0.066666667 0
0.033333333 0.066666667 0
0.066666667 0.066666667 0
0.1 0.066666667 0
0.13333333 0.066666667 0
0.16666667 0.066666667 0
0.2 0.066666667 0
0.23333333 0.066666667 0
0.26666667 0.066666667 0
0.3 0.066666667 0
0.33333333 0.066666667 0
0.36666667 0.066666667 0
0.4 0.066666667 0
0.43333333 0.066666667 0
0.46666667 0.066666667 0
0.5 0.066666667 0
0.53333333 0.066666667 0
0.56666667 0.066666667 0
0.6 0.066666667 0
0.63333333 0.066666667 0
0.66666667 0.066666667 0
0.7 0.066666667 0
0.73333333 0.066666667 0
0.76666667 0.066666667 0
0.8 0.066666667 0
0.83333333 0.066666667 0
0.86666667 0.066666667 0
0.9 0.066666667 0
0.93333333 0.066666667 0
0.96666667 0.066666667 0
1 0.066666667 0
0 0.1 0
0.033333333 0.1 0
0.066666667 0.1 0
0.1 0.1 0
0.13333333 0.1 0
0.16666667 0.1 0
0.2 0.1 0
0.23333333 0.1 0
0.26666667 0.1 0
0.3 0.1 0
0.33333333 0.1 0
0.36666667 0.1 0
0.4 0.1 0
0.43333333 0.1 0
0.46666667 0.1 0
0.5 0.1 0
0.53333333 0.1 0
0.56666667 0.1 0
0.6 0.1 0
0.63333333 0.1 0
0.66666667 0.1 0
0.7 0.1 0
0.73333333 0.1 0
0.76666667 0.1 0
0.8 0.1 0
0.83333333 0.1 0
0.86666667 0.1 0
0.9 0.1 0
0.93333333 0.1 0
0.96666667 0.1 0
1 0.1 0
0 0.13333333 0
0.033333333 0.13333333 0
0.066666667 0.13333333 0
0.1 0.13333333 0
0.13333333 0.13333333 0
0.16666667 0.13333333 0
0.2 0.13333333 0
0.23333333 0.13333333 0
0.26666667 0.13333333 0
0.3 0.13333333 0
0.33333333 0.13333333 0
0.36666667 0.13333333 0
0.4 0.13333333 0
0.43333333 0.13333333 0
0.46666667 0.13333333 0
0.5 0.13333333 0
0.53333333 0.13333333 0
0.56666667 0.13333333 0
0.6 0.13333333 0
0.63333333 0.13333333 0
0.66666667 0.13333333 0
0.7 0.13333333 0
0.73333333 0.13333333 0
0.76666667 0.13333333 0
0.8 0.13333333 0
0.83333333 0.13333333 0
0.86666667 0.13333333 0
0.9 0.13333333 0
0.93333333 0.13333333 0
0.96666667 0.13333333 0
1 0.13333333 0
0 0.16666667 0
0.033333333 0.16666667 0
0.066666667 0.16666667 0
0.1 0.16666667 0
0.13333333 0.16666667 0
0.16666667 0.16666667 0
0.2 0.16666667 0
0.23333333 0.16666667 0
0.26666667 0.16666667 0
0.3 0.16666667 0
0.33333333 0.16666667 0
0.36666667 0.16666667 0
0.4 0.16666667 0
0.43333333 0.16666667 0
0.46666667 0.16666667 0
0.5 0.16666667 0
0.53333333 0.16666667 0
0.56666667 0.16666667 0
0.6 0.16666667 0
0.63333333 0.16666667 0
0.66666667 0.16666667 0
0.7 0.16666667 0
0.73333333 0.16666667 0
0.76666667 0.16666667 0
0.8 0.16666667 0
0.83333333 0.16666667 0
0.86666667 0.16666667 0
0.9 0.16666667 0
0.93333333 0.16666667 0
0.96666667 0.16666667 0
1 0.16666667 0
0 0.2 0
0.033333333 0.2 0
0.066666667 0.2 0
0.1 0.2 0
0.13333333 0.2 0
0.16666667 0.2 0
0.2 0.2 0
0.23333333 0.2 0
0.26666667 0.2 0
0.3 0.2 0
0.33333333 0.2 0
0.36666667 0.2 0
0.4 0.2 0
0.43333333 0.2 0
0.46666667 0.2 0
0.5 0.2 0
0.53333333 0.2 0
0.56666667 0.2 0
0.6 0.2 0
0.63333333 0.2 0
0.66666667 0.2 0
0.7 0.2 0
0.73333333 0.2 0
0.76666667 0.2 0
0.8 0.2 0
0.83333333 0.2 0
0.86666667 0.2 0
0.9 0.2 0
0.93333333 0.2 0
0.96666667 0.2 0
1 0.2 0
0 0.23333333 0
0.033333333 0.23333333 0
0.066666667 0.23333333 0
0.1 0.23333333 0
0.13333333 0.23333333 0
0.16666667 0.23333333 0
0.2 0.23333333 0
0.23333333 0.23333333 0
0.26666667 0.23333333 0
0.3 0.23333333 0
0.33333333 0.23333333 0
0.36666667 0.23333333 0
0.4 0.23333333 0
0.43333333 0.23333333 0
0.46666667 0.23333333 0
0.5 0.23333333 0
0.53333333 0.23333333 0
0.56666667 0.23333333 0
0.6 0.23333333 0
0.63333333 0.23333333 0
0.66666667 0.23333333 0
0.7 0.23333333 0
0.73333333 0.23333333 0
0.76666667 0.23333333 0
0.8 0.23333333 0
0.83333333 0.23333333 0
0.86666667 0.23333333 0
0.9 0.23333333 0
0.93333333 0.23333333 0
0.96666667 0.23333333 0
1 0.23333333 0
0 0.26666667 0
0.033333333 0.26666667 0
0.066666667 0.26666667 0
0.1 0.26666667 0
0.13333333 0.26666667 0
0.16666667 0.26666667 0
0.2 0.26666667 0
0.23333333 0.26666667 0
0.26666667 0.26666667 0
0.3 0.26666667 0
0.33333333 0.26666667 0
0.36666667 0.26666667 0
0.4 0.26666667 0
0.43333333 0.26666667 0
0.46666667 0.26666667 0
0.5 0.26666667 0
0.53333333 0.26666667 0
0.56666667 0.26666667 0
0.6 0.26666667 0
0.63333333 0.26666667 0
0.66666667 0.26666667 0
0.7 0.26666667 0
0.73333333 0.26666667 0
0.76666667 0.26666667 0
0.8 0.26666667 0
0.83333333 0.26666667 0
0.86666667 0.26666667 0
0.9 0.26666667 0
0.93333333 0.26666667 0
0.96666667 0.26666667 0
1 0.26666667 0
0 0.3 0
0.033333333 0.3 0
0.066666667 0.3 0
0.1 0.3 0
0.13333333 0.3 0
0.16666667 0.3 0
0.2 0.3 0
0.23333333 0.3 0
0.26666667 0.3 0
0.3 0.3 0
0.33333333 0.3 0
0.36666667 0.3 0
0.4 0.3 0
0.43333333 0.3 0
0.46666667 0.3 0
0.5 0.3 0
0.53333333 0.3 0
0.56666667 0.3 0
0.6 0.3 0
0.63333333 0.3 0
0.66666667 0.3 0
0.7 0.3 0
0.73333333 0.3 0
0.76666667 0.3 0
0.8 0.3 0
0.83333333 0.3 0
0.86666667 0.3 0
0.9 0.3 0
0.93333333 0.3 0
0.96666667 0.3 0
1 0.3 0
0 0.33333333 0
0.033333333 0.33333333 0
0.066666667 0.33333333 0
0.1 0.33333333 0
0.13333333 0.33333333 0
0.16666667 0.33333333 0
0.2 0.33333333 0
0.23333333 0.33333333 0
0.26666667 0.33333333 0
0.3 0.33333333 0
0.33333333 0.33333333 0
0.36666667 0.33333333 0
0.4 0.33333333 0
0.43333333 0.33333333 0
0.46666667 0.33333333 0
0.5 0.33333333 0
0.53333333 0.33333333 0
0.56666667 0.33333333 0
0.6 0.33333333 0
0.63333333 0.33333333 0
0.66666667 0.33333333 0
0.7 0.33333333 0
0.73333333 0.33333333 0
0.76666667 0.33333333 0
0.8 0.33333333 0
0.83333333 0.33333333 0
0.86666667 0.33333333 0
0.9 0.33333333 0
0.93333333 0.33333333 0
0.96666667 0.33333333 0
1 0.33333333 0
0 0.36666667 0
0.033333333 0.36666667 0
0.066666667 0.36666667 0
0.1 0.36666667 0
0.13333333 0.36666667 0
0.16666667 0.36666667 0
0.2 0.36666667 0
0.23333333 0.36666667 0
0.26666667 0.36666667 0
0.3 0.36666667 0
0.33333333 0.36666667 0
0.36666667 0.36666667 0
0.4 0.36666667 0
0.43333333 0.36666667 0
0.46666667 0.36666667 0
0.5 0.36666667 0
0.53333333 0.36666667 0
0.56666667 0.36666667 0
0.6 0.36666667 0
0.63333333 0.36666667 0
0.66666667 0.36666667 0
0.7 0.36666667 0
0.73333333 0.36666667 0
0.76666667 0.36666667 0
0.8 0.36666667 0
0.83333333 0.36666667 0
0.86666667 0.36666667 0
0.9 0.36666667 0
0.93333333 0.36666667 0
0.96666667 0.36666667 0
1 0.36666667 0
0 0.4 0
0.033333333 0.4 0
0.066666667 0.4 0
0.1 0.4 0
0.13333333 0.4 0
0.16666667 0.4 0
0.2 0.4 0
0.23333333 0.4 0
0.26666667 0.4 0
0.3 0.4 0
0.33333333 0.4 0
0.36666667 0.4 0
0.4 0.4 0
0.43333333 0.4 0
0.46666667 0.4 0
0.5 0.4 0
0.53333333 0.4 0
0.56666667 0.4 0
0.6 0.4 0
0.63333333 0.4 0
0.66666667 0.4 0
0.7 0.4 0
0.73333333 0.4 0
0.76666667 0.4 0
0.8 0.4 0
0.83333333 0.4 0
0.86666667 0.4 0
0.9 0.4 0
0.93333333 0.4 0
0.96666667 0.4 0
1 0.4 0
0 0.43333333 0
0.033333333 0.43333333 0
0.066666667 0.43333333 0
0.1 0.43333333 0
0.13333333 0.43333333 0
0.16666667 0.43333333 0
0.2 0.43333333 0
0.23333333 0.43333333 0
0.26666667 0.43333333 0
0.3 0.43333333 0
0.33333333 0.43333333 0
0.36666667 0.43333333 0
0.4 0.43333333 0
0.43333333 0.43333333 0
0.46666667 0.43333333 0
0.5 0.43333333 0
0.53333333 0.43333333 0
0.56666667 0.43333333 0
0.6 0.43333333 0
0.63333333 0.43333333 0
0.66666667 0.43333333 0
0.7 0.43333333 0
0.73333333 0.43333333 0
0.76666667 0.43333333 0
0.8 0.43333333 0
0.83333333 0.43333333 0
0.86666667 0.43333333 0
0.9 0.43333333 0
0.93333333 0.43333333 0
0.96666667 0.43333333 0
1 0.43333333 0
0 0.46666667 0
0.033333333 0.46666667 0
0.066666667 0.46666667 0
0.1 0.46666667 0
0.13333333 0.46666667 0
0.16666667 0.46666667 0
0.2 0.46666667 0
0.23333333 0.46666667 0
0.26666667 0.46666667 0
0.3 0.46666667 0
0.33333333 0.46666667 0
0.36666667 0.46666667 0
0.4 0.46666667 0
0.43333333 0.46666667 0
0.46666667 0.46666667 0
0.5 0.46666667 0
0.53333333 0.46666667 0
0.56666667 0.46666667 0
0.6 0.46666667 0
0.63333333 0.46666667 0
0.66666667 0.46666667 0
0.7 0.46666667 0
0.73333333 0.46666667 0
0.76666667 0.46666667 0
0.8 0.46666667 0
0.83333333 0.46666667 0
0.86666667 0.46666667 0
0.9 0.46666667 0
0.93333333 0.46666667 0
0.96666667 0.46666667 0
1 0.46666667 0
0 0.5 0
0.033333333 0.5 0
0.066666667 0.5 0
0.1 0.5 0
0.13333333 0.5 0
0.16666667 0.5 0
0.2 0.5 0
0.23333333 0.5 0
0.26666667 0.5 0
0.3 0.5 0
0.33333333 0.5 0
0.36666667 0.5 0
0.4 0.5 0
0.43333333 0.5 0
0.46666667 0.5 0
0.5 0.5 0
0.53333333 0.5 0
0.56666667 0.5 0
0.6 0.5 0
0.63333333 0.5 0
0.66666667 0.5 0
0.7 0.5 0
0.73333333 0.5 0
0.76666667 0.5 0
0.8 0.5 0
0.83333333 0.5 0
0.86666667 0.5 0
0.9 0.5 0
0.93333333 0.5 0
0.96666667 0.5 0
1 0.5 0
0 0.53333333 0
0.033333333 0.53333333 0
0.066666667 0.53333333 0
0.1 0.53333333 0
0.13333333 0.53333333 0
0.16666667 0.53333333 0
0.2 0.53333333 0
0.23333333 0.53333333 0
0.26666667 0.53333333 0
0.3 0.53333333 0
0.33333333 0.53333333 0
0.36666667 0.53333333 0
0.4 0.53333333 0
0.43333333 0.53333333 0
0.46666667 0.53333333 0
0.5 0.53333333 0
0.53333333 0.53333333 0
0.56666667 0.53333333 0
0.6 0.53333333 0
0.63333333 0.53333333 0
0.66666667 0.53333333 0
0.7 0.53333333 0
0.73333333 0.53333333 0
0.76666667 0.53333333 0
[...]
CELL_DATA 1920
Scalars  Label int 1
LOOKUP_TABLE FreeFempp_table
0
0
0
0
0
0
0
0
0
0
0
0
0
0
0
0
0
0
0
0
0
0
0
0
0
0
0
0
0
0
0
0
0
0
0
0
0
0
0
0
0
0
0
0
0
0
0
0
0
0
0
0
0
0
0
0
0
0
0
0
0
0
0
0
0
0
0
0
0
0
0
0
0
0
0
0
0
0
0
0
0
0
0
0
0
0
0
0
0
0
0
0
0
0
0
0
0
0
0
0
0
0
0
0
0
0
0
0
0
0
0
0
0
0
0
0
0
0
0
0
0
0
0
0
0
0
0
0
0
0
0
0
0
0
0
0
0
0
0
0
0
0
0
0
0
0
0
0
0
0
0
0
0
0
0
0
0
0
0
0
0
0
0
0
0
0
0
0
0
0
0
0
0
0
0
0
0
0
0
0
0
0
0
0
0
0
0
0
0
0
0
0
0
0
0
0
0
0
0
0
0
0
0
0
0
0
0
0
0
0
0
0
0
0
0
0
0
0
0
0
0
0
0
0
0
0
0
0
0
0
0
0
0
0
0
0
0
0
0
0
0
0
0
0
0
0
0
0
0
0
0
0
0
0
0
0
0
0
0
0
0
0
0
0
0
0
0
0
0
0
0
0
0
0
0
0
0
0
0
0
0
0
0
0
0
0
0
0
0
0
0
0
0
0
0
0
0
0
0
0
0
0
0
0
0
0
0
0
0
0
0
0
0
0
0
0
0
0
0
0
0
0
0
0
0
0
0
0
0
0
0
0
0
0
0
0
0
0
0
0
0
0
0
0
0
0
0
0
0
0
0
0
0
0
0
0
0
0
0
0
0
0
0
0
0
0
0
0
0
0
0
0
0
0
0
0
0
0
0
0
0
0
0
0
0
0
0
0
0
0
0
0
0
0
0
0
0
0
0
0
0
0
0
0
0
0
0
0
0
0
0
0
0
0
0
0
0
0
0
0
0
0
0
0
0
0
0
0
0
0
0
0
0
0
0
0
0
0
0
0
0
0
0
0
0
0
0
0
0
0
0
0
0
0
0
0
0
0
0
0
0
0
0
0
0
0
0
0
0
0
0
0
0
0
0
0
0
0
0
0
0
0
0
0
0
0
0
0
0
0
0
0
0
0
0
0
0
0
0
0
0
0
0
0
0
0
0
0
0
0
0
0
0
0
0
0
0
0
0
0
0
0
0
0
0
0
0
0
0
0
0
0
0
0
0
0
0
0
0
0
0
0
0
0
0
0
0
0
0
0
0
0
0
0
0
0
0
0
0
0
0
0
0
0
0
0
0
0
0
0
0
0
0
0
0
0
0
0
0
0
0
0
0
0
0
0
0
0
0
0
0
0
0
0
0
0
0
0
0
0
0
0
0
0
0
0
0
0
0
0
0
0
0
0
0
0
0
0
0
0
0
0
0
0
0
0
0
0
0
0
0
0
0
0
0
0
0
0
0
0
0
0
0
0
0
0
0
0
0
0
0
0
0
0
0
0
0
0
0
0
0
0
0
0
0
0
0
0
0
0
0
0
0
0
0
0
0
0
0
0
0
0
0
0
0
0
0
0
0
0
0
0
0
0
0
0
0
0
0
0
0
0
0
0
0
0
0
0
0
0
0
0
0
0
0
0
0
0
0
0
0
0
0
0
0
0
0
0
0
0
0
0
0
0
0
0
0
0
0
0
0
0
0
0
0
0
0
0
0
0
0
0
0
0
0
0
0
0
0
0
0
0
0
0
0
0
0
0
0
0
0
0
0
0
0
0
0
0
0
0
0
0
0
0
0
0
0
0
0
0
0
0
0
0
0
0
0
0
0
0
0
0
0
0
0
0
0
0
0
0
0
0
0
0
0
0
0
0
0
0
0
0
0
0
0
0
0
0
0
0
0
0
0
0
0
0
0
0
0
0
0
0
0
0
0
0
0
0
0
0
0
0
0
0
0
0
0
0
0
0
0
0
0
0
0
0
0
0
0
0
0
0
0
0
0
0
0
0
0
0
0
0
0
0
0
0
0
0
0
0
0
0
0
0
0
0
0
0
0
0
0
0
0
0
0
0
0
0
0
0
0
0
0
0
0
0
0
0
0
0
0
0
0
0
0
0
0
0
0
0
0
0
0
0
0
0
0
0
0
0
0
0
0
0
0
0
0
0
0
0
0
0
0
0
0
0
0
0
0
0
0
0
0
0
0
0
0
0
0
0
0
0
0
0
0
0
0
0
0
0
0
0
0
0
0
0
0
0
0
0
0
0
0
0
0
0
0
0
0
0
0
0
0
0
0
0
0
0
0
0
0
0
0
0
0
0
0
0
0
0
0
0
0
0
0
0
0
0
0
0
0
0
0
0
0
0
0
0
0
0
0
0
0
0
0
0
0
0
0
0
0
0
0
0
0
0
0
0
0
0
0
0
0
0
0
0
0
0
0
0
0
0
0
0
0
0
0
0
0
0
0
0
0
0
0
0
0
0
0
0
0
0
0
0
0
0
0
0
0
0
0
0
0
0
0
0
0
0
0
0
0
0
0
0
0
0
0
0
0
0
0
0
0
0
0
0
0
0
0
0
0
0
0
0
0
0
0
0
0
0
0
0
0
0
0
0
0
0
0
0
0
0
0
0
0
0
0
0
0
0
0
0
0
0
0
0
0
0
0
0
0
0
0
0
0
0
0
0
0
0
0
0
0
0
0
0
0
0
0
0
0
0
0
0
0
0
0
0
0
0
0
0
0
0
0
0
0
0
0
0
0
0
0
0
0
0
0
0
0
0
0
0
0
0
0
0
0
0
0
0
0
0
0
0
0
0
0
0
0
0
0
0
0
0
0
0
0
0
0
0
0
0
0
0
0
0
0
0
0
0
0
0
0
0
0
0
0
0
0
0
0
0
0
0
0
0
0
0
0
0
0
0
0
0
0
0
0
0
0
0
0
0
0
0
0
0
0
0
0
0
0
0
0
0
0
0
0
0
0
0
0
0
0
0
0
0
0
0
0
0
0
0
0
0
0
0
0
0
0
0
0
0
0
0
0
0
0
0
0
0
0
0
0
0
0
0
0
0
0
0
0
0
0
0
0
0
0
0
0
0
0
0
0
0
0
0
0
0
0
0
0
0
0
0
0
0
0
0
0
0
0
0
0
0
0
0
0
0
0
0
0
0
0
0
0
0
0
0
0
0
0
0
0
0
0
0
0
0
0
0
0
0
0
0
0
0
0
0
0
0
0
0
0
0
0
0
0
0
0
0
0
0
0
0
0
0
0
0
0
0
0
0
0
0
0
0
0
0
0
0
0
0
0
0
0
0
0
0
0
0
0
0
0
0
0
0
0
0
0
0
0
0
0
0
0
0
0
0
0
0
0
0
0
0
0
0
0
0
0
0
0
0
0
0
0
0
0
0
0
0
0
0
0
0
0
0
0
0
0
0
0
0
0
0
0
0
0
0
0
0
0
0
0
0
0
0
0
0
0
0
0
0
0
0
0
0
0
0
0
0
0
0
0
0
0
0
0
0
0
0
0
0
0
0
0
0
0
0
0
0
0
0
0
0
0
0
0
0
0
0
0
0
0
0
0
0
0
0
0
0
0
0
0
0
0
0
0
0
0
0
0
0
0
0
0
0
0
0
0
0
0
0
0
0
0
0
0
0
0
0
0
0
0
0
0
0
0
0
0
0
0
0
0
0
0
0
0
0
0
0
0
0
0
0
0
0
0
0
0
0
0
0
0
0
0
0
0
0
0
0
0
0
0
0
0
0
0
0
0
0
0
0
0
0
0
0
0
0
0
0
0
0
0
0
0
0
0
0
0
0
0
0
0
0
0
0
0
0
0
0
0
0
0
0
0
0
0
0
0
0
0
0
0
0
0
0
0
0
0
0
0
0
0
0
0
0
0
0
0
0
0
0
0
0
0
0
0
0
0
0
0
0
0
0
0
0
0
0
0
0
0
0
0
0
0
0
0
0
0
0
0
0
0
0
0
0
0
0
0
0
0
0
0
0
0
0
0
0
0
0
0
0
0
0
0
0
0
0
0
0
0
0
0
0
0
0
0
0
0
0
0
0
0
0
0
0
0
0
0
0
1
1
1
1
1
1
1
1
1
1
1
1
1
1
1
1
1
1
1
1
1
1
1
1
1
1
1
1
1
1
2
2
2
2
2
2
2
2
2
2
2
2
2
2
2
2
2
2
2
2
2
2
2
2
2
2
2
2
2
2
3
3
3
3
3
3
3
3
3
3
3
3
3
3
3
3
3
3
3
3
3
3
3
3
3
3
3
3
3
3
4
4
4
4
4
4
4
4
4
4
4
4
4
4
4
4
4
4
4
4
4
4
4
4
4
4
4
4
4
4

LOOKUP_TABLE FreeFempp_table 5
1.00000000 0.00000000 0.00000000 1.00000000
1.00000000 1.00000000 0.00000000 1.00000000
1.00000000 0.00000000 1.00000000 1.00000000
0.00000000 1.00000000 0.00000000 1.00000000
0.00000000 1.00000000 1.00000000 1.00000000

POINT_DATA 961
FIELD FieldData 1
Density 1 961 float
6.01257622e-01 5.78724742e-01 5.77498555e-01 5.75620472e-01 5.72344780e-01 5.71660280e-01 5.71313441e-01 5.70330560e-01 5.68891585e-01 5.44195652e-01 1.77972272e-01 1.04811753e-03 1.23574829e-03 8.91047437e-03 9.84830379e-01 8.76263797e-01 6.09571099e-01 8.38022590e-01 8.94427776e-01 9.33329225e-01 9.29559052e-01 8.82850468e-01 8.55745256e-01 8.62733603e-01 8.61596465e-01 8.62239480e-01 8.65668714e-01 8.64496589e-01 8.55417311e-01 8.63663316e-01 7.32993841e-01 5.27850389e-01 5.32521605e-01 5.31207323e-01 5.28757572e-01 5.24790287e-01 5.18331528e-01 5.11231840e-01 5.03884912e-01 4.86260772e-01 3.82501811e-01 4.22639884e-02 1.00081286e-03 7.65141216e-04 2.94544036e-03 9.95449543e-01 9.91777420e-01 8.87246370e-01 9.53926027e-01 9.62379515e-01 9.74711120e-01 9.81074452e-01 9.71923470e-01 9.70434427e-01 9.63729799e-01 9.54847574e-01 9.51834202e-01 9.52941358e-01 9.53164101e-01 9.48695421e-01 9.48721111e-01 8.69755626e-01 2.56497588e-04 2.40195805e-04 2.37314729e-04 2.38440887e-04 2.40948808e-04 2.43392889e-04 2.46646465e-04 2.65350391e-04 3.17117636e-04 9.03618522e-04 4.63386066e-03 1.03698845e-03 8.93129385e-04 2.61189835e-03 9.94298339e-01 9.90749180e-01 4.01458293e-02 5.78197502e-02 6.78419828e-01 9.66669440e-01 2.54352652e-02 4.65388410e-03 1.19657025e-01 9.62167382e-01 9.53074515e-01 9.33730543e-01 9.33921039e-01 9.35768485e-01 9.27911997e-01 9.18846190e-01 8.40595007e-01 3.43409163e-04 2.26112330e-04 2.39039597e-04 2.36431602e-04 2.38635635e-04 2.40322683e-04 2.43602597e-04 2.45698990e-04 2.39867135e-04 2.63842958e-04 3.51825263e-04 7.41907861e-04 1.04577513e-03 3.21488269e-03 9.82706606e-01 9.92922902e-01 2.50590239e-02 6.26917416e-03 4.89853183e-03 8.14463198e-03 9.40155745e-01 2.22002831e-03 2.51976913e-03 1.80934928e-03 7.55883336e-01 8.36036921e-01 8.33870232e-01 8.60288501e-01 8.35169673e-01 7.88043797e-01 7.43771315e-01 9.95936930e-01 9.98344779e-01 9.97004509e-01 9.80060637e-01 4.77394462e-01 3.16138327e-01 3.81862968e-01 3.03965658e-01 3.05040134e-03 4.28073661e-04 3.03337350e-04 2.97059509e-04 6.14416902e-04 4.64254897e-03 7.46427715e-01 9.89486516e-01 8.39786232e-01 2.08577905e-02 4.72922390e-03 3.06463451e-03 4.61903866e-03 4.18963790e-01 3.56545043e-03 1.12895796e-03 9.65105777e-04 2.57666349e-01 6.48889184e-01 6.68150187e-01 5.45983016e-01 4.47388411e-01 5.66498458e-01 9.87751842e-01 9.95646834e-01 5.39783835e-01 9.98159349e-01 9.96996105e-01 9.76956964e-01 7.75149882e-01 6.23170137e-01 5.67861140e-01 3.44687223e-01 1.66221044e-03 3.36706697e-04 2.89965246e-04 1.05468731e-03 2.42339358e-01 9.17222440e-01 9.83740449e-01 5.48327923e-01 6.16257526e-02 6.98211417e-03 2.97408900e-03 6.21948903e-03 9.91851568e-01 1.13694847e-01 9.06960806e-04 8.29617667e-04 4.64269876e-01 5.88779092e-01 1.70151502e-01 1.38947189e-01 3.41584027e-01 8.88026655e-01 9.18988511e-03 5.37861558e-03 6.65870961e-03 9.96988535e-01 9.97434199e-01 9.92471218e-01 9.50818419e-01 8.38244736e-01 7.20707297e-01 5.11301160e-01 1.68881670e-03 2.89497140e-04 3.16146354e-04 1.46292187e-02 5.28462172e-01 9.68196332e-01 9.81414974e-01 7.34375954e-01 1.63921505e-01 5.95106510e-03 4.92131151e-03 1.66343320e-02 9.44095969e-01 3.12745273e-02 8.12607526e-04 1.29361264e-03 8.56242359e-01 5.52418195e-02 4.25887629e-02 1.66422293e-01 9.34920132e-01 9.22382653e-01 7.54961837e-03 2.48426734e-03 6.73430599e-03 9.95974779e-01 9.96853411e-01 9.92828906e-01 9.74226058e-01 9.21305299e-01 8.18536103e-01 4.92009848e-01 6.33561576e-04 2.98651343e-04 5.20590285e-04 2.92505115e-01 8.24189961e-01 9.83638644e-01 9.83644903e-01 7.44974196e-01 1.55247841e-02 6.83998875e-03 1.97880045e-02 1.00119807e-01 9.69851732e-01 1.12726924e-03 1.28044025e-03 9.34927940e-01 2.29231603e-02 2.28514820e-02 8.00497234e-02 8.84882152e-01 9.57176864e-01 1.27897575e-01 2.26955605e-03 1.81182788e-03 3.88645753e-02 9.95233655e-01 9.95457828e-01 9.92268026e-01 9.81218278e-01 9.52404380e-01 8.60261798e-01 4.22368124e-02 3.73384828e-04 3.31894698e-04 1.07790087e-03 2.68755674e-01 9.12565649e-01 9.88257825e-01 9.91752267e-01 5.72242029e-02 8.49121809e-03 1.80170070e-02 1.02318324e-01 9.92082655e-01 1.18049234e-03 1.16601540e-03 3.77998173e-01 6.87261857e-03 1.31249083e-02 4.28974777e-02 8.43542039e-01 9.24715042e-01 7.91748822e-01 4.87068435e-03 1.24813931e-03 2.85401125e-03 9.36188936e-01 9.92884517e-01 9.93883610e-01 9.92128253e-01 9.85165775e-01 9.68326449e-01 8.03005576e-01 2.27413257e-03 3.75487609e-04 4.47187776e-04 1.49632432e-03 1.32244220e-02 3.09447199e-01 9.86616373e-01 9.95624304e-01 1.15049407e-02 5.71064604e-03 3.61002684e-02 9.97941256e-01 1.34845136e-03 1.00948941e-03 2.23805770e-01 4.66992380e-03 5.15822461e-03 1.87652782e-02 8.17422569e-01 9.04308558e-01 8.21607411e-01 4.04518284e-02 1.10320933e-03 1.31354795e-03 3.05262189e-02 9.65951502e-01 9.89682734e-01 9.92954552e-01 9.92586434e-01 9.88748968e-01 9.74807382e-01 2.16988936e-01 1.13519502e-03 4.98267531e-04 6.43630687e-04 1.30481017e-03 4.02601389e-03 2.15698052e-02 9.09443855e-01 9.95330930e-01 7.35813053e-03 5.89306746e-03 9.91625190e-01 2.49534124e-03 8.90717492e-04 4.98697488e-03 4.10660543e-03 2.00159685e-03 6.86124573e-03 7.96706557e-01 8.90181541e-01 8.16755056e-01 1.90139204e-01 1.20729848e-03 1.04682136e-03 4.99527622e-03 7.14766204e-01 9.53297079e-01 9.87544656e-01 9.92918134e-01 9.93834615e-01 9.91974831e-01 9.72493112e-01 1.58390272e-02 1.16891961e-03 7.82545249e-04 9.04000946e-04 1.15648168e-03 2.49288068e-03 9.04628355e-03 9.77880836e-01 9.94936466e-01 7.53012439e-03 7.71575142e-03 9.96512711e-01 1.12119305e-03 1.57036772e-03 6.78206742e-01 1.59600715e-03 2.25546141e-03 7.77717412e-01 8.74694228e-01 8.11230600e-01 2.73214638e-01 1.25628151e-03 9.54685966e-04 2.45159515e-03 3.39110047e-01 7.68794537e-01 9.46595669e-01 9.86726582e-01 9.93667603e-01 9.95630264e-01 9.92929459e-01 8.09746742e-01 6.74558524e-03 1.80378731e-03 1.50027859e-03 1.34651701e-03 1.25454692e-03 2.34935456e-03 2.29877071e-03 9.93298709e-01 6.51251972e-02 7.05840206e-03 9.89982188e-01 2.60655745e-03 1.79587805e-03 2.25805596e-01 1.78235839e-03 2.00429163e-03 7.58873045e-01 8.55950594e-01 8.04130435e-01 3.03789169e-01 1.22412061e-03 8.88605078e-04 1.69950572e-03 2.16312915e-01 5.64159691e-01 7.86607444e-01 9.46653724e-01 9.87411439e-01 9.94886875e-01 9.96854663e-01 9.93135929e-01 2.17280403e-01 6.22405810e-03 4.09577508e-03 4.35364712e-03 3.26390751e-03 2.48707226e-03 1.78031845e-03 1.44474732e-04 9.07556176e-01 7.11232543e-01 9.94403183e-01 3.79038742e-03 2.11214600e-03 6.76863015e-01 1.58959033e-03 1.69013347e-03 7.40629494e-01 8.33792210e-01 7.96486318e-01 3.52412730e-01 1.15641893e-03 8.25163152e-04 1.39915932e-03 1.94125101e-01 5.08368731e-01 7.14920759e-01 8.48625958e-01 9.50489223e-01 9.88856673e-01 9.95802462e-01 9.97273922e-01 9.91705596e-01 1.31102130e-01 1.09075261e-02 9.70368274e-03 9.69223212e-03 5.79877291e-03 2.14423565e-03 1.02982786e-03 4.47979420e-02 9.75399375e-01 9.94676352e-01 7.28978496e-03 2.55038193e-03 2.69175828e-01 1.46399532e-03 1.49771222e-03 7.24651694e-01 8.10351074e-01 7.88977981e-01 4.31426615e-01 1.09893724e-03 7.64133874e-04 1.24740170e-03 1.95665702e-01 4.95470822e-01 7.65625596e-01 8.48186195e-01 8.26894581e-01 9.43831146e-01 9.90167320e-01 9.96286750e-01 9.97086108e-01 9.90020216e-01 6.30794689e-02 1.53711690e-02 1.26434015e-02 8.88901111e-03 5.00969496e-03 4.00829455e-03 2.34750450e-01 9.78654683e-01 9.93243694e-01 1.56489491e-01 5.01930760e-03 3.80942598e-02 1.35547970e-03 1.33815745e-03 7.11993992e-01 7.88283527e-01 7.79574096e-01 5.15180886e-01 1.07471563e-03 6.91119465e-04 1.10485102e-03 1.94976777e-01 4.75579381e-01 8.01134229e-01 8.25031102e-01 4.55839664e-01 3.96561325e-01 9.24108863e-01 9.91026282e-01 9.96131659e-01 9.96177197e-01 9.75449204e-01 3.46483067e-02 1.31766079e-02 8.41382053e-03 7.67134409e-03 1.42446995e-01 8.50956202e-01 9.80234146e-01 9.90600884e-01 9.65454161e-01 1.52236685e-01 9.89100873e-01 1.53245847e-03 1.33577874e-03 7.01780081e-01 7.68190324e-01 7.65812814e-01 5.85533857e-01 1.14426413e-03 6.04250410e-04 9.28705558e-04 2.08073944e-01 5.03042340e-01 8.06473553e-01 6.78766012e-01 9.52157825e-02 4.27757800e-02 1.45341486e-01 8.88493121e-01 9.90345657e-01 9.95566428e-01 9.95190144e-01 9.81836021e-01 6.40129030e-01 4.14480805e-01 7.03431487e-01 9.06796277e-01 9.55200136e-01 9.74184811e-01 9.80851352e-01 9.80385423e-01 9.93175209e-01 9.63585973e-01 2.16837251e-03 1.72834843e-03 6.92671239e-01 7.49644756e-01 7.49862850e-01 6.40503228e-01 1.42879772e-03 5.08930010e-04 7.34253030e-04 2.48097211e-01 5.76079071e-01 8.03660512e-01 5.58799386e-01 6.21421300e-02 1.92005225e-02 2.06578746e-02 9.95784774e-02 8.14824104e-01 9.87498641e-01 9.94509876e-01 9.94599521e-01 9.91553128e-01 9.85911369e-01 9.83351409e-01 9.83026505e-01 9.80681837e-01 9.74915743e-01 9.64707017e-01 9.62587476e-01 9.41001773e-01 3.14538106e-02 2.66233203e-03 2.25943071e-03 6.83746576e-01 7.32031226e-01 7.34856546e-01 6.78303778e-01 2.30820663e-03 4.19009011e-04 5.52453450e-04 3.04060996e-01 6.53808713e-01 8.01546395e-01 5.43201923e-01 8.98320600e-02 1.95938610e-02 1.12444162e-02 1.76176131e-02 9.11927149e-02 7.62843549e-01 9.83575583e-01 9.92944121e-01 9.94032323e-01 9.93662715e-01 9.93019104e-01 9.92231429e-01 9.90634441e-01 9.86706674e-01 9.73785460e-01 8.81057918e-01 6.31370991e-02 1.08762132e-02 4.18759231e-03 3.30184679e-03 6.74150348e-01 7.13699281e-01 7.19348729e-01 6.95969820e-01 6.17820909e-03 3.60691774e-04 4.23997088e-04 3.47751319e-01 7.10953593e-01 8.02119672e-01 5.65939844e-01 1.46225780e-01 2.96853371e-02 1.10181021e-02 9.84431989e-03 2.09605228e-02 1.16843566e-01 7.78962314e-01 9.78388369e-01 9.90728259e-01 9.93168354e-01 9.93952572e-01 9.94126797e-01 9.93772924e-01 9.92603183e-01 9.88578141e-01 9.49395835e-01 3.77880223e-02 8.57350416e-03 7.38592632e-03 8.69465154e-03 6.64335549e-01 6.94544613e-01 7.03103304e-01 7.00890243e-01 4.35720161e-02 3.35901306e-04 3.61843326e-04 3.57950568e-01 7.47964561e-01 8.02782953e-01 5.94922125e-01 2.10616514e-01 4.68558595e-02 1.39526306e-02 8.78609531e-03 1.15349786e-02 3.14959697e-02 1.80716738e-01 7.95828104e-01 9.70284581e-01 9.87836242e-01 9.91993546e-01 9.93542731e-01 9.94087934e-01 9.94023800e-01 9.92959082e-01 9.87018645e-01 8.24041665e-01 2.19166484e-02 9.48967319e-03 1.84884220e-02 6.54999971e-01 6.76226616e-01 6.87175512e-01 6.95598781e-01 2.82620221e-01 3.26903973e-04 3.37367528e-04 3.11988264e-01 7.72384107e-01 8.01121175e-01 6.19034708e-01 2.72847831e-01 6.79201037e-02 1.83680728e-02 9.49548092e-03 9.29595344e-03 1.66015793e-02 5.15860505e-02 2.63163000e-01 7.96564817e-01 9.59230244e-01 9.83653426e-01 9.89804506e-01 9.92085993e-01 9.93019760e-01 9.93066132e-01 9.91593897e-01 9.84817147e-01 9.55115259e-01 9.20379162e-01 4.96688157e-01 6.45807803e-01 6.58831775e-01 6.72672927e-01 6.84345663e-01 5.00808358e-01 3.21428117e-04 3.25449015e-04 1.82783693e-01 7.86605895e-01 7.96536207e-01 6.36187315e-01 3.31960618e-01 9.35507715e-02 2.39048693e-02 1.08295372e-02 8.78471229e-03 1.19862603e-02 2.55692042e-02 8.27689320e-02 3.59570086e-01 7.90603638e-01 9.38332498e-01 9.72448349e-01 9.82896388e-01 9.86889720e-01 9.88536477e-01 9.88897443e-01 9.88558829e-01 9.87288475e-01 9.88650441e-01 9.58027124e-01 6.36491060e-01 6.41144514e-01 6.57865286e-01 6.73980474e-01 6.09736741e-01 3.29171424e-04 3.17767350e-04 3.83592807e-02 7.88612485e-01 7.86623716e-01 6.45781875e-01 3.85795802e-01 1.26818836e-01 3.18183899e-02 1.28382351e-02 8.97574890e-03 1.00613404e-02 1.68174077e-02 4.00982201e-02 1.49367467e-01 4.71709937e-01 7.60720372e-01 8.80073309e-01 9.25771058e-01 9.45697010e-01 9.56039250e-01 9.59637463e-01 9.61671174e-01 9.61517513e-01 9.67181563e-01 9.48223770e-01 6.28044903e-01 6.23356462e-01 6.41295493e-01 6.64544046e-01 6.57590568e-01 3.79912002e-04 3.17684433e-04 4.64859093e-03 7.74120152e-01 7.65971839e-01 6.45261586e-01 4.31236982e-01 1.70194745e-01 4.45963852e-02 1.63346492e-02 1.00175608e-02 9.55063570e-03 1.33560067e-02 2.65614893e-02 8.89774114e-02 3.04841369e-01 5.51778793e-01 6.74962044e-01 7.17763543e-01 7.21436083e-01 6.84788764e-01 5.65780640e-01 3.87586743e-01 2.61202484e-01 2.43191913e-01 6.10305071e-01 6.22468650e-01 6.08872175e-01 6.21524036e-01 6.53276443e-01 6.88915849e-01 5.86809474e-04 3.20730993e-04 1.04132295e-03 7.37957358e-01 7.28939474e-01 6.33399129e-01 4.70564902e-01 2.28798404e-01 6.73052520e-02 2.30232961e-02 1.26861082e-02 1.06293177e-02 1.30226631e-02 2.37622876e-02 8.19401219e-02 2.84291893e-01 4.71461058e-01 5.18667459e-01 4.80975777e-01 3.90780181e-01 2.57069677e-01 1.30513385e-01 6.97713569e-02 5.44857420e-02 5.20655774e-02 1.65381074e-01 6.22582197e-01 6.03293240e-01 6.07229471e-01 6.21552050e-01 6.84717000e-01 1.59719854e-03 3.00627784e-04 4.54396533e-04 6.74405456e-01 6.76350296e-01 6.14589989e-01 5.10242105e-01 3.15343231e-01 1.14990152e-01 3.78427394e-02 1.91331469e-02 1.47720659e-02 1.69621129e-02 3.29334624e-02 1.29952371e-01 3.56702000e-01 4.51837897e-01 4.07089293e-01 3.10283482e-01 2.05695719e-01 1.15583621e-01 6.03353530e-02 3.95019650e-02 4.04932126e-02 4.71312925e-02 1.10581607e-01 6.31313980e-01 6.13356411e-01 6.11032724e-01 6.05994523e-01 6.31515980e-01 7.30742276e-01 2.42255832e-04 2.86172464e-04 6.04745030e-01 6.20048642e-01 5.96898139e-01 5.49620569e-01 4.36586797e-01 2.35912651e-01 8.61075521e-02 3.89447808e-02 2.90524717e-02 3.74565013e-02 1.00679263e-01 3.15057695e-01 4.36764807e-01 3.68947148e-01 2.52473146e-01 1.57932326e-01 9.68970880e-02 6.30968139e-02 4.23168913e-02 2.96975970e-02 3.13464068e-02 4.95834909e-02 1.34783596e-01 6.48712873e-01 6.43585026e-01 6.42491341e-01 6.37960374e-01 6.33513451e-01 7.25602508e-01 2.59824737e-04 2.05665696e-04 5.55353403e-01 5.99514186e-01 5.89212060e-01 5.72372496e-01 5.52216947e-01 5.01777887e-01 3.79614115e-01 2.31253430e-01 1.55856282e-01 1.53138891e-01 1.92017645e-01 2.01178521e-01 1.48586258e-01 9.86183658e-02 6.75703064e-02 4.73608598e-02 3.46510671e-02 2.96394769e-02 3.04191913e-02 3.18808593e-02 3.05915661e-02 2.96934620e-02 1.58590406e-01 6.49012387e-01 6.56511307e-01 6.57725811e-01 6.59197867e-01 6.57596171e-01 6.63985789e-01 3.66419292e-04 3.25332687e-04 6.40656948e-01 6.35919690e-01 6.14286780e-01 5.97275019e-01 5.96518576e-01 6.24563932e-01 6.74146712e-01 7.09720969e-01 6.86393261e-01 5.59513330e-01 3.44884515e-01 1.83306217e-01 1.15656175e-01 9.10488442e-02 7.68722296e-02 6.29507750e-02 5.03679141e-02 4.49011959e-02 5.34032173e-02 9.80985090e-02 1.45105362e-01 7.34205768e-02 1.06022023e-01 
