# vtk DataFile Version 2.0
results/3_density.vtk, Created by Freefem++ 
ASCII
DATASET UNSTRUCTURED_GRID
POINTS 826 float
1 0 0
0.97108528 0.0057169779 0
1 0.024438079 0
0.9267043 0 0
0.95761766 0.023566487 0
1 0.044937283 0
0.86429748 0 0
0.91801414 0.017924663 0
0.8688134 0.017973694 0
1 0.065165369 0
0.93981687 0.038174084 0
0.80014629 0 0
0.83183487 0.026452819 0
0.90192601 0.038646255 0
1 0.086769049 0
0.95832488 0.066455686 0
0.72973156 0 0
0.76990711 0.014669037 0
0.92445386 0.060802754 0
0.77058076 0.03135169 0
0.87185708 0.046526979 0
0.82302409 0.046759756 0
0.89491801 0.064888062 0
1 0.11331016 0
0.96207303 0.098535906 0
0.67199187 0 0
0.70789252 0.018662548 0
0.66124305 0.016127333 0
0.92587009 0.081845694 0
0.71060746 0.036941092 0
0.75750907 0.044628318 0
0.85993494 0.067553576 0
0.82074206 0.067300574 0
0.78073591 0.058754121 0
0.9316613 0.10667574 0
0.89073815 0.089085482 0
1 0.14385298 0
0.96733782 0.131207 0
0.63531914 0 0
0.663336 0.038549015 0
0.63016922 0.033393801 0
0.60781705 0 0
0.57699566 0 0
0.54379229 0 0
0.68657928 0.053453045 0
0.72805152 0.059659652 0
0.83967982 0.083818667 0
0.7705746 0.074952049 0
0.94088387 0.1354238 0
0.65635417 0.065885239 0
0.90531825 0.11706009 0
0.8657541 0.10210663 0
1 0.17218479 0
0.96767134 0.16373559 0
0.51346492 0 0
0.60610713 0.029224525 0
0.6028177 0.062646854 0
0.62496347 0.063990764 0
0.56863383 0.031967434 0
0.53712556 0.038836381 0
0.50996886 0.040111937 0
0.69955686 0.074448378 0
0.63146748 0.084212844 0
0.80220143 0.091851749 0
0.72990372 0.085376403 0
0.92912005 0.15222553 0
0.83832051 0.11030609 0
0.67311669 0.089965016 0
0.88512667 0.12944142 0
1 0.20240846 0
0.95520459 0.19232064 0
0.47169105 0.031590737 0
0.47483405 0 0
0.58610938 0.078383884 0
0.57825858 0.054132847 0
0.60960544 0.098000347 0
0.5434132 0.063850495 0
0.50339539 0.063486617 0
0.63894467 0.10173017 0
0.75180417 0.095586687 0
0.64123652 0.11988198 0
0.77710316 0.10634423 0
0.71183317 0.10218709 0
0.9164344 0.16296813 0
0.81097371 0.12074307 0
1 0.23457881 0
0.85210177 0.13243329 0
0.6741898 0.11319996 0
0.88940226 0.15679169 0
0.6380336 0.13618334 0
0.97509539 0.23339299 0
0.95334589 0.23766301 0
0.93705671 0.20245103 0
0.44844084 0.041718232 0
0.42334348 0 0
0.58252073 0.099802015 0
0.56305317 0.080848505 0
0.61024996 0.12676961 0
0.45648644 0.064460005 0
0.4861756 0.084424689 0
0.53094767 0.088085615 0
0.6792467 0.13528749 0
0.66660445 0.14766281 0
0.70723675 0.11805085 0
0.75609055 0.11849512 0
0.91925673 0.19547602 0
0.80126726 0.13715035 0
1 0.2673754 0
0.85156155 0.15049523 0
0.71122839 0.13894991 0
0.87625325 0.17095796 0
0.89703749 0.19346009 0
0.64489149 0.16431494 0
0.66639073 0.1681732 0
0.70267786 0.18323778 0
0.96840803 0.27389489 0
0.94436917 0.26021483 0
0.3135892 0 0
0.24973597 0 0
0.28497292 0 0
0.19722134 0 0
0.12438259 0 0
0.062847273 0 0
0.40365707 0.034765571 0
0.37934203 0 0
0.34178502 0 0
0.40068922 0.061465003 0
0.57296086 0.11337772 0
0.60971948 0.15000829 0
0.54540314 0.11538059 0
0.43662611 0.083401226 0
0.4973576 0.10332606 0
0.70540826 0.16326227 0
0.7416021 0.13145766 0
0.92090997 0.23070763 0
0.80922921 0.15556828 0
0.75811541 0.14808641 0
0.70118943 0.20201465 0
0.98217676 0.29392513 0
1 0.30077573 0
0.74533498 0.19850631 0
0.84585101 0.1765085 0
0.74279704 0.17396928 0
0.75489764 0.16387026 0
0.87227435 0.20605671 0
0.90204162 0.23583597 0
0.66285848 0.19188883 0
0.71167669 0.22121008 0
0.77311996 0.23286598 0
0.74605293 0.22765928 0
0.93458513 0.28638524 0
0.96008084 0.32032789 0
0.97575678 0.32376548 0
0.300641 0.032526699 0
0.33222078 0.035426831 0
0 0 0
0.25574848 0.026647969 0
0.18399662 0.023339372 0
0.10651441 0.023090775 0
0.041123682 0.01724776 0
0.36258197 0.046950677 0
0.3910181 0.080420815 0
0.64792885 0.19747205 0
0.60527349 0.16737213 0
0.57054514 0.14074116 0
0.52116934 0.12793362 0
0.45038309 0.10676069 0
0.80094902 0.17461909 0
0.75840183 0.24957501 0
1 0.33164698 0
1 0.36056624 0
0.7921597 0.22211704 0
0.8358584 0.20362008 0
0.79503759 0.19766625 0
0.85867152 0.23560733 0
0.8841801 0.25119714 0
0.91289655 0.28059744 0
0.73148736 0.25161631 0
0.69771252 0.23423584 0
0.77094473 0.27121318 0
0.82710815 0.2615046 0
0.80966015 0.26886776 0
0.79327691 0.27162095 0
1 0.39278578 0
0.94234309 0.33405148 0
0.96161444 0.35662821 0
0.98121271 0.38004093 0
0.70139746 0.25419494 0
0.28779868 0.05165767 0
0.32488189 0.058128562 0
0 0.026123816 0
0.16441248 0.043143245 0
0.23675064 0.047128009 0
0.093669401 0.044426701 0
0.046537799 0.03962711 0
0.35126246 0.080365877 0
0.39313236 0.098725738 0
0.63740282 0.20673914 0
0.58751633 0.17184999 0
0.55202679 0.15174349 0
0.50497397 0.13776536 0
0.38043741 0.10754196 0
0.44396344 0.12156361 0
0.83238151 0.2363107 0
0.86016268 0.26917028 0
0.9181316 0.31389866 0
0.8890614 0.28865276 0
0.77603537 0.29375141 0
0.75216661 0.28883221 0
0.800704 0.30663541 0
0.81294102 0.29851133 0
0.86156678 0.29714768 0
0.83556873 0.29799656 0
1 0.43794648 0
0.93355458 0.353141 0
0.95130096 0.37959368 0
0.9837462 0.4469364 0
0.96882079 0.40199227 0
0.68790926 0.25742564 0
0.75792303 0.30967583 0
0.26301074 0.066328993 0
0.30539275 0.072513612 0
0 0.047198633 0
0.12775184 0.059225669 0
0.19908383 0.062345603 0
0.21160886 0.075107808 0
0.069271666 0.062928187 0
0.32610525 0.090422999 0
0.35175159 0.11009163 0
0.61820882 0.20775811 0
0.50573146 0.15075997 0
0.56095294 0.17217134 0
0.44467538 0.1359843 0
0.40317634 0.13172877 0
0.90413364 0.32306441 0
0.79684942 0.32800144 0
0.8260577 0.32996256 0
0.84717206 0.32206612 0
0.89320307 0.32796897 0
0.87406687 0.32859125 0
0.92018572 0.36076592 0
1 0.50659274 0
0.97496096 0.48807383 0
0.98512163 0.53591283 0
0.93631699 0.38741351 0
0.95032469 0.4197806 0
0.96445819 0.44281881 0
0.68087649 0.26535911 0
0.80073003 0.35207581 0
0.74909763 0.31683928 0
0.26648109 0.083937683 0
0 0.063479886 0
0.041108339 0.071393949 0
0.13290079 0.075341809 0
0.18583133 0.086748607 0
0.081874244 0.081699428 0
0 0.079300929 0
0 0.099586208 0
0.29899973 0.10385322 0
0.35637443 0.12877279 0
0.63668481 0.2353913 0
0.58522832 0.19853103 0
0.52234386 0.17152689 0
0.45134637 0.15629575 0
0.40026669 0.15370994 0
0.82885786 0.35511235 0
0.85503849 0.34620366 0
0.90174283 0.35195164 0
0.88083783 0.35368985 0
0.96119088 0.4984036 0
0.90984885 0.37254853 0
0.92898731 0.4017101 0
0.91841462 0.39449993 0
0.83905393 0.38045208 0
1 0.57796457 0
0.96910156 0.54990361 0
0.97458911 0.59787261 0
0.93792039 0.43769011 0
0.94783969 0.47997708 0
0.67771631 0.2810578 0
0.74261859 0.32540656 0
0.80693316 0.37387731 0
0.23093709 0.09868838 0
0.25417805 0.11392969 0
0.049398568 0.089203879 0
0.12357295 0.092488786 0
0.16498528 0.10205164 0
0.0881354 0.098531679 0
0.041213348 0.10840467 0
0 0.12301974 0
0.033759552 0.13195468 0
0.33946847 0.14291266 0
0.29582306 0.12601498 0
0.61329485 0.23085669 0
0.56390579 0.20434477 0
0.50755561 0.18743745 0
0.44637715 0.17760728 0
0.37373905 0.16547728 0
0.85900521 0.37095108 0
0.88696318 0.37421332 0
0.71225178 0.32063324 0
0.95137776 0.54145417 0
0.67401868 0.29922465 0
0.63198998 0.26035507 0
0.8979363 0.3943459 0
0.91071869 0.42387769 0
0.92533441 0.44570615 0
0.87150684 0.39745318 0
0.8491438 0.40519749 0
0.95528758 0.65376063 0
1 0.63321359 0
0.97970584 0.63394403 0
0.9572115 0.58320954 0
0.95071616 0.62530781 0
0.93491233 0.48925817 0
0.9377107 0.53762825 0
0.77052134 0.36333821 0
0.82449001 0.40573905 0
0.24169053 0.13334343 0
0.19633676 0.11870843 0
0.067438027 0.11018037 0
0.13244249 0.11487381 0
0.097324183 0.11639925 0
0.0656413 0.13738596 0
0 0.1492465 0
0.057357273 0.15784408 0
0.031898455 0.16352168 0
0.29483267 0.14788559 0
0.32790679 0.16675725 0
0.59221716 0.2419212 0
0.54944749 0.22019848 0
0.4975164 0.20723496 0
0.42366552 0.19030191 0
0.74651796 0.36262968 0
0.94034925 0.57515141 0
0.71861531 0.35404756 0
0.64313444 0.29205838 0
0.89186521 0.42659189 0
0.92440871 0.49895861 0
0.91088269 0.47126393 0
0.85642344 0.43561159 0
0.87293553 0.42846437 0
1 0.67270079 0
0.83492615 0.43439078 0
0.93063036 0.68126793 0
0.95066791 0.68683653 0
0.97450726 0.67779503 0
0.93644733 0.60692911 0
0.92365449 0.65227779 0
0.92641848 0.53883481 0
0.92463653 0.57135185 0
0.79284512 0.4068806 0
0.23465477 0.14962844 0
0.17764047 0.13833804 0
0.083180368 0.13435305 0
0.10697636 0.14253349 0
0.13362568 0.13815572 0
0.083418265 0.17561629 0
0 0.1843612 0
0.031853102 0.19521585 0
0.060745099 0.19008697 0
0.27962755 0.16869456 0
0.38375775 0.19203535 0
0.6014606 0.27704236 0
0.55263878 0.24266213 0
0.49036163 0.22291613 0
0.92208146 0.5974801 0
0.70376513 0.35592986 0
0.76347243 0.40393839 0
0.66686999 0.33198772 0
0.90387558 0.50063222 0
0.89108038 0.46244915 0
0.91452647 0.53315553 0
0.90358715 0.70583391 0
0.85648613 0.46709823 0
0.87423222 0.46458674 0
1 0.7001447 0
0.96823634 0.71218806 0
0.82758253 0.45062666 0
0.91411832 0.72773339 0
0.93726027 0.72454723 0
0.91026959 0.63300435 0
0.89752891 0.6762675 0
0.90135587 0.61341337 0
0.90927539 0.57468388 0
0.65679106 0.3355321 0
0.79216094 0.43369804 0
0.20152066 0.1631206 0
0.23842649 0.17888011 0
0.16288142 0.16404069 0
0.10442771 0.169725 0
0.13262895 0.16756052 0
0.10610283 0.20656779 0
0.079311967 0.21277791 0
0 0.21752531 0
0.044089489 0.22107003 0
0.61667756 0.3149261 0
0.34653552 0.19466794 0
0.29621727 0.19903077 0
0.46122723 0.22862261 0
0.54929262 0.26471942 0
0.73613861 0.3981473 0
0.89792909 0.5305431 0
0.88479569 0.49874139 0
0.89772682 0.56359591 0
1 0.72183404 0
0.88797973 0.73692309 0
0.87737643 0.70753314 0
0.84147112 0.48083258 0
0.86162293 0.4991693 0
0.93255752 0.74851559 0
0.96149291 0.7424128 0
0.80908946 0.4669659 0
0.89601657 0.76140055 0
0.87925322 0.66910897 0
0.8841895 0.59843148 0
0.87160654 0.65577477 0
0.87672598 0.62572206 0
0.70166919 0.3849222 0
0.76663473 0.43421888 0
0.19280106 0.19113782 0
0.23279131 0.20136112 0
0.16465613 0.19968546 0
0.13333956 0.20158786 0
0.13042327 0.23503776 0
0.094672016 0.23907932 0
0.05652711 0.23989557 0
0 0.24481887 0
0.6458779 0.36001591 0
0.57182001 0.30717997 0
[...]
CELL_DATA 1650
Scalars  Label int 1
LOOKUP_TABLE FreeFempp_table
0
0
0
0
0
0
0
0
0
0
0
0
0
0
0
0
0
0
0
0
0
0
0
0
0
0
0
0
0
0
0
0
0
0
0
0
0
0
0
0
0
0
0
0
0
0
0
0
0
0
0
0
0
0
0
0
0
0
0
0
0
0
0
0
0
0
0
0
0
0
0
0
0
0
0
0
0
0
0
0
0
0
0
0
0
0
0
0
0
0
0
0
0
0
0
0
0
0
0
0
0
0
0
0
0
0
0
0
0
0
0
0
0
0
0
0
0
0
0
0
0
0
0
0
0
0
0
0
0
0
0
0
0
0
0
0
0
0
0
0
0
0
0
0
0
0
0
0
0
0
0
0
0
0
0
0
0
0
0
0
0
0
0
0
0
0
0
0
0
0
0
0
0
0
0
0
0
0
0
0
0
0
0
0
0
0
0
0
0
0
0
0
0
0
0
0
0
0
0
0
0
0
0
0
0
0
0
0
0
0
0
0
0
0
0
0
0
0
0
0
0
0
0
0
0
0
0
0
0
0
0
0
0
0
0
0
0
0
0
0
0
0
0
0
0
0
0
0
0
0
0
0
0
0
0
0
0
0
0
0
0
0
0
0
0
0
0
0
0
0
0
0
0
0
0
0
0
0
0
0
0
0
0
0
0
0
0
0
0
0
0
0
0
0
0
0
0
0
0
0
0
0
0
0
0
0
0
0
0
0
0
0
0
0
0
0
0
0
0
0
0
0
0
0
0
0
0
0
0
0
0
0
0
0
0
0
0
0
0
0
0
0
0
0
0
0
0
0
0
0
0
0
0
0
0
0
0
0
0
0
0
0
0
0
0
0
0
0
0
0
0
0
0
0
0
0
0
0
0
0
0
0
0
0
0
0
0
0
0
0
0
0
0
0
0
0
0
0
0
0
0
0
0
0
0
0
0
0
0
0
0
0
0
0
0
0
0
0
0
0
0
0
0
0
0
0
0
0
0
0
0
0
0
0
0
0
0
0
0
0
0
0
0
0
0
0
0
0
0
0
0
0
0
0
0
0
0
0
0
0
0
0
0
0
0
0
0
0
0
0
0
0
0
0
0
0
0
0
0
0
0
0
0
0
0
0
0
0
0
0
0
0
0
0
0
0
0
0
0
0
0
0
0
0
0
0
0
0
0
0
0
0
0
0
0
0
0
0
0
0
0
0
0
0
0
0
0
0
0
0
0
0
0
0
0
0
0
0
0
0
0
0
0
0
0
0
0
0
0
0
0
0
0
0
0
0
0
0
0
0
0
0
0
0
0
0
0
0
0
0
0
0
0
0
0
0
0
0
0
0
0
0
0
0
0
0
0
0
0
0
0
0
0
0
0
0
0
0
0
0
0
0
0
0
0
0
0
0
0
0
0
0
0
0
0
0
0
0
0
0
0
0
0
0
0
0
0
0
0
0
0
0
0
0
0
0
0
0
0
0
0
0
0
0
0
0
0
0
0
0
0
0
0
0
0
0
0
0
0
0
0
0
0
0
0
0
0
0
0
0
0
0
0
0
0
0
0
0
0
0
0
0
0
0
0
0
0
0
0
0
0
0
0
0
0
0
0
0
0
0
0
0
0
0
0
0
0
0
0
0
0
0
0
0
0
0
0
0
0
0
0
0
0
0
0
0
0
0
0
0
0
0
0
0
0
0
0
0
0
0
0
0
0
0
0
0
0
0
0
0
0
0
0
0
0
0
0
0
0
0
0
0
0
0
0
0
0
0
0
0
0
0
0
0
0
0
0
0
0
0
0
0
0
0
0
0
0
0
0
0
0
0
0
0
0
0
0
0
0
0
0
0
0
0
0
0
0
0
0
0
0
0
0
0
0
0
0
0
0
0
0
0
0
0
0
0
0
0
0
0
0
0
0
0
0
0
0
0
0
0
0
0
0
0
0
0
0
0
0
0
0
0
0
0
0
0
0
0
0
0
0
0
0
0
0
0
0
0
0
0
0
0
0
0
0
0
0
0
0
0
0
0
0
0
0
0
0
0
0
0
0
0
0
0
0
0
0
0
0
0
0
0
0
0
0
0
0
0
0
0
0
0
0
0
0
0
0
0
0
0
0
0
0
0
0
0
0
0
0
0
0
0
0
0
0
0
0
0
0
0
0
0
0
0
0
0
0
0
0
0
0
0
0
0
0
0
0
0
0
0
0
0
0
0
0
0
0
0
0
0
0
0
0
0
0
0
0
0
0
0
0
0
0
0
0
0
0
0
0
0
0
0
0
0
0
0
0
0
0
0
0
0
0
0
0
0
0
0
0
0
0
0
0
0
0
0
0
0
0
0
0
0
0
0
0
0
0
0
0
0
0
0
0
0
0
0
0
0
0
0
0
0
0
0
0
0
0
0
0
0
0
0
0
0
0
0
0
0
0
0
0
0
0
0
0
0
0
0
0
0
0
0
0
0
0
0
0
0
0
0
0
0
0
0
0
0
0
0
0
0
0
0
0
0
0
0
0
0
0
0
0
0
0
0
0
0
0
0
0
0
0
0
0
0
0
0
0
0
0
0
0
0
0
0
0
0
0
0
0
0
0
0
0
0
0
0
0
0
0
0
0
0
0
0
0
0
0
0
0
0
0
0
0
0
0
0
0
0
0
0
0
0
0
0
0
0
0
0
0
0
0
0
0
0
0
0
0
0
0
0
0
0
0
0
0
0
0
0
0
0
0
0
0
0
0
0
0
0
0
0
0
0
0
0
0
0
0
0
0
0
0
0
0
0
0
0
0
0
0
0
0
0
0
0
0
0
0
0
0
0
0
0
0
0
0
0
0
0
0
0
0
0
0
0
0
0
0
0
0
0
0
0
0
0
0
0
0
0
0
0
0
0
0
0
0
0
0
0
0
0
0
0
0
0
0
0
0
0
0
0
0
0
0
0
0
0
0
0
0
0
0
0
0
0
0
0
0
0
0
0
0
0
0
0
0
0
0
0
0
0
0
0
0
0
0
0
0
0
0
0
0
0
0
0
0
0
0
0
0
0
0
0
0
0
0
0
0
0
0
0
0
0
0
0
0
0
0
0
0
0
0
0
0
0
0
0
0
0
0
0
0
0
0
0
0
0
0
0
0
0
0
0
0
0
0
0
0
0
0
0
0
0
0
0
0
0
0
0
0
0
0
0
0
0
0
0
0
0
0
0
0
0
0
0
0
0
0
0
0
0
0
0
0
0
0
0
0
0
0
0
0
0
0
0
0
0
0
0
0
0
0
0
0
0
0
0
0
0
0
0
0
0
0
0
0
0
0
0
0
0
0
0
0
0
0
0
0
0
0
0
0
0
0
0
0
0
0
0
0
0
0
0
0
0
0
0
0
0
0
0
0
0
0
0
0
0
0
0
0
0
0
0
0
0
0
0
0
0
0
0
0
0
0
0
0
0
0
0
0
0
0
0
0
0
0
0
0
0
0
0
0
0
0
0
0
0
0
0
0
0
0
0
0
0
0
0
0
0
0
0
0
0
0
0
1
1
1
1
1
1
1
1
1
1
1
1
1
1
1
1
1
1
1
1
1
2
2
2
2
2
2
2
2
2
2
2
2
2
2
2
2
2
2
2
2
2
2
2
2
2
2
2
2
2
2
2
2
2
2
2
2
3
3
3
3
3
3
3
3
3
3
3
3
3
3
3
3
3
3
3
3
3
3
4
4
4
4
4
4
4
4
4
4
4
4
4
4
4
4
4
4
4
4
4
4
4
4
4
4
4

LOOKUP_TABLE FreeFempp_table 5
1.00000000 0.00000000 0.00000000 1.00000000
1.00000000 1.00000000 0.00000000 1.00000000
1.00000000 0.00000000 1.00000000 1.00000000
0.00000000 1.00000000 0.00000000 1.00000000
0.00000000 1.00000000 1.00000000 1.00000000

POINT_DATA 826
FIELD FieldData 1
Density 1 826 float
5.55124760e-01 5.63315451e-01 5.52069962e-01 5.76976418e-01 5.61262012e-01 5.37800789e-01 5.84836781e-01 5.69270313e-01 5.62574387e-01 5.12905121e-01 5.44536412e-01 5.88354290e-01 5.22010803e-01 5.13745725e-01 4.74821001e-01 4.90551502e-01 5.85251451e-01 5.62274814e-01 4.51635063e-01 4.86751288e-01 4.35586751e-01 3.81912023e-01 3.55776638e-01 4.18132931e-01 3.92774999e-01 6.16017580e-01 5.52295327e-01 6.07299566e-01 3.49556416e-01 4.57776368e-01 3.89454395e-01 2.51594722e-01 2.16995463e-01 2.77520835e-01 2.38208756e-01 1.89033180e-01 3.44386250e-01 2.87097931e-01 6.50323451e-01 5.27611852e-01 6.13970935e-01 6.27475858e-01 5.62055349e-01 4.70214516e-01 3.74972194e-01 2.75686890e-01 1.32646993e-01 1.59927845e-01 1.53608367e-01 3.73639107e-01 1.00279056e-01 8.17580447e-02 2.82844961e-01 1.76526383e-01 4.16067868e-01 6.15032375e-01 5.30246794e-01 4.87690955e-01 5.17852545e-01 4.36328560e-01 3.93730581e-01 2.07945615e-01 3.67593586e-01 8.56349766e-02 1.28336579e-01 6.91280067e-02 4.67058904e-02 1.90751463e-01 4.40217778e-02 2.38005385e-01 8.68275240e-02 3.63119900e-01 3.79701823e-01 4.80034143e-01 5.19204140e-01 4.18601155e-01 4.26518202e-01 3.67902130e-01 2.92583793e-01 9.10196081e-02 3.11103016e-01 5.82327135e-02 8.92855003e-02 4.37611714e-02 4.43761423e-02 2.27649465e-01 3.77613232e-02 1.55191675e-01 4.09676805e-02 3.78371030e-01 1.53477207e-01 7.76538402e-02 4.83611114e-02 3.34924906e-01 3.38471889e-01 4.08490688e-01 4.32534814e-01 3.79862547e-01 3.00554603e-01 2.78921753e-01 3.50473762e-01 2.03408822e-01 3.35404009e-01 9.25368518e-02 5.96699081e-02 5.13562597e-02 5.46674877e-02 2.01296881e-01 5.51562086e-02 1.21042758e-01 7.07800910e-02 8.38090405e-02 3.88040572e-01 4.16783422e-01 4.05075043e-01 1.07172981e-01 7.03449100e-02 1.38092175e-01 1.64352030e-01 1.34689212e-01 2.12891743e-01 2.48342752e-01 2.32742310e-01 2.87571460e-01 2.60836482e-01 1.75420970e-01 2.27433667e-01 3.27757835e-01 2.95700043e-01 2.42882773e-01 1.90706596e-01 2.09904775e-01 2.67680138e-01 6.69150874e-02 8.27738643e-02 8.40137973e-02 9.15234461e-02 4.50594485e-01 1.31795451e-01 1.47419155e-01 3.53379309e-01 1.14113845e-01 2.06328645e-01 1.36565879e-01 1.67914599e-01 1.53092623e-01 3.41861576e-01 4.22780722e-01 4.69747663e-01 4.94504273e-01 1.01879939e-01 7.79901594e-02 6.94946572e-02 9.86614078e-02 1.18107945e-01 1.91427588e-01 1.30712494e-01 1.94888681e-01 2.16028005e-01 1.94014922e-01 1.63252011e-01 1.40605003e-01 2.29212120e-01 1.88511342e-01 1.65704563e-01 1.26692802e-01 1.07523538e-01 1.34706467e-01 5.10477424e-01 7.99543560e-02 5.14327995e-02 3.59548897e-01 2.12549284e-01 2.27995604e-01 2.87970483e-01 2.58119911e-01 1.92531914e-01 3.55428338e-01 2.55856752e-01 4.81097132e-01 4.80743885e-01 5.54400444e-01 5.55862904e-01 5.03214560e-02 1.66660801e-01 1.20808110e-01 7.69417211e-02 1.58717766e-01 6.80411905e-02 6.75856546e-02 1.34991854e-01 1.48207515e-01 1.01554662e-01 1.49609178e-01 1.41574472e-01 7.04406649e-02 8.44971389e-02 1.48612589e-01 1.08288743e-01 9.05548111e-02 8.11579451e-02 7.00275674e-02 7.35811964e-02 3.49785209e-01 4.14602399e-01 2.60812730e-01 3.58362436e-01 3.57178837e-01 2.28612930e-01 4.27506894e-01 5.21323442e-01 5.00896394e-01 5.45015037e-01 6.70204535e-02 2.89055884e-01 2.58686423e-01 1.03981726e-01 1.65449336e-01 1.16652563e-01 1.42649829e-01 5.52598871e-02 4.69206795e-02 8.85485932e-02 1.00889340e-01 7.77444020e-02 6.17055818e-02 8.02326575e-02 5.88118993e-02 8.53055716e-02 1.27643541e-01 7.89278969e-02 8.60673040e-02 8.86085555e-02 1.08592339e-01 3.78692508e-01 2.33451545e-01 3.59331101e-01 4.54965264e-01 4.26513642e-01 4.38532561e-01 3.55697185e-01 6.59145787e-02 1.51087344e-01 9.57367271e-02 3.67407113e-01 3.48859459e-01 2.37581566e-01 1.21686734e-01 1.28165931e-01 1.11936629e-01 6.04140423e-02 9.03058723e-02 7.11539760e-02 6.61022514e-02 7.22204819e-02 5.51436208e-02 1.33190125e-01 2.23673061e-01 1.16566680e-01 1.53517932e-01 1.46849528e-01 1.32079512e-01 1.21001504e-01 1.62496820e-01 2.29638100e-01 1.79223418e-01 2.95671940e-01 3.65941942e-01 3.07082474e-01 2.69459516e-01 3.29956323e-01 4.08927113e-01 3.72238159e-01 9.62752998e-02 5.41731082e-02 1.94604740e-01 1.33740112e-01 4.46459055e-01 4.00685012e-01 1.76347435e-01 1.19936429e-01 1.12044439e-01 1.08102910e-01 1.85857490e-01 7.67608285e-02 7.43673146e-02 1.18173592e-01 6.40451983e-02 1.54867962e-01 3.24456602e-01 2.72253931e-01 2.61526853e-01 2.40035623e-01 2.06271231e-01 2.03211069e-01 2.26528779e-01 2.93699145e-01 3.23405117e-01 1.51090160e-01 2.21543118e-01 2.11507931e-01 3.71973515e-01 2.88601816e-01 2.83486187e-01 2.37047493e-01 3.39805901e-01 4.56328511e-01 1.09425232e-01 1.02276258e-01 1.28882289e-01 3.81244868e-02 6.61678985e-02 2.86615044e-01 2.42608562e-01 4.86758888e-01 4.95266944e-01 1.64408848e-01 1.70331091e-01 2.97843248e-01 2.15914920e-01 9.92965922e-02 1.57196969e-01 1.17422491e-01 1.78911716e-01 3.73487562e-01 2.38081366e-01 3.30398083e-01 3.32899094e-01 3.70474130e-01 3.31374198e-01 3.25139791e-01 3.49769056e-01 3.70524585e-01 2.75127590e-01 4.73531097e-01 3.63925666e-01 3.82613152e-01 2.03333661e-01 4.88417238e-01 3.81671101e-01 1.92472771e-01 1.46273583e-01 2.42393780e-02 2.76894242e-01 1.92660391e-01 8.30451846e-02 3.88293415e-02 4.42178428e-01 3.50283802e-01 5.35357893e-01 5.78246772e-01 3.10019642e-01 3.50347579e-01 3.09102327e-01 1.55311212e-01 1.95646480e-01 2.53049344e-01 1.99101016e-01 3.86958361e-01 3.36985350e-01 2.53536195e-01 3.89639944e-01 3.95356447e-01 4.29123759e-01 4.06598598e-01 4.07950372e-01 5.58888376e-01 4.32017237e-01 4.28596735e-01 4.44092125e-01 3.87097299e-01 2.51231700e-01 5.06719887e-01 2.71789521e-01 2.85638124e-01 2.34859675e-01 3.09481733e-02 3.70205827e-02 3.78261358e-01 1.30665824e-01 6.64208308e-02 5.24579108e-01 4.55182523e-01 6.12392962e-01 6.07433200e-01 4.70859617e-01 4.59564537e-01 3.77755016e-01 3.97654951e-01 3.51301730e-01 2.06322983e-01 2.83278674e-01 2.40836963e-01 2.50295043e-01 3.99392039e-01 3.35319430e-01 4.74465519e-01 4.10351843e-01 4.20329154e-01 4.30622786e-01 4.50406253e-01 4.83923227e-01 4.38872248e-01 3.06945890e-01 5.58100700e-01 4.83364910e-02 2.25519866e-01 4.37217623e-01 3.64227742e-01 3.11590582e-01 5.59749454e-02 5.06477468e-02 4.60657060e-01 1.04736865e-01 5.84538519e-01 6.15052819e-01 6.34687185e-01 6.39641464e-01 5.02558708e-01 5.09499490e-01 3.89453501e-01 4.14023787e-01 3.56590271e-01 2.84275502e-01 3.22458386e-01 3.07065725e-01 3.56875420e-01 4.41637218e-01 5.07135034e-01 4.82707083e-01 4.41011161e-01 4.41625625e-01 4.48069692e-01 4.62931216e-01 4.54480797e-01 3.62703115e-01 5.64551473e-01 3.78671110e-01 7.88625479e-02 2.05867767e-01 3.87558579e-01 5.52326679e-01 3.78574163e-01 3.88423860e-01 8.71127024e-02 1.39996901e-01 8.47212821e-02 4.36571509e-01 4.92069691e-01 1.12650082e-01 6.20939791e-01 6.20548487e-01 6.43287063e-01 6.47976279e-01 5.19741833e-01 5.23460507e-01 4.23272818e-01 3.85918617e-01 4.22411203e-01 4.44869012e-01 4.20029074e-01 5.08601010e-01 4.39424336e-01 5.20335674e-01 5.07253587e-01 4.90533590e-01 4.74537164e-01 4.83858734e-01 4.78681415e-01 4.81649548e-01 5.56610584e-01 4.75337476e-01 1.26274735e-01 4.74662870e-01 2.72099167e-01 5.98704398e-01 4.34757322e-01 4.78524745e-01 1.22671552e-01 1.67955115e-01 1.94118321e-01 1.47757083e-01 5.09674609e-01 4.74719882e-01 1.51045293e-01 1.76613584e-01 6.36343479e-01 5.61280191e-01 6.06817126e-01 6.32236540e-01 5.26309133e-01 4.84550118e-01 5.12561262e-01 5.25659025e-01 5.63033938e-01 5.40198445e-01 5.27885139e-01 5.24681926e-01 5.19482613e-01 5.13126075e-01 5.27117491e-01 5.24945736e-01 5.28161824e-01 1.92881346e-01 5.26226163e-01 3.78204376e-01 5.91593146e-01 2.33560368e-01 4.87501174e-01 5.02368867e-01 5.12064934e-01 1.96778119e-01 2.19257936e-01 2.99025208e-01 2.86960691e-01 2.53735393e-01 5.19019067e-01 5.04258633e-01 2.93870181e-01 2.48086333e-01 3.33064884e-01 2.90642560e-01 5.97248197e-01 4.97728676e-01 5.37064552e-01 5.78560114e-01 5.28411686e-01 5.63548446e-01 5.89201212e-01 5.81333339e-01 5.88493228e-01 5.42148113e-01 5.36655545e-01 5.51431119e-01 5.70989847e-01 4.63828981e-01 5.21852612e-01 5.22516191e-01 3.91111821e-01 2.88338929e-01 5.02797663e-01 4.99000072e-01 4.86456424e-01 3.31326962e-01 4.12530720e-01 4.57377106e-01 5.54515719e-01 3.40702295e-01 4.17768478e-01 5.15703440e-01 5.20607769e-01 4.72013801e-01 5.26557624e-01 4.64606673e-01 4.53723729e-01 5.66392839e-01 4.58555102e-01 4.70244080e-01 5.20686269e-01 5.29569387e-01 5.47979414e-01 6.04815006e-01 5.99137783e-01 6.12087846e-01 5.64415753e-01 5.91167629e-01 4.69253451e-01 4.08277363e-01 4.97467786e-01 4.74068373e-01 5.52409768e-01 5.49455285e-01 5.58701456e-01 5.32398403e-01 5.57048619e-01 4.52702820e-01 5.06658316e-01 6.66194856e-01 6.36022568e-01 6.01046503e-01 6.47217035e-01 5.92935145e-01 6.18504107e-01 5.84184647e-01 4.44038898e-01 4.65788126e-01 5.18754721e-01 5.65834105e-01 5.17354727e-01 5.38306415e-01 5.95964611e-01 6.16098106e-01 6.18636370e-01 5.95043004e-01 4.77137595e-01 6.50439501e-01 6.36077285e-01 6.26798868e-01 6.39911890e-01 4.54114765e-01 4.69153017e-01 4.89388764e-01 7.09928632e-01 7.00246334e-01 6.51665688e-01 6.86730325e-01 6.54798985e-01 6.74805582e-01 6.41294181e-01 5.76095045e-01 4.59762514e-01 4.67833459e-01 5.06260872e-01 5.70317090e-01 5.31916261e-01 5.08411169e-01 5.73534787e-01 5.99965930e-01 5.99629760e-01 6.68803930e-01 6.76912725e-01 4.72481072e-01 4.86363411e-01 4.82597530e-01 6.52510345e-01 6.80491686e-01 7.07860231e-01 6.60110950e-01 6.76195621e-01 6.73756361e-01 6.69031382e-01 6.15651071e-01 5.49579084e-01 4.90308225e-01 5.13082385e-01 5.44619560e-01 5.70599616e-01 5.16486943e-01 5.03354490e-01 5.61027825e-01 5.18095374e-01 5.70747972e-01 5.53260863e-01 4.90726650e-01 4.98153895e-01 4.98164803e-01 4.98964429e-01 6.38599396e-01 6.19589567e-01 6.58469021e-01 6.65756881e-01 6.15086675e-01 6.20767057e-01 6.18301094e-01 6.36509418e-01 5.69219828e-01 5.96118510e-01 5.34766257e-01 5.14960408e-01 5.09097457e-01 5.18342257e-01 4.95777130e-01 4.09677923e-01 4.77772176e-01 4.34743106e-01 4.94771302e-01 4.72714424e-01 4.00362045e-01 5.07414520e-01 4.95569587e-01 5.76958656e-01 5.51726103e-01 6.14180326e-01 5.92412829e-01 5.50029695e-01 5.61362624e-01 5.53421617e-01 5.64251721e-01 5.42801261e-01 5.48536181e-01 5.33303201e-01 5.25067806e-01 4.83668178e-01 4.71657068e-01 4.40961987e-01 4.82099622e-01 3.00520897e-01 3.03245902e-01 3.81382227e-01 3.51686329e-01 2.83276379e-01 5.14073908e-01 4.98379141e-01 5.21030724e-01 4.98374671e-01 4.89824146e-01 5.58291912e-01 5.09290636e-01 5.11645138e-01 5.20113468e-01 5.18980145e-01 5.23512304e-01 5.24846733e-01 4.53597188e-01 4.26917940e-01 3.51301163e-01 4.87133890e-01 4.67629284e-01 2.16347247e-01 1.94770068e-01 2.35844046e-01 2.34928042e-01 5.09127021e-01 4.63999659e-01 4.89547163e-01 4.54048216e-01 4.41284865e-01 5.23576617e-01 4.80437338e-01 4.99883354e-01 5.03950596e-01 4.92489576e-01 5.02534568e-01 5.15128076e-01 4.81790423e-01 4.03860927e-01 3.37696880e-01 2.52063423e-01 4.60368991e-01 1.45891026e-01 1.39519095e-01 1.47858143e-01 1.57028332e-01 4.95921195e-01 4.36482847e-01 4.70334917e-01 4.93714213e-01 4.41512436e-01 4.26807791e-01 4.73792434e-01 5.03896296e-01 4.87896085e-01 1.74681932e-01 4.93092328e-01 4.80658203e-01 4.68649328e-01 4.80978072e-01 4.75387096e-01 4.86444205e-01 4.69660312e-01 4.60608661e-01 3.85806233e-01 3.39730024e-01 2.62556732e-01 4.42328215e-01 9.06078890e-02 1.02092147e-01 9.08471867e-02 9.91235897e-02 4.16545630e-01 4.92835343e-01 1.66379392e-01 4.72069919e-01 4.54447091e-01 4.56811935e-01 4.60473329e-01 4.62176830e-01 4.49855953e-01 4.58513886e-01 2.59520084e-01 3.89820814e-01 3.35533530e-01 4.33677793e-01 5.40541969e-02 1.07162572e-01 6.71386868e-02 5.73183969e-02 2.12247834e-01 4.57227707e-01 4.45725501e-01 4.50789452e-01 4.56183225e-01 4.53226477e-01 3.31565052e-01 4.01130617e-01 4.26848143e-01 1.45427480e-01 3.49044278e-02 7.11683035e-02 4.29923944e-02 2.74075270e-01 4.50740874e-01 4.51814085e-01 4.45674449e-01 4.53121483e-01 4.38784540e-01 1.49230257e-01 2.32406870e-01 3.71255994e-01 4.13160473e-01 8.98296535e-02 3.51917110e-02 5.02806343e-02 3.29805464e-01 4.63830054e-01 4.55210656e-01 4.64095414e-01 4.52641636e-01 4.22017008e-01 7.86823630e-02 1.15340121e-01 1.67498305e-01 2.34574571e-01 3.19448948e-01 3.83703113e-01 5.21168560e-02 3.92422713e-02 4.23368990e-01 3.14917326e-01 7.33383596e-02 1.00069411e-01 1.41688362e-01 2.13499516e-01 3.82626683e-01 5.60854450e-02 4.41213138e-02 
