# vtk DataFile Version 2.0
results/5_density.vtk, Created by Freefem++ 
ASCII
DATASET UNSTRUCTURED_GRID
POINTS 744 float
0.0081913397 1 0
0 1 0
0.026410173 1 0
0.016322699 1 0
0.042709439 1 0
0.012152263 0.83887191 0
0 0.80402208 0
0.033663884 0.84824761 0
0.021960267 0.84920457 0
0.050290289 0.85925951 0
0.063219097 1 0
0.026497 0.75083568 0
0.012633738 0.72735361 0
0 0.69119208 0
0.041440349 0.76476412 0
0.067466394 0.87868408 0
0.061544728 0.77872808 0
0.077512058 1 0
0.090141238 1 0
0.076800109 0.82455835 0
0.070462915 0.73017456 0
0.045813818 0.70639316 0
0.02767461 0.67851227 0
0.01579369 0.64729334 0
0 0.62614827 0
0.086068753 0.87683565 0
0.087104236 0.77469728 0
0.10516855 1 0
0.10070256 0.88481219 0
0.091134882 0.70124562 0
0.068330289 0.66881273 0
0.12769581 1 0
0.1661115 1 0
0.04856624 0.64599756 0
0.036800292 0.61638636 0
0.024461781 0.58963559 0
0 0.57931485 0
0.10543676 0.79741829 0
0.10942075 0.72478812 0
0.12220707 0.86279082 0
0.09575861 0.63435768 0
0.11820341 0.64770863 0
0.07967809 0.60847113 0
0.14153513 0.93049908 0
0.18381885 0.95123026 0
0.22763935 1 0
0.06594731 0.58498681 0
0.054383468 0.55864637 0
0.035743734 0.54132185 0
0 0.539252 0
0.13206602 0.74135006 0
0.13904844 0.66122126 0
0.14740763 0.87502117 0
0.15860335 0.81351833 0
0.14603018 0.77180224 0
0.1221116 0.58377023 0
0.14733557 0.59389895 0
0.10735478 0.5570691 0
0.18440703 0.90400175 0
0.25067597 0.94591894 0
0.31370029 1 0
0.16517666 0.65698805 0
0.088646314 0.53252937 0
0.070853392 0.50593369 0
0.039815375 0.50220284 0
0 0.50175032 0
0.18158747 0.69180866 0
0.17469581 0.58939922 0
0.19878361 0.84319971 0
0.19813794 0.73703641 0
0.2167017 0.78340617 0
0.15796339 0.54558241 0
0.13247231 0.52252278 0
0.22898074 0.88630412 0
0.34716896 0.95981532 0
0.31279718 0.91245701 0
0.41492448 1 0
0.20212729 0.61466159 0
1 1 0
0.11782178 0.49664362 0
0.045271781 0.46719114 0
0.096503014 0.47190861 0
0 0.46569721 0
0.23632322 0.65511102 0
0.19733951 0.54670014 0
0.28187622 0.80268055 0
0.28768169 0.85301632 0
0.26684324 0.70990461 0
0.29938409 0.75047055 0
0.16846159 0.50298764 0
0.43358437 0.94708257 0
0.38439872 0.88350667 0
0.49827372 1 0
0.22763457 0.58296217 0
0.91744933 0.98643443 0
0.88085723 1 0
1 0.97731476 0
0.62999304 1 0
0.56478575 1 0
0.70180237 1 0
0.78235339 1 0
0.20847651 0.50697592 0
0.1479021 0.46728884 0
0.045101606 0.42445815 0
0 0.43051038 0
0.07937246 0.44805383 0
0.12574867 0.43853651 0
0.26490512 0.59271878 0
0.29510063 0.6413071 0
0.24217583 0.53741176 0
0.37465273 0.81785229 0
0.3777044 0.76455273 0
0.34520116 0.69765421 0
0.19374936 0.46812584 0
0.53885281 0.95758944 0
0.48141986 0.91393476 0
0.43992466 0.85225389 0
0.86483796 0.97517173 0
1 0.95726884 0
0.62309758 0.97158075 0
0.69643628 0.97241734 0
0.7774785 0.97347767 0
0.23418444 0.48483559 0
1 0.93428872 0
0.59191777 0.9407374 0
0.17182743 0.43386704 0
0.090596392 0.41546831 0
0 0.39329042 0
0.062944353 0.39056333 0
0.12854774 0.40574813 0
0.2967992 0.56498406 0
0.33680391 0.62353393 0
0.27348854 0.51522236 0
0.45576913 0.80330207 0
0.42125203 0.73417615 0
0.39497115 0.66446447 0
0.22388826 0.44062119 0
0.54424383 0.90990424 0
0.50018645 0.86673435 0
0.86739906 0.95113432 0
0.64591025 0.94173468 0
0.73550429 0.95348257 0
0.2748364 0.47575668 0
1 0.90895865 0
0.92696109 0.92735068 0
0.59627734 0.90630468 0
0.17794868 0.40265562 0
0 0.36279212 0
0.055270104 0.36496926 0
0.11936649 0.37917076 0
0.32791728 0.52607906 0
0.35667027 0.58258137 0
0.48441826 0.77027432 0
0.52291859 0.84019073 0
0.51953321 0.80355292 0
0.4642824 0.71216039 0
0.42495472 0.63327038 0
0.28074666 0.44079203 0
0.22555258 0.40620664 0
0.56567418 0.8698261 0
0.85531518 0.92280489 0
0.78336743 0.93795843 0
0.69442229 0.92876604 0
0.64337744 0.91070079 0
0.33113708 0.48695139 0
0.92101455 0.90322525 0
1 0.88791317 0
0.62139212 0.87859019 0
0.17442971 0.37445969 0
0 0.34414789 0
0.08776893 0.3557917 0
0.39914339 0.5164572 0
0.39543524 0.56106392 0
0.52083352 0.7506599 0
0.57368559 0.82864095 0
0.55269645 0.79215973 0
0.49727334 0.68860527 0
0.45673052 0.61018651 0
0.35954836 0.46027204 0
0.28461112 0.40811927 0
0.61086811 0.85176181 0
0.84064449 0.90230542 0
0.77039031 0.91616591 0
0.70476506 0.90715413 0
0.66411528 0.88869655 0
0.91501341 0.88632344 0
1 0.87042087 0
0.65943433 0.86372731 0
0.50945001 0.65160701 0
0.23396291 0.36975598 0
0.1550197 0.34960565 0
0.094120339 0.34430812 0
0 0.32958271 0
0.47030696 0.56775269 0
0.45645541 0.49176563 0
0.50504591 0.54474337 0
0.5521302 0.71892124 0
0.56639893 0.76086282 0
0.62794858 0.82983917 0
0.59611986 0.79902191 0
0.56101496 0.67886552 0
0.53584133 0.62424625 0
0.41513044 0.43752214 0
0.33093017 0.39688543 0
0.8355541 0.88584431 0
0.76711947 0.89817127 0
0.71072209 0.88771256 0
0.92335795 0.87019999 0
1 0.85373868 0
0.67137439 0.84942749 0
0.70711692 0.87169232 0
0.5186144 0.46728934 0
0.65007382 0.82169544 0
0.67527952 0.82397267 0
0.23641889 0.34903186 0
0.34138654 0.37054998 0
0.083880524 0.32753507 0
0.16488119 0.33375252 0
0 0.31583863 0
0.56875081 0.60530467 0
0.56106965 0.52741918 0
0.59828148 0.58703394 0
0.60933154 0.69394302 0
0.60047918 0.72903622 0
0.61008446 0.76636576 0
0.6320136 0.79240155 0
0.60779859 0.65621936 0
0.54723831 0.43729991 0
0.43308428 0.40475226 0
0.81439655 0.87447954 0
0.76249879 0.87934176 0
0.87040091 0.86711955 0
0.93808555 0.85182963 0
1 0.83598866 0
0.69928156 0.84938165 0
0.73139728 0.86424237 0
0.60726076 0.49679792 0
0.66076778 0.79657345 0
0.6927068 0.80514952 0
0.70286238 0.82915043 0
0.63820024 0.73712377 0
0.8900101 0.84706335 0
0.24307099 0.32776308 0
0.3401254 0.33796133 0
0.5123495 0.39342212 0
0.43802996 0.36029191 0
0.074391186 0.31096917 0
0 0.30048711 0
0.13283919 0.3172712 0
0.19286836 0.3134281 0
0.64506694 0.62966626 0
0.640753 0.56924234 0
0.65657121 0.66864527 0
0.65325447 0.70068808 0
0.65481508 0.76213813 0
0.61881702 0.4298746 0
0.65838423 0.47874867 0
0.79484855 0.85988928 0
0.83967575 0.85387513 0
0.76088538 0.85401657 0
0.94204084 0.83059132 0
1 0.8147605 0
0.73247394 0.84108239 0
0.6825044 0.54041187 0
0.67717319 0.77859492 0
0.72746803 0.80151897 0
0.70573416 0.78532055 0
0.73356429 0.81874079 0
0.67729282 0.72376253 0
0.88192906 0.82925109 0
0.25126229 0.29889595 0
0.32632082 0.30478356 0
0.48063767 0.33491075 0
0.41689581 0.30837327 0
0.62683607 0.40376058 0
0.55748232 0.36901144 0
0.11249011 0.29407663 0
0.057597672 0.29131461 0
0 0.2796657 0
0.16230463 0.29564982 0
0.20457397 0.27719743 0
0.69828665 0.63955372 0
0.69228433 0.59961228 0
0.70028287 0.67711618 0
0.69498152 0.74651504 0
0.6903671 0.45001307 0
0.72695523 0.53214907 0
0.72585831 0.49336383 0
0.79513757 0.83800488 0
0.83252081 0.83323416 0
0.77108468 0.82645487 0
0.94016909 0.80849053 0
1 0.79035618 0
0.73715136 0.57268598 0
0.7018645 0.76525785 0
0.76564124 0.80638674 0
0.74709119 0.78513329 0
0.73157872 0.76822836 0
0.70979951 0.7083716 0
0.87829561 0.81120286 0
1 0.77146663 0
0.77649001 0.75970762 0
0.74304918 0.45934122 0
0.24786136 0.26432077 0
0.31543779 0.26897113 0
0.40937747 0.26976689 0
0.50303745 0.30080858 0
0.57326828 0.34125093 0
0.70611512 0.42371389 0
0.64472571 0.38357605 0
0.12805193 0.26689314 0
0.087390627 0.26694889 0
0.041913876 0.2675014 0
0 0.25123446 0
0.16541978 0.26776035 0
0.21215764 0.23186414 0
0.17334265 0.23946454 0
0.74432522 0.60630403 0
0.74867994 0.63851489 0
0.75365696 0.67299858 0
0.74007532 0.74073852 0
0.7405401 0.71486315 0
0.76936609 0.53598589 0
0.77535883 0.5715522 0
0.76968987 0.49978137 0
0.82360646 0.81652854 0
0.80362153 0.80904317 0
0.93728638 0.78817428 0
0.8130312 0.79417896 0
0.7820691 0.79169361 0
0.79045222 0.77348611 0
0.76615066 0.74574095 0
0.87680302 0.79764084 0
1 0.75591368 0
0.8218674 0.74662458 0
0.81227514 0.72684066 0
0.7636416 0.43543389 0
0.77751089 0.4654051 0
0.26975274 0.23029125 0
0.33573965 0.23247094 0
0.39169644 0.22657056 0
0.49124649 0.26426052 0
0.5718099 0.30736498 0
0.6391611 0.35520948 0
0.70625382 0.39971468 0
0.13142624 0.23587727 0
0.096808194 0.23702664 0
0.057539344 0.24288134 0
0 0.22132875 0
0.042701853 0.22384633 0
0.19545266 0.1895212 0
0.23438825 0.19743591 0
0.16694386 0.20045817 0
0.13308212 0.2042528 0
0.79123208 0.60119343 0
0.80012113 0.63489756 0
0.79770128 0.6724763 0
0.79873675 0.71377118 0
0.78319594 0.70566923 0
0.80510792 0.56064653 0
0.80557444 0.52597007 0
0.80592224 0.494535 0
0.8544722 0.79241682 0
0.93815472 0.76928478 0
0.855947 0.77884411 0
0.83007116 0.77057039 0
0.9055511 0.77383148 0
1 0.73930627 0
0.8484555 0.7119765 0
0.85618956 0.73891131 0
0.84049014 0.6916211 0
0.76188524 0.4061692 0
0.81103948 0.46702538 0
0.81393933 0.44384863 0
0.72513588 0.39386543 0
0.28871153 0.19448919 0
0.35318566 0.19082667 0
0.45402237 0.22631391 0
0.55248842 0.27039102 0
0.64043073 0.33302924 0
0.1034785 0.20598455 0
0.078841842 0.21302243 0
0 0.18145875 0
0.031672644 0.19564581 0
0.061231986 0.18870508 0
0.21820886 0.16564901 0
0.1654566 0.16236965 0
0.12815507 0.16595108 0
0.10328901 0.16896312 0
0.83351792 0.60246015 0
0.82988021 0.57063894 0
0.84391433 0.6307983 0
0.83534341 0.66862274 0
0.83797959 0.53045562 0
0.83630722 0.50030638 0
0.89989602 0.76075909 0
0.94848133 0.74366715 0
0.87539625 0.75731949 0
1 0.72159788 0
0.87773121 0.70702165 0
0.87330437 0.67701866 0
0.88822239 0.73429991 0
0.87198029 0.6506011 0
0.79394071 0.40807762 0
0.68119863 0.34363107 0
0.71591847 0.35265194 0
0.84295883 0.47556835 0
0.8385606 0.43649284 0
0.85658132 0.46378749 0
0.75887611 0.36724991 0
0.85764151 0.43459032 0
0.27151781 0.16601964 0
0.41348926 0.18904868 0
0.31998128 0.16035468 0
0.50246066 0.22883046 0
0.55830257 0.24681714 0
0.607546 0.2846186 0
0.082901423 0.17229898 0
0.032449395 0.16140881 0
0 0.14110092 0
0.063194171 0.14831664 0
0.24521688 0.14218216 0
0.18041037 0.13910434 0
0.12517594 0.13501382 0
0.090499529 0.13566179 0
0.86029146 0.56615058 0
0.87266644 0.58726023 0
0.86167269 0.53009064 0
0.88017126 0.61265571 0
0.86240982 0.49489992 0
0.93500097 0.72839792 0
0.91489764 0.72765278 0
1 0.69853265 0
[...]
CELL_DATA 1486
Scalars  Label int 1
LOOKUP_TABLE FreeFempp_table
0
0
0
0
0
0
0
0
0
0
0
0
0
0
0
0
0
0
0
0
0
0
0
0
0
0
0
0
0
0
0
0
0
0
0
0
0
0
0
0
0
0
0
0
0
0
0
0
0
0
0
0
0
0
0
0
0
0
0
0
0
0
0
0
0
0
0
0
0
0
0
0
0
0
0
0
0
0
0
0
0
0
0
0
0
0
0
0
0
0
0
0
0
0
0
0
0
0
0
0
0
0
0
0
0
0
0
0
0
0
0
0
0
0
0
0
0
0
0
0
0
0
0
0
0
0
0
0
0
0
0
0
0
0
0
0
0
0
0
0
0
0
0
0
0
0
0
0
0
0
0
0
0
0
0
0
0
0
0
0
0
0
0
0
0
0
0
0
0
0
0
0
0
0
0
0
0
0
0
0
0
0
0
0
0
0
0
0
0
0
0
0
0
0
0
0
0
0
0
0
0
0
0
0
0
0
0
0
0
0
0
0
0
0
0
0
0
0
0
0
0
0
0
0
0
0
0
0
0
0
0
0
0
0
0
0
0
0
0
0
0
0
0
0
0
0
0
0
0
0
0
0
0
0
0
0
0
0
0
0
0
0
0
0
0
0
0
0
0
0
0
0
0
0
0
0
0
0
0
0
0
0
0
0
0
0
0
0
0
0
0
0
0
0
0
0
0
0
0
0
0
0
0
0
0
0
0
0
0
0
0
0
0
0
0
0
0
0
0
0
0
0
0
0
0
0
0
0
0
0
0
0
0
0
0
0
0
0
0
0
0
0
0
0
0
0
0
0
0
0
0
0
0
0
0
0
0
0
0
0
0
0
0
0
0
0
0
0
0
0
0
0
0
0
0
0
0
0
0
0
0
0
0
0
0
0
0
0
0
0
0
0
0
0
0
0
0
0
0
0
0
0
0
0
0
0
0
0
0
0
0
0
0
0
0
0
0
0
0
0
0
0
0
0
0
0
0
0
0
0
0
0
0
0
0
0
0
0
0
0
0
0
0
0
0
0
0
0
0
0
0
0
0
0
0
0
0
0
0
0
0
0
0
0
0
0
0
0
0
0
0
0
0
0
0
0
0
0
0
0
0
0
0
0
0
0
0
0
0
0
0
0
0
0
0
0
0
0
0
0
0
0
0
0
0
0
0
0
0
0
0
0
0
0
0
0
0
0
0
0
0
0
0
0
0
0
0
0
0
0
0
0
0
0
0
0
0
0
0
0
0
0
0
0
0
0
0
0
0
0
0
0
0
0
0
0
0
0
0
0
0
0
0
0
0
0
0
0
0
0
0
0
0
0
0
0
0
0
0
0
0
0
0
0
0
0
0
0
0
0
0
0
0
0
0
0
0
0
0
0
0
0
0
0
0
0
0
0
0
0
0
0
0
0
0
0
0
0
0
0
0
0
0
0
0
0
0
0
0
0
0
0
0
0
0
0
0
0
0
0
0
0
0
0
0
0
0
0
0
0
0
0
0
0
0
0
0
0
0
0
0
0
0
0
0
0
0
0
0
0
0
0
0
0
0
0
0
0
0
0
0
0
0
0
0
0
0
0
0
0
0
0
0
0
0
0
0
0
0
0
0
0
0
0
0
0
0
0
0
0
0
0
0
0
0
0
0
0
0
0
0
0
0
0
0
0
0
0
0
0
0
0
0
0
0
0
0
0
0
0
0
0
0
0
0
0
0
0
0
0
0
0
0
0
0
0
0
0
0
0
0
0
0
0
0
0
0
0
0
0
0
0
0
0
0
0
0
0
0
0
0
0
0
0
0
0
0
0
0
0
0
0
0
0
0
0
0
0
0
0
0
0
0
0
0
0
0
0
0
0
0
0
0
0
0
0
0
0
0
0
0
0
0
0
0
0
0
0
0
0
0
0
0
0
0
0
0
0
0
0
0
0
0
0
0
0
0
0
0
0
0
0
0
0
0
0
0
0
0
0
0
0
0
0
0
0
0
0
0
0
0
0
0
0
0
0
0
0
0
0
0
0
0
0
0
0
0
0
0
0
0
0
0
0
0
0
0
0
0
0
0
0
0
0
0
0
0
0
0
0
0
0
0
0
0
0
0
0
0
0
0
0
0
0
0
0
0
0
0
0
0
0
0
0
0
0
0
0
0
0
0
0
0
0
0
0
0
0
0
0
0
0
0
0
0
0
0
0
0
0
0
0
0
0
0
0
0
0
0
0
0
0
0
0
0
0
0
0
0
0
0
0
0
0
0
0
0
0
0
0
0
0
0
0
0
0
0
0
0
0
0
0
0
0
0
0
0
0
0
0
0
0
0
0
0
0
0
0
0
0
0
0
0
0
0
0
0
0
0
0
0
0
0
0
0
0
0
0
0
0
0
0
0
0
0
0
0
0
0
0
0
0
0
0
0
0
0
0
0
0
0
0
0
0
0
0
0
0
0
0
0
0
0
0
0
0
0
0
0
0
0
0
0
0
0
0
0
0
0
0
0
0
0
0
0
0
0
0
0
0
0
0
0
0
0
0
0
0
0
0
0
0
0
0
0
0
0
0
0
0
0
0
0
0
0
0
0
0
0
0
0
0
0
0
0
0
0
0
0
0
0
0
0
0
0
0
0
0
0
0
0
0
0
0
0
0
0
0
0
0
0
0
0
0
0
0
0
0
0
0
0
0
0
0
0
0
0
0
0
0
0
0
0
0
0
0
0
0
0
0
0
0
0
0
0
0
0
0
0
0
0
0
0
0
0
0
0
0
0
0
0
0
0
0
0
0
0
0
0
0
0
0
0
0
0
0
0
0
0
0
0
0
0
0
0
0
0
0
0
0
0
0
0
0
0
0
0
0
0
0
0
0
0
0
0
0
0
0
0
0
0
0
0
0
0
0
0
0
0
0
0
0
0
0
0
0
0
0
0
0
0
0
0
0
0
0
0
0
0
0
0
0
0
0
0
0
0
0
0
0
0
0
0
0
0
0
0
0
0
0
0
0
0
0
0
0
0
0
0
0
0
0
0
0
0
0
0
0
0
0
0
0
0
0
0
0
0
0
0
0
0
0
0
0
0
0
0
0
0
0
0
0
0
0
0
0
0
0
0
0
0
0
0
0
0
0
0
0
0
0
0
0
0
0
0
0
0
0
0
0
0
0
0
0
0
0
0
0
0
1
1
1
1
1
1
1
1
1
1
1
1
1
1
1
1
1
1
1
2
2
2
2
2
2
2
2
2
2
2
2
2
2
2
2
2
2
2
2
2
2
2
2
2
2
2
2
2
2
2
2
2
3
3
3
3
3
3
3
3
3
3
3
3
3
3
3
3
3
3
3
3
4
4
4
4
4
4
4
4
4
4
4
4
4
4
4
4
4
4
4
4
4
4
4
4
4

LOOKUP_TABLE FreeFempp_table 5
1.00000000 0.00000000 0.00000000 1.00000000
1.00000000 1.00000000 0.00000000 1.00000000
1.00000000 0.00000000 1.00000000 1.00000000
0.00000000 1.00000000 0.00000000 1.00000000
0.00000000 1.00000000 1.00000000 1.00000000

POINT_DATA 744
FIELD FieldData 1
Density 1 744 float
8.81838948e-02 7.93357790e-02 1.38979822e-01 1.04009613e-01 2.20881790e-01 7.94213116e-02 6.67360947e-02 1.49466619e-01 1.05259754e-01 2.35409617e-01 3.34202528e-01 1.06005803e-01 7.00990930e-02 5.51332869e-02 1.69515818e-01 3.27859789e-01 2.70824164e-01 3.96207035e-01 4.29106921e-01 3.51079553e-01 2.79071540e-01 1.55337855e-01 8.25589448e-02 5.58557659e-02 4.93416898e-02 3.98007512e-01 3.68077189e-01 4.48583394e-01 4.29953158e-01 3.23877811e-01 2.01648071e-01 4.57260251e-01 4.55352694e-01 1.13490440e-01 7.58553073e-02 6.56377748e-02 6.40325323e-02 4.18988228e-01 3.91502976e-01 4.47411150e-01 2.48248652e-01 3.29377353e-01 1.68272182e-01 4.52028900e-01 4.48697180e-01 4.51431930e-01 1.18516006e-01 1.01079203e-01 9.62057114e-02 9.65771005e-02 4.31056440e-01 3.84544045e-01 4.55703825e-01 4.57941532e-01 4.48264509e-01 2.65619427e-01 3.36238742e-01 2.07931206e-01 4.52228308e-01 4.48979884e-01 4.53801513e-01 4.13572818e-01 1.62087932e-01 1.53045908e-01 1.41955286e-01 1.47654340e-01 4.42782193e-01 3.81925195e-01 4.62320983e-01 4.61319268e-01 4.69581336e-01 3.29147398e-01 2.66581684e-01 4.58640754e-01 4.55134571e-01 4.59951729e-01 4.66412604e-01 4.25968021e-01 5.00325859e-01 2.45462865e-01 2.05506653e-01 2.41570339e-01 2.17700869e-01 4.61049169e-01 4.00790274e-01 4.84335423e-01 4.74759549e-01 4.82535750e-01 4.94154364e-01 3.57469827e-01 4.72402960e-01 4.81027842e-01 4.83219415e-01 4.39715087e-01 4.91430402e-01 4.82779860e-01 5.10396361e-01 4.81907278e-01 4.92759287e-01 4.55830067e-01 4.52447295e-01 4.26990449e-01 3.55946362e-01 3.29465985e-01 3.12466651e-01 2.79143602e-01 3.80062103e-01 4.66307610e-01 4.85998124e-01 4.52720165e-01 5.01454771e-01 5.13083100e-01 5.07502973e-01 4.42360789e-01 4.95891064e-01 4.92335618e-01 5.04118085e-01 4.91466373e-01 5.32655001e-01 4.92063552e-01 4.72257912e-01 4.72778499e-01 4.72439826e-01 5.76379538e-01 5.12648463e-01 4.72572058e-01 4.02190924e-01 4.33075011e-01 4.69498873e-01 4.86155719e-01 4.81438756e-01 4.96860474e-01 4.83170986e-01 5.22430658e-01 5.22820294e-01 5.12156188e-01 5.16800463e-01 5.18089712e-01 5.18535197e-01 5.33158123e-01 5.19780219e-01 5.04307270e-01 5.07938623e-01 6.27641141e-01 5.94466329e-01 5.50004601e-01 5.45663178e-01 5.26622772e-01 5.47875643e-01 5.54313302e-01 4.96738315e-01 4.95860040e-01 5.31876504e-01 5.41862130e-01 5.46422601e-01 5.23452818e-01 5.06986499e-01 5.40920138e-01 5.63503206e-01 5.61679244e-01 6.08028352e-01 5.51312625e-01 5.53934813e-01 5.72672367e-01 5.14227450e-01 6.56028032e-01 6.58939064e-01 6.08532488e-01 5.88784337e-01 5.67919135e-01 5.83050549e-01 5.04386604e-01 4.98857439e-01 5.33531904e-01 5.91617584e-01 5.64509451e-01 5.14019608e-01 4.98389959e-01 5.30786693e-01 5.66266119e-01 6.26177132e-01 6.48276746e-01 6.04404032e-01 6.06239378e-01 6.24785364e-01 6.77210987e-01 6.62408888e-01 6.52972460e-01 4.98169065e-01 5.88881969e-01 6.01509690e-01 5.96995652e-01 5.82580030e-01 4.91463006e-01 5.09698629e-01 4.88468379e-01 5.13242900e-01 5.47856331e-01 6.51542306e-01 6.06015384e-01 4.88786817e-01 4.82881129e-01 5.37989080e-01 5.63858271e-01 6.41216636e-01 6.28399253e-01 6.30049646e-01 6.60328448e-01 6.33075774e-01 6.49937928e-01 6.25100434e-01 5.17663002e-01 6.47354603e-01 6.15117610e-01 5.85117459e-01 5.62309563e-01 5.93882620e-01 5.92407763e-01 5.81036925e-01 4.71980453e-01 4.90115732e-01 4.69930142e-01 4.73851562e-01 5.10587692e-01 5.71820855e-01 6.23080492e-01 4.61704522e-01 5.27970195e-01 5.46468079e-01 5.95023394e-01 6.01295531e-01 6.01210415e-01 6.13689542e-01 5.57029426e-01 6.00705445e-01 5.79602361e-01 5.06004333e-01 6.11936331e-01 5.34707248e-01 5.37368298e-01 5.27242720e-01 5.11985540e-01 5.67013085e-01 5.48660398e-01 5.34947872e-01 5.40136039e-01 5.71602106e-01 5.63501894e-01 5.73489487e-01 5.59633374e-01 4.56129879e-01 4.76898044e-01 4.53537434e-01 4.75943744e-01 5.73546588e-01 5.27002990e-01 5.14139950e-01 5.06097257e-01 4.78891879e-01 4.82429892e-01 4.88585860e-01 4.33586091e-01 4.74395812e-01 4.95122939e-01 5.66840470e-01 4.07419324e-01 4.97662127e-01 3.92585188e-01 5.21038890e-01 3.65236580e-01 5.28886437e-01 5.23006380e-01 5.17589688e-01 5.10260582e-01 5.25369167e-01 5.22780359e-01 5.18300056e-01 5.28386712e-01 5.21733463e-01 5.25237978e-01 4.92518753e-01 4.65173632e-01 4.72756505e-01 4.81357604e-01 5.51957190e-01 5.18511295e-01 4.99498457e-01 5.03117859e-01 3.53439510e-01 3.20457429e-01 3.19954008e-01 3.21954459e-01 2.74498850e-01 4.94240254e-01 5.37272513e-01 3.02444786e-01 4.07544822e-01 5.00577629e-01 5.30087113e-01 2.38520458e-01 1.77489161e-01 4.82658148e-01 5.04853010e-01 4.79747504e-01 4.85338539e-01 4.76840526e-01 4.88997072e-01 5.05842507e-01 5.14564991e-01 5.17043889e-01 4.29628074e-01 4.31847185e-01 4.65507984e-01 4.54940051e-01 4.54442799e-01 4.28342402e-01 4.02727425e-01 4.93485600e-01 5.04128158e-01 5.42142749e-01 5.70529163e-01 5.73073685e-01 4.84741688e-01 4.97181386e-01 4.75846380e-01 2.25863025e-01 2.35308871e-01 1.92480072e-01 2.31997967e-01 3.08692992e-01 3.77125651e-01 5.55072248e-01 1.77804723e-01 1.21757075e-01 4.41158473e-01 5.60616851e-01 4.81509805e-01 4.78134423e-01 4.43993121e-01 4.47011381e-01 4.35628116e-01 4.58930641e-01 4.79244769e-01 4.96880174e-01 5.01018226e-01 3.42140287e-01 3.24889541e-01 3.76910836e-01 4.00824964e-01 3.50464553e-01 3.82749647e-01 4.07638341e-01 3.57292622e-01 2.97607988e-01 5.21689475e-01 5.62317610e-01 6.02273345e-01 6.06504083e-01 6.10062122e-01 4.76963162e-01 4.38655198e-01 4.31659311e-01 1.69670492e-01 1.19222499e-01 1.85585484e-01 2.82431871e-01 1.28078669e-01 8.18268582e-02 5.19906402e-01 3.60852122e-01 5.97212136e-01 4.12012726e-01 4.24679935e-01 3.74773681e-01 4.65684474e-01 4.11077738e-01 3.91560853e-01 4.17722672e-01 4.45184678e-01 4.66575176e-01 2.59206951e-01 2.74504364e-01 3.61599386e-01 3.35190356e-01 2.64960766e-01 3.66827965e-01 3.26294720e-01 2.62385100e-01 2.20108584e-01 5.50310314e-01 4.83512282e-01 6.07099652e-01 6.22247815e-01 4.02358413e-01 3.74800980e-01 1.32980675e-01 7.78132528e-02 2.05618799e-01 5.51262312e-02 4.16970283e-01 5.43849230e-01 2.42607117e-01 5.99279463e-01 3.08773518e-01 4.23357576e-01 3.54226917e-01 3.42054456e-01 2.67681330e-01 2.86520392e-01 2.61716485e-01 2.12505162e-01 3.68689746e-01 3.52409601e-01 3.33429545e-01 3.94830436e-01 3.88775855e-01 4.15318638e-01 2.16417685e-01 3.06244373e-01 3.14522713e-01 2.10662484e-01 3.05201679e-01 2.83344954e-01 2.07308590e-01 1.68825150e-01 4.85615432e-01 5.54772913e-01 3.95939738e-01 5.97266495e-01 3.27253163e-01 9.59953144e-02 1.55805275e-01 4.12449390e-02 5.69526888e-02 4.13743436e-01 2.59812236e-01 5.18759370e-01 5.53849638e-01 2.02972129e-01 3.52333218e-01 2.70073861e-01 2.68551648e-01 2.02874899e-01 1.53599292e-01 1.93488136e-01 2.52743006e-01 2.70502120e-01 3.29685301e-01 2.27597311e-01 3.16615492e-01 3.03344637e-01 2.32836574e-01 2.27645561e-01 1.31820351e-01 2.18129218e-01 1.64377302e-01 1.07453756e-01 4.47790384e-01 5.08592427e-01 3.47663492e-01 5.24684370e-01 6.81831762e-02 1.18259229e-01 2.28070483e-01 4.65737730e-02 3.71409059e-01 4.27187830e-01 4.53663737e-01 1.64160430e-01 2.56531268e-01 2.06603080e-01 2.91988999e-01 1.77974060e-01 1.65922359e-01 1.46698236e-01 2.51293898e-01 2.77359396e-01 1.95878178e-01 2.01443866e-01 1.61669612e-01 2.26397872e-01 1.74374565e-01 1.38737619e-01 1.26188546e-01 2.07986057e-01 2.04063073e-01 1.57726392e-01 1.38563901e-01 1.02291338e-01 1.31512150e-01 1.00023001e-01 8.62808600e-02 3.84130239e-01 4.50519145e-01 4.30718511e-01 4.44139808e-01 9.49686542e-02 6.79461360e-02 1.58275813e-01 2.64489651e-01 2.96372712e-01 3.45961839e-01 1.72140539e-01 1.74724415e-01 1.88828215e-01 1.76336437e-01 2.66360432e-01 2.63729215e-01 3.34737033e-01 4.03816104e-01 3.09667587e-01 3.40943515e-01 2.40917504e-01 1.15475953e-01 1.22343034e-01 1.50926337e-01 9.88752842e-02 8.70769694e-02 8.70104283e-02 1.58322334e-01 1.11604951e-01 9.12904292e-02 9.69162807e-02 3.88733894e-01 3.70621771e-01 3.60979378e-01 2.87026376e-01 1.56013608e-01 1.01303555e-01 2.19935954e-01 1.80577427e-01 1.95138648e-01 1.74212560e-01 3.23736906e-01 3.23606104e-01 4.79148924e-01 3.98946106e-01 4.61819351e-01 3.56796563e-01 2.60764956e-01 4.92897689e-01 1.10931598e-01 1.06376521e-01 1.24375530e-01 9.39292833e-02 7.83153549e-02 6.93767145e-02 9.68494713e-02 1.42858967e-01 1.16956800e-01 1.06980965e-01 1.29306063e-01 1.42792478e-01 3.24309707e-01 3.00605565e-01 2.35211700e-01 1.81620076e-01 1.12717576e-01 1.42382652e-01 2.16368049e-01 1.85317203e-01 2.86115229e-01 3.60613674e-01 4.60704625e-01 4.54886675e-01 4.17545617e-01 3.11221063e-01 4.33555186e-01 4.60774720e-01 4.37169075e-01 3.75163138e-01 1.20211452e-01 1.35638699e-01 1.38431296e-01 1.18304059e-01 1.40805125e-01 7.91862682e-02 8.32396299e-02 1.25558540e-01 1.75246730e-01 1.45855188e-01 1.47199392e-01 1.79616377e-01 1.96235210e-01 2.35263988e-01 1.70878887e-01 1.38808310e-01 1.13637954e-01 2.43993863e-01 1.98401183e-01 2.82215804e-01 1.92663401e-01 3.58112901e-01 4.06286806e-01 3.71801257e-01 3.79034877e-01 3.02184194e-01 3.64144027e-01 3.30811650e-01 3.54903907e-01 2.55768776e-01 3.45355362e-01 2.79721111e-01 1.57416880e-01 2.22983852e-01 1.93817765e-01 2.08152160e-01 1.79997131e-01 1.13419689e-01 1.43183604e-01 1.83325768e-01 1.06701627e-01 1.86449245e-01 1.43613890e-01 2.91457266e-01 2.65958786e-01 2.05478460e-01 1.71330333e-01 2.11904511e-01 2.16223568e-01 1.39633983e-01 1.07289165e-01 9.51465368e-02 2.76961058e-01 2.16262877e-01 1.36664078e-01 2.58382827e-01 2.84534514e-01 3.29756528e-01 3.01817000e-01 2.06256837e-01 2.14665085e-01 1.50852129e-01 3.41909736e-01 1.81477651e-01 2.40156487e-01 2.56484419e-01 3.27640891e-01 2.89804846e-01 1.31243542e-01 3.45148593e-01 3.59130293e-01 3.35558027e-01 1.09314933e-01 9.20827761e-02 8.48724544e-02 3.48038971e-01 1.47593886e-01 1.05895139e-01 1.60226822e-01 3.25933248e-01 1.08348228e-01 1.17574140e-01 9.11620259e-02 1.31627455e-01 2.09078327e-01 3.30752641e-01 3.64174902e-01 4.08014715e-01 4.29641664e-01 4.14370388e-01 4.24678087e-01 3.96676838e-01 4.35754865e-01 1.00246444e-01 1.08592190e-01 1.21059112e-01 8.98664668e-02 7.42962882e-02 6.84467629e-02 8.78614783e-02 7.00363442e-02 1.24554455e-01 2.45389536e-01 4.06620860e-01 4.94918972e-01 5.14023066e-01 5.09720147e-01 4.98724103e-01 9.32409987e-02 1.63450330e-01 1.44187555e-01 5.93913123e-02 6.64938539e-02 7.89969638e-02 5.72835654e-02 1.41778946e-01 2.23000735e-01 3.77585173e-01 4.99340832e-01 5.77038348e-01 5.90836644e-01 5.83751440e-01 1.25542983e-01 1.95571408e-01 6.69150725e-02 9.38446894e-02 7.45522231e-02 1.16130598e-01 1.89028576e-01 2.70154625e-01 3.81988078e-01 5.03943384e-01 6.15705967e-01 5.68983734e-01 5.94343364e-01 2.25172460e-01 1.87404856e-01 1.24096498e-01 1.25467226e-01 1.75017655e-01 2.09281564e-01 3.20288330e-01 4.21217203e-01 5.20367146e-01 5.58776140e-01 2.91769713e-01 2.92511135e-01 2.52621591e-01 2.26262480e-01 2.68949896e-01 3.71959507e-01 4.54530656e-01 5.28405607e-01 5.46740532e-01 3.85258824e-01 3.84280533e-01 3.70740354e-01 3.89484644e-01 4.39580053e-01 4.99391109e-01 5.29473066e-01 5.51409483e-01 4.59030151e-01 4.54150200e-01 4.89300042e-01 5.51121175e-01 5.17995536e-01 5.62820256e-01 5.00929356e-01 5.30401111e-01 5.58322847e-01 5.55919051e-01 5.46843588e-01 
