# vtk DataFile Version 2.0
results_case1/1616747557/sol_toll1e-05_vf0.3_iter0.vtk, Created by Freefem++ 
ASCII
DATASET UNSTRUCTURED_GRID
POINTS 654 float
1 0.52052521 0
1 0.53385705 0
1 0.54686935 0
1 0.50718473 0
0.97643659 0.51837937 0
1 0.55947499 0
1 0.57176355 0
0.96893966 0.53316413 0
0.97030398 0.54830666 0
1 0.4940332 0
1 0.58409883 0
1 0.59678822 0
0.97480673 0.48800973 0
0.96385856 0.50217624 0
0.9485468 0.51727303 0
0.9694979 0.56525754 0
0.94743477 0.55099882 0
0.94148737 0.53375299 0
1 0.48110217 0
0.96586809 0.46916208 0
1 0.77268915 0
0.96331201 0.57942714 0
1 0.7139722 0
1 0.67165419 0
1 0.61148182 0
0.96156781 0.59485016 0
1 0.63438636 0
0.92260487 0.51824074 0
0.94681751 0.48401214 0
0.93318022 0.50043024 0
0.93513029 0.56239504 0
0.92041206 0.53991481 0
1 0.46817115 0
0.97388924 0.45496238 0
0.93274085 0.46628937 0
0.94524934 0.45099882 0
0.92634929 0.73479503 0
0.91688188 0.79758785 0
0.87388171 0.7633768 0
1 0.82638601 0
0.901524 0.83428199 0
0.92984705 0.57860393 0
0.91516421 0.67175514 0
0.92384764 0.62948403 0
0.92961665 0.59957738 0
0.90180701 0.51900412 0
0.90569998 0.49956296 0
0.91784696 0.48285369 0
0.89106028 0.52874688 0
0.90407029 0.55181975 0
1 0.45645928 0
1 0.44664484 0
0.96520107 0.44190668 0
0.93545936 0.4327057 0
0.90466687 0.46534053 0
0.91677695 0.44835317 0
0.85395554 0.70406333 0
0.83033333 0.78838619 0
1 0.85719926 0
0.81972468 0.83692719 0
0.8878927 0.86178106 0
0.89475351 0.56672918 0
0.85921102 0.63572256 0
0.8781122 0.59974274 0
0.86653688 0.57376613 0
0.8823494 0.49911753 0
0.89047014 0.47996415 0
0.86609853 0.5033459 0
0.8668288 0.53398979 0
0.95927728 0.42436677 0
0.95565581 0.41785239 0
1 0.43837411 0
0.96746696 0.43266879 0
0.93436233 0.41508834 0
0.90250194 0.43184817 0
0.88698618 0.45288102 0
0.76027432 0.79655962 0
0.79973519 0.65879803 0
0.77760284 0.73673616 0
0.73746939 0.83139099 0
1 0.87639025 0
0.81238518 0.86650207 0
0.84317874 0.54839613 0
0.80494007 0.56795299 0
0.81403084 0.60033666 0
0.86535974 0.47212815 0
0.84265822 0.49676735 0
0.82764837 0.52089543 0
1 0.41764814 0
1 0.42457215 0
1 0.41052935 0
1 0.43135262 0
1 0.4033784 0
0.93253028 0.40272306 0
0.89356761 0.41548589 0
0.86514098 0.43952131 0
0.74580056 0.6368868 0
0.69090426 0.774878 0
0.72162389 0.70275003 0
0.67912011 0.83364748 0
0.61683355 0.78968618 0
0.68811477 0.86808708 0
1 0.89219705 0
0.80889872 0.88534766 0
1 0.99558262 0
1 0.99116523 0
0.81126136 0.99691475 0
1 1 0
1 0.97791309 0
1 0.98233047 0
1 0.98674785 0
1 0.96907832 0
1 0.9734957 0
0.79174469 0.53909194 0
0.73884127 0.56566144 0
0.72945135 0.60158856 0
0.83276309 0.46583653 0
0.76439539 0.52035712 0
0.80095815 0.49469337 0
0.86002848 0.41569593 0
1 0.39548205 0
0.93164209 0.39076175 0
0.88394935 0.3960639 0
0.82172778 0.4335284 0
0.66476288 0.66986326 0
0.62641131 0.73364646 0
0.62293646 0.64612547 0
0.59627688 0.83176867 0
0.5474076 0.77379393 0
1 0.91664218 0
1 0.90565765 0
0.6170682 0.87284403 0
0.77338124 0.89801496 0
0.72297356 0.99231372 0
0.70727646 1 0
0.75127495 0.97826832 0
0.70079384 0.98492003 0
1 0.96466682 0
1 0.96007238 0
0.74329711 0.96633862 0
0.72114226 0.97204431 0
1 0.95520389 0
0.70554529 0.55099239 0
0.637312 0.60239822 0
0.77934633 0.46256535 0
0.75114908 0.48459785 0
0.70163535 0.46430799 0
0.65713325 0.53150663 0
0.71760259 0.50366014 0
0.83140104 0.40213732 0
0.76676344 0.43154099 0
1 0.38195162 0
0.91480769 0.37285551 0
0.84765543 0.37219449 0
0.77694638 0.39290256 0
0.50900767 0.67522561 0
0.54288845 0.71397028 0
0.52678431 0.82871957 0
0.47987897 0.77266188 0
1 0.94457201 0
1 0.95005346 0
1 0.93265908 0
1 0.93878421 0
1 0.92550297 0
0.78765431 0.91611138 0
0.5320385 0.86744783 0
0.62895436 0.89937796 0
0.53205435 0.98944696 0
0.53508 1 0
0.54635953 0.97686527 0
0.71674618 0.95942255 0
0.55060964 0.96514294 0
0.72796879 0.95247036 0
0.44129875 0.98164534 0
0.5907908 0.57525294 0
0.49727916 0.62904411 0
0.51629011 0.55911337 0
0.51090937 0.53187291 0
0.70253934 0.43339109 0
0.64861213 0.47616991 0
0.62106667 0.42778306 0
0.58802575 0.50064669 0
0.46036281 0.50503029 0
0.70458117 0.39217138 0
1 0.35824477 0
0.88661229 0.34008356 0
0.79348756 0.33901429 0
0.71498674 0.34275082 0
0.40923302 0.68987416 0
0.42488487 0.74522965 0
0.44264814 0.82067102 0
0.72160682 0.94322493 0
0.71948963 0.93041913 0
0.61828577 0.91779227 0
0.43952713 0.86451852 0
0.51256702 0.88717454 0
0.52180232 0.90425855 0
0.43613533 1 0
0.43945409 0.96504996 0
0.50922755 0.95035121 0
0.36692859 0.97713346 0
0.3703748 0.86694189 0
0.43094413 0.60004167 0
0.36904313 0.64510295 0
0.37612052 0.56700637 0
0.37688529 0.53197876 0
0.34843315 0.50136351 0
0.56738141 0.37031275 0
0.62640789 0.36894643 0
0.52074777 0.46396241 0
0.52525408 0.42763125 0
0.49799479 0.37091242 0
0.41458092 0.47266744 0
0.64017376 0.31155206 0
0.56490409 0.29587132 0
1 0.32798852 0
0.87584443 0.30082836 0
0.74366676 0.29391108 0
0.81138561 0.26460868 0
0.66866758 0.26053699 0
0.33263622 0.69632377 0
0.34603063 0.76385728 0
0.34990279 0.81786537 0
0.49892568 0.93332533 0
0.46479267 0.9161367 0
0.41248223 0.89346182 0
0.3565359 1 0
0.26037093 1 0
0.34616699 0.95237014 0
0.35158337 0.93594676 0
0.27733799 0.96470671 0
0.291703 0.83269579 0
0.30240139 0.87092222 0
0 0.98233047 0
0 0.98674785 0
0 0.99116523 0
0 0.99558262 0
0.30864712 0.60939818 0
0.2922636 0.53716784 0
0.29403562 0.47183251 0
0.50144814 0.30597869 0
0.42975331 0.3060552 0
0.4076295 0.42377622 0
0.4105888 0.36785482 0
0.33237919 0.43158033 0
0.27604803 0.40740444 0
0.58814013 0.23814842 0
0.5070536 0.24626578 0
1 0.29314914 0
0.90374168 0.24335913 0
0.85030396 0.19998602 0
0.74145669 0.22285883 0
0.6615869 0.19996065 0
0.2685288 0.66509044 0
0.26805937 0.73551415 0
0.23660824 0.77600416 0
0.30285216 0.91812132 0
0.30848307 0.8971196 0
0.18110708 0.98240164 0
0.16617544 1 0
0.21346052 0.9676011 0
0.23038512 0.93854124 0
0.18316459 0.91866411 0
0.22720868 0.8270546 0
0.2380418 0.86523224 0
0.011591142 0.99345265 0
0 0.9734957 0
0 0.97791309 0
0.011553813 0.99558262 0
0.096338221 1 0
0 1 0
0.011553813 0.99779131 0
0.24154522 0.57648298 0
0.23669178 0.49194461 0
0.23655161 0.42231202 0
0.44958344 0.23311064 0
0.36571208 0.2932174 0
0.32892798 0.35975624 0
0.26850558 0.3430353 0
0.55258449 0.1982399 0
1 0.19333006 0
1 0.24182172 0
1 0.165884 0
0.80274363 0.16937701 0
0.67568953 0.16160556 0
0.56029354 0.16631533 0
0.20971346 0.62846931 0
0.19944298 0.69421896 0
0.17094065 0.70147704 0
0.17803257 0.77431909 0
0.20456612 0.89798147 0
0.2090179 0.87677555 0
0.13350662 0.96338887 0
0.10560405 0.97173241 0
0.1392561 0.93620187 0
0.13614358 0.90283062 0
0.17679383 0.83436983 0
0 0.96907832 0
0 0.96466682 0
0.014720259 0.99129484 0
0 0.96007238 0
0.073343944 0.96777591 0
0.05094892 1 0
0.023107628 1 0
0.19750114 0.51169656 0
0.46203802 0.17209047 0
0.23674052 0.32194198 0
0.20123368 0.38514425 0
0.37013352 0.2224331 0
0.30023758 0.27056341 0
1 0.14808033 0
0.82169728 0.1410069 0
0.73048352 0.13393771 0
0.59067721 0.13221669 0
0.16677362 0.56022293 0
0.14650939 0.61878199 0
0.13859332 0.6899343 0
0.14696863 0.77698735 0
0.14592497 0.86603734 0
0.09429086 0.93522476 0
0.10542668 0.89888615 0
0.13101189 0.8105488 0
0 0.95005346 0
0 0.93265908 0
0 0.94457201 0
0.019124312 0.97131976 0
0 0.95520389 0
0 0.93878421 0
0.068290394 0.92113734 0
0.052833508 0.94752813 0
0.034731371 0.96286322 0
0.16339817 0.42208062 0
0.38758069 0.16555876 0
0.48068972 0.12923556 0
0.17248985 0.29461414 0
0.2334007 0.24880676 0
0.3045962 0.19550228 0
0.19588064 0.21435712 0
1 0.13467308 0
1 0.12364408 0
0.7646284 0.11470171 0
0.61775468 0.10527544 0
0.50551556 0.10261239 0
0.13555177 0.51841345 0
0.12068756 0.61897937 0
0.11824211 0.72323919 0
0.10417925 0.8430298 0
0.081328391 0.88477583 0
0.10156414 0.77525827 0
0 0.92550297 0
0.015957478 0.9390588 0
0 0.89219705 0
0 0.90565765 0
0 0.91664218 0
0 0.87639025 0
0 0.85719926 0
0.066351305 0.86147028 0
0.055171729 0.88078246 0
0.043410128 0.90325932 0
0.03188839 0.90904796 0
0.023225907 0.88993772 0
0.13772087 0.35194907 0
0.35503166 0.13491562 0
0.16994226 0.20505302 0
0.24933195 0.1709999 0
1 0.11279815 0
1 0.10231767 0
0.78990713 0.099969849 0
0.76738273 0.090822547 0
0.70697111 0.085060326 0
0.37037861 0.10439101 0
0.52565888 0.083690459 0
0.11744829 0.48975412 0
0.10664617 0.59750491 0
0.098636385 0.67522996 0
0.080902679 0.81193917 0
0.08590545 0.73521875 0
0.067618571 0.7925625 0
0.012459608 0.87388141 0
0 0.77268915 0
0.0094275404 0.81521548 0
0 0.82638601 0
0 0.7139722 0
0 0.67165419 0
0.057897959 0.79454962 0
0.047410179 0.82685451 0
0.038550959 0.84160204 0
0.02369939 0.81552354 0
0.032094732 0.81948863 0
0.11249478 0.37204965 0
0.12918592 0.26560786 0
0.13213166 0.19746954 0
0.24580861 0.13771315 0
1 0.084108684 0
1 0.09250824 0
1 0.07692147 0
0.72603796 0.074059524 0
0.25725186 0.10401152 0
0.5594404 0.068156923 0
0.38165816 0.082202426 0
0.10127506 0.49908571 0
0.097613776 0.40203472 0
0.092666787 0.56788424 0
0.06544949 0.71268976 0
0.085383859 0.64392486 0
0.074871661 0.70324693 0
0.017167205 0.77384805 0
0.0091721096 0.73314056 0
0 0.61148182 0
0 0.63438636 0
0.0071851645 0.65528203 0
0 0.59678822 0
0.050732852 0.74718617 0
0.058869375 0.68793814 0
0.025616497 0.72868204 0
0.04207742 0.74548436 0
0.033231468 0.73765539 0
0.10368989 0.27709576 0
0.08776819 0.36079704 0
0.10934473 0.17478802 0
0.16391027 0.13945896 0
1 0.070786178 0
0.7696894 0.065711102 0
0.16520801 0.098423382 0
0.24444499 0.083888267 0
0.73161145 0.058719327 0
0.42538632 0.065674117 0
0.54940993 0.056358318 0
0.32378912 0.065922879 0
0.080698761 0.43248871 0
0.088157315 0.48482454 0
0.081517672 0.55557801 0
0.067192343 0.64007257 0
0.074806079 0.60904747 0
0.026682139 0.66397885 0
0.01925452 0.68186291 0
0.01434785 0.65175853 0
0.0064725773 0.6019438 0
0.012541971 0.60782998 0
0 0.58409883 0
0 0.57176355 0
0.046229999 0.65777965 0
0.051685925 0.66931509 0
0.058748458 0.62275486 0
0.033440884 0.66345252 0
0.039876861 0.66436922 0
0.086490806 0.24343207 0
0.076703358 0.33107043 0
0.084105911 0.16319645 0
[...]
CELL_DATA 1306
Scalars  Label int 1
LOOKUP_TABLE FreeFempp_table
0
0
0
0
0
0
0
0
0
0
0
0
0
0
0
0
0
0
0
0
0
0
0
0
0
0
0
0
0
0
0
0
0
0
0
0
0
0
0
0
0
0
0
0
0
0
0
0
0
0
0
0
0
0
0
0
0
0
0
0
0
0
0
0
0
0
0
0
0
0
0
0
0
0
0
0
0
0
0
0
0
0
0
0
0
0
0
0
0
0
0
0
0
0
0
0
0
0
0
0
0
0
0
0
0
0
0
0
0
0
0
0
0
0
0
0
0
0
0
0
0
0
0
0
0
0
0
0
0
0
0
0
0
0
0
0
0
0
0
0
0
0
0
0
0
0
0
0
0
0
0
0
0
0
0
0
0
0
0
0
0
0
0
0
0
0
0
0
0
0
0
0
0
0
0
0
0
0
0
0
0
0
0
0
0
0
0
0
0
0
0
0
0
0
0
0
0
0
0
0
0
0
0
0
0
0
0
0
0
0
0
0
0
0
0
0
0
0
0
0
0
0
0
0
0
0
0
0
0
0
0
0
0
0
0
0
0
0
0
0
0
0
0
0
0
0
0
0
0
0
0
0
0
0
0
0
0
0
0
0
0
0
0
0
0
0
0
0
0
0
0
0
0
0
0
0
0
0
0
0
0
0
0
0
0
0
0
0
0
0
0
0
0
0
0
0
0
0
0
0
0
0
0
0
0
0
0
0
0
0
0
0
0
0
0
0
0
0
0
0
0
0
0
0
0
0
0
0
0
0
0
0
0
0
0
0
0
0
0
0
0
0
0
0
0
0
0
0
0
0
0
0
0
0
0
0
0
0
0
0
0
0
0
0
0
0
0
0
0
0
0
0
0
0
0
0
0
0
0
0
0
0
0
0
0
0
0
0
0
0
0
0
0
0
0
0
0
0
0
0
0
0
0
0
0
0
0
0
0
0
0
0
0
0
0
0
0
0
0
0
0
0
0
0
0
0
0
0
0
0
0
0
0
0
0
0
0
0
0
0
0
0
0
0
0
0
0
0
0
0
0
0
0
0
0
0
0
0
0
0
0
0
0
0
0
0
0
0
0
0
0
0
0
0
0
0
0
0
0
0
0
0
0
0
0
0
0
0
0
0
0
0
0
0
0
0
0
0
0
0
0
0
0
0
0
0
0
0
0
0
0
0
0
0
0
0
0
0
0
0
0
0
0
0
0
0
0
0
0
0
0
0
0
0
0
0
0
0
0
0
0
0
0
0
0
0
0
0
0
0
0
0
0
0
0
0
0
0
0
0
0
0
0
0
0
0
0
0
0
0
0
0
0
0
0
0
0
0
0
0
0
0
0
0
0
0
0
0
0
0
0
0
0
0
0
0
0
0
0
0
0
0
0
0
0
0
0
0
0
0
0
0
0
0
0
0
0
0
0
0
0
0
0
0
0
0
0
0
0
0
0
0
0
0
0
0
0
0
0
0
0
0
0
0
0
0
0
0
0
0
0
0
0
0
0
0
0
0
0
0
0
0
0
0
0
0
0
0
0
0
0
0
0
0
0
0
0
0
0
0
0
0
0
0
0
0
0
0
0
0
0
0
0
0
0
0
0
0
0
0
0
0
0
0
0
0
0
0
0
0
0
0
0
0
0
0
0
0
0
0
0
0
0
0
0
0
0
0
0
0
0
0
0
0
0
0
0
0
0
0
0
0
0
0
0
0
0
0
0
0
0
0
0
0
0
0
0
0
0
0
0
0
0
0
0
0
0
0
0
0
0
0
0
0
0
0
0
0
0
0
0
0
0
0
0
0
0
0
0
0
0
0
0
0
0
0
0
0
0
0
0
0
0
0
0
0
0
0
0
0
0
0
0
0
0
0
0
0
0
0
0
0
0
0
0
0
0
0
0
0
0
0
0
0
0
0
0
0
0
0
0
0
0
0
0
0
0
0
0
0
0
0
0
0
0
0
0
0
0
0
0
0
0
0
0
0
0
0
0
0
0
0
0
0
0
0
0
0
0
0
0
0
0
0
0
0
0
0
0
0
0
0
0
0
0
0
0
0
0
0
0
0
0
0
0
0
0
0
0
0
0
0
0
0
0
0
0
0
0
0
0
0
0
0
0
0
0
0
0
0
0
0
0
0
0
0
0
0
0
0
0
0
0
0
0
0
0
0
0
0
0
0
0
0
0
0
0
0
0
0
0
0
0
0
0
0
0
0
0
0
0
0
0
0
0
0
0
0
0
0
0
0
0
0
0
0
0
0
0
0
0
0
0
0
0
0
0
0
0
0
0
0
0
0
0
0
0
0
0
0
0
0
0
0
0
0
0
0
0
0
0
0
0
0
0
0
0
0
0
0
0
0
0
0
0
0
0
0
0
0
0
0
0
0
0
0
0
0
0
0
0
0
0
0
0
0
0
0
0
0
0
0
0
0
0
0
0
0
0
0
0
0
0
0
0
0
0
0
0
0
0
0
0
0
0
0
0
0
0
0
0
0
0
0
0
0
0
0
0
0
0
0
0
0
0
0
0
0
0
0
0
0
0
0
0
0
0
0
0
0
0
0
0
0
0
0
0
0
1
1
1
1
1
1
1
1
1
1
3
3
3
3
3
3
3
3
3
3
2
2
2
2
2
2
2
2
2
2
2
2
2
2
2
2
2
2
2
2
2
2
2
2
2
2
2
2
2
2
2
2
2
2
2
2
2
2
2
2
2
2
2
2
2
2
2
2
2
2
2
2
2
2
2
2
2
2
2
2
2
2
2
2
2
2
2
2
2
2
2
2
2
2
2
2
2
2
2
4
4
4
4
4
4
4
4
4
4
4
4
4
4
4
4
4
4
4
4
4
4
4
4
4
4
4
4
4
4
4
4
4
4
4
4
4
4
4
4
4
4
4
4
4
4
4
4
4
4
4
4
4
4
4
4
4
4
4
4
4
4
4
4
4
4
4
4
4
4
4
4
4
4
4
4
4
4
4

LOOKUP_TABLE FreeFempp_table 5
1.00000000 0.00000000 0.00000000 1.00000000
1.00000000 1.00000000 0.00000000 1.00000000
1.00000000 0.00000000 1.00000000 1.00000000
0.00000000 1.00000000 0.00000000 1.00000000
0.00000000 1.00000000 1.00000000 1.00000000

POINT_DATA 654
FIELD FieldData 1
Density 1 654 float
2.28582695e-01 2.36388847e-01 4.52795625e-01 2.29524061e-01 3.67471606e-01 6.62439346e-01 7.76129186e-01 4.10103202e-01 5.84972441e-01 2.29078099e-01 7.61815369e-01 7.47090578e-01 3.77214372e-01 4.26258653e-01 4.34388608e-01 7.68038869e-01 6.90925658e-01 5.51615715e-01 2.27012873e-01 4.26987201e-01 4.09010857e-01 7.66455531e-01 5.06948292e-01 5.85201025e-01 7.17580974e-01 7.46146023e-01 6.66183233e-01 5.97239435e-01 5.03231227e-01 4.28458095e-01 7.56679416e-01 6.97400630e-01 2.24947646e-01 5.06471455e-01 5.90026498e-01 6.19660378e-01 4.67230082e-01 3.64212275e-01 4.14728492e-01 3.20597202e-01 3.04275215e-01 7.62600005e-01 5.74604332e-01 6.63812041e-01 7.30658591e-01 7.24644899e-01 6.41250253e-01 5.94630241e-01 7.75161982e-01 7.73485959e-01 3.95368278e-01 5.59459329e-01 6.90538466e-01 7.80663192e-01 7.46555865e-01 6.89082742e-01 5.04203141e-01 3.68318260e-01 2.73680449e-01 2.92651445e-01 2.63529927e-01 7.69220054e-01 6.25592232e-01 7.06243098e-01 7.42507696e-01 7.36456215e-01 7.39964306e-01 7.82436073e-01 7.81036139e-01 7.69796729e-01 7.60368943e-01 6.97740555e-01 7.82462120e-01 7.54173398e-01 7.70418525e-01 7.65431702e-01 3.42253208e-01 5.57372153e-01 4.34472799e-01 2.88220227e-01 2.48892695e-01 2.51775563e-01 7.54609287e-01 7.01895177e-01 6.61846101e-01 7.80928373e-01 7.73929477e-01 7.60657609e-01 7.63855636e-01 7.71873593e-01 7.55612075e-01 7.79725313e-01 7.47331321e-01 7.35239565e-01 7.39550292e-01 7.58181393e-01 5.59410214e-01 3.54915708e-01 4.61833566e-01 2.74436235e-01 3.12212139e-01 2.38081738e-01 2.31518686e-01 2.33257771e-01 4.95640486e-02 6.76753595e-02 4.35967185e-02 3.14527340e-02 1.22009307e-01 1.03897989e-01 8.57866779e-02 1.58231929e-01 1.40120625e-01 7.17146575e-01 6.40138388e-01 5.92847705e-01 7.60684729e-01 6.97266757e-01 7.41524696e-01 7.20816374e-01 7.33275592e-01 7.10792363e-01 7.01303720e-01 7.19128489e-01 4.74399447e-01 3.83773237e-01 4.73294228e-01 2.59285152e-01 3.05519372e-01 2.15000987e-01 2.20242441e-01 2.27074593e-01 2.19956204e-01 5.99136986e-02 3.14743929e-02 1.14325561e-01 8.72740746e-02 1.70454562e-01 1.75818592e-01 1.59044951e-01 1.36334211e-01 1.81502566e-01 6.16766870e-01 5.20501316e-01 7.05886126e-01 6.84122145e-01 6.22741222e-01 5.79214036e-01 6.48870349e-01 6.78945303e-01 6.64864719e-01 7.02897429e-01 6.66344285e-01 6.35103166e-01 6.23234808e-01 3.78292084e-01 3.63885939e-01 2.46467337e-01 2.80077547e-01 1.93915322e-01 1.87515706e-01 2.07358226e-01 2.00672582e-01 2.10772902e-01 2.12405592e-01 2.20762163e-01 2.12741241e-01 6.30347356e-02 3.15017477e-02 1.01660416e-01 1.67177767e-01 1.37941554e-01 1.77955464e-01 7.49380887e-02 5.01713693e-01 4.03023183e-01 4.49591041e-01 4.52332407e-01 6.04086936e-01 5.72509527e-01 5.28319299e-01 5.19986033e-01 4.13226604e-01 5.66398501e-01 6.49946094e-01 5.90355873e-01 5.51113904e-01 5.16560674e-01 3.06394130e-01 2.77919173e-01 2.33395964e-01 1.91026613e-01 2.06007689e-01 2.07015052e-01 2.13395566e-01 2.12121397e-01 2.07341835e-01 3.15178595e-02 1.15633376e-01 1.61945716e-01 7.32820928e-02 2.08382636e-01 3.68872344e-01 3.04060251e-01 3.36231500e-01 3.42745036e-01 3.21317643e-01 4.51251596e-01 4.89584774e-01 4.59519029e-01 4.52365071e-01 4.03630018e-01 3.73987287e-01 4.41421002e-01 3.85856599e-01 5.84572732e-01 5.17417312e-01 4.66258764e-01 4.45677310e-01 3.93952072e-01 2.59645581e-01 2.35796556e-01 2.16659874e-01 1.96282685e-01 2.00202391e-01 2.05975816e-01 3.15162353e-02 3.14900391e-02 1.22752406e-01 1.65812358e-01 6.91088066e-02 2.08283335e-01 2.03662574e-01 1.03897989e-01 8.57866779e-02 6.76753595e-02 4.95640486e-02 2.74957746e-01 2.76101738e-01 2.78007299e-01 3.59160125e-01 3.16429734e-01 3.58551085e-01 3.39557081e-01 3.01752657e-01 2.57935226e-01 3.35011274e-01 3.09168398e-01 5.19163072e-01 4.29554224e-01 3.53074431e-01 3.66358787e-01 3.13008308e-01 2.37974018e-01 2.21045360e-01 2.09551141e-01 1.74356759e-01 1.95945382e-01 3.01859323e-02 3.14620808e-02 4.26208340e-02 1.12682477e-01 1.18304685e-01 2.04048127e-01 1.97061464e-01 5.82963824e-02 1.40120625e-01 1.22009307e-01 4.95635122e-02 3.14607732e-02 3.14527340e-02 4.05078605e-02 2.39474818e-01 2.40868315e-01 2.36808971e-01 2.72899508e-01 2.72280127e-01 2.79731810e-01 2.39922658e-01 2.78803110e-01 3.52897555e-01 4.32994992e-01 3.08078468e-01 2.99664527e-01 2.68712282e-01 2.49712273e-01 2.20397711e-01 2.11667076e-01 2.07596466e-01 2.03765899e-01 1.61718279e-01 1.81758061e-01 2.60741934e-02 2.27311458e-02 6.15445226e-02 1.05393030e-01 1.90966174e-01 1.58231929e-01 1.70454562e-01 6.71432838e-02 1.75818592e-01 2.84406673e-02 3.14546824e-02 3.14516611e-02 2.21997827e-01 2.33427167e-01 2.22946405e-01 2.18541682e-01 2.37582415e-01 2.32877657e-01 2.81558841e-01 2.62911797e-01 2.44584426e-01 2.27195993e-01 2.11872429e-01 2.07395986e-01 2.03522712e-01 1.95676580e-01 1.53080687e-01 3.52133363e-02 8.01939741e-02 1.76312894e-01 1.87515706e-01 2.07358226e-01 1.93915322e-01 8.97062346e-02 1.81502566e-01 2.00672582e-01 2.90069878e-02 2.86399182e-02 3.12039815e-02 2.10957587e-01 2.17298687e-01 2.15037137e-01 2.07633749e-01 2.11773574e-01 2.13856265e-01 2.04677239e-01 2.61587948e-01 2.48940557e-01 2.30915338e-01 2.15174988e-01 2.09089041e-01 2.07342267e-01 2.02207819e-01 1.92089766e-01 1.29532292e-01 6.41319752e-02 1.65815011e-01 2.10772902e-01 1.22509748e-01 2.31518686e-01 2.20242441e-01 2.15000987e-01 2.48892695e-01 2.73680449e-01 6.35768101e-02 3.79579291e-02 2.49208659e-02 3.23614217e-02 9.34816897e-02 2.05354244e-01 2.07985416e-01 1.99246019e-01 2.05685481e-01 2.37017229e-01 2.25495636e-01 2.18784049e-01 2.14617863e-01 2.10860103e-01 2.03149706e-01 2.03461558e-01 2.03320846e-01 1.98933482e-01 1.88492760e-01 1.16356179e-01 1.58465847e-01 1.06875733e-01 1.70572668e-01 4.09010857e-01 2.59236395e-01 3.20597202e-01 5.06948292e-01 5.85201025e-01 8.57585371e-02 5.22949286e-02 3.22579220e-02 1.26758471e-01 4.31636944e-02 1.98873594e-01 1.96029767e-01 1.81003690e-01 1.98698536e-01 2.15363592e-01 2.19372287e-01 2.11933479e-01 2.07708001e-01 1.84434578e-01 2.00722158e-01 1.89391628e-01 1.99677691e-01 1.94634408e-01 1.91162944e-01 1.35663539e-01 1.77531973e-01 1.52839467e-01 2.24169895e-01 3.58297497e-01 7.17580974e-01 6.66183233e-01 5.06171584e-01 7.47090578e-01 8.83571282e-02 1.26173213e-01 1.58125982e-01 6.90217763e-02 5.28745949e-02 1.83039263e-01 1.80104449e-01 1.46340594e-01 1.70258671e-01 2.09005401e-01 2.04484195e-01 1.32186294e-01 1.54954568e-01 1.93833083e-01 1.85203999e-01 1.79031521e-01 1.62440121e-01 1.79408610e-01 1.88065633e-01 1.80899262e-01 1.57184258e-01 1.70309320e-01 1.78178594e-01 2.86834478e-01 4.00538832e-01 6.13667667e-01 4.91523772e-01 7.61815369e-01 7.76129186e-01 1.01059958e-01 1.12740137e-01 1.38966039e-01 6.77082613e-02 8.38686973e-02 1.51245028e-01 1.62855417e-01 1.06431156e-01 9.24336240e-02 1.99994192e-01 2.05722213e-01 1.94426790e-01 6.66867346e-02 1.07841790e-01 1.82345256e-01 1.54498279e-01 1.29266441e-01 1.01967707e-01 1.53647915e-01 1.72967881e-01 1.70799315e-01 1.77190483e-01 1.57546416e-01 1.66156471e-01 2.55985290e-01 1.18123107e-01 3.64293963e-01 5.64376116e-01 6.62439346e-01 1.33237243e-01 1.04430974e-01 1.20863169e-01 8.83873850e-02 1.19658016e-01 6.85580149e-02 3.68387140e-02 1.89016864e-01 1.83761150e-01 2.84696929e-02 5.35799116e-02 1.66769415e-01 1.34471476e-01 1.08463109e-01 7.74331763e-02 1.26336530e-01 1.57755375e-01 1.33003578e-01 1.68434829e-01 1.67596117e-01 1.54520079e-01 1.42501906e-01 1.21030122e-01 7.97575712e-02 2.07265064e-01 3.33886951e-01 4.52795625e-01 3.24042171e-01 1.03695601e-01 8.12876746e-02 3.29143777e-02 4.74872887e-02 2.88994256e-02 3.14607732e-02 2.57505998e-02 1.78656191e-01 1.68397993e-01 3.53762992e-02 5.20503260e-02 1.58773616e-01 3.14546824e-02 1.33238092e-01 9.79725420e-02 6.60471544e-02 9.31824595e-02 1.06883071e-01 1.04167685e-01 1.31173491e-01 1.48332477e-01 1.45370185e-01 1.23580299e-01 1.07934788e-01 1.23882771e-01 2.36388847e-01 1.60708100e-01 2.28582695e-01 8.40486810e-02 4.81999032e-02 2.60020029e-02 2.97355913e-02 3.11292466e-02 3.14620808e-02 3.15162353e-02 1.54335245e-01 1.73698321e-01 3.14900391e-02 1.68883696e-01 1.38013557e-01 2.29993369e-02 3.14516611e-02 1.22115135e-01 1.09833658e-01 8.10498670e-02 6.13017567e-02 3.15178595e-02 6.81094229e-02 8.60057548e-02 1.13401823e-01 1.05096325e-01 8.99238512e-02 1.29792720e-01 1.23204768e-01 1.11468405e-01 1.17400698e-01 1.91140532e-01 1.53258711e-01 2.29524061e-01 1.01469435e-01 3.75311039e-02 3.37299071e-02 6.73022792e-02 7.12729767e-02 4.60867472e-02 1.06355995e-01 1.22115135e-01 6.07207604e-02 1.38013557e-01 1.54335245e-01 3.14527340e-02 7.57287741e-02 9.09253582e-02 9.10644159e-02 1.06355995e-01 1.68883696e-01 6.61706924e-02 3.15017477e-02 6.07048869e-02 7.06250742e-02 9.36834291e-02 9.50151980e-02 8.43214914e-02 1.07347161e-01 9.30159464e-02 1.47082731e-01 1.89090908e-01 2.29078099e-01 1.19789667e-01 1.21728398e-01 1.26388475e-01 7.57287741e-02 9.09253582e-02 1.89016864e-01 1.94426790e-01 1.73698321e-01 1.99994192e-01 2.05722213e-01 1.78656191e-01 2.09005401e-01 1.83761150e-01 6.07207604e-02 5.01724891e-02 3.14743929e-02 2.11933479e-01 1.40440315e-01 9.18520167e-02 8.58835205e-02 1.08666174e-01 1.72695860e-01 2.27012873e-01 2.24947646e-01 1.27203062e-01 2.12148041e-01 1.83949426e-01 4.60867472e-02 3.84946056e-02 3.14527340e-02 2.19372287e-01 2.25495636e-01 2.15363592e-01 2.37017229e-01 2.48940557e-01 2.61587948e-01 2.01644629e-01 2.23495990e-01 2.94719666e-01 6.97740555e-01 3.95368278e-01 5.59459329e-01 1.80661783e-01 2.90866554e-01 2.78378129e-01 2.81558841e-01 3.08078468e-01 3.52897555e-01 3.08265537e-01 7.63855636e-01 3.93033296e-01 7.79725313e-01 7.71873593e-01 5.45309126e-01 3.84398162e-01 3.77884656e-01 4.32994992e-01 7.55612075e-01 4.64406818e-01 5.86412430e-01 4.81878161e-01 5.19163072e-01 5.84572732e-01 7.47331321e-01 5.93597591e-01 6.49946094e-01 7.33275592e-01 7.02897429e-01 
