# vtk DataFile Version 2.0
results_case1/1616747557/sol_toll1e-05_vf0.3_iter5.vtk, Created by Freefem++ 
ASCII
DATASET UNSTRUCTURED_GRID
POINTS 475 float
0 0.73327947 0
0 0.19567015 0
0 0.79312823 0
0 0.67823321 0
0.01122256 0.71566566 0
0 0.6315558 0
0 0.25535968 0
0 0.30942139 0
0 0.35521195 0
0 0.60158027 0
0 0.12246073 0
0 0.15134697 0
0.011586285 0.22482384 0
0 0.076890728 0
0 0.098333689 0
0 0.84347582 0
0.011613816 0.80774978 0
0.020532183 0.74083068 0
0.022701294 0.67282615 0
0.013414436 0.6497875 0
0.013868303 0.61469783 0
0.012615018 0.30199047 0
0 0.39227726 0
0.013004011 0.36694684 0
0 0.46553546 0
0 0.44192144 0
0 0.45363669 0
0 0.42464121 0
0 0.43268545 0
0 0.41302483 0
0 0.54627584 0
0 0.58408787 0
0 0.56016055 0
0.01661191 0.59199468 0
0 0.57205637 0
0.013401931 0.15406023 0
0.021582989 0.25687865 0
0 0.018208549 0
0 0.031183395 0
0 0.043599624 0
0 0.058755683 0
0.014472529 0.086317183 0
0 0 0
0 0.87705772 0
0.012973094 0.88402402 0
0.022938623 0.81798944 0
0.029061369 0.72100161 0
0.029756228 0.65109139 0
0.024479073 0.61972467 0
0.023587359 0.34052429 0
0.023920138 0.39558399 0
0.015609115 0.41232473 0
0 0.47793945 0
0.017073011 0.4636952 0
0.017514648 0.4515525 0
0.017896221 0.435978 0
0 0.53206747 0
0 0.51533577 0
0 0.49438426 0
0.027632891 0.58869053 0
0.017586481 0.55823124 0
0.01771841 0.57363755 0
0.023902074 0.16849919 0
0.029211492 0.28452475 0
0.016963635 0.037968284 0
0.025867056 0.091031669 0
0.020833528 0 0
0 0.90555884 0
0.014117332 0.94077011 0
0.023537396 0.89740897 0
0.031110481 0.80209911 0
0.034578178 0.67818982 0
0.032731716 0.61633907 0
0.030751145 0.37705903 0
0.028618495 0.42587359 0
0.019573484 0.47806024 0
0.029906974 0.45590889 0
0.019542886 0.54413994 0
0.01581043 0.52231953 0
0.021477929 0.50357585 0
0.035359849 0.58545704 0
0.030655483 0.56583259 0
0.034270072 0.32443928 0
0.031904554 0.19505135 0
0.034004062 0.10293193 0
0.033600246 0.040186702 0
0.043164746 0 0
0 0.92926379 0
0 0.94619525 0
0.017272646 0.97712981 0
0.024232683 0.96144925 0
0.030789156 0.91360173 0
0.036570853 0.84917956 0
0.038379598 0.75160645 0
0.040823323 0.66671922 0
0.039281912 0.61745902 0
0.036362208 0.4056963 0
0.037559495 0.44053816 0
0.039807807 0.37259115 0
0.034544714 0.47851272 0
0.032319116 0.54289722 0
0.03528856 0.51240248 0
0.042392643 0.58087247 0
0.038728183 0.27066856 0
0.040384664 0.16671516 0
0.046513759 0.33823923 0
0.044337669 0.085258316 0
0.054377328 0.036499744 0
0.070708974 0 0
0 0.95905873 0
0.014554045 0.9835582 0
0.020833528 1 0
0.040339781 0.91547568 0
0.034269558 0.97063418 0
0.047310583 0.83214987 0
0.047183368 0.73331729 0
0.049307744 0.63819344 0
0.045685297 0.45713921 0
0.048240099 0.41344288 0
0.049052301 0.49420531 0
0.046587012 0.54110216 0
0.055278119 0.58541314 0
0.049547996 0.24533302 0
0.05436927 0.15074991 0
0.060939611 0.35026334 0
0.06178241 0.078729644 0
0.083708672 0.034443048 0
0.11035814 0 0
0.172396 0 0
0.27826789 0 0
0.69791929 0 0
0.82783206 0.010248096 0
1 0 0
0 1 0
0 0.97041716 0
0.012044653 0.99539099 0
0.050705678 0.89510634 0
0.043164746 1 0
0.051640973 0.95359673 0
0.069102024 0.86560476 0
0.061970831 0.78959647 0
0.060607002 0.70463063 0
0.067653619 0.63417996 0
0.063906676 0.45086074 0
0.065059014 0.53469877 0
0.072500336 0.11124402 0
0.067420762 0.23185764 0
0.080482055 0.16319805 0
0.081401202 0.30343128 0
0.081219205 0.39540898 0
0.17890301 0.018917208 0
0.092152216 0.068566644 0
0.12685032 0.031661282 0
0.24799481 0.015122737 0
0.37001319 0.011788515 0
0.45253546 0 0
0.71482831 0.016380344 0
1 0.018208549 0
0 0.98265118 0
0.066609495 0.92191259 0
0.070708974 1 0
0.075064454 0.96435347 0
0.093668472 0.90530696 0
0.10980836 0.85891353 0
0.087794457 0.80987189 0
0.08470387 0.72875267 0
0.085574256 0.61868921 0
0.086604425 0.5042092 0
0.10160024 0.41356269 0
0.10817423 0.11110487 0
0.10014065 0.22391113 0
0.11592981 0.16330012 0
0.10953987 0.29925701 0
0.19391157 0.040219024 0
0.13248066 0.065496281 0
0.15251327 0.094979325 0
0.30847238 0.030197968 0
0.43441619 0.029500041 0
0.53413408 0.017945573 0
0.74268512 0.029294082 0
1 0.031183395 0
0.094280266 0.94401665 0
0.11035814 1 0
0.10946836 0.97471151 0
0.12793799 0.93600183 0
0.14392883 0.89954245 0
0.16021308 0.85991794 0
0.12371441 0.79678258 0
0.11198124 0.71229028 0
0.10945526 0.59773548 0
0.1234434 0.49114023 0
0.13250527 0.35499899 0
0.15595788 0.13590594 0
0.14530763 0.20092792 0
0.1474935 0.26132077 0
0.25661147 0.052389437 0
0.2135576 0.10382593 0
0.19885853 0.070981624 0
0.35876619 0.050275786 0
0.47593784 0.04750068 0
0.58707337 0.035895265 0
0.76777828 0.042143094 0
1 0.043599624 0
0.14359744 0.9681374 0
0.184611 0.95875324 0
0.172396 1 0
0.17232652 0.8259992 0
0.18861406 0.92750228 0
0.22449775 0.86374363 0
0.21177123 0.89611692 0
0.13947183 0.68560989 0
0.16005112 0.76765624 0
0.15486149 0.61395008 0
0.16447472 0.53390669 0
0.16257208 0.41937027 0
0.18303736 0.30534204 0
0.2013016 0.14977636 0
0.20036949 0.20820627 0
0.28035364 0.10589841 0
0.29581587 0.075843414 0
0.42054534 0.066645379 0
0.57626457 0.055789215 0
0.74184597 0.058640763 0
1 0.058755683 0
0.21127824 0.98393101 0
0.24855237 0.9494449 0
0.27762682 0.97544721 0
0.27826789 1 0
0.2217072 0.80717263 0
0.27552171 0.92474289 0
0.30116312 0.87031595 0
0.29896817 0.90087035 0
0.19809764 0.71281258 0
0.21441721 0.62610707 0
0.20290467 0.51450544 0
0.209139 0.39924905 0
0.23629612 0.31086936 0
0.24434724 0.24330179 0
0.27020379 0.14285272 0
0.28155326 0.17990816 0
0.3545773 0.11359692 0
0.39420667 0.085959265 0
0.54177646 0.078833037 0
0.74010191 0.07619877 0
1 0.076890728 0
0.35148704 0.95384453 0
0.36742506 0.98444466 0
0.45253546 1 0
0.30274923 0.8312572 0
0.26756975 0.76854114 0
0.38141565 0.92832508 0
0.39369466 0.8672833 0
0.42034348 0.90588163 0
0.26916039 0.70634502 0
0.25196941 0.58036823 0
0.28834974 0.64971498 0
0.24260574 0.49389391 0
0.24714469 0.42753217 0
0.26800453 0.35078149 0
0.28997504 0.40270693 0
0.31575502 0.31611523 0
0.30424344 0.2700758 0
0.3309364 0.20673692 0
0.37975078 0.14838347 0
0.46898118 0.10921696 0
1 0.098333689 0
0.61745223 0.10459669 0
0.80242823 0.093186997 0
0.4483424 0.96734146 0
0.49509712 0.94831851 0
0.51660458 0.98151283 0
0.59687649 0.9900512 0
0.69791929 1 0
0.35630797 0.8078322 0
0.34095396 0.75688559 0
0.4453279 0.84617691 0
0.52584493 0.93188801 0
0.51440647 0.89203823 0
0.5985156 0.91991345 0
0.34311856 0.70261525 0
0.2958929 0.53928658 0
0.32562572 0.60135771 0
0.37160204 0.64849794 0
0.30463261 0.47327562 0
0.34906861 0.42869831 0
0.34461363 0.36588196 0
0.37193778 0.29866257 0
0.38342875 0.23363971 0
0.41774157 0.18240728 0
0.50651814 0.14664557 0
0.61900804 0.13320902 0
0.43197041 0.25549494 0
1 0.12246073 0
0.78769049 0.11647929 0
0.60667325 0.96463712 0
0.69062255 0.95040391 0
1 1 0
0.76088821 0.97629003 0
0.8100949 0.98933193 0
0.40866174 0.74678489 0
0.43704013 0.80019761 0
0.53495106 0.85818743 0
0.76956753 0.93887339 0
0.65429603 0.89881313 0
0.78208084 0.92144919 0
0.42188086 0.6903916 0
0.38139938 0.5153359 0
0.38042985 0.56120391 0
0.43789235 0.59618808 0
0.47371235 0.63542881 0
0.4079951 0.4696128 0
0.42650789 0.41883613 0
0.42114063 0.36226589 0
0.44496672 0.31349142 0
0.69558909 0.14518537 0
0.48326053 0.2013132 0
0.58423698 0.17541907 0
0.5036217 0.24366907 0
0.4975032 0.28756611 0
1 0.15134697 0
0.8483878 0.1399269 0
0.77665696 0.16300896 0
1 0.95905873 0
0.80555567 0.96371859 0
1 0.97041716 0
1 0.98265118 0
1 0.94619525 0
0.47982134 0.72129201 0
0.49229992 0.76627347 0
0.53135242 0.81809948 0
0.63641001 0.86773138 0
1 0.92926379 0
0.8120917 0.89809546 0
0.52236677 0.67196102 0
0.57179131 0.62092968 0
0.49098646 0.50278493 0
0.50185803 0.54318934 0
0.56358448 0.58101512 0
0.52322768 0.46462465 0
0.52433485 0.41942951 0
0.50683828 0.36833257 0
0.55011081 0.34089254 0
0.69116805 0.18348638 0
0.63463491 0.21435465 0
0.56859972 0.2299773 0
0.58080779 0.29302148 0
1 0.19567015 0
0.88436889 0.1793194 0
0.79596422 0.20838849 0
0.56909076 0.71322852 0
0.56697833 0.77558527 0
0.61776278 0.82868631 0
0.71671389 0.86356841 0
1 0.90555884 0
0.83320551 0.86825996 0
0.62097719 0.64787849 0
0.66184968 0.59421393 0
0.59897054 0.50282407 0
0.62313335 0.53887733 0
0.69241725 0.5546329 0
0.62856345 0.46216416 0
0.60157508 0.407905 0
0.63448281 0.37090049 0
0.72290531 0.23660564 0
0.65765204 0.27208302 0
0.65854636 0.33020113 0
1 0.25535968 0
0.90035687 0.23462709 0
0.82113524 0.26603855 0
0.66447015 0.67633152 0
0.63794813 0.7909952 0
0.63880649 0.73503579 0
0.71599706 0.82556415 0
1 0.87705772 0
0.88516506 0.8492859 0
0.80890336 0.82281454 0
0.71411612 0.61830593 0
0.76414753 0.5743969 0
0.70148015 0.50937335 0
0.76999319 0.53302719 0
0.72088634 0.47608512 0
0.68822252 0.43322311 0
0.70414671 0.3881126 0
0.75530645 0.29423784 0
0.72134742 0.33605881 0
1 0.30942139 0
0.90953433 0.29255482 0
0.83786645 0.32003188 0
0.73934093 0.65090332 0
0.7255447 0.70195561 0
0.70491634 0.7634241 0
0.76215075 0.78576382 0
1 0.84347582 0
0.90495507 0.80506678 0
0.84112451 0.76399203 0
0.80413446 0.61175544 0
0.83681277 0.57732907 0
0.82723729 0.54959098 0
0.82208127 0.52094897 0
0.78649757 0.4959078 0
0.75457824 0.4293418 0
0.77505315 0.46059518 0
0.76901091 0.39387896 0
0.79203836 0.35304262 0
1 0.35521195 0
0.91696455 0.34284325 0
0.86237918 0.36948042 0
0.80010484 0.66470877 0
0.78640438 0.72443623 0
1 0.79312823 0
0.91893108 0.74227866 0
0.85583144 0.69759231 0
0.86300791 0.63868874 0
0.88411331 0.5971958 0
0.87909487 0.5646606 0
0.86106256 0.53346311 0
0.83804014 0.49624509 0
0.82729594 0.46704998 0
0.81536832 0.43398084 0
0.8301943 0.39997315 0
1 0.39227726 0
0.88878909 0.40266203 0
0.93372554 0.3841998 0
1 0.73327947 0
0.93053954 0.63429039 0
0.9209955 0.68060297 0
0.94129958 0.60254724 0
0.93292536 0.57928723 0
0.86210652 0.50397804 0
0.9023561 0.55376742 0
0.88651441 0.52926898 0
0.86256416 0.47086187 0
0.85786391 0.44558337 0
0.8667608 0.42388299 0
1 0.41302483 0
0.93221997 0.41492089 0
1 0.42464121 0
1 0.6315558 0
1 0.67823321 0
1 0.60158027 0
1 0.58408787 0
[...]
CELL_DATA 948
Scalars  Label int 1
LOOKUP_TABLE FreeFempp_table
0
0
0
0
0
0
0
0
0
0
0
0
0
0
0
0
0
0
0
0
0
0
0
0
0
0
0
0
0
0
0
0
0
0
0
0
0
0
0
0
0
0
0
0
0
0
0
0
0
0
0
0
0
0
0
0
0
0
0
0
0
0
0
0
0
0
0
0
0
0
0
0
0
0
0
0
0
0
0
0
0
0
0
0
0
0
0
0
0
0
0
0
0
0
0
0
0
0
0
0
0
0
0
0
0
0
0
0
0
0
0
0
0
0
0
0
0
0
0
0
0
0
0
0
0
0
0
0
0
0
0
0
0
0
0
0
0
0
0
0
0
0
0
0
0
0
0
0
0
0
0
0
0
0
0
0
0
0
0
0
0
0
0
0
0
0
0
0
0
0
0
0
0
0
0
0
0
0
0
0
0
0
0
0
0
0
0
0
0
0
0
0
0
0
0
0
0
0
0
0
0
0
0
0
0
0
0
0
0
0
0
0
0
0
0
0
0
0
0
0
0
0
0
0
0
0
0
0
0
0
0
0
0
0
0
0
0
0
0
0
0
0
0
0
0
0
0
0
0
0
0
0
0
0
0
0
0
0
0
0
0
0
0
0
0
0
0
0
0
0
0
0
0
0
0
0
0
0
0
0
0
0
0
0
0
0
0
0
0
0
0
0
0
0
0
0
0
0
0
0
0
0
0
0
0
0
0
0
0
0
0
0
0
0
0
0
0
0
0
0
0
0
0
0
0
0
0
0
0
0
0
0
0
0
0
0
0
0
0
0
0
0
0
0
0
0
0
0
0
0
0
0
0
0
0
0
0
0
0
0
0
0
0
0
0
0
0
0
0
0
0
0
0
0
0
0
0
0
0
0
0
0
0
0
0
0
0
0
0
0
0
0
0
0
0
0
0
0
0
0
0
0
0
0
0
0
0
0
0
0
0
0
0
0
0
0
0
0
0
0
0
0
0
0
0
0
0
0
0
0
0
0
0
0
0
0
0
0
0
0
0
0
0
0
0
0
0
0
0
0
0
0
0
0
0
0
0
0
0
0
0
0
0
0
0
0
0
0
0
0
0
0
0
0
0
0
0
0
0
0
0
0
0
0
0
0
0
0
0
0
0
0
0
0
0
0
0
0
0
0
0
0
0
0
0
0
0
0
0
0
0
0
0
0
0
0
0
0
0
0
0
0
0
0
0
0
0
0
0
0
0
0
0
0
0
0
0
0
0
0
0
0
0
0
0
0
0
0
0
0
0
0
0
0
0
0
0
0
0
0
0
0
0
0
0
0
0
0
0
0
0
0
0
0
0
0
0
0
0
0
0
0
0
0
0
0
0
0
0
0
0
0
0
0
0
0
0
0
0
0
0
0
0
0
0
0
0
0
0
0
0
0
0
0
0
0
0
0
0
0
0
0
0
0
0
0
0
0
0
0
0
0
0
0
0
0
0
0
0
0
0
0
0
0
0
0
0
0
0
0
0
0
0
0
0
0
0
0
0
0
0
0
0
0
0
0
0
0
0
0
0
0
0
0
0
0
0
0
0
0
0
0
0
0
0
0
0
0
0
0
0
0
0
0
0
0
0
0
0
0
0
0
0
0
0
0
0
0
0
0
0
0
0
0
0
0
0
0
0
0
0
0
0
0
0
0
0
0
0
0
0
0
0
0
0
0
0
0
0
0
0
0
0
0
0
0
0
0
0
0
0
0
0
0
0
0
0
0
0
0
0
0
0
0
0
0
0
0
0
0
0
0
0
0
0
0
0
0
0
0
0
0
0
0
0
0
0
0
0
0
0
0
0
0
0
0
0
0
0
0
0
0
0
0
0
0
0
0
0
0
0
0
0
0
0
0
0
0
0
0
0
0
0
0
0
0
0
0
0
0
0
0
0
0
0
0
0
0
0
0
0
0
0
0
0
0
0
0
1
1
1
1
1
1
1
1
1
3
3
3
3
3
3
3
3
3
2
2
2
2
2
2
2
2
2
2
2
2
2
2
2
2
2
2
2
2
2
2
2
2
2
2
2
2
2
2
2
2
2
2
2
2
2
2
2
2
2
4
4
4
4
4
4
4
4
4
4
4
4
4
4
4
4
4
4
4
4
4
4
4
4
4
4
4
4
4
4
4
4
4
4
4
4
4
4
4
4
4

LOOKUP_TABLE FreeFempp_table 5
1.00000000 0.00000000 0.00000000 1.00000000
1.00000000 1.00000000 0.00000000 1.00000000
1.00000000 0.00000000 1.00000000 1.00000000
0.00000000 1.00000000 0.00000000 1.00000000
0.00000000 1.00000000 1.00000000 1.00000000

POINT_DATA 475
FIELD FieldData 1
Density 1 475 float
3.84431273e-01 5.49412258e-02 7.72396550e-02 8.23694646e-01 5.04541099e-02 9.70083356e-01 2.96578825e-01 7.44994402e-01 9.48151708e-01 9.90957379e-01 6.54831761e-03 1.40636368e-02 9.80184320e-03 3.10854986e-03 4.07639239e-03 1.68610942e-02 6.05931599e-03 3.05318506e-03 5.21235028e-03 1.56587616e-01 2.96914190e-01 4.52424847e-02 9.88127351e-01 1.93563908e-01 2.51843557e-02 9.27614510e-01 3.05772334e-01 9.94978130e-01 9.90345120e-01 9.94125128e-01 2.82993019e-01 9.94360030e-01 9.37526524e-01 1.69709101e-01 9.91527796e-01 1.54018996e-03 1.83486554e-03 3.34634329e-04 9.82767669e-04 1.61929254e-03 2.28429143e-03 6.51017355e-04 4.11867077e-05 6.95098890e-03 1.19912438e-03 5.80841617e-04 4.03662561e-04 7.02760764e-04 6.81651244e-03 3.47133214e-03 6.86141429e-03 2.01951176e-01 6.24342961e-03 2.62602977e-03 4.30746712e-02 1.05000794e-01 1.80611294e-02 5.33677451e-03 4.30832151e-03 2.36138864e-03 9.30249505e-03 1.03542216e-01 3.41067556e-04 3.68582667e-04 2.27780023e-04 1.28964719e-04 4.08748783e-05 3.94505449e-03 5.57577237e-04 2.25759839e-04 1.07797321e-04 1.47757761e-04 3.54306569e-04 4.05502040e-04 1.41558028e-03 8.77131009e-04 6.20783656e-04 7.62756681e-04 1.06147781e-03 6.63851970e-04 2.27608238e-04 5.17378852e-04 1.42768200e-04 7.74764485e-05 4.68692087e-05 8.13992810e-05 4.10377397e-05 2.73946743e-03 2.00506137e-03 1.76328569e-04 1.41223150e-04 6.08929950e-05 4.74757762e-05 1.06462627e-04 2.07088306e-04 2.28792298e-04 2.86820636e-04 2.71161320e-04 2.42661248e-04 3.41608044e-04 2.77241372e-04 2.79410044e-04 3.09508236e-04 1.35565861e-04 6.60849837e-05 2.95769889e-04 4.39563955e-05 3.82297403e-05 4.11427172e-05 1.41010329e-03 1.69151026e-04 4.08748783e-05 3.50618975e-05 4.60841693e-05 7.99560294e-05 2.00331284e-04 3.81089980e-04 3.85570514e-04 4.16401628e-04 4.96099936e-04 4.17412317e-04 6.19297673e-04 1.93127329e-04 9.56405856e-05 6.65688596e-04 4.14679416e-05 3.78574332e-05 4.11476904e-05 4.14329152e-05 4.23016281e-05 4.21005716e-05 1.46620790e-04 4.11867077e-05 4.11867077e-05 8.61707784e-04 7.91118728e-05 4.58205031e-05 4.10377397e-05 3.70221023e-05 1.19699514e-04 2.62829330e-04 5.04170021e-04 9.97625291e-04 1.02224189e-03 1.10319071e-03 8.64615504e-05 4.13967122e-04 2.91080854e-04 1.03501673e-03 1.43982773e-03 4.71653184e-05 5.46520714e-05 3.77371471e-05 6.78351062e-05 9.56615040e-05 4.33805471e-05 2.54465733e-04 3.34634329e-04 3.09588300e-04 4.20480683e-05 4.11427172e-05 3.64839398e-05 1.03359278e-04 4.56525275e-04 5.19470253e-04 1.00481568e-03 1.58366619e-03 1.77809026e-03 2.20888411e-03 2.40427282e-04 9.85811348e-04 7.31019245e-04 1.88416662e-03 8.44825481e-05 1.11060159e-04 4.02363192e-04 1.47165818e-04 3.00114363e-04 2.14657659e-04 6.74495823e-04 9.82767669e-04 4.22336525e-05 4.11476904e-05 3.13402561e-05 9.28611989e-05 3.94321396e-04 1.17161393e-03 1.41956925e-03 1.86624180e-03 2.33488739e-03 2.63150386e-03 2.60030362e-03 9.97742754e-04 1.72011484e-03 2.37008324e-03 3.05946916e-04 1.02961063e-03 3.76812968e-04 5.90638025e-04 8.73470795e-04 7.44049961e-04 1.35024649e-03 1.61929254e-03 3.56875498e-05 7.41928816e-05 4.14329152e-05 1.96140283e-03 3.27552669e-04 2.03868491e-03 1.16893346e-03 2.50811921e-03 2.39204173e-03 2.92464206e-03 3.08081321e-03 3.01976129e-03 2.96718418e-03 1.79889495e-03 2.56588822e-03 1.89796602e-03 1.11457193e-03 1.67935959e-03 1.55359833e-03 2.03619781e-03 2.28429143e-03 4.52851855e-05 2.61718291e-04 9.27656220e-05 4.23016281e-05 2.70475098e-03 8.84225301e-04 2.58661271e-03 1.93609763e-03 3.03111342e-03 3.83972516e-03 3.97526054e-03 3.82914813e-03 3.78118525e-03 3.22405412e-03 2.48446688e-03 2.98980228e-03 2.58088810e-03 2.08716444e-03 2.56406679e-03 2.87556322e-03 3.10854986e-03 4.65275312e-04 1.07307780e-04 4.33805471e-05 2.95304251e-03 3.33347125e-03 1.54745393e-03 2.98972707e-03 2.40095030e-03 4.31590062e-03 6.02183398e-03 7.07347225e-03 5.97523525e-03 5.88610396e-03 5.60379727e-03 9.14276950e-03 7.68120075e-03 4.93319565e-03 3.90694756e-03 3.22703295e-03 2.88522406e-03 4.07639239e-03 3.29940557e-03 3.41521250e-03 3.77127988e-04 1.12055242e-03 2.08451136e-04 1.22727317e-04 4.21005716e-05 3.71481711e-03 5.13004744e-03 3.75192589e-03 2.20721355e-03 3.02323210e-03 2.67689582e-03 8.48202500e-03 1.17810071e-02 1.45695461e-02 1.95868257e-02 1.35960812e-02 2.35319994e-02 1.55732669e-02 1.16510205e-02 6.46133861e-03 4.65182215e-03 4.30501672e-03 4.57845861e-03 1.21492390e-02 6.54831761e-03 4.72574914e-03 7.11005297e-04 1.46515819e-03 4.11867077e-05 4.59083443e-04 1.52094290e-04 9.91292670e-03 6.04077708e-03 4.18243231e-03 2.20205123e-03 3.29115591e-03 2.97027361e-03 2.36157924e-02 4.46631648e-02 3.90627496e-02 7.48144388e-02 8.72268900e-02 6.67364001e-02 7.07609206e-02 4.19145562e-02 3.23818773e-02 6.99949032e-03 8.39315820e-03 8.90100189e-03 1.96984168e-02 4.01474610e-02 1.40636368e-02 8.63930769e-03 1.41129950e-02 1.41010329e-03 9.70171008e-04 8.61707784e-04 3.09588300e-04 2.00506137e-03 2.93239541e-02 1.53921545e-02 7.70119624e-03 4.78118332e-03 2.73946743e-03 3.88186984e-03 9.82094556e-02 3.12460691e-01 2.26681218e-01 2.37975910e-01 3.94518852e-01 3.17068189e-01 2.59436876e-01 1.34469613e-01 1.59164608e-01 1.78248174e-02 2.78481022e-02 2.58677639e-02 1.01226427e-01 5.49412258e-02 2.85215210e-02 5.23263477e-02 8.00874531e-02 2.20803916e-02 9.40416101e-03 6.22264994e-03 3.94505449e-03 7.08877854e-03 3.61925900e-01 7.23835707e-01 6.45012558e-01 7.17643440e-01 8.85723412e-01 7.31004715e-01 5.04106879e-01 4.85971510e-01 8.23823661e-02 1.25509679e-01 3.63901585e-01 2.96578825e-01 1.51788086e-01 2.66409963e-01 3.41893196e-01 2.49418225e-02 9.40625742e-02 1.53250154e-02 6.95098890e-03 1.23028541e-02 2.21955795e-02 7.81211376e-01 9.58580375e-01 9.31785703e-01 9.80698466e-01 9.51285124e-01 8.61158311e-01 7.75426209e-01 3.60207051e-01 5.55134833e-01 7.44994402e-01 5.46908617e-01 6.88733399e-01 6.80422544e-01 3.28113288e-01 7.49785602e-02 5.49994297e-02 1.68610942e-02 4.82458398e-02 1.34613767e-01 9.39626575e-01 9.86000419e-01 9.91540849e-01 9.93904889e-01 9.89070892e-01 9.53344107e-01 9.81700718e-01 9.14651811e-01 8.07987094e-01 9.48151708e-01 8.85619640e-01 9.38892126e-01 7.28436589e-01 2.88191438e-01 7.72396550e-02 2.84156859e-01 5.77089787e-01 9.19847846e-01 9.85954344e-01 9.94519353e-01 9.96079147e-01 9.95531678e-01 9.93946016e-01 9.86069918e-01 9.69640613e-01 9.88127351e-01 9.86357629e-01 9.80347872e-01 3.84431273e-01 9.57102835e-01 7.68496454e-01 9.89191115e-01 9.94602084e-01 9.96405840e-01 9.95686233e-01 9.96056139e-01 9.96240795e-01 9.94345248e-01 9.91108358e-01 9.94125128e-01 9.93553340e-01 9.94978130e-01 9.70083356e-01 8.23694646e-01 9.90957379e-01 9.94360030e-01 9.93508637e-01 9.92373705e-01 9.88864720e-01 9.82086957e-01 9.92990375e-01 9.94939744e-01 9.95297968e-01 9.95777190e-01 9.90345120e-01 9.65178490e-01 9.91527796e-01 9.46969986e-01 8.39304984e-01 6.20415688e-01 9.23638165e-01 9.90563035e-01 9.82863188e-01 9.82586861e-01 9.27614510e-01 3.05772334e-01 2.82993019e-01 9.37526524e-01 2.19859973e-01 1.70236558e-01 1.80611294e-02 4.85507935e-01 7.83099532e-01 6.93432570e-01 2.51843557e-02 9.93593186e-02 5.33677451e-03 1.13855898e-01 6.24342961e-03 4.30832151e-03 
