# vtk DataFile Version 2.0
results_case1/1616747557/sol_toll1e-05_vf0.3_iter11.vtk, Created by Freefem++ 
ASCII
DATASET UNSTRUCTURED_GRID
POINTS 531 float
1 0.51263752 0
1 0.49356949 0
1 0.52861058 0
1 0.47727293 0
0.97668162 0.50869097 0
0.97788452 0.49331646 0
1 0.53770735 0
0.97351008 0.52226846 0
1 0.46525074 0
0.9793287 0.47943195 0
1 0.54371923 0
0.95967926 0.50940651 0
0.9613956 0.49593956 0
0.97156407 0.52931914 0
0.95291498 0.51665658 0
0.98296636 0.46645467 0
1 0.45582284 0
0.96428271 0.48094345 0
0.97307444 0.5365631 0
1 0.55018895 0
0.94600472 0.50205706 0
0.94723213 0.49134944 0
0.95426981 0.52780321 0
0.93526924 0.50391672 0
0.9370314 0.51392855 0
0.96853906 0.46735389 0
0.98171692 0.45764512 0
1 0.44817455 0
0.95362352 0.47722575 0
0.97233808 0.54258845 0
1 0.5575378 0
0.93747455 0.52283679 0
0.94287645 0.47428168 0
0.93731996 0.48566364 0
0.92913783 0.49314711 0
0.94986424 0.53508246 0
0.92007671 0.49943824 0
0.91976463 0.5095576 0
0.96048595 0.46247057 0
0.97718598 0.45179219 0
1 0.44140839 0
0.96640142 0.54718921 0
1 0.56474244 0
0.92970169 0.52535697 0
0.938924 0.46776637 0
0.92533048 0.4825966 0
0.91113986 0.4885886 0
0.93278478 0.53490342 0
0.90077697 0.4955091 0
0.9083479 0.51308421 0
0.96375857 0.44925803 0
1 0.43361979 0
0.95857113 0.55161441 0
1 0.57496485 0
0.92830972 0.46256058 0
0.91571893 0.47734357 0
0.89953819 0.47678747 0
0.9016979 0.52338588 0
0.93912955 0.55394136 0
0.88153392 0.50101014 0
0.8799692 0.48277978 0
1 0.42135231 0
0.94653168 0.43895071 0
1 0.59279188 0
0.90818055 0.45937652 0
0.88669051 0.53239397 0
0.87732477 0.45982553 0
0.8529224 0.50013607 0
0.91554112 0.56996335 0
0.8484955 0.47470239 0
1 0.39981423 0
0.90411711 0.43631272 0
0.94611143 0.40770773 0
1 0.62085532 0
0.82636701 0.51182862 0
0.84532252 0.43766556 0
0.80123487 0.46228208 0
0.9155611 0.60951313 0
0.82890756 0.55710552 0
1 0.36858165 0
0.88950681 0.40372576 0
1 0.65015411 0
0.76420863 0.49975123 0
0.80567257 0.41372338 0
0.74556555 0.45299166 0
0.88938956 0.6403274 0
0.82923525 0.60309005 0
0.75691913 0.55683785 0
0.88848729 0.37359804 0
1 0.34114353 0
1 0.67038618 0
0.71248926 0.50620872 0
0.89505312 0.34928155 0
0.80129212 0.37764537 0
0.74010034 0.41615107 0
0.69347286 0.46249355 0
0.83008469 0.64333288 0
0.77582054 0.60667405 0
0.89498718 0.66500666 0
0.70844902 0.55998636 0
1 0.32323861 0
1 0.6830244 0
0.67310253 0.51029768 0
0.86087792 0.34400528 0
1 0.69239666 0
0.76661532 0.62695827 0
0.77534243 0.36425881 0
0.72676151 0.39580003 0
0.68590705 0.43291783 0
0.65597511 0.47719878 0
0.81503517 0.65562592 0
0.70656295 0.59078172 0
0.88828207 0.67813024 0
0.6614967 0.5370217 0
1 0.31232423 0
0.89654038 0.32643817 0
0.81381255 0.34293222 0
0.9146471 0.69189586 0
1 0.70004978 0
0.73552181 0.62680493 0
1 0.7065344 0
1 0.71353809 0
0.76476653 0.64903309 0
0.71059577 0.38624692 0
0.75749579 0.35474131 0
0.66872248 0.42571915 0
0.63696118 0.46150905 0
0.63249984 0.50024891 0
0.81343572 0.66906545 0
0.66118042 0.57001331 0
0.68723201 0.60514993 0
0.84457693 0.68217174 0
0.63565304 0.53511531 0
1 0.30339097 0
0.90960082 0.31463232 0
0.83260647 0.32971324 0
0.93204376 0.70221697 0
0.87036166 0.69388722 0
0.7078695 0.63052517 0
0.93042349 0.71103643 0
1 0.72154637 0
0.75413813 0.65501632 0
1 0.29577427 0
1 0.28764687 0
0.81856531 0.68569957 0
0.70554173 0.37476108 0
0.66432553 0.40505538 0
0.78594509 0.33508613 0
0.72257285 0.35684312 0
0.63548144 0.43840416 0
0.61560896 0.47727811 0
0.61434953 0.51319406 0
0.77887076 0.67115495 0
0.6519137 0.58522606 0
0.62837241 0.55186728 0
0.66079869 0.60682921 0
0.91413003 0.30553895 0
0.84743618 0.31737406 0
0.87453035 0.70266272 0
0.82789535 0.69587995 0
0.681758 0.63031913 0
0.72349518 0.65092664 0
0.9233594 0.71918255 0
0.87653644 0.71164999 0
1 0.72881345 0
0.91536109 0.2973403 0
1 0.27821451 0
0.94265893 0.28788533 0
0.78212157 0.68352447 0
0.67866997 0.3810218 0
0.61374949 0.45132326 0
0.62930341 0.42276586 0
0.64905968 0.39743259 0
0.752926 0.33782562 0
0.80408557 0.320473 0
0.67684168 0.37068437 0
0.70675628 0.35295195 0
0.59968507 0.50306521 0
0.5989754 0.47255876 0
0.60694724 0.53674281 0
0.73591346 0.66781331 0
0.62649305 0.57283549 0
0.64757238 0.61446073 0
0.62790468 0.59108558 0
0.85118161 0.30826667 0
0.83578613 0.70731382 0
0.79513726 0.69862496 0
0.70091232 0.64998869 0
0.66779732 0.63639701 0
0.87969043 0.72012134 0
1 0.73481036 0
0.85360043 0.29914596 0
0.88822581 0.28901027 0
1 0.26994031 0
0.93474233 0.27998197 0
0.75495673 0.68445183 0
0.60375041 0.44088427 0
1 0.7411656 0
0.64119516 0.38961545 0
0.61749394 0.41124164 0
0.72348858 0.3386703 0
0.76793658 0.32333363 0
0.80846427 0.31013698 0
0.65489262 0.37117056 0
0.68086517 0.35397981 0
0.58983278 0.52563523 0
0.58414683 0.49564904 0
0.5840642 0.46625176 0
0.60194696 0.55699062 0
0.69088902 0.65753879 0
0.71722053 0.67548806 0
0.61601772 0.60268024 0
0.63672937 0.62219381 0
0.60619447 0.58072014 0
0.81502948 0.71274614 0
0.75973613 0.69630261 0
0.6538 0.64304414 0
0.89732223 0.72969995 0
0.81793908 0.29883969 0
0.85218539 0.28718654 0
0.90764243 0.27680742 0
1 0.26295441 0
0.58216469 0.44560592 0
0.59322311 0.42609 0
1 0.74874838 0
0.62123054 0.38802734 0
1 0.75862545 0
0.91691027 0.26896624 0
0.59461622 0.40699333 0
0.73541723 0.32512051 0
0.69600923 0.33690672 0
0.77290248 0.30999015 0
0.63980228 0.36567437 0
0.66228385 0.34722522 0
0.57008895 0.51495848 0
0.57776305 0.5404364 0
0.56568078 0.48507853 0
0.56269444 0.45724405 0
0.58497626 0.56477128 0
0.67156938 0.66309973 0
0.71406788 0.68632776 0
0.58868775 0.58707381 0
0.59313871 0.60478557 0
0.61791378 0.62316065 0
0.7628263 0.70666949 0
0.82471938 0.7232217 0
0.6317434 0.64277738 0
0.88839908 0.73823291 0
0.80382826 0.29307022 0
0.84562134 0.27922606 0
1 0.25544708 0
0.56916918 0.43155278 0
0.6045156 0.38270928 0
0.87705834 0.74768576 0
1 0.77215489 0
0.90250611 0.26391366 0
0.54779767 0.47502663 0
0.67358789 0.67581824 0
0.57045399 0.41312123 0
0.71883503 0.32016771 0
0.67736304 0.3312026 0
0.75261993 0.30509101 0
0.63560691 0.35321596 0
0.55415931 0.53043637 0
0.54993728 0.50416356 0
0.56333392 0.55198192 0
0.54769124 0.44736233 0
0.56726642 0.57410746 0
0.6330869 0.65434289 0
0.71679924 0.69928211 0
0.56970407 0.59154198 0
0.59884095 0.624633 0
0.78756395 0.72267438 0
0.77350204 0.2922759 0
0.8121739 0.277229 0
1 0.24637676 0
0.5743033 0.39419514 0
0.60476998 0.36712756 0
0.86805864 0.76391407 0
0.78374559 0.73259372 0
1 0.78968688 0
0.8798811 0.25912638 0
0.53520509 0.48642357 0
0.65442638 0.67684084 0
0.54719726 0.42250077 0
0.71088589 0.31104806 0
0.65389711 0.33323562 0
0.5475779 0.55426724 0
0.53594095 0.52304164 0
0.52868841 0.45874449 0
0.60457225 0.64517298 0
0.70259977 0.70587783 0
0.5454598 0.57228389 0
0.57098641 0.61064758 0
0.73678167 0.29320925 0
0.77819294 0.27549006 0
1 0.23508873 0
0.56196339 0.38845105 0
0.60246312 0.3573563 0
0.74324215 0.73485366 0
1 0.81582314 0
0.83732787 0.78010503 0
0.87638198 0.24965336 0
0.52187132 0.50146239 0
0.62841237 0.67461209 0
0.52977437 0.42382832 0
0.68190522 0.30987914 0
0.63464161 0.3300573 0
0.52715666 0.54530487 0
0.51002023 0.4673509 0
0.57651064 0.63660787 0
0.65328665 0.70423838 0
0.54314604 0.59175219 0
0.70283108 0.29203886 0
0.79681459 0.26059308 0
1 0.21931438 0
0.58348397 0.35495794 0
0.54193001 0.38411075 0
0.70899757 0.74375996 0
1 0.85527178 0
0.81926818 0.80289118 0
0.50963066 0.51262719 0
0.58681325 0.66800566 0
1 0.91724261 0
1 0.19606552 0
1 0.1566707 0
1 1 0
0.51168064 0.41883018 0
0.62912057 0.3183842 0
0.51451889 0.56222189 0
0.48826761 0.46265675 0
0.49478993 0.51615741 0
0.53807096 0.6170548 0
0.60826555 0.712116 0
0.68486414 0.28482217 0
0.81882277 0.24156711 0
0.57094535 0.34486619 0
0.52824955 0.3686109 0
0.69701721 0.76968126 0
0.83116088 0.85216728 0
0.53601978 0.65222227 0
0.81520403 0.2166672 0
0.82501275 0.16720051 0
1 0.089054571 0
0.79286809 0.88675218 0
0.87442262 1 0
1 0 0
0.76059283 1 0
0.87442262 0 0
0.48930509 0.40740972 0
0.58435061 0.31738064 0
0.49503704 0.5820561 0
0.47212669 0.52452605 0
0.45628574 0.46885864 0
0.6418039 0.78341893 0
0.53756781 0.70692193 0
0.67057904 0.26868869 0
0.50893451 0.35219101 0
0.48292813 0.63213148 0
0.66908825 0.23025533 0
0.77480648 0.12507488 0
0.66702842 0.86843075 0
0.57284529 0.88553099 0
0.64814024 1 0
0.62113921 0.13393684 0
0.76059283 0 0
0.52019419 1 0
0.64814024 0 0
0.44579568 0.41092267 0
0.53959435 0.30082599 0
0.44197765 0.56211059 0
0.40980919 0.485415 0
0.51705533 0.76718202 0
0.44716385 0.66162558 0
0.43960276 0.36567783 0
0.55533772 0.23622509 0
0.43599249 0.88845937 0
0.42144424 0.79273898 0
0.4243324 0.25157035 0
0.4876167 0.1302965 0
0.3746544 1 0
0.52019419 0 0
0 0.7411656 0
0 0.73481036 0
0 0.6830244 0
0 0.59279188 0
0 0.72154637 0
0 0.71353809 0
0 0.7065344 0
0 0.65015411 0
0 0.75862545 0
0 0.74874838 0
0 0.69239666 0
0 0.72881345 0
0 0.67038618 0
0 0.70004978 0
0 0.62085532 0
0.35591745 0.45604572 0
0.38816576 0.34329403 0
0.37499365 0.56668588 0
0.37414177 0.68230241 0
0.29469947 0.87411723 0
0.29045746 0.74038307 0
0.30368953 0.27634737 0
0.33989921 0.12101778 0
0.26424133 1 0
0.3746544 0 0
0.0076674761 0.69073884 0
0.0049070479 0.65369275 0
0 0.57496485 0
0.0033842929 0.59570786 0
0.0063536399 0.67411637 0
0.003596803 0.62958024 0
0 0.77215489 0
0 0.78968688 0
0.26424133 0 0
0 1 0
0 0.81582314 0
0.27583337 0.57664757 0
0.2657231 0.43265365 0
0.20288991 0.81134507 0
0.1910007 0.65449365 0
0.2228589 0.18502136 0
0.1961217 0.36302716 0
0.1836094 1 0
0.012859291 0.64189528 0
0.010318991 0.69871686 0
0.01066849 0.62682445 0
0.0077775689 0.60504419 0
0.0050483108 0.57712592 0
0 0.56474244 0
0.1836094 0 0
0.017732591 0.86437662 0
0 0.91724261 0
0.023105478 1 0
0.013213213 0.71926525 0
0 0.85527178 0
0 0.5575378 0
0 0.55018895 0
0.11954364 1 0
0.064326533 1 0
0.16275207 0.51811824 0
0.12182912 0.75624186 0
0.13652607 0.28923388 0
0.015996038 0.60063966 0
0.017125775 0.63571459 0
0.013066396 0.59174556 0
0.010674361 0.57431539 0
0.006359199 0.56103062 0
0.11954364 0 0
0.018488916 0.74991441 0
[...]
CELL_DATA 1060
Scalars  Label int 1
LOOKUP_TABLE FreeFempp_table
0
0
0
0
0
0
0
0
0
0
0
0
0
0
0
0
0
0
0
0
0
0
0
0
0
0
0
0
0
0
0
0
0
0
0
0
0
0
0
0
0
0
0
0
0
0
0
0
0
0
0
0
0
0
0
0
0
0
0
0
0
0
0
0
0
0
0
0
0
0
0
0
0
0
0
0
0
0
0
0
0
0
0
0
0
0
0
0
0
0
0
0
0
0
0
0
0
0
0
0
0
0
0
0
0
0
0
0
0
0
0
0
0
0
0
0
0
0
0
0
0
0
0
0
0
0
0
0
0
0
0
0
0
0
0
0
0
0
0
0
0
0
0
0
0
0
0
0
0
0
0
0
0
0
0
0
0
0
0
0
0
0
0
0
0
0
0
0
0
0
0
0
0
0
0
0
0
0
0
0
0
0
0
0
0
0
0
0
0
0
0
0
0
0
0
0
0
0
0
0
0
0
0
0
0
0
0
0
0
0
0
0
0
0
0
0
0
0
0
0
0
0
0
0
0
0
0
0
0
0
0
0
0
0
0
0
0
0
0
0
0
0
0
0
0
0
0
0
0
0
0
0
0
0
0
0
0
0
0
0
0
0
0
0
0
0
0
0
0
0
0
0
0
0
0
0
0
0
0
0
0
0
0
0
0
0
0
0
0
0
0
0
0
0
0
0
0
0
0
0
0
0
0
0
0
0
0
0
0
0
0
0
0
0
0
0
0
0
0
0
0
0
0
0
0
0
0
0
0
0
0
0
0
0
0
0
0
0
0
0
0
0
0
0
0
0
0
0
0
0
0
0
0
0
0
0
0
0
0
0
0
0
0
0
0
0
0
0
0
0
0
0
0
0
0
0
0
0
0
0
0
0
0
0
0
0
0
0
0
0
0
0
0
0
0
0
0
0
0
0
0
0
0
0
0
0
0
0
0
0
0
0
0
0
0
0
0
0
0
0
0
0
0
0
0
0
0
0
0
0
0
0
0
0
0
0
0
0
0
0
0
0
0
0
0
0
0
0
0
0
0
0
0
0
0
0
0
0
0
0
0
0
0
0
0
0
0
0
0
0
0
0
0
0
0
0
0
0
0
0
0
0
0
0
0
0
0
0
0
0
0
0
0
0
0
0
0
0
0
0
0
0
0
0
0
0
0
0
0
0
0
0
0
0
0
0
0
0
0
0
0
0
0
0
0
0
0
0
0
0
0
0
0
0
0
0
0
0
0
0
0
0
0
0
0
0
0
0
0
0
0
0
0
0
0
0
0
0
0
0
0
0
0
0
0
0
0
0
0
0
0
0
0
0
0
0
0
0
0
0
0
0
0
0
0
0
0
0
0
0
0
0
0
0
0
0
0
0
0
0
0
0
0
0
0
0
0
0
0
0
0
0
0
0
0
0
0
0
0
0
0
0
0
0
0
0
0
0
0
0
0
0
0
0
0
0
0
0
0
0
0
0
0
0
0
0
0
0
0
0
0
0
0
0
0
0
0
0
0
0
0
0
0
0
0
0
0
0
0
0
0
0
0
0
0
0
0
0
0
0
0
0
0
0
0
0
0
0
0
0
0
0
0
0
0
0
0
0
0
0
0
0
0
0
0
0
0
0
0
0
0
0
0
0
0
0
0
0
0
0
0
0
0
0
0
0
0
0
0
0
0
0
0
0
0
0
0
0
0
0
0
0
0
0
0
0
0
0
0
0
0
0
0
0
0
0
0
0
0
0
0
0
0
0
0
0
0
0
0
0
0
0
0
0
0
0
0
0
0
0
0
0
0
0
0
0
0
0
0
0
0
0
0
0
0
0
0
0
0
0
0
0
0
0
0
0
0
0
0
0
0
0
0
0
0
0
0
0
0
0
0
0
0
0
0
0
0
0
0
0
0
0
0
0
0
0
0
0
0
0
0
0
0
0
0
0
0
0
0
0
0
0
0
0
0
0
0
0
0
0
0
0
0
0
0
0
0
0
0
0
0
0
0
0
0
0
0
0
0
0
0
0
0
0
0
0
0
0
0
0
0
0
0
0
0
0
0
0
0
0
0
0
0
0
0
0
0
0
0
0
0
0
0
0
0
0
0
0
0
0
0
0
0
0
0
0
0
0
1
1
1
1
1
1
1
1
1
1
1
3
3
3
3
3
3
3
3
3
3
3
2
2
2
2
2
2
2
2
2
2
2
2
2
2
2
2
2
2
2
2
2
2
2
2
2
2
2
2
2
2
2
2
2
2
2
2
2
2
2
2
2
2
2
2
2
2
2
2
2
2
2
2
2
2
2
4
4
4
4
4
4
4
4
4
4
4
4
4
4
4
4
4
4
4
4
4
4
4
4
4
4
4
4
4
4
4
4
4
4
4
4
4
4
4
4
4
4
4
4
4
4
4
4
4
4
4
4
4
4
4

LOOKUP_TABLE FreeFempp_table 5
1.00000000 0.00000000 0.00000000 1.00000000
1.00000000 1.00000000 0.00000000 1.00000000
1.00000000 0.00000000 1.00000000 1.00000000
0.00000000 1.00000000 0.00000000 1.00000000
0.00000000 1.00000000 1.00000000 1.00000000

POINT_DATA 531
FIELD FieldData 1
Density 1 531 float
2.02969909e-02 2.02766024e-02 2.02848706e-02 2.02941876e-02 2.03531086e-02 2.08155699e-02 2.02842746e-02 2.06129290e-02 5.57430685e-02 2.49043349e-02 1.32653758e-01 2.03231853e-02 2.64636893e-02 3.47114392e-02 4.19524871e-02 7.03221709e-02 2.74800003e-01 1.61531970e-01 2.88908988e-01 5.68259716e-01 4.01049703e-02 1.50384694e-01 2.48948976e-01 3.09812725e-01 4.86388117e-01 4.20074672e-01 3.16841155e-01 6.56705916e-01 3.51967245e-01 6.31371140e-01 9.11282420e-01 7.15773046e-01 7.06715405e-01 5.48721433e-01 4.47122067e-01 8.76034558e-01 8.20470750e-01 9.02794600e-01 8.58330429e-01 8.91196072e-01 9.11984742e-01 9.66215849e-01 9.75526631e-01 9.78733599e-01 9.48933423e-01 9.36211884e-01 9.64208901e-01 9.77065563e-01 9.77639735e-01 9.79664505e-01 9.69144106e-01 9.79576528e-01 9.79660988e-01 9.79815423e-01 9.76438105e-01 9.77329791e-01 9.79533553e-01 9.79815364e-01 9.79815245e-01 9.79815364e-01 9.79815423e-01 9.79815364e-01 9.79815304e-01 9.79815304e-01 9.79523242e-01 9.79815245e-01 9.79815364e-01 9.79815245e-01 9.79814947e-01 9.79815245e-01 9.79815245e-01 9.79815125e-01 9.79815066e-01 9.79815125e-01 9.79815006e-01 9.79815006e-01 9.79814947e-01 9.79814887e-01 9.79814768e-01 9.79815185e-01 9.79814827e-01 9.79814529e-01 9.79814887e-01 9.79814768e-01 9.79814947e-01 9.79814947e-01 9.79814768e-01 9.79814827e-01 9.79814827e-01 9.79775548e-01 9.79708433e-01 9.79814947e-01 9.79804635e-01 9.79814947e-01 9.79815066e-01 9.79815125e-01 9.79741454e-01 9.79814112e-01 9.79555666e-01 9.79815066e-01 9.79303837e-01 9.77640092e-01 9.79811609e-01 9.79790807e-01 9.64575112e-01 9.79731500e-01 9.79804695e-01 9.79811013e-01 9.79815245e-01 9.79749918e-01 9.78682935e-01 9.79793191e-01 9.71806645e-01 9.79732037e-01 9.74577725e-01 9.79496419e-01 9.79620695e-01 9.41616356e-01 9.20862913e-01 9.78977740e-01 8.25157881e-01 6.44495606e-01 9.71541166e-01 9.79422688e-01 9.76336241e-01 9.79809880e-01 9.79136288e-01 9.78219628e-01 9.68020797e-01 9.77506936e-01 9.77380157e-01 9.50822711e-01 9.77691054e-01 9.48475063e-01 9.61179495e-01 9.77198958e-01 8.58936965e-01 8.70870590e-01 9.63838696e-01 5.98281026e-01 4.24878389e-01 9.48623717e-01 8.77896607e-01 7.19132543e-01 8.38364184e-01 9.69087899e-01 9.68747437e-01 9.42848921e-01 9.40853179e-01 9.67693448e-01 9.56112742e-01 9.63518023e-01 9.14783418e-01 9.65405941e-01 9.65732992e-01 9.24393296e-01 9.23206389e-01 9.22699392e-01 7.03293741e-01 6.96586311e-01 8.87789309e-01 8.93454611e-01 3.22401971e-01 4.24804091e-01 2.39223227e-01 7.91036487e-01 4.41700935e-01 6.34682655e-01 7.10666776e-01 9.29090500e-01 9.18354034e-01 9.25327957e-01 8.63110542e-01 8.79581332e-01 8.71934354e-01 8.77746224e-01 8.15812826e-01 9.35626388e-01 9.04822588e-01 9.06230986e-01 7.35340178e-01 9.14892316e-01 8.23971868e-01 8.63619506e-01 8.51148546e-01 4.00556713e-01 4.07870561e-01 7.94546723e-01 6.95393205e-01 2.08081424e-01 1.32404387e-01 6.46992326e-01 4.94799703e-01 2.25872830e-01 3.61704916e-01 4.92975056e-01 8.43029022e-01 7.39787370e-02 7.66918242e-01 7.22992122e-01 7.61362255e-01 7.39132941e-01 7.57301092e-01 6.55749023e-01 6.55783653e-01 8.37980926e-01 7.57846117e-01 6.87067091e-01 8.22421849e-01 5.22339523e-01 3.66175920e-01 5.78566611e-01 5.72069049e-01 6.75119519e-01 1.71132967e-01 2.35897169e-01 3.86910141e-01 9.38859656e-02 4.80990499e-01 3.29745859e-01 2.13280588e-01 1.08907126e-01 5.63297212e-01 5.62122107e-01 4.05968353e-02 5.17720342e-01 2.57100966e-02 1.18003972e-01 3.96385789e-01 5.45837164e-01 4.76338446e-01 4.49496716e-01 3.87533486e-01 3.53937089e-01 5.63099623e-01 6.17700458e-01 4.87569571e-01 3.46673042e-01 5.36522388e-01 2.36256972e-01 1.56497076e-01 3.90118957e-01 2.58027643e-01 2.93628156e-01 9.47892368e-02 8.05775449e-02 1.98811427e-01 4.27191705e-02 2.19715402e-01 1.19736269e-01 4.49414402e-02 2.84479678e-01 2.25442559e-01 2.31938828e-02 2.13720780e-02 5.69512062e-02 1.87477201e-01 8.77530128e-02 1.62641078e-01 2.93962449e-01 1.99229285e-01 2.24418864e-01 1.82287663e-01 2.89808244e-01 2.99808115e-01 3.15560549e-01 1.13059759e-01 2.25651324e-01 8.60879272e-02 4.74732965e-02 1.12457335e-01 1.07200593e-01 3.95365506e-02 1.11993976e-01 4.74387184e-02 2.41155643e-02 1.02325954e-01 1.15151264e-01 2.10186448e-02 2.27982160e-02 2.06447188e-02 2.89200041e-02 1.10272571e-01 3.99125479e-02 6.33988604e-02 1.38101920e-01 7.59513825e-02 1.27970666e-01 1.27060965e-01 4.16271910e-02 4.42414768e-02 2.36179009e-02 6.44899309e-02 5.03705814e-02 4.75539677e-02 2.55800150e-02 2.07668189e-02 3.97919752e-02 6.05970174e-02 2.14317497e-02 2.08878759e-02 2.13436596e-02 2.09893417e-02 4.89369854e-02 2.45296396e-02 2.40719989e-02 5.81067428e-02 4.51098271e-02 4.24685404e-02 2.44987849e-02 2.77987793e-02 2.14843042e-02 3.42184827e-02 2.28967927e-02 2.16654036e-02 2.08195988e-02 3.39480937e-02 2.32093614e-02 2.18856316e-02 2.18140092e-02 2.19249539e-02 2.74067838e-02 2.18137931e-02 2.18677018e-02 2.12931484e-02 2.23633386e-02 2.33103428e-02 2.11349577e-02 2.29312051e-02 2.29883194e-02 2.11445931e-02 2.14989297e-02 2.34596319e-02 2.31673252e-02 2.17510760e-02 2.13771462e-02 2.07357928e-02 2.13829279e-02 2.22609341e-02 2.32347883e-02 2.25298870e-02 2.18105651e-02 2.28716377e-02 2.25041453e-02 2.37019546e-02 2.38828678e-02 2.33103428e-02 2.85076462e-02 2.38828678e-02 2.08370164e-02 2.20845211e-02 2.15948410e-02 2.09311824e-02 2.08887402e-02 2.44396999e-02 2.45797187e-02 2.24810708e-02 2.17076503e-02 2.23980676e-02 2.29738187e-02 2.33922582e-02 2.64510438e-02 3.06547191e-02 3.06629799e-02 2.55542006e-02 2.85076462e-02 3.13711390e-02 3.06629799e-02 2.12905165e-02 2.43239962e-02 2.22153980e-02 2.08276268e-02 2.77899057e-02 2.53634565e-02 2.20986679e-02 2.65034065e-02 3.23568247e-02 3.08422688e-02 2.85592545e-02 3.11247855e-02 3.18720341e-02 3.13711390e-02 7.39787370e-02 1.32404387e-01 9.77640092e-01 9.79815304e-01 4.24878389e-01 6.44495606e-01 8.25157881e-01 9.79814529e-01 2.57100966e-02 4.05968353e-02 9.64575112e-01 2.39223227e-01 9.79708433e-01 9.20862913e-01 9.79815125e-01 2.18400825e-02 2.59516202e-02 2.21232399e-02 2.60616299e-02 3.25401016e-02 3.05079930e-02 2.79377699e-02 3.21840160e-02 3.32863890e-02 3.18720341e-02 7.60262236e-02 7.84714997e-01 9.79815423e-01 9.63145137e-01 4.19379711e-01 9.16226149e-01 2.13720780e-02 2.06447188e-02 3.32863890e-02 2.33103428e-02 2.08878759e-02 2.54633967e-02 2.47481205e-02 3.15760486e-02 2.92782299e-02 3.22995521e-02 2.95229461e-02 3.30246948e-02 2.59365086e-02 2.57392377e-02 2.92960048e-01 6.53936744e-01 9.43703234e-01 9.75526631e-01 3.30246948e-02 2.26267595e-02 2.18677018e-02 2.49612276e-02 2.18782481e-02 2.18140092e-02 9.11282420e-01 5.68259716e-01 3.15848850e-02 2.85406467e-02 2.75151785e-02 2.87709702e-02 2.91376207e-02 2.29581706e-02 2.06359532e-02 1.85735077e-01 3.48486483e-01 4.80811447e-01 3.15848850e-02 2.16463581e-02 2.23094448e-02 2.55968869e-02 2.07630470e-02 1.32653758e-01 2.02842746e-02 2.57951003e-02 2.66953222e-02 4.45778146e-02 2.31886394e-02 6.40913248e-02 2.85406467e-02 2.12979410e-02 2.21639108e-02 2.10768767e-02 2.02848706e-02 2.33103428e-02 2.49612276e-02 2.17667576e-02 2.35494860e-02 2.38467921e-02 2.06645168e-02 2.05823388e-02 2.11888719e-02 2.02969909e-02 2.28349976e-02 2.25041453e-02 2.23633386e-02 2.22443808e-02 2.09809653e-02 2.04968508e-02 2.03007180e-02 2.02766024e-02 2.18703523e-02 2.22372804e-02 2.12931484e-02 2.13001408e-02 2.10132189e-02 2.05157343e-02 2.16549318e-02 2.02941876e-02 2.32943613e-02 2.08195988e-02 5.57430685e-02 2.07668189e-02 2.35062819e-02 2.35163327e-02 4.58512157e-02 4.79304083e-02 4.83819544e-02 2.74800003e-01 2.41155643e-02 1.08907126e-01 6.56705916e-01 9.11984742e-01 4.49414402e-02 2.40272544e-02 4.53934819e-02 1.86732233e-01 4.95273590e-01 8.63233805e-02 2.25872830e-01 9.79576528e-01 7.19132543e-01 8.77896607e-01 4.41700935e-01 1.96391568e-01 3.70394886e-01 3.80900085e-01 8.76954317e-01 9.79815364e-01 9.48475063e-01 7.20647395e-01 7.70026922e-01 9.70435679e-01 9.79815245e-01 9.74577725e-01 9.79303837e-01 9.04975533e-01 9.79815185e-01 9.79775548e-01 
