# vtk DataFile Version 2.0
results_case1/1616747557/sol_toll1e-05_vf0.3_iter7.vtk, Created by Freefem++ 
ASCII
DATASET UNSTRUCTURED_GRID
POINTS 623 float
0 0.64694264 0
0 0.3683502 0
0 0.39938875 0
0 0.34404038 0
0 0.59695539 0
0 0.62136446 0
0 0.58119588 0
0 0.67668343 0
0.0029754883 0.62738726 0
0 0.68559587 0
0 0.66474946 0
0 0.69723141 0
0 0.70767951 0
0 0.72475352 0
0 0.71878878 0
0 0.71308861 0
0 0.69190935 0
0 0.70246052 0
0 0.41872204 0
0.0025777327 0.39347766 0
0 0.42950716 0
0 0.32832601 0
0.0033484671 0.35892878 0
0 0.73074175 0
0 0.73684187 0
0 0.7439751 0
0 0.75258717 0
0.0027940271 0.59427764 0
0 0.57239571 0
0.006198368 0.60725773 0
0.0052376069 0.64756401 0
0.0057153013 0.67570796 0
0.0057647681 0.3936271 0
0 0.43553442 0
0 0.43903726 0
0 0.4448525 0
0 0.44791855 0
0 0.44198156 0
0.0055014869 0.42262056 0
0 0.31743074 0
0.0059328661 0.35684698 0
0 0.55463195 0
0 0.55941987 0
0 0.56320386 0
0 0.56730935 0
0 0.80944023 0
0 0.76382426 0
0.0066989122 0.69800315 0
0 0.78113211 0
0.0054550296 0.57788248 0
0.010493009 0.63025081 0
0.0097641751 0.60089493 0
0.011823938 0.65447193 0
0.0097812098 0.40624832 0
0 0.45227821 0
0.0065886877 0.4406153 0
0 0.45850234 0
0.012005973 0.43367855 0
0 0.30919502 0
0 0.30271341 0
0.0064124005 0.33310149 0
0.010825559 0.38102137 0
0 0.54879404 0
0.0052422338 0.56084552 0
0 0.5429073 0
0 0.52828177 0
0 0.53657133 0
0.0047010439 0.78619332 0
0 0.84951279 0
0.0092904038 0.71635946 0
0.013500935 0.58366688 0
0.010548017 0.57067679 0
0.015217306 0.60445216 0
0.016640319 0.6415269 0
0.014925081 0.40789017 0
0 0.47695167 0
0.008924873 0.45196647 0
0 0.46625088 0
0.016707726 0.43915723 0
0 0.28470107 0
0 0.29071256 0
0 0.27833012 0
0 0.29664638 0
0 0.27160941 0
0.0070005561 0.3153875 0
0.012382549 0.36296142 0
0.01647843 0.36791103 0
0.0098135403 0.55526827 0
0 0.51381927 0
0.012287355 0.54287354 0
0 0.90599144 0
0.0099356192 0.78311117 0
0.018117274 0.68429178 0
0.017235046 0.57416677 0
0.020284657 0.5982333 0
0.023934353 0.6292286 0
0.020639134 0.41378776 0
0 0.49388911 0
0.012843214 0.46453977 0
0.021552217 0.44680568 0
0 1 0
0 0.26496875 0
0 0.25851936 0
0 0.25113884 0
0.0087641175 0.30895428 0
0.012400296 0.31201589 0
0.022749789 0.37380075 0
0.016458234 0.31583733 0
0.020663412 0.55742598 0
0.014956862 0.52314522 0
0.02102648 0.73785384 0
0.015659572 0.85364843 0
0.029538941 0.68321479 0
0.027209517 0.58443055 0
0.03227633 0.62278981 0
0.029343861 0.42077212 0
0.016955217 0.48722388 0
0.027783555 0.45652151 0
0.020383205 1 0
0 0.24166525 0
0.0055480491 0.25895689 0
0.0091991032 0.24914165 0
0.031423017 0.37103811 0
0.020496039 0.29464507 0
0.028448122 0.51235004 0
0.033469047 0.55054484 0
0.044035915 0.66940366 0
0.035357885 0.77938525 0
0.044293678 0.60691297 0
0.04558974 0.42373106 0
0.035728674 0.47420456 0
0.053540772 0.83015279 0
0.050955809 1 0
0 0.22690552 0
0 0.20391725 0
0.0046827717 0.20170956 0
0.045249175 0.34326609 0
0.011676972 0.19681864 0
0.028933744 0.27261555 0
0.049432066 0.50373642 0
0.05330347 0.56474639 0
0.063693589 0.70232204 0
0.071202365 0.61886967 0
0.070536589 0.34055047 0
0.068449504 0.45000074 0
0.099228059 1 0
0.097731014 0.82169714 0
0 0.16730921 0
0.043430435 0.20164652 0
0.07581861 0.18832387 0
0 0.1073274 0
0.018042191 0.14137632 0
0.11430908 0.24371766 0
0.081996506 0.53784518 0
0.10499733 0.66817277 0
0.10551472 0.42530099 0
0.17683468 1 0
0.16370432 0.75559194 0
0.020383205 0 0
0.099228059 0 0
0.050955809 0 0
0 0 0
0.30309169 1 0
0.17683468 0 0
0.16088683 0.30801653 0
0.14192708 0.53996392 0
0.23896065 0.19869127 0
0.27344082 0.8023502 0
0.23159206 0.62568956 0
1 1 0
0.73285425 1 0
0.49789402 1 0
1 0.90599144 0
1 0.84951279 0
0.4349064 0.84568689 0
0.30309169 0 0
0.22605104 0.42820811 0
0.31470657 0.27068839 0
0.30269293 0.55826807 0
0.3740569 0.70289464 0
0.49789402 0 0
0.78645797 0.89421918 0
0.60691069 0.86605165 0
0.80632907 0.83757617 0
0.86563697 0.8133184 0
1 0.78113211 0
1 0.80944023 0
0.52121643 0.76659979 0
0.4391049 0.66929159 0
0.44435273 0.1786962 0
0.39615832 0.31122933 0
0.34202087 0.42872697 0
0.36761344 0.55347792 0
0.41556081 0.57293586 0
0.73285425 0 0
0.57762308 0.12503676 0
0.56972618 0.21787987 0
0.64587541 0.78845358 0
0.72245244 0.78069374 0
0.78057784 0.77700002 0
0.84245194 0.7772344 0
1 0.76382426 0
0.92326827 0.76357377 0
0.86678749 0.76563265 0
0.54770236 0.71461503 0
0.47666892 0.64395693 0
0.42994269 0.36775191 0
0.49104669 0.28175617 0
0.45534001 0.39549216 0
0.41243311 0.47611495 0
0.45193875 0.5637618 0
1 0 0
0.81496708 0.097061143 0
0.68835037 0.14774143 0
0.67063991 0.21646733 0
0.57250096 0.28485391 0
0.62474651 0.72537283 0
0.70377969 0.73896095 0
0.79364795 0.73879699 0
0.6684499 0.70821807 0
0.76067338 0.74093687 0
1 0.75258717 0
1 0.7439751 0
0.92646707 0.75047229 0
0.85852796 0.74772809 0
0.54571855 0.66802831 0
0.49759636 0.6173873 0
0.50782031 0.33797577 0
0.45156213 0.46028034 0
0.4873763 0.40359665 0
0.46182188 0.51020906 0
0.48743087 0.56680566 0
0.65853698 0.25283213 0
1 0.1073274 0
0.81210118 0.16809523 0
0.78439266 0.2151415 0
0.58682595 0.31605259 0
0.78845287 0.72770093 0
0.59764344 0.67871166 0
0.62610307 0.67595969 0
0.70821136 0.71013854 0
1 0.73684187 0
0.92579856 0.74132234 0
0.93764498 0.73557079 0
0.85666783 0.73530455 0
0.78694812 0.71988326 0
0.5344476 0.62206644 0
0.51132853 0.5653908 0
0.52641877 0.36307482 0
0.50852451 0.41754941 0
0.48397679 0.45949603 0
0.50763735 0.51310007 0
0.49136514 0.51135757 0
0.66978506 0.2700989 0
0.56832118 0.35277504 0
1 0.16730921 0
0.86549228 0.21829652 0
0.76775293 0.24915914 0
0.62010643 0.31527912 0
0.68520134 0.28410491 0
1 0.73074175 0
0.71838375 0.70417837 0
0.72989497 0.70146704 0
0.57292135 0.64074284 0
0.60045687 0.64862121 0
0.65084736 0.67680332 0
0.92309297 0.72760887 0
0.87883806 0.72815312 0
0.82760144 0.72275006 0
0.77333621 0.70832035 0
0.54258459 0.59998495 0
0.52480853 0.55136219 0
0.5375695 0.38445707 0
0.51906189 0.50284986 0
0.52907955 0.42141445 0
0.50738177 0.4648858 0
0.61765666 0.32893644 0
0.59083336 0.35428831 0
1 0.20391725 0
0.86814424 0.23801017 0
0.77421482 0.26447639 0
0.71764422 0.28707945 0
0.6657544 0.30623109 0
0.93018916 0.72225966 0
1 0.72475352 0
0.67219024 0.67785555 0
0.71669805 0.68865356 0
0.56785228 0.60209171 0
0.5722268 0.61805943 0
0.61845229 0.64756641 0
0.86608676 0.71732979 0
0.81999065 0.71315922 0
0.76321132 0.69724532 0
0.5467894 0.57545776 0
0.53346025 0.53044911 0
0.5686045 0.58779922 0
0.56450051 0.38343709 0
0.53208758 0.4871505 0
0.54519199 0.42343366 0
0.52533491 0.46146917 0
0.63796185 0.33061576 0
0.6069723 0.35639553 0
1 0.22690552 0
0.87555261 0.25042057 0
0.79721947 0.26912117 0
0.73889323 0.29000316 0
0.68516061 0.30992426 0
1 0.71878878 0
0.89150754 0.71324493 0
0.9421536 0.71428084 0
0.66392423 0.66406098 0
0.70673705 0.67647308 0
0.59226238 0.61772623 0
0.62520988 0.64029872 0
0.81261742 0.70295126 0
0.84253643 0.7030174 0
0.75089862 0.68519604 0
0.70102638 0.66663032 0
0.55099123 0.55935209 0
0.53958406 0.50857081 0
0.54934363 0.5374322 0
0.5743119 0.57683168 0
0.59268955 0.60319498 0
0.60322643 0.36899851 0
0.57261863 0.39367879 0
0.54633354 0.47866081 0
0.56817048 0.41303992 0
0.54628627 0.44798729 0
0.65139069 0.3358797 0
1 0.24166525 0
0.88989244 0.25856739 0
0.81233382 0.27246224 0
0.76544519 0.28895686 0
0.71149194 0.30941527 0
0.6380542 0.35445178 0
1 0.71308861 0
0.90289684 0.70660891 0
1 0.70767951 0
0.84986799 0.69763785 0
0.65714943 0.64919279 0
0.6194734 0.62446314 0
0.78892623 0.68893183 0
0.67868747 0.65011535 0
0.72869604 0.6696074 0
0.56572538 0.55358707 0
0.55883816 0.52908924 0
0.55182375 0.50646509 0
0.5859643 0.57088896 0
0.6040273 0.59722883 0
0.60180586 0.38359624 0
0.5590369 0.45349303 0
0.56088536 0.47970168 0
0.59137211 0.40393444 0
0.57219548 0.42836971 0
0.57209906 0.48325824 0
0.6798811 0.32988179 0
1 0.25113884 0
0.90958598 0.26367119 0
0.83566217 0.27443952 0
0.78196705 0.29178655 0
0.73442604 0.31027451 0
0.67274045 0.34419495 0
0.64011135 0.36568325 0
0.80836455 0.68537342 0
0.92210572 0.70147356 0
1 0.70246052 0
0.8661691 0.69342941 0
0.63743194 0.62456946 0
0.66280398 0.63468081 0
0.75300611 0.67043454 0
0.69700617 0.64835016 0
0.5770696 0.54330848 0
0.56814772 0.51180876 0
0.62343368 0.60194197 0
0.60138113 0.57102263 0
0.61888247 0.38807901 0
0.57767966 0.44873616 0
0.59832208 0.41699105 0
0.58613439 0.46531846 0
0.58350827 0.49812487 0
1 0.69723141 0
0.7041524 0.32712317 0
1 0.25851936 0
0.92320439 0.26858883 0
0.85470755 0.27818124 0
0.79741482 0.29506856 0
0.75284577 0.31259029 0
0.71954487 0.33105981 0
0.68237738 0.35039984 0
0.6563955 0.36933909 0
0.77413718 0.66973121 0
0.83059019 0.68281651 0
0.89889575 0.69127387 0
0.92377198 0.68905879 0
0.65120621 0.61819557 0
0.677573 0.62844324 0
0.72077826 0.65018861 0
0.58798596 0.53196311 0
0.62750091 0.58893464 0
0.60754182 0.55897239 0
0.6327823 0.39198324 0
0.6009733 0.43899863 0
0.61799821 0.41387737 0
0.59827906 0.47115282 0
0.59667584 0.50412939 0
1 0.69190935 0
1 0.26496875 0
0.9205498 0.27529619 0
0.85704952 0.28558456 0
0.81334364 0.2996554 0
0.77032482 0.31413495 0
0.76231001 0.323534 0
0.72675662 0.3382931 0
0.69776742 0.35468707 0
0.67040285 0.3730298 0
0.749317 0.65289412 0
0.80708478 0.67152448 0
0.8618884 0.6799126 0
0.9228016 0.68317205 0
0.65274973 0.60273197 0
0.6923131 0.62722052 0
0.60508083 0.53475156 0
0.62816963 0.56800841 0
0.60909662 0.51027022 0
0.64814618 0.3957256 0
0.61389318 0.44568542 0
0.63010426 0.41919398 0
0.61355385 0.47478277 0
0.70520693 0.62599133 0
1 0.68559587 0
1 0.27160941 0
0.67905437 0.37951769 0
0.86824416 0.29088006 0
0.92464967 0.28193943 0
0.85599126 0.29891658 0
0.80662054 0.3099994 0
0.78208463 0.32480598 0
0.74484632 0.342007 0
0.71094802 0.35980288 0
0.75317925 0.64603971 0
0.80304555 0.66268338 0
0.85848091 0.67244564 0
0.91775858 0.67591919 0
0.68462848 0.60420383 0
0.66260919 0.59615271 0
0.62038966 0.53557704 0
0.63879295 0.56271188 0
0.62190669 0.50306943 0
0.63191324 0.46274317 0
0.66325609 0.40236086 0
0.6343654 0.43548255 0
[...]
CELL_DATA 1244
Scalars  Label int 1
LOOKUP_TABLE FreeFempp_table
0
0
0
0
0
0
0
0
0
0
0
0
0
0
0
0
0
0
0
0
0
0
0
0
0
0
0
0
0
0
0
0
0
0
0
0
0
0
0
0
0
0
0
0
0
0
0
0
0
0
0
0
0
0
0
0
0
0
0
0
0
0
0
0
0
0
0
0
0
0
0
0
0
0
0
0
0
0
0
0
0
0
0
0
0
0
0
0
0
0
0
0
0
0
0
0
0
0
0
0
0
0
0
0
0
0
0
0
0
0
0
0
0
0
0
0
0
0
0
0
0
0
0
0
0
0
0
0
0
0
0
0
0
0
0
0
0
0
0
0
0
0
0
0
0
0
0
0
0
0
0
0
0
0
0
0
0
0
0
0
0
0
0
0
0
0
0
0
0
0
0
0
0
0
0
0
0
0
0
0
0
0
0
0
0
0
0
0
0
0
0
0
0
0
0
0
0
0
0
0
0
0
0
0
0
0
0
0
0
0
0
0
0
0
0
0
0
0
0
0
0
0
0
0
0
0
0
0
0
0
0
0
0
0
0
0
0
0
0
0
0
0
0
0
0
0
0
0
0
0
0
0
0
0
0
0
0
0
0
0
0
0
0
0
0
0
0
0
0
0
0
0
0
0
0
0
0
0
0
0
0
0
0
0
0
0
0
0
0
0
0
0
0
0
0
0
0
0
0
0
0
0
0
0
0
0
0
0
0
0
0
0
0
0
0
0
0
0
0
0
0
0
0
0
0
0
0
0
0
0
0
0
0
0
0
0
0
0
0
0
0
0
0
0
0
0
0
0
0
0
0
0
0
0
0
0
0
0
0
0
0
0
0
0
0
0
0
0
0
0
0
0
0
0
0
0
0
0
0
0
0
0
0
0
0
0
0
0
0
0
0
0
0
0
0
0
0
0
0
0
0
0
0
0
0
0
0
0
0
0
0
0
0
0
0
0
0
0
0
0
0
0
0
0
0
0
0
0
0
0
0
0
0
0
0
0
0
0
0
0
0
0
0
0
0
0
0
0
0
0
0
0
0
0
0
0
0
0
0
0
0
0
0
0
0
0
0
0
0
0
0
0
0
0
0
0
0
0
0
0
0
0
0
0
0
0
0
0
0
0
0
0
0
0
0
0
0
0
0
0
0
0
0
0
0
0
0
0
0
0
0
0
0
0
0
0
0
0
0
0
0
0
0
0
0
0
0
0
0
0
0
0
0
0
0
0
0
0
0
0
0
0
0
0
0
0
0
0
0
0
0
0
0
0
0
0
0
0
0
0
0
0
0
0
0
0
0
0
0
0
0
0
0
0
0
0
0
0
0
0
0
0
0
0
0
0
0
0
0
0
0
0
0
0
0
0
0
0
0
0
0
0
0
0
0
0
0
0
0
0
0
0
0
0
0
0
0
0
0
0
0
0
0
0
0
0
0
0
0
0
0
0
0
0
0
0
0
0
0
0
0
0
0
0
0
0
0
0
0
0
0
0
0
0
0
0
0
0
0
0
0
0
0
0
0
0
0
0
0
0
0
0
0
0
0
0
0
0
0
0
0
0
0
0
0
0
0
0
0
0
0
0
0
0
0
0
0
0
0
0
0
0
0
0
0
0
0
0
0
0
0
0
0
0
0
0
0
0
0
0
0
0
0
0
0
0
0
0
0
0
0
0
0
0
0
0
0
0
0
0
0
0
0
0
0
0
0
0
0
0
0
0
0
0
0
0
0
0
0
0
0
0
0
0
0
0
0
0
0
0
0
0
0
0
0
0
0
0
0
0
0
0
0
0
0
0
0
0
0
0
0
0
0
0
0
0
0
0
0
0
0
0
0
0
0
0
0
0
0
0
0
0
0
0
0
0
0
0
0
0
0
0
0
0
0
0
0
0
0
0
0
0
0
0
0
0
0
0
0
0
0
0
0
0
0
0
0
0
0
0
0
0
0
0
0
0
0
0
0
0
0
0
0
0
0
0
0
0
0
0
0
0
0
0
0
0
0
0
0
0
0
0
0
0
0
0
0
0
0
0
0
0
0
0
0
0
0
0
0
0
0
0
0
0
0
0
0
0
0
0
0
0
0
0
0
0
0
0
0
0
0
0
0
0
0
0
0
0
0
0
0
0
0
0
0
0
0
0
0
0
0
0
0
0
0
0
0
0
0
0
0
0
0
0
0
0
0
0
0
0
0
0
0
0
0
0
0
0
0
0
0
0
0
0
0
0
0
0
0
0
0
0
0
0
0
0
0
0
0
0
0
0
0
0
0
0
0
0
0
0
0
0
0
0
0
0
0
0
0
0
0
0
0
0
0
0
0
0
0
0
0
0
0
0
0
0
0
0
0
0
0
0
0
0
0
0
0
0
0
0
0
0
0
0
0
0
0
0
0
0
0
0
0
0
0
0
0
0
0
0
0
0
0
0
0
0
0
0
0
0
0
0
0
0
0
0
0
0
0
0
0
0
0
0
0
0
0
0
0
0
0
0
0
0
0
0
1
1
1
1
1
1
1
1
3
3
3
3
3
3
3
3
2
2
2
2
2
2
2
2
2
2
2
2
2
2
2
2
2
2
2
2
2
2
2
2
2
2
2
2
2
2
2
2
2
2
2
2
2
2
2
2
2
2
2
2
2
2
2
2
2
2
2
2
2
2
2
2
2
2
2
2
2
2
2
2
2
2
4
4
4
4
4
4
4
4
4
4
4
4
4
4
4
4
4
4
4
4
4
4
4
4
4
4
4
4
4
4
4
4
4
4
4
4
4
4
4
4
4
4
4
4
4
4
4
4
4
4
4
4
4
4
4
4
4
4
4
4
4
4
4
4
4
4

LOOKUP_TABLE FreeFempp_table 5
1.00000000 0.00000000 0.00000000 1.00000000
1.00000000 1.00000000 0.00000000 1.00000000
1.00000000 0.00000000 1.00000000 1.00000000
0.00000000 1.00000000 0.00000000 1.00000000
0.00000000 1.00000000 1.00000000 1.00000000

POINT_DATA 623
FIELD FieldData 1
Density 1 623 float
9.89409149e-01 9.89409149e-01 9.89409149e-01 9.89409149e-01 9.89409149e-01 9.89409149e-01 9.89409149e-01 9.89409149e-01 9.43604529e-01 9.87968981e-01 9.89409149e-01 9.49883282e-01 8.23343039e-01 3.35581094e-01 4.93223250e-01 6.62607849e-01 9.84704316e-01 9.15670514e-01 9.89409149e-01 9.88076389e-01 9.89409208e-01 9.89409149e-01 9.10458148e-01 1.79932475e-01 7.06354305e-02 4.17377576e-02 1.67601947e-02 9.84804332e-01 9.89409208e-01 9.29906785e-01 8.32718670e-01 4.76444215e-01 8.86264145e-01 9.89409208e-01 9.89065528e-01 9.86402750e-01 7.73530900e-01 9.87717330e-01 9.81830120e-01 9.88431513e-01 7.39891112e-01 9.08680379e-01 9.68798399e-01 9.89409208e-01 9.89409208e-01 1.06907375e-02 1.10449502e-02 8.11127201e-02 1.06907394e-02 9.79845524e-01 2.92158902e-01 4.32248384e-01 1.89992115e-02 4.28712547e-01 3.03551018e-01 5.13442993e-01 1.10549163e-02 1.32636741e-01 9.85447764e-01 9.62986350e-01 4.13781703e-01 2.55499363e-01 4.58655149e-01 6.00796580e-01 1.06907757e-02 1.06907738e-02 1.06907748e-02 1.06907375e-02 1.06907040e-02 1.68630891e-02 1.59905091e-01 3.39854598e-01 1.19565967e-02 1.06907664e-02 3.41816321e-02 1.06907710e-02 1.06907748e-02 1.06907729e-02 2.77005434e-02 6.59102321e-01 8.42414439e-01 4.29076493e-01 9.02031183e-01 2.38592267e-01 9.96442959e-02 1.51445037e-02 1.06907701e-02 8.50388557e-02 1.06907710e-02 1.06907804e-02 1.06903883e-02 1.06907347e-02 1.06907655e-02 3.57863046e-02 1.06907766e-02 1.06907664e-02 1.06907757e-02 1.06907701e-02 1.06907748e-02 1.06907794e-02 1.06895948e-02 1.25860646e-01 3.15135308e-02 2.01251153e-02 6.12924397e-02 1.06907664e-02 1.06907664e-02 1.06907645e-02 1.06907785e-02 1.06907664e-02 1.06907524e-02 1.06905885e-02 1.06907329e-02 1.06907729e-02 1.06907459e-02 1.06907673e-02 1.06907710e-02 1.06907729e-02 1.06904581e-02 1.06907347e-02 1.06907617e-02 1.06907655e-02 1.06907431e-02 1.06907487e-02 1.06907552e-02 1.06907552e-02 1.06907226e-02 1.06906490e-02 1.06907329e-02 1.06907357e-02 1.06907645e-02 1.06905503e-02 1.06902290e-02 1.06907375e-02 1.06907347e-02 1.06907366e-02 1.06906565e-02 1.06907384e-02 1.06906723e-02 1.06906937e-02 1.06907142e-02 1.06905606e-02 1.06905987e-02 1.06905643e-02 1.06906304e-02 1.06898937e-02 1.06901787e-02 1.06907133e-02 1.06904181e-02 1.06902728e-02 1.06906099e-02 1.06905857e-02 1.06902076e-02 1.06905298e-02 1.06903594e-02 1.06902840e-02 1.06894784e-02 1.06897112e-02 1.06904581e-02 1.06898937e-02 1.06902290e-02 1.06895948e-02 1.06892353e-02 1.06894784e-02 1.06900865e-02 1.06901340e-02 1.06899366e-02 1.06897345e-02 1.06901033e-02 1.06895948e-02 1.06886663e-02 1.06889568e-02 1.06903883e-02 1.06907040e-02 1.06898956e-02 1.06892353e-02 1.06899198e-02 1.06902746e-02 1.06906034e-02 1.06904963e-02 1.06889568e-02 1.06902653e-02 1.06900064e-02 1.06906155e-02 1.06906965e-02 1.06907394e-02 1.06907375e-02 1.06906211e-02 1.06907012e-02 1.06903678e-02 1.06906518e-02 1.06906379e-02 1.06906658e-02 1.06906826e-02 1.06886663e-02 1.06901145e-02 1.06906444e-02 1.06906882e-02 1.06906919e-02 1.06907161e-02 1.06906947e-02 1.10449502e-02 1.06906965e-02 1.06906947e-02 1.06906872e-02 1.06907217e-02 1.06906854e-02 1.06907068e-02 1.06907217e-02 1.06906677e-02 1.06906965e-02 1.06895948e-02 1.06900726e-02 1.06905364e-02 1.06906919e-02 1.06907059e-02 1.06906882e-02 1.06906909e-02 1.06907142e-02 1.07425638e-02 1.06906863e-02 1.67601947e-02 4.17377576e-02 1.22045269e-02 1.30880410e-02 1.06907049e-02 1.06906882e-02 1.06907021e-02 1.06907170e-02 1.06906872e-02 1.06907096e-02 1.06907086e-02 1.06907003e-02 1.06906099e-02 1.06906407e-02 1.06906928e-02 1.06906835e-02 1.74288768e-02 1.09788682e-02 1.37518011e-02 1.17250672e-02 7.06354305e-02 2.85916906e-02 1.00107722e-01 3.17795798e-02 3.29705067e-02 1.24958269e-02 1.30795659e-02 1.06906965e-02 1.11715933e-02 1.07418969e-02 1.98920649e-02 1.06907068e-02 1.06907021e-02 1.06906956e-02 1.06907133e-02 1.06906956e-02 1.06907096e-02 1.30135063e-02 1.09561952e-02 1.79932475e-01 2.52724644e-02 4.73897159e-02 1.34392232e-02 3.08225323e-02 3.08850780e-02 1.47912517e-01 7.78778121e-02 9.66245532e-02 1.07544772e-01 2.44864039e-02 2.09879577e-02 1.25752166e-02 3.29366699e-02 1.31040365e-02 1.38258347e-02 1.76672824e-02 3.71853523e-02 1.06907347e-02 1.06906965e-02 1.06906854e-02 1.34548265e-02 1.57178510e-02 2.45031551e-01 3.35581094e-01 5.67045435e-02 1.38271481e-01 5.97099252e-02 2.98111495e-02 7.04822615e-02 2.42150635e-01 1.73829138e-01 2.19849214e-01 5.63481674e-02 1.03577718e-01 1.21821269e-01 3.28570120e-02 9.18952227e-02 5.51930033e-02 2.78257728e-02 4.70501967e-02 6.44385964e-02 1.06907375e-02 1.06907031e-02 1.45978276e-02 3.21989097e-02 6.19264580e-02 4.93223250e-01 4.23972398e-01 5.31646967e-01 1.71328396e-01 2.39736721e-01 1.11578904e-01 1.80540994e-01 4.16425735e-01 5.98589718e-01 4.50540751e-01 4.29125518e-01 1.29263595e-01 1.47382990e-01 1.90999791e-01 2.99264014e-01 2.75578529e-01 1.19812965e-01 9.00733098e-02 1.71479598e-01 1.36143789e-01 9.59758162e-02 7.57246539e-02 1.06907347e-02 2.52690818e-02 1.89448148e-02 5.24932854e-02 1.21983811e-01 2.20168903e-01 6.62607849e-01 6.74178660e-01 8.23343039e-01 7.83617377e-01 3.06441665e-01 2.90763736e-01 6.57840669e-01 5.66738784e-01 6.66417837e-01 3.37785721e-01 3.71149778e-01 3.26697409e-01 5.02614021e-01 4.95525569e-01 2.05598399e-01 2.78315753e-01 4.10554886e-01 3.23657453e-01 3.05216670e-01 6.09444916e-01 1.97283566e-01 2.01251153e-02 5.90245724e-02 5.32538220e-02 1.26718223e-01 2.38282815e-01 4.16133374e-01 3.91135007e-01 8.10757220e-01 8.75152826e-01 9.15670514e-01 8.72737288e-01 5.47420502e-01 6.78906024e-01 8.12719107e-01 7.99027085e-01 6.07571959e-01 5.52020788e-01 6.92198336e-01 7.06862986e-01 4.93561029e-01 5.27620077e-01 5.60710371e-01 7.17327178e-01 7.69290984e-01 9.49883282e-01 3.17606837e-01 3.15135308e-02 1.20979659e-01 1.22719511e-01 2.29243189e-01 3.58030647e-01 5.72521687e-01 6.28607750e-01 6.48075461e-01 9.32720542e-01 9.45920050e-01 9.47838902e-01 9.55048800e-01 8.32974434e-01 8.88249516e-01 8.92838240e-01 8.22135866e-01 8.89741182e-01 8.87618661e-01 7.23193049e-01 8.23774993e-01 7.55681634e-01 9.07687545e-01 9.32274640e-01 9.84704316e-01 1.25860646e-01 1.94871113e-01 3.13492864e-01 4.82901305e-01 5.48833072e-01 7.09512234e-01 8.12841654e-01 7.87025094e-01 8.78204346e-01 9.74532008e-01 9.63320553e-01 9.71717000e-01 9.87445176e-01 9.16121602e-01 9.65005219e-01 9.03332233e-01 9.36858058e-01 9.58623767e-01 8.47134590e-01 9.11755741e-01 9.25072908e-01 9.55287158e-01 9.75741923e-01 9.87968981e-01 2.38592267e-01 9.30511773e-01 4.81738150e-01 4.14811820e-01 6.54652059e-01 7.65375733e-01 8.91609251e-01 9.01346743e-01 9.38108265e-01 9.82019365e-01 9.89409149e-01 9.86390114e-01 9.89409089e-01 9.87879097e-01 9.82275486e-01 9.80484128e-01 9.77312088e-01 9.83590543e-01 9.87529159e-01 9.70762908e-01 9.69206154e-01 9.89235640e-01 9.89409149e-01 4.29076493e-01 9.73438442e-01 6.58104002e-01 7.85770714e-01 8.42428982e-01 8.88200939e-01 9.43282068e-01 9.80361998e-01 9.89409149e-01 9.89409089e-01 9.89409089e-01 9.89264250e-01 9.83837366e-01 9.87239063e-01 9.88185048e-01 9.87525702e-01 9.88952339e-01 9.89409149e-01 9.89409149e-01 9.89409149e-01 6.59102321e-01 9.84664500e-01 8.42414439e-01 8.52742374e-01 9.11740482e-01 9.52032745e-01 9.83915269e-01 9.89409149e-01 9.89409149e-01 9.89409149e-01 9.89409089e-01 9.89409149e-01 9.89409149e-01 9.89409149e-01 9.89409149e-01 9.89409149e-01 9.89409149e-01 9.89409089e-01 9.89409149e-01 9.89337921e-01 9.02031183e-01 9.46150541e-01 9.64494288e-01 9.88645971e-01 9.89409089e-01 9.89409149e-01 9.89409149e-01 9.89409149e-01 9.89409149e-01 9.89409149e-01 9.89409149e-01 9.89409089e-01 9.89409149e-01 9.89409149e-01 9.89409149e-01 9.62986350e-01 9.85447764e-01 9.89409089e-01 9.89364743e-01 9.88431513e-01 9.89409089e-01 9.89409089e-01 9.89409089e-01 9.89409149e-01 9.89409149e-01 9.89409089e-01 9.89409149e-01 9.89409089e-01 9.89409149e-01 9.89409149e-01 9.89409208e-01 9.89409149e-01 9.89409149e-01 9.89409149e-01 9.89409089e-01 9.89409089e-01 9.89409089e-01 9.89409089e-01 9.89409089e-01 9.89409149e-01 9.89409149e-01 9.89409208e-01 9.89409208e-01 9.89409208e-01 9.89409149e-01 9.89409149e-01 9.89409149e-01 9.89409089e-01 9.89409089e-01 9.89409089e-01 9.89409149e-01 9.89409149e-01 9.89409208e-01 9.89409208e-01 9.89409208e-01 9.89409149e-01 9.89409149e-01 9.89409208e-01 9.89409149e-01 9.89409149e-01 9.89409149e-01 9.89409149e-01 9.89409208e-01 9.68798399e-01 9.81383383e-01 9.65754330e-01 9.89409208e-01 9.89409149e-01 9.89409208e-01 9.89409208e-01 9.89346921e-01 9.89409208e-01 9.89409149e-01 9.89409149e-01 9.89409208e-01 9.08680379e-01 5.47242641e-01 8.75290334e-01 9.89409208e-01 9.89409208e-01 9.83075202e-01 9.89409208e-01 9.77826536e-01 9.76572216e-01 6.18178904e-01 9.89409208e-01 9.33783472e-01 9.84454274e-01 4.58655149e-01 2.60989636e-01 1.89710066e-01 9.89065528e-01 9.87717330e-01 9.55475211e-01 9.84650075e-01 6.23234093e-01 9.86402750e-01 9.15264606e-01 9.08963799e-01 5.14481902e-01 7.95794964e-01 1.06907757e-02 1.58596281e-02 3.47106457e-02 6.95106387e-01 2.23279461e-01 5.83411574e-01 7.73530900e-01 5.46558201e-01 3.72730851e-01 7.21345097e-02 4.22199816e-01 4.11762074e-02 1.06907748e-02 1.06907701e-02 1.06907692e-02 1.55508578e-01 3.03551018e-01 1.10549163e-02 1.74282461e-01 3.12468503e-02 1.47257214e-02 1.06907738e-02 1.07436310e-02 1.06907729e-02 1.26297111e-02 1.06907682e-02 1.06907710e-02 1.06907710e-02 1.06907701e-02 
