# vtk DataFile Version 2.0
results_case1/1616747557/sol_toll1e-05_vf0.3_iter13.vtk, Created by Freefem++ 
ASCII
DATASET UNSTRUCTURED_GRID
POINTS 558 float
1 0.53209764 0
1 0.52126438 0
1 0.50445896 0
1 0.53921575 0
0.97452945 0.5217047 0
0.97328527 0.50832934 0
1 0.48529243 0
0.97685702 0.49569223 0
1 0.54577709 0
0.97133744 0.52918517 0
0.95277654 0.51689336 0
0.95834604 0.50931591 0
0.96032848 0.49608624 0
0.9791246 0.4812281 0
1 0.4702081 0
0.97408134 0.53746506 0
1 0.55354285 0
0.9537569 0.52810563 0
0.93641665 0.51420845 0
0.93458173 0.50421563 0
0.94523475 0.50221379 0
0.96292474 0.48126996 0
0.94593427 0.49245288 0
0.9827599 0.46708568 0
1 0.45824292 0
0.97202414 0.54333153 0
1 0.56077281 0
0.93630768 0.52288656 0
0.94229761 0.48388594 0
0.94865842 0.53517041 0
0.91859414 0.50971018 0
0.91921554 0.49979722 0
0.92864095 0.49316181 0
0.96366212 0.46968509 0
0.98206836 0.4568928 0
1 0.44773914 0
0.96340103 0.54708203 0
1 0.56795276 0
0.92845641 0.5259249 0
0.94306714 0.47479714 0
0.9246866 0.48384121 0
0.93089801 0.53539394 0
0.90714556 0.51361627 0
0.89967362 0.49590338 0
0.91003006 0.48925575 0
0.96117187 0.46081937 0
0.97941322 0.44926421 0
1 0.43908837 0
0.95674735 0.55231737 0
1 0.5789064 0
0.93827142 0.4685828 0
0.91574951 0.47810605 0
0.93852094 0.55582622 0
0.90032233 0.5244685 0
0.88029478 0.50158633 0
0.87911884 0.48349068 0
0.8998098 0.47728263 0
0.96471255 0.44746697 0
1 0.42981916 0
1 0.5981611 0
0.92922611 0.46250597 0
0.88757351 0.53495729 0
0.91869321 0.57510203 0
0.852404 0.50123623 0
0.84806897 0.47441761 0
0.87989212 0.46012913 0
0.90964722 0.45856945 0
0.94863925 0.43735515 0
1 0.41444205 0
1 0.62706501 0
0.8287899 0.51390653 0
0.92302125 0.61643656 0
0.83534094 0.56111844 0
0.80194671 0.46075855 0
0.85317586 0.43610634 0
0.91633139 0.4282222 0
1 0.3873828 0
1 0.65522639 0
0.76363513 0.49605827 0
1 0.67413304 0
0.82486704 0.60198386 0
0.87058646 0.63607903 0
0.75198649 0.55284671 0
0.74515988 0.44707722 0
0.80646729 0.41466278 0
0.90012763 0.39447529 0
1 0.35568922 0
0.88581881 0.65578256 0
0.70839353 0.50058773 0
0.89657074 0.67040532 0
1 0.68545754 0
1 0.69336485 0
0.91002626 0.35990574 0
0.7632063 0.60285639 0
0.78686114 0.63185252 0
0.70058114 0.55618095 0
0.69246419 0.45590073 0
0.74283851 0.40992608 0
0.81554189 0.37881896 0
1 0.33291386 0
0.81629492 0.65558211 0
0.66897094 0.50537647 0
0.8869031 0.67844659 0
1 0.700449 0
0.91250257 0.69140654 0
0.87372894 0.34712711 0
1 0.70710339 0
1 0.31944827 0
1 0.71485231 0
0.70631545 0.59152094 0
0.74021259 0.62808644 0
0.6582375 0.53533052 0
0.68107119 0.4310493 0
0.65229282 0.47874259 0
0.73143069 0.39186868 0
0.7836906 0.36363972 0
0.9057219 0.32788498 0
0.76179766 0.64827273 0
0.81145233 0.66803865 0
0.8444748 0.68169944 0
0.93004468 0.70190662 0
0.87027008 0.69373864 0
0.82498055 0.34303588 0
1 0.30996981 0
0.93216046 0.71129654 0
1 0.72386969 0
0.8221088 0.68606584 0
0.75193443 0.65435638 0
0.6905835 0.60557908 0
0.65971988 0.5692505 0
0.70303549 0.62736618 0
0.63086222 0.49848543 0
0.63256301 0.53271317 0
0.67232308 0.41602669 0
0.64087706 0.45658321 0
0.71530223 0.38321415 0
0.76371761 0.35396366 0
0.83522721 0.33057158 0
0.90826162 0.31524511 0
0.78049228 0.67113597 0
0.87352762 0.70260901 0
0.82843385 0.69594221 0
1 0.30170702 0
0.92921138 0.72019899 0
0.87786621 0.71196584 0
1 0.73137906 0
0.78369328 0.68311916 0
0.72284917 0.65029622 0
1 0.28546743 0
1 0.29412275 0
0.70677981 0.37518029 0
0.65683145 0.59023051 0
0.62923911 0.55414197 0
0.68208804 0.63033568 0
0.65737842 0.60657211 0
0.61397606 0.51388669 0
0.61641473 0.47672877 0
0.66475339 0.40378913 0
0.63563077 0.4382239 0
0.7292775 0.35504383 0
0.78675079 0.33507605 0
0.84714164 0.31798921 0
0.91348073 0.30562452 0
0.73753686 0.66767529 0
0.83823016 0.70800165 0
0.79530191 0.69806929 0
0.89402352 0.72211789 0
1 0.73771518 0
0.75568227 0.68415652 0
0.70191763 0.6499412 0
0.94177864 0.2868528 0
0.91701552 0.29694371 0
1 0.27546032 0
0.68141419 0.37907731 0
0.62724662 0.57382082 0
0.60742645 0.53783651 0
0.64754682 0.61468787 0
0.6689294 0.63637595 0
0.62687189 0.59082664 0
0.60040839 0.50351345 0
0.59982855 0.47256772 0
0.61401728 0.45202955 0
0.64944549 0.39793578 0
0.62894695 0.4236025 0
0.70542829 0.35508247 0
0.75360979 0.3365745 0
0.80581826 0.32022575 0
0.85393002 0.30816174 0
0.69215016 0.65751065 0
0.71872437 0.6756487 0
0.81970422 0.71294489 0
0.76082516 0.69647262 0
0.8933543 0.72916406 0
1 0.74441851 0
0.88899554 0.28789077 0
0.93550895 0.27839789 0
0.85787276 0.29853898 0
1 0.26741086 0
0.67296828 0.37177626 0
1 0.75212462 0
1 0.76207707 0
0.64149702 0.38979802 0
0.60221873 0.55740924 0
0.59033378 0.5257497 0
0.61565956 0.60269159 0
0.63732523 0.62228025 0
0.65476221 0.64304795 0
0.60554426 0.58060039 0
0.58578006 0.49606303 0
0.58465558 0.46697801 0
0.60426525 0.44135182 0
0.61797487 0.41174058 0
0.72111386 0.33895981 0
0.68324584 0.3531417 0
0.76894562 0.32261088 0
0.811422 0.30975493 0
0.67324302 0.66350381 0
0.71588538 0.6868822 0
0.76624515 0.70733505 0
0.82595383 0.72284042 0
0.88915444 0.73823084 0
0.90642835 0.27571274 0
0.85233076 0.28657759 0
0.82033321 0.29858811 0
1 0.26064321 0
0.65436205 0.36951421 0
0.87141726 0.74728056 0
1 0.77583909 0
0.62145385 0.38867261 0
1 0.79390254 0
0.67540923 0.67650077 0
0.58447792 0.56427202 0
0.57766602 0.53970308 0
0.56985672 0.51390453 0
0.61839083 0.62350211 0
0.58801894 0.58696207 0
0.59323932 0.60512036 0
0.63297225 0.64327107 0
0.56606908 0.48627592 0
0.58331639 0.44575649 0
0.56377949 0.45807018 0
0.59379851 0.42636768 0
0.59488617 0.40753002 0
0.69452883 0.3364696 0
0.73457711 0.32496894 0
0.66143124 0.34887653 0
0.77377319 0.30965613 0
0.63541433 0.65545187 0
0.71815589 0.69963673 0
0.78689642 0.7222453 0
0.84169947 0.27936604 0
0.91213645 0.26833143 0
0.80350437 0.29307423 0
1 0.25301135 0
0.63515405 0.36705956 0
0.86461286 0.76409651 0
0.78057371 0.73187954 0
0.60400417 0.3832229 0
1 0.81969844 0
0.6582496 0.6787637 0
0.56671956 0.57384661 0
0.56276479 0.55152725 0
0.55373304 0.5298885 0
0.54803384 0.50380867 0
0.60001017 0.62577263 0
0.5699214 0.5924511 0
0.54800653 0.47476437 0
0.5695611 0.4320253 0
0.54863479 0.44685325 0
0.57105432 0.41323409 0
0.67578078 0.3312932 0
0.71850317 0.31975619 0
0.63553717 0.35280548 0
0.7520785 0.30498426 0
0.60905452 0.64860842 0
0.70375305 0.70634864 0
0.89719107 0.26358725 0
0.77125882 0.29258409 0
0.80803923 0.2777787 0
1 0.24396634 0
0.83221362 0.77994733 0
0.74066323 0.73435181 0
0.60523927 0.36637747 0
0.57516864 0.3938162 0
1 0.85528418 0
0.63137889 0.67630328 0
1 1 0
0.54685255 0.55409826 0
0.53504387 0.52148649 0
0.53461693 0.48492463 0
0.573221 0.61406713 0
0.54616955 0.57559494 0
0.52918559 0.45812305 0
0.54820195 0.42188723 0
0.65213461 0.33305627 0
0.70853403 0.31137963 0
0.57837662 0.63771722 0
0.65333568 0.70477902 0
0.8734695 0.25891313 0
0.73198152 0.29446813 0
0.7721886 0.27707157 0
1 0.23288826 0
0.70962866 0.74602977 0
0.83109261 0.81210597 0
0.56350467 0.3872801 0
0.60272291 0.35602625 0
1 0.89815891 0
0.58831323 0.66829934 0
0.87144857 0.92060475 0
1 0.94391379 0
0.90838638 1 0
0.52647208 0.54417897 0
0.52121609 0.50058032 0
0.5425383 0.59219141 0
0.51139421 0.46511183 0
0.53057423 0.42363279 0
0.63142551 0.33039891 0
0.6775622 0.31120017 0
0.53907237 0.61702486 0
0.61272632 0.71637918 0
0.85541396 0.25094628 0
0.68812783 0.29715863 0
0.74854264 0.27195903 0
1 0.21729379 0
0.70205442 0.77622895 0
0.82386092 0.85231551 0
0.58219126 0.35522991 0
0.54321619 0.38534387 0
0.5417553 0.65496617 0
0.773476 0.9205349 0
0.73047079 0.85181841 0
0.81485238 1 0
1 0.15722637 0
1 0.19371984 0
1 0.10363746 0
0.50817612 0.50983822 0
0.51126371 0.56010617 0
0.51146667 0.42101056 0
0.48939164 0.46724211 0
0.62311297 0.3208527 0
0.49646604 0.58722555 0
0.54627981 0.70780397 0
0.62982453 0.78676577 0
0.81213171 0.2430868 0
0.67027863 0.28945831 0
0.56999383 0.34659471 0
0.53008967 0.37225963 0
0.48770512 0.63226312 0
0.65699756 0.87734053 0
0.71767433 1 0
0.82578259 0.20711728 0
0.82284691 0.16295604 0
1 0.047960795 0
0.90838638 0 0
0.81485238 0 0
1 0 0
0.49288473 0.51542255 0
0.47001295 0.52253443 0
0.4858526 0.41301145 0
0.45681299 0.4633975 0
0.58363171 0.31976238 0
0.44114773 0.55684532 0
0.50099711 0.74811562 0
0.46014909 0.67386593 0
0.53082183 0.81986905 0
0.67648937 0.26765652 0
0.50814524 0.35826493 0
0.41875148 0.60685134 0
0.57329372 0.90476358 0
0.59378599 1 0
0.67703471 0.22968847 0
0.78147545 0.13677092 0
0.72684497 0.12274008 0
0.65660564 0.11531071 0
0.61736825 0.084599545 0
0.71767433 0 0
0.59378599 0 0
0.41068884 0.49321226 0
0.43523027 0.41282625 0
0.55837715 0.29449768 0
0.36251566 0.57414411 0
0.38309089 0.68440048 0
0.40798666 0.78994879 0
0.4487369 0.89280956 0
0.46131166 0.34814588 0
0.45627324 1 0
0.59558773 0.22806311 0
0.5416832 0.21027997 0
0.49972737 0.17008577 0
0.49822032 0.10562168 0
0.45808079 0.068936802 0
0.45627324 0 0
0.36308018 0.44533991 0
0.32170746 0.50556223 0
0.36393087 0.38288428 0
0.44381065 0.29909156 0
0.27536899 0.57886152 0
0.28803407 0.65757173 0
0.29631436 0.75247522 0
0.31443811 0.87689899 0
0.33061381 1 0
0.41867699 0.25109048 0
0.38002297 0.1924799 0
0.35468316 0.10952008 0
0.33061381 0 0
0.26848287 0.43848898 0
0.22582044 0.53343033 0
0.28732847 0.35189499 0
0.31559444 0.2823712 0
0.20618723 0.67307474 0
0.22871567 0.82574585 0
0.22281199 1 0
0.27014411 0.20235656 0
0.25029896 0.11512152 0
0.22281199 0 0
0 0.3873828 0
0 0.30996981 0
0 0.33291386 0
0 0.35568922 0
0 0.31944827 0
0.19178862 0.45186884 0
0.19537181 0.35822091 0
0.16395945 0.54371458 0
0.21001032 0.26881925 0
0.14719976 0.66064009 0
0.16616196 0.82594702 0
0.1433189 1 0
0.17735564 0.15407421 0
0.1433189 0 0
0.0041951045 0.40271643 0
0 0.41444205 0
0 0.30170702 0
0.0063113155 0.35713746 0
0.0045546102 0.37297184 0
0.14090005 0.42133455 0
0 0.23288826 0
0 0.42981916 0
0 0.26064321 0
0 0.29412275 0
0 0.25301135 0
0 0.28546743 0
0 0.27546032 0
0 0.26741086 0
0 0.24396634 0
0.13775635 0.2804792 0
0.11863784 0.56039585 0
0.11744174 0.76824717 0
0.093009127 1 0
[...]
CELL_DATA 1114
Scalars  Label int 1
LOOKUP_TABLE FreeFempp_table
0
0
0
0
0
0
0
0
0
0
0
0
0
0
0
0
0
0
0
0
0
0
0
0
0
0
0
0
0
0
0
0
0
0
0
0
0
0
0
0
0
0
0
0
0
0
0
0
0
0
0
0
0
0
0
0
0
0
0
0
0
0
0
0
0
0
0
0
0
0
0
0
0
0
0
0
0
0
0
0
0
0
0
0
0
0
0
0
0
0
0
0
0
0
0
0
0
0
0
0
0
0
0
0
0
0
0
0
0
0
0
0
0
0
0
0
0
0
0
0
0
0
0
0
0
0
0
0
0
0
0
0
0
0
0
0
0
0
0
0
0
0
0
0
0
0
0
0
0
0
0
0
0
0
0
0
0
0
0
0
0
0
0
0
0
0
0
0
0
0
0
0
0
0
0
0
0
0
0
0
0
0
0
0
0
0
0
0
0
0
0
0
0
0
0
0
0
0
0
0
0
0
0
0
0
0
0
0
0
0
0
0
0
0
0
0
0
0
0
0
0
0
0
0
0
0
0
0
0
0
0
0
0
0
0
0
0
0
0
0
0
0
0
0
0
0
0
0
0
0
0
0
0
0
0
0
0
0
0
0
0
0
0
0
0
0
0
0
0
0
0
0
0
0
0
0
0
0
0
0
0
0
0
0
0
0
0
0
0
0
0
0
0
0
0
0
0
0
0
0
0
0
0
0
0
0
0
0
0
0
0
0
0
0
0
0
0
0
0
0
0
0
0
0
0
0
0
0
0
0
0
0
0
0
0
0
0
0
0
0
0
0
0
0
0
0
0
0
0
0
0
0
0
0
0
0
0
0
0
0
0
0
0
0
0
0
0
0
0
0
0
0
0
0
0
0
0
0
0
0
0
0
0
0
0
0
0
0
0
0
0
0
0
0
0
0
0
0
0
0
0
0
0
0
0
0
0
0
0
0
0
0
0
0
0
0
0
0
0
0
0
0
0
0
0
0
0
0
0
0
0
0
0
0
0
0
0
0
0
0
0
0
0
0
0
0
0
0
0
0
0
0
0
0
0
0
0
0
0
0
0
0
0
0
0
0
0
0
0
0
0
0
0
0
0
0
0
0
0
0
0
0
0
0
0
0
0
0
0
0
0
0
0
0
0
0
0
0
0
0
0
0
0
0
0
0
0
0
0
0
0
0
0
0
0
0
0
0
0
0
0
0
0
0
0
0
0
0
0
0
0
0
0
0
0
0
0
0
0
0
0
0
0
0
0
0
0
0
0
0
0
0
0
0
0
0
0
0
0
0
0
0
0
0
0
0
0
0
0
0
0
0
0
0
0
0
0
0
0
0
0
0
0
0
0
0
0
0
0
0
0
0
0
0
0
0
0
0
0
0
0
0
0
0
0
0
0
0
0
0
0
0
0
0
0
0
0
0
0
0
0
0
0
0
0
0
0
0
0
0
0
0
0
0
0
0
0
0
0
0
0
0
0
0
0
0
0
0
0
0
0
0
0
0
0
0
0
0
0
0
0
0
0
0
0
0
0
0
0
0
0
0
0
0
0
0
0
0
0
0
0
0
0
0
0
0
0
0
0
0
0
0
0
0
0
0
0
0
0
0
0
0
0
0
0
0
0
0
0
0
0
0
0
0
0
0
0
0
0
0
0
0
0
0
0
0
0
0
0
0
0
0
0
0
0
0
0
0
0
0
0
0
0
0
0
0
0
0
0
0
0
0
0
0
0
0
0
0
0
0
0
0
0
0
0
0
0
0
0
0
0
0
0
0
0
0
0
0
0
0
0
0
0
0
0
0
0
0
0
0
0
0
0
0
0
0
0
0
0
0
0
0
0
0
0
0
0
0
0
0
0
0
0
0
0
0
0
0
0
0
0
0
0
0
0
0
0
0
0
0
0
0
0
0
0
0
0
0
0
0
0
0
0
0
0
0
0
0
0
0
0
0
0
0
0
0
0
0
0
0
0
0
0
0
0
0
0
0
0
0
0
0
0
0
0
0
0
0
0
0
0
0
0
0
0
0
0
0
0
0
0
0
0
0
0
0
0
0
0
0
0
0
0
0
0
0
0
0
0
0
0
0
0
0
0
0
0
0
0
0
0
0
0
0
0
0
0
0
0
0
0
0
0
0
0
0
0
0
0
0
0
0
0
0
0
0
0
0
0
0
0
0
0
0
0
0
0
0
0
0
0
0
0
0
0
0
0
0
0
0
0
0
0
0
0
0
1
1
1
1
1
1
1
1
1
1
1
1
3
3
3
3
3
3
3
3
3
3
3
3
2
2
2
2
2
2
2
2
2
2
2
2
2
2
2
2
2
2
2
2
2
2
2
2
2
2
2
2
2
2
2
2
2
2
2
2
2
2
2
2
2
2
2
2
2
2
2
2
2
2
2
2
2
2
2
2
2
4
4
4
4
4
4
4
4
4
4
4
4
4
4
4
4
4
4
4
4
4
4
4
4
4
4
4
4
4
4
4
4
4
4
4
4
4
4
4
4
4
4
4
4
4
4
4
4
4
4
4
4
4
4
4
4
4

LOOKUP_TABLE FreeFempp_table 5
1.00000000 0.00000000 0.00000000 1.00000000
1.00000000 1.00000000 0.00000000 1.00000000
1.00000000 0.00000000 1.00000000 1.00000000
0.00000000 1.00000000 0.00000000 1.00000000
0.00000000 1.00000000 1.00000000 1.00000000

POINT_DATA 558
FIELD FieldData 1
Density 1 558 float
2.46606842e-02 2.37855706e-02 2.38127336e-02 5.60527928e-02 2.42919941e-02 2.41977442e-02 2.38155145e-02 2.43929662e-02 2.71705598e-01 3.92358676e-02 5.50158918e-02 2.64356136e-02 3.31773907e-02 2.74244174e-02 4.92396280e-02 3.24421883e-01 7.20227778e-01 2.89343029e-01 5.12763560e-01 3.44883233e-01 6.26055896e-02 1.69255331e-01 1.61264703e-01 8.87532905e-02 2.49088079e-01 6.76782429e-01 9.36510026e-01 7.46501744e-01 4.61831093e-01 8.85052323e-01 9.08995569e-01 8.31048965e-01 4.82976288e-01 4.34669346e-01 3.87556493e-01 6.53256953e-01 9.66221452e-01 9.73724723e-01 9.75288212e-01 6.92004859e-01 8.98497403e-01 9.74323511e-01 9.76230204e-01 9.74626362e-01 9.62544322e-01 8.70728433e-01 9.07306731e-01 9.13668752e-01 9.76232529e-01 9.76343691e-01 9.42601919e-01 9.72156465e-01 9.76343334e-01 9.76343632e-01 9.76343691e-01 9.76343751e-01 9.75775123e-01 9.68464196e-01 9.72699344e-01 9.76343453e-01 9.72468495e-01 9.76343334e-01 9.76342559e-01 9.76343393e-01 9.76343393e-01 9.76329625e-01 9.76107717e-01 9.76338565e-01 9.76341844e-01 9.76343095e-01 9.76342797e-01 9.76341724e-01 9.76342261e-01 9.76342738e-01 9.76343036e-01 9.76343155e-01 9.76342618e-01 9.76311266e-01 9.76342559e-01 9.75498736e-01 9.76342499e-01 9.76327658e-01 9.76342499e-01 9.76342738e-01 9.76342440e-01 9.76342142e-01 9.76312637e-01 9.75789011e-01 9.76342618e-01 9.73380089e-01 9.69774127e-01 9.50562239e-01 9.76315737e-01 9.76330459e-01 9.76254880e-01 9.76322412e-01 9.76342618e-01 9.76341605e-01 9.76342618e-01 9.76017892e-01 9.75368619e-01 9.76319253e-01 9.67389047e-01 9.01473701e-01 9.38927531e-01 9.76298809e-01 7.96060443e-01 9.74171937e-01 6.06528342e-01 9.76201177e-01 9.75571513e-01 9.76039052e-01 9.76262689e-01 9.76032138e-01 9.76321101e-01 9.76334214e-01 9.75986302e-01 9.68196869e-01 9.66056406e-01 9.50254381e-01 8.52849185e-01 8.71321321e-01 9.76209342e-01 9.64633822e-01 5.91485381e-01 3.67804170e-01 8.42519462e-01 9.45266426e-01 9.73714650e-01 9.73793447e-01 9.58637893e-01 9.73224163e-01 9.72408116e-01 9.73776042e-01 9.75116313e-01 9.75726426e-01 9.73666787e-01 9.74388957e-01 9.59508896e-01 9.16075826e-01 7.00340033e-01 6.96851015e-01 9.29685473e-01 3.10157925e-01 4.19412702e-01 2.00257346e-01 7.24701941e-01 8.94156754e-01 6.53189957e-01 8.42911422e-01 9.67447817e-01 9.58712578e-01 9.61421549e-01 8.87606144e-01 9.09653306e-01 9.59761918e-01 9.55166817e-01 9.61935520e-01 9.65053618e-01 9.41527665e-01 9.41318512e-01 9.24489260e-01 9.21062589e-01 7.45307624e-01 3.90514016e-01 4.23298091e-01 1.96263328e-01 1.10465840e-01 5.04887640e-01 7.99469769e-01 5.91268599e-01 7.78078258e-01 3.70821595e-01 9.26709712e-01 9.13551927e-01 9.04847503e-01 8.19152713e-01 7.04767108e-01 8.51742268e-01 9.35412705e-01 9.06400859e-01 9.19155717e-01 8.67165923e-01 9.24339831e-01 8.32584977e-01 8.64210248e-01 8.72373760e-01 8.53405714e-01 5.35384119e-01 3.76211613e-01 1.83451176e-01 2.39082232e-01 9.47645232e-02 6.16257414e-02 4.65037823e-01 3.21308792e-01 6.40844882e-01 1.85323462e-01 8.51860106e-01 3.77380736e-02 2.87786406e-02 7.69508719e-01 8.21232975e-01 8.39964509e-01 5.73535860e-01 5.77332079e-01 3.98356378e-01 6.67524099e-01 7.75841713e-01 6.96529627e-01 8.46316636e-01 7.30975926e-01 7.43897140e-01 6.59438550e-01 7.29395390e-01 7.56904840e-01 2.42368996e-01 1.57637015e-01 9.74749550e-02 8.59362558e-02 4.40752730e-02 1.95362642e-01 3.14783275e-01 4.84525561e-01 9.09843221e-02 6.20738328e-01 2.87245326e-02 2.64684130e-02 5.27177393e-01 2.62361690e-02 8.96646082e-02 5.32984436e-01 6.17924571e-01 5.59453607e-01 2.94471025e-01 3.82653594e-01 2.55691111e-01 2.02268958e-01 4.93632525e-01 5.79977810e-01 3.65323395e-01 5.72075903e-01 4.04952914e-01 4.54444408e-01 5.35306096e-01 3.69309932e-01 4.46919501e-01 8.85470733e-02 4.96181510e-02 4.29905206e-02 1.15083486e-01 1.07665777e-01 2.19109446e-01 4.16866317e-02 3.55326980e-01 3.00250426e-02 2.85217762e-02 2.26563230e-01 2.89547034e-02 4.14684564e-02 2.20803142e-01 3.10900450e-01 2.86871493e-01 2.76047409e-01 1.06636524e-01 1.10748053e-01 1.90049216e-01 2.93302983e-01 1.22172639e-01 1.70785710e-01 1.90252751e-01 2.87092656e-01 1.77108258e-01 2.20659316e-01 4.50327322e-02 2.93240286e-02 5.45271672e-02 1.10651694e-01 4.83197458e-02 2.75126752e-02 3.26603167e-02 3.15832086e-02 1.13297664e-01 1.06112458e-01 3.31370868e-02 2.96906047e-02 3.81721742e-02 1.25044554e-01 1.22437686e-01 1.05862908e-01 5.03479615e-02 6.22692555e-02 4.46758047e-02 6.78968579e-02 7.43531361e-02 1.33837044e-01 3.19232307e-02 3.17386352e-02 3.09907813e-02 4.94653694e-02 3.05630490e-02 2.55883187e-02 3.49125192e-02 3.38831097e-02 4.26845104e-02 5.96362650e-02 3.11650969e-02 3.11221797e-02 3.58281359e-02 3.29921171e-02 3.66845727e-02 4.37863991e-02 4.93646860e-02 3.63324769e-02 2.93308962e-02 2.89445445e-02 4.47524488e-02 5.76713197e-02 3.04675791e-02 4.10260372e-02 2.73247920e-02 2.84371991e-02 3.00878696e-02 2.75124833e-02 3.55034992e-02 3.76253277e-02 3.61877456e-02 2.88572740e-02 3.66170406e-02 3.80823873e-02 3.81623507e-02 3.99668962e-02 3.13548706e-02 2.97461320e-02 3.33220661e-02 3.01696621e-02 2.80993264e-02 2.73204874e-02 2.77240574e-02 2.92461906e-02 3.23679671e-02 4.48282212e-02 4.54606786e-02 3.26360799e-02 3.26907970e-02 2.73959357e-02 2.99092904e-02 3.56197841e-02 4.23865132e-02 4.43267114e-02 3.55940275e-02 3.60847600e-02 3.58623564e-02 3.66845727e-02 3.99668962e-02 3.81721742e-02 2.73392834e-02 2.76341997e-02 2.90735587e-02 2.84233112e-02 3.68134081e-02 3.24475765e-02 5.05585968e-02 4.31729481e-02 5.05930930e-02 3.90712731e-02 3.37002985e-02 3.56319547e-02 4.76903766e-02 4.61245775e-02 4.07489464e-02 4.17265035e-02 4.38628532e-02 4.51892503e-02 4.96468954e-02 4.43267114e-02 4.61245775e-02 2.80339606e-02 2.99365241e-02 4.69464846e-02 3.23990621e-02 4.29373942e-02 5.10789491e-02 5.07830791e-02 3.63851637e-02 5.03889024e-02 4.96974103e-02 4.95375767e-02 5.18465564e-02 5.47373258e-02 5.17026298e-02 5.03889024e-02 3.11417002e-02 3.24553028e-02 3.98901030e-02 4.83318195e-02 3.57218161e-02 4.11869399e-02 4.80251759e-02 5.13023958e-02 5.18653281e-02 4.91907969e-02 5.32708652e-02 5.19781597e-02 5.18653281e-02 3.48547585e-02 3.77096795e-02 4.26919013e-02 4.97066267e-02 4.16071080e-02 4.79634963e-02 5.08163013e-02 5.26267514e-02 5.28183617e-02 5.08163013e-02 9.76342618e-01 9.64633822e-01 9.76017892e-01 9.76312637e-01 9.74171937e-01 3.99021022e-02 4.15577926e-02 4.13720049e-02 4.82183322e-02 4.58204523e-02 4.94018905e-02 4.97113541e-02 5.23710214e-02 4.97113541e-02 9.22333896e-01 9.76341844e-01 9.29685473e-01 6.78270698e-01 8.58088553e-01 4.67236936e-02 2.55883187e-02 9.72699344e-01 9.09843221e-02 8.42911422e-01 4.16866317e-02 6.53189957e-01 3.70821595e-01 1.85323462e-01 2.75126752e-02 5.12976684e-02 4.68077809e-02 5.00002988e-02 4.82634008e-02 4.96875085e-02 4.82634008e-02 4.80011284e-01 8.74546647e-01 3.42565477e-01 1.86105937e-01 5.00192456e-02 2.75124833e-02 4.63652536e-02 9.13668752e-01 8.80610347e-02 3.13548706e-02 6.53256953e-01 4.11246605e-02 2.97461320e-02 4.59781401e-02 4.95170429e-02 4.88785245e-02 4.77255397e-02 4.59781401e-02 1.92639321e-01 5.56856766e-02 4.26059872e-01 2.75068078e-02 2.96168216e-02 3.33220661e-02 3.16453576e-02 2.49088079e-01 4.46357168e-02 3.81721742e-02 3.58623564e-02 3.81721742e-02 4.11246605e-02 4.22496051e-02 2.83771884e-02 4.08072695e-02 4.14517447e-02 4.48277183e-02 4.63145263e-02 4.69622724e-02 2.79597007e-02 3.87932025e-02 4.92396280e-02 3.29921171e-02 3.24725024e-02 3.73233594e-02 2.88295615e-02 3.11650969e-02 3.40363421e-02 3.51728760e-02 2.38155145e-02 2.69594118e-02 2.69555077e-02 3.26782726e-02 3.12253293e-02 2.83954684e-02 3.31370868e-02 2.89547034e-02 3.01613733e-02 2.40529366e-02 2.38127336e-02 2.54179128e-02 2.77271289e-02 2.88250782e-02 2.74035484e-02 2.62361690e-02 2.64684130e-02 1.10465840e-01 3.77380736e-02 6.16257414e-02 2.00257346e-01 2.87786406e-02 2.58526057e-02 2.43673343e-02 2.37855706e-02 2.53996123e-02 2.73458157e-02 3.11184209e-02 8.92042220e-02 3.67804170e-01 9.01473701e-01 6.06528342e-01 7.96060443e-01 2.46606842e-02 6.12611026e-02 4.56127487e-02 2.86219399e-02 2.79439427e-02 3.98394734e-01 9.50562239e-01 5.60527928e-02 7.20227778e-01 9.69774127e-01 2.71705598e-01 3.27630281e-01 4.07809705e-01 1.76026911e-01 2.75021732e-01 7.28082418e-01 9.36510026e-01 9.75498736e-01 6.36840701e-01 9.04324472e-01 9.07352269e-01 9.73724723e-01 9.76311266e-01 9.56612170e-01 9.76343691e-01 9.76343095e-01 9.76343453e-01 
