# vtk DataFile Version 2.0
results_case1/1616747557/sol_toll1e-05_vf0.3_iter1.vtk, Created by Freefem++ 
ASCII
DATASET UNSTRUCTURED_GRID
POINTS 492 float
0 0.75306334 0
0 0.25060676 0
0 0.18863515 0
0 0.82643066 0
0 0.64506312 0
0 0.69320435 0
0 0.61330773 0
0.0098773785 0.7265443 0
0 0.11442872 0
0 0.14396898 0
0 0.59423321 0
0 0.31028559 0
0 0.39139073 0
0 0.35730306 0
0.0094530298 0.28771932 0
0.010181517 0.20848684 0
0 0.87319339 0
0.011224777 0.81433586 0
0.012943484 0.61224681 0
0.019176745 0.75684695 0
0.012595661 0.65104137 0
0.019893064 0.69019022 0
0 0.071258959 0
0 0.090628756 0
0 0.057561024 0
0.012186164 0.1404334 0
0 0.55097848 0
0 0.53911309 0
0 0.58163234 0
0 0.56200621 0
0 0.57170742 0
0.016386351 0.59263255 0
0 0.41184076 0
0.013431955 0.34595151 0
0.013687619 0.39321077 0
0.018853972 0.26342263 0
0 0.43059878 0
0 0.43776008 0
0 0.42334617 0
0 0.46176871 0
0 0.44869006 0
0 0.47381415 0
0 0.48937525 0
0 0.9029682 0
0.013001952 0.88191846 0
0.022951928 0.82049485 0
0.022828225 0.62091559 0
0.027303925 0.7268652 0
0.025920921 0.65802519 0
0 0.015497474 0
0.014555886 0.07647287 0
0 0.041405718 0
0 0 0
0 0.02965279 0
0.025283404 0.1007335 0
0.02266187 0.17496953 0
0.013799672 0.555624 0
0 0.52757871 0
0 0.51137051 0
0.018107182 0.57322894 0
0.026953012 0.59142494 0
0.017092534 0.42549318 0
0.025004494 0.40794848 0
0.023347173 0.35622924 0
0.027856322 0.29185515 0
0.017931839 0.44875535 0
0.0152159 0.46309596 0
0.01554112 0.50236324 0
0.019560506 0.47797599 0
0 0.92501045 0
0.023942946 0.89234089 0
0.017308642 0.93685714 0
0.030690327 0.80702724 0
0.031335285 0.62188734 0
0.033040766 0.67956874 0
0.02348741 0 0
0.020561073 0.033858806 0
0.033323403 0.082604592 0
0.031581077 0.18999964 0
0.022727991 0.5521094 0
0.01980998 0.52913677 0
0.031591445 0.567295 0
0.034841961 0.58806968 0
0.0367266 0.25088611 0
0.028843137 0.43562731 0
0.031745834 0.38872672 0
0.034174691 0.32568048 0
0.030389905 0.46646868 0
0.028274641 0.50504933 0
0.035919889 0.73813866 0
0 0.93956139 0
0.019836162 0.96830544 0
0.030941379 0.91091423 0
0.034332788 0.96393766 0
0.037513026 0.84024849 0
0.039794746 0.66213803 0
0.038556634 0.6181042 0
0.083672632 0 0
0.049686236 0 0
0.049056296 0.079753175 0
0.043005651 0.036125189 0
0.040887275 0.1540048 0
0.035122101 0.54053592 0
0.042380126 0.58314164 0
0.041995685 0.24703758 0
0.040988482 0.34722534 0
0.037164654 0.44090595 0
0.038655354 0.39823759 0
0.038964193 0.48947896 0
0.041809298 0.74662989 0
0 0.9560711 0
0.016360545 0.98325439 0
0.02348741 1 0
0.049686236 1 0
0.042150944 0.90825175 0
0.051233503 0.94794617 0
0.047536668 0.83076851 0
0.13538558 0 0
0.21201504 0 0
0.048156681 0.6540514 0
0.053125718 0.13059316 0
0.066146712 0.080019959 0
0.078752103 0.03628367 0
0.050220435 0.21743996 0
0.061179015 0.16960961 0
0.048383426 0.54120553 0
0.053249831 0.59838573 0
0.04828615 0.32971539 0
0.058938495 0.28978419 0
0.051781 0.49000089 0
0.047326286 0.42459936 0
0.049193065 0.74138326 0
0 1 0
0 0.9696864 0
0.013467974 0.99606116 0
0.083672632 1 0
0.061522032 0.71150929 0
0.060844191 0.79067883 0
0.071018881 0.96634594 0
0.055550309 0.89079189 0
0.067856206 0.92782162 0
0.067494954 0.85848267 0
1 0 0
0.32337119 0 0
0.69128611 0 0
0.8557111 0.0078192437 0
0.13143825 0.035237912 0
0.19046843 0.020448388 0
0.27586314 0.016938472 0
0.39557729 0.01437059 0
0.066710518 0.64602205 0
0.076140567 0.11679264 0
0.094777644 0.068779351 0
0.069310298 0.22752027 0
0.085049552 0.16441278 0
0.13666113 0.068096529 0
0.06524947 0.54945101 0
0.077401584 0.29664533 0
0.060983931 0.37037049 0
0.064260492 0.44737881 0
0 0.98486461 0
0.10185934 0.97111651 0
0.13538558 1 0
0.08415364 0.80495591 0
0.083579027 0.73433003 0
0.10346534 0.85498119 0
0.096092176 0.94084489 0
0.089556868 0.90340952 0
1 0.015497474 0
0.47294893 0 0
0.75047702 0.015510205 0
0.20023631 0.041103573 0
0.3149445 0.032178573 0
0.53938296 0.01998367 0
0.44338581 0.031926514 0
0.19534644 0.067650979 0
0.086423498 0.63126871 0
0.11439704 0.11187196 0
0.11769961 0.16133535 0
0.095662528 0.22058762 0
0.16896133 0.09962529 0
0.10323047 0.27770948 0
0.082660888 0.49891166 0
0.087776616 0.36782789 0
0.098736404 0.41918272 0
0.14454218 0.96727185 0
0.21201504 1 0
0.10687296 0.72196345 0
0.12102478 0.80142329 0
0.13308342 0.89949667 0
0.14995939 0.86198925 0
0.14304259 0.93660361 0
1 0.02965279 0
0.71414441 0.024831133 0
0.2581052 0.054525047 0
0.36391438 0.049205952 0
0.60445494 0.035833985 0
0.48284949 0.047803456 0
0.23583075 0.086930114 0
0.12816914 0.68828715 0
0.10369162 0.58262589 0
0.15808148 0.14453966 0
0.13426094 0.20680008 0
0.20624193 0.12990391 0
0.13354582 0.28296916 0
0.11881452 0.48663007 0
0.13027799 0.36310165 0
0.18047118 0.92053227 0
0.22155609 0.98358969 0
0.21283259 0.96437033 0
0.32337119 1 0
0.15281535 0.77401174 0
0.17701551 0.83926463 0
0.20459495 0.89635562 0
0.23692866 0.93881363 0
1 0.041405718 0
0.78747996 0.039822495 0
0.314608 0.070652136 0
0.4281844 0.064043348 0
0.59378923 0.053126158 0
0.23608829 0.14464518 0
0.28356896 0.099827988 0
0.18817084 0.72048447 0
0.14625888 0.61822968 0
0.1830869 0.20389541 0
0.16132368 0.53050777 0
0.18001425 0.29813773 0
0.16155128 0.41444506 0
0.28944548 0.96881059 0
0.47294893 1 0
0.38713653 0.98233827 0
0.23557123 0.87325601 0
0.21647018 0.81642814 0
0.28731784 0.91786332 0
0.34605102 0.95106124 0
0.24494515 0.77451542 0
1 0.057561024 0
0.76841123 0.056033915 0
0.39597689 0.081927156 0
0.54596098 0.071409797 0
0.29891549 0.12337815 0
0.26525956 0.17395791 0
0.36811292 0.10359757 0
1 0.071258959 0
0.2689809 0.72403576 0
0.20926819 0.63041299 0
0.2344045 0.2395356 0
0.23772102 0.30185947 0
0.2004841 0.51151707 0
0.20746815 0.38608181 0
0.43560626 0.96537055 0
0.30539083 0.90195067 0
0.69128611 1 0
0.5983817 0.9897327 0
0.55098049 0.97835508 0
0.30204113 0.87341044 0
0.2938335 0.8329674 0
0.38901132 0.93302843 0
0.4944111 0.95035797 0
0.34072467 0.80596919 0
0.34783551 0.7597716 0
0.31092427 0.20338266 0
0.71884095 0.075132927 0
0.49276889 0.098234235 0
0.36792284 0.13999696 0
1 0.090628756 0
0.7979677 0.088130973 0
0.33717634 0.70331949 0
0.27925438 0.65783785 0
0.24669541 0.58240802 0
0.30017844 0.26452101 0
0.31171036 0.3129867 0
0.26568382 0.34678471 0
0.23977902 0.49345531 0
0.28247136 0.40513784 0
0.24128891 0.4249452 0
0.56330283 0.96565391 0
0.3858087 0.91265724 0
1 1 0
0.81072305 0.99063443 0
0.78150942 0.97696734 0
0.68590986 0.96206068 0
0.6189389 0.94803527 0
0.38713106 0.87472226 0
0.42859988 0.85005482 0
0.52927566 0.93251977 0
0.40695483 0.74497179 0
0.42968151 0.8057941 0
0.42059923 0.6893425 0
0.37640108 0.2263472 0
0.39630261 0.17201766 0
0.619379 0.10273306 0
0.4946835 0.1373807 0
1 0.11442872 0
0.78638669 0.11223122 0
0.44761853 0.23489277 0
0.41315734 0.26691773 0
0.36891102 0.64773074 0
0.31300539 0.60930224 0
0.28961305 0.54001008 0
0.34644994 0.57116992 0
0.36374915 0.29665823 0
0.33852721 0.36533072 0
0.34017384 0.42871537 0
0.30349206 0.47597667 0
0.45918417 0.91047082 0
1 0.98486461 0
1 0.9696864 0
0.85327942 0.96249707 0
0.76706157 0.94582827 0
0.5855443 0.91961757 0
0.50938628 0.89223162 0
0.52275682 0.86142484 0
0.73904736 0.92744454 0
0.52366298 0.82342523 0
0.4772833 0.72994079 0
0.47431592 0.77687828 0
0.50954578 0.67883438 0
0.47159977 0.63514415 0
0.47260338 0.18820847 0
0.61562073 0.13418607 0
0.56825696 0.16955843 0
0.71819475 0.13793925 0
1 0.14396898 0
0.8203712 0.14270855 0
0.89770561 0.13247944 0
0.50793977 0.24149318 0
0.4936232 0.29634148 0
0.43281142 0.31570388 0
0.41928622 0.59090025 0
0.38544592 0.52902421 0
0.41669954 0.36452676 0
0.41795989 0.41917275 0
0.40132108 0.47257145 0
1 0.9560711 0
1 0.93956139 0
0.62240941 0.87299231 0
0.64394103 0.90265258 0
1 0.92501045 0
0.79429361 0.90311485 0
0.60100171 0.83010027 0
0.54896107 0.72152256 0
0.54767357 0.773125 0
0.59741911 0.68329334 0
0.56591435 0.6312468 0
0.51592494 0.58999523 0
0.56449544 0.21983559 0
1 0.18863515 0
0.687436 0.17046851 0
0.64043401 0.20387402 0
0.80525315 0.17623925 0
0.78757951 0.20900391 0
0.91383977 0.18119559 0
0.57856135 0.29394072 0
0.56361883 0.35420067 0
0.50446575 0.36681687 0
0.48063864 0.50430053 0
0.51638946 0.54388411 0
0.52172467 0.42256304 0
0.51624478 0.46563275 0
0.69810538 0.87026667 0
1 0.9029682 0
0.81017713 0.87344607 0
0.62118879 0.78954014 0
0.69842993 0.829692 0
0.63032171 0.73200204 0
0.63890959 0.63846078 0
0.67898726 0.66739162 0
0.64812344 0.59712426 0
0.59908271 0.57411748 0
0.65680714 0.26487623 0
0.65098375 0.32197606 0
1 0.25060676 0
0.82511254 0.26237492 0
0.73352064 0.23405122 0
0.89979701 0.24762038 0
0.63386938 0.37176201 0
0.60537553 0.41566082 0
0.63746934 0.53556643 0
0.59233253 0.50352291 0
0.63555318 0.46824067 0
1 0.87319339 0
0.89850518 0.86046674 0
0.81185944 0.82876681 0
0.74966244 0.79823144 0
0.6941921 0.7664774 0
0.72228125 0.70147502 0
0.74571192 0.64255729 0
0.72255919 0.60498524 0
0.70832303 0.55763285 0
0.73851696 0.29241518 0
0.71764977 0.33672237 0
0.70223715 0.38515131 0
1 0.31028559 0
0.87793897 0.29997027 0
0.81028688 0.30737964 0
0.93681744 0.32216854 0
0.69336041 0.43451638 0
0.70848085 0.51037452 0
0.73075034 0.47799406 0
1 0.82643066 0
0.9146241 0.80333423 0
0.81632068 0.76915739 0
0.86863679 0.7677279 0
0.77637465 0.72944992 0
0.79741476 0.66562495 0
0.78070633 0.5340255 0
0.81084475 0.60659717 0
0.79081034 0.56979973 0
0.78869049 0.34985604 0
0.75774703 0.42718675 0
0.77101514 0.39193019 0
1 0.35730306 0
0.88762681 0.34675176 0
0.85281396 0.36726563 0
0.95457544 0.36814205 0
0.7795071 0.45985607 0
0.79470465 0.49603086 0
1 0.75306334 0
0.92674501 0.72809659 0
0.85194088 0.70257977 0
0.85939184 0.63998954 0
0.82749773 0.5220582 0
0.84200141 0.55018424 0
0.88544386 0.60025437 0
0.86315467 0.5770652 0
0.83106269 0.39749006 0
0.81975885 0.43181189 0
1 0.41184076 0
0.89014215 0.39889546 0
1 0.39139073 0
0.92660458 0.38715438 0
0.84076628 0.49621851 0
0.83279183 0.46448817 0
1 0.69320435 0
0.92940743 0.6274242 0
0.92048043 0.67068183 0
0.94151767 0.59938745 0
0.86444597 0.50407799 0
0.86648379 0.53295409 0
[...]
CELL_DATA 982
Scalars  Label int 1
LOOKUP_TABLE FreeFempp_table
0
0
0
0
0
0
0
0
0
0
0
0
0
0
0
0
0
0
0
0
0
0
0
0
0
0
0
0
0
0
0
0
0
0
0
0
0
0
0
0
0
0
0
0
0
0
0
0
0
0
0
0
0
0
0
0
0
0
0
0
0
0
0
0
0
0
0
0
0
0
0
0
0
0
0
0
0
0
0
0
0
0
0
0
0
0
0
0
0
0
0
0
0
0
0
0
0
0
0
0
0
0
0
0
0
0
0
0
0
0
0
0
0
0
0
0
0
0
0
0
0
0
0
0
0
0
0
0
0
0
0
0
0
0
0
0
0
0
0
0
0
0
0
0
0
0
0
0
0
0
0
0
0
0
0
0
0
0
0
0
0
0
0
0
0
0
0
0
0
0
0
0
0
0
0
0
0
0
0
0
0
0
0
0
0
0
0
0
0
0
0
0
0
0
0
0
0
0
0
0
0
0
0
0
0
0
0
0
0
0
0
0
0
0
0
0
0
0
0
0
0
0
0
0
0
0
0
0
0
0
0
0
0
0
0
0
0
0
0
0
0
0
0
0
0
0
0
0
0
0
0
0
0
0
0
0
0
0
0
0
0
0
0
0
0
0
0
0
0
0
0
0
0
0
0
0
0
0
0
0
0
0
0
0
0
0
0
0
0
0
0
0
0
0
0
0
0
0
0
0
0
0
0
0
0
0
0
0
0
0
0
0
0
0
0
0
0
0
0
0
0
0
0
0
0
0
0
0
0
0
0
0
0
0
0
0
0
0
0
0
0
0
0
0
0
0
0
0
0
0
0
0
0
0
0
0
0
0
0
0
0
0
0
0
0
0
0
0
0
0
0
0
0
0
0
0
0
0
0
0
0
0
0
0
0
0
0
0
0
0
0
0
0
0
0
0
0
0
0
0
0
0
0
0
0
0
0
0
0
0
0
0
0
0
0
0
0
0
0
0
0
0
0
0
0
0
0
0
0
0
0
0
0
0
0
0
0
0
0
0
0
0
0
0
0
0
0
0
0
0
0
0
0
0
0
0
0
0
0
0
0
0
0
0
0
0
0
0
0
0
0
0
0
0
0
0
0
0
0
0
0
0
0
0
0
0
0
0
0
0
0
0
0
0
0
0
0
0
0
0
0
0
0
0
0
0
0
0
0
0
0
0
0
0
0
0
0
0
0
0
0
0
0
0
0
0
0
0
0
0
0
0
0
0
0
0
0
0
0
0
0
0
0
0
0
0
0
0
0
0
0
0
0
0
0
0
0
0
0
0
0
0
0
0
0
0
0
0
0
0
0
0
0
0
0
0
0
0
0
0
0
0
0
0
0
0
0
0
0
0
0
0
0
0
0
0
0
0
0
0
0
0
0
0
0
0
0
0
0
0
0
0
0
0
0
0
0
0
0
0
0
0
0
0
0
0
0
0
0
0
0
0
0
0
0
0
0
0
0
0
0
0
0
0
0
0
0
0
0
0
0
0
0
0
0
0
0
0
0
0
0
0
0
0
0
0
0
0
0
0
0
0
0
0
0
0
0
0
0
0
0
0
0
0
0
0
0
0
0
0
0
0
0
0
0
0
0
0
0
0
0
0
0
0
0
0
0
0
0
0
0
0
0
0
0
0
0
0
0
0
0
0
0
0
0
0
0
0
0
0
0
0
0
0
0
0
0
0
0
0
0
0
0
0
0
0
0
0
0
0
0
0
0
0
0
0
0
0
0
0
0
0
0
0
0
0
0
0
0
0
0
0
0
0
0
0
0
0
0
0
0
0
0
0
0
0
0
0
0
0
0
0
0
0
0
0
0
0
0
0
0
0
0
0
0
0
0
0
0
0
0
0
0
0
0
0
0
0
0
0
0
0
0
0
0
0
0
0
0
0
0
0
0
0
0
0
0
0
0
0
0
0
0
0
0
0
0
0
0
0
0
0
0
0
0
0
0
0
0
0
0
0
0
0
0
0
0
0
0
0
0
0
0
0
0
0
0
0
0
0
1
1
1
1
1
1
1
1
1
3
3
3
3
3
3
3
3
3
2
2
2
2
2
2
2
2
2
2
2
2
2
2
2
2
2
2
2
2
2
2
2
2
2
2
2
2
2
2
2
2
2
2
2
2
2
2
2
2
2
2
4
4
4
4
4
4
4
4
4
4
4
4
4
4
4
4
4
4
4
4
4
4
4
4
4
4
4
4
4
4
4
4
4
4
4
4
4
4
4
4
4
4

LOOKUP_TABLE FreeFempp_table 5
1.00000000 0.00000000 0.00000000 1.00000000
1.00000000 1.00000000 0.00000000 1.00000000
1.00000000 0.00000000 1.00000000 1.00000000
0.00000000 1.00000000 0.00000000 1.00000000
0.00000000 1.00000000 1.00000000 1.00000000

POINT_DATA 492
FIELD FieldData 1
Density 1 492 float
4.41742539e-01 4.47740972e-01 3.45230669e-01 3.20531309e-01 6.42974794e-01 5.45345366e-01 7.13473976e-01 3.57615829e-01 2.38819018e-01 2.75439978e-01 7.50044107e-01 5.51329315e-01 7.24079788e-01 6.47902966e-01 3.73336285e-01 2.66714931e-01 2.53029287e-01 2.42371127e-01 4.77920562e-01 2.14591578e-01 4.28648561e-01 2.70379990e-01 2.09242970e-01 2.18485937e-01 1.96428001e-01 1.76089689e-01 5.21132827e-01 3.23808640e-01 7.64665127e-01 6.85849547e-01 7.75596917e-01 4.25648302e-01 7.57119119e-01 3.88471425e-01 4.56174731e-01 2.24543571e-01 7.78839171e-01 7.04901755e-01 7.70441353e-01 3.18117350e-01 5.25263309e-01 2.25860804e-01 2.28345826e-01 2.22504199e-01 1.63932770e-01 1.29166752e-01 2.82894909e-01 1.35747939e-01 1.96409270e-01 9.50409174e-02 1.32120311e-01 1.77581012e-01 3.16130146e-02 1.53062612e-01 7.04818144e-02 1.19781718e-01 3.05665553e-01 2.32724115e-01 2.29240224e-01 3.86370540e-01 2.11885601e-01 4.12897259e-01 2.37142339e-01 2.30582222e-01 1.28007889e-01 3.87283295e-01 2.01964498e-01 1.60684809e-01 1.41484752e-01 2.11017847e-01 8.81873742e-02 1.14985093e-01 6.02509566e-02 1.16329752e-01 6.93687499e-02 3.15805301e-02 7.00321048e-02 3.04434150e-02 4.83763218e-02 1.27123117e-01 1.41259909e-01 1.16216607e-01 8.38565603e-02 6.21521398e-02 1.72520578e-01 1.01708993e-01 6.94520921e-02 1.06931515e-01 1.04269408e-01 5.83402142e-02 1.99777007e-01 8.87009874e-02 3.78593467e-02 3.16215456e-02 3.38701494e-02 8.41004923e-02 8.76843333e-02 3.16158757e-02 3.16115990e-02 2.86170468e-02 3.00213005e-02 3.95906083e-02 8.59116986e-02 1.01546958e-01 6.79291934e-02 8.85072425e-02 9.30846259e-02 9.33836699e-02 9.69827697e-02 6.85155913e-02 1.80504873e-01 7.67188966e-02 3.15805301e-02 3.16115990e-02 2.59430613e-02 2.89179552e-02 5.11319228e-02 3.16253304e-02 3.16610970e-02 1.06512450e-01 4.64590043e-02 3.20689827e-02 2.92982236e-02 7.62503669e-02 7.38762617e-02 1.19913585e-01 1.27898470e-01 1.03782356e-01 1.20881878e-01 1.29631072e-01 1.14952609e-01 8.65404308e-02 3.16130146e-02 1.55750498e-01 4.76864465e-02 3.16158757e-02 1.25205383e-01 9.35472921e-02 2.86625735e-02 3.64994779e-02 2.90594753e-02 6.71195686e-02 3.16130146e-02 3.17614265e-02 3.16830091e-02 6.22911230e-02 2.93623749e-02 3.75799611e-02 5.00748195e-02 6.25318959e-02 1.54640138e-01 5.89707457e-02 3.89603116e-02 1.19306192e-01 1.08359516e-01 6.67604655e-02 1.62941486e-01 1.53384864e-01 1.42617330e-01 1.60019502e-01 9.35441852e-02 2.36230884e-02 3.16253304e-02 1.24701798e-01 1.54760614e-01 1.17826544e-01 3.34216133e-02 5.75826615e-02 9.50409174e-02 3.17747146e-02 9.09411535e-02 5.45898043e-02 7.56537244e-02 9.26910937e-02 1.08404510e-01 1.05179258e-01 1.79641768e-01 9.95876044e-02 1.43467024e-01 1.51251346e-01 1.35256514e-01 1.82551280e-01 1.82834923e-01 1.80560291e-01 1.95710376e-01 2.73697246e-02 3.16610970e-02 1.83375567e-01 1.71130732e-01 1.05979338e-01 1.57989785e-01 6.31018952e-02 1.53062612e-01 1.24646209e-01 1.07984267e-01 1.31374419e-01 1.45571128e-01 1.52497634e-01 1.54175252e-01 1.99307621e-01 1.97672978e-01 1.68578431e-01 1.84173718e-01 1.80253521e-01 1.98465839e-01 2.03556404e-01 2.03584313e-01 1.13488294e-01 3.52431461e-02 4.90123965e-02 3.17614265e-02 1.97493628e-01 1.87941328e-01 1.63085297e-01 1.14548214e-01 1.77581012e-01 1.69329703e-01 1.63527623e-01 1.81634277e-01 1.75413117e-01 1.98013708e-01 1.85796380e-01 2.08158955e-01 2.07356408e-01 2.01051235e-01 2.11010709e-01 2.08881408e-01 2.10464939e-01 6.56850189e-02 3.17747146e-02 6.46720976e-02 1.91275060e-01 2.03811079e-01 1.67627215e-01 1.26000687e-01 2.10910961e-01 1.96428001e-01 1.90666541e-01 1.90639347e-01 2.00703040e-01 2.00541899e-01 2.07387134e-01 2.02229679e-01 2.09242970e-01 2.24034533e-01 2.20092043e-01 2.10960940e-01 2.20393240e-01 2.23375335e-01 2.20983893e-01 1.14103779e-01 1.90411463e-01 3.16830091e-02 6.48300648e-02 9.75126699e-02 2.02816129e-01 2.08429232e-01 1.75807983e-01 1.58849269e-01 2.18154505e-01 2.38359660e-01 2.17563242e-01 2.07820356e-01 2.06947863e-01 2.10032642e-01 2.18485937e-01 2.13866144e-01 2.58527219e-01 2.45478854e-01 2.41483241e-01 2.31248021e-01 2.53931820e-01 2.39197642e-01 2.42835566e-01 2.61551470e-01 2.39993006e-01 1.37835681e-01 1.92001119e-01 3.16130146e-02 6.78955913e-02 1.20136581e-01 1.59184217e-01 1.74966246e-01 2.07973242e-01 2.17677385e-01 1.97751924e-01 2.70303249e-01 2.38631785e-01 3.13795447e-01 2.41942346e-01 2.21536264e-01 2.14210525e-01 2.20249310e-01 2.38819018e-01 2.29275838e-01 2.73155063e-01 2.78351396e-01 3.02769184e-01 2.78194159e-01 2.74062663e-01 3.12091708e-01 2.72630453e-01 2.88496077e-01 3.07079822e-01 2.85533011e-01 2.02016339e-01 9.35441852e-02 1.55750498e-01 1.68053612e-01 1.88334927e-01 2.04530463e-01 2.10464716e-01 2.22886384e-01 2.07396239e-01 2.50155926e-01 3.17235917e-01 2.75109410e-01 3.75601470e-01 3.81535053e-01 2.46708095e-01 2.31568232e-01 2.54450679e-01 2.47124791e-01 2.75439978e-01 2.65089661e-01 2.52943665e-01 3.04695934e-01 3.47167820e-01 3.24345171e-01 3.62608910e-01 3.49983364e-01 3.41921121e-01 3.64898205e-01 3.63421321e-01 1.80504873e-01 1.99777007e-01 2.27461532e-01 2.12216064e-01 2.11017847e-01 2.18098968e-01 2.62202740e-01 3.59129876e-01 3.06320071e-01 4.23688233e-01 4.49693501e-01 4.37813848e-01 3.06123644e-01 3.45230669e-01 2.81485438e-01 3.11229855e-01 3.10129791e-01 3.54652196e-01 3.26922655e-01 3.90742302e-01 4.36682194e-01 4.05147910e-01 4.30175930e-01 4.53810304e-01 4.47218001e-01 4.56076682e-01 2.37063542e-01 2.22504199e-01 2.44866014e-01 3.13775808e-01 2.83274293e-01 3.87404352e-01 4.92026269e-01 4.85036582e-01 5.34037709e-01 5.09551346e-01 3.94117057e-01 4.58903968e-01 4.47740972e-01 4.44774657e-01 3.79245371e-01 4.35685605e-01 4.97473925e-01 5.09029567e-01 5.60995519e-01 5.23643136e-01 5.58489203e-01 2.53029287e-01 2.65787601e-01 3.03489923e-01 3.37270170e-01 3.67247492e-01 4.63805676e-01 5.51978767e-01 5.84527910e-01 6.15490556e-01 4.62293416e-01 5.09990692e-01 5.57258010e-01 5.51329315e-01 5.16282439e-01 5.08839130e-01 5.64942241e-01 5.96646488e-01 6.37989998e-01 6.59634888e-01 3.20531309e-01 3.54828715e-01 3.94368559e-01 4.06946838e-01 4.44635510e-01 5.46443582e-01 7.07784653e-01 6.49609864e-01 6.86199486e-01 5.64861000e-01 6.51880860e-01 6.17496371e-01 6.47902966e-01 6.03700340e-01 6.27896786e-01 6.63386047e-01 7.03492522e-01 7.34449565e-01 4.41742539e-01 4.78718340e-01 5.05870402e-01 6.18115008e-01 7.59697258e-01 7.51564860e-01 7.08559215e-01 7.34603584e-01 6.70101762e-01 7.14992166e-01 7.57119119e-01 7.09072113e-01 7.24079788e-01 7.01120257e-01 7.72361696e-01 7.59306967e-01 5.45345366e-01 6.69297338e-01 5.77482939e-01 7.33093083e-01 7.81756520e-01 7.80947030e-01 7.69982755e-01 7.61019051e-01 7.34767914e-01 7.59502053e-01 7.70441353e-01 7.53202796e-01 7.80333817e-01 7.13473976e-01 6.42974794e-01 7.50044107e-01 7.64665127e-01 7.39063203e-01 7.75596082e-01 7.71978796e-01 7.59382546e-01 7.78839171e-01 7.69314587e-01 7.63812244e-01 7.79672623e-01 7.42527723e-01 7.75596917e-01 7.24293053e-01 6.37114286e-01 7.01330304e-01 6.95400298e-01 7.04901755e-01 7.39646494e-01 6.98890865e-01 7.01429307e-01 6.04119301e-01 6.85849547e-01 5.87019384e-01 4.28345323e-01 5.59352815e-01 5.54393709e-01 5.25263309e-01 5.99295974e-01 5.68228781e-01 5.06160021e-01 5.21132827e-01 4.31752622e-01 4.19792324e-01 3.23808640e-01 4.06574160e-01 3.74837041e-01 3.18117350e-01 4.23090279e-01 3.60076576e-01 2.29240224e-01 2.32724115e-01 2.28345826e-01 2.25860804e-01 
