# vtk DataFile Version 2.0
results_case1/1616747557/sol_toll1e-05_vf0.3_iter10.vtk, Created by Freefem++ 
ASCII
DATASET UNSTRUCTURED_GRID
POINTS 529 float
0 0.34462627 0
0 0.32715115 0
0 0.37246817 0
0 0.40417011 0
0.0038599063 0.36926437 0
0 0.67134359 0
0 0.65295899 0
0 0.62496561 0
0 0.59607767 0
0 0.69305748 0
0 0.68362431 0
0 0.31641079 0
0 0.425197 0
0.0034089218 0.40490915 0
0 0.44475635 0
0 0.45218284 0
0 0.43712069 0
0.006683902 0.39752944 0
0.0061579697 0.35785862 0
0.0036250975 0.63166363 0
0.0034540638 0.59630827 0
0 0.5769098 0
0 0.71399627 0
0 0.72188731 0
0 0.70699137 0
0 0.70048927 0
0.0051517444 0.65351073 0
0 0.74422386 0
0 0.73594763 0
0 0.75424276 0
0 0.72943238 0
0 0.30919555 0
0 0.30192496 0
0.0058197285 0.42472217 0
0 0.4608887 0
0.0064258982 0.44028761 0
0.0072662329 0.3383528 0
0.010111178 0.40377907 0
0.011530859 0.38240919 0
0.0079928275 0.60461642 0
0.0050697093 0.57713827 0
0 0.5513346 0
0 0.55853741 0
0 0.56590621 0
0.0063402421 0.67450672 0
0.010728113 0.62669272 0
0 0.76650445 0
0.0076176007 0.69073629 0
0 0.78499202 0
0 0.2780256 0
0 0.29451541 0
0 0.28703919 0
0 0.26994042 0
0.0082127084 0.32648919 0
0 0.47376728 0
0.011632712 0.42814155 0
0.0090270453 0.44995336 0
0.013859326 0.37401041 0
0.015067691 0.41014421 0
0.013150737 0.59106726 0
0 0.49396864 0
0 0.54471032 0
0.010734553 0.57410137 0
0 0.5307768 0
0.0060590007 0.56137127 0
0 0.53890426 0
0 0.5162762 0
0.012690974 0.64341747 0
0.015829676 0.60182155 0
0.010311227 0.69923319 0
0 0.81284898 0
0 0.25391092 0
0 0.26245231 0
0 0.24461205 0
0.0092135753 0.31014732 0
0.010775928 0.46552165 0
0.016096294 0.43800095 0
0.016433695 0.36297382 0
0.019499999 0.41093393 0
0.013663785 0.48802151 0
0.01596726 0.56940039 0
0.011407016 0.52225957 0
0.0097688972 0.54949915 0
0.016883814 0.63715343 0
0.019953252 0.59152896 0
0.013423945 0.71818212 0
0 0.85286448 0
0 0.23312779 0
0 0.21706686 0
0.011347689 0.28539036 0
0.021081943 0.45762801 0
0.022062729 0.36742293 0
0.026607935 0.42172382 0
0.0233902 0.51068268 0
0.020511088 0.55130561 0
0.026227454 0.58395729 0
0.022007532 0.64448771 0
0 1 0
0.019275364 0.74775473 0
0 0.91354963 0
0.020298574 1 0
0 0.19318024 0
0 0.15492359 0
0.017018513 0.27571572 0
0.032740503 0.47333113 0
0.032762864 0.35979461 0
0.034789797 0.55275173 0
0.032361622 0.6322595 0
0.037083232 0.70961147 0
0.027108506 0.84716605 0
0.055078365 1 0
0 0.089920405 0
0.016408399 0.17319099 0
0.039238025 0.22146136 0
0.10863411 1 0
0.05542857 0.39165566 0
0.049105304 0.4987969 0
0.053633588 0.60647911 0
0.060343045 0.7526015 0
0.34696387 1 0
0.020298574 0 0
0 0 0
0.055078365 0 0
0.074649318 0.25474539 0
0.17062459 1 0
0.24627778 1 0
0.11233645 0.76387999 0
0.087803251 0.52218103 0
0.49406598 1 0
0.29743074 0.89104068 0
0.10863411 0 0
0.12501388 0.2824654 0
0.19813456 0.76217599 0
0.16213447 0.51362273 0
0.43772248 0.89505807 0
0.62871335 1 0
0.30611789 0.7659405 0
0.17062459 0 0
0.20797808 0.24551771 0
0.25747096 0.41664588 0
0.2684285 0.59250379 0
0.86703624 1 0
0.7497546 1 0
0.4414688 0.80866986 0
0.580257 0.89665841 0
0.37372452 0.69187422 0
1 1 0
0.24627778 0 0
0.32330765 0.13156531 0
0.30472407 0.27856587 0
0.39414397 0.33512228 0
0.35363728 0.45302694 0
0.44197588 0.35987514 0
0.40893828 0.48079189 0
0.37116971 0.56979728 0
0.81076418 0.90040179 0
0.67780387 0.87837251 0
0.52835754 0.7802521 0
0.44407749 0.66848422 0
1 0.91354963 0
0.83371734 0.85268979 0
0.34696387 0 0
0.49406598 0 0
0.45502131 0.094625727 0
0.48349422 0.14789156 0
0.43422337 0.24699501 0
0.5602895 0.23203114 0
0.54045112 0.29777047 0
0.51079288 0.34609228 0
0.45061716 0.40431034 0
0.45420785 0.46684212 0
0.44016841 0.56091403 0
0.4800349 0.63336209 0
0.47033493 0.52249065 0
0.64855188 0.78941171 0
0.53589784 0.71032465 0
1 0.85286448 0
0.82124188 0.80185732 0
0.69774009 0.76898488 0
0.53597866 0.65477345 0
1 0.81284898 0
0.62871335 0 0
0.7497546 0 0
0.62672788 0.13069987 0
0.77157375 0.12354166 0
0.66074669 0.23374085 0
0.66738923 0.26903012 0
0.58446441 0.31699626 0
0.48726167 0.41034538 0
0.52223299 0.37029717 0
0.56986435 0.34554384 0
0.48725681 0.46261499 0
0.49393512 0.58194198 0
0.49380046 0.51504204 0
0.61023138 0.71403667 0
0.84006918 0.77989322 0
0.71236263 0.7442676 0
0.586635 0.66901209 0
0.5361152 0.61638248 0
1 0.78499202 0
1 0.76650445 0
0.86450725 0.76350849 0
0.86703624 0 0
1 0 0
1 0.089920405 0
0.8093654 0.17162884 0
0.81057274 0.21503574 0
0.8185255 0.23967398 0
0.68666678 0.28384292 0
0.63144315 0.31770872 0
0.51150123 0.41792365 0
0.5409541 0.38409737 0
0.58425307 0.35485227 0
0.50970859 0.4658968 0
0.51496269 0.56446252 0
0.50942539 0.51367546 0
0.54614266 0.59515224 0
1 0.75424276 0
0.65691661 0.70597057 0
0.74555831 0.73554672 0
0.62904565 0.67517883 0
0.57535191 0.63717414 0
0.88648514 0.74974304 0
0.78607569 0.7335259 0
1 0.15492359 0
1 0.19318024 0
1 0.21706686 0
0.79987511 0.25875441 0
0.70618058 0.29087443 0
0.68431271 0.3091983 0
0.6358422 0.32995571 0
0.52967612 0.42304545 0
0.60283307 0.35759514 0
0.56138757 0.38853167 0
0.52834079 0.45893713 0
0.52187175 0.50146716 0
0.52707235 0.54823884 0
0.56942616 0.6074941 0
0.54461642 0.5680449 0
0.54848944 0.55469957 0
1 0.73594763 0
1 0.74422386 0
0.88879373 0.73813429 0
0.7031806 0.70639618 0
0.65255245 0.67592951 0
0.6009423 0.64268201 0
0.7888696 0.72337596 0
0.87823509 0.24888546 0
1 0.23312779 0
0.73961732 0.29233932 0
0.78221477 0.27432548 0
0.7114921 0.31093147 0
0.65448561 0.33324795 0
0.54663273 0.42268598 0
0.60464386 0.36737922 0
0.57381463 0.39427323 0
0.54738681 0.44770819 0
0.53545957 0.48764632 0
0.53667772 0.52606869 0
0.54748734 0.47541606 0
0.59844414 0.62423416 0
0.56931377 0.5908062 0
0.5541911 0.5306286 0
0.5680218 0.57451886 0
0.56363099 0.55219061 0
0.91994038 0.7276332 0
1 0.72943238 0
0.87865743 0.72799909 0
0.82046872 0.72323641 0
0.71693782 0.6993883 0
0.6734106 0.67598865 0
0.63108794 0.64263165 0
0.63149842 0.65383142 0
0.76174954 0.70632806 0
0.85386304 0.7163922 0
0.88255373 0.25841442 0
1 0.24461205 0
0.77490366 0.29214344 0
0.81454796 0.27691764 0
0.75178595 0.30534254 0
0.71826798 0.32053035 0
0.67766967 0.33144847 0
0.63563975 0.35349441 0
0.57002024 0.41320579 0
0.60421089 0.38272624 0
0.56924898 0.43162938 0
0.56164888 0.45685866 0
0.55289942 0.50341584 0
0.56539532 0.48136547 0
0.59332728 0.60473106 0
0.617785 0.62313284 0
0.58921803 0.58727591 0
0.57058517 0.5175484 0
0.57791063 0.54081586 0
0.58528542 0.5648412 0
0.92083382 0.71999524 0
1 0.72188731 0
0.81008254 0.71250786 0
0.6533281 0.64328187 0
0.71433122 0.68649185 0
0.67104095 0.66322215 0
0.76028372 0.69589988 0
0.87908323 0.71181338 0
0.83791462 0.70620935 0
0.9047168 0.2635137 0
1 0.25391092 0
0.80388923 0.29325459 0
0.84740997 0.27914315 0
0.77220579 0.31014218 0
0.73523251 0.32536571 0
0.69730677 0.3370173 0
0.64001109 0.36568784 0
0.66241918 0.34721616 0
0.59428296 0.40664663 0
0.62115318 0.38776251 0
0.58148819 0.44628491 0
0.59253485 0.42648355 0
0.58404403 0.46628478 0
0.58102166 0.49608222 0
0.63631946 0.62239537 0
0.61619161 0.60284391 0
0.60625646 0.58087276 0
0.5896655 0.5256957 0
0.60169199 0.55688358 0
0.66697085 0.63647121 0
0.93108753 0.71151848 0
1 0.71399627 0
0.80079154 0.70041917 0
0.69012271 0.65766853 0
0.75415706 0.68448273 0
0.715843 0.67545627 0
0.87553092 0.70253324 0
0.8273204 0.69554511 0
0.70036152 0.64996418 0
0.92106937 0.26854395 0
1 0.26245231 0
0.81736818 0.29898889 0
0.91018731 0.27680221 0
0.8523891 0.28730205 0
0.80780573 0.31017229 0
0.65550396 0.37064288 0
0.76876287 0.32297814 0
0.72645243 0.33820149 0
0.6815669 0.35359963 0
0.64007699 0.38977941 0
0.61689149 0.41113332 0
0.60303638 0.44106492 0
0.59856345 0.47279535 0
0.59872341 0.50264448 0
0.64687834 0.61433189 0
0.62711387 0.59047667 0
0.60645463 0.53638958 0
0.6255665 0.57179738 0
1 0.70699137 0
0.68039089 0.62989394 0
0.93233516 0.70253414 0
0.78141105 0.68418406 0
0.73478083 0.66801374 0
0.8686257 0.69387756 0
0.81455768 0.68527728 0
0.72365975 0.65100936 0
1 0.26994042 0
0.93602296 0.28066086 0
0.85205084 0.29919018 0
0.88784773 0.28896662 0
0.84962935 0.30854829 0
0.80394942 0.32073734 0
0.67448803 0.37150425 0
0.75399704 0.33910664 0
0.70673022 0.35281973 0
0.6481554 0.39747852 0
0.61333013 0.45068823 0
0.62908402 0.42209585 0
0.61511528 0.47688453 0
0.61388157 0.51300736 0
0.65887188 0.60560244 0
0.65025348 0.58445196 0
0.62819174 0.55153278 0
1 0.70048927 0
0.7054529 0.62928143 0
0.91461558 0.69252776 0
0.77597521 0.67069674 0
0.84124631 0.68248769 0
0.7519638 0.6533475 0
0.67704259 0.38169782 0
1 0.2780256 0
0.94147161 0.28848671 0
0.91083903 0.29743141 0
0.91250233 0.30535646 0
0.84969582 0.31710831 0
0.79211952 0.33322244 0
0.7165249 0.35879279 0
0.66452858 0.40426006 0
0.63529578 0.43783237 0
0.63661961 0.4610341 0
0.63207582 0.49978405 0
0.63491541 0.5342425 0
0.68475506 0.60400095 0
0.66121448 0.57097003 0
1 0.69305748 0
0.736062 0.626913 0
0.76964064 0.64946445 0
0.90686174 0.67697182 0
0.87993351 0.68010528 0
0.81127521 0.66893313 0
0.70571671 0.37430699 0
1 0.29451541 0
1 0.28703919 0
1 0.30192496 0
0.90567593 0.31441202 0
0.83225761 0.32986638 0
0.75787745 0.35331597 0
0.71132714 0.38532589 0
0.66895584 0.42522087 0
0.65554092 0.4770819 0
0.66096126 0.53725661 0
0.70535147 0.59073455 0
1 0.68362431 0
0.89878159 0.66547054 0
0.77104428 0.62740465 0
0.8235358 0.6567931 0
1 0.30919555 0
0.8151524 0.3427494 0
0.89336317 0.32598324 0
0.67301297 0.51114234 0
0.77578027 0.36374409 0
0.72664895 0.39605696 0
0.68606373 0.43309003 0
0.69255866 0.46353698 0
0.70774327 0.56017943 0
0.77683346 0.60547769 0
1 0.67134359 0
0.85700364 0.64520233 0
0.88121176 0.63711194 0
1 0.31641079 0
0.86962287 0.34228695 0
0.71262578 0.508337 0
0.80178228 0.37735345 0
0.73921636 0.41679663 0
0.74481292 0.45362245 0
0.76197327 0.56044275 0
0.86039155 0.60917489 0
1 0.65295899 0
1 0.32715115 0
0.89113834 0.35053682 0
0.76337916 0.50081663 0
0.88354271 0.37521064 0
0.80388193 0.41571148 0
0.80174061 0.46340598 0
0.82657998 0.5556517 0
0.92320465 0.60419599 0
1 0.62496561 0
1 0.34462627 0
[...]
CELL_DATA 1056
Scalars  Label int 1
LOOKUP_TABLE FreeFempp_table
0
0
0
0
0
0
0
0
0
0
0
0
0
0
0
0
0
0
0
0
0
0
0
0
0
0
0
0
0
0
0
0
0
0
0
0
0
0
0
0
0
0
0
0
0
0
0
0
0
0
0
0
0
0
0
0
0
0
0
0
0
0
0
0
0
0
0
0
0
0
0
0
0
0
0
0
0
0
0
0
0
0
0
0
0
0
0
0
0
0
0
0
0
0
0
0
0
0
0
0
0
0
0
0
0
0
0
0
0
0
0
0
0
0
0
0
0
0
0
0
0
0
0
0
0
0
0
0
0
0
0
0
0
0
0
0
0
0
0
0
0
0
0
0
0
0
0
0
0
0
0
0
0
0
0
0
0
0
0
0
0
0
0
0
0
0
0
0
0
0
0
0
0
0
0
0
0
0
0
0
0
0
0
0
0
0
0
0
0
0
0
0
0
0
0
0
0
0
0
0
0
0
0
0
0
0
0
0
0
0
0
0
0
0
0
0
0
0
0
0
0
0
0
0
0
0
0
0
0
0
0
0
0
0
0
0
0
0
0
0
0
0
0
0
0
0
0
0
0
0
0
0
0
0
0
0
0
0
0
0
0
0
0
0
0
0
0
0
0
0
0
0
0
0
0
0
0
0
0
0
0
0
0
0
0
0
0
0
0
0
0
0
0
0
0
0
0
0
0
0
0
0
0
0
0
0
0
0
0
0
0
0
0
0
0
0
0
0
0
0
0
0
0
0
0
0
0
0
0
0
0
0
0
0
0
0
0
0
0
0
0
0
0
0
0
0
0
0
0
0
0
0
0
0
0
0
0
0
0
0
0
0
0
0
0
0
0
0
0
0
0
0
0
0
0
0
0
0
0
0
0
0
0
0
0
0
0
0
0
0
0
0
0
0
0
0
0
0
0
0
0
0
0
0
0
0
0
0
0
0
0
0
0
0
0
0
0
0
0
0
0
0
0
0
0
0
0
0
0
0
0
0
0
0
0
0
0
0
0
0
0
0
0
0
0
0
0
0
0
0
0
0
0
0
0
0
0
0
0
0
0
0
0
0
0
0
0
0
0
0
0
0
0
0
0
0
0
0
0
0
0
0
0
0
0
0
0
0
0
0
0
0
0
0
0
0
0
0
0
0
0
0
0
0
0
0
0
0
0
0
0
0
0
0
0
0
0
0
0
0
0
0
0
0
0
0
0
0
0
0
0
0
0
0
0
0
0
0
0
0
0
0
0
0
0
0
0
0
0
0
0
0
0
0
0
0
0
0
0
0
0
0
0
0
0
0
0
0
0
0
0
0
0
0
0
0
0
0
0
0
0
0
0
0
0
0
0
0
0
0
0
0
0
0
0
0
0
0
0
0
0
0
0
0
0
0
0
0
0
0
0
0
0
0
0
0
0
0
0
0
0
0
0
0
0
0
0
0
0
0
0
0
0
0
0
0
0
0
0
0
0
0
0
0
0
0
0
0
0
0
0
0
0
0
0
0
0
0
0
0
0
0
0
0
0
0
0
0
0
0
0
0
0
0
0
0
0
0
0
0
0
0
0
0
0
0
0
0
0
0
0
0
0
0
0
0
0
0
0
0
0
0
0
0
0
0
0
0
0
0
0
0
0
0
0
0
0
0
0
0
0
0
0
0
0
0
0
0
0
0
0
0
0
0
0
0
0
0
0
0
0
0
0
0
0
0
0
0
0
0
0
0
0
0
0
0
0
0
0
0
0
0
0
0
0
0
0
0
0
0
0
0
0
0
0
0
0
0
0
0
0
0
0
0
0
0
0
0
0
0
0
0
0
0
0
0
0
0
0
0
0
0
0
0
0
0
0
0
0
0
0
0
0
0
0
0
0
0
0
0
0
0
0
0
0
0
0
0
0
0
0
0
0
0
0
0
0
0
0
0
0
0
0
0
0
0
0
0
0
0
0
0
0
0
0
0
0
0
0
0
0
0
0
0
0
0
0
0
0
0
0
0
0
0
0
0
0
0
0
0
0
0
0
0
0
0
0
0
0
0
0
0
0
0
0
0
0
0
0
0
0
0
0
0
0
0
0
0
0
0
0
0
0
0
0
0
0
0
0
0
0
0
0
0
0
0
1
1
1
1
1
1
1
1
1
1
1
3
3
3
3
3
3
3
3
3
3
3
2
2
2
2
2
2
2
2
2
2
2
2
2
2
2
2
2
2
2
2
2
2
2
2
2
2
2
2
2
2
2
2
2
2
2
2
2
2
2
2
2
2
2
2
2
2
2
2
2
2
2
2
2
2
4
4
4
4
4
4
4
4
4
4
4
4
4
4
4
4
4
4
4
4
4
4
4
4
4
4
4
4
4
4
4
4
4
4
4
4
4
4
4
4
4
4
4
4
4
4
4
4
4
4
4
4
4
4

LOOKUP_TABLE FreeFempp_table 5
1.00000000 0.00000000 0.00000000 1.00000000
1.00000000 1.00000000 0.00000000 1.00000000
1.00000000 0.00000000 1.00000000 1.00000000
0.00000000 1.00000000 0.00000000 1.00000000
0.00000000 1.00000000 1.00000000 1.00000000

POINT_DATA 529
FIELD FieldData 1
Density 1 529 float
9.80054677e-01 9.79853272e-01 9.80054617e-01 9.80054736e-01 9.03161466e-01 9.79940712e-01 9.80053902e-01 9.80054557e-01 9.80054736e-01 9.63731110e-01 9.77749348e-01 9.78986323e-01 9.80054855e-01 9.73939240e-01 8.59314799e-01 4.19152439e-01 9.79712784e-01 7.83014417e-01 7.13863134e-01 9.13047910e-01 9.63017046e-01 9.80054855e-01 6.32349551e-01 4.15506065e-01 8.18148077e-01 9.18233097e-01 7.71694839e-01 5.09287007e-02 1.13107674e-01 2.77601331e-02 2.23453671e-01 9.71545458e-01 9.42773521e-01 8.96978140e-01 7.38343298e-02 5.02101898e-01 3.65583271e-01 3.95537198e-01 2.04614073e-01 6.39489174e-01 9.43634033e-01 6.54520690e-01 9.52760041e-01 9.80054915e-01 4.17478114e-01 2.87265986e-01 2.14548185e-02 7.68058598e-02 2.02254560e-02 4.36034948e-01 8.64666820e-01 7.06269801e-01 2.25858659e-01 8.70873556e-02 2.00572908e-02 1.92329139e-01 4.90434244e-02 2.36504488e-02 4.62702960e-02 1.79891616e-01 2.00342871e-02 1.55756548e-01 3.42048585e-01 2.00417023e-02 5.07781684e-01 2.00439151e-02 2.00554505e-02 2.59456765e-02 2.21437737e-02 2.50878800e-02 2.03627776e-02 3.26099917e-02 1.00455560e-01 2.18726844e-02 5.17889708e-02 2.14554612e-02 4.65980321e-02 2.05982756e-02 2.28854939e-02 2.00385358e-02 4.49948348e-02 2.03428771e-02 6.63478151e-02 2.02127993e-02 2.31904350e-02 2.13468503e-02 2.10679416e-02 2.02468392e-02 2.04350147e-02 2.26847064e-02 2.02277694e-02 2.03688480e-02 2.08125096e-02 2.02027224e-02 2.03541797e-02 2.06905063e-02 2.03060508e-02 2.22981423e-02 2.08672713e-02 2.11444609e-02 2.40291804e-02 2.08050925e-02 2.15269607e-02 2.10570190e-02 2.05547735e-02 2.12616958e-02 2.06740908e-02 2.06449684e-02 2.09918208e-02 2.21667513e-02 2.66002994e-02 2.17542760e-02 2.18199249e-02 2.23811381e-02 2.98775658e-02 2.24758405e-02 2.09713075e-02 2.14176625e-02 2.41148788e-02 3.10989339e-02 2.40291804e-02 2.22981423e-02 2.66002994e-02 2.51679476e-02 3.16696540e-02 3.23060639e-02 2.73172744e-02 2.42752545e-02 3.03365644e-02 3.15295681e-02 2.98775658e-02 2.74626557e-02 2.95514204e-02 2.58399397e-02 3.12506296e-02 2.98796874e-02 3.00843753e-02 3.16696540e-02 3.02697886e-02 2.38785353e-02 2.47064959e-02 2.30841339e-02 2.78142150e-02 3.03238519e-02 2.97937039e-02 2.53764763e-02 2.22981423e-02 3.23060639e-02 3.09104435e-02 2.64421739e-02 2.48849653e-02 2.11488735e-02 2.14811619e-02 2.03032717e-02 2.15436127e-02 2.29938664e-02 2.54418608e-02 2.64783893e-02 2.45970339e-02 2.11444609e-02 2.21998859e-02 3.10989339e-02 3.03365644e-02 3.03083807e-02 2.98443753e-02 2.75012106e-02 2.49300227e-02 2.29161959e-02 2.10139677e-02 2.06907671e-02 2.04188619e-02 2.14257874e-02 2.14560777e-02 2.04550140e-02 2.31430866e-02 2.32840832e-02 2.10679416e-02 2.11683270e-02 2.14619562e-02 2.14158054e-02 2.03627776e-02 2.98796874e-02 2.78142150e-02 2.41481923e-02 2.20565610e-02 2.17909589e-02 2.13029236e-02 2.10014805e-02 2.03737710e-02 2.06872895e-02 2.02326793e-02 2.06072293e-02 2.07413342e-02 2.08683331e-02 2.20206156e-02 2.07248665e-02 2.10871268e-02 2.09210999e-02 2.26284564e-02 2.02254560e-02 2.14548185e-02 2.05134638e-02 2.30841339e-02 2.22981423e-02 2.17542760e-02 2.21219603e-02 2.10032612e-02 2.07226593e-02 2.10144892e-02 2.25712843e-02 2.06617806e-02 2.22321972e-02 3.41877528e-02 2.35012565e-02 2.25461312e-02 2.68890988e-02 3.50567549e-02 2.77601331e-02 2.07402073e-02 2.08248459e-02 2.39270087e-02 2.57762149e-02 2.21217126e-02 2.21711751e-02 2.15269607e-02 2.08050925e-02 2.04350147e-02 2.08483674e-02 2.25358363e-02 5.92180640e-02 4.60115299e-02 2.31673941e-02 6.14201613e-02 3.79470848e-02 4.01834324e-02 4.88312431e-02 3.87043282e-02 5.21633551e-02 6.88189864e-02 1.31563649e-01 1.13107674e-01 5.09287007e-02 4.28817533e-02 2.26917043e-02 3.99994217e-02 4.46351282e-02 3.73866782e-02 2.04078648e-02 2.02468392e-02 4.67616245e-02 2.46459711e-02 1.39225379e-01 7.66666383e-02 6.08895682e-02 1.16052851e-01 9.98665839e-02 1.11504063e-01 1.13113202e-01 1.31734267e-01 1.84191480e-01 1.07632749e-01 1.13563962e-01 2.89676338e-01 2.32517540e-01 3.18234593e-01 1.47433132e-01 2.23453671e-01 9.03867111e-02 7.64154419e-02 4.69463579e-02 8.47560018e-02 1.95361525e-01 8.18002969e-02 9.52531546e-02 2.26781055e-01 2.79892944e-02 2.18726844e-02 1.13623239e-01 4.77988683e-02 2.25258484e-01 2.96592116e-01 2.04704717e-01 1.86115682e-01 1.58250138e-01 2.21918777e-01 2.86121637e-01 3.30266327e-01 3.37666243e-01 4.77421761e-01 2.61003494e-01 2.92398840e-01 3.95155460e-01 5.68279624e-01 6.18952870e-01 5.40428460e-01 2.90481061e-01 4.15506065e-01 1.57897219e-01 3.76092196e-01 1.55641779e-01 2.29086787e-01 2.44682476e-01 4.28950310e-01 4.38888788e-01 5.63631840e-02 3.26099917e-02 2.22988084e-01 1.21965922e-01 4.48332280e-01 5.50657630e-01 4.90446806e-01 3.89958054e-01 3.55244160e-01 3.88854593e-01 5.13929188e-01 5.58860183e-01 5.57209134e-01 6.86942339e-01 7.21939623e-01 5.63926637e-01 5.79119265e-01 6.74621522e-01 8.36980343e-01 8.21299374e-01 6.87484086e-01 5.85632324e-01 6.32349551e-01 4.00923669e-01 5.11599422e-01 4.86323625e-01 3.53851408e-01 7.11572289e-01 7.03850508e-01 7.92167664e-01 1.19334109e-01 1.00455560e-01 4.82335716e-01 2.18499839e-01 3.33407521e-01 7.56016791e-01 6.54973924e-01 7.37517774e-01 7.79744983e-01 6.57226980e-01 7.60642469e-01 7.16811776e-01 8.39901507e-01 9.04030561e-01 9.33900237e-01 8.21586609e-01 8.63424659e-01 9.04915869e-01 9.14997756e-01 8.18148077e-01 8.86202514e-01 8.56147528e-01 6.95415735e-01 7.26569831e-01 8.68867934e-01 8.32695663e-01 8.93510461e-01 2.25858659e-01 3.83494258e-01 6.43181682e-01 4.92453545e-01 8.52864563e-01 8.74830604e-01 8.75505328e-01 9.01556313e-01 8.14053059e-01 8.58977735e-01 9.16299760e-01 9.23672497e-01 9.55590427e-01 9.63303387e-01 9.23815846e-01 9.64862168e-01 9.66020703e-01 9.18233097e-01 9.64564204e-01 9.39747572e-01 9.12952125e-01 9.49095786e-01 9.52913523e-01 9.27708030e-01 4.36034948e-01 6.51821256e-01 7.86116064e-01 9.21759784e-01 9.24599290e-01 9.44601357e-01 9.40202057e-01 9.68669057e-01 9.67465758e-01 9.79360044e-01 9.78418291e-01 9.77903783e-01 9.77543950e-01 9.77658689e-01 9.63731110e-01 9.79340911e-01 9.74704027e-01 9.78170872e-01 9.67527151e-01 9.68004465e-01 9.69016969e-01 8.64666820e-01 7.06269801e-01 9.42773521e-01 9.59969282e-01 9.77929831e-01 9.76252437e-01 9.79645371e-01 9.80052829e-01 9.79987562e-01 9.79968607e-01 9.80031848e-01 9.77749348e-01 9.79796767e-01 9.80045080e-01 9.79693115e-01 9.71545458e-01 9.79965687e-01 9.79749084e-01 9.80051517e-01 9.80043828e-01 9.80054080e-01 9.80054677e-01 9.80054557e-01 9.80054498e-01 9.80054379e-01 9.79940712e-01 9.80054557e-01 9.80054438e-01 9.78986323e-01 9.80030417e-01 9.80054438e-01 9.80054379e-01 9.80054498e-01 9.80054379e-01 9.80054259e-01 9.80054200e-01 9.80053902e-01 9.79853272e-01 9.80053186e-01 9.80054319e-01 9.80054319e-01 9.80054259e-01 9.80054438e-01 9.80054259e-01 9.80054438e-01 9.80054557e-01 9.80054677e-01 9.80054498e-01 9.80054319e-01 9.80054617e-01 9.80054498e-01 9.80054736e-01 9.80054736e-01 9.80054379e-01 9.80054736e-01 9.80054736e-01 9.80054498e-01 9.80054557e-01 9.80054736e-01 9.80054796e-01 9.80054855e-01 9.80054855e-01 9.80054855e-01 9.80054736e-01 9.80054855e-01 9.79896128e-01 9.79923785e-01 9.80054855e-01 9.80054796e-01 9.79816496e-01 9.77768004e-01 9.79890525e-01 9.77087200e-01 9.79085803e-01 9.80054915e-01 9.65952575e-01 9.77249861e-01 9.78191137e-01 9.79712784e-01 9.68896031e-01 9.63204145e-01 8.13932240e-01 8.98970068e-01 6.95480347e-01 8.70193183e-01 9.52760041e-01 6.28706098e-01 9.48985636e-01 9.44786310e-01 8.59314799e-01 8.84072721e-01 8.57522547e-01 4.25718397e-01 2.99714327e-01 4.77187514e-01 2.31112584e-01 6.54520690e-01 2.93051034e-01 7.03861713e-01 5.52354276e-01 4.12346631e-01 3.48250657e-01 4.19152439e-01 2.45865867e-01 1.46403000e-01 3.78160365e-02 3.89416590e-02 3.46785486e-02 1.55756548e-01 6.40092269e-02 1.57782048e-01 7.38343298e-02 2.36620121e-02 2.00524144e-02 2.03888696e-02 2.00439151e-02 2.48436686e-02 2.00572908e-02 2.04700287e-02 2.00701319e-02 2.00417023e-02 2.00342871e-02 2.00554505e-02 
