# vtk DataFile Version 2.0
results_case1/1616747557/sol_toll1e-05_vf0.3_iter12.vtk, Created by Freefem++ 
ASCII
DATASET UNSTRUCTURED_GRID
POINTS 570 float
1 0.53189974 0
1 0.51895974 0
1 0.5395743 0
0.97494413 0.52187401 0
1 0.49970685 0
0.97398434 0.50803298 0
0.95874967 0.50939166 0
0.97170325 0.52931598 0
1 0.54578297 0
0.97155507 0.53580698 0
0.95302429 0.51678216 0
0.97724098 0.49464147 0
1 0.47973316 0
0.9607164 0.49610819 0
1 0.55324554 0
0.94556017 0.50202994 0
0.95391114 0.52784512 0
0.97358184 0.54302254 0
0.93502843 0.50419478 0
0.93678122 0.52279961 0
0.93669001 0.5140602 0
0.97982604 0.47957487 0
1 0.46498317 0
0.9468229 0.49146997 0
0.96453936 0.48075972 0
1 0.56011078 0
0.92841799 0.49352957 0
0.94955759 0.53527933 0
0.96463087 0.54710677 0
0.92914903 0.52563546 0
0.91961271 0.49964162 0
0.91914886 0.50954504 0
0.93647455 0.48625662 0
0.98396814 0.46567088 0
1 0.45399166 0
0.95335392 0.47736116 0
0.96895651 0.46692181 0
0.92423425 0.483302 0
1 0.56728513 0
0.91042219 0.48887357 0
0.95760599 0.5521546 0
0.93223214 0.53548371 0
0.90784142 0.51342316 0
0.90022126 0.49546766 0
0.94215688 0.47482643 0
0.98233685 0.45654502 0
1 0.44534825 0
0.91567331 0.47756431 0
0.96033528 0.46235044 0
0.93848639 0.46815703 0
1 0.57877079 0
0.89968344 0.47695519 0
0.93919499 0.55527047 0
0.90119058 0.52408368 0
0.88774394 0.53444046 0
0.87940274 0.48318608 0
0.8806523 0.50115678 0
0.97691593 0.45084699 0
1 0.43801156 0
0.92878275 0.4623531 0
0.96172051 0.44989707 0
1 0.59879528 0
0.908676 0.45909108 0
0.87804412 0.46094687 0
0.91744146 0.57330783 0
0.85266826 0.50093514 0
0.82808178 0.51335148 0
0.84783113 0.47506667 0
1 0.42894804 0
0.95089021 0.43717059 0
1 0.62912634 0
0.92251443 0.61476597 0
0.91428635 0.43042954 0
0.84913154 0.43793235 0
0.83233459 0.55994524 0
0.76230755 0.49712165 0
0.80095522 0.46124273 0
0.82544158 0.60237641 0
1 0.41422515 0
1 0.38916983 0
1 0.65811679 0
0.88645909 0.6373921 0
1 0.67675437 0
0.89820637 0.39715709 0
0.80546324 0.41416275 0
0.75360056 0.55557089 0
0.70989581 0.50382452 0
0.74533755 0.44920139 0
0.77199026 0.60624863 0
1 0.35816953 0
0.90048725 0.36529811 0
0.86096248 0.64820408 0
0.76984869 0.62814165 0
1 0.68804988 0
0.89785862 0.66902179 0
1 0.69630106 0
0.8123613 0.3789432 0
0.74161537 0.41200654 0
0.70290167 0.55755924 0
0.67037637 0.50890463 0
0.69244537 0.45984304 0
0.70385249 0.58899156 0
1 0.33426267 0
0.89004401 0.34679192 0
0.73537852 0.62685039 0
0.81456285 0.65528187 0
0.76187657 0.64832461 0
0.89013758 0.67908401 0
1 0.7028952 0
0.91360907 0.69208894 0
1 0.70936644 0
0.78334609 0.36362495 0
0.72978179 0.39305748 0
0.68506962 0.43045435 0
0.65785541 0.53413758 0
0.65363708 0.47565302 0
0.68876113 0.60383378 0
0.6596939 0.56822073 0
0.63409723 0.53422594 0
1 0.31994662 0
0.82333241 0.34337982 0
0.89821092 0.32719201 0
0.75864243 0.35527327 0
1 0.71688367 0
0.70324689 0.62719458 0
0.75252801 0.65445483 0
0.81284232 0.66879498 0
0.84493542 0.68198111 0
0.82070265 0.68581689 0
0.86979065 0.69372481 0
0.92634983 0.70164195 0
0.93476448 0.71142258 0
0.68219856 0.63034741 0
0.71188522 0.38552246 0
0.66905899 0.42434657 0
0.63642832 0.46117094 0
0.63088584 0.49944319 0
0.6567513 0.58899365 0
0.658193 0.60641301 0
0.6292038 0.55333681 0
0.61447108 0.51407593 0
0.70509665 0.37544949 0
1 0.30958639 0
0.83208731 0.33061792 0
0.90911025 0.3145433 0
0.72603599 0.35614447 0
0.78438678 0.33575395 0
1 0.72617976 0
0.72335471 0.65047462 0
0.77984766 0.6711259 0
0.92978992 0.72046329 0
0.78289757 0.68318578 0
0.82825813 0.69591728 0
0.87396495 0.70262289 0
0.87764907 0.71181923 0
0.70156801 0.64994942 0
0.66849798 0.63639265 0
0.64779081 0.61472019 0
0.6357238 0.43843297 0
0.66443681 0.40514283 0
0.61543337 0.47805763 0
0.61396514 0.45194267 0
0.62753837 0.59095131 0
0.62721091 0.57331878 0
0.60758623 0.53754187 0
0.6000746 0.50359142 0
0.68149303 0.37922669 0
1 0.30128402 0
0.8465634 0.31775919 0
0.91421505 0.30543917 0
0.70535189 0.35458958 0
0.75267504 0.33722852 0
0.80473304 0.32033832 0
1 0.73375368 0
1 0.74090873 0
0.73687904 0.66769903 0
0.75537082 0.68427424 0
0.88535242 0.72114313 0
0.79483874 0.69819639 0
0.83670925 0.70764269 0
0.69153287 0.65751114 0
0.60599161 0.58067666 0
0.63710915 0.6221476 0
0.65428597 0.64298447 0
0.61589863 0.60262195 0
0.64973937 0.39757919 0
0.62917819 0.42333685 0
0.59946756 0.47252114 0
0.60407916 0.44103796 0
0.60223318 0.55722166 0
0.59022435 0.52561115 0
0.58539658 0.49583111 0
0.67482789 0.37136851 0
1 0.29382501 0
0.64148255 0.38982682 0
0.85239565 0.30814323 0
0.92017653 0.29737763 0
0.68017224 0.35412696 0
0.72111339 0.33914541 0
0.76824809 0.32291472 0
0.81088939 0.3096997 0
1 0.74868879 0
0.90295134 0.73009164 0
0.71790655 0.67556175 0
0.76013421 0.69644324 0
0.81810111 0.71292498 0
1 0.76978003 0
1 0.75767219 0
0.58474629 0.5645085 0
0.6725351 0.66329801 0
0.58837272 0.58699543 0
0.61816813 0.62326885 0
0.63232243 0.6429813 0
0.59318353 0.60490725 0
0.61803413 0.4113954 0
0.58428731 0.46667539 0
0.58288143 0.44553336 0
0.59355858 0.42613797 0
0.57769551 0.53984353 0
0.56997024 0.5140371 0
0.56595591 0.4859691 0
0.65462776 0.37121075 0
1 0.28522527 0
0.93487617 0.28836902 0
0.62146231 0.38833074 0
0.86205095 0.29812835 0
0.82037147 0.29870549 0
0.63966304 0.3656852 0
0.73488089 0.32507714 0
0.66194175 0.34717604 0
0.69516087 0.33675679 0
0.77357332 0.30975734 0
1 0.78835333 0
0.82680599 0.72290876 0
0.88390484 0.73762843 0
0.71492606 0.68659493 0
0.76517507 0.70716135 0
0.88111992 0.74948272 0
0.67411182 0.67599314 0
0.56692879 0.57396203 0
0.56297818 0.55174488 0
0.63422768 0.65487206 0
0.56984146 0.5920211 0
0.599421 0.62523908 0
0.59476135 0.4072513 0
0.56330493 0.45784451 0
0.56932958 0.43181185 0
0.55395395 0.53008223 0
0.54785698 0.47485337 0
0.54866199 0.50388926 0
1 0.27584019 0
0.88650618 0.287487 0
0.93577826 0.27924121 0
0.604783 0.38269296 0
0.85175347 0.28705166 0
0.80387247 0.29306966 0
0.63552134 0.35299581 0
0.7187545 0.31992574 0
0.67687631 0.3310031 0
0.75268276 0.30498716 0
1 0.8173451 0
0.86003664 0.76332435 0
0.78758557 0.72252708 0
0.71697225 0.69927172 0
0.78209752 0.73211727 0
1 0.85727806 0
0.65584415 0.67753412 0
0.54709487 0.55410434 0
0.54584956 0.57444628 0
0.60730424 0.64727997 0
0.57210794 0.61267789 0
0.57087083 0.41310298 0
0.54824125 0.44699584 0
0.5354413 0.52194366 0
0.53475844 0.48546874 0
1 0.26805795 0
0.90753821 0.27611926 0
0.57489627 0.39390556 0
0.60513154 0.36665975 0
0.8438857 0.27927553 0
0.77256675 0.29238159 0
0.65286914 0.33314891 0
0.70978382 0.31117131 0
1 1 0
0.83969542 0.7828918 0
0.74245737 0.73506578 0
0.70388224 0.70633533 0
1 0.94972581 0
1 0.90281925 0
0.84407574 0.8168303 0
0.62991686 0.67541578 0
0.52692904 0.5442821 0
0.54278003 0.59214144 0
0.57704854 0.6368081 0
0.5476368 0.42220582 0
0.52879432 0.45856842 0
0.50959385 0.51271995 0
0.52151166 0.50092211 0
0.91551373 0.26846928 0
1 0.26109484 0
0.60252704 0.35666851 0
0.56280787 0.38775205 0
0.90024066 0.26361869 0
0.811309 0.27732595 0
0.73470277 0.29380137 0
0.63303121 0.33020401 0
0.67984076 0.31052324 0
0.91486189 1 0
0.87289675 0.92935785 0
0.83219718 1 0
0.71504219 0.74766536 0
0.65376094 0.70441021 0
0.83211464 0.85739415 0
0.75729783 0.8683016 0
0.70966882 0.77743288 0
0.58659495 0.66718793 0
0.51411417 0.56218453 0
0.53792795 0.61632112 0
0.53011602 0.42399716 0
0.4953144 0.51766122 0
0.51026226 0.46794599 0
1 0.252928 0
0.58338531 0.35463561 0
0.54316546 0.38409383 0
1 0.24329863 0
0.87813789 0.25827911 0
0.77804403 0.2760437 0
0.69246413 0.29583304 0
0.62651366 0.3196254 0
0.75415061 0.93010294 0
0.65003337 1 0
0.74409034 1 0
0.61105704 0.71507543 0
0.6552278 0.85693954 0
0.64154561 0.78867937 0
0.53689706 0.65192698 0
0.49560896 0.58175269 0
0.512266 0.41956446 0
0.47313898 0.52435553 0
0.48886171 0.46487142 0
0.57162445 0.34512089 0
0.53098562 0.36969876 0
1 0.23073999 0
0.75794016 0.27056988 0
0.86425154 0.24965331 0
0.6760748 0.28764348 0
0.58502442 0.31828209 0
0.55010393 1 0
0.59866002 0.91046129 0
0.53500271 0.70723643 0
0.53910477 0.82784223 0
0.51828136 0.76199266 0
0.48222018 0.62846454 0
0.45485431 0.66515014 0
0.44101909 0.55525855 0
0.48753871 0.41111015 0
0.45594499 0.47119897 0
0.50939372 0.35557405 0
1 0.21310504 0
0.8161367 0.24267887 0
0.67331316 0.26797103 0
0.55344023 0.29583315 0
0.44606899 1 0
0.44518692 0.89156969 0
0.42980873 0.72646494 0
0.40504545 0.79924292 0
0.40363978 0.61384588 0
0.36904847 0.68136669 0
0.36399943 0.5644181 0
0.40477056 0.49018695 0
0.43745662 0.41436025 0
0.45270648 0.35658865 0
1 0.18529201 0
0.8119079 0.21339774 0
0.67269756 0.22780172 0
0.59300575 0.22282357 0
0.47080056 0.28967744 0
0.34287032 1 0
0.31195106 0.87169529 0
0.29609626 0.74910823 0
0.27243273 0.58361948 0
0.29985793 0.64896118 0
0.31317687 0.5098828 0
0.35773358 0.45271116 0
0.35145972 0.40210831 0
0.38162837 0.34863087 0
0.77979229 0.13290794 0
1 0.14041847 0
0.83088069 0.16121162 0
0.35289949 0.31124009 0
0.73372586 0.11017215 0
0.54219752 0.20379195 0
0.42121006 0.2503012 0
0.24584315 1 0
0.21822981 0.83374835 0
0.22444721 0.5349584 0
0.20796891 0.66657836 0
0.2611311 0.4412259 0
0.27451776 0.35511397 0
0.18829193 0.44987353 0
1 0 0
1 0.044865471 0
0.91486189 0 0
1 0.091607791 0
0.30257063 0.27531845 0
0.83219718 0 0
0.64287169 0.12055712 0
0.50402263 0.16822059 0
0.38214929 0.19542135 0
0.17255563 1 0
0.16502627 0.79582855 0
0.16497575 0.53397855 0
0.14829678 0.64644304 0
0.19612119 0.35795528 0
0.20869527 0.27015749 0
0.1439726 0.41189151 0
0.28544256 0.21091947 0
0.74409034 0 0
0.63685357 0.08043274 0
0.47643007 0.12317113 0
0.23087242 0.17599759 0
0.34570326 0.11387145 0
0.17160974 0.15246079 0
0.12122033 1 0
0.12554404 0.7834467 0
0.11937396 0.56088119 0
0.13850345 0.27706199 0
0.1075518 0.38759135 0
0.44606899 0 0
0.45611712 0.068946881 0
0.65003337 0 0
0.57596559 0.05959046 0
0.2433644 0.080379279 0
0.34287032 0 0
0.17255563 0 0
0.12136769 0.13761451 0
0 1 0
0.019794554 1 0
0 0.94972581 0
0.081897553 1 0
0.04831015 1 0
0.041203089 0.84740079 0
0.092823661 0.74592023 0
[...]
CELL_DATA 1138
Scalars  Label int 1
LOOKUP_TABLE FreeFempp_table
0
0
0
0
0
0
0
0
0
0
0
0
0
0
0
0
0
0
0
0
0
0
0
0
0
0
0
0
0
0
0
0
0
0
0
0
0
0
0
0
0
0
0
0
0
0
0
0
0
0
0
0
0
0
0
0
0
0
0
0
0
0
0
0
0
0
0
0
0
0
0
0
0
0
0
0
0
0
0
0
0
0
0
0
0
0
0
0
0
0
0
0
0
0
0
0
0
0
0
0
0
0
0
0
0
0
0
0
0
0
0
0
0
0
0
0
0
0
0
0
0
0
0
0
0
0
0
0
0
0
0
0
0
0
0
0
0
0
0
0
0
0
0
0
0
0
0
0
0
0
0
0
0
0
0
0
0
0
0
0
0
0
0
0
0
0
0
0
0
0
0
0
0
0
0
0
0
0
0
0
0
0
0
0
0
0
0
0
0
0
0
0
0
0
0
0
0
0
0
0
0
0
0
0
0
0
0
0
0
0
0
0
0
0
0
0
0
0
0
0
0
0
0
0
0
0
0
0
0
0
0
0
0
0
0
0
0
0
0
0
0
0
0
0
0
0
0
0
0
0
0
0
0
0
0
0
0
0
0
0
0
0
0
0
0
0
0
0
0
0
0
0
0
0
0
0
0
0
0
0
0
0
0
0
0
0
0
0
0
0
0
0
0
0
0
0
0
0
0
0
0
0
0
0
0
0
0
0
0
0
0
0
0
0
0
0
0
0
0
0
0
0
0
0
0
0
0
0
0
0
0
0
0
0
0
0
0
0
0
0
0
0
0
0
0
0
0
0
0
0
0
0
0
0
0
0
0
0
0
0
0
0
0
0
0
0
0
0
0
0
0
0
0
0
0
0
0
0
0
0
0
0
0
0
0
0
0
0
0
0
0
0
0
0
0
0
0
0
0
0
0
0
0
0
0
0
0
0
0
0
0
0
0
0
0
0
0
0
0
0
0
0
0
0
0
0
0
0
0
0
0
0
0
0
0
0
0
0
0
0
0
0
0
0
0
0
0
0
0
0
0
0
0
0
0
0
0
0
0
0
0
0
0
0
0
0
0
0
0
0
0
0
0
0
0
0
0
0
0
0
0
0
0
0
0
0
0
0
0
0
0
0
0
0
0
0
0
0
0
0
0
0
0
0
0
0
0
0
0
0
0
0
0
0
0
0
0
0
0
0
0
0
0
0
0
0
0
0
0
0
0
0
0
0
0
0
0
0
0
0
0
0
0
0
0
0
0
0
0
0
0
0
0
0
0
0
0
0
0
0
0
0
0
0
0
0
0
0
0
0
0
0
0
0
0
0
0
0
0
0
0
0
0
0
0
0
0
0
0
0
0
0
0
0
0
0
0
0
0
0
0
0
0
0
0
0
0
0
0
0
0
0
0
0
0
0
0
0
0
0
0
0
0
0
0
0
0
0
0
0
0
0
0
0
0
0
0
0
0
0
0
0
0
0
0
0
0
0
0
0
0
0
0
0
0
0
0
0
0
0
0
0
0
0
0
0
0
0
0
0
0
0
0
0
0
0
0
0
0
0
0
0
0
0
0
0
0
0
0
0
0
0
0
0
0
0
0
0
0
0
0
0
0
0
0
0
0
0
0
0
0
0
0
0
0
0
0
0
0
0
0
0
0
0
0
0
0
0
0
0
0
0
0
0
0
0
0
0
0
0
0
0
0
0
0
0
0
0
0
0
0
0
0
0
0
0
0
0
0
0
0
0
0
0
0
0
0
0
0
0
0
0
0
0
0
0
0
0
0
0
0
0
0
0
0
0
0
0
0
0
0
0
0
0
0
0
0
0
0
0
0
0
0
0
0
0
0
0
0
0
0
0
0
0
0
0
0
0
0
0
0
0
0
0
0
0
0
0
0
0
0
0
0
0
0
0
0
0
0
0
0
0
0
0
0
0
0
0
0
0
0
0
0
0
0
0
0
0
0
0
0
0
0
0
0
0
0
0
0
0
0
0
0
0
0
0
0
0
0
0
0
0
0
0
0
0
0
0
0
0
0
0
0
0
0
0
0
0
0
0
0
0
0
0
0
0
0
0
0
0
0
0
0
0
0
0
0
0
0
0
0
0
0
0
0
0
0
0
0
0
0
0
0
0
0
0
0
0
0
0
0
0
0
0
0
0
0
0
0
0
0
0
0
0
0
0
0
0
0
0
0
0
0
0
0
0
0
0
0
0
0
0
0
0
0
0
0
0
0
0
0
0
0
0
0
0
0
0
0
0
0
0
0
0
0
0
0
0
1
1
1
1
1
1
1
1
1
1
1
1
1
1
3
3
3
3
3
3
3
3
3
3
3
3
3
3
2
2
2
2
2
2
2
2
2
2
2
2
2
2
2
2
2
2
2
2
2
2
2
2
2
2
2
2
2
2
2
2
2
2
2
2
2
2
2
2
2
2
2
2
2
2
2
2
2
2
2
2
2
2
2
2
4
4
4
4
4
4
4
4
4
4
4
4
4
4
4
4
4
4
4
4
4
4
4
4
4
4
4
4
4
4
4
4
4
4
4
4
4
4
4
4
4
4
4
4
4
4
4
4
4
4
4
4
4
4
4
4

LOOKUP_TABLE FreeFempp_table 5
1.00000000 0.00000000 0.00000000 1.00000000
1.00000000 1.00000000 0.00000000 1.00000000
1.00000000 0.00000000 1.00000000 1.00000000
0.00000000 1.00000000 0.00000000 1.00000000
0.00000000 1.00000000 1.00000000 1.00000000

POINT_DATA 570
FIELD FieldData 1
Density 1 570 float
2.34798752e-02 2.34770104e-02 5.75126596e-02 2.37120893e-02 2.35141627e-02 2.38324720e-02 2.52104588e-02 3.64344008e-02 2.71891207e-01 2.83982158e-01 4.44780812e-02 2.40587033e-02 2.35053934e-02 3.05593405e-02 7.10622787e-01 5.26740141e-02 2.67785847e-01 6.32760286e-01 3.26686978e-01 7.33235538e-01 5.00563622e-01 2.73438264e-02 6.30773082e-02 1.56487107e-01 1.60535604e-01 9.32845891e-01 4.75232780e-01 8.80425572e-01 9.65604842e-01 9.75644886e-01 8.26215684e-01 9.05661106e-01 5.45078576e-01 8.75048339e-02 3.66332233e-01 3.55416715e-01 4.21165913e-01 9.27735388e-01 9.73837912e-01 9.63272452e-01 9.76533711e-01 9.74449635e-01 9.76530612e-01 9.74829137e-01 7.10592151e-01 3.90969187e-01 7.62992263e-01 9.74140942e-01 8.60110104e-01 9.47550595e-01 9.76652145e-01 9.76237178e-01 9.76651788e-01 9.76652086e-01 9.76651788e-01 9.76652145e-01 9.76652086e-01 9.01344121e-01 9.39706564e-01 9.73640501e-01 9.67491806e-01 9.76651847e-01 9.76407230e-01 9.76644993e-01 9.76651013e-01 9.76651847e-01 9.76651251e-01 9.76651847e-01 9.76526558e-01 9.76651907e-01 9.76651490e-01 9.76650894e-01 9.76651669e-01 9.76651490e-01 9.76650715e-01 9.76651013e-01 9.76651192e-01 9.76650953e-01 9.76652086e-01 9.76651788e-01 9.76615727e-01 9.76651013e-01 9.75662053e-01 9.76651132e-01 9.76650894e-01 9.76650953e-01 9.76651132e-01 9.76651192e-01 9.76648152e-01 9.76638854e-01 9.76646066e-01 9.76563156e-01 9.76561666e-01 9.68334496e-01 9.74656284e-01 9.40986872e-01 9.76651192e-01 9.76651073e-01 9.76642907e-01 9.76637840e-01 9.76651073e-01 9.76546764e-01 9.76463675e-01 9.76622224e-01 9.75843608e-01 9.75695312e-01 9.68412817e-01 9.67526793e-01 8.78293455e-01 9.37444448e-01 7.51886249e-01 9.76642549e-01 9.76634920e-01 9.76651013e-01 9.76384163e-01 9.76525903e-01 9.74723458e-01 9.74570751e-01 9.73676682e-01 9.74960744e-01 9.76518750e-01 9.76387560e-01 9.73808527e-01 5.52714348e-01 9.60249007e-01 9.46356177e-01 9.66069400e-01 9.49993014e-01 8.42109203e-01 8.70963156e-01 8.55699837e-01 5.94800830e-01 8.88382018e-01 9.76270556e-01 9.76219594e-01 9.75269854e-01 9.73629951e-01 9.62379873e-01 9.14287031e-01 9.63234246e-01 9.61091578e-01 9.67225909e-01 9.64448631e-01 9.74565804e-01 9.58733976e-01 9.41515505e-01 9.42132294e-01 3.06647271e-01 8.94935906e-01 9.15402651e-01 3.03660274e-01 7.20036745e-01 6.96828187e-01 7.01854706e-01 4.22720492e-01 7.97784746e-01 7.01076806e-01 8.21909249e-01 9.65834796e-01 9.66767728e-01 9.54561174e-01 9.18984592e-01 8.59595895e-01 9.15121436e-01 9.06623602e-01 9.34987545e-01 9.27883863e-01 9.27925050e-01 9.22968507e-01 9.20888364e-01 8.27946484e-01 8.69481146e-01 8.71478379e-01 1.51620507e-01 7.71684796e-02 7.41686821e-01 5.00026584e-01 2.00199276e-01 4.16982472e-01 3.94910157e-01 5.29356480e-01 6.72733128e-01 5.77149212e-01 3.94046873e-01 5.77597499e-01 8.66479993e-01 9.24924731e-01 9.05458033e-01 8.44674468e-01 8.23043287e-01 8.39751482e-01 7.71582186e-01 8.65724444e-01 8.39418292e-01 7.69777715e-01 8.50995004e-01 7.97778249e-01 6.50413632e-01 7.48242795e-01 7.31206119e-01 7.54744053e-01 4.24403548e-02 9.56181362e-02 3.70814353e-01 2.35309437e-01 1.77980304e-01 2.65881009e-02 2.96323206e-02 5.35133779e-01 2.40566239e-01 3.86839718e-01 2.95084149e-01 2.01006547e-01 2.57366806e-01 7.28722930e-01 6.90977752e-01 5.72935998e-01 5.66823721e-01 6.18053257e-01 5.60984492e-01 4.91895407e-01 6.53108537e-01 6.47804499e-01 6.22832239e-01 5.23652136e-01 6.46932542e-01 4.88286525e-01 3.86235952e-01 5.40292442e-01 3.49318624e-01 4.65764552e-01 4.48184043e-01 2.53702626e-02 8.65012482e-02 4.41355705e-02 1.57141000e-01 9.64211076e-02 2.77477149e-02 8.89833421e-02 2.22570032e-01 3.12500745e-01 8.78148228e-02 1.11843891e-01 1.07019715e-01 4.00730014e-01 3.57688278e-01 2.88589954e-01 2.88642228e-01 1.88121364e-01 2.83823550e-01 3.79852712e-01 4.46611702e-01 3.43435854e-01 2.28698686e-01 3.24703187e-01 2.20186859e-01 1.79183602e-01 2.90491909e-01 1.93631679e-01 2.23267734e-01 2.84207370e-02 2.99311671e-02 4.23983261e-02 4.94319946e-02 2.82017794e-02 3.31508443e-02 4.15821597e-02 1.26290351e-01 6.31835833e-02 4.52441461e-02 5.06567992e-02 1.67654842e-01 1.18174613e-01 1.24662504e-01 1.07207403e-01 1.94660947e-01 2.03274637e-01 1.04864113e-01 1.14306472e-01 1.17816024e-01 1.11548945e-01 7.53305107e-02 1.36150181e-01 3.79809737e-02 3.24222296e-02 3.13618779e-02 2.90630292e-02 3.30671109e-02 3.06759775e-02 3.35860439e-02 2.94181332e-02 4.40971963e-02 3.62534262e-02 3.16709429e-02 6.57582507e-02 4.34336551e-02 3.03595886e-02 4.97337729e-02 1.12576805e-01 9.38305333e-02 6.04622886e-02 4.18684445e-02 5.59830107e-02 4.86939549e-02 4.92896661e-02 4.55540754e-02 5.84897436e-02 3.62971500e-02 3.54136489e-02 3.87121886e-02 3.43577676e-02 3.13306861e-02 3.75760347e-02 3.60679403e-02 3.44163254e-02 3.08217071e-02 2.75689755e-02 3.01850531e-02 2.82537919e-02 2.70556305e-02 2.91480329e-02 4.09746245e-02 3.63318771e-02 2.83042639e-02 2.62209512e-02 3.08424979e-02 3.05098593e-02 2.80541480e-02 2.89509334e-02 3.88659388e-02 4.41637002e-02 4.41637710e-02 4.09263037e-02 4.14936207e-02 4.45713587e-02 3.64708267e-02 3.17635126e-02 2.70343926e-02 2.69864276e-02 2.74580121e-02 2.70297974e-02 2.98072677e-02 2.51117963e-02 2.93508787e-02 2.67196391e-02 3.21132317e-02 3.68800685e-02 4.73671518e-02 4.68270481e-02 4.54221927e-02 5.01738153e-02 5.22852466e-02 3.50364260e-02 4.23333310e-02 3.21401283e-02 2.88387574e-02 2.80220937e-02 3.37147936e-02 2.79091801e-02 3.21809612e-02 3.91198806e-02 4.71090339e-02 5.05562536e-02 5.07305227e-02 4.72200587e-02 5.14796861e-02 3.61656770e-02 4.22638580e-02 3.11303381e-02 2.74163038e-02 2.93512959e-02 3.43854725e-02 3.01891472e-02 3.56787257e-02 4.08274755e-02 5.04014641e-02 4.88873944e-02 5.19104525e-02 5.11295907e-02 4.77855951e-02 3.57264914e-02 4.04691212e-02 3.27112302e-02 3.03487927e-02 3.74030508e-02 4.43480425e-02 4.20560986e-02 3.16785350e-02 3.54482457e-02 4.73549776e-02 4.32015881e-02 4.93398607e-02 4.90318686e-02 5.04158437e-02 4.77194898e-02 3.76064777e-02 4.10545245e-02 3.44658829e-02 4.20164242e-02 3.99743877e-02 3.79809737e-02 3.58081348e-02 3.62971500e-02 3.35691534e-02 5.01806661e-02 3.87121886e-02 4.54459004e-02 5.17070889e-02 5.31943925e-02 5.12301140e-02 4.89140078e-02 4.08566706e-02 4.51651029e-02 4.12934721e-02 4.79791798e-02 4.64220531e-02 5.19247055e-02 4.41637710e-02 4.86093722e-02 5.62784448e-02 5.42327166e-02 5.18697649e-02 5.20386510e-02 4.83070686e-02 5.06022722e-02 4.66001257e-02 5.12094088e-02 5.00171892e-02 5.05562536e-02 5.15742078e-02 4.41637002e-02 5.01062609e-02 5.19421957e-02 5.19104525e-02 5.12301140e-02 4.94486243e-02 3.79809737e-02 4.04152460e-02 3.30671109e-02 4.80381809e-02 4.51850109e-02 4.16290425e-02 4.79741320e-02 4.88746352e-02 4.93812896e-02 4.80381809e-02 4.73671518e-02 5.04158437e-02 4.83070686e-02 4.51850109e-02 3.18290666e-02 3.06759775e-02 4.52060886e-02 3.73501405e-02 4.16463464e-02 4.02929820e-02 4.45975810e-02 4.04152460e-02 3.68391983e-02 3.31508443e-02 3.25255059e-02 3.54849026e-02 3.14030498e-02 3.31771821e-02 3.97237875e-02 3.79809737e-02 3.58081348e-02 3.35691534e-02 2.95118894e-02 3.19561251e-02 2.53702626e-02 2.84207370e-02 2.85409912e-02 2.75671557e-02 2.71408483e-02 3.02326400e-02 2.96323206e-02 4.24403548e-02 2.65881009e-02 7.71684796e-02 2.83446964e-02 2.78425124e-02 2.75418963e-02 3.16785350e-02 2.51826234e-02 3.01891472e-02 3.05814948e-02 3.07202563e-02 2.50249282e-02 2.71622371e-02 2.56186612e-02 8.78293455e-01 7.37486556e-02 5.52714348e-01 7.51886249e-01 1.51620507e-01 3.06647271e-01 2.58950423e-02 2.70892829e-02 2.77394392e-02 2.37311069e-02 2.40461417e-02 2.79091801e-02 4.79922928e-02 2.46984176e-02 2.84934081e-02 2.68938020e-02 4.58562560e-02 6.28098920e-02 9.40986872e-01 4.08124417e-01 9.68334496e-01 4.68257703e-02 2.72214543e-02 4.64966781e-02 2.35141627e-02 2.34770104e-02 2.51117963e-02 2.34798752e-02 2.62209512e-02 5.75126596e-02 9.64663476e-02 2.35053934e-02 4.76552732e-02 1.83019176e-01 2.85678089e-01 4.43734527e-01 3.42236280e-01 7.46805549e-01 9.75662053e-01 1.82163298e-01 3.51057529e-01 3.66898894e-01 1.87965259e-01 3.79852712e-01 4.09746245e-02 9.38305333e-02 2.71891207e-01 6.47804499e-01 7.10622787e-01 1.94660947e-01 8.39418292e-01 9.27925050e-01 9.32845891e-01 6.30773082e-02 4.39260393e-01 6.47463024e-01 9.33234513e-01 9.09258664e-01 9.76615727e-01 8.71987581e-01 7.45544672e-01 6.98476136e-01 9.39706564e-01 9.64448631e-01 9.76526558e-01 9.73837912e-01 7.62992263e-01 3.66332233e-01 9.58397985e-01 9.76652145e-01 9.76651490e-01 9.63765264e-01 9.76652086e-01 8.91881347e-01 9.74960744e-01 9.76638854e-01 9.76651847e-01 9.76651788e-01 9.76463675e-01 
