# vtk DataFile Version 2.0
results_case1/1616747557/sol_toll1e-05_vf0.3_iter6.vtk, Created by Freefem++ 
ASCII
DATASET UNSTRUCTURED_GRID
POINTS 666 float
0 0.60701909 0
0 0.61976379 0
0 0.63146408 0
0 0.5786372 0
0 0.59312916 0
0 0.56904724 0
0.0059262476 0.60351105 0
0 0.64281781 0
0 0.32012929 0
0 0.33477719 0
0 0.34865576 0
0 0.36204412 0
0 0.3763098 0
0 0.39177613 0
0 0.2743366 0
0 0.28941796 0
0 0.30479021 0
0 0.24502468 0
0 0.25950022 0
0 0.23068883 0
0.0063550985 0.64515208 0
0.0059373942 0.57733128 0
0 0.56106136 0
0.010854364 0.60032683 0
0 0.54432536 0
0 0.55309017 0
0 0.6664518 0
0 0.67876665 0
0 0.69160402 0
0 0.65447655 0
0 0.70516878 0
0.006782352 0.69284696 0
0.0066822978 0.35684049 0
0 0.42271973 0
0.0048915205 0.39138057 0
0 0.43175179 0
0 0.40805063 0
0.0067634635 0.31393397 0
0.012672382 0.36657311 0
0.006905613 0.27436456 0
0 0.21665165 0
0 0.20278313 0
0.012601996 0.64550959 0
0.010010231 0.56931275 0
0.015727873 0.59684859 0
0 0.53496862 0
0.010404483 0.55418875 0
0 0.71948822 0
0 0.7345968 0
0 0.74978942 0
0 0.76452072 0
0.009335324 0.72221994 0
0 0.43828674 0
0 0.44594856 0
0 0.45498952 0
0.010155852 0.4072443 0
0.0059240469 0.42847205 0
0.01543357 0.41098232 0
0.012362148 0.31099859 0
0.017391149 0.36473491 0
0 0.17385703 0
0.0091559587 0.25185485 0
0 0.18885125 0
0 0.5248718 0
0 0.10764607 0
0 0.13988153 0
0 0.15732397 0
0 0.088906136 0
0 0.12371521 0
0.017656757 0.64153002 0
0.017964131 0.57252778 0
0.021296141 0.5967227 0
0.011539717 0.54417134 0
0.0080731363 0.53090046 0
0.020334764 0.56079805 0
0 0.77880504 0
0 0.79264139 0
0 0.80683165 0
0 0.8222877 0
0.017713893 0.6849548 0
0.01242796 0.7560138 0
0 0.47488455 0
0 0.4645785 0
0.0090604703 0.45070005 0
0.012479254 0.43585458 0
0.018575892 0.43550309 0
0.020875341 0.41042986 0
0.01733415 0.3116355 0
0.023272774 0.38054469 0
0.011486466 0.23142882 0
0 0.51338893 0
0 0.48708283 0
0 0.50058253 0
0.0096382628 0.47601059 0
0 0.057117849 0
0.011513541 0.17553658 0
0 0 0
0.024547365 0.62599656 0
0.026430336 0.58552673 0
0.019006856 0.54288465 0
0.029138496 0.56517798 0
0 0.83913666 0
0 0.8584789 0
0.024210576 0.67516059 0
0.010552529 0.82394569 0
0.021053643 0.74096624 0
0.015937473 0.4637972 0
0.018448587 0.45221666 0
0.024839068 0.44266829 0
0.02808163 0.42144729 0
0.022629989 0.31546768 0
0.028932793 0.37204308 0
0.020971405 0.24699339 0
0.015058387 0.52231155 0
0.0090090982 0.48994351 0
0.012863133 0.50488137 0
0.020881125 0.47555913 0
0.020113103 0.14626002 0
0.021633605 0 0
0.033306525 0.6266065 0
0.035075228 0.59251913 0
0.032333667 0.54706735 0
0.040599551 0.57976079 0
0 0.88372336 0
0.031504829 0.69361554 0
0 0.92537391 0
0.020365192 0.8190568 0
0.04424796 0.6704121 0
0.028792029 0.45834989 0
0.035658356 0.43896958 0
0.036348694 0.39656212 0
0.032392483 0.30011468 0
0.034529014 0.47738921 0
0.030517532 0.51452012 0
0.024528212 0.49288085 0
0.055070762 0 0
0.045070599 0.20053872 0
0.049217745 0.62493473 0
0.045545522 0.53849292 0
0.053867642 0.58071193 0
0.040061205 0.7484561 0
0 1 0
0.013358057 0.92710787 0
0.03470772 0.86703304 0
0.064643422 0.70375314 0
0.044714398 0.45796757 0
0.048063619 0.41626016 0
0.047489214 0.34534862 0
0.050291483 0.49810549 0
0.11264225 0 0
0.21720013 0 0
0.081514032 0.17500366 0
0.071638307 0.32173882 0
0.077685908 0.6237588 0
0.073331046 0.5527664 0
0.058028048 0.81367235 0
0.021633605 1 0
0.055070762 1 0
0.10429435 0.69967909 0
0.092980085 0.8176664 0
1 0 0
0.40147775 0 0
0.68548152 0 0
0.33445039 0.1029096 0
1 0.057117849 0
1 0.088906136 0
0.066696339 0.45501059 0
0.069291386 0.40160763 0
0.090028069 0.50911349 0
0.23094021 0.1765263 0
0.14661456 0.16781631 0
0.10900457 0.29698149 0
0.14150446 0.62448377 0
0.11264225 1 0
0.16575422 0.79836283 0
0.26607516 0.76069915 0
0.73070475 0.07500966 0
0.49230859 0.1020788 0
0.3436563 0.19230043 0
1 0.10764607 0
0.7994103 0.11143743 0
1 0.12371521 0
0.11594256 0.41479562 0
0.25501884 0.28499714 0
0.14893086 0.5058952 0
0.1710263 0.30409085 0
0.20353805 0.51783051 0
0.22360799 0.63218625 0
0.21720013 1 0
0.26056296 0.866801 0
0.32980345 0.73986529 0
0.42400705 0.79217513 0
0.41160567 0.88976303 0
0.46203933 0.84903373 0
0.59233512 0.13224198 0
0.46058844 0.17170245 0
0.69947329 0.14242429 0
0.3762393 0.24240961 0
0.46706486 0.20577476 0
0.84133789 0.1395161 0
1 0.13988153 0
0.30645712 0.31788908 0
0.21899562 0.41415596 0
0.28554374 0.39693634 0
0.25919296 0.56054975 0
0.31211163 0.66871407 0
0.40147775 1 0
0.40766463 0.74356262 0
0.51036351 0.80968377 0
0.68548152 1 0
0.62615194 0.87350328 0
0.37080065 0.29734447 0
0.57235883 0.17399709 0
0.68855738 0.1666921 0
0.50668892 0.21797335 0
0.43024483 0.25551406 0
0.78332911 0.16248898 0
0.8839145 0.15890524 0
1 0.15732397 0
0.33617325 0.35850367 0
0.28207794 0.47614089 0
0.32186204 0.42579876 0
0.29764509 0.54596735 0
0.31598214 0.62482054 0
0.39643372 0.69971025 0
0.60056275 0.82587858 0
0.49917652 0.76998826 0
1 1 0
0.77451335 0.932494 0
0.79203021 0.89038632 0
0.4818533 0.73987041 0
0.71352727 0.84820665 0
0.37831071 0.33176134 0
0.42411798 0.29520062 0
0.69215843 0.1852548 0
0.58851834 0.2019655 0
0.4980307 0.24753491 0
0.71747695 0.19548359 0
1 0.17385703 0
0.80006332 0.18002432 0
0.89863189 0.17601366 0
0.36247687 0.38222477 0
0.34903366 0.43818309 0
0.32553817 0.49520385 0
0.32675006 0.59617241 0
0.32865801 0.55117925 0
0.41810811 0.68745148 0
0.36223585 0.64003868 0
0.60379299 0.80545826 0
0.5691201 0.77770495 0
1 0.92537391 0
0.85156401 0.87076759 0
0.48068201 0.7191963 0
0.545916 0.75108779 0
0.7863235 0.83809304 0
0.68836038 0.817469 0
0.40076525 0.34803764 0
0.47498434 0.27831982 0
0.44033294 0.31660296 0
0.53079567 0.2594413 0
0.63298758 0.21215507 0
0.5663647 0.22980775 0
0.67004061 0.21922948 0
0.75626514 0.2028432 0
1 0.18885125 0
0.9184511 0.19011937 0
0.84060291 0.19410259 0
0.38447481 0.40462449 0
0.36278562 0.47472349 0
0.3547681 0.52948619 0
0.43166453 0.67080068 0
0.35999153 0.58749133 0
0.3869292 0.63250992 0
0.38026942 0.5642788 0
0.63783409 0.78954189 0
0.44267009 0.65795284 0
1 0.88372336 0
0.88878578 0.8502558 0
0.63392304 0.77390764 0
0.55406972 0.73807892 0
0.4931911 0.7034091 0
0.82007465 0.824944 0
0.72949621 0.80790764 0
1 0.20278313 0
0.42187115 0.36217504 0
0.49139158 0.29390797 0
0.4553501 0.33120813 0
0.53454751 0.28469805 0
0.5899458 0.24490594 0
0.63646408 0.24176473 0
0.70665962 0.22656671 0
0.78959985 0.21283865 0
0.89660687 0.20608815 0
0.81800604 0.21959624 0
0.41138106 0.40728704 0
0.38860423 0.45734694 0
0.42719444 0.41627187 0
0.38638161 0.51541003 0
0.40853365 0.61473075 0
0.40754969 0.56751504 0
0.46844097 0.65862021 0
1 0.8584789 0
0.90969581 0.83385878 0
0.61962349 0.75508831 0
0.7052093 0.78281494 0
0.54402197 0.71514182 0
0.85847103 0.81362387 0
0.78608341 0.80488838 0
1 0.21665165 0
0.93059509 0.21792103 0
1 0.23068883 0
0.45235455 0.36710665 0
0.48888983 0.32420687 0
0.54358002 0.29906433 0
0.59506644 0.26753141 0
0.65767516 0.25306847 0
0.72985213 0.23747448 0
0.86107925 0.22572785 0
0.78507078 0.23495614 0
0.41059367 0.46862098 0
0.45357198 0.39962613 0
0.44029421 0.44066402 0
0.41564063 0.52062491 0
0.42954864 0.55987176 0
0.44032578 0.60560819 0
0.47453993 0.63918401 0
0.51352705 0.68315895 0
1 0.83913666 0
0.93183535 0.82053201 0
0.76347719 0.78702785 0
0.63361183 0.74729632 0
0.70880931 0.76457708 0
0.57177083 0.71371992 0
0.91142762 0.80463616 0
0.83516543 0.79652064 0
0.90921709 0.23398916 0
1 0.24502468 0
0.92964208 0.24549492 0
0.47968673 0.37687288 0
0.50251721 0.33904134 0
0.58086496 0.29410231 0
0.54234836 0.32488414 0
0.62289524 0.28112338 0
0.67620655 0.26547183 0
0.74259537 0.25309686 0
0.81782377 0.24434904 0
0.70636116 0.27296143 0
0.43442652 0.49003793 0
0.45655002 0.45733499 0
0.47514221 0.41570736 0
0.4563439 0.58003293 0
0.44779138 0.53535147 0
0.48502796 0.62144504 0
0.52149987 0.66904223 0
1 0.8222877 0
0.79421048 0.77955175 0
0.63960506 0.73372106 0
0.74400424 0.76352229 0
1 0.80683165 0
0.53571448 0.65842171 0
0.57699291 0.69724793 0
0.93156042 0.79366157 0
0.86112126 0.78292129 0
0.85455707 0.25270301 0
1 0.25950022 0
0.91038215 0.26077996 0
0.51003584 0.37009005 0
0.54877426 0.3435382 0
0.592563 0.31346108 0
0.65162588 0.29320796 0
0.77069517 0.26620158 0
0.71167808 0.28834983 0
0.48932487 0.59668718 0
0.50356361 0.41468309 0
0.46096915 0.49639539 0
0.48068919 0.45616902 0
0.47771253 0.56167675 0
0.47418961 0.52873798 0
0.52806617 0.62684495 0
0.63023364 0.71305523 0
0.78926553 0.76253178 0
0.70304939 0.74200754 0
1 0.79264139 0
0.58584253 0.67548082 0
0.9203908 0.77835711 0
0.84475004 0.76271022 0
0.57120429 0.6427017 0
0.81854893 0.27051427 0
0.85401512 0.27630953 0
1 0.2743366 0
0.92183049 0.27509201 0
0.53604025 0.38026537 0
0.57785676 0.34718245 0
0.66525996 0.30873446 0
0.6211093 0.32591419 0
0.75793628 0.28981151 0
0.70461172 0.31027529 0
0.53023986 0.4203891 0
0.50936152 0.58178992 0
0.50468906 0.46053346 0
0.48903896 0.49935001 0
0.50083292 0.54220429 0
0.5727593 0.62005522 0
0.54009052 0.60091665 0
0.52407808 0.46774765 0
0.66173104 0.70987687 0
0.75004056 0.73894112 0
1 0.77880504 0
0.62606535 0.6764242 0
0.81380752 0.74374273 0
0.92525846 0.76373606 0
0.87616552 0.75136713 0
0.59057035 0.61378497 0
0.6148828 0.64766245 0
0.80057064 0.2926458 0
1 0.28941796 0
0.85765419 0.29188093 0
0.92576189 0.28997102 0
0.5654434 0.38286254 0
0.60688786 0.3561355 0
0.65371274 0.33515957 0
0.69514412 0.32992343 0
0.749407 0.3134584 0
0.56444556 0.41347106 0
0.54600119 0.44238988 0
0.52942872 0.55985382 0
0.51617966 0.51216826 0
0.56331886 0.58385245 0
0.54895677 0.47339953 0
0.53875946 0.50350088 0
0.6931217 0.70602447 0
0.75634624 0.72620764 0
1 0.76452072 0
0.66575087 0.67643001 0
0.79091725 0.72211108 0
0.85219233 0.73455229 0
0.93212893 0.74443 0
0.60554206 0.59949375 0
0.62411632 0.62888447 0
0.65749425 0.64975978 0
0.81037771 0.30932949 0
0.93776665 0.3037329 0
1 0.30479021 0
0.87498233 0.30635558 0
0.59756982 0.38615963 0
0.59738161 0.41255014 0
0.63658674 0.36535325 0
0.67733146 0.35169413 0
0.7245454 0.33736453 0
[...]
CELL_DATA 1330
Scalars  Label int 1
LOOKUP_TABLE FreeFempp_table
0
0
0
0
0
0
0
0
0
0
0
0
0
0
0
0
0
0
0
0
0
0
0
0
0
0
0
0
0
0
0
0
0
0
0
0
0
0
0
0
0
0
0
0
0
0
0
0
0
0
0
0
0
0
0
0
0
0
0
0
0
0
0
0
0
0
0
0
0
0
0
0
0
0
0
0
0
0
0
0
0
0
0
0
0
0
0
0
0
0
0
0
0
0
0
0
0
0
0
0
0
0
0
0
0
0
0
0
0
0
0
0
0
0
0
0
0
0
0
0
0
0
0
0
0
0
0
0
0
0
0
0
0
0
0
0
0
0
0
0
0
0
0
0
0
0
0
0
0
0
0
0
0
0
0
0
0
0
0
0
0
0
0
0
0
0
0
0
0
0
0
0
0
0
0
0
0
0
0
0
0
0
0
0
0
0
0
0
0
0
0
0
0
0
0
0
0
0
0
0
0
0
0
0
0
0
0
0
0
0
0
0
0
0
0
0
0
0
0
0
0
0
0
0
0
0
0
0
0
0
0
0
0
0
0
0
0
0
0
0
0
0
0
0
0
0
0
0
0
0
0
0
0
0
0
0
0
0
0
0
0
0
0
0
0
0
0
0
0
0
0
0
0
0
0
0
0
0
0
0
0
0
0
0
0
0
0
0
0
0
0
0
0
0
0
0
0
0
0
0
0
0
0
0
0
0
0
0
0
0
0
0
0
0
0
0
0
0
0
0
0
0
0
0
0
0
0
0
0
0
0
0
0
0
0
0
0
0
0
0
0
0
0
0
0
0
0
0
0
0
0
0
0
0
0
0
0
0
0
0
0
0
0
0
0
0
0
0
0
0
0
0
0
0
0
0
0
0
0
0
0
0
0
0
0
0
0
0
0
0
0
0
0
0
0
0
0
0
0
0
0
0
0
0
0
0
0
0
0
0
0
0
0
0
0
0
0
0
0
0
0
0
0
0
0
0
0
0
0
0
0
0
0
0
0
0
0
0
0
0
0
0
0
0
0
0
0
0
0
0
0
0
0
0
0
0
0
0
0
0
0
0
0
0
0
0
0
0
0
0
0
0
0
0
0
0
0
0
0
0
0
0
0
0
0
0
0
0
0
0
0
0
0
0
0
0
0
0
0
0
0
0
0
0
0
0
0
0
0
0
0
0
0
0
0
0
0
0
0
0
0
0
0
0
0
0
0
0
0
0
0
0
0
0
0
0
0
0
0
0
0
0
0
0
0
0
0
0
0
0
0
0
0
0
0
0
0
0
0
0
0
0
0
0
0
0
0
0
0
0
0
0
0
0
0
0
0
0
0
0
0
0
0
0
0
0
0
0
0
0
0
0
0
0
0
0
0
0
0
0
0
0
0
0
0
0
0
0
0
0
0
0
0
0
0
0
0
0
0
0
0
0
0
0
0
0
0
0
0
0
0
0
0
0
0
0
0
0
0
0
0
0
0
0
0
0
0
0
0
0
0
0
0
0
0
0
0
0
0
0
0
0
0
0
0
0
0
0
0
0
0
0
0
0
0
0
0
0
0
0
0
0
0
0
0
0
0
0
0
0
0
0
0
0
0
0
0
0
0
0
0
0
0
0
0
0
0
0
0
0
0
0
0
0
0
0
0
0
0
0
0
0
0
0
0
0
0
0
0
0
0
0
0
0
0
0
0
0
0
0
0
0
0
0
0
0
0
0
0
0
0
0
0
0
0
0
0
0
0
0
0
0
0
0
0
0
0
0
0
0
0
0
0
0
0
0
0
0
0
0
0
0
0
0
0
0
0
0
0
0
0
0
0
0
0
0
0
0
0
0
0
0
0
0
0
0
0
0
0
0
0
0
0
0
0
0
0
0
0
0
0
0
0
0
0
0
0
0
0
0
0
0
0
0
0
0
0
0
0
0
0
0
0
0
0
0
0
0
0
0
0
0
0
0
0
0
0
0
0
0
0
0
0
0
0
0
0
0
0
0
0
0
0
0
0
0
0
0
0
0
0
0
0
0
0
0
0
0
0
0
0
0
0
0
0
0
0
0
0
0
0
0
0
0
0
0
0
0
0
0
0
0
0
0
0
0
0
0
0
0
0
0
0
0
0
0
0
0
0
0
0
0
0
0
0
0
0
0
0
0
0
0
0
0
0
0
0
0
0
0
0
0
0
0
0
0
0
0
0
0
0
0
0
0
0
0
0
0
0
0
0
0
0
0
0
0
0
0
0
0
0
0
0
0
0
0
0
0
0
0
0
0
0
0
0
0
0
0
0
0
0
0
0
0
0
0
0
0
0
0
0
0
0
0
0
0
0
0
0
0
0
0
0
0
0
0
0
0
0
0
0
0
0
0
0
0
0
0
0
0
0
0
0
0
0
0
0
0
0
0
0
0
0
0
0
0
0
0
0
0
0
0
0
0
0
0
0
0
0
0
0
0
0
0
0
0
0
0
0
0
0
0
0
0
0
0
0
0
0
0
0
0
0
0
0
0
0
0
0
0
0
0
0
0
0
0
0
0
0
0
0
0
0
0
0
0
0
0
0
0
0
0
0
0
0
0
0
0
0
0
0
0
0
0
0
0
0
0
0
0
0
0
0
0
0
0
0
0
0
0
0
0
0
0
0
0
0
0
0
0
0
0
0
0
0
0
0
0
0
0
0
0
0
0
0
0
0
0
0
0
0
0
0
0
0
0
0
0
0
0
1
1
1
1
1
1
1
3
3
3
3
3
3
3
2
2
2
2
2
2
2
2
2
2
2
2
2
2
2
2
2
2
2
2
2
2
2
2
2
2
2
2
2
2
2
2
2
2
2
2
2
2
2
2
2
2
2
2
2
2
2
2
2
2
2
2
2
2
2
2
2
2
2
2
2
2
2
4
4
4
4
4
4
4
4
4
4
4
4
4
4
4
4
4
4
4
4
4
4
4
4
4
4
4
4
4
4
4
4
4
4
4
4
4
4
4
4
4
4
4
4
4
4
4
4
4
4
4
4
4
4
4
4
4
4
4
4
4
4
4

LOOKUP_TABLE FreeFempp_table 5
1.00000000 0.00000000 0.00000000 1.00000000
1.00000000 1.00000000 0.00000000 1.00000000
1.00000000 0.00000000 1.00000000 1.00000000
0.00000000 1.00000000 0.00000000 1.00000000
0.00000000 1.00000000 1.00000000 1.00000000

POINT_DATA 666
FIELD FieldData 1
Density 1 666 float
9.99985397e-01 9.99974489e-01 9.99962687e-01 9.99989569e-01 9.99989569e-01 9.99972701e-01 9.80224073e-01 9.99877691e-01 9.97172177e-01 9.99260187e-01 9.99816000e-01 9.99934614e-01 9.99963820e-01 9.99986827e-01 2.84875214e-01 8.29438090e-01 9.84238088e-01 7.31144939e-03 3.28387432e-02 2.27163010e-03 7.99311757e-01 9.79296565e-01 9.99898911e-01 2.76661217e-01 6.21829089e-03 8.89373183e-01 9.99308169e-01 9.98367131e-01 9.87171471e-01 9.99697208e-01 8.98007631e-01 9.03524533e-02 6.93601012e-01 9.99989569e-01 9.87356067e-01 9.99989569e-01 9.99989033e-01 1.03370190e-01 3.12698074e-03 9.43978317e-04 6.99597469e-04 1.97171641e-04 3.69734690e-03 3.68623227e-01 3.07550840e-03 1.47449391e-04 1.09769974e-03 4.72437471e-01 7.96560198e-02 1.78384800e-02 3.95300705e-03 2.19728507e-04 9.99926805e-01 9.86343384e-01 1.07048620e-02 3.85469675e-01 9.80896354e-01 2.80343438e-03 1.90638049e-04 4.40775999e-04 4.60039373e-05 2.08311016e-04 7.49603860e-05 1.57777340e-05 1.05687350e-05 1.32408459e-05 2.20801230e-05 1.05687395e-05 1.07570231e-05 2.83240079e-04 2.64001632e-04 2.44708848e-04 1.39619488e-05 1.25165634e-05 1.75553469e-05 8.80314969e-04 1.78473187e-04 1.08064305e-04 6.06476497e-05 5.69668628e-05 3.68322908e-05 1.48225372e-05 7.29061867e-05 9.62821767e-03 6.69258013e-02 2.83998583e-04 3.20448453e-04 3.69207082e-05 2.22596500e-05 1.93017950e-05 1.05688678e-05 1.05688632e-05 1.05688678e-05 1.05688678e-05 1.05687477e-05 1.10001629e-05 1.05686950e-05 1.05688714e-05 2.67206542e-05 1.05688787e-05 1.21387420e-05 2.54795850e-05 1.48231147e-05 1.05688650e-05 1.05688287e-05 1.05688578e-05 1.22386564e-05 5.51802077e-05 7.46236328e-05 1.05688760e-05 1.19722845e-05 1.05688723e-05 1.05688468e-05 1.05688778e-05 1.05688705e-05 1.05688705e-05 1.05688760e-05 1.05688468e-05 1.05688450e-05 1.05688778e-05 1.05688860e-05 1.05688732e-05 1.05688741e-05 1.05687413e-05 1.05688650e-05 1.05687086e-05 1.05688459e-05 1.05688541e-05 1.05688796e-05 1.05688805e-05 1.05688778e-05 1.05688605e-05 1.05688714e-05 1.05688714e-05 1.05688705e-05 1.05687086e-05 1.05688096e-05 1.05688487e-05 1.05688605e-05 1.05688587e-05 1.05688205e-05 1.05686950e-05 1.05688559e-05 1.05688250e-05 1.05688086e-05 1.05688732e-05 1.05688523e-05 1.05688478e-05 1.05688487e-05 1.05686267e-05 1.05684376e-05 1.05687823e-05 1.05687823e-05 1.05687723e-05 1.05687686e-05 1.05687950e-05 1.05688450e-05 1.05687086e-05 1.05687213e-05 1.05687805e-05 1.05686950e-05 1.05683057e-05 1.05684894e-05 1.05687332e-05 1.05687477e-05 1.05687395e-05 1.05687859e-05 1.05687795e-05 1.05686986e-05 1.05686595e-05 1.05687323e-05 1.05687004e-05 1.05686413e-05 1.05686267e-05 1.05687295e-05 1.05686213e-05 1.05686213e-05 1.05686240e-05 1.05686358e-05 1.05687350e-05 1.05685995e-05 1.07570231e-05 1.05686804e-05 1.05686540e-05 1.05686249e-05 1.05686058e-05 1.05686022e-05 1.05685403e-05 1.05684376e-05 1.05687113e-05 1.05686358e-05 1.05686104e-05 1.05686522e-05 1.05686922e-05 1.05686458e-05 1.05686304e-05 1.05686649e-05 1.07230208e-05 1.05686058e-05 1.05686277e-05 1.32408459e-05 1.05687323e-05 1.05686122e-05 1.05687041e-05 1.09238163e-05 1.10758174e-05 1.05683057e-05 1.11536719e-05 1.11494355e-05 1.05684894e-05 1.05686622e-05 1.22268502e-05 1.05685840e-05 1.52305447e-05 1.73070603e-05 1.27873263e-05 1.54662321e-05 2.10494145e-05 2.20801230e-05 1.56307578e-05 1.30287744e-05 1.91811523e-05 1.26765808e-05 1.42566441e-05 2.01707226e-05 1.07661763e-05 1.67735034e-05 1.05686950e-05 1.05686504e-05 1.05686013e-05 2.69518932e-05 1.27667863e-05 2.34711097e-05 2.57675692e-05 2.25410276e-05 2.13485073e-05 2.33536393e-05 4.32650668e-05 4.60039373e-05 3.52526076e-05 3.25383153e-05 3.44019900e-05 3.17724771e-05 2.58543969e-05 1.69609411e-05 2.53209218e-05 2.71791432e-05 2.06788191e-05 1.77990823e-05 2.48038250e-05 1.05687086e-05 1.05686040e-05 4.04073762e-05 5.67276911e-05 1.76054346e-05 1.89270668e-05 4.06836480e-05 3.93208829e-05 4.14276583e-05 7.01888566e-05 3.25746223e-05 3.05083922e-05 6.80598314e-05 6.40216458e-05 7.49603860e-05 7.77495297e-05 5.81619825e-05 6.32703304e-05 6.18515041e-05 4.38775169e-05 5.83733890e-05 3.99805358e-05 4.43346617e-05 5.45905350e-05 3.22645210e-05 9.24340638e-05 1.05687413e-05 1.29289592e-05 6.59289872e-05 8.87666465e-05 8.61794761e-05 2.54402130e-05 4.22752601e-05 1.97171641e-04 6.12287404e-05 6.40628132e-05 9.25121203e-05 1.19213320e-04 9.11778843e-05 1.41398719e-04 1.26253915e-04 1.10372370e-04 2.17665191e-04 2.54307059e-04 1.04766063e-04 8.55546241e-05 1.43528116e-04 8.54116006e-05 8.38421984e-05 1.37578259e-04 1.42779652e-04 1.48231147e-05 2.95017635e-05 1.16515708e-04 9.21781830e-05 1.25372651e-04 4.75424749e-05 5.20240283e-05 6.99597469e-04 3.76088690e-04 2.27163010e-03 1.85310782e-04 2.00092807e-04 2.16668035e-04 1.91088198e-04 2.58183252e-04 2.36996071e-04 4.35327238e-04 5.82138659e-04 1.45429978e-04 4.22662735e-04 4.25677485e-04 2.90676224e-04 3.77485179e-04 1.53893343e-04 2.06708733e-04 1.93440574e-04 2.54795850e-05 4.74365297e-05 8.81197411e-05 1.68240149e-04 1.57720919e-04 1.88288104e-04 7.76073430e-05 1.44160702e-04 9.54245159e-04 7.31144939e-03 4.18190798e-03 5.35162573e-04 3.58681602e-04 3.22818611e-04 5.47641423e-04 3.99139652e-04 5.31149504e-04 1.24157628e-03 1.82584196e-03 2.53557344e-03 4.83927666e-04 1.18125137e-03 1.14718941e-03 4.86630597e-04 8.81259213e-04 6.83565624e-04 3.12674034e-04 6.06476497e-05 1.94161898e-04 2.89593474e-04 3.90614354e-04 1.08064305e-04 9.73370450e-04 6.92087051e-04 2.13352774e-04 2.62500951e-04 3.47817154e-03 3.28387432e-02 3.24986279e-02 8.21611087e-04 1.16260024e-03 2.22378387e-03 2.58592120e-03 5.56764100e-03 1.15583390e-02 2.12879805e-03 3.48720187e-03 1.36197347e-03 3.44099267e-03 1.56297570e-03 2.18855054e-03 3.18605942e-03 1.12560613e-03 7.39999698e-04 8.93447606e-04 1.78473187e-04 3.37895518e-03 8.13027029e-04 7.53178261e-04 9.03023314e-03 1.61535013e-02 7.41876513e-02 2.84875214e-01 1.92536131e-01 6.33452041e-03 7.47816963e-03 1.61441993e-02 1.48669519e-02 4.02816609e-02 1.03643611e-01 1.27274375e-02 7.59747904e-03 1.05719147e-02 3.97771271e-03 5.06870635e-03 2.58118063e-02 1.80395413e-02 2.82582976e-02 3.34825786e-03 2.64559430e-03 8.80314969e-04 1.25608714e-02 3.25360801e-03 2.51068780e-03 3.70601122e-03 1.24928355e-01 4.66884971e-02 1.84041843e-01 8.29438090e-01 4.72696066e-01 6.72239959e-01 3.32884975e-02 6.19988479e-02 7.70842358e-02 3.11536372e-01 3.53202820e-01 9.37063321e-02 7.83603862e-02 2.11675167e-02 2.51108240e-02 9.45355594e-02 1.83250189e-01 1.44829825e-01 1.00916894e-02 7.83641357e-03 3.95300705e-03 4.25357036e-02 2.22975705e-02 3.29536982e-02 1.25553226e-02 4.94385689e-01 2.78675735e-01 2.99405545e-01 7.82216012e-01 9.50507641e-01 9.84238088e-01 9.15268660e-01 1.91064686e-01 5.02875507e-01 3.43211383e-01 6.05483174e-01 7.98250914e-01 9.02992964e-01 4.65552390e-01 1.92522034e-01 5.03524065e-01 6.01350248e-01 4.81750131e-01 8.26461613e-01 3.20966542e-02 1.78384800e-02 7.61236846e-02 2.32604370e-01 7.96560198e-02 1.70132697e-01 1.85729727e-01 2.16063961e-01 8.91744673e-01 8.20461571e-01 7.69017935e-01 9.97172177e-01 9.82905865e-01 9.89808977e-01 7.11281717e-01 9.18736458e-01 8.98184776e-01 9.59264934e-01 9.78999197e-01 9.91456151e-01 9.19973671e-01 8.94865215e-01 7.95478940e-01 9.30678427e-01 9.74284351e-01 4.06032115e-01 6.93573952e-01 4.72437471e-01 5.99985063e-01 7.63853908e-01 8.72008681e-01 9.76263046e-01 9.72667098e-01 9.87190604e-01 9.62609053e-01 9.99816000e-01 9.98608708e-01 9.99260187e-01 9.97668505e-01 9.71130371e-01 9.92298126e-01 9.94217336e-01 9.94160712e-01 9.98189449e-01 9.90237772e-01 9.86342192e-01 9.85138297e-01 9.97525215e-01 9.21279430e-01 8.98007631e-01 9.44374442e-01 9.64103043e-01 9.97327864e-01 9.87171471e-01 9.93712544e-01 9.97411072e-01 9.91296053e-01 9.93992448e-01 9.97025907e-01 9.95827317e-01 9.99934614e-01 9.99862909e-01 9.99693811e-01 9.99507248e-01 9.98043537e-01 9.99318957e-01 9.99113739e-01 9.99404311e-01 9.97724473e-01 9.96549904e-01 9.99494493e-01 9.90155578e-01 9.98153448e-01 9.99513090e-01 9.99108255e-01 9.98367131e-01 9.98378992e-01 9.99246955e-01 9.98619616e-01 9.99963820e-01 9.99190867e-01 9.99964774e-01 9.99904692e-01 9.99766469e-01 9.99524593e-01 9.99752462e-01 9.99838591e-01 9.99490023e-01 9.99823511e-01 9.99465227e-01 9.99767363e-01 9.99819994e-01 9.99725640e-01 9.99308169e-01 9.99421954e-01 9.99878943e-01 9.99807656e-01 9.99989033e-01 9.99986827e-01 9.99886274e-01 9.99985158e-01 9.99962986e-01 9.99936044e-01 9.99932170e-01 9.99959826e-01 9.99878585e-01 9.99938607e-01 9.99697208e-01 9.99780715e-01 9.99939680e-01 9.99962807e-01 9.99927223e-01 9.99905109e-01 9.99989569e-01 9.99989569e-01 9.99989569e-01 9.99950051e-01 9.99989510e-01 9.99985814e-01 9.99977827e-01 9.99951065e-01 9.99965787e-01 9.99877691e-01 9.99980450e-01 9.99988377e-01 9.99962687e-01 9.99962568e-01 9.99926805e-01 9.99982834e-01 9.99988735e-01 9.86343384e-01 9.99988854e-01 9.99983907e-01 9.99979317e-01 9.99989390e-01 9.99989092e-01 9.99989033e-01 9.99989450e-01 9.99974489e-01 9.99982119e-01 9.99558270e-01 9.99947846e-01 9.71168160e-01 1.07048620e-02 9.99989569e-01 9.99987364e-01 9.99989569e-01 9.99989569e-01 9.99989569e-01 9.99989569e-01 9.99985397e-01 9.98193324e-01 9.99732137e-01 9.99989569e-01 7.29729682e-02 9.22592580e-01 7.29061867e-05 9.99989569e-01 9.99989569e-01 9.99988317e-01 9.99989390e-01 9.99988675e-01 9.99989569e-01 9.99989569e-01 9.96872485e-01 9.99775350e-01 9.99932408e-01 3.61594677e-01 3.18163112e-02 1.48225372e-05 9.99932349e-01 9.99989569e-01 9.99984086e-01 9.99980927e-01 9.99972522e-01 9.99819934e-01 9.83857989e-01 9.99436319e-01 2.01200277e-01 6.68737455e-04 1.05688632e-05 9.99533892e-01 8.82951379e-01 9.99972701e-01 9.99701142e-01 9.99721348e-01 9.99951422e-01 1.05688678e-05 9.97163057e-01 1.66073099e-01 1.32718207e-02 1.10051857e-04 1.99175032e-04 5.54527164e-01 5.72213111e-03 9.99898911e-01 9.75024641e-01 9.93068814e-01 1.05688678e-05 1.88642323e-01 1.06393208e-03 2.14746251e-04 1.73007813e-03 8.89373183e-01 4.80714738e-01 1.57777340e-05 8.41847993e-03 3.20702791e-04 6.21829089e-03 1.47449391e-04 
