# vtk DataFile Version 2.0
results_case1/1616747557/sol_toll1e-05_vf0.3_iter9.vtk, Created by Freefem++ 
ASCII
DATASET UNSTRUCTURED_GRID
POINTS 522 float
0 0.34154622 0
0 0.64921501 0
0 0.66847288 0
0 0.62191073 0
0 0.59439069 0
0 0.69252502 0
0 0.68215484 0
0 0.391859 0
0 0.36418313 0
0 0.7006611 0
0 0.70740478 0
0 0.7152616 0
0 0.72455431 0
0.003818878 0.36743059 0
0 0.32454161 0
0 0.7315179 0
0 0.73774355 0
0 0.7458237 0
0.004298748 0.62873061 0
0.0040786406 0.59605648 0
0 0.57618887 0
0 0.56569646 0
0 0.55855778 0
0 0.55144459 0
0.0055761979 0.65060049 0
0 0.41679203 0
0.0033866204 0.40290735 0
0 0.43160541 0
0 0.4407005 0
0 0.44780405 0
0 0.3125137 0
0.0062402333 0.6743935 0
0.0065450964 0.39710701 0
0.0060013658 0.35731793 0
0.0077742435 0.69029464 0
0 0.75690514 0
0 0.7716047 0
0.0085201272 0.60321532 0
0.005644514 0.5771628 0
0.0066247441 0.56257234 0
0 0.53912464 0
0 0.544849 0
0.010783574 0.62708146 0
0.0055710354 0.42427119 0
0 0.45505835 0
0.0068499201 0.43951675 0
0 0.46359964 0
0 0.30432778 0
0.012512556 0.64622066 0
0.0069210469 0.33659441 0
0.0099382227 0.40420377 0
0.011271719 0.38203651 0
0 0.79193554 0
0.009998473 0.70303009 0
0 0.82078822 0
0 0.53128525 0
0.013252959 0.59022906 0
0.011071869 0.57427413 0
0.0095984856 0.55522896 0
0.015611591 0.60354647 0
0 0.51746513 0
0.011555902 0.42886173 0
0.0087051346 0.45071625 0
0 0.49627964 0
0 0.47627384 0
0 0.27449918 0
0 0.29001327 0
0 0.29729755 0
0 0.28203997 0
0 0.26772051 0
0.0080884312 0.32579014 0
0.016766574 0.63844895 0
0.013607771 0.37223053 0
0.01489138 0.41001016 0
0.013903293 0.71590067 0
0 0.86400603 0
0.01123135 0.54382943 0
0.015923898 0.56961772 0
0.019874152 0.59184641 0
0.011796264 0.52079155 0
0.01413431 0.48840838 0
0.015998102 0.43823716 0
0.010828887 0.46622199 0
0 0.26117034 0
0 0.25333066 0
0 0.24350368 0
0.0091218478 0.30787796 0
0.016370922 0.35629063 0
0.022327098 0.64057391 0
0.019702362 0.41030567 0
0 0.92857138 0
0.019964694 0.74038684 0
0 1 0
0.020980102 0.55180354 0
0.026517793 0.58326302 0
0.024159401 0.51213995 0
0.021631156 0.45614759 0
0 0.23097725 0
0 0.21343772 0
0.022784379 0.37643201 0
0.011287647 0.28115996 0
0.018262899 0.2915557 0
0.032646701 0.63070528 0
0.029690481 0.42338151 0
0.038653181 0.69444327 0
0.026027587 0.82243606 0
0.025983869 1 0
0.034996454 0.55422873 0
0.033280081 0.47778572 0
0 0.18679645 0
0.031805106 0.35270509 0
0 0.14343047 0
0.022068965 0.20937948 0
0.066407144 1 0
0.053789961 0.60839567 0
0.048895074 0.41869262 0
0.056839744 0.77347876 0
0.049825777 0.51246398 0
0.24278632 1 0
0.13332939 1 0
0.5502945 1 0
0.38966131 1 0
0.04124001 0.26149898 0
0 0 0
0 0.080459821 0
0.025983869 0 0
0.066080156 0.27686551 0
0.10252789 0.75007574 0
0.081955675 0.52011984 0
0.29424618 0.79077319 0
0.17921318 0.75021739 0
0.85934569 1 0
0.70916291 1 0
1 1 0
0.46549683 0.84001859 0
0.36438908 0.69058128 0
0.066407144 0 0
0.10914545 0.27788152 0
0.15227344 0.52083879 0
0.26313099 0.58573313 0
1 0.92857138 0
0.74126275 0.88466364 0
0.56221551 0.80247517 0
0.82678783 0.84986661 0
0.44512853 0.67835087 0
0.3686849 0.56522725 0
0.13332939 0 0
0.18478441 0.26580227 0
0.25090708 0.42893311 0
0.35422923 0.44432417 0
0.4082308 0.47856759 0
0.47383082 0.63815224 0
1 0.86400603 0
0.81533058 0.79665752 0
0.64584009 0.78076986 0
0.5373198 0.71122551 0
0.70221992 0.76916019 0
0.44026039 0.56247841 0
0.24278632 0 0
0.3076549 0.15351237 0
0.28941229 0.30043024 0
0.40495754 0.31879476 0
0.44662707 0.35321358 0
0.45057449 0.4014673 0
0.46854437 0.51654437 0
0.45241417 0.46882219 0
0.54274002 0.66568077 0
0.49572293 0.612294 0
1 0.79193554 0
1 0.82078822 0
0.84376609 0.78080241 0
0.71236452 0.74326475 0
0.61625298 0.71661225 0
0.4889767 0.56457314 0
0.38966131 0 0
0.5502945 0 0
0.45555285 0.17515524 0
0.56640405 0.22476194 0
0.54553692 0.29347245 0
0.5132912 0.34234032 0
0.48607014 0.40986953 0
0.52298291 0.36800867 0
0.49338682 0.51170315 0
0.48681245 0.46054672 0
0.59053508 0.67254734 0
0.53395191 0.61619278 0
1 0.7716047 0
0.8768357 0.76606414 0
0.74825934 0.73639067 0
0.65898621 0.70697281 0
1 0.75690514 0
0.50888629 0.51280139 0
0.51418837 0.56250315 0
0.70916291 0 0
0.62946715 0.12910147 0
0.77683793 0.12129116 0
0.65062454 0.24145837 0
0.78991244 0.17249781 0
0.66690621 0.26847016 0
0.58844651 0.31503802 0
0.57058434 0.34563702 0
0.51059127 0.41721499 0
0.54073001 0.38313719 0
0.50926097 0.46618134 0
0.62944539 0.6762026 0
0.5758012 0.64011855 0
0.54780449 0.59771456 0
1 0.7458237 0
0.87996422 0.74886806 0
0.78606452 0.7344188 0
0.65214557 0.6763979 0
0.70232551 0.70663389 0
0.88565352 0.73844739 0
0.52116018 0.50245873 0
0.52586946 0.54698446 0
0.85934569 0 0
1 0.080459821 0
1 0 0
1 0.14343047 0
0.80775195 0.21192271 0
0.81894796 0.23627691 0
0.6878199 0.28259807 0
0.58456613 0.35522507 0
0.63385516 0.31708908 0
0.52918875 0.42299897 0
0.56091467 0.38869161 0
0.52791709 0.45943612 0
0.54370022 0.56805371 0
0.59804142 0.6412771 0
0.56913644 0.60715386 0
0.92449458 0.73549852 0
1 0.73774355 0
0.62897797 0.65298499 0
0.67258391 0.67616977 0
0.78784759 0.72374325 0
0.71776292 0.70020673 0
0.86178227 0.72556257 0
0.815782 0.72248911 0
0.53498299 0.48814579 0
0.53592904 0.5273745 0
0.5487779 0.55581915 0
1 0.18679645 0
1 0.21343772 0
0.80214501 0.25701792 0
0.70900757 0.28962265 0
0.60306227 0.35802889 0
0.63635234 0.33016714 0
0.68608839 0.30869526 0
0.54644894 0.42255937 0
0.57321057 0.39432992 0
0.60428431 0.36781348 0
0.54657034 0.4475743 0
0.56989763 0.59109526 0
0.5974456 0.62353369 0
0.6300295 0.64187416 0
0.91345756 0.72662974 0
1 0.7315179 0
0.66993323 0.66322066 0
0.85582387 0.71611935 0
0.7158165 0.68737714 0
0.76292812 0.70650694 0
0.81001493 0.7119829 0
0.56868192 0.57459433 0
0.56378364 0.55284368 0
0.54763785 0.47601411 0
0.55002829 0.5052635 0
0.55402162 0.532091 0
1 0.23097725 0
0.88527292 0.24728393 0
0.78853443 0.27261252 0
0.74190582 0.2916297 0
0.6547334 0.3335987 0
0.71183936 0.31079814 0
0.63599739 0.3536767 0
0.56961116 0.41285696 0
0.60396663 0.3825895 0
0.55895291 0.45465477 0
0.56996985 0.43043054 0
0.65318725 0.6435762 0
0.59393078 0.60478867 0
0.58987368 0.58759651 0
0.61767412 0.62285203 0
0.92340652 0.72051878 0
1 0.72455431 0
0.84106873 0.70600151 0
0.88376131 0.71204851 0
0.714627 0.67590197 0
0.69002672 0.65783302 0
0.80559833 0.70162098 0
0.76404855 0.69567406 0
0.74780578 0.68279623 0
0.5854816 0.56553683 0
0.57782536 0.54194961 0
0.56619637 0.48167596 0
0.56961219 0.51588939 0
1 0.24350368 0
0.88624683 0.25767052 0
0.81687502 0.2766862 0
0.77525783 0.29233243 0
0.6777472 0.33140672 0
0.71659807 0.32104553 0
0.74952395 0.30590156 0
0.66195961 0.34722485 0
0.63978025 0.3659361 0
0.59423499 0.40535028 0
0.62151406 0.38739108 0
0.57915916 0.44959666 0
0.59268887 0.42533592 0
0.63621057 0.62282969 0
0.69979388 0.64993301 0
0.66584289 0.6363409 0
0.60661014 0.58114193 0
0.61704171 0.60312949 0
0.82645865 0.69524715 0
0.93533665 0.71215907 0
1 0.7152616 0
0.87663646 0.70260137 0
0.81119443 0.68484579 0
0.73316915 0.66814027 0
0.77871122 0.68549117 0
0.60166388 0.55704212 0
0.58915691 0.5266615 0
0.58637682 0.46733328 0
0.58331381 0.49640758 0
1 0.25333066 0
0.90764177 0.26332355 0
0.80310198 0.2937006 0
0.84926923 0.2792964 0
0.6967204 0.33731405 0
0.73285269 0.32601346 0
0.76989294 0.31021988 0
0.68205943 0.35239726 0
0.65814705 0.3695001 0
0.63876578 0.38986339 0
0.61674381 0.41071544 0
0.60241629 0.44048126 0
0.7246606 0.65155921 0
0.64619521 0.61416138 0
0.67940814 0.62982021 0
0.62637761 0.58971949 0
0.62513238 0.57096054 0
1 0.70740478 0
0.86736149 0.6938484 0
0.93182251 0.70266855 0
0.84043401 0.68274778 0
0.77367659 0.67034871 0
0.60622452 0.53619384 0
0.59826102 0.50329041 0
0.59900132 0.47262906 0
1 0.26117034 0
0.92350853 0.26885782 0
0.91182216 0.27740796 0
0.81724095 0.29897371 0
0.85315674 0.28744891 0
0.80539875 0.31086997 0
0.6131007 0.44955727 0
0.73475754 0.33632465 0
0.7692244 0.32170731 0
0.67266385 0.37275907 0
0.70309955 0.35360211 0
0.6475548 0.39755842 0
0.6764416 0.38171105 0
0.62852464 0.42177441 0
0.7526892 0.65182799 0
0.70062831 0.62874817 0
0.65671067 0.60480914 0
0.65081282 0.58546843 0
0.62825126 0.55167106 0
1 0.7006611 0
0.91489439 0.69282622 0
0.88232778 0.68117406 0
0.81171688 0.66918251 0
0.6135959 0.51298975 0
0.61444067 0.47644478 0
1 0.26772051 0
1 0.27449918 0
0.93440382 0.28165452 0
0.88778131 0.28908769 0
0.85069337 0.29951717 0
0.84407512 0.30940517 0
0.80820646 0.32116131 0
0.63483668 0.43765348 0
0.75534116 0.33896926 0
0.71528335 0.35862307 0
0.70645745 0.3735365 0
0.66393614 0.40416187 0
0.63528289 0.53413234 0
0.77735221 0.64971069 0
0.72370888 0.62534472 0
0.68223772 0.60352898 0
0.66032106 0.57025931 0
1 0.69252502 0
0.91187739 0.67776571 0
0.83277215 0.66038345 0
0.63583571 0.46138284 0
0.63145954 0.49883313 0
1 0.28203997 0
0.93879438 0.28950172 0
0.9056454 0.29792947 0
0.80306178 0.32985601 0
0.90259285 0.30609439 0
0.88918697 0.31481936 0
0.66773705 0.42561529 0
0.75916532 0.3515752 0
0.70927731 0.38579915 0
0.6599128 0.53535344 0
0.75804818 0.62617989 0
0.70235863 0.58985647 0
0.81709916 0.6401338 0
1 0.68215484 0
0.89785485 0.66322329 0
0.65492604 0.47757865 0
0.67387243 0.51283068 0
1 0.29001327 0
0.83582672 0.32852297 0
1 0.29729755 0
1 0.30432778 0
0.81408025 0.34161005 0
0.90530849 0.32367378 0
0.68317965 0.43466921 0
0.72320428 0.39717047 0
0.76957355 0.36486353 0
0.70591448 0.5599021 0
0.77215768 0.60376882 0
0.87769597 0.6381741 0
1 0.66847288 0
0.69020217 0.46528726 0
0.71164625 0.50918871 0
1 0.3125137 0
0.8552651 0.34400652 0
1 0.32454161 0
0.73586751 0.41810162 0
0.7965973 0.37805815 0
0.75885891 0.55882663 0
0.8643681 0.60664868 0
1 0.64921501 0
0.74231756 0.45649069 0
0.7628939 0.50055328 0
0.89039824 0.34925391 0
1 0.34154622 0
0.87659841 0.37485432 0
0.80238163 0.41686245 0
0.82188467 0.5526583 0
0.91181813 0.59474266 0
1 0.62191073 0
0.80423804 0.46777587 0
0.82853907 0.51302843 0
1 0.36418313 0
0.89724523 0.40451018 0
0.84686744 0.44150167 0
0.85172571 0.47504318 0
1 0.59439069 0
0.91147648 0.56399344 0
[...]
CELL_DATA 1042
Scalars  Label int 1
LOOKUP_TABLE FreeFempp_table
0
0
0
0
0
0
0
0
0
0
0
0
0
0
0
0
0
0
0
0
0
0
0
0
0
0
0
0
0
0
0
0
0
0
0
0
0
0
0
0
0
0
0
0
0
0
0
0
0
0
0
0
0
0
0
0
0
0
0
0
0
0
0
0
0
0
0
0
0
0
0
0
0
0
0
0
0
0
0
0
0
0
0
0
0
0
0
0
0
0
0
0
0
0
0
0
0
0
0
0
0
0
0
0
0
0
0
0
0
0
0
0
0
0
0
0
0
0
0
0
0
0
0
0
0
0
0
0
0
0
0
0
0
0
0
0
0
0
0
0
0
0
0
0
0
0
0
0
0
0
0
0
0
0
0
0
0
0
0
0
0
0
0
0
0
0
0
0
0
0
0
0
0
0
0
0
0
0
0
0
0
0
0
0
0
0
0
0
0
0
0
0
0
0
0
0
0
0
0
0
0
0
0
0
0
0
0
0
0
0
0
0
0
0
0
0
0
0
0
0
0
0
0
0
0
0
0
0
0
0
0
0
0
0
0
0
0
0
0
0
0
0
0
0
0
0
0
0
0
0
0
0
0
0
0
0
0
0
0
0
0
0
0
0
0
0
0
0
0
0
0
0
0
0
0
0
0
0
0
0
0
0
0
0
0
0
0
0
0
0
0
0
0
0
0
0
0
0
0
0
0
0
0
0
0
0
0
0
0
0
0
0
0
0
0
0
0
0
0
0
0
0
0
0
0
0
0
0
0
0
0
0
0
0
0
0
0
0
0
0
0
0
0
0
0
0
0
0
0
0
0
0
0
0
0
0
0
0
0
0
0
0
0
0
0
0
0
0
0
0
0
0
0
0
0
0
0
0
0
0
0
0
0
0
0
0
0
0
0
0
0
0
0
0
0
0
0
0
0
0
0
0
0
0
0
0
0
0
0
0
0
0
0
0
0
0
0
0
0
0
0
0
0
0
0
0
0
0
0
0
0
0
0
0
0
0
0
0
0
0
0
0
0
0
0
0
0
0
0
0
0
0
0
0
0
0
0
0
0
0
0
0
0
0
0
0
0
0
0
0
0
0
0
0
0
0
0
0
0
0
0
0
0
0
0
0
0
0
0
0
0
0
0
0
0
0
0
0
0
0
0
0
0
0
0
0
0
0
0
0
0
0
0
0
0
0
0
0
0
0
0
0
0
0
0
0
0
0
0
0
0
0
0
0
0
0
0
0
0
0
0
0
0
0
0
0
0
0
0
0
0
0
0
0
0
0
0
0
0
0
0
0
0
0
0
0
0
0
0
0
0
0
0
0
0
0
0
0
0
0
0
0
0
0
0
0
0
0
0
0
0
0
0
0
0
0
0
0
0
0
0
0
0
0
0
0
0
0
0
0
0
0
0
0
0
0
0
0
0
0
0
0
0
0
0
0
0
0
0
0
0
0
0
0
0
0
0
0
0
0
0
0
0
0
0
0
0
0
0
0
0
0
0
0
0
0
0
0
0
0
0
0
0
0
0
0
0
0
0
0
0
0
0
0
0
0
0
0
0
0
0
0
0
0
0
0
0
0
0
0
0
0
0
0
0
0
0
0
0
0
0
0
0
0
0
0
0
0
0
0
0
0
0
0
0
0
0
0
0
0
0
0
0
0
0
0
0
0
0
0
0
0
0
0
0
0
0
0
0
0
0
0
0
0
0
0
0
0
0
0
0
0
0
0
0
0
0
0
0
0
0
0
0
0
0
0
0
0
0
0
0
0
0
0
0
0
0
0
0
0
0
0
0
0
0
0
0
0
0
0
0
0
0
0
0
0
0
0
0
0
0
0
0
0
0
0
0
0
0
0
0
0
0
0
0
0
0
0
0
0
0
0
0
0
0
0
0
0
0
0
0
0
0
0
0
0
0
0
0
0
0
0
0
0
0
0
0
0
0
0
0
0
0
0
0
0
0
0
0
0
0
0
0
0
0
0
0
0
0
0
0
0
0
0
0
0
0
0
0
0
0
0
0
0
0
0
0
0
0
0
0
0
0
0
0
0
0
0
0
0
0
0
0
0
0
0
0
0
0
0
0
0
0
0
1
1
1
1
1
1
1
1
1
3
3
3
3
3
3
3
3
3
2
2
2
2
2
2
2
2
2
2
2
2
2
2
2
2
2
2
2
2
2
2
2
2
2
2
2
2
2
2
2
2
2
2
2
2
2
2
2
2
2
2
2
2
2
2
2
2
2
2
2
2
2
2
2
4
4
4
4
4
4
4
4
4
4
4
4
4
4
4
4
4
4
4
4
4
4
4
4
4
4
4
4
4
4
4
4
4
4
4
4
4
4
4
4
4
4
4
4
4
4
4
4
4
4
4
4
4
4
4

LOOKUP_TABLE FreeFempp_table 5
1.00000000 0.00000000 0.00000000 1.00000000
1.00000000 1.00000000 0.00000000 1.00000000
1.00000000 0.00000000 1.00000000 1.00000000
0.00000000 1.00000000 0.00000000 1.00000000
0.00000000 1.00000000 1.00000000 1.00000000

POINT_DATA 522
FIELD FieldData 1
Density 1 522 float
9.86486316e-01 9.86486375e-01 9.86479580e-01 9.86486375e-01 9.86486375e-01 9.69945550e-01 9.85569477e-01 9.86486316e-01 9.86486316e-01 9.18223441e-01 8.12065661e-01 5.98001540e-01 3.41946065e-01 9.03603792e-01 9.86063898e-01 1.72305152e-01 8.79690051e-02 3.92869152e-02 9.01443422e-01 9.62286472e-01 9.86486435e-01 9.86486435e-01 9.55580890e-01 6.63060367e-01 7.55497634e-01 9.86486375e-01 9.81690705e-01 9.86486435e-01 9.85511661e-01 7.69296765e-01 9.84097958e-01 4.30364817e-01 7.99143851e-01 7.31191933e-01 6.79290891e-02 1.87019464e-02 1.40985241e-02 5.99676967e-01 9.40942645e-01 5.14250576e-01 1.36115942e-02 1.58644363e-01 2.79880643e-01 9.33853269e-01 1.89021155e-01 5.06456375e-01 1.37055404e-02 9.63653505e-01 1.94901209e-02 3.85282815e-01 4.10554349e-01 2.21849203e-01 1.36442231e-02 2.09490713e-02 1.36266993e-02 1.36078950e-02 1.72380939e-01 3.10613006e-01 9.99873057e-02 1.55600086e-02 1.36362864e-02 1.94128469e-01 4.52432930e-02 1.36108501e-02 1.36186704e-02 3.30613852e-01 7.96082497e-01 9.08178926e-01 5.55921555e-01 1.74350947e-01 8.79224390e-02 1.36503801e-02 1.88605990e-02 4.52227555e-02 1.48931229e-02 1.37341525e-02 1.98168680e-02 4.32180762e-02 1.82913039e-02 1.36124184e-02 1.35969426e-02 4.52042408e-02 1.41653446e-02 8.13199282e-02 2.50816960e-02 1.52419871e-02 4.96674478e-02 1.36353178e-02 1.36013320e-02 1.60814952e-02 1.39215123e-02 1.37570724e-02 1.41532496e-02 1.35622192e-02 1.40725011e-02 1.35976905e-02 1.36317164e-02 1.37320161e-02 1.35438573e-02 1.36753833e-02 1.36262011e-02 1.36482716e-02 1.35843083e-02 1.37043018e-02 1.37770697e-02 1.38042569e-02 1.40745305e-02 1.36246849e-02 1.36728510e-02 1.35385729e-02 1.36947352e-02 1.35693643e-02 1.37737244e-02 1.43152205e-02 1.37695894e-02 1.36327837e-02 1.38842240e-02 1.36864819e-02 1.52586028e-02 1.55056641e-02 1.63265746e-02 1.56732369e-02 1.37806507e-02 1.41532496e-02 1.36809004e-02 1.40745305e-02 1.41406665e-02 1.42397918e-02 1.36916600e-02 1.53519288e-02 1.49841057e-02 1.56857260e-02 1.69272218e-02 1.41532496e-02 1.50477029e-02 1.44915823e-02 1.43152205e-02 1.42118530e-02 1.43498732e-02 1.47337550e-02 1.39215123e-02 1.41626680e-02 1.42906308e-02 1.38162859e-02 1.41083067e-02 1.38680181e-02 1.55056641e-02 1.52126011e-02 1.48566496e-02 1.40416836e-02 1.36501417e-02 1.37067148e-02 1.37341525e-02 1.33868624e-02 1.36257932e-02 1.37650995e-02 1.35264155e-02 1.37051139e-02 1.52586028e-02 1.58651602e-02 1.46658067e-02 1.39896460e-02 1.40474616e-02 1.36292009e-02 1.35720205e-02 1.36001045e-02 1.36910928e-02 1.36618437e-02 1.36442231e-02 1.36266993e-02 1.33154187e-02 1.35707548e-02 1.37736890e-02 1.37294345e-02 1.56732369e-02 1.63265746e-02 1.51927657e-02 1.42912678e-02 1.40986908e-02 1.37987593e-02 1.37144718e-02 1.38511946e-02 1.44476043e-02 1.39170410e-02 1.40899112e-02 1.61868222e-02 1.40985241e-02 1.36838658e-02 1.37413386e-02 1.37202693e-02 1.87019464e-02 2.24784371e-02 1.72598213e-02 1.69272218e-02 1.54245449e-02 1.39119169e-02 1.37122627e-02 1.35677364e-02 1.37046091e-02 1.38018541e-02 1.37594026e-02 1.42206308e-02 1.64455734e-02 1.81139894e-02 1.79013759e-02 1.88449975e-02 3.27051692e-02 3.92869152e-02 1.66090392e-02 1.50179025e-02 3.49715240e-02 1.60168987e-02 3.65633667e-02 4.37437408e-02 3.38139161e-02 1.56857260e-02 1.36809004e-02 1.41532496e-02 1.35693643e-02 1.34034278e-02 1.35307983e-02 1.43293049e-02 3.18751447e-02 1.76206250e-02 1.67597793e-02 3.42597887e-02 3.67214307e-02 6.29401803e-02 4.06998098e-02 5.05068190e-02 8.10466632e-02 8.79690051e-02 7.44267330e-02 7.75619522e-02 3.11409887e-02 4.06510867e-02 8.92908722e-02 7.62008205e-02 1.09585099e-01 1.21482447e-01 1.29067823e-01 1.35385729e-02 1.35438573e-02 1.36251450e-02 1.60314776e-02 6.11390136e-02 4.49213907e-02 5.86375333e-02 5.83346561e-02 9.59431902e-02 1.16635233e-01 1.00374453e-01 1.14822254e-01 1.05473280e-01 1.96366131e-01 1.53238609e-01 1.72305152e-01 2.19334185e-01 2.37686366e-01 1.51250228e-01 9.56486762e-02 1.62249684e-01 2.40649372e-01 3.16593826e-01 1.86716750e-01 3.02459776e-01 2.82748640e-01 1.37320161e-02 1.39281377e-02 1.89624950e-02 4.40898165e-02 7.66597539e-02 1.39056206e-01 1.91169113e-01 1.50405496e-01 2.16573760e-01 2.83170938e-01 2.88244992e-01 3.68274301e-01 2.67754048e-01 4.00721371e-01 2.94294029e-01 2.80918211e-01 3.41946065e-01 4.62133884e-01 4.37719017e-01 3.30059350e-01 5.06979346e-01 4.02116895e-01 2.66739964e-01 4.79987919e-01 5.37793577e-01 6.14643395e-01 4.90758687e-01 5.57709336e-01 1.52419871e-02 2.38640197e-02 4.65347804e-02 1.15359947e-01 2.04378352e-01 2.95365721e-01 2.25492641e-01 3.50841075e-01 3.91004026e-01 3.75609815e-01 5.14303505e-01 5.51642418e-01 5.49543917e-01 5.56079209e-01 7.90077627e-01 6.79682970e-01 6.77034557e-01 5.87182403e-01 7.08890378e-01 5.77377319e-01 5.98001540e-01 7.14602470e-01 8.29237998e-01 7.16088116e-01 6.58387482e-01 8.21113169e-01 8.32525134e-01 7.24750638e-01 7.57105887e-01 2.50816960e-02 5.58377579e-02 2.27887020e-01 1.25840411e-01 4.92088795e-01 5.48841536e-01 4.30406988e-01 6.47791684e-01 6.68604493e-01 7.52514362e-01 7.11925626e-01 8.35622191e-01 8.94053578e-01 8.19818318e-01 8.84053707e-01 8.64829898e-01 9.17065144e-01 8.12065661e-01 8.68182778e-01 8.55062902e-01 9.49986160e-01 9.12306964e-01 9.05221879e-01 9.34580624e-01 9.10501719e-01 8.13199282e-02 1.24384277e-01 2.31010810e-01 4.81318921e-01 3.40782464e-01 7.65220284e-01 9.15037870e-01 8.19787800e-01 7.21478939e-01 8.83065939e-01 8.04286718e-01 8.56912136e-01 9.27575707e-01 9.22879696e-01 9.66065705e-01 9.65123117e-01 9.22049642e-01 9.67478156e-01 9.68914688e-01 9.18223441e-01 9.40315664e-01 9.69762087e-01 9.70925748e-01 9.65664744e-01 9.56748426e-01 1.74350947e-01 3.30613852e-01 4.10585850e-01 4.95758086e-01 6.47412479e-01 8.56540799e-01 9.00923073e-01 9.70083177e-01 9.06377137e-01 9.39522147e-01 9.72020566e-01 9.71477091e-01 9.83674884e-01 9.83688712e-01 9.84944582e-01 9.82361019e-01 9.82711852e-01 9.69945550e-01 9.83919322e-01 9.85906720e-01 9.85264421e-01 9.83796239e-01 5.55921555e-01 6.80281878e-01 7.87161767e-01 9.49655592e-01 9.23781216e-01 9.59005773e-01 9.86482799e-01 9.80474293e-01 9.85738158e-01 9.86399353e-01 9.86462355e-01 9.86443520e-01 9.86486316e-01 9.85569477e-01 9.86486316e-01 9.86362934e-01 9.86486316e-01 7.96082497e-01 9.83115911e-01 9.08178926e-01 9.63653505e-01 9.86307085e-01 9.85911191e-01 9.86486375e-01 9.86485422e-01 9.86465037e-01 9.86486316e-01 9.86486256e-01 9.86486316e-01 9.86479580e-01 9.86486316e-01 9.86486256e-01 9.84097958e-01 9.86482561e-01 9.86063898e-01 9.86486316e-01 9.86486256e-01 9.86486256e-01 9.86486256e-01 9.86486375e-01 9.86486256e-01 9.86486256e-01 9.86483574e-01 9.86486316e-01 9.86486197e-01 9.86486256e-01 9.86486197e-01 9.86486197e-01 9.86486375e-01 9.86486256e-01 9.86486256e-01 9.86486316e-01 9.86486197e-01 9.86486256e-01 9.86486316e-01 9.86486375e-01 9.86486316e-01 9.86486375e-01 9.86486316e-01 9.86486316e-01 9.86486375e-01 9.86486375e-01 9.86486375e-01 9.86486375e-01 9.86486435e-01 9.86486375e-01 9.86486375e-01 9.86193955e-01 9.86486435e-01 9.86486375e-01 9.86486375e-01 9.86481428e-01 9.86178458e-01 9.82747495e-01 9.86486435e-01 9.81655121e-01 9.85120535e-01 9.67989981e-01 9.83824670e-01 9.85493243e-01 9.86486435e-01 9.71461296e-01 9.66989934e-01 8.96960676e-01 8.10109079e-01 9.55580890e-01 8.62971246e-01 6.69149458e-01 6.16742432e-01 9.56663072e-01 9.61097658e-01 9.85511661e-01 8.90747905e-01 8.56870353e-01 4.06881541e-01 4.71519798e-01 2.92054355e-01 6.63060367e-01 2.10652947e-01 2.81970561e-01 7.05063701e-01 5.63676119e-01 7.69296765e-01 2.53969520e-01 3.47470969e-01 3.92126083e-01 1.44345567e-01 3.43943499e-02 3.64944376e-02 1.58644363e-01 2.83215139e-02 1.89021155e-01 4.92287017e-02 1.54745668e-01 1.36251952e-02 1.64793376e-02 1.42241148e-02 1.36115942e-02 1.37055404e-02 1.77893415e-02 1.40659986e-02 1.36496685e-02 1.36078950e-02 1.36186704e-02 1.36108501e-02 1.36362864e-02 
