# vtk DataFile Version 2.0
results_case1/1616747557/sol_toll1e-05_vf0.3_iter2.vtk, Created by Freefem++ 
ASCII
DATASET UNSTRUCTURED_GRID
POINTS 485 float
0 0.77755438 0
0 0.720256 0
0 0.8234692 0
0.010126027 0.72213242 0
0 0.67047316 0
0 0.17390408 0
0 0.34165139 0
0 0.25253629 0
0 0.14524459 0
0 0.37562791 0
0 0.20897176 0
0 0.29934098 0
0 0.62306181 0
0 0.59387836 0
0.011713898 0.81289358 0
0 0.85802279 0
0.019631202 0.75136187 0
0.020593078 0.68592148 0
0.013572483 0.64979967 0
0.011020467 0.21027321 0
0.012474443 0.35271597 0
0.012191949 0.29341909 0
0 0.1201202 0
0.014071238 0.39327242 0
0 0.40393325 0
0.012707031 0.61285199 0
0 0.5770686 0
0.015429613 0.59079494 0
0 0.07261608 0
0 0.550171 0
0 0.46418355 0
0 0.45286372 0
0 0.44046428 0
0 0.43066334 0
0 0.56486555 0
0 0.42076977 0
0 0.095240381 0
0.013626458 0.887106 0
0 0.88538962 0
0.023130455 0.82090901 0
0.02815497 0.72514699 0
0.026599796 0.65518105 0
0.023376851 0.61860881 0
0.012954671 0.14565995 0
0.020317403 0.26229724 0
0.022918667 0.35136225 0
0.016120233 0.42122883 0
0.025008052 0.4050485 0
0.01833046 0.57372487 0
0.027282727 0.58989442 0
0.014008651 0.080763329 0
0 0.055984126 0
0.016490821 0.55845922 0
0 0.536661 0
0 0.47483405 0
0.015627365 0.46177394 0
0.017509397 0.44975777 0
0.0198522 0.44028898 0
0 0.030060567 0
0 0 0
0 0.017472608 0
0 0.042061267 0
0 0.48788923 0
0 0.52387279 0
0 0.50541725 0
0.016154057 0.50071925 0
0 0.9304791 0
0.024440271 0.89448709 0
0 0.90977788 0
0.017820302 0.94407511 0
0.031190984 0.79979435 0
0.033584248 0.6789664 0
0.031750099 0.62102958 0
0.023010586 0.17358121 0
0.028255622 0.29056185 0
0.031417494 0.38578358 0
0.028988011 0.43288403 0
0.030472845 0.56646423 0
0.034944812 0.58778022 0
0.019034428 0.038860915 0
0.024990976 0.099039379 0
0.02083932 0.5466992 0
0.022048809 0.48004508 0
0.030680564 0.46213656 0
0.020968137 0 0
0.018747487 0.52618571 0
0.027810713 0.50770491 0
0.044274594 0 0
0 0.94640806 0
0.030778257 0.91204505 0
0.032499211 0.96716162 0
0.017826728 0.97372974 0
0.036779227 0.84409339 0
0.038104079 0.74465483 0
0.040156316 0.66638504 0
0.038582904 0.61968876 0
0.031617996 0.1907641 0
0.034171723 0.32025772 0
0.036689676 0.43644411 0
0.038151767 0.40074561 0
0.042040706 0.58210382 0
0.034081328 0.54439422 0
0.033078907 0.086788429 0
0.043482407 0.039910596 0
0.037809937 0.49133298 0
0.043065796 0.46297356 0
0.037535439 0.5186847 0
0.075468158 0 0
0.040551833 0.35814996 0
0 0.95908203 0
0.041381139 0.91210435 0
0.020968137 1 0
0.05031912 0.951401 0
0.044274594 1 0
0.014694854 0.98548717 0
0.047074212 0.82995275 0
0.04694816 0.73383537 0
0.048589842 0.64424738 0
0.041020334 0.14179364 0
0.038616093 0.25198073 0
0.048344275 0.41993743 0
0.047468579 0.54024738 0
0.053756615 0.59217313 0
0.081171926 0.036972204 0
0.051794938 0.075032064 0
0.052181514 0.49190893 0
0.12486897 0 0
0.047353684 0.32879523 0
1 0 0
0.8406279 0.010834874 0
0.71393532 0 0
0.3135082 0 0
0.066024706 0.076433998 0
0.19559949 0 0
0 0.97016517 0
0.056022534 0.89487264 0
0.01205185 0.99559879 0
0 1 0
0.070720242 0.96738406 0
0.067833371 0.93081271 0
0.075468158 1 0
0.061043331 0.79206526 0
0.068465349 0.85933863 0
0.060335638 0.70939078 0
0.066872468 0.64181817 0
0.055743659 0.14286072 0
0.049567686 0.22931859 0
0.060495555 0.34616211 0
0.06374494 0.45105686 0
0.064759937 0.54876182 0
0.095464192 0.069666614 0
0.13194487 0.033366676 0
1 0.017472608 0
0.7151106 0.016254426 0
0.48137611 0 0
0.39059793 0.013341782 0
0.26726374 0.016018088 0
0.0760894 0.11206468 0
0.18848619 0.020546134 0
0 0.98276864 0
0.090543213 0.90482109 0
0.096784953 0.94363337 0
0.10842832 0.97505379 0
0.12486897 1 0
0.083952814 0.73459656 0
0.086695391 0.80810517 0
0.10537507 0.85852991 0
0.085014982 0.630219 0
0.066363381 0.22376761 0
0.08177142 0.16164788 0
0.081256571 0.38374046 0
0.078385488 0.2913564 0
0.081797605 0.50819851 0
0.13599062 0.068150503 0
0.11321668 0.11240816 0
0.19816091 0.040722626 0
1 0.030060567 0
0.53702321 0.018187924 0
0.73366342 0.027609017 0
0.44323171 0.030737396 0
0.31422832 0.031750495 0
0.10236449 0.4136095 0
0.1364622 0.89940835 0
0.1419884 0.93621178 0
0.14738004 0.96681025 0
0.19559949 1 0
0.1229798 0.80104562 0
0.1099441 0.71466057 0
0.15517062 0.86136224 0
0.10666511 0.58418596 0
0.099277853 0.21919246 0
0.11522194 0.16531779 0
0.10826917 0.28945383 0
0.19760659 0.068883653 0
0.16476415 0.10026402 0
0.15035059 0.14170773 0
0.25743203 0.053047895 0
0.78021202 0.040461968 0
1 0.042061267 0
0.59702963 0.035681052 0
0.36293516 0.049642524 0
0.48397677 0.047453863 0
0.12414048 0.49163956 0
0.13173906 0.35806656 0
0.22638188 0.093098347 0
0.1400046 0.26967503 0
0.207313 0.89411083 0
0.18864743 0.9206574 0
0.23767589 0.94249973 0
0.19959449 0.96059684 0
0.22546666 0.98439514 0
0.3135082 1 0
0.15671064 0.77327674 0
0.17314453 0.83201978 0
0.13466554 0.69000178 0
0.2231376 0.86607641 0
0.15007312 0.61708519 0
0.15173412 0.19597291 0
0.3024025 0.0725306 0
0.19864937 0.13244147 0
0.75397066 0.056632404 0
0.59516077 0.05310879 0
1 0.055984126 0
0.42473063 0.064389851 0
0.16219091 0.41771389 0
0.16312707 0.53506141 0
0.17791207 0.30452055 0
0.28169148 0.10301302 0
0.18926495 0.21711149 0
0.30613065 0.90166695 0
0.27549406 0.92100071 0
0.28715641 0.97142005 0
0.34459088 0.95090978 0
0.48137611 1 0
0.38387333 0.98268866 0
0.19153492 0.71780496 0
0.21787145 0.8131509 0
0.30360891 0.87327318 0
0.21023883 0.630022 0
0.24399891 0.14886984 0
0.39928174 0.082900176 0
0.72764249 0.075572943 0
0.54490617 0.072391307 0
1 0.07261608 0
0.20074916 0.51178137 0
0.20724821 0.39272329 0
0.23515577 0.23986005 0
0.23385321 0.30297969 0
0.35824552 0.1099542 0
0.26697398 0.17551515 0
0.38487654 0.9291891 0
0.43016315 0.9085765 0
0.48841511 0.94930413 0
0.44941724 0.96566543 0
0.60889442 0.988955 0
0.53665099 0.978999 0
0.71393532 1 0
0.25169837 0.77358403 0
0.26935775 0.71952863 0
0.29847498 0.83452424 0
0.39124759 0.87034409 0
0.28272656 0.65516706 0
0.24710583 0.58185498 0
0.37122986 0.14099223 0
0.5038073 0.10020377 0
0.64061579 0.10337733 0
0.81951859 0.089583518 0
1 0.095240381 0
0.24114363 0.49311755 0
0.24392785 0.42730541 0
0.26570336 0.34797764 0
0.29980236 0.2652502 0
0.3188173 0.2016748 0
1 0.1201202 0
0.31308714 0.31247494 0
0.28568296 0.40488181 0
0.54737928 0.933466 0
0.59063023 0.92028543 0
0.51162606 0.89287294 0
0.67633783 0.96440609 0
0.6649097 0.95133078 0
0.81353633 0.98895883 0
0.76870481 0.97592673 0
1 1 0
0.34137748 0.80330912 0
0.33981177 0.70333735 0
0.34566683 0.758488 0
0.43265981 0.84845192 0
0.36735612 0.6494129 0
0.31758107 0.60473155 0
0.29218679 0.54143785 0
0.50462709 0.14022443 0
0.40489001 0.17590815 0
0.79602647 0.11406853 0
0.62057363 0.13238843 0
0.30297235 0.47688959 0
0.34037059 0.3662702 0
0.37826619 0.22869773 0
0.36809728 0.29502433 0
0.83104256 0.13817859 0
1 0.14524459 0
0.34367185 0.43089574 0
0.43525631 0.25029831 0
0.7666985 0.94415749 0
0.76283509 0.9273755 0
0.64827908 0.90226577 0
0.52707772 0.86135826 0
1 0.97016517 0
1 0.95908203 0
1 0.98276864 0
0.42962041 0.80393009 0
0.4189317 0.69071545 0
0.40484584 0.74677063 0
0.47116765 0.63460607 0
0.43411749 0.59635723 0
0.37151364 0.56552357 0
0.3814114 0.52038106 0
0.58179762 0.17131844 0
0.47774957 0.19588798 0
0.70308332 0.14366314 0
0.40261205 0.4727763 0
0.42210626 0.42024805 0
0.42003634 0.3631139 0
0.43184522 0.30878547 0
0.87310705 0.16242652 0
0.78345393 0.17000915 0
1 0.17390408 0
0.50475446 0.2439015 0
0.49504054 0.29543858 0
1 0.94640806 0
0.80034558 0.90222194 0
1 0.9304791 0
0.62958856 0.87173295 0
0.52390166 0.82170663 0
0.48041997 0.77210443 0
0.51472649 0.6755359 0
0.47149947 0.72660388 0
0.57157602 0.58046279 0
0.56694877 0.6255836 0
0.50418752 0.54510413 0
0.48554191 0.50437589 0
0.56510653 0.22413402 0
0.69247291 0.18013565 0
0.63533636 0.2079978 0
0.51943372 0.46529907 0
0.52265851 0.41998044 0
0.50509146 0.36238906 0
0.88119733 0.19737426 0
0.79036877 0.21008719 0
1 0.20897176 0
0.57766862 0.29234545 0
0.56384396 0.34881032 0
1 0.25253629 0
0.82496633 0.87387765 0
1 0.90977788 0
0.70487083 0.86774832 0
0.60808357 0.82980348 0
0.55626201 0.77630875 0
0.56155989 0.71520346 0
0.62230631 0.64743844 0
0.63429532 0.53913145 0
0.70546104 0.55858322 0
0.65446079 0.59545416 0
0.59684131 0.5040736 0
0.65184706 0.26739176 0
0.71882524 0.23223562 0
0.63112589 0.46480323 0
0.60374087 0.41178479 0
0.90362766 0.2467868 0
0.81202438 0.26102114 0
0.63666166 0.37245053 0
0.65424557 0.32613787 0
1 0.29934098 0
0.71338177 0.82879061 0
1 0.88538962 0
0.8406035 0.83020297 0
0.87982342 0.86206689 0
0.62696337 0.79052321 0
0.63222188 0.73399802 0
0.66837081 0.6708371 0
0.72013498 0.60693811 0
0.70613151 0.51077206 0
0.78468349 0.56995714 0
0.77746527 0.53301966 0
0.71864859 0.33543781 0
0.74328601 0.2892697 0
0.72501985 0.47663421 0
0.69092603 0.43372947 0
0.88822779 0.29655678 0
0.8202321 0.31426405 0
0.70258547 0.38637772 0
0.93250409 0.32410861 0
1 0.34165139 0
0.76771828 0.79189318 0
0.69773514 0.76585322 0
1 0.85802279 0
1 0.8234692 0
0.85886484 0.76668623 0
0.907002 0.80435317 0
0.72163133 0.70061443 0
0.74303281 0.6435516 0
0.8083541 0.60899177 0
0.79120816 0.49585252 0
0.85029503 0.57705776 0
0.83759059 0.54921788 0
0.82664508 0.52114895 0
0.76839281 0.39210437 0
0.79079998 0.35003819 0
0.77864743 0.45989554 0
0.75623943 0.42773552 0
0.89557982 0.34890485 0
0.8556488 0.37088071 0
1 0.37562791 0
0.78267669 0.73021486 0
1 0.77755438 0
0.92151408 0.72998346 0
0.85233648 0.7001514 0
0.79630057 0.6663575 0
0.85998231 0.64026126 0
0.88581327 0.59879888 0
0.83080228 0.46599299 0
0.84012363 0.49579991 0
0.88396695 0.56403136 0
0.8647639 0.5321858 0
0.81809095 0.43264316 0
0.82877853 0.39948782 0
0.93190762 0.3873184 0
0.89040673 0.40149959 0
1 0.40393325 0
1 0.720256 0
0.91837083 0.67520157 0
0.93071976 0.63106793 0
0.92885891 0.57940875 0
0.94415966 0.600862 0
0.8650146 0.47123534 0
0.8615457 0.44426453 0
0.86364394 0.50380692 0
0.90487601 0.55346412 0
0.88850755 0.52954386 0
0.86980302 0.42228556 0
0.93336422 0.41615129 0
1 0.42076977 0
1 0.67047316 0
[...]
CELL_DATA 968
Scalars  Label int 1
LOOKUP_TABLE FreeFempp_table
0
0
0
0
0
0
0
0
0
0
0
0
0
0
0
0
0
0
0
0
0
0
0
0
0
0
0
0
0
0
0
0
0
0
0
0
0
0
0
0
0
0
0
0
0
0
0
0
0
0
0
0
0
0
0
0
0
0
0
0
0
0
0
0
0
0
0
0
0
0
0
0
0
0
0
0
0
0
0
0
0
0
0
0
0
0
0
0
0
0
0
0
0
0
0
0
0
0
0
0
0
0
0
0
0
0
0
0
0
0
0
0
0
0
0
0
0
0
0
0
0
0
0
0
0
0
0
0
0
0
0
0
0
0
0
0
0
0
0
0
0
0
0
0
0
0
0
0
0
0
0
0
0
0
0
0
0
0
0
0
0
0
0
0
0
0
0
0
0
0
0
0
0
0
0
0
0
0
0
0
0
0
0
0
0
0
0
0
0
0
0
0
0
0
0
0
0
0
0
0
0
0
0
0
0
0
0
0
0
0
0
0
0
0
0
0
0
0
0
0
0
0
0
0
0
0
0
0
0
0
0
0
0
0
0
0
0
0
0
0
0
0
0
0
0
0
0
0
0
0
0
0
0
0
0
0
0
0
0
0
0
0
0
0
0
0
0
0
0
0
0
0
0
0
0
0
0
0
0
0
0
0
0
0
0
0
0
0
0
0
0
0
0
0
0
0
0
0
0
0
0
0
0
0
0
0
0
0
0
0
0
0
0
0
0
0
0
0
0
0
0
0
0
0
0
0
0
0
0
0
0
0
0
0
0
0
0
0
0
0
0
0
0
0
0
0
0
0
0
0
0
0
0
0
0
0
0
0
0
0
0
0
0
0
0
0
0
0
0
0
0
0
0
0
0
0
0
0
0
0
0
0
0
0
0
0
0
0
0
0
0
0
0
0
0
0
0
0
0
0
0
0
0
0
0
0
0
0
0
0
0
0
0
0
0
0
0
0
0
0
0
0
0
0
0
0
0
0
0
0
0
0
0
0
0
0
0
0
0
0
0
0
0
0
0
0
0
0
0
0
0
0
0
0
0
0
0
0
0
0
0
0
0
0
0
0
0
0
0
0
0
0
0
0
0
0
0
0
0
0
0
0
0
0
0
0
0
0
0
0
0
0
0
0
0
0
0
0
0
0
0
0
0
0
0
0
0
0
0
0
0
0
0
0
0
0
0
0
0
0
0
0
0
0
0
0
0
0
0
0
0
0
0
0
0
0
0
0
0
0
0
0
0
0
0
0
0
0
0
0
0
0
0
0
0
0
0
0
0
0
0
0
0
0
0
0
0
0
0
0
0
0
0
0
0
0
0
0
0
0
0
0
0
0
0
0
0
0
0
0
0
0
0
0
0
0
0
0
0
0
0
0
0
0
0
0
0
0
0
0
0
0
0
0
0
0
0
0
0
0
0
0
0
0
0
0
0
0
0
0
0
0
0
0
0
0
0
0
0
0
0
0
0
0
0
0
0
0
0
0
0
0
0
0
0
0
0
0
0
0
0
0
0
0
0
0
0
0
0
0
0
0
0
0
0
0
0
0
0
0
0
0
0
0
0
0
0
0
0
0
0
0
0
0
0
0
0
0
0
0
0
0
0
0
0
0
0
0
0
0
0
0
0
0
0
0
0
0
0
0
0
0
0
0
0
0
0
0
0
0
0
0
0
0
0
0
0
0
0
0
0
0
0
0
0
0
0
0
0
0
0
0
0
0
0
0
0
0
0
0
0
0
0
0
0
0
0
0
0
0
0
0
0
0
0
0
0
0
0
0
0
0
0
0
0
0
0
0
0
0
0
0
0
0
0
0
0
0
0
0
0
0
0
0
0
0
0
0
0
0
0
0
0
0
0
0
0
0
0
0
0
0
0
0
0
0
0
0
0
0
0
0
0
0
0
0
0
0
0
0
0
0
0
0
0
0
0
0
0
0
0
0
0
0
0
0
0
0
0
0
0
0
0
0
1
1
1
1
1
1
1
1
1
3
3
3
3
3
3
3
3
3
2
2
2
2
2
2
2
2
2
2
2
2
2
2
2
2
2
2
2
2
2
2
2
2
2
2
2
2
2
2
2
2
2
2
2
2
2
2
2
2
2
2
2
4
4
4
4
4
4
4
4
4
4
4
4
4
4
4
4
4
4
4
4
4
4
4
4
4
4
4
4
4
4
4
4
4
4
4
4
4
4
4
4
4
4
4

LOOKUP_TABLE FreeFempp_table 5
1.00000000 0.00000000 0.00000000 1.00000000
1.00000000 1.00000000 0.00000000 1.00000000
1.00000000 0.00000000 1.00000000 1.00000000
0.00000000 1.00000000 0.00000000 1.00000000
0.00000000 1.00000000 1.00000000 1.00000000

POINT_DATA 485
FIELD FieldData 1
Density 1 485 float
4.01276976e-01 4.98518735e-01 3.25423419e-01 3.60516846e-01 5.91435909e-01 3.22215736e-01 6.15746379e-01 4.51084316e-01 2.77437449e-01 6.88844025e-01 3.78869414e-01 5.32324672e-01 6.91809177e-01 7.50443757e-01 2.39009470e-01 2.74932951e-01 2.13928148e-01 2.62268662e-01 4.13235992e-01 2.59110749e-01 4.16078597e-01 3.44558924e-01 2.45881647e-01 4.48409289e-01 7.44331658e-01 4.81383413e-01 7.69678712e-01 4.45229590e-01 2.09899813e-01 5.07703602e-01 2.99629301e-01 4.59159851e-01 6.60450637e-01 7.78159142e-01 7.12292433e-01 7.67445028e-01 2.22433925e-01 1.57900393e-01 2.40532473e-01 1.27287433e-01 1.24159321e-01 1.85859859e-01 2.72934258e-01 1.74222901e-01 2.05209017e-01 2.33524352e-01 4.29495662e-01 2.35042602e-01 3.81978720e-01 2.05272913e-01 1.37213051e-01 1.94600165e-01 2.85527378e-01 3.04452062e-01 2.26035714e-01 2.18538299e-01 3.76111209e-01 3.51799339e-01 1.53929964e-01 3.17777768e-02 1.03182793e-01 1.78359509e-01 2.28120282e-01 2.31939062e-01 2.29009852e-01 1.57893792e-01 2.06801742e-01 8.43785927e-02 2.18961880e-01 1.09323718e-01 6.02310412e-02 7.04447553e-02 1.14363723e-01 1.16309844e-01 1.23075023e-01 1.06118470e-01 1.68881997e-01 1.27118602e-01 8.45467672e-02 8.14396292e-02 7.17063844e-02 1.36025250e-01 1.32353932e-01 1.11888126e-01 3.17173377e-02 1.46046460e-01 1.06622621e-01 3.17583308e-02 1.91796750e-01 3.90723087e-02 3.54833826e-02 8.71002898e-02 3.53024006e-02 6.13134094e-02 8.40525329e-02 8.76106620e-02 4.86262068e-02 6.88156411e-02 9.40062925e-02 9.39121097e-02 1.01661667e-01 9.17202979e-02 3.21173556e-02 3.00528891e-02 9.77879688e-02 1.06141508e-01 9.26924944e-02 3.17699946e-02 8.97592232e-02 1.75045639e-01 2.67379470e-02 3.17173377e-02 2.93353908e-02 3.17583308e-02 7.45963007e-02 5.08195497e-02 8.34735706e-02 1.09138958e-01 3.80225815e-02 6.48607463e-02 1.16999097e-01 1.17648721e-01 1.29761115e-01 2.96895392e-02 2.88504753e-02 1.30658805e-01 3.17917801e-02 1.01163276e-01 3.17777768e-02 7.40708858e-02 3.19412164e-02 3.20564918e-02 3.17401811e-02 3.18418704e-02 1.53807074e-01 3.59412394e-02 4.96649891e-02 3.17777768e-02 2.89103743e-02 2.91689057e-02 3.17699946e-02 9.31590050e-02 6.77226409e-02 1.22816682e-01 1.55303836e-01 5.52301034e-02 7.83270225e-02 1.36338264e-01 1.58806041e-01 1.61733180e-01 4.05038148e-02 2.96665244e-02 1.03182793e-01 9.34804454e-02 3.22085992e-02 6.05585240e-02 4.84018959e-02 5.61692603e-02 3.74446884e-02 1.02183402e-01 5.71534410e-02 3.26608196e-02 2.50994246e-02 3.17917801e-02 1.55085683e-01 1.25888407e-01 1.16445191e-01 1.78096443e-01 1.11588769e-01 1.01096168e-01 1.73876420e-01 1.52889714e-01 1.81513280e-01 6.64163753e-02 9.86811668e-02 5.37705533e-02 1.53929964e-01 8.77670348e-02 1.33307740e-01 1.05731197e-01 7.50537440e-02 1.96653068e-01 1.08627222e-01 6.28545210e-02 2.88456753e-02 3.18418704e-02 1.72317386e-01 1.85917720e-01 1.61187500e-01 1.98381394e-01 1.54301763e-01 1.42888069e-01 1.85929865e-01 1.08162582e-01 1.32164150e-01 1.58812940e-01 1.04245514e-01 1.69764444e-01 1.78359509e-01 1.43957511e-01 1.32061869e-01 1.51895568e-01 2.04492599e-01 2.03523606e-01 1.55553654e-01 1.98245093e-01 1.65714443e-01 1.17544413e-01 1.06602497e-01 5.00331074e-02 3.52376550e-02 3.20564918e-02 1.98200643e-01 1.88384384e-01 2.00395003e-01 1.90556183e-01 2.08138943e-01 1.86393604e-01 1.60965517e-01 1.78518012e-01 1.90710068e-01 1.75491720e-01 1.94600165e-01 1.81224406e-01 2.10687101e-01 2.11347625e-01 2.08802566e-01 1.86987460e-01 2.03033820e-01 1.90609768e-01 1.57820180e-01 6.14558719e-02 1.25857338e-01 3.22085992e-02 6.40264377e-02 2.09062055e-01 2.04271078e-01 2.02946171e-01 2.20529497e-01 1.99789032e-01 1.91463247e-01 2.08092362e-01 2.00969383e-01 2.09899813e-01 2.23481491e-01 2.21184671e-01 2.11205065e-01 2.19730899e-01 2.02759072e-01 2.07833886e-01 1.78421885e-01 1.99214086e-01 1.59959212e-01 1.15927190e-01 6.83531985e-02 9.42180306e-02 3.19412164e-02 2.12036267e-01 2.25336879e-01 2.08522201e-01 2.09360778e-01 2.48257160e-01 2.41798222e-01 2.10603014e-01 2.08113804e-01 2.15752006e-01 2.15131506e-01 2.22433925e-01 2.43744552e-01 2.41937146e-01 2.39451364e-01 2.31294945e-01 2.18474105e-01 2.45881647e-01 2.54400969e-01 2.63652265e-01 1.97112724e-01 2.04484031e-01 2.10345775e-01 1.51136205e-01 1.73345089e-01 7.45396242e-02 1.22407787e-01 3.17777768e-02 2.19370335e-01 2.59968072e-01 2.38091856e-01 2.18888551e-01 3.01069975e-01 2.82678217e-01 2.75774151e-01 2.23663270e-01 2.25322291e-01 2.31423527e-01 2.30853036e-01 2.85146803e-01 2.90135622e-01 2.43934557e-01 2.73837507e-01 2.59747118e-01 2.77437449e-01 3.10228586e-01 2.78061718e-01 1.90117136e-01 2.07608998e-01 2.12666810e-01 2.23490372e-01 1.53807074e-01 1.75045639e-01 1.02183402e-01 2.39841238e-01 3.11974853e-01 2.68317938e-01 3.81451935e-01 3.71412575e-01 3.32026213e-01 3.46882433e-01 2.59502143e-01 2.55079538e-01 2.52113461e-01 3.64473671e-01 3.68464321e-01 3.43427241e-01 3.18909556e-01 2.96969622e-01 2.98481524e-01 3.22215736e-01 3.05468887e-01 3.47096175e-01 1.91796750e-01 2.19021946e-01 2.06801742e-01 2.29234949e-01 2.51852810e-01 2.81600505e-01 3.81481081e-01 3.16352874e-01 4.85140979e-01 4.53937739e-01 4.43483979e-01 4.34253365e-01 3.10937047e-01 2.95746475e-01 3.14757138e-01 4.58676130e-01 4.46611732e-01 4.02392477e-01 3.51092458e-01 3.56855035e-01 3.78869414e-01 3.88655394e-01 4.31966692e-01 4.51084316e-01 2.45314717e-01 2.18961880e-01 2.40620673e-01 2.64045000e-01 3.05793673e-01 3.72024953e-01 4.72782463e-01 5.56568861e-01 6.12309217e-01 5.40400982e-01 5.28002501e-01 3.94689500e-01 3.72254491e-01 5.53329051e-01 5.05143344e-01 4.34567004e-01 4.39460456e-01 5.00037014e-01 4.65299100e-01 5.32324672e-01 2.87061721e-01 2.40532473e-01 3.04815948e-01 2.62862504e-01 3.14216077e-01 3.85606825e-01 4.75520343e-01 5.80714464e-01 6.35534763e-01 6.79922640e-01 7.04613328e-01 5.08806944e-01 4.59615737e-01 6.53082013e-01 5.93998492e-01 5.12903154e-01 5.24214685e-01 5.58778167e-01 5.67934752e-01 6.15746379e-01 3.50413561e-01 3.69169146e-01 2.74932951e-01 3.25423419e-01 4.06646222e-01 3.52400094e-01 4.64565247e-01 5.49286306e-01 6.44223750e-01 7.30437100e-01 7.24140942e-01 7.48229861e-01 7.59042799e-01 6.15734100e-01 5.66301525e-01 7.02563643e-01 6.50931299e-01 6.09986067e-01 6.36283219e-01 6.88844025e-01 4.45126921e-01 4.01276976e-01 4.74873364e-01 5.10238051e-01 5.44914305e-01 6.17762148e-01 7.10989952e-01 7.57932663e-01 7.71733046e-01 7.64028251e-01 7.80047357e-01 7.14188993e-01 6.71512663e-01 7.02447534e-01 7.13216126e-01 7.44331658e-01 4.98518735e-01 5.69092155e-01 6.61861360e-01 7.60959864e-01 7.30338812e-01 7.80109048e-01 7.59673119e-01 7.81423688e-01 7.72123396e-01 7.75779963e-01 7.35415339e-01 7.54940093e-01 7.67445028e-01 5.91435909e-01 6.91809177e-01 7.50443757e-01 7.59678841e-01 7.63787150e-01 7.44103432e-01 7.40219355e-01 7.68514335e-01 7.03685641e-01 7.23264039e-01 7.79537141e-01 7.78159142e-01 7.69678712e-01 7.03029335e-01 7.05753803e-01 7.38226950e-01 6.15237415e-01 6.38728321e-01 5.68481624e-01 5.84877551e-01 6.94374859e-01 6.60450637e-01 7.12292433e-01 5.65128505e-01 6.07712805e-01 5.85304737e-01 4.29206997e-01 5.14007747e-01 4.08014297e-01 4.32375044e-01 4.59159851e-01 5.07703602e-01 3.04452062e-01 4.96502697e-01 4.33279216e-01 2.99629301e-01 4.15747702e-01 3.79825026e-01 3.53024483e-01 2.31939062e-01 2.26035714e-01 2.28120282e-01 2.29009852e-01 
