# vtk DataFile Version 2.0
results_case1/1616747557/sol_toll1e-05_vf0.3_iter3.vtk, Created by Freefem++ 
ASCII
DATASET UNSTRUCTURED_GRID
POINTS 478 float
0 0.72608126 0
0 0.78249274 0
0 0.83310283 0
0 0.62817577 0
0 0.67227272 0
0.010088686 0.72275788 0
0 0.12067596 0
0 0.150451 0
0 0.074656916 0
0 0.057539926 0
0 0.095866946 0
0 0.60108786 0
0 0.58510462 0
0 0.19741898 0
0 0.26113765 0
0 0.31401104 0
0 0.35780419 0
0.01124793 0.21442734 0
0 0.86869952 0
0.011712005 0.8131178 0
0.013153278 0.6132296 0
0.013933565 0.64989143 0
0.02123952 0.68368843 0
0.019901018 0.74835425 0
0 0.043074738 0
0 0 0
0 0.017947681 0
0 0.030854521 0
0.012791265 0.14811971 0
0.013883743 0.082955732 0
0.01527795 0.59018099 0
0 0.57343435 0
0 0.56162822 0
0 0.54734804 0
0.011835269 0.29217642 0
0.013215284 0.35552149 0
0 0.41339252 0
0 0.39270837 0
0.014543935 0.39153924 0
0.02085114 0.26106261 0
0 0.89562745 0
0.013192521 0.88994094 0
0.023017963 0.8203219 0
0.023824334 0.61720903 0
0.027176662 0.65349988 0
0.028533036 0.72193871 0
0.021387349 0 0
0.017025733 0.038135315 0
0.023236414 0.17121512 0
0.025381208 0.093514578 0
0 0.52117011 0
0 0.5341003 0
0.027443564 0.58929953 0
0.018368556 0.57352594 0
0.017519244 0.55895402 0
0 0.44406299 0
0 0.4567316 0
0 0.42514501 0
0 0.43377389 0
0 0.50258864 0
0 0.48223797 0
0 0.46877265 0
0.023142139 0.34773661 0
0.025435236 0.40254389 0
0.015455037 0.41997587 0
0.028640548 0.28832174 0
0 0.92079934 0
0.024334133 0.89493211 0
0.017651279 0.94584171 0
0.031259525 0.79800469 0
0.045570675 0 0
0.032024177 0.62023838 0
0.033873338 0.67682102 0
0.032742021 0.040572585 0
0.031673213 0.18902201 0
0.034406766 0.092666797 0
0.017102128 0.52533835 0
0.020367388 0.54592068 0
0.035112481 0.58746162 0
0.030755522 0.56625708 0
0.015955292 0.45107179 0
0.018080185 0.46298376 0
0.019104987 0.43990301 0
0.02037841 0.50301056 0
0.021406522 0.47714744 0
0.030897923 0.37818012 0
0.029054431 0.4292195 0
0.034247547 0.32039899 0
0 0.94117791 0
0.03035698 0.91503552 0
0.01592632 0.97273969 0
0.032360189 0.96921186 0
0.036695514 0.84542518 0
0.038222282 0.74668614 0
0.076240721 0 0
0.052174553 0.03864323 0
0.040315214 0.66663087 0
0.038769647 0.61893807 0
0.038686697 0.25786345 0
0.046315709 0.087630465 0
0.040289988 0.15284439 0
0.032960885 0.54372338 0
0.042200288 0.5815501 0
0.030540574 0.45867359 0
0.036318068 0.51616857 0
0.035674592 0.48408153 0
0.03668657 0.40375281 0
0.037683834 0.43958137 0
0.040106227 0.3655686 0
0.046716618 0.33301447 0
0 0.9551484 0
0.040808339 0.91433371 0
0.014540054 0.98396905 0
0 0.96853534 0
0.021387349 1 0
0.045570675 1 0
0.050217892 0.95128631 0
0.047318506 0.83077764 0
0.046903845 0.73377457 0
0.064475026 0.075811721 0
0.11954867 0 0
0.084308798 0.035903569 0
0.18639305 0 0
0.29565744 0 0
0.70845961 0 0
1 0 0
0.83002403 0.0106261 0
0.04878218 0.64167617 0
0.049402521 0.23665632 0
0.055418638 0.14853758 0
0.047451657 0.54315066 0
0.054325051 0.58969453 0
0.045178411 0.45998355 0
0.050847389 0.49747968 0
0.047853795 0.41283845 0
0.060352791 0.3453809 0
0.052702265 0.89573031 0
0.012104008 0.99540666 0
0 0.98210909 0
0 1 0
0.076240721 1 0
0.071054394 0.96586296 0
0.068045049 0.92514614 0
0.069216754 0.86504681 0
0.060332583 0.70796124 0
0.061603351 0.79157589 0
0.074712562 0.11089357 0
0.094656916 0.069377042 0
0.18587657 0.019765566 0
0.1312289 0.03294901 0
0.46835177 0 0
0.25922079 0.015686343 0
0.38160573 0.012500324 0
0.71372508 0.016271083 0
1 0.017947681 0
0.06657217 0.63711087 0
0.067469359 0.22759502 0
0.081694873 0.16254922 0
0.065039952 0.5427898 0
0.062976091 0.45190146 0
0.080253103 0.29422717 0
0.080726331 0.38836735 0
0.11954867 1 0
0.10944003 0.97482458 0
0.096327128 0.94428531 0
0.094144213 0.90618123 0
0.10748162 0.85939524 0
0.087424378 0.80997128 0
0.08408957 0.73219646 0
0.11090467 0.11166368 0
0.13541188 0.067872427 0
0.19725342 0.04064731 0
0.53598706 0.017821843 0
0.31349458 0.030933861 0
0.43995433 0.029859322 0
0.74133403 0.028662577 0
1 0.030854521 0
0.084737303 0.62549302 0
0.11539127 0.16416976 0
0.10105447 0.22144952 0
0.084787758 0.50784112 0
0.10114665 0.41083055 0
0.10900023 0.29544256 0
0.14677776 0.96721176 0
0.18639305 1 0
0.14084088 0.93660861 0
0.14123208 0.89930516 0
0.15827792 0.86148572 0
0.1105164 0.71212899 0
0.1229716 0.7987434 0
0.16187495 0.10051417 0
0.15128594 0.13923297 0
0.19844914 0.069781664 0
0.25802123 0.0524417 0
0.22285815 0.095794319 0
0.59167366 0.035564476 0
0.36287551 0.049537594 0
0.48267304 0.047341636 0
1 0.043074738 0
0.77513227 0.04162856 0
0.10828068 0.59645911 0
0.1471276 0.19771603 0
0.12178316 0.49174625 0
0.14520223 0.26334536 0
0.13138125 0.35889738 0
0.2213254 0.98387661 0
0.19168327 0.960741 0
0.29565744 1 0
0.23637818 0.94517701 0
0.19126805 0.92192407 0
0.17238886 0.83013428 0
0.21195043 0.89460772 0
0.22529886 0.86555167 0
0.13653407 0.68620755 0
0.15768082 0.76990639 0
1 0.057539926 0
0.19995979 0.14009866 0
0.28112917 0.10409329 0
0.30096095 0.073326085 0
0.59251461 0.054503737 0
0.4266199 0.065242996 0
0.76582405 0.058744035 0
0.15214406 0.61444476 0
0.16395017 0.53526618 0
0.19789256 0.20398857 0
0.16216608 0.42054486 0
0.18046982 0.30457434 0
0.28438068 0.97305259 0
0.38082408 0.98286105 0
0.46835177 1 0
0.34749886 0.9520301 0
0.2754889 0.9229756 0
0.21887623 0.81029698 0
0.30201382 0.90160761 0
0.30104542 0.87216896 0
0.19420701 0.71477861 0
1 0.074656916 0
0.2653117 0.1428678 0
0.27757807 0.17788237 0
0.35026604 0.11312008 0
0.39814143 0.08427723 0
0.54884914 0.076130696 0
0.7241811 0.076404916 0
0.21277756 0.63000606 0
0.20245848 0.51325163 0
0.23966475 0.24036377 0
0.23455934 0.30754519 0
0.20887369 0.3963224 0
0.70845961 1 0
0.45898037 0.96595864 0
0.53419207 0.97990654 0
0.60295449 0.9895329 0
0.48991469 0.94859887 0
0.38578867 0.92853046 0
0.25527366 0.77203012 0
0.30086129 0.83339237 0
0.42264799 0.90681464 0
0.38928655 0.86813259 0
0.27171588 0.71697231 0
0.81808379 0.090725774 0
1 0.095866946 0
0.32455888 0.20407214 0
0.37558561 0.14470062 0
0.47682327 0.1058582 0
0.62755448 0.10270077 0
0.24884204 0.58183582 0
0.28552773 0.6529314 0
0.24542206 0.42727938 0
0.24153108 0.49359835 0
0.30148332 0.26735034 0
0.26686142 0.34884387 0
0.31448057 0.31349382 0
0.28770804 0.40374936 0
1 1 0
0.81178332 0.98894333 0
0.63777109 0.96493676 0
0.77711715 0.97533576 0
0.64592913 0.95024668 0
0.53295119 0.93252049 0
0.43549988 0.84645333 0
0.34548486 0.75763 0
0.34394438 0.80170786 0
0.5994173 0.92116639 0
0.51109494 0.89305787 0
0.34056282 0.70330012 0
0.79290844 0.11444355 0
1 0.12067596 0
0.38010139 0.23042053 0
0.41209123 0.17814136 0
0.50568623 0.14310887 0
0.62065852 0.13251122 0
0.43102858 0.25218573 0
0.29379809 0.54054773 0
0.36947158 0.64902316 0
0.32196597 0.60341419 0
0.30308214 0.47469864 0
0.34619597 0.43005957 0
0.36950905 0.29605051 0
0.34275963 0.36570942 0
1 0.98210909 0
1 0.96853534 0
0.82470462 0.96007894 0
0.75959378 0.942058 0
0.53095174 0.86115242 0
0.4063451 0.74716403 0
0.43238798 0.80212963 0
0.79264847 0.92459624 0
0.65413998 0.90171335 0
0.41879633 0.6907489 0
0.6974946 0.14428518 0
0.84485578 0.13850833 0
0.77615223 0.16504586 0
1 0.150451 0
0.47960558 0.19842488 0
0.58096563 0.17313065 0
0.50229994 0.24389807 0
0.44195475 0.31099982 0
0.49464296 0.28913836 0
0.47108732 0.6356172 0
0.37733084 0.56360916 0
0.3805384 0.51769611 0
0.43739733 0.59681938 0
0.40491225 0.47132368 0
0.42419562 0.41933795 0
0.42070627 0.36176668 0
1 0.9551484 0
1 0.94117791 0
0.63350915 0.87008162 0
0.52670754 0.82060862 0
0.47512888 0.72374342 0
0.48638166 0.76856863 0
1 0.92079934 0
0.80779609 0.89913413 0
0.5178849 0.67389432 0
0.56683022 0.62362439 0
0.68782973 0.18140612 0
0.88513779 0.17845506 0
0.79513525 0.20809968 0
1 0.19741898 0
0.56459881 0.2273309 0
0.63149912 0.21108439 0
0.50665352 0.3676145 0
0.57770473 0.2927341 0
0.55191824 0.34364482 0
0.56639038 0.58126126 0
0.48867711 0.50386861 0
0.50307988 0.5443674 0
0.52126014 0.46497038 0
0.52296399 0.41917317 0
0.6142839 0.83010978 0
0.71533061 0.86582719 0
0.56167926 0.77637419 0
0.56555894 0.71420695 0
1 0.89562745 0
0.83389383 0.86830772 0
0.61940202 0.64861704 0
0.65384772 0.59591282 0
0.7183758 0.23334229 0
0.8178742 0.26335662 0
0.90416049 0.23716794 0
1 0.26113765 0
0.65331183 0.26958022 0
0.65592753 0.32856999 0
0.6033859 0.4103475 0
0.63594887 0.37221813 0
0.7015205 0.55931907 0
0.63010511 0.54029785 0
0.59870321 0.50398694 0
0.62951827 0.46351084 0
0.63489654 0.79188165 0
0.71663357 0.82708148 0
0.63580477 0.73537513 0
0.66564254 0.67366199 0
1 0.86869952 0
0.89895895 0.84766913 0
0.81776491 0.8262554 0
0.71674068 0.60929142 0
0.78056347 0.57094154 0
0.74849694 0.29094223 0
0.82856722 0.3167207 0
0.90633409 0.29363665 0
1 0.31401104 0
0.71887026 0.33521836 0
0.70319985 0.38726724 0
0.69002224 0.43375418 0
0.77442886 0.53300955 0
0.7040404 0.51061922 0
0.72266734 0.47647747 0
0.73948712 0.64637148 0
0.70459907 0.76583673 0
0.76795242 0.79049151 0
0.7237573 0.702066 0
1 0.83310283 0
0.90837551 0.80146848 0
0.84735556 0.7658769 0
0.80607296 0.61050314 0
0.84501867 0.57689721 0
0.83415641 0.54874064 0
0.78833857 0.35111843 0
0.85910811 0.36802768 0
0.91321703 0.34388282 0
1 0.35780419 0
0.75532584 0.42870351 0
0.76828117 0.39296151 0
0.82484486 0.52075887 0
0.77699516 0.46025997 0
0.78843278 0.49580973 0
0.79722164 0.66652671 0
0.78552702 0.72960223 0
0.85471064 0.69978787 0
0.86115249 0.63950042 0
1 0.78249274 0
0.92285488 0.73873003 0
0.88507851 0.59783223 0
0.88221617 0.56432021 0
0.8634831 0.53284552 0
0.82940589 0.39948111 0
0.88853994 0.40147109 0
1 0.39270837 0
0.93361285 0.38412175 0
0.81713685 0.43342441 0
0.83943157 0.49618414 0
0.82939605 0.46682646 0
0.93056269 0.6321624 0
0.92050812 0.67770549 0
1 0.72608126 0
0.94228018 0.60186131 0
0.93213037 0.57965302 0
0.90392801 0.55356896 0
0.86316336 0.50409019 0
0.88781792 0.52941027 0
1 0.42514501 0
1 0.41339252 0
0.86879168 0.4229137 0
0.93229158 0.41468636 0
0.85998401 0.44508643 0
0.86440026 0.47116621 0
1 0.62817577 0
1 0.67227272 0
1 0.60108786 0
1 0.58510462 0
0.94380871 0.56431506 0
[...]
CELL_DATA 954
Scalars  Label int 1
LOOKUP_TABLE FreeFempp_table
0
0
0
0
0
0
0
0
0
0
0
0
0
0
0
0
0
0
0
0
0
0
0
0
0
0
0
0
0
0
0
0
0
0
0
0
0
0
0
0
0
0
0
0
0
0
0
0
0
0
0
0
0
0
0
0
0
0
0
0
0
0
0
0
0
0
0
0
0
0
0
0
0
0
0
0
0
0
0
0
0
0
0
0
0
0
0
0
0
0
0
0
0
0
0
0
0
0
0
0
0
0
0
0
0
0
0
0
0
0
0
0
0
0
0
0
0
0
0
0
0
0
0
0
0
0
0
0
0
0
0
0
0
0
0
0
0
0
0
0
0
0
0
0
0
0
0
0
0
0
0
0
0
0
0
0
0
0
0
0
0
0
0
0
0
0
0
0
0
0
0
0
0
0
0
0
0
0
0
0
0
0
0
0
0
0
0
0
0
0
0
0
0
0
0
0
0
0
0
0
0
0
0
0
0
0
0
0
0
0
0
0
0
0
0
0
0
0
0
0
0
0
0
0
0
0
0
0
0
0
0
0
0
0
0
0
0
0
0
0
0
0
0
0
0
0
0
0
0
0
0
0
0
0
0
0
0
0
0
0
0
0
0
0
0
0
0
0
0
0
0
0
0
0
0
0
0
0
0
0
0
0
0
0
0
0
0
0
0
0
0
0
0
0
0
0
0
0
0
0
0
0
0
0
0
0
0
0
0
0
0
0
0
0
0
0
0
0
0
0
0
0
0
0
0
0
0
0
0
0
0
0
0
0
0
0
0
0
0
0
0
0
0
0
0
0
0
0
0
0
0
0
0
0
0
0
0
0
0
0
0
0
0
0
0
0
0
0
0
0
0
0
0
0
0
0
0
0
0
0
0
0
0
0
0
0
0
0
0
0
0
0
0
0
0
0
0
0
0
0
0
0
0
0
0
0
0
0
0
0
0
0
0
0
0
0
0
0
0
0
0
0
0
0
0
0
0
0
0
0
0
0
0
0
0
0
0
0
0
0
0
0
0
0
0
0
0
0
0
0
0
0
0
0
0
0
0
0
0
0
0
0
0
0
0
0
0
0
0
0
0
0
0
0
0
0
0
0
0
0
0
0
0
0
0
0
0
0
0
0
0
0
0
0
0
0
0
0
0
0
0
0
0
0
0
0
0
0
0
0
0
0
0
0
0
0
0
0
0
0
0
0
0
0
0
0
0
0
0
0
0
0
0
0
0
0
0
0
0
0
0
0
0
0
0
0
0
0
0
0
0
0
0
0
0
0
0
0
0
0
0
0
0
0
0
0
0
0
0
0
0
0
0
0
0
0
0
0
0
0
0
0
0
0
0
0
0
0
0
0
0
0
0
0
0
0
0
0
0
0
0
0
0
0
0
0
0
0
0
0
0
0
0
0
0
0
0
0
0
0
0
0
0
0
0
0
0
0
0
0
0
0
0
0
0
0
0
0
0
0
0
0
0
0
0
0
0
0
0
0
0
0
0
0
0
0
0
0
0
0
0
0
0
0
0
0
0
0
0
0
0
0
0
0
0
0
0
0
0
0
0
0
0
0
0
0
0
0
0
0
0
0
0
0
0
0
0
0
0
0
0
0
0
0
0
0
0
0
0
0
0
0
0
0
0
0
0
0
0
0
0
0
0
0
0
0
0
0
0
0
0
0
0
0
0
0
0
0
0
0
0
0
0
0
0
0
0
0
0
0
0
0
0
0
0
0
0
0
0
0
0
0
0
0
0
0
0
0
0
0
0
0
0
0
0
0
0
0
0
0
0
0
0
0
0
0
0
0
0
0
0
0
0
0
0
0
0
0
0
0
0
0
0
0
0
0
0
0
0
0
0
0
0
0
0
0
0
0
0
0
0
0
0
0
0
0
0
0
0
0
0
0
0
0
0
0
0
0
0
0
0
0
0
0
0
0
0
0
0
0
0
0
0
0
1
1
1
1
1
1
1
1
1
3
3
3
3
3
3
3
3
3
2
2
2
2
2
2
2
2
2
2
2
2
2
2
2
2
2
2
2
2
2
2
2
2
2
2
2
2
2
2
2
2
2
2
2
2
2
2
2
2
2
4
4
4
4
4
4
4
4
4
4
4
4
4
4
4
4
4
4
4
4
4
4
4
4
4
4
4
4
4
4
4
4
4
4
4
4
4
4
4
4
4

LOOKUP_TABLE FreeFempp_table 5
1.00000000 0.00000000 0.00000000 1.00000000
1.00000000 1.00000000 0.00000000 1.00000000
1.00000000 0.00000000 1.00000000 1.00000000
0.00000000 1.00000000 0.00000000 1.00000000
0.00000000 1.00000000 1.00000000 1.00000000

POINT_DATA 478
FIELD FieldData 1
Density 1 478 float
4.88627583e-01 3.93114507e-01 3.11348557e-01 6.80972576e-01 5.88069439e-01 3.60090494e-01 2.46585324e-01 2.85575867e-01 2.11039409e-01 1.96042210e-01 2.23032683e-01 7.35946417e-01 7.60470271e-01 3.60204428e-01 4.66010660e-01 5.61241329e-01 6.50488794e-01 2.61270493e-01 2.61518270e-01 2.38819987e-01 4.72473532e-01 4.06986117e-01 2.53477454e-01 2.13137180e-01 1.79555967e-01 3.19416858e-02 1.05144635e-01 1.55561849e-01 1.78159058e-01 1.38984695e-01 4.48364884e-01 7.52576172e-01 6.67212665e-01 4.65234429e-01 3.47601920e-01 4.07419592e-01 7.57304549e-01 7.22315550e-01 4.37345743e-01 1.97755009e-01 2.31485888e-01 1.58783585e-01 1.28811374e-01 2.64793545e-01 1.77311495e-01 1.20452151e-01 3.18471305e-02 8.95463601e-02 1.13524146e-01 6.84678406e-02 2.31521711e-01 2.89939791e-01 2.02075228e-01 3.79729271e-01 2.73225278e-01 6.02025449e-01 4.04652596e-01 7.72169769e-01 7.40790427e-01 2.28878081e-01 2.27229953e-01 2.67928451e-01 2.28164762e-01 2.25578159e-01 4.42046642e-01 1.18025102e-01 2.12496683e-01 8.49500075e-02 1.08831719e-01 6.04568012e-02 3.19066942e-02 1.12947658e-01 7.13673458e-02 5.22645079e-02 4.84592617e-02 3.29525359e-02 1.53507218e-01 1.38229221e-01 8.54053050e-02 1.25938699e-01 3.70435417e-01 1.98593915e-01 3.67825568e-01 1.39346957e-01 1.43406928e-01 1.11924313e-01 1.66361183e-01 6.90996870e-02 1.96734741e-01 4.16485630e-02 9.53996107e-02 3.53659764e-02 3.54729705e-02 6.10883199e-02 3.19362618e-02 3.01569514e-02 8.44579935e-02 8.82698074e-02 6.62786216e-02 3.22131589e-02 4.07682210e-02 9.56515074e-02 1.02167070e-01 1.18128605e-01 9.47111845e-02 1.02157220e-01 9.62197781e-02 9.59719121e-02 9.05002654e-02 1.00380644e-01 1.80256337e-01 2.74934769e-02 7.81203583e-02 1.56948477e-01 3.18471305e-02 3.19066942e-02 2.94899214e-02 5.09243347e-02 8.34750906e-02 3.14995348e-02 3.19475606e-02 2.99057588e-02 3.20443511e-02 3.23365889e-02 3.22198160e-02 3.19416858e-02 7.33149052e-02 1.10068589e-01 8.00826848e-02 5.69978766e-02 1.17479913e-01 1.31477401e-01 1.11338034e-01 1.27393141e-01 1.14879049e-01 1.35837093e-01 3.48065719e-02 5.02134077e-02 1.04934961e-01 3.19416858e-02 3.19362618e-02 2.91372407e-02 3.18999626e-02 6.48567975e-02 1.23192765e-01 9.43039730e-02 5.46447746e-02 4.02804129e-02 3.67351919e-02 2.98461821e-02 3.26307490e-02 4.72006723e-02 5.84764257e-02 9.36344117e-02 1.05144635e-01 1.55195281e-01 1.14537768e-01 1.01483837e-01 1.61997005e-01 1.56873733e-01 1.55554518e-01 1.73590675e-01 3.19475606e-02 2.53872667e-02 3.26748192e-02 5.87765612e-02 1.17682464e-01 1.25608787e-01 1.55754104e-01 9.54266936e-02 6.58081546e-02 5.35483100e-02 8.68420973e-02 7.39608705e-02 1.03354558e-01 1.36519939e-01 1.55561849e-01 1.78092316e-01 1.42160833e-01 1.56480268e-01 1.83631495e-01 1.95217162e-01 1.86906174e-01 2.89410669e-02 3.20443511e-02 6.18992560e-02 1.12164140e-01 1.62604883e-01 1.86480060e-01 1.72887787e-01 1.29789442e-01 1.57282159e-01 1.09829523e-01 1.03074417e-01 1.56353980e-01 1.42788231e-01 1.31811112e-01 1.51395723e-01 1.79555967e-01 1.71080723e-01 1.97845355e-01 1.83455586e-01 2.03660563e-01 1.98597103e-01 2.03452945e-01 3.50539237e-02 4.78357412e-02 3.23365889e-02 1.00052208e-01 1.16808869e-01 1.88596696e-01 1.66734159e-01 1.91100821e-01 2.01003999e-01 1.98654175e-01 1.96042210e-01 1.81811482e-01 1.87356293e-01 1.61327302e-01 1.77410558e-01 1.82065189e-01 1.92927688e-01 2.08586648e-01 2.11579531e-01 2.01876804e-01 2.10695192e-01 2.09317118e-01 5.91764227e-02 6.36277050e-02 3.26307490e-02 1.24051243e-01 1.54255226e-01 2.04654858e-01 1.89290926e-01 2.02802956e-01 2.09885105e-01 2.11039409e-01 2.00619519e-01 2.09380850e-01 2.02655822e-01 1.92115843e-01 2.02253982e-01 2.08283871e-01 2.21597418e-01 2.24212229e-01 2.12278411e-01 2.20673993e-01 2.22203568e-01 3.22198160e-02 1.16572917e-01 9.18005705e-02 6.67001829e-02 1.61447212e-01 1.79040805e-01 2.12874964e-01 2.09000319e-01 1.99294403e-01 2.09665224e-01 2.27025494e-01 2.15879962e-01 2.23032683e-01 2.20836952e-01 2.12246299e-01 2.08008990e-01 2.14866430e-01 2.42882073e-01 2.50536680e-01 2.42835656e-01 2.43976474e-01 2.32829824e-01 2.40354523e-01 2.55506307e-01 2.64714658e-01 3.19416858e-02 7.46918246e-02 1.44371316e-01 1.24712721e-01 1.73628345e-01 1.95863843e-01 2.20170647e-01 2.38395661e-01 2.20602944e-01 2.04420611e-01 2.10243627e-01 2.60402232e-01 2.31465757e-01 2.46585324e-01 2.45556414e-01 2.28390202e-01 2.25772664e-01 2.30974570e-01 2.77315825e-01 2.77058095e-01 3.02736074e-01 2.86243439e-01 2.84962118e-01 3.11964840e-01 2.75245786e-01 2.91494399e-01 1.04934961e-01 1.56948477e-01 1.65388808e-01 1.92185476e-01 2.24140570e-01 2.68670261e-01 2.42155045e-01 2.08934247e-01 2.13226467e-01 3.11870307e-01 2.51885265e-01 2.60883659e-01 2.90682763e-01 2.85575867e-01 2.57893145e-01 2.61186451e-01 3.04318309e-01 3.26614201e-01 3.41245264e-01 3.80724639e-01 3.37059051e-01 3.46219450e-01 3.73706698e-01 3.66020977e-01 3.69707286e-01 3.43073934e-01 1.80256337e-01 1.96734741e-01 2.31104955e-01 2.53645539e-01 3.20614606e-01 2.87561476e-01 2.12496683e-01 2.22047165e-01 3.84785503e-01 4.55062389e-01 2.96133071e-01 3.22291434e-01 3.54655743e-01 3.60204428e-01 3.14094514e-01 3.17304015e-01 4.06373143e-01 3.89026970e-01 4.20211792e-01 4.80741084e-01 4.36833411e-01 4.42673981e-01 4.60108221e-01 4.46408600e-01 2.64979541e-01 2.43905202e-01 3.07692647e-01 3.75131071e-01 2.31485888e-01 2.53102690e-01 4.69909757e-01 5.39570034e-01 3.73589635e-01 4.44448233e-01 4.18660849e-01 4.66010660e-01 3.98004681e-01 4.68883812e-01 5.03852844e-01 4.99360740e-01 6.08478189e-01 5.52488565e-01 5.29782474e-01 5.51414549e-01 3.14690053e-01 2.90105373e-01 3.85181338e-01 4.70938742e-01 2.61518270e-01 2.83806294e-01 3.07116449e-01 5.75884461e-01 6.74890757e-01 4.63951081e-01 5.31202316e-01 5.10595143e-01 5.61241329e-01 5.08619010e-01 5.60232341e-01 5.93176723e-01 7.01219618e-01 6.33459151e-01 6.50581837e-01 5.43807209e-01 3.71096432e-01 3.52531880e-01 4.63315040e-01 3.11348557e-01 3.56961399e-01 4.05466646e-01 6.40407503e-01 7.19991624e-01 7.45342076e-01 5.66609979e-01 6.32306337e-01 6.03419363e-01 6.50488794e-01 6.50954783e-01 6.16737127e-01 7.57295489e-01 7.00949013e-01 7.27266729e-01 5.45006633e-01 4.46805120e-01 5.11419654e-01 6.19712472e-01 3.93114507e-01 4.60117817e-01 7.12053299e-01 7.62404442e-01 7.78629422e-01 6.71877384e-01 7.11996496e-01 7.22315550e-01 6.95609570e-01 7.14011133e-01 7.71114528e-01 7.56846428e-01 6.59571946e-01 5.64949572e-01 4.88627583e-01 7.27479398e-01 7.60490119e-01 7.71953762e-01 7.81182051e-01 7.75898695e-01 7.72169769e-01 7.57304549e-01 7.35566914e-01 7.51903296e-01 7.59284973e-01 7.79702902e-01 6.80972576e-01 5.88069439e-01 7.35946417e-01 7.60470271e-01 7.56128848e-01 7.40790427e-01 7.04911828e-01 7.40871370e-01 7.22727537e-01 7.77594626e-01 7.67672002e-01 7.63639152e-01 7.45340466e-01 7.52576172e-01 6.95586860e-01 6.02025449e-01 7.02236772e-01 5.56595266e-01 5.84740281e-01 6.39396548e-01 7.37481415e-01 7.09305048e-01 6.21225655e-01 6.67212665e-01 5.47618926e-01 4.04652596e-01 5.66512644e-01 3.92197698e-01 4.32110548e-01 4.29222405e-01 6.00162148e-01 5.05984306e-01 2.89939791e-01 4.65234429e-01 4.73962873e-01 2.67928451e-01 2.31521711e-01 3.93227816e-01 4.03653055e-01 2.27229953e-01 2.28878081e-01 
