# vtk DataFile Version 2.0
results_case1/1616747557/sol_toll1e-05_vf0.3_iter4.vtk, Created by Freefem++ 
ASCII
DATASET UNSTRUCTURED_GRID
POINTS 477 float
0 0.73099947 0
0 0.98227563 0
0 0.96992934 0
0 0.7943402 0
0 0.84331121 0
0 0.93001408 0
0 0.90465422 0
0 0.87689162 0
0 0.12343432 0
0 0.15400175 0
0 0.077345072 0
0 0.099063217 0
0 0.62955368 0
0 0.676078 0
0.010503846 0.71882001 0
0 0.6003894 0
0 0.20355195 0
0 0.26463712 0
0.011638863 0.21893665 0
0 0.31717613 0
0 0.3626561 0
0 1 0
0.011659374 0.99458116 0
0 0.95912903 0
0.016103154 0.98224901 0
0 0.94705797 0
0.011498631 0.8116549 0
0.013618527 0.93791095 0
0.013159382 0.88710331 0
0.013107613 0.15155544 0
0 0.031285153 0
0 0.043609923 0
0 0 0
0 0.018301879 0
0 0.059261669 0
0.014271521 0.085070796 0
0.013575693 0.61390423 0
0.013146698 0.64954683 0
0.021956852 0.67633587 0
0.020107932 0.74413853 0
0 0.58330674 0
0 0.57116838 0
0 0.54226304 0
0 0.55794494 0
0.016378655 0.59150833 0
0.011955652 0.29584737 0
0.021296336 0.25806114 0
0 0.41167199 0
0 0.39420791 0
0.013558163 0.36682364 0
0.020956736 1 0
0.019499654 0.96206175 0
0.02296703 0.81984624 0
0.023780701 0.89872917 0
0.023614785 0.16906315 0
0.020956736 0 0
0.016837657 0.037979289 0
0.025747008 0.09174543 0
0.02397581 0.6190216 0
0.028981129 0.65068182 0
0.02878038 0.72029705 0
0 0.52819925 0
0.017533743 0.57338987 0
0.017484614 0.55769206 0
0.027519372 0.5888362 0
0.028962261 0.28514295 0
0.023527483 0.34263192 0
0 0.45965865 0
0 0.42209883 0
0 0.44770964 0
0 0.42976453 0
0 0.43728412 0
0.023586026 0.39823851 0
0.015916604 0.41589081 0
0 0.51056722 0
0 0.48790493 0
0 0.47192586 0
0.043891516 1 0
0.033194224 0.97108236 0
0.030072907 0.9176177 0
0.031109916 0.80021537 0
0.072692518 1 0
0.043891516 0 0
0.031787192 0.19197911 0
0.03424365 0.099745851 0
0.033440323 0.039937805 0
0.032403742 0.6177085 0
0.034215942 0.67689892 0
0.019500382 0.54378572 0
0.017691134 0.52576024 0
0.03058451 0.56575623 0
0.035277108 0.58641741 0
0.034220898 0.32148577 0
0.030684164 0.37771961 0
0.017176234 0.46296578 0
0.019330121 0.43889301 0
0.017574209 0.45169571 0
0.028912612 0.42699806 0
0.019771394 0.50385331 0
0.020242155 0.47740165 0
0.070201693 0.96527909 0
0.050262011 0.9514864 0
0.040218867 0.91590154 0
0.036527033 0.84773949 0
0.038308423 0.74796236 0
0.11430912 1 0
0.10720259 0.9751676 0
0.072692518 0 0
0.054353411 0.037206883 0
0.038663122 0.26347859 0
0.040372631 0.16165814 0
0.044824189 0.085467388 0
0.040524277 0.66649638 0
0.039059518 0.61817789 0
0.032528778 0.54300866 0
0.042297653 0.58087836 0
0.035270074 0.5139583 0
0.03983907 0.36891025 0
0.036379485 0.4049874 0
0.030584941 0.45751669 0
0.037606409 0.44008213 0
0.034806853 0.48302762 0
0.046526982 0.33488813 0
0.094993679 0.94467714 0
0.051442689 0.89532339 0
0.067619532 0.92356351 0
0.047282304 0.83026209 0
0.046983024 0.73371888 0
0.14383025 0.96770924 0
0.17683512 1 0
0.13257588 0.93644813 0
0.11430912 0 0
0.06287927 0.07789613 0
0.084554592 0.035300608 0
0.17683512 0 0
1 0 0
0.69888297 0 0
0.82925195 0.010385043 0
0.28159643 0 0
0.049425061 0.23905353 0
0.054744428 0.14925901 0
0.049006948 0.64054825 0
0.047027907 0.54244955 0
0.054720051 0.58757042 0
0.049482788 0.49685695 0
0.048058612 0.41391665 0
0.045380183 0.45922669 0
0.060715295 0.34706949 0
0.094596055 0.90587678 0
0.069264725 0.86546564 0
0.060393773 0.70697443 0
0.061818022 0.79062652 0
0.21514161 0.9835312 0
0.18728566 0.95871128 0
0.28159643 1 0
0.14421665 0.89990918 0
0.1904109 0.92642244 0
0.073353036 0.11095596 0
0.1816814 0.019319223 0
0.12898257 0.032579705 0
0.093338042 0.06902808 0
0.252841 0.015374677 0
1 0.018301879 0
0.45406798 0 0
0.7135453 0.01636773 0
0.37311273 0.011981846 0
0.067579996 0.22869152 0
0.080865016 0.16277915 0
0.066953208 0.63414604 0
0.081074031 0.29921231 0
0.065302177 0.53657469 0
0.06365951 0.45170813 0
0.080749291 0.39269122 0
0.10901373 0.85937853 0
0.087587476 0.81027323 0
0.084411447 0.73031527 0
0.28149612 0.97424865 0
0.24702276 0.94807638 0
0.45406798 1 0
0.37300762 0.98351168 0
0.15977521 0.86061706 0
0.21233279 0.89568508 0
0.27590851 0.92382278 0
0.10932524 0.11171381 0
0.19538085 0.040539973 0
0.13438826 0.067358596 0
0.15580571 0.096876724 0
0.31142748 0.030486725 0
1 0.031285153 0
0.74279606 0.029131088 0
0.53462126 0.017929337 0
0.43775814 0.029623764 0
0.1005917 0.22260028 0
0.11545962 0.16357815 0
0.085210379 0.62234855 0
0.10921533 0.29791167 0
0.086326304 0.50599052 0
0.10118569 0.41263183 0
0.11139419 0.71258724 0
0.1231092 0.79762022 0
0.69888297 1 0
0.34918453 0.95299404 0
0.4533346 0.96660949 0
0.60024172 0.98962164 0
0.52245373 0.98093788 0
0.22482167 0.86472195 0
0.17221874 0.82810794 0
0.29978245 0.9010722 0
0.38155463 0.92816011 0
0.15518113 0.13610562 0
0.25811202 0.052220397 0
0.19995224 0.07040224 0
0.21451939 0.10183276 0
0.36251992 0.04977752 0
1 0.043609923 0
0.77237093 0.041807621 0
0.48008767 0.047474375 0
0.58913219 0.035758893 0
0.14562825 0.19954072 0
0.14683845 0.26166577 0
0.10909238 0.59876423 0
0.13188948 0.35569478 0
0.12276798 0.49158416 0
0.13840254 0.68656028 0
0.1589376 0.76814764 0
1 1 0
0.81170491 0.98911905 0
0.48947141 0.94809167 0
0.61248244 0.96452395 0
0.76395025 0.9758066 0
0.30100769 0.87106925 0
0.2200073 0.80869306 0
0.42182741 0.90631012 0
0.52639177 0.93219889 0
0.20037479 0.1478105 0
0.298408 0.074608612 0
0.28024763 0.10468391 0
1 0.059261669 0
0.42437053 0.065876429 0
0.75285038 0.058334025 0
0.58358977 0.055302896 0
0.19814294 0.20667835 0
0.1819787 0.30434601 0
0.15384913 0.61443556 0
0.16416588 0.53448378 0
0.16212492 0.41947878 0
0.1960468 0.71362198 0
1 0.98227563 0
1 0.96992934 0
0.6818327 0.95045074 0
0.79939473 0.96320783 0
0.3920999 0.86705535 0
0.25854751 0.77043613 0
0.30199117 0.83238541 0
0.59958581 0.92061094 0
0.51404389 0.89256902 0
0.76905393 0.94009452 0
1 0.077345072 0
0.26694271 0.14253234 0
0.2800526 0.17818835 0
0.39563158 0.085186958 0
0.35366761 0.11276161 0
0.73644088 0.07631925 0
0.54252447 0.078066818 0
0.24195195 0.24192643 0
0.23570605 0.30957791 0
0.20860387 0.39781955 0
0.21401589 0.62850262 0
0.20233474 0.51425171 0
0.27421197 0.71523158 0
1 0.95912903 0
1 0.94705797 0
0.44015148 0.84594999 0
0.34699066 0.80064665 0
0.3468586 0.75703773 0
0.53386604 0.86004211 0
0.78161883 0.92253077 0
0.65429264 0.89977238 0
1 0.93001408 0
0.8045907 0.092908083 0
1 0.099063217 0
0.32853929 0.20549704 0
0.37846602 0.14666948 0
0.47150545 0.10767449 0
0.61986441 0.10387254 0
0.30298911 0.26901462 0
0.26745331 0.34994388 0
0.31523081 0.31477766 0
0.28916144 0.40300833 0
0.24656547 0.42750354 0
0.24207819 0.49384706 0
0.28723903 0.65180432 0
0.2507587 0.58112596 0
0.34242229 0.70293741 0
0.63569928 0.86890911 0
0.43557195 0.80116358 0
0.40836637 0.74704807 0
0.52992803 0.81921838 0
0.81142078 0.89896885 0
0.71715382 0.86546112 0
1 0.90465422 0
0.79081102 0.11580802 0
1 0.12343432 0
0.41558776 0.18047608 0
0.38167516 0.23206863 0
0.50610237 0.14531306 0
0.61995377 0.13252422 0
0.43139071 0.25417536 0
0.3708864 0.2974719 0
0.34391617 0.36589437 0
0.34809091 0.42918611 0
0.304048 0.47395786 0
0.29514759 0.53971533 0
0.37055644 0.64879272 0
0.32405356 0.60244614 0
0.42037597 0.69063544 0
0.61745298 0.82969129 0
0.4782928 0.72200459 0
0.4899251 0.76731519 0
0.56526947 0.776255 0
0.83467863 0.8690034 0
0.7163392 0.82641274 0
1 0.87689162 0
0.69695397 0.14446623 0
0.84952797 0.13999728 0
1 0.15400175 0
0.77725563 0.16337893 0
0.4819382 0.20028572 0
0.58266906 0.17443888 0
0.50264088 0.24338645 0
0.49630835 0.28769515 0
0.44392249 0.31299182 0
0.42072868 0.3621482 0
0.4252405 0.41911344 0
0.40663244 0.47031802 0
0.38114777 0.51610997 0
0.37971425 0.5620247 0
0.47254096 0.63572824 0
0.43765918 0.5965998 0
0.52053521 0.67278333 0
0.63712283 0.79142506 0
0.56789616 0.71360013 0
0.63819856 0.73525254 0
0.7054182 0.7643755 0
0.88976024 0.8493883 0
0.76486857 0.78745974 0
0.81182624 0.82411136 0
1 0.84331121 0
0.68958426 0.18254194 0
0.88640531 0.18008936 0
1 0.20355195 0
0.79603379 0.20816766 0
0.56618743 0.22874185 0
0.63249178 0.21293184 0
0.57928307 0.29266067 0
0.5503071 0.3415038 0
0.50635986 0.36815019 0
0.48995084 0.50327358 0
0.52355942 0.41949401 0
0.52219031 0.4649458 0
0.50255933 0.54388163 0
0.5701531 0.62176037 0
0.56399074 0.5813396 0
0.62051777 0.64793745 0
0.66481495 0.67568372 0
0.72505079 0.70203462 0
0.78624204 0.72629575 0
0.90558558 0.80386717 0
0.84388043 0.76404164 0
1 0.7943402 0
0.72102114 0.23510374 0
0.90141102 0.23634211 0
1 0.26463712 0
0.82005282 0.2651728 0
0.65555397 0.27099749 0
0.65690253 0.3294157 0
0.63463489 0.3712739 0
0.60193528 0.40864218 0
0.59870953 0.50346044 0
0.62868593 0.46277035 0
0.62562668 0.53985238 0
0.66040245 0.59453858 0
0.69454219 0.55537358 0
0.71499222 0.61638022 0
0.73963537 0.64963862 0
0.7987253 0.66583127 0
0.85541456 0.69842233 0
0.92086673 0.74078046 0
1 0.73099947 0
0.7522145 0.29254674 0
0.90926269 0.29444026 0
1 0.31717613 0
0.83556027 0.31920906 0
0.71989066 0.33544225 0
0.70404244 0.38801581 0
0.68890139 0.43353706 0
0.72150578 0.4763817 0
0.70249952 0.51003732 0
0.76821262 0.57367607 0
0.77168828 0.53300247 0
0.80496395 0.61140426 0
0.86209113 0.63916733 0
0.9207104 0.67952405 0
1 0.676078 0
0.79016142 0.35239738 0
1 0.3626561 0
0.91628661 0.34420799 0
0.86107974 0.36910535 0
0.76878307 0.39372621 0
0.75505591 0.42901634 0
0.77593017 0.46042843 0
0.78730496 0.4958158 0
0.83959804 0.57722862 0
0.82350764 0.52071614 0
0.82961975 0.54955494 0
0.88477732 0.59746308 0
0.93054046 0.63352466 0
0.94197738 0.60218503 0
1 0.62955368 0
0.83001518 0.39957773 0
1 0.41167199 0
1 0.39420791 0
0.93296264 0.38501545 0
0.88850431 0.40200886 0
0.81621746 0.43354772 0
0.82857183 0.46652576 0
0.83882161 0.49589012 0
0.88079697 0.56445579 0
0.8621371 0.53333029 0
0.93328513 0.5794217 0
1 0.6003894 0
0.86803427 0.42334536 0
1 0.42209883 0
0.93432093 0.41507819 0
0.8589935 0.44536907 0
1 0.42976453 0
1 0.43728412 0
0.86348533 0.47092634 0
0.86278861 0.5036678 0
1 0.58330674 0
0.90305488 0.55372543 0
0.88698293 0.52906365 0
0.94411869 0.56379416 0
[...]
CELL_DATA 952
Scalars  Label int 1
LOOKUP_TABLE FreeFempp_table
0
0
0
0
0
0
0
0
0
0
0
0
0
0
0
0
0
0
0
0
0
0
0
0
0
0
0
0
0
0
0
0
0
0
0
0
0
0
0
0
0
0
0
0
0
0
0
0
0
0
0
0
0
0
0
0
0
0
0
0
0
0
0
0
0
0
0
0
0
0
0
0
0
0
0
0
0
0
0
0
0
0
0
0
0
0
0
0
0
0
0
0
0
0
0
0
0
0
0
0
0
0
0
0
0
0
0
0
0
0
0
0
0
0
0
0
0
0
0
0
0
0
0
0
0
0
0
0
0
0
0
0
0
0
0
0
0
0
0
0
0
0
0
0
0
0
0
0
0
0
0
0
0
0
0
0
0
0
0
0
0
0
0
0
0
0
0
0
0
0
0
0
0
0
0
0
0
0
0
0
0
0
0
0
0
0
0
0
0
0
0
0
0
0
0
0
0
0
0
0
0
0
0
0
0
0
0
0
0
0
0
0
0
0
0
0
0
0
0
0
0
0
0
0
0
0
0
0
0
0
0
0
0
0
0
0
0
0
0
0
0
0
0
0
0
0
0
0
0
0
0
0
0
0
0
0
0
0
0
0
0
0
0
0
0
0
0
0
0
0
0
0
0
0
0
0
0
0
0
0
0
0
0
0
0
0
0
0
0
0
0
0
0
0
0
0
0
0
0
0
0
0
0
0
0
0
0
0
0
0
0
0
0
0
0
0
0
0
0
0
0
0
0
0
0
0
0
0
0
0
0
0
0
0
0
0
0
0
0
0
0
0
0
0
0
0
0
0
0
0
0
0
0
0
0
0
0
0
0
0
0
0
0
0
0
0
0
0
0
0
0
0
0
0
0
0
0
0
0
0
0
0
0
0
0
0
0
0
0
0
0
0
0
0
0
0
0
0
0
0
0
0
0
0
0
0
0
0
0
0
0
0
0
0
0
0
0
0
0
0
0
0
0
0
0
0
0
0
0
0
0
0
0
0
0
0
0
0
0
0
0
0
0
0
0
0
0
0
0
0
0
0
0
0
0
0
0
0
0
0
0
0
0
0
0
0
0
0
0
0
0
0
0
0
0
0
0
0
0
0
0
0
0
0
0
0
0
0
0
0
0
0
0
0
0
0
0
0
0
0
0
0
0
0
0
0
0
0
0
0
0
0
0
0
0
0
0
0
0
0
0
0
0
0
0
0
0
0
0
0
0
0
0
0
0
0
0
0
0
0
0
0
0
0
0
0
0
0
0
0
0
0
0
0
0
0
0
0
0
0
0
0
0
0
0
0
0
0
0
0
0
0
0
0
0
0
0
0
0
0
0
0
0
0
0
0
0
0
0
0
0
0
0
0
0
0
0
0
0
0
0
0
0
0
0
0
0
0
0
0
0
0
0
0
0
0
0
0
0
0
0
0
0
0
0
0
0
0
0
0
0
0
0
0
0
0
0
0
0
0
0
0
0
0
0
0
0
0
0
0
0
0
0
0
0
0
0
0
0
0
0
0
0
0
0
0
0
0
0
0
0
0
0
0
0
0
0
0
0
0
0
0
0
0
0
0
0
0
0
0
0
0
0
0
0
0
0
0
0
0
0
0
0
0
0
0
0
0
0
0
0
0
0
0
0
0
0
0
0
0
0
0
0
0
0
0
0
0
0
0
0
0
0
0
0
0
0
0
0
0
0
0
0
0
0
0
0
0
0
0
0
0
0
0
0
0
0
0
0
0
0
0
0
0
0
0
0
0
0
0
0
0
0
0
0
0
0
0
0
0
0
0
0
0
0
0
0
0
0
0
0
0
0
0
0
0
0
0
0
0
0
0
0
0
0
0
0
0
0
0
0
0
0
0
0
0
0
0
0
0
0
0
0
0
0
0
0
0
0
0
0
0
0
0
0
0
0
0
0
0
0
0
0
0
0
0
0
0
0
0
0
0
1
1
1
1
1
1
1
1
1
3
3
3
3
3
3
3
3
3
2
2
2
2
2
2
2
2
2
2
2
2
2
2
2
2
2
2
2
2
2
2
2
2
2
2
2
2
2
2
2
2
2
2
2
2
2
2
2
2
2
4
4
4
4
4
4
4
4
4
4
4
4
4
4
4
4
4
4
4
4
4
4
4
4
4
4
4
4
4
4
4
4
4
4
4
4
4
4
4
4
4

LOOKUP_TABLE FreeFempp_table 5
1.00000000 0.00000000 0.00000000 1.00000000
1.00000000 1.00000000 0.00000000 1.00000000
1.00000000 0.00000000 1.00000000 1.00000000
0.00000000 1.00000000 0.00000000 1.00000000
0.00000000 1.00000000 1.00000000 1.00000000

POINT_DATA 477
FIELD FieldData 1
Density 1 477 float
4.80295420e-01 1.04315169e-01 1.51627883e-01 3.73971939e-01 2.97060966e-01 2.05378368e-01 2.24683523e-01 2.52387553e-01 2.50202864e-01 2.91219413e-01 2.12567329e-01 2.26074949e-01 6.78059995e-01 5.81029415e-01 3.59621704e-01 7.37006605e-01 3.70385110e-01 4.72307652e-01 2.61838317e-01 5.67683756e-01 6.60463631e-01 3.21101658e-02 5.35893328e-02 1.73341155e-01 7.75162950e-02 1.89811066e-01 2.42332935e-01 1.33600339e-01 1.61560729e-01 1.78215742e-01 1.56423241e-01 1.80179209e-01 3.21101658e-02 1.06580906e-01 1.97562933e-01 1.37333527e-01 4.63537991e-01 4.20602530e-01 2.47408614e-01 2.14163914e-01 7.59241641e-01 7.36181438e-01 3.97952795e-01 6.15111530e-01 4.25546706e-01 3.50384116e-01 1.90436378e-01 7.54381716e-01 7.24840641e-01 4.18154687e-01 3.19756642e-02 8.97678062e-02 1.29675090e-01 8.71267468e-02 1.09617099e-01 3.19756642e-02 9.00224224e-02 6.75062984e-02 2.60707468e-01 1.51039958e-01 1.18056715e-01 2.63288379e-01 3.95723879e-01 2.63872027e-01 2.00423762e-01 1.13405131e-01 2.19815433e-01 3.71420532e-01 7.68303871e-01 5.45209587e-01 7.55358815e-01 6.93440795e-01 2.59594470e-01 4.29366052e-01 2.30025008e-01 2.27700964e-01 2.58407623e-01 3.20505835e-02 3.52637954e-02 4.33887728e-02 6.10567927e-02 3.20971981e-02 3.20505835e-02 4.91068847e-02 3.42100635e-02 5.14715314e-02 1.10367946e-01 7.20184073e-02 1.42246366e-01 1.51360646e-01 1.26009807e-01 8.77078474e-02 6.98267668e-02 1.15431517e-01 2.05565423e-01 3.63281965e-01 3.43328327e-01 1.68267086e-01 1.42038152e-01 1.48060277e-01 2.93161049e-02 2.96424739e-02 2.83429511e-02 3.57585736e-02 6.10172004e-02 3.21041308e-02 2.58789416e-02 3.20971981e-02 3.03610489e-02 6.74480647e-02 4.34288718e-02 3.34506109e-02 8.50706249e-02 8.91863927e-02 9.72650275e-02 1.02522865e-01 9.79377106e-02 9.11261514e-02 9.91545022e-02 1.19383506e-01 9.65471640e-02 1.04743905e-01 1.00306951e-01 3.26774381e-02 3.47852707e-02 3.25176232e-02 5.11481687e-02 8.37610736e-02 2.88511440e-02 3.22325788e-02 5.76779433e-02 3.21041308e-02 3.20933126e-02 3.01038548e-02 3.22325788e-02 3.21101658e-02 3.25162150e-02 7.25086331e-02 3.26131694e-02 8.08763504e-02 5.65378666e-02 1.10865861e-01 1.16737381e-01 1.32675752e-01 1.25011057e-01 1.15559205e-01 1.11859679e-01 1.36705324e-01 5.95822483e-02 6.47241250e-02 1.23617522e-01 9.50825512e-02 3.47104184e-02 4.90700863e-02 3.26131694e-02 1.13443606e-01 1.08215533e-01 5.37361987e-02 3.59807126e-02 3.00316531e-02 3.98726538e-02 4.63071987e-02 1.06580906e-01 3.30598243e-02 9.41338763e-02 5.70306778e-02 1.15078300e-01 1.00458786e-01 1.55958638e-01 1.57396093e-01 1.62141085e-01 1.57660306e-01 1.73842356e-01 1.19117014e-01 1.25632688e-01 1.56485721e-01 5.74640781e-02 9.77829024e-02 3.30598243e-02 6.20531701e-02 1.63853198e-01 1.65336117e-01 1.52839243e-01 9.37456489e-02 5.30723706e-02 6.46995977e-02 1.19763717e-01 7.31342211e-02 1.56423241e-01 1.37799889e-01 8.71152505e-02 1.02454409e-01 1.56310350e-01 1.41772389e-01 1.78630799e-01 1.87271535e-01 1.84519202e-01 1.95196748e-01 1.86805740e-01 1.73242912e-01 3.25162150e-02 1.22340433e-01 1.14048526e-01 6.65998384e-02 8.79228935e-02 1.91230074e-01 1.89029589e-01 1.88998550e-01 1.78304553e-01 1.56565830e-01 1.02632225e-01 1.11387469e-01 1.57231942e-01 1.32213131e-01 1.80179209e-01 1.71159193e-01 1.51195630e-01 1.42833978e-01 1.82939082e-01 1.98728710e-01 1.97961137e-01 2.03307226e-01 2.03846678e-01 2.01337665e-01 1.99037984e-01 3.21101658e-02 7.41663352e-02 1.62259251e-01 1.41765177e-01 1.22264072e-01 2.02984527e-01 2.04955801e-01 1.99411705e-01 1.95223212e-01 1.84428245e-01 1.61777467e-01 1.87398791e-01 1.97562933e-01 1.82123870e-01 1.91653147e-01 1.77952245e-01 2.02200964e-01 2.09594503e-01 2.08956048e-01 2.11652085e-01 2.10650533e-01 2.10399166e-01 1.04315169e-01 1.51627883e-01 1.74901053e-01 1.56331047e-01 2.10228205e-01 2.13729009e-01 2.09341586e-01 2.04618722e-01 2.10578397e-01 1.94161296e-01 2.12567329e-01 2.00722039e-01 2.09736213e-01 1.92315221e-01 2.02730939e-01 2.08402336e-01 2.02485994e-01 2.13126406e-01 2.21455961e-01 2.22177178e-01 2.22302258e-01 2.24122554e-01 2.28569344e-01 1.73341155e-01 1.89811066e-01 2.20980316e-01 2.21767098e-01 2.39235744e-01 2.25348383e-01 2.09396899e-01 2.14392319e-01 2.05378368e-01 2.16760352e-01 2.26074949e-01 2.22394884e-01 2.13278756e-01 2.08177462e-01 2.14954689e-01 2.34135479e-01 2.40950003e-01 2.56420910e-01 2.65495360e-01 2.43562311e-01 2.44326398e-01 2.51878649e-01 2.44188190e-01 2.61648923e-01 2.32401326e-01 2.43934572e-01 2.69702882e-01 2.55852908e-01 2.22323194e-01 2.44530454e-01 2.24683523e-01 2.32626528e-01 2.50202864e-01 2.30564550e-01 2.47038946e-01 2.27340147e-01 2.30916336e-01 2.78975964e-01 2.76865482e-01 2.92354524e-01 3.13194007e-01 2.85603046e-01 2.78130740e-01 3.03596944e-01 2.88021535e-01 3.12905192e-01 2.66142100e-01 3.23707163e-01 2.90223300e-01 3.09123158e-01 2.52444208e-01 2.90938109e-01 2.52387553e-01 2.51989007e-01 2.63312370e-01 2.91219413e-01 2.88435549e-01 2.60317922e-01 2.63105065e-01 3.04020077e-01 3.40825200e-01 3.29200119e-01 3.43241453e-01 3.70416313e-01 3.67190033e-01 3.46708566e-01 3.39227229e-01 3.81629258e-01 3.73973310e-01 3.87345105e-01 3.15971732e-01 3.76965404e-01 3.86256725e-01 3.73329729e-01 2.81032622e-01 3.56121182e-01 3.09376150e-01 2.97060966e-01 2.98046619e-01 3.25013816e-01 3.70385110e-01 3.54903877e-01 3.16283643e-01 3.19949478e-01 3.89688313e-01 4.17444289e-01 4.06458944e-01 4.37836349e-01 4.47008878e-01 4.60877985e-01 4.42305088e-01 4.58777398e-01 4.78805870e-01 4.71304804e-01 4.68186557e-01 4.63862658e-01 4.51973617e-01 3.52872342e-01 4.07479584e-01 3.73971939e-01 3.76834989e-01 4.16888744e-01 4.72307652e-01 4.47764188e-01 4.00718302e-01 4.70343411e-01 4.97651368e-01 5.01611471e-01 5.29719472e-01 5.50378382e-01 5.48677385e-01 5.46614766e-01 6.03968382e-01 5.66426337e-01 5.39589584e-01 5.46851039e-01 5.13984621e-01 4.56517786e-01 4.80295420e-01 4.67660248e-01 5.12472153e-01 5.67683756e-01 5.37600458e-01 5.09448826e-01 5.61767161e-01 5.92048049e-01 6.49339736e-01 6.31830096e-01 6.61328375e-01 6.98174655e-01 6.38296843e-01 6.20709658e-01 5.61826110e-01 5.81029415e-01 5.69761813e-01 6.60463631e-01 6.04731977e-01 6.35286868e-01 6.18177295e-01 6.50977314e-01 6.99872434e-01 7.25977004e-01 7.15016007e-01 7.55908668e-01 7.40270019e-01 7.12428927e-01 6.56771958e-01 7.26667941e-01 6.78059995e-01 6.72407210e-01 7.54381716e-01 7.24840641e-01 6.97028399e-01 7.12785065e-01 7.13241160e-01 7.55769014e-01 7.70519972e-01 7.61180401e-01 7.77253568e-01 7.60388792e-01 7.37006605e-01 7.35611677e-01 7.68303871e-01 7.52721429e-01 7.58774042e-01 7.55358815e-01 6.93440795e-01 7.79003918e-01 7.80990958e-01 7.59241641e-01 7.71721482e-01 7.76019037e-01 7.53461957e-01 7.67378747e-01 7.73103356e-01 7.63650894e-01 5.45209587e-01 7.01559782e-01 7.46648610e-01 7.42048979e-01 7.23392665e-01 7.36181438e-01 6.92133904e-01 7.06666052e-01 3.71420532e-01 7.06245184e-01 7.36918390e-01 5.60755670e-01 6.26085281e-01 6.42253876e-01 5.87116063e-01 6.15111530e-01 5.52887321e-01 5.62578797e-01 2.58407623e-01 4.65299904e-01 6.01222694e-01 4.99606460e-01 4.33139235e-01 4.32072461e-01 3.97952795e-01 4.01707649e-01 2.27700964e-01 4.04843539e-01 3.90560567e-01 2.63288379e-01 2.30025008e-01 
