# vtk DataFile Version 2.0
results_case1/1616747557/sol_toll1e-05_vf0.3_iter8.vtk, Created by Freefem++ 
ASCII
DATASET UNSTRUCTURED_GRID
POINTS 537 float
0 0.65120334 0
0 0.66828553 0
0 0.33757242 0
0 0.36713837 0
0 0.39938559 0
0 0.62590206 0
0 0.59748522 0
0.0038492118 0.63244609 0
0 0.68023026 0
0.0035663709 0.36374805 0
0 0.31996179 0
0 0.30935683 0
0 0.68939241 0
0.0031997688 0.40111684 0
0 0.42056957 0
0 0.43334291 0
0 0.44125083 0
0 0.4470532 0
0.0035091578 0.59811976 0
0 0.57721862 0
0.0065419288 0.60574375 0
0.0053842916 0.64971447 0
0 0.55167404 0
0 0.55834993 0
0 0.56544153 0
0.0063306973 0.39571722 0
0 0.26268055 0
0 0.29550599 0
0.0058886698 0.35652404 0
0 0.27851537 0
0 0.30190821 0
0 0.26984739 0
0 0.28814614 0
0 0.6972543 0
0 0.25377777 0
0.0062357728 0.67393702 0
0.0056652481 0.42331693 0
0 0.45444664 0
0.0065654695 0.43940252 0
0.0055039924 0.57795214 0
0.0093200686 0.60104776 0
0.01070273 0.62750446 0
0 0.5391782 0
0 0.54480594 0
0.0062262239 0.56184597 0
0 0.46346941 0
0.0098157243 0.40425166 0
0.011052915 0.38163266 0
0.0062349684 0.3082518 0
0.0068346668 0.33556943 0
0 0.70402415 0
0 0.71004435 0
0 0.71764521 0
0 0.72592475 0
0.0071808357 0.69401217 0
0 0.22561509 0
0 0.24234481 0
0.008273544 0.30137785 0
0.012194124 0.64911471 0
0.011595475 0.42988316 0
0.0090104557 0.45086938 0
0.010890192 0.57198932 0
0.013298999 0.58867366 0
0.015429951 0.60504273 0
0 0.53149977 0
0.0099206232 0.55524078 0
0 0.47709873 0
0.014777289 0.40801154 0
0.012808803 0.3659375 0
0 0.73255973 0
0 0.74048692 0
0 0.75056841 0
0 0.76159084 0
0.0099960491 0.70663202 0
0.016147018 0.35710686 0
0 0.16192714 0
0 0.20014235 0
0.0049524526 0.24333424 0
0.011844397 0.28440389 0
0.016766362 0.63848808 0
0.015940228 0.43823274 0
0.011308414 0.46639404 0
0.016122846 0.57083754 0
0.019979802 0.59324875 0
0 0.51837832 0
0.012728039 0.54542214 0
0 0.49795038 0
0.019779121 0.41006394 0
0.022695286 0.37571203 0
0 0.77684488 0
0 0.80069625 0
0.018180953 0.68024263 0
0.011273002 0.75419823 0
0.019910436 0.30481839 0
0 0.10200034 0
0.010381437 0.20631667 0
0.023555867 0.63347429 0
0.026732659 0.58468609 0
0.021832361 0.45200826 0
0.015719294 0.4886281 0
0.021623271 0.55601963 0
0.013683365 0.52284217 0
0.029386239 0.42342772 0
0.031515203 0.36747772 0
0 0.83799832 0
0.02183562 0.73549319 0
0 0.89800162 0
0.027995697 0.26506916 0
0 0 0
0.017492067 0.13705822 0
0.033237339 0.62603762 0
0.034428042 0.5577887 0
0.032611494 0.47346855 0
0.026541374 0.51695483 0
0.045227365 0.34103098 0
0.04565394 0.42161912 0
0 1 0
0.041148636 0.68301107 0
0.02648474 0.8186051 0
0.044057983 0.18871557 0
0.024982752 0 0
0.069074408 0.29860356 0
0.053936739 0.59034197 0
0.04784864 0.50789715 0
0.065565111 0.44072416 0
0.064128583 0.68929832 0
0.024982752 1 0
0.053182199 0.82372941 0
0.068292441 0 0
0.10755642 0.21960356 0
0.098248132 0.64665609 0
0.10325288 0.42088677 0
0.080965555 0.5363687 0
0.10001081 0.81568139 0
0.068292441 1 0
0.14262201 0 0
0.26862545 0 0
0.16745865 0.31089585 0
0.17335677 0.76170842 0
0.14855534 0.54183016 0
0.14262201 1 0
0.26862545 1 0
0.30572629 0.79389159 0
0.47638697 0 0
0.26594744 0.18180935 0
0.30585508 0.28612284 0
0.24788963 0.41041771 0
0.25548108 0.58955276 0
0.47638697 1 0
0.48793964 0.84702608 0
0.37317784 0.69793878 0
1 0 0
0.73606342 0 0
0.46009325 0.17234367 0
0.3968947 0.31800078 0
0.77997053 0.11004356 0
0.34944268 0.44122126 0
0.36529197 0.56027112 0
0.40753373 0.47861834 0
0.73606342 1 0
0.54972073 0.78853118 0
0.43746497 0.66006724 0
1 0.10200034 0
0.80523347 0.16840765 0
1 0.16192714 0
0.5642162 0.21536575 0
0.45062261 0.34539564 0
0.66889147 0.22083876 0
0.44946742 0.40084476 0
0.45280641 0.46878632 0
0.44311623 0.56310826 0
0.4683121 0.5152861 0
0.4764842 0.6399186 0
0.75839882 0.88890824 0
1 1 0
0.49792185 0.61675277 0
0.64935676 0.78549779 0
0.53922155 0.71050412 0
1 0.20014235 0
0.87262372 0.23791959 0
0.79464829 0.21221888 0
0.83519451 0.22798027 0
0.5648425 0.28793149 0
0.50955946 0.34069174 0
0.6603741 0.26716813 0
0.48576405 0.4086247 0
0.48648476 0.45877979 0
0.48963796 0.56737834 0
0.49266879 0.51192041 0
0.54329132 0.66609338 0
0.83563593 0.84900549 0
0.70904725 0.77423105 0
0.52282104 0.3651581 0
1 0.89800162 0
0.53449385 0.61930966 0
0.61848603 0.71959968 0
1 0.22561509 0
0.87932795 0.25045359 0
0.7779263 0.26213453 0
0.69846248 0.27605357 0
0.58865344 0.31601745 0
0.5094066 0.41720007 0
0.50834295 0.46517261 0
0.51391398 0.56504228 0
0.50803872 0.51501039 0
0.56756648 0.34841643 0
0.59012559 0.6737229 0
0.71248056 0.74406832 0
0.81205714 0.79322961 0
0.53873241 0.38466918 0
1 0.83799832 0
0.57353432 0.64096859 0
0.5475583 0.60001099 0
0.66180873 0.70829393 0
1 0.24234481 0
0.88269625 0.25925096 0
0.79452221 0.27103753 0
0.70842913 0.29000699 0
0.63100308 0.31874374 0
1 0.25377777 0
0.52933916 0.42220725 0
0.52734424 0.45971696 0
0.52017666 0.50180612 0
0.52543408 0.54970415 0
0.58370428 0.35666413 0
0.62768892 0.67625989 0
0.75577081 0.74006509 0
0.84410648 0.77790232 0
0.56139109 0.38798941 0
1 0.80069625 0
0.54420741 0.57100066 0
0.56898309 0.6071315 0
0.59498924 0.64057276 0
0.708391 0.70953726 0
0.54840658 0.55700447 0
0.82133776 0.27620739 0
0.91032125 0.26308616 0
0.63669813 0.33059758 0
0.74475311 0.29072984 0
0.68510009 0.30944222 0
0.77605471 0.29240526 0
0.92251896 0.26841659 0
1 0.26268055 0
0.54645847 0.42215947 0
0.54679945 0.44788429 0
1 0.26984739 0
0.53460672 0.48871142 0
0.53519603 0.52721118 0
0.54806207 0.47708408 0
0.60427432 0.35791696 0
0.65220489 0.67714263 0
0.79088721 0.73691287 0
0.86909834 0.76405365 0
0.60417618 0.36822907 0
0.5724645 0.39419003 0
1 0.77684488 0
0.56973353 0.59038505 0
0.5957864 0.62228392 0
0.62593634 0.65136955 0
0.78751975 0.72487276 0
0.72073639 0.70208797 0
0.56854017 0.57390645 0
0.56432669 0.55384429 0
0.55339934 0.53285482 0
0.85149047 0.27903588 0
0.65474125 0.33427678 0
0.712304 0.31042993 0
0.74596125 0.30698984 0
0.80119822 0.29449868 0
0.91629545 0.27596652 0
0.55766664 0.45236836 0
0.56946134 0.41239819 0
0.57074635 0.42874055 0
1 0.27851537 0
0.94565869 0.28104849 0
0.56742344 0.46605014 0
0.55227848 0.50508609 0
0.56424394 0.48397712 0
0.67216818 0.67685581 0
0.87706496 0.75002864 0
0.63694226 0.35405465 0
0.60361614 0.38264436 0
1 0.76159084 0
0.5948951 0.60457229 0
0.59012421 0.58720031 0
0.62802167 0.64094234 0
0.61832015 0.62285021 0
0.85904981 0.73537042 0
0.81835443 0.7221966 0
0.66725402 0.66392502 0
0.76625339 0.70757816 0
0.71640555 0.6884234 0
0.58669241 0.56634848 0
0.57909968 0.54386495 0
0.57017036 0.52080674 0
0.8547539 0.28729297 0
0.67821458 0.33107593 0
0.71237563 0.32261895 0
0.81667999 0.29921136 0
0.76551332 0.31104115 0
0.89219483 0.28800636 0
0.93713666 0.28974532 0
0.58758091 0.43346129 0
0.57871713 0.44820101 0
0.59382651 0.40454858 0
0.59624506 0.41942983 0
1 0.28814614 0
0.58598602 0.46826405 0
0.58009084 0.49830161 0
0.92056473 0.74707063 0
0.66303194 0.34726664 0
0.63949082 0.36614251 0
0.62069364 0.38770267 0
0.60725756 0.58090804 0
1 0.75056841 0
0.61890753 0.60328899 0
0.65402605 0.64497884 0
0.63817969 0.62388436 0
0.92996255 0.73769457 0
0.86868509 0.72647567 0
0.81293657 0.71193115 0
0.7157481 0.67831083 0
0.69175617 0.66403049 0
0.76463433 0.69608529 0
0.60358341 0.55833898 0
0.58977762 0.52793441 0
0.85192045 0.29909999 0
0.73091883 0.32642726 0
0.69624438 0.33773014 0
0.80372525 0.31074469 0
0.7643862 0.32211768 0
0.91031508 0.29795391 0
0.60239255 0.4400843 0
0.61697507 0.41086801 0
1 0.29550599 0
0.59837116 0.47285267 0
0.59751072 0.50359374 0
0.74670094 0.68339541 0
0.68592528 0.65308119 0
0.63737173 0.39029192 0
0.68059203 0.35260598 0
0.65696931 0.36980132 0
0.62659263 0.58925113 0
1 0.74048692 0
0.64713237 0.61493875 0
0.66444303 0.63607446 0
0.92153099 0.72792691 0
0.86120697 0.71604469 0
0.80894384 0.70200163 0
0.72917951 0.66832172 0
0.77809114 0.68597617 0
0.62619369 0.56989239 0
0.60634183 0.53596041 0
0.84049289 0.31036607 0
0.7285754 0.33761881 0
0.78484367 0.32395769 0
0.91252483 0.30516521 0
0.85571802 0.31457945 0
0.61318131 0.44819598 0
0.64755367 0.39720945 0
0.62867623 0.42107296 0
1 0.30190821 0
0.61414262 0.4759439 0
0.6130586 0.51187729 0
0.69871387 0.6489806 0
0.67070154 0.37328324 0
0.70031443 0.35428011 0
0.6774594 0.38072508 0
0.65065137 0.60243414 0
1 0.73255973 0
0.67894497 0.62960303 0
0.84484058 0.70544525 0
0.92780684 0.72120733 0
0.8876005 0.71217131 0
0.82620625 0.69496779 0
0.80857696 0.68456518 0
0.72513716 0.65213876 0
0.76951566 0.66936803 0
0.65233278 0.5863907 0
0.62794752 0.55006506 0
0.8020037 0.32732387 0
0.7493632 0.34062849 0
0.91180631 0.31311622 0
0.83786486 0.32661788 0
0.63438799 0.43715337 0
0.66314759 0.40378284 0
0.63505354 0.46087533 0
1 0.30935683 0
0.63036489 0.49565978 0
0.63419979 0.53252555 0
0.71294231 0.35901444 0
0.70772662 0.37248306 0
0.67754605 0.61538485 0
1 0.72592475 0
0.71038276 0.63484133 0
0.87704913 0.70262775 0
0.93642691 0.71230763 0
0.86480852 0.69358976 0
0.83853085 0.68284766 0
0.75651503 0.65164752 0
0.80788526 0.66947288 0
0.68752154 0.6066975 0
0.66122764 0.57471853 0
0.76084035 0.35020631 0
0.89896003 0.32411344 0
0.8128986 0.34111213 0
0.66564945 0.42635842 0
0.70674985 0.38658636 0
0.65408033 0.47420385 0
1 0.31996179 0
0.65248111 0.52200231 0
0.66654244 0.55949365 0
1 0.71764521 0
0.72483647 0.62654447 0
1 0.71004435 0
0.92321974 0.70182871 0
0.9128393 0.69345818 0
0.89101014 0.68322316 0
0.86439787 0.67103579 0
0.78230051 0.64853829 0
0.67152349 0.50979752 0
0.70578305 0.59391076 0
0.76515054 0.36574202 0
0.85138117 0.34397016 0
0.6808015 0.43656551 0
0.72018953 0.39885966 0
0.68784058 0.46658227 0
0.89488131 0.34668907 0
1 0.33757242 0
0.70060176 0.55743632 0
0.75161328 0.62381457 0
1 0.6972543 0
1 0.70402415 0
0.84075177 0.66028312 0
1 0.68939241 0
1 0.68023026 0
0.90359159 0.66669532 0
0.81647595 0.64142263 0
0.70929523 0.51211463 0
0.76402245 0.60248986 0
0.79513582 0.37753218 0
0.73060676 0.4594952 0
0.73329079 0.4186025 0
1 0.36713837 0
0.87839719 0.37404554 0
0.75378133 0.55569614 0
1 0.66828553 0
[...]
CELL_DATA 1072
Scalars  Label int 1
LOOKUP_TABLE FreeFempp_table
0
0
0
0
0
0
0
0
0
0
0
0
0
0
0
0
0
0
0
0
0
0
0
0
0
0
0
0
0
0
0
0
0
0
0
0
0
0
0
0
0
0
0
0
0
0
0
0
0
0
0
0
0
0
0
0
0
0
0
0
0
0
0
0
0
0
0
0
0
0
0
0
0
0
0
0
0
0
0
0
0
0
0
0
0
0
0
0
0
0
0
0
0
0
0
0
0
0
0
0
0
0
0
0
0
0
0
0
0
0
0
0
0
0
0
0
0
0
0
0
0
0
0
0
0
0
0
0
0
0
0
0
0
0
0
0
0
0
0
0
0
0
0
0
0
0
0
0
0
0
0
0
0
0
0
0
0
0
0
0
0
0
0
0
0
0
0
0
0
0
0
0
0
0
0
0
0
0
0
0
0
0
0
0
0
0
0
0
0
0
0
0
0
0
0
0
0
0
0
0
0
0
0
0
0
0
0
0
0
0
0
0
0
0
0
0
0
0
0
0
0
0
0
0
0
0
0
0
0
0
0
0
0
0
0
0
0
0
0
0
0
0
0
0
0
0
0
0
0
0
0
0
0
0
0
0
0
0
0
0
0
0
0
0
0
0
0
0
0
0
0
0
0
0
0
0
0
0
0
0
0
0
0
0
0
0
0
0
0
0
0
0
0
0
0
0
0
0
0
0
0
0
0
0
0
0
0
0
0
0
0
0
0
0
0
0
0
0
0
0
0
0
0
0
0
0
0
0
0
0
0
0
0
0
0
0
0
0
0
0
0
0
0
0
0
0
0
0
0
0
0
0
0
0
0
0
0
0
0
0
0
0
0
0
0
0
0
0
0
0
0
0
0
0
0
0
0
0
0
0
0
0
0
0
0
0
0
0
0
0
0
0
0
0
0
0
0
0
0
0
0
0
0
0
0
0
0
0
0
0
0
0
0
0
0
0
0
0
0
0
0
0
0
0
0
0
0
0
0
0
0
0
0
0
0
0
0
0
0
0
0
0
0
0
0
0
0
0
0
0
0
0
0
0
0
0
0
0
0
0
0
0
0
0
0
0
0
0
0
0
0
0
0
0
0
0
0
0
0
0
0
0
0
0
0
0
0
0
0
0
0
0
0
0
0
0
0
0
0
0
0
0
0
0
0
0
0
0
0
0
0
0
0
0
0
0
0
0
0
0
0
0
0
0
0
0
0
0
0
0
0
0
0
0
0
0
0
0
0
0
0
0
0
0
0
0
0
0
0
0
0
0
0
0
0
0
0
0
0
0
0
0
0
0
0
0
0
0
0
0
0
0
0
0
0
0
0
0
0
0
0
0
0
0
0
0
0
0
0
0
0
0
0
0
0
0
0
0
0
0
0
0
0
0
0
0
0
0
0
0
0
0
0
0
0
0
0
0
0
0
0
0
0
0
0
0
0
0
0
0
0
0
0
0
0
0
0
0
0
0
0
0
0
0
0
0
0
0
0
0
0
0
0
0
0
0
0
0
0
0
0
0
0
0
0
0
0
0
0
0
0
0
0
0
0
0
0
0
0
0
0
0
0
0
0
0
0
0
0
0
0
0
0
0
0
0
0
0
0
0
0
0
0
0
0
0
0
0
0
0
0
0
0
0
0
0
0
0
0
0
0
0
0
0
0
0
0
0
0
0
0
0
0
0
0
0
0
0
0
0
0
0
0
0
0
0
0
0
0
0
0
0
0
0
0
0
0
0
0
0
0
0
0
0
0
0
0
0
0
0
0
0
0
0
0
0
0
0
0
0
0
0
0
0
0
0
0
0
0
0
0
0
0
0
0
0
0
0
0
0
0
0
0
0
0
0
0
0
0
0
0
0
0
0
0
0
0
0
0
0
0
0
0
0
0
0
0
0
0
0
0
0
0
0
0
0
0
0
0
0
0
0
0
0
0
0
0
0
0
0
0
0
0
0
0
0
0
0
0
0
0
0
0
0
0
0
0
0
0
0
0
0
0
0
0
0
0
0
0
0
0
0
0
0
0
0
0
0
0
0
0
0
0
0
0
0
0
0
0
0
0
0
0
0
0
0
0
0
0
0
0
0
0
0
0
0
0
0
0
0
0
0
0
0
0
0
0
0
0
0
0
0
0
0
0
0
0
0
0
0
0
0
0
0
0
0
0
0
0
0
0
0
1
1
1
1
1
1
1
3
3
3
3
3
3
3
2
2
2
2
2
2
2
2
2
2
2
2
2
2
2
2
2
2
2
2
2
2
2
2
2
2
2
2
2
2
2
2
2
2
2
2
2
2
2
2
2
2
2
2
2
2
2
2
2
2
2
2
2
4
4
4
4
4
4
4
4
4
4
4
4
4
4
4
4
4
4
4
4
4
4
4
4
4
4
4
4
4
4
4
4
4
4
4
4
4
4
4
4
4
4
4
4
4
4
4
4
4
4
4
4
4

LOOKUP_TABLE FreeFempp_table 5
1.00000000 0.00000000 0.00000000 1.00000000
1.00000000 1.00000000 0.00000000 1.00000000
1.00000000 0.00000000 1.00000000 1.00000000
0.00000000 1.00000000 0.00000000 1.00000000
0.00000000 1.00000000 1.00000000 1.00000000

POINT_DATA 537
FIELD FieldData 1
Density 1 537 float
9.89409089e-01 9.89409089e-01 9.89409089e-01 9.89409089e-01 9.89409089e-01 9.89409089e-01 9.89409089e-01 9.08847511e-01 9.88835990e-01 9.10866201e-01 9.88658547e-01 9.85506356e-01 9.86005783e-01 9.86629546e-01 9.89409149e-01 9.89409149e-01 9.88051891e-01 8.33611071e-01 9.71955299e-01 9.89409149e-01 8.80379140e-01 7.90411115e-01 6.80664897e-01 9.55364048e-01 9.89409149e-01 8.22479188e-01 9.23868865e-02 8.90573800e-01 7.41732001e-01 4.35764998e-01 9.54896629e-01 2.08680302e-01 7.64155090e-01 9.49733555e-01 2.41971109e-02 4.36988115e-01 9.51999843e-01 2.01647982e-01 5.40196180e-01 9.73663628e-01 4.93108720e-01 2.84372360e-01 1.06908297e-02 1.55171588e-01 5.35361946e-01 1.08215436e-02 4.20315981e-01 2.38365591e-01 9.06656086e-02 3.87464583e-01 8.88008833e-01 7.53070235e-01 5.27205110e-01 3.05137992e-01 7.51886740e-02 1.06907971e-02 1.13675417e-02 5.36371730e-02 1.82338506e-02 1.86965734e-01 2.79829502e-02 3.19771498e-01 1.71376660e-01 1.18835596e-02 1.06908288e-02 8.40878040e-02 1.06908269e-02 4.47259434e-02 1.59629062e-02 1.47359431e-01 5.58688715e-02 2.26152353e-02 1.21809300e-02 1.65709443e-02 1.06908260e-02 1.06907915e-02 1.06908018e-02 1.06908176e-02 1.06908232e-02 1.07269716e-02 4.47955653e-02 1.06908316e-02 4.31216583e-02 1.53462794e-02 1.06908288e-02 1.86320078e-02 1.06908279e-02 1.30597362e-02 1.06908288e-02 1.07785333e-02 1.06908055e-02 1.06908251e-02 1.17473220e-02 1.06908148e-02 1.06906537e-02 1.06908102e-02 1.06908260e-02 1.12693645e-02 1.06908372e-02 1.06908297e-02 1.06908334e-02 1.06908269e-02 1.06908325e-02 1.06908064e-02 1.06907878e-02 1.06908204e-02 1.06905233e-02 1.06907468e-02 1.06896982e-02 1.06906369e-02 1.06908064e-02 1.06908251e-02 1.06908306e-02 1.06908176e-02 1.06907310e-02 1.06908074e-02 1.06896982e-02 1.06907869e-02 1.06907096e-02 1.06905336e-02 1.06905447e-02 1.06906136e-02 1.06907710e-02 1.06907720e-02 1.06907235e-02 1.06906695e-02 1.06905447e-02 1.06906733e-02 1.06902923e-02 1.06904032e-02 1.06905252e-02 1.06904153e-02 1.06906388e-02 1.06904088e-02 1.06902923e-02 1.06900604e-02 1.06899356e-02 1.06903063e-02 1.06900111e-02 1.06902756e-02 1.06900604e-02 1.06899356e-02 1.06902709e-02 1.06894821e-02 1.06902700e-02 1.06905401e-02 1.06902048e-02 1.06904032e-02 1.06894821e-02 1.06903417e-02 1.06907459e-02 1.06896982e-02 1.06888860e-02 1.06907478e-02 1.06908046e-02 1.06902951e-02 1.06907366e-02 1.06907384e-02 1.06907347e-02 1.06888860e-02 1.06907142e-02 1.06908195e-02 1.06906537e-02 1.06907459e-02 1.06907915e-02 1.06908055e-02 1.06908055e-02 1.06907925e-02 1.06907878e-02 1.06907822e-02 1.06907608e-02 1.06907766e-02 1.06908064e-02 1.06903762e-02 1.06896982e-02 1.07135260e-02 1.06908176e-02 1.06908018e-02 1.06908018e-02 1.06907720e-02 1.06907925e-02 1.06907785e-02 1.06908083e-02 1.06907943e-02 1.06907738e-02 1.06932698e-02 1.09961880e-02 1.08763212e-02 1.13553554e-02 1.06907785e-02 1.06906760e-02 1.06907804e-02 1.06907636e-02 1.06905233e-02 1.33275706e-02 1.07039055e-02 1.06907971e-02 1.11662587e-02 1.06907561e-02 1.08762085e-02 1.08185662e-02 1.12368474e-02 1.46923261e-02 1.43546080e-02 1.97552163e-02 1.06907533e-02 1.10845054e-02 1.06907720e-02 1.06907850e-02 1.34994555e-02 1.06907878e-02 1.37424702e-02 2.88322214e-02 1.07765123e-02 1.13675417e-02 2.42607724e-02 1.63794160e-02 1.37327760e-02 1.57082863e-02 2.41971109e-02 1.42419469e-02 3.36849093e-02 3.80189978e-02 2.71157697e-02 3.20162363e-02 1.43880565e-02 1.06919901e-02 1.06907785e-02 3.32135893e-02 1.06908055e-02 5.58695458e-02 4.93068658e-02 3.46716791e-02 1.26723722e-02 1.19930141e-01 4.71206568e-02 5.61038703e-02 4.54041995e-02 4.24617007e-02 5.97428568e-02 1.17287725e-01 1.18548453e-01 9.23868865e-02 5.71588352e-02 1.01615265e-01 2.08680302e-01 1.07578017e-01 1.14776075e-01 1.93235353e-01 6.21905401e-02 3.15382816e-02 1.14079406e-02 1.08875986e-02 1.18340768e-01 9.11015868e-02 1.07785333e-02 1.16591066e-01 1.03397451e-01 7.36768395e-02 2.28205044e-02 3.47557403e-02 2.44708076e-01 3.19084197e-01 2.71073997e-01 1.27133057e-01 7.78456926e-02 1.36811942e-01 2.29157999e-01 2.35621139e-01 2.02342927e-01 2.55930036e-01 1.44892693e-01 2.88115621e-01 4.35764998e-01 4.22451466e-01 4.49694782e-01 3.30820262e-01 4.71487373e-01 6.76100254e-02 1.26645956e-02 2.04846635e-01 2.12975904e-01 1.21809300e-02 2.82164365e-01 4.08098519e-01 1.92924857e-01 3.00054371e-01 3.24038863e-02 8.11096802e-02 1.89104229e-01 9.40140113e-02 1.39640301e-01 5.49092889e-01 6.28422379e-01 5.60063899e-01 3.45442563e-01 2.02766627e-01 2.97027797e-01 4.85365659e-01 4.18136805e-01 4.81699049e-01 6.84730709e-01 5.43134868e-01 5.39803863e-01 3.61898154e-01 5.51778257e-01 7.64155090e-01 7.23248363e-01 7.21128225e-01 1.76721048e-02 3.63987058e-01 3.90912831e-01 5.09418368e-01 6.87618852e-01 2.26152353e-02 6.09860122e-01 3.50932091e-01 5.67989767e-01 6.85890615e-02 8.67309943e-02 1.70080781e-01 2.81009406e-01 3.73802334e-01 2.60364920e-01 8.36715996e-01 8.40818346e-01 6.41674817e-01 5.44496894e-01 4.97324377e-01 7.58308589e-01 6.92912579e-01 8.03264618e-01 8.34509969e-01 7.16516435e-01 8.90573800e-01 9.09462631e-01 9.33723807e-01 4.56063092e-01 5.77789187e-01 7.45381892e-01 6.39861643e-01 6.62492275e-01 8.73328090e-01 5.58688715e-02 8.22358310e-01 6.71010792e-01 1.42840594e-01 2.57334739e-01 4.15635467e-01 6.90191031e-01 6.46299124e-01 9.26242948e-01 9.06735182e-01 8.67609382e-01 8.09595466e-01 8.88647497e-01 9.30440605e-01 9.41837549e-01 9.13632452e-01 8.54818225e-01 9.22634482e-01 9.54896629e-01 9.56945896e-01 9.66327488e-01 7.99946964e-01 8.80087614e-01 7.97044218e-01 9.28321004e-01 9.09685075e-01 1.47359431e-01 8.84164810e-01 4.99425441e-01 2.70974129e-01 4.46215391e-01 7.16007829e-01 8.25263798e-01 8.91730428e-01 9.12856817e-01 9.71303940e-01 9.72434640e-01 9.37879086e-01 9.03543293e-01 9.64099884e-01 9.84586895e-01 9.70506191e-01 9.71916854e-01 9.87776160e-01 9.85506356e-01 9.85928476e-01 9.85972643e-01 9.37808633e-01 9.73078668e-01 9.58229959e-01 3.05137992e-01 9.68656242e-01 7.15682209e-01 5.75741947e-01 8.67409408e-01 9.49642479e-01 9.78697240e-01 9.70504582e-01 9.86828566e-01 9.84033108e-01 9.81985867e-01 9.88712907e-01 9.89154577e-01 9.89404082e-01 9.88383830e-01 9.89234328e-01 9.88658547e-01 9.89265680e-01 9.89324629e-01 5.27205110e-01 9.87397432e-01 7.53070235e-01 8.66125464e-01 9.37913060e-01 9.69432116e-01 9.87373650e-01 9.88743424e-01 9.89409089e-01 9.89352107e-01 9.89378750e-01 9.89409029e-01 9.89409089e-01 9.89409089e-01 9.89409089e-01 9.89405096e-01 9.89409089e-01 9.89409089e-01 9.89401519e-01 9.49733555e-01 8.88008833e-01 9.89409029e-01 9.86005783e-01 9.88835990e-01 9.89409089e-01 9.89409029e-01 9.89409089e-01 9.89409089e-01 9.89409089e-01 9.89409029e-01 9.89409089e-01 9.89409089e-01 9.89409029e-01 9.89409089e-01 9.89409089e-01 9.89409089e-01 9.89409089e-01 9.89409029e-01 9.89409029e-01 9.89409089e-01 9.89409029e-01 9.89409089e-01 9.89409029e-01 9.89409029e-01 9.89409089e-01 9.89409089e-01 9.89409029e-01 9.89409029e-01 9.89409029e-01 9.89409149e-01 9.89409089e-01 9.89409089e-01 9.89409029e-01 9.89409089e-01 9.89409089e-01 9.89409089e-01 9.89409089e-01 9.89409089e-01 9.89409089e-01 9.89409149e-01 9.89409149e-01 9.89409089e-01 9.89409149e-01 9.89409089e-01 9.87803817e-01 9.89409149e-01 9.89409149e-01 9.89409089e-01 9.89409089e-01 9.89409149e-01 9.89409149e-01 9.88051891e-01 9.83479679e-01 9.89409149e-01 9.89409149e-01 9.59364057e-01 9.60361123e-01 9.83093441e-01 9.89055276e-01 9.88192141e-01 9.84682560e-01 9.89409149e-01 9.67566729e-01 8.33611071e-01 8.90312910e-01 9.67208803e-01 9.61506844e-01 7.05764890e-01 8.52452695e-01 8.57491553e-01 8.93436253e-01 6.50904894e-01 8.05477679e-01 9.55364048e-01 5.94441950e-01 2.01647982e-01 1.53526902e-01 3.24806347e-02 3.91901135e-01 3.79153848e-01 5.73589623e-01 3.50476295e-01 1.86056465e-01 4.80268568e-01 2.90844262e-01 2.81618446e-01 6.80664897e-01 1.08215436e-02 1.27867227e-02 1.59275532e-01 3.36656235e-02 1.49271563e-01 3.39294523e-02 2.35815831e-02 1.55171588e-01 1.06908269e-02 1.11352531e-02 1.06965182e-02 1.42917987e-02 1.06908297e-02 1.10963937e-02 1.06908279e-02 1.07379071e-02 1.06908288e-02 1.06908288e-02 
