# vtk DataFile Version 2.0
results/11_density.vtk, Created by Freefem++ 
ASCII
DATASET UNSTRUCTURED_GRID
POINTS 961 float
0 0 0
0.033333333 0 0
0.066666667 0 0
0.1 0 0
0.13333333 0 0
0.16666667 0 0
0.2 0 0
0.23333333 0 0
0.26666667 0 0
0.3 0 0
0.33333333 0 0
0.36666667 0 0
0.4 0 0
0.43333333 0 0
0.46666667 0 0
0.5 0 0
0.53333333 0 0
0.56666667 0 0
0.6 0 0
0.63333333 0 0
0.66666667 0 0
0.7 0 0
0.73333333 0 0
0.76666667 0 0
0.8 0 0
0.83333333 0 0
0.86666667 0 0
0.9 0 0
0.93333333 0 0
0.96666667 0 0
1 0 0
0 0.033333333 0
0.033333333 0.033333333 0
0.066666667 0.033333333 0
0.1 0.033333333 0
0.13333333 0.033333333 0
0.16666667 0.033333333 0
0.2 0.033333333 0
0.23333333 0.033333333 0
0.26666667 0.033333333 0
0.3 0.033333333 0
0.33333333 0.033333333 0
0.36666667 0.033333333 0
0.4 0.033333333 0
0.43333333 0.033333333 0
0.46666667 0.033333333 0
0.5 0.033333333 0
0.53333333 0.033333333 0
0.56666667 0.033333333 0
0.6 0.033333333 0
0.63333333 0.033333333 0
0.66666667 0.033333333 0
0.7 0.033333333 0
0.73333333 0.033333333 0
0.76666667 0.033333333 0
0.8 0.033333333 0
0.83333333 0.033333333 0
0.86666667 0.033333333 0
0.9 0.033333333 0
0.93333333 0.033333333 0
0.96666667 0.033333333 0
1 0.033333333 0
0 0.066666667 0
0.033333333 0.066666667 0
0.066666667 0.066666667 0
0.1 0.066666667 0
0.13333333 0.066666667 0
0.16666667 0.066666667 0
0.2 0.066666667 0
0.23333333 0.066666667 0
0.26666667 0.066666667 0
0.3 0.066666667 0
0.33333333 0.066666667 0
0.36666667 0.066666667 0
0.4 0.066666667 0
0.43333333 0.066666667 0
0.46666667 0.066666667 0
0.5 0.066666667 0
0.53333333 0.066666667 0
0.56666667 0.066666667 0
0.6 0.066666667 0
0.63333333 0.066666667 0
0.66666667 0.066666667 0
0.7 0.066666667 0
0.73333333 0.066666667 0
0.76666667 0.066666667 0
0.8 0.066666667 0
0.83333333 0.066666667 0
0.86666667 0.066666667 0
0.9 0.066666667 0
0.93333333 0.066666667 0
0.96666667 0.066666667 0
1 0.066666667 0
0 0.1 0
0.033333333 0.1 0
0.066666667 0.1 0
0.1 0.1 0
0.13333333 0.1 0
0.16666667 0.1 0
0.2 0.1 0
0.23333333 0.1 0
0.26666667 0.1 0
0.3 0.1 0
0.33333333 0.1 0
0.36666667 0.1 0
0.4 0.1 0
0.43333333 0.1 0
0.46666667 0.1 0
0.5 0.1 0
0.53333333 0.1 0
0.56666667 0.1 0
0.6 0.1 0
0.63333333 0.1 0
0.66666667 0.1 0
0.7 0.1 0
0.73333333 0.1 0
0.76666667 0.1 0
0.8 0.1 0
0.83333333 0.1 0
0.86666667 0.1 0
0.9 0.1 0
0.93333333 0.1 0
0.96666667 0.1 0
1 0.1 0
0 0.13333333 0
0.033333333 0.13333333 0
0.066666667 0.13333333 0
0.1 0.13333333 0
0.13333333 0.13333333 0
0.16666667 0.13333333 0
0.2 0.13333333 0
0.23333333 0.13333333 0
0.26666667 0.13333333 0
0.3 0.13333333 0
0.33333333 0.13333333 0
0.36666667 0.13333333 0
0.4 0.13333333 0
0.43333333 0.13333333 0
0.46666667 0.13333333 0
0.5 0.13333333 0
0.53333333 0.13333333 0
0.56666667 0.13333333 0
0.6 0.13333333 0
0.63333333 0.13333333 0
0.66666667 0.13333333 0
0.7 0.13333333 0
0.73333333 0.13333333 0
0.76666667 0.13333333 0
0.8 0.13333333 0
0.83333333 0.13333333 0
0.86666667 0.13333333 0
0.9 0.13333333 0
0.93333333 0.13333333 0
0.96666667 0.13333333 0
1 0.13333333 0
0 0.16666667 0
0.033333333 0.16666667 0
0.066666667 0.16666667 0
0.1 0.16666667 0
0.13333333 0.16666667 0
0.16666667 0.16666667 0
0.2 0.16666667 0
0.23333333 0.16666667 0
0.26666667 0.16666667 0
0.3 0.16666667 0
0.33333333 0.16666667 0
0.36666667 0.16666667 0
0.4 0.16666667 0
0.43333333 0.16666667 0
0.46666667 0.16666667 0
0.5 0.16666667 0
0.53333333 0.16666667 0
0.56666667 0.16666667 0
0.6 0.16666667 0
0.63333333 0.16666667 0
0.66666667 0.16666667 0
0.7 0.16666667 0
0.73333333 0.16666667 0
0.76666667 0.16666667 0
0.8 0.16666667 0
0.83333333 0.16666667 0
0.86666667 0.16666667 0
0.9 0.16666667 0
0.93333333 0.16666667 0
0.96666667 0.16666667 0
1 0.16666667 0
0 0.2 0
0.033333333 0.2 0
0.066666667 0.2 0
0.1 0.2 0
0.13333333 0.2 0
0.16666667 0.2 0
0.2 0.2 0
0.23333333 0.2 0
0.26666667 0.2 0
0.3 0.2 0
0.33333333 0.2 0
0.36666667 0.2 0
0.4 0.2 0
0.43333333 0.2 0
0.46666667 0.2 0
0.5 0.2 0
0.53333333 0.2 0
0.56666667 0.2 0
0.6 0.2 0
0.63333333 0.2 0
0.66666667 0.2 0
0.7 0.2 0
0.73333333 0.2 0
0.76666667 0.2 0
0.8 0.2 0
0.83333333 0.2 0
0.86666667 0.2 0
0.9 0.2 0
0.93333333 0.2 0
0.96666667 0.2 0
1 0.2 0
0 0.23333333 0
0.033333333 0.23333333 0
0.066666667 0.23333333 0
0.1 0.23333333 0
0.13333333 0.23333333 0
0.16666667 0.23333333 0
0.2 0.23333333 0
0.23333333 0.23333333 0
0.26666667 0.23333333 0
0.3 0.23333333 0
0.33333333 0.23333333 0
0.36666667 0.23333333 0
0.4 0.23333333 0
0.43333333 0.23333333 0
0.46666667 0.23333333 0
0.5 0.23333333 0
0.53333333 0.23333333 0
0.56666667 0.23333333 0
0.6 0.23333333 0
0.63333333 0.23333333 0
0.66666667 0.23333333 0
0.7 0.23333333 0
0.73333333 0.23333333 0
0.76666667 0.23333333 0
0.8 0.23333333 0
0.83333333 0.23333333 0
0.86666667 0.23333333 0
0.9 0.23333333 0
0.93333333 0.23333333 0
0.96666667 0.23333333 0
1 0.23333333 0
0 0.26666667 0
0.033333333 0.26666667 0
0.066666667 0.26666667 0
0.1 0.26666667 0
0.13333333 0.26666667 0
0.16666667 0.26666667 0
0.2 0.26666667 0
0.23333333 0.26666667 0
0.26666667 0.26666667 0
0.3 0.26666667 0
0.33333333 0.26666667 0
0.36666667 0.26666667 0
0.4 0.26666667 0
0.43333333 0.26666667 0
0.46666667 0.26666667 0
0.5 0.26666667 0
0.53333333 0.26666667 0
0.56666667 0.26666667 0
0.6 0.26666667 0
0.63333333 0.26666667 0
0.66666667 0.26666667 0
0.7 0.26666667 0
0.73333333 0.26666667 0
0.76666667 0.26666667 0
0.8 0.26666667 0
0.83333333 0.26666667 0
0.86666667 0.26666667 0
0.9 0.26666667 0
0.93333333 0.26666667 0
0.96666667 0.26666667 0
1 0.26666667 0
0 0.3 0
0.033333333 0.3 0
0.066666667 0.3 0
0.1 0.3 0
0.13333333 0.3 0
0.16666667 0.3 0
0.2 0.3 0
0.23333333 0.3 0
0.26666667 0.3 0
0.3 0.3 0
0.33333333 0.3 0
0.36666667 0.3 0
0.4 0.3 0
0.43333333 0.3 0
0.46666667 0.3 0
0.5 0.3 0
0.53333333 0.3 0
0.56666667 0.3 0
0.6 0.3 0
0.63333333 0.3 0
0.66666667 0.3 0
0.7 0.3 0
0.73333333 0.3 0
0.76666667 0.3 0
0.8 0.3 0
0.83333333 0.3 0
0.86666667 0.3 0
0.9 0.3 0
0.93333333 0.3 0
0.96666667 0.3 0
1 0.3 0
0 0.33333333 0
0.033333333 0.33333333 0
0.066666667 0.33333333 0
0.1 0.33333333 0
0.13333333 0.33333333 0
0.16666667 0.33333333 0
0.2 0.33333333 0
0.23333333 0.33333333 0
0.26666667 0.33333333 0
0.3 0.33333333 0
0.33333333 0.33333333 0
0.36666667 0.33333333 0
0.4 0.33333333 0
0.43333333 0.33333333 0
0.46666667 0.33333333 0
0.5 0.33333333 0
0.53333333 0.33333333 0
0.56666667 0.33333333 0
0.6 0.33333333 0
0.63333333 0.33333333 0
0.66666667 0.33333333 0
0.7 0.33333333 0
0.73333333 0.33333333 0
0.76666667 0.33333333 0
0.8 0.33333333 0
0.83333333 0.33333333 0
0.86666667 0.33333333 0
0.9 0.33333333 0
0.93333333 0.33333333 0
0.96666667 0.33333333 0
1 0.33333333 0
0 0.36666667 0
0.033333333 0.36666667 0
0.066666667 0.36666667 0
0.1 0.36666667 0
0.13333333 0.36666667 0
0.16666667 0.36666667 0
0.2 0.36666667 0
0.23333333 0.36666667 0
0.26666667 0.36666667 0
0.3 0.36666667 0
0.33333333 0.36666667 0
0.36666667 0.36666667 0
0.4 0.36666667 0
0.43333333 0.36666667 0
0.46666667 0.36666667 0
0.5 0.36666667 0
0.53333333 0.36666667 0
0.56666667 0.36666667 0
0.6 0.36666667 0
0.63333333 0.36666667 0
0.66666667 0.36666667 0
0.7 0.36666667 0
0.73333333 0.36666667 0
0.76666667 0.36666667 0
0.8 0.36666667 0
0.83333333 0.36666667 0
0.86666667 0.36666667 0
0.9 0.36666667 0
0.93333333 0.36666667 0
0.96666667 0.36666667 0
1 0.36666667 0
0 0.4 0
0.033333333 0.4 0
0.066666667 0.4 0
0.1 0.4 0
0.13333333 0.4 0
0.16666667 0.4 0
0.2 0.4 0
0.23333333 0.4 0
0.26666667 0.4 0
0.3 0.4 0
0.33333333 0.4 0
0.36666667 0.4 0
0.4 0.4 0
0.43333333 0.4 0
0.46666667 0.4 0
0.5 0.4 0
0.53333333 0.4 0
0.56666667 0.4 0
0.6 0.4 0
0.63333333 0.4 0
0.66666667 0.4 0
0.7 0.4 0
0.73333333 0.4 0
0.76666667 0.4 0
0.8 0.4 0
0.83333333 0.4 0
0.86666667 0.4 0
0.9 0.4 0
0.93333333 0.4 0
0.96666667 0.4 0
1 0.4 0
0 0.43333333 0
0.033333333 0.43333333 0
0.066666667 0.43333333 0
0.1 0.43333333 0
0.13333333 0.43333333 0
0.16666667 0.43333333 0
0.2 0.43333333 0
0.23333333 0.43333333 0
0.26666667 0.43333333 0
0.3 0.43333333 0
0.33333333 0.43333333 0
0.36666667 0.43333333 0
0.4 0.43333333 0
0.43333333 0.43333333 0
0.46666667 0.43333333 0
0.5 0.43333333 0
0.53333333 0.43333333 0
0.56666667 0.43333333 0
0.6 0.43333333 0
0.63333333 0.43333333 0
0.66666667 0.43333333 0
0.7 0.43333333 0
0.73333333 0.43333333 0
0.76666667 0.43333333 0
0.8 0.43333333 0
0.83333333 0.43333333 0
0.86666667 0.43333333 0
0.9 0.43333333 0
0.93333333 0.43333333 0
0.96666667 0.43333333 0
1 0.43333333 0
0 0.46666667 0
0.033333333 0.46666667 0
0.066666667 0.46666667 0
0.1 0.46666667 0
0.13333333 0.46666667 0
0.16666667 0.46666667 0
0.2 0.46666667 0
0.23333333 0.46666667 0
0.26666667 0.46666667 0
0.3 0.46666667 0
0.33333333 0.46666667 0
0.36666667 0.46666667 0
0.4 0.46666667 0
0.43333333 0.46666667 0
0.46666667 0.46666667 0
0.5 0.46666667 0
0.53333333 0.46666667 0
0.56666667 0.46666667 0
0.6 0.46666667 0
0.63333333 0.46666667 0
0.66666667 0.46666667 0
0.7 0.46666667 0
0.73333333 0.46666667 0
0.76666667 0.46666667 0
0.8 0.46666667 0
0.83333333 0.46666667 0
0.86666667 0.46666667 0
0.9 0.46666667 0
0.93333333 0.46666667 0
0.96666667 0.46666667 0
1 0.46666667 0
0 0.5 0
0.033333333 0.5 0
0.066666667 0.5 0
0.1 0.5 0
0.13333333 0.5 0
0.16666667 0.5 0
0.2 0.5 0
0.23333333 0.5 0
0.26666667 0.5 0
0.3 0.5 0
0.33333333 0.5 0
0.36666667 0.5 0
0.4 0.5 0
0.43333333 0.5 0
0.46666667 0.5 0
0.5 0.5 0
0.53333333 0.5 0
0.56666667 0.5 0
0.6 0.5 0
0.63333333 0.5 0
0.66666667 0.5 0
0.7 0.5 0
0.73333333 0.5 0
0.76666667 0.5 0
0.8 0.5 0
0.83333333 0.5 0
0.86666667 0.5 0
0.9 0.5 0
0.93333333 0.5 0
0.96666667 0.5 0
1 0.5 0
0 0.53333333 0
0.033333333 0.53333333 0
0.066666667 0.53333333 0
0.1 0.53333333 0
0.13333333 0.53333333 0
0.16666667 0.53333333 0
0.2 0.53333333 0
0.23333333 0.53333333 0
0.26666667 0.53333333 0
0.3 0.53333333 0
0.33333333 0.53333333 0
0.36666667 0.53333333 0
0.4 0.53333333 0
0.43333333 0.53333333 0
0.46666667 0.53333333 0
0.5 0.53333333 0
0.53333333 0.53333333 0
0.56666667 0.53333333 0
0.6 0.53333333 0
0.63333333 0.53333333 0
0.66666667 0.53333333 0
0.7 0.53333333 0
0.73333333 0.53333333 0
0.76666667 0.53333333 0
0.8 0.53333333 0
[...]
CELL_DATA 1920
Scalars  Label int 1
LOOKUP_TABLE FreeFempp_table
0
0
0
0
0
0
0
0
0
0
0
0
0
0
0
0
0
0
0
0
0
0
0
0
0
0
0
0
0
0
0
0
0
0
0
0
0
0
0
0
0
0
0
0
0
0
0
0
0
0
0
0
0
0
0
0
0
0
0
0
0
0
0
0
0
0
0
0
0
0
0
0
0
0
0
0
0
0
0
0
0
0
0
0
0
0
0
0
0
0
0
0
0
0
0
0
0
0
0
0
0
0
0
0
0
0
0
0
0
0
0
0
0
0
0
0
0
0
0
0
0
0
0
0
0
0
0
0
0
0
0
0
0
0
0
0
0
0
0
0
0
0
0
0
0
0
0
0
0
0
0
0
0
0
0
0
0
0
0
0
0
0
0
0
0
0
0
0
0
0
0
0
0
0
0
0
0
0
0
0
0
0
0
0
0
0
0
0
0
0
0
0
0
0
0
0
0
0
0
0
0
0
0
0
0
0
0
0
0
0
0
0
0
0
0
0
0
0
0
0
0
0
0
0
0
0
0
0
0
0
0
0
0
0
0
0
0
0
0
0
0
0
0
0
0
0
0
0
0
0
0
0
0
0
0
0
0
0
0
0
0
0
0
0
0
0
0
0
0
0
0
0
0
0
0
0
0
0
0
0
0
0
0
0
0
0
0
0
0
0
0
0
0
0
0
0
0
0
0
0
0
0
0
0
0
0
0
0
0
0
0
0
0
0
0
0
0
0
0
0
0
0
0
0
0
0
0
0
0
0
0
0
0
0
0
0
0
0
0
0
0
0
0
0
0
0
0
0
0
0
0
0
0
0
0
0
0
0
0
0
0
0
0
0
0
0
0
0
0
0
0
0
0
0
0
0
0
0
0
0
0
0
0
0
0
0
0
0
0
0
0
0
0
0
0
0
0
0
0
0
0
0
0
0
0
0
0
0
0
0
0
0
0
0
0
0
0
0
0
0
0
0
0
0
0
0
0
0
0
0
0
0
0
0
0
0
0
0
0
0
0
0
0
0
0
0
0
0
0
0
0
0
0
0
0
0
0
0
0
0
0
0
0
0
0
0
0
0
0
0
0
0
0
0
0
0
0
0
0
0
0
0
0
0
0
0
0
0
0
0
0
0
0
0
0
0
0
0
0
0
0
0
0
0
0
0
0
0
0
0
0
0
0
0
0
0
0
0
0
0
0
0
0
0
0
0
0
0
0
0
0
0
0
0
0
0
0
0
0
0
0
0
0
0
0
0
0
0
0
0
0
0
0
0
0
0
0
0
0
0
0
0
0
0
0
0
0
0
0
0
0
0
0
0
0
0
0
0
0
0
0
0
0
0
0
0
0
0
0
0
0
0
0
0
0
0
0
0
0
0
0
0
0
0
0
0
0
0
0
0
0
0
0
0
0
0
0
0
0
0
0
0
0
0
0
0
0
0
0
0
0
0
0
0
0
0
0
0
0
0
0
0
0
0
0
0
0
0
0
0
0
0
0
0
0
0
0
0
0
0
0
0
0
0
0
0
0
0
0
0
0
0
0
0
0
0
0
0
0
0
0
0
0
0
0
0
0
0
0
0
0
0
0
0
0
0
0
0
0
0
0
0
0
0
0
0
0
0
0
0
0
0
0
0
0
0
0
0
0
0
0
0
0
0
0
0
0
0
0
0
0
0
0
0
0
0
0
0
0
0
0
0
0
0
0
0
0
0
0
0
0
0
0
0
0
0
0
0
0
0
0
0
0
0
0
0
0
0
0
0
0
0
0
0
0
0
0
0
0
0
0
0
0
0
0
0
0
0
0
0
0
0
0
0
0
0
0
0
0
0
0
0
0
0
0
0
0
0
0
0
0
0
0
0
0
0
0
0
0
0
0
0
0
0
0
0
0
0
0
0
0
0
0
0
0
0
0
0
0
0
0
0
0
0
0
0
0
0
0
0
0
0
0
0
0
0
0
0
0
0
0
0
0
0
0
0
0
0
0
0
0
0
0
0
0
0
0
0
0
0
0
0
0
0
0
0
0
0
0
0
0
0
0
0
0
0
0
0
0
0
0
0
0
0
0
0
0
0
0
0
0
0
0
0
0
0
0
0
0
0
0
0
0
0
0
0
0
0
0
0
0
0
0
0
0
0
0
0
0
0
0
0
0
0
0
0
0
0
0
0
0
0
0
0
0
0
0
0
0
0
0
0
0
0
0
0
0
0
0
0
0
0
0
0
0
0
0
0
0
0
0
0
0
0
0
0
0
0
0
0
0
0
0
0
0
0
0
0
0
0
0
0
0
0
0
0
0
0
0
0
0
0
0
0
0
0
0
0
0
0
0
0
0
0
0
0
0
0
0
0
0
0
0
0
0
0
0
0
0
0
0
0
0
0
0
0
0
0
0
0
0
0
0
0
0
0
0
0
0
0
0
0
0
0
0
0
0
0
0
0
0
0
0
0
0
0
0
0
0
0
0
0
0
0
0
0
0
0
0
0
0
0
0
0
0
0
0
0
0
0
0
0
0
0
0
0
0
0
0
0
0
0
0
0
0
0
0
0
0
0
0
0
0
0
0
0
0
0
0
0
0
0
0
0
0
0
0
0
0
0
0
0
0
0
0
0
0
0
0
0
0
0
0
0
0
0
0
0
0
0
0
0
0
0
0
0
0
0
0
0
0
0
0
0
0
0
0
0
0
0
0
0
0
0
0
0
0
0
0
0
0
0
0
0
0
0
0
0
0
0
0
0
0
0
0
0
0
0
0
0
0
0
0
0
0
0
0
0
0
0
0
0
0
0
0
0
0
0
0
0
0
0
0
0
0
0
0
0
0
0
0
0
0
0
0
0
0
0
0
0
0
0
0
0
0
0
0
0
0
0
0
0
0
0
0
0
0
0
0
0
0
0
0
0
0
0
0
0
0
0
0
0
0
0
0
0
0
0
0
0
0
0
0
0
0
0
0
0
0
0
0
0
0
0
0
0
0
0
0
0
0
0
0
0
0
0
0
0
0
0
0
0
0
0
0
0
0
0
0
0
0
0
0
0
0
0
0
0
0
0
0
0
0
0
0
0
0
0
0
0
0
0
0
0
0
0
0
0
0
0
0
0
0
0
0
0
0
0
0
0
0
0
0
0
0
0
0
0
0
0
0
0
0
0
0
0
0
0
0
0
0
0
0
0
0
0
0
0
0
0
0
0
0
0
0
0
0
0
0
0
0
0
0
0
0
0
0
0
0
0
0
0
0
0
0
0
0
0
0
0
0
0
0
0
0
0
0
0
0
0
0
0
0
0
0
0
0
0
0
0
0
0
0
0
0
0
0
0
0
0
0
0
0
0
0
0
0
0
0
0
0
0
0
0
0
0
0
0
0
0
0
0
0
0
0
0
0
0
0
0
0
0
0
0
0
0
0
0
0
0
0
0
0
0
0
0
0
0
0
0
0
0
0
0
0
0
0
0
0
0
0
0
0
0
0
0
0
0
0
0
0
0
0
0
0
0
0
0
0
0
0
0
0
0
0
0
0
0
0
0
0
0
0
0
0
0
0
0
0
0
0
0
0
0
0
0
0
0
0
0
0
0
0
0
0
0
0
0
0
0
0
0
0
0
0
0
0
0
0
0
0
0
0
0
0
0
0
0
0
0
0
0
0
0
0
0
0
0
0
0
0
0
0
0
0
0
0
0
0
0
0
0
0
0
0
0
0
0
0
0
0
0
0
0
0
0
0
0
0
0
0
0
0
0
0
0
0
0
0
0
0
0
0
0
0
0
0
0
0
0
0
0
0
0
0
0
0
0
0
0
0
0
0
0
0
0
0
0
0
0
0
0
0
0
0
0
0
0
0
0
0
0
0
0
0
0
0
0
0
0
0
0
0
0
0
0
0
0
0
0
0
0
0
0
0
0
0
0
0
0
0
0
0
0
0
0
0
0
0
0
0
0
0
0
0
0
0
0
0
0
0
0
0
0
0
0
0
0
0
0
0
0
0
0
0
0
0
0
0
0
0
0
0
0
0
0
0
0
0
0
0
0
0
0
0
0
0
0
0
0
0
0
0
0
0
0
0
0
0
0
0
0
0
0
0
0
0
0
0
0
1
1
1
1
1
1
1
1
1
1
1
1
1
1
1
1
1
1
1
1
1
1
1
1
1
1
1
1
1
1
2
2
2
2
2
2
2
2
2
2
2
2
2
2
2
2
2
2
2
2
2
2
2
2
2
2
2
2
2
2
3
3
3
3
3
3
3
3
3
3
3
3
3
3
3
3
3
3
3
3
3
3
3
3
3
3
3
3
3
3
4
4
4
4
4
4
4
4
4
4
4
4
4
4
4
4
4
4
4
4
4
4
4
4
4
4
4
4
4
4

LOOKUP_TABLE FreeFempp_table 5
1.00000000 0.00000000 0.00000000 1.00000000
1.00000000 1.00000000 0.00000000 1.00000000
1.00000000 0.00000000 1.00000000 1.00000000
0.00000000 1.00000000 0.00000000 1.00000000
0.00000000 1.00000000 1.00000000 1.00000000

POINT_DATA 961
FIELD FieldData 1
Density 1 961 float
5.23750186e-01 3.42746735e-01 2.22387418e-01 1.95774972e-01 2.85958737e-01 3.69334191e-01 2.83549786e-01 7.91474730e-02 4.37374264e-02 1.10477060e-01 2.83049822e-01 3.92011583e-01 4.45082128e-01 4.77392256e-01 5.00251293e-01 5.17756581e-01 5.31907082e-01 5.43792963e-01 5.53976119e-01 5.62687755e-01 5.69968879e-01 5.75786233e-01 5.80131173e-01 5.83086789e-01 5.84849238e-01 5.85702837e-01 5.85968494e-01 5.85952282e-01 5.85929096e-01 5.86795866e-01 6.42541885e-01 5.61268185e-04 4.95233398e-04 5.45816612e-04 8.00917158e-04 7.32161244e-03 2.16940418e-01 1.69137195e-01 4.83224429e-02 1.65575594e-02 2.84638815e-02 1.11451872e-01 2.08872616e-01 2.64330894e-01 3.03247184e-01 3.35354269e-01 3.63010347e-01 3.87282819e-01 4.08895969e-01 4.28262651e-01 4.45467234e-01 4.60342944e-01 4.72618043e-01 4.82086897e-01 4.88752455e-01 4.92888033e-01 4.95000273e-01 4.95721251e-01 4.95683551e-01 4.95456547e-01 4.97491896e-01 5.87875187e-01 8.00686830e-04 4.62892873e-04 4.75823064e-04 4.25834558e-04 4.17745119e-04 4.61222313e-04 4.68186743e-04 4.58371971e-04 4.70903382e-04 4.19356365e-04 1.59741908e-01 2.41893902e-01 2.76688606e-01 3.02693993e-01 3.28750908e-01 3.54380339e-01 3.78585994e-01 4.00951564e-01 4.21388835e-01 4.39744443e-01 4.55708414e-01 4.68914092e-01 4.79104668e-01 4.86276507e-01 4.90732640e-01 4.93028551e-01 4.93845999e-01 4.93856817e-01 4.93674040e-01 4.95939791e-01 5.88257015e-01 5.03178358e-01 3.41418535e-01 2.20362306e-01 2.72269687e-03 6.26589288e-04 5.01862261e-04 4.70042403e-04 4.69498831e-04 4.71441512e-04 3.08754330e-04 3.01507884e-04 2.89164573e-01 2.92269289e-01 3.02852452e-01 3.21181148e-01 3.43761772e-01 3.67194831e-01 3.89717788e-01 4.10775572e-01 4.30002630e-01 4.46923703e-01 4.61028755e-01 4.71957296e-01 4.79661018e-01 4.84457433e-01 4.86953735e-01 4.87891138e-01 4.87986177e-01 4.87880260e-01 4.90377903e-01 5.85729480e-01 5.24612308e-01 3.78466725e-01 3.79146695e-01 3.74638855e-01 3.59299868e-01 3.41203570e-01 3.27398539e-01 3.14447463e-01 3.03690344e-01 2.73470342e-01 3.10252479e-04 3.09028139e-04 3.11804086e-01 3.05480331e-01 3.14839393e-01 3.33664119e-01 3.55800748e-01 3.77936065e-01 3.99226755e-01 4.19135779e-01 4.36968535e-01 4.51991379e-01 4.63669389e-01 4.71870303e-01 4.76922631e-01 4.79505837e-01 4.80448037e-01 4.80531633e-01 4.80433613e-01 4.83143806e-01 5.82332909e-01 5.44364691e-01 4.09647822e-01 4.10679400e-01 4.07022238e-01 4.00035232e-01 3.85555148e-01 3.68932217e-01 3.53657156e-01 3.44257146e-01 3.38765651e-01 3.25257450e-01 3.09543102e-04 3.11893935e-04 3.09604019e-01 3.09782207e-01 3.25050682e-01 3.45990062e-01 3.67260933e-01 3.88305128e-01 4.08557326e-01 4.27083433e-01 4.42866445e-01 4.55137849e-01 4.63651448e-01 4.68752414e-01 4.71219063e-01 4.71993715e-01 4.71942157e-01 4.71782476e-01 4.74706441e-01 5.78257561e-01 5.67981482e-01 4.50970203e-01 4.51086640e-01 4.43934947e-01 4.35249269e-01 4.22304958e-01 4.03677940e-01 3.82250637e-01 3.63481134e-01 3.48566353e-01 3.29178005e-01 3.12651813e-01 3.15008569e-04 3.06419708e-04 3.01735193e-01 3.18010926e-01 3.39211851e-01 3.59205544e-01 3.79465401e-01 3.99620146e-01 4.18494999e-01 4.34745550e-01 4.47315782e-01 4.55822736e-01 4.60646421e-01 4.62701142e-01 4.63075012e-01 4.62732077e-01 4.62434173e-01 4.65580940e-01 5.73754728e-01 5.94065011e-01 5.00534654e-01 5.00415981e-01 4.92083997e-01 4.83098090e-01 4.70987618e-01 4.52325076e-01 4.26749438e-01 3.98432910e-01 3.70700836e-01 3.40397537e-01 3.07739258e-01 2.37306774e-01 3.26840527e-04 4.47090511e-04 3.20615768e-01 3.38951081e-01 3.55923951e-01 3.74358565e-01 3.93699318e-01 4.12386954e-01 4.28662539e-01 4.41097915e-01 4.49144602e-01 4.53248054e-01 4.54509109e-01 4.54196572e-01 4.53382909e-01 4.52869743e-01 4.56266552e-01 5.69082439e-01 6.19060397e-01 5.52790880e-01 5.53320408e-01 5.47409654e-01 5.41924834e-01 5.33635318e-01 5.17711699e-01 4.90838706e-01 4.54719365e-01 4.13876861e-01 3.69066328e-01 3.18742186e-01 2.71423727e-01 4.65148129e-04 3.27956397e-04 2.59365380e-01 3.47442240e-01 3.58938187e-01 3.74328226e-01 3.91912222e-01 4.09720451e-01 4.25472230e-01 4.37229842e-01 4.44243282e-01 4.47077543e-01 4.47091877e-01 4.45774108e-01 4.44305778e-01 4.43514019e-01 4.47227329e-01 5.64501703e-01 6.36024594e-01 5.94398022e-01 5.96191525e-01 5.96424282e-01 5.99839389e-01 6.01612210e-01 5.94563425e-01 5.72346926e-01 5.34332216e-01 4.85157430e-01 4.28095013e-01 3.61459613e-01 2.79591054e-01 1.71654984e-01 3.31660325e-04 4.81478171e-04 3.57558489e-01 3.68312746e-01 3.79749626e-01 3.94632041e-01 4.10966098e-01 4.25723761e-01 4.36241210e-01 4.41560477e-01 4.42484677e-01 4.40746188e-01 4.38096106e-01 4.35808659e-01 4.34707999e-01 4.38871711e-01 5.60270011e-01 6.36732638e-01 6.07012331e-01 6.09841406e-01 6.18310928e-01 6.35632217e-01 6.54931068e-01 6.64754570e-01 6.54752970e-01 6.23981237e-01 5.77495277e-01 5.18617034e-01 4.45862085e-01 3.53833020e-01 2.57747740e-01 4.96135966e-04 3.62435734e-04 2.88800359e-01 3.77636969e-01 3.88634473e-01 4.01053518e-01 4.16111082e-01 4.29782242e-01 4.38539505e-01 4.41391826e-01 4.39645678e-01 4.35593277e-01 4.31294054e-01 4.28065866e-01 4.26679105e-01 4.31527555e-01 5.56630075e-01 6.17208004e-01 5.76506376e-01 5.77697814e-01 5.93062162e-01 6.27943516e-01 6.72621787e-01 7.06320167e-01 7.11977839e-01 6.94622159e-01 6.62469327e-01 6.16668582e-01 5.55174708e-01 4.72112209e-01 3.69493932e-01 2.88491189e-01 3.51466937e-04 3.67989560e-04 3.72472942e-01 4.01486218e-01 4.11119848e-01 4.25717562e-01 4.38427955e-01 4.44706231e-01 4.44002330e-01 4.38582808e-01 4.31557447e-01 4.25309360e-01 4.21081394e-01 4.19502974e-01 4.25405592e-01 5.53790212e-01 5.82635462e-01 5.04938424e-01 4.97045517e-01 5.11964321e-01 5.65992832e-01 6.47815645e-01 7.09442854e-01 7.19051659e-01 7.15658009e-01 7.09820867e-01 6.84384227e-01 6.45751238e-01 5.91713905e-01 5.13242781e-01 4.22452480e-01 2.53334850e-01 4.01442638e-04 5.68448973e-04 4.05113429e-01 4.26547080e-01 4.41753894e-01 4.53250855e-01 4.55633491e-01 4.49645549e-01 4.39127952e-01 4.28314149e-01 4.19846892e-01 4.14646387e-01 4.13059831e-01 4.20553744e-01 5.51894009e-01 5.44880748e-01 4.16905016e-01 3.91750365e-01 3.94845575e-01 4.62698132e-01 5.99886715e-01 6.91614211e-01 6.25795305e-01 6.02573633e-01 6.97035670e-01 7.10663319e-01 6.88247383e-01 6.62678123e-01 6.33358955e-01 5.79288244e-01 4.89042073e-01 6.35853037e-04 4.50766092e-04 3.02923143e-01 4.36925679e-01 4.63224083e-01 4.75382417e-01 4.72089052e-01 4.58431035e-01 4.40864027e-01 4.25248563e-01 4.14353549e-01 4.08326566e-01 4.07014549e-01 4.16820645e-01 5.50986350e-01 5.13355851e-01 3.41602266e-01 3.00081313e-01 2.87985265e-01 3.51495743e-01 5.50411820e-01 6.79738283e-01 3.85471135e-01 1.56625882e-01 4.76852477e-01 6.85821831e-01 6.97371662e-01 6.78544939e-01 6.74583852e-01 6.70932472e-01 6.46345317e-01 4.97403204e-01 4.47939936e-04 5.01187518e-04 4.02552903e-01 4.87131804e-01 5.05778432e-01 4.95280355e-01 4.70902920e-01 4.43495631e-01 4.21640933e-01 4.08135742e-01 4.01554793e-01 4.00877625e-01 4.13866997e-01 5.50991356e-01 4.90761787e-01 2.90701598e-01 2.40792975e-01 2.19790801e-01 2.58655936e-01 4.76366282e-01 6.95575416e-01 2.08326980e-01 2.33999826e-02 6.92316368e-02 4.87029314e-01 6.79290175e-01 6.76523030e-01 6.70621872e-01 6.88653946e-01 7.09120870e-01 6.76920176e-01 3.89938116e-01 5.58898551e-04 6.84873201e-04 4.68129873e-01 5.56506693e-01 5.31471610e-01 4.90804642e-01 4.48280811e-01 4.17286158e-01 4.00689602e-01 3.93891275e-01 3.94213200e-01 4.11268979e-01 5.51720023e-01 4.76340353e-01 2.62047827e-01 2.10689813e-01 1.87516108e-01 1.99761152e-01 3.52650374e-01 6.92615271e-01 3.15392971e-01 1.29259545e-02 7.89650716e-03 1.07757904e-01 5.73754609e-01 6.63621902e-01 6.57508135e-01 6.70324504e-01 7.14518845e-01 7.50546396e-01 6.96036637e-01 7.67609011e-03 8.74533725e-04 1.91350956e-03 5.91135681e-01 6.02164268e-01 5.29738665e-01 4.60001081e-01 4.13117975e-01 3.92038882e-01 3.85420263e-01 3.87059689e-01 4.08776194e-01 5.52920878e-01 4.68965799e-01 2.50430465e-01 2.01310262e-01 1.80721059e-01 1.79414704e-01 2.61169076e-01 5.36579967e-01 7.43094265e-01 1.46049019e-02 2.99702678e-03 9.15580429e-03 3.32105458e-01 6.25587344e-01 6.45199955e-01 6.47233784e-01 6.76121771e-01 7.42415726e-01 7.88504064e-01 5.85813403e-01 1.53708528e-03 1.14742399e-03 8.65195245e-02 6.69026315e-01 6.04535639e-01 4.87675637e-01 4.11162287e-01 3.82889956e-01 3.77276838e-01 3.80684882e-01 4.06873018e-01 5.54407954e-01 4.67602879e-01 2.51411766e-01 2.06290260e-01 1.90316170e-01 1.85555473e-01 2.23056957e-01 3.77308518e-01 6.42285466e-01 6.89646780e-01 2.17857561e-03 1.26290112e-03 3.88615169e-02 5.21022260e-01 6.31277978e-01 6.33147180e-01 6.43562078e-01 6.90743208e-01 7.79798687e-01 7.96384752e-01 2.67347425e-01 1.24301482e-03 1.73991628e-03 5.00340521e-01 6.98956907e-01 5.44860363e-01 4.16546553e-01 3.75966519e-01 3.72706711e-01 3.78828526e-01 4.07914609e-01 5.56377172e-01 4.71161813e-01 2.61490405e-01 2.21702516e-01 2.10153595e-01 2.05196261e-01 2.27588296e-01 3.12486649e-01 4.71876353e-01 6.54274821e-01 6.24022603e-01 9.47426772e-04 7.51658226e-04 2.59690672e-01 5.66208243e-01 6.21319354e-01 6.23519301e-01 6.47670090e-01 7.21187413e-01 8.19176555e-01 7.77963519e-01 4.93797623e-02 2.36009783e-03 4.85674432e-03 6.95913017e-01 6.60706460e-01 4.48436975e-01 3.80896240e-01 3.79152387e-01 3.89108092e-01 4.17873859e-01 5.60126960e-01 4.78553683e-01 2.77977079e-01 2.44817734e-01 2.36860901e-01 2.34777540e-01 2.49682531e-01 2.99365342e-01 3.89385521e-01 5.11174977e-01 6.20617449e-01 5.83635032e-01 6.41164777e-04 5.68354095e-04 4.26927656e-01 5.92500329e-01 6.14478946e-01 6.21332705e-01 6.63780928e-01 7.57818580e-01 8.42902303e-01 7.02815294e-01 2.31772345e-02 7.55339768e-03 5.54926209e-02 7.59180248e-01 5.41043043e-01 4.20327723e-01 4.10810977e-01 4.23174113e-01 4.47354496e-01 5.69131732e-01 4.88555819e-01 2.98646629e-01 2.72827953e-01 2.67384380e-01 2.67957985e-01 2.76517183e-01 3.06547195e-01 3.61605674e-01 4.28859860e-01 5.05567610e-01 5.79098701e-01 5.46543956e-01 5.14325977e-04 4.72996733e-04 4.80317295e-01 6.00700557e-01 6.08930945e-01 6.26476228e-01 6.84921920e-01 7.88069487e-01 8.56224656e-01 6.64071083e-01 4.40624580e-02 1.02345675e-01 7.08314598e-01 6.86204314e-01 5.15918911e-01 4.84449148e-01 4.92115974e-01 5.07976353e-01 5.88919997e-01 4.99740511e-01 3.21299702e-01 3.02549660e-01 2.98636794e-01 2.99487323e-01 3.04572284e-01 3.21242779e-01 3.50773722e-01 3.88626635e-01 4.35392648e-01 4.85727936e-01 5.40015757e-01 5.13612151e-01 4.37809766e-04 4.07927349e-04 4.91987526e-01 5.78230679e-01 5.95694840e-01 6.28177404e-01 6.98029935e-01 7.98048139e-01 8.62969816e-01 7.71283507e-01 5.97893357e-01 8.23127151e-01 7.78865278e-01 6.54905319e-01 6.00733876e-01 5.93584836e-01 5.99463284e-01 6.23170733e-01 5.10693729e-01 3.43747467e-01 3.31046611e-01 3.27834845e-01 3.27660263e-01 3.30869377e-01 3.38280886e-01 3.53064120e-01 3.73430014e-01 3.99127454e-01 4.28930670e-01 4.63601559e-01 5.03821254e-01 4.84787166e-01 3.80645099e-04 3.58250749e-04 4.45185274e-01 5.19124508e-01 5.61065793e-01 6.15211368e-01 6.91119730e-01 7.80633748e-01 8.40678215e-01 8.56530368e-01 8.64446163e-01 8.24731827e-01 7.58953035e-01 7.12656617e-01 6.93259656e-01 6.92111373e-01 6.65858567e-01 5.20223677e-01 3.63956541e-01 3.56013656e-01 3.52975070e-01 3.51591736e-01 3.52284431e-01 3.55193377e-01 3.61007810e-01 3.70262355e-01 3.83058816e-01 3.99435222e-01 4.18248743e-01 4.42572862e-01 4.73328739e-01 4.59343702e-01 3.38926475e-04 3.24004825e-04 3.67833704e-01 4.36351895e-01 5.06571591e-01 5.79253376e-01 6.59290493e-01 7.42821753e-01 8.06789815e-01 8.37308824e-01 8.25462341e-01 7.95324385e-01 7.66447783e-01 7.48107076e-01 7.44620383e-01 6.99259758e-01 5.27412653e-01 3.80214959e-01 3.75890553e-01 3.72999638e-01 3.70874733e-01 3.69864315e-01 3.70236665e-01 3.71588707e-01 3.74382794e-01 3.79494727e-01 3.86649847e-01 3.95190984e-01 4.07197714e-01 4.25037324e-01 4.50479358e-01 4.40727472e-01 3.11073585e-04 3.00915970e-04 3.05432618e-01 3.72410357e-01 4.54906404e-01 5.29962480e-01 6.11170352e-01 6.92471385e-01 7.49919415e-01 7.70029366e-01 7.66188145e-01 7.54662156e-01 7.44903862e-01 7.41800129e-01 7.07142770e-01 5.31510174e-01 3.91080767e-01 3.89555752e-01 3.87209296e-01 3.85194242e-01 3.83747131e-01 3.82932514e-01 3.82622778e-01 3.82648200e-01 3.83307934e-01 3.84477139e-01 3.86483759e-01 3.90361369e-01 3.97644967e-01 4.10842061e-01 4.33378875e-01 4.29398209e-01 2.91285309e-04 2.82845023e-04 2.85933107e-01 3.49926680e-01 4.19911712e-01 4.87105042e-01 5.63055098e-01 6.29259706e-01 6.69211030e-01 6.86720550e-01 6.92042768e-01 6.92925453e-01 6.91065788e-01 6.87826216e-01 5.31817019e-01 3.95217448e-01 3.95917803e-01 3.94692123e-01 3.93755257e-01 3.93224299e-01 3.93002987e-01 3.92828226e-01 3.92403185e-01 3.91579628e-01 3.90317202e-01 3.88792664e-01 3.87564540e-01 3.87551725e-01 3.90333623e-01 3.98837328e-01 4.18651909e-01 4.21742648e-01 2.74071703e-04 2.67863652e-04 3.04480731e-01 3.53570431e-01 4.00955111e-01 4.57260489e-01 5.14641047e-01 5.58529913e-01 5.86958230e-01 6.04284406e-01 6.14363432e-01 6.14295661e-01 6.52403653e-01 5.27759790e-01 3.91417950e-01 3.93730938e-01 3.94049257e-01 3.94986510e-01 3.96639973e-01 3.98816884e-01 4.01087701e-01 4.02924716e-01 4.03839290e-01 4.03459072e-01 4.01642710e-01 3.98544222e-01 3.94597590e-01 3.90636504e-01 3.88246924e-01 3.90692711e-01 4.05025989e-01 4.09878284e-01 2.64313916e-04 2.54278944e-04 3.37821066e-01 3.58963221e-01 3.90455484e-01 4.30924356e-01 4.68291581e-01 4.98032480e-01 5.20483613e-01 5.36508203e-01 5.40304244e-01 6.15264952e-01 5.19229591e-01 3.79303068e-01 3.82109404e-01 3.83948982e-01 3.87252480e-01 3.92307341e-01 3.98984879e-01 4.06740218e-01 4.14711416e-01 4.21893030e-01 4.27307487e-01 4.30176347e-01 4.30068016e-01 4.26935136e-01 4.21102971e-01 4.13270056e-01 4.04633671e-01 3.97479624e-01 3.97331297e-01 3.92453998e-01 2.42963026e-04 3.36848578e-04 3.50704938e-01 3.60892713e-01 3.81167978e-01 4.07664031e-01 4.34511125e-01 4.58638430e-01 4.77862805e-01 4.86947805e-01 5.86779594e-01 6.17665172e-01 5.15296996e-01 5.16574800e-01 5.17844260e-01 5.20432234e-01 5.24677396e-01 5.30609310e-01 5.37909091e-01 5.45949578e-01 5.53933740e-01 5.61041117e-01 5.66546381e-01 5.69937110e-01 5.70981801e-01 5.69696426e-01 5.66224754e-01 5.60646355e-01 5.52769005e-01 5.42405546e-01 5.47926903e-01 5.14259096e-04 3.98310425e-04 4.87749904e-01 5.08757174e-01 5.11628270e-01 5.21429121e-01 5.35094440e-01 5.49451947e-01 5.61665118e-01 5.69155931e-01 6.05565429e-01 
