# vtk DataFile Version 2.0
results/12_density.vtk, Created by Freefem++ 
ASCII
DATASET UNSTRUCTURED_GRID
POINTS 961 float
0 0 0
0.033333333 0 0
0.066666667 0 0
0.1 0 0
0.13333333 0 0
0.16666667 0 0
0.2 0 0
0.23333333 0 0
0.26666667 0 0
0.3 0 0
0.33333333 0 0
0.36666667 0 0
0.4 0 0
0.43333333 0 0
0.46666667 0 0
0.5 0 0
0.53333333 0 0
0.56666667 0 0
0.6 0 0
0.63333333 0 0
0.66666667 0 0
0.7 0 0
0.73333333 0 0
0.76666667 0 0
0.8 0 0
0.83333333 0 0
0.86666667 0 0
0.9 0 0
0.93333333 0 0
0.96666667 0 0
1 0 0
0 0.033333333 0
0.033333333 0.033333333 0
0.066666667 0.033333333 0
0.1 0.033333333 0
0.13333333 0.033333333 0
0.16666667 0.033333333 0
0.2 0.033333333 0
0.23333333 0.033333333 0
0.26666667 0.033333333 0
0.3 0.033333333 0
0.33333333 0.033333333 0
0.36666667 0.033333333 0
0.4 0.033333333 0
0.43333333 0.033333333 0
0.46666667 0.033333333 0
0.5 0.033333333 0
0.53333333 0.033333333 0
0.56666667 0.033333333 0
0.6 0.033333333 0
0.63333333 0.033333333 0
0.66666667 0.033333333 0
0.7 0.033333333 0
0.73333333 0.033333333 0
0.76666667 0.033333333 0
0.8 0.033333333 0
0.83333333 0.033333333 0
0.86666667 0.033333333 0
0.9 0.033333333 0
0.93333333 0.033333333 0
0.96666667 0.033333333 0
1 0.033333333 0
0 0.066666667 0
0.033333333 0.066666667 0
0.066666667 0.066666667 0
0.1 0.066666667 0
0.13333333 0.066666667 0
0.16666667 0.066666667 0
0.2 0.066666667 0
0.23333333 0.066666667 0
0.26666667 0.066666667 0
0.3 0.066666667 0
0.33333333 0.066666667 0
0.36666667 0.066666667 0
0.4 0.066666667 0
0.43333333 0.066666667 0
0.46666667 0.066666667 0
0.5 0.066666667 0
0.53333333 0.066666667 0
0.56666667 0.066666667 0
0.6 0.066666667 0
0.63333333 0.066666667 0
0.66666667 0.066666667 0
0.7 0.066666667 0
0.73333333 0.066666667 0
0.76666667 0.066666667 0
0.8 0.066666667 0
0.83333333 0.066666667 0
0.86666667 0.066666667 0
0.9 0.066666667 0
0.93333333 0.066666667 0
0.96666667 0.066666667 0
1 0.066666667 0
0 0.1 0
0.033333333 0.1 0
0.066666667 0.1 0
0.1 0.1 0
0.13333333 0.1 0
0.16666667 0.1 0
0.2 0.1 0
0.23333333 0.1 0
0.26666667 0.1 0
0.3 0.1 0
0.33333333 0.1 0
0.36666667 0.1 0
0.4 0.1 0
0.43333333 0.1 0
0.46666667 0.1 0
0.5 0.1 0
0.53333333 0.1 0
0.56666667 0.1 0
0.6 0.1 0
0.63333333 0.1 0
0.66666667 0.1 0
0.7 0.1 0
0.73333333 0.1 0
0.76666667 0.1 0
0.8 0.1 0
0.83333333 0.1 0
0.86666667 0.1 0
0.9 0.1 0
0.93333333 0.1 0
0.96666667 0.1 0
1 0.1 0
0 0.13333333 0
0.033333333 0.13333333 0
0.066666667 0.13333333 0
0.1 0.13333333 0
0.13333333 0.13333333 0
0.16666667 0.13333333 0
0.2 0.13333333 0
0.23333333 0.13333333 0
0.26666667 0.13333333 0
0.3 0.13333333 0
0.33333333 0.13333333 0
0.36666667 0.13333333 0
0.4 0.13333333 0
0.43333333 0.13333333 0
0.46666667 0.13333333 0
0.5 0.13333333 0
0.53333333 0.13333333 0
0.56666667 0.13333333 0
0.6 0.13333333 0
0.63333333 0.13333333 0
0.66666667 0.13333333 0
0.7 0.13333333 0
0.73333333 0.13333333 0
0.76666667 0.13333333 0
0.8 0.13333333 0
0.83333333 0.13333333 0
0.86666667 0.13333333 0
0.9 0.13333333 0
0.93333333 0.13333333 0
0.96666667 0.13333333 0
1 0.13333333 0
0 0.16666667 0
0.033333333 0.16666667 0
0.066666667 0.16666667 0
0.1 0.16666667 0
0.13333333 0.16666667 0
0.16666667 0.16666667 0
0.2 0.16666667 0
0.23333333 0.16666667 0
0.26666667 0.16666667 0
0.3 0.16666667 0
0.33333333 0.16666667 0
0.36666667 0.16666667 0
0.4 0.16666667 0
0.43333333 0.16666667 0
0.46666667 0.16666667 0
0.5 0.16666667 0
0.53333333 0.16666667 0
0.56666667 0.16666667 0
0.6 0.16666667 0
0.63333333 0.16666667 0
0.66666667 0.16666667 0
0.7 0.16666667 0
0.73333333 0.16666667 0
0.76666667 0.16666667 0
0.8 0.16666667 0
0.83333333 0.16666667 0
0.86666667 0.16666667 0
0.9 0.16666667 0
0.93333333 0.16666667 0
0.96666667 0.16666667 0
1 0.16666667 0
0 0.2 0
0.033333333 0.2 0
0.066666667 0.2 0
0.1 0.2 0
0.13333333 0.2 0
0.16666667 0.2 0
0.2 0.2 0
0.23333333 0.2 0
0.26666667 0.2 0
0.3 0.2 0
0.33333333 0.2 0
0.36666667 0.2 0
0.4 0.2 0
0.43333333 0.2 0
0.46666667 0.2 0
0.5 0.2 0
0.53333333 0.2 0
0.56666667 0.2 0
0.6 0.2 0
0.63333333 0.2 0
0.66666667 0.2 0
0.7 0.2 0
0.73333333 0.2 0
0.76666667 0.2 0
0.8 0.2 0
0.83333333 0.2 0
0.86666667 0.2 0
0.9 0.2 0
0.93333333 0.2 0
0.96666667 0.2 0
1 0.2 0
0 0.23333333 0
0.033333333 0.23333333 0
0.066666667 0.23333333 0
0.1 0.23333333 0
0.13333333 0.23333333 0
0.16666667 0.23333333 0
0.2 0.23333333 0
0.23333333 0.23333333 0
0.26666667 0.23333333 0
0.3 0.23333333 0
0.33333333 0.23333333 0
0.36666667 0.23333333 0
0.4 0.23333333 0
0.43333333 0.23333333 0
0.46666667 0.23333333 0
0.5 0.23333333 0
0.53333333 0.23333333 0
0.56666667 0.23333333 0
0.6 0.23333333 0
0.63333333 0.23333333 0
0.66666667 0.23333333 0
0.7 0.23333333 0
0.73333333 0.23333333 0
0.76666667 0.23333333 0
0.8 0.23333333 0
0.83333333 0.23333333 0
0.86666667 0.23333333 0
0.9 0.23333333 0
0.93333333 0.23333333 0
0.96666667 0.23333333 0
1 0.23333333 0
0 0.26666667 0
0.033333333 0.26666667 0
0.066666667 0.26666667 0
0.1 0.26666667 0
0.13333333 0.26666667 0
0.16666667 0.26666667 0
0.2 0.26666667 0
0.23333333 0.26666667 0
0.26666667 0.26666667 0
0.3 0.26666667 0
0.33333333 0.26666667 0
0.36666667 0.26666667 0
0.4 0.26666667 0
0.43333333 0.26666667 0
0.46666667 0.26666667 0
0.5 0.26666667 0
0.53333333 0.26666667 0
0.56666667 0.26666667 0
0.6 0.26666667 0
0.63333333 0.26666667 0
0.66666667 0.26666667 0
0.7 0.26666667 0
0.73333333 0.26666667 0
0.76666667 0.26666667 0
0.8 0.26666667 0
0.83333333 0.26666667 0
0.86666667 0.26666667 0
0.9 0.26666667 0
0.93333333 0.26666667 0
0.96666667 0.26666667 0
1 0.26666667 0
0 0.3 0
0.033333333 0.3 0
0.066666667 0.3 0
0.1 0.3 0
0.13333333 0.3 0
0.16666667 0.3 0
0.2 0.3 0
0.23333333 0.3 0
0.26666667 0.3 0
0.3 0.3 0
0.33333333 0.3 0
0.36666667 0.3 0
0.4 0.3 0
0.43333333 0.3 0
0.46666667 0.3 0
0.5 0.3 0
0.53333333 0.3 0
0.56666667 0.3 0
0.6 0.3 0
0.63333333 0.3 0
0.66666667 0.3 0
0.7 0.3 0
0.73333333 0.3 0
0.76666667 0.3 0
0.8 0.3 0
0.83333333 0.3 0
0.86666667 0.3 0
0.9 0.3 0
0.93333333 0.3 0
0.96666667 0.3 0
1 0.3 0
0 0.33333333 0
0.033333333 0.33333333 0
0.066666667 0.33333333 0
0.1 0.33333333 0
0.13333333 0.33333333 0
0.16666667 0.33333333 0
0.2 0.33333333 0
0.23333333 0.33333333 0
0.26666667 0.33333333 0
0.3 0.33333333 0
0.33333333 0.33333333 0
0.36666667 0.33333333 0
0.4 0.33333333 0
0.43333333 0.33333333 0
0.46666667 0.33333333 0
0.5 0.33333333 0
0.53333333 0.33333333 0
0.56666667 0.33333333 0
0.6 0.33333333 0
0.63333333 0.33333333 0
0.66666667 0.33333333 0
0.7 0.33333333 0
0.73333333 0.33333333 0
0.76666667 0.33333333 0
0.8 0.33333333 0
0.83333333 0.33333333 0
0.86666667 0.33333333 0
0.9 0.33333333 0
0.93333333 0.33333333 0
0.96666667 0.33333333 0
1 0.33333333 0
0 0.36666667 0
0.033333333 0.36666667 0
0.066666667 0.36666667 0
0.1 0.36666667 0
0.13333333 0.36666667 0
0.16666667 0.36666667 0
0.2 0.36666667 0
0.23333333 0.36666667 0
0.26666667 0.36666667 0
0.3 0.36666667 0
0.33333333 0.36666667 0
0.36666667 0.36666667 0
0.4 0.36666667 0
0.43333333 0.36666667 0
0.46666667 0.36666667 0
0.5 0.36666667 0
0.53333333 0.36666667 0
0.56666667 0.36666667 0
0.6 0.36666667 0
0.63333333 0.36666667 0
0.66666667 0.36666667 0
0.7 0.36666667 0
0.73333333 0.36666667 0
0.76666667 0.36666667 0
0.8 0.36666667 0
0.83333333 0.36666667 0
0.86666667 0.36666667 0
0.9 0.36666667 0
0.93333333 0.36666667 0
0.96666667 0.36666667 0
1 0.36666667 0
0 0.4 0
0.033333333 0.4 0
0.066666667 0.4 0
0.1 0.4 0
0.13333333 0.4 0
0.16666667 0.4 0
0.2 0.4 0
0.23333333 0.4 0
0.26666667 0.4 0
0.3 0.4 0
0.33333333 0.4 0
0.36666667 0.4 0
0.4 0.4 0
0.43333333 0.4 0
0.46666667 0.4 0
0.5 0.4 0
0.53333333 0.4 0
0.56666667 0.4 0
0.6 0.4 0
0.63333333 0.4 0
0.66666667 0.4 0
0.7 0.4 0
0.73333333 0.4 0
0.76666667 0.4 0
0.8 0.4 0
0.83333333 0.4 0
0.86666667 0.4 0
0.9 0.4 0
0.93333333 0.4 0
0.96666667 0.4 0
1 0.4 0
0 0.43333333 0
0.033333333 0.43333333 0
0.066666667 0.43333333 0
0.1 0.43333333 0
0.13333333 0.43333333 0
0.16666667 0.43333333 0
0.2 0.43333333 0
0.23333333 0.43333333 0
0.26666667 0.43333333 0
0.3 0.43333333 0
0.33333333 0.43333333 0
0.36666667 0.43333333 0
0.4 0.43333333 0
0.43333333 0.43333333 0
0.46666667 0.43333333 0
0.5 0.43333333 0
0.53333333 0.43333333 0
0.56666667 0.43333333 0
0.6 0.43333333 0
0.63333333 0.43333333 0
0.66666667 0.43333333 0
0.7 0.43333333 0
0.73333333 0.43333333 0
0.76666667 0.43333333 0
0.8 0.43333333 0
0.83333333 0.43333333 0
0.86666667 0.43333333 0
0.9 0.43333333 0
0.93333333 0.43333333 0
0.96666667 0.43333333 0
1 0.43333333 0
0 0.46666667 0
0.033333333 0.46666667 0
0.066666667 0.46666667 0
0.1 0.46666667 0
0.13333333 0.46666667 0
0.16666667 0.46666667 0
0.2 0.46666667 0
0.23333333 0.46666667 0
0.26666667 0.46666667 0
0.3 0.46666667 0
0.33333333 0.46666667 0
0.36666667 0.46666667 0
0.4 0.46666667 0
0.43333333 0.46666667 0
0.46666667 0.46666667 0
0.5 0.46666667 0
0.53333333 0.46666667 0
0.56666667 0.46666667 0
0.6 0.46666667 0
0.63333333 0.46666667 0
0.66666667 0.46666667 0
0.7 0.46666667 0
0.73333333 0.46666667 0
0.76666667 0.46666667 0
0.8 0.46666667 0
0.83333333 0.46666667 0
0.86666667 0.46666667 0
0.9 0.46666667 0
0.93333333 0.46666667 0
0.96666667 0.46666667 0
1 0.46666667 0
0 0.5 0
0.033333333 0.5 0
0.066666667 0.5 0
0.1 0.5 0
0.13333333 0.5 0
0.16666667 0.5 0
0.2 0.5 0
0.23333333 0.5 0
0.26666667 0.5 0
0.3 0.5 0
0.33333333 0.5 0
0.36666667 0.5 0
0.4 0.5 0
0.43333333 0.5 0
0.46666667 0.5 0
0.5 0.5 0
0.53333333 0.5 0
0.56666667 0.5 0
0.6 0.5 0
0.63333333 0.5 0
0.66666667 0.5 0
0.7 0.5 0
0.73333333 0.5 0
0.76666667 0.5 0
0.8 0.5 0
0.83333333 0.5 0
0.86666667 0.5 0
0.9 0.5 0
0.93333333 0.5 0
0.96666667 0.5 0
1 0.5 0
0 0.53333333 0
0.033333333 0.53333333 0
0.066666667 0.53333333 0
0.1 0.53333333 0
0.13333333 0.53333333 0
0.16666667 0.53333333 0
0.2 0.53333333 0
0.23333333 0.53333333 0
0.26666667 0.53333333 0
0.3 0.53333333 0
0.33333333 0.53333333 0
0.36666667 0.53333333 0
0.4 0.53333333 0
0.43333333 0.53333333 0
0.46666667 0.53333333 0
0.5 0.53333333 0
0.53333333 0.53333333 0
0.56666667 0.53333333 0
0.6 0.53333333 0
0.63333333 0.53333333 0
0.66666667 0.53333333 0
0.7 0.53333333 0
0.73333333 0.53333333 0
0.76666667 0.53333333 0
0.8 0.53333333 0
[...]
CELL_DATA 1920
Scalars  Label int 1
LOOKUP_TABLE FreeFempp_table
0
0
0
0
0
0
0
0
0
0
0
0
0
0
0
0
0
0
0
0
0
0
0
0
0
0
0
0
0
0
0
0
0
0
0
0
0
0
0
0
0
0
0
0
0
0
0
0
0
0
0
0
0
0
0
0
0
0
0
0
0
0
0
0
0
0
0
0
0
0
0
0
0
0
0
0
0
0
0
0
0
0
0
0
0
0
0
0
0
0
0
0
0
0
0
0
0
0
0
0
0
0
0
0
0
0
0
0
0
0
0
0
0
0
0
0
0
0
0
0
0
0
0
0
0
0
0
0
0
0
0
0
0
0
0
0
0
0
0
0
0
0
0
0
0
0
0
0
0
0
0
0
0
0
0
0
0
0
0
0
0
0
0
0
0
0
0
0
0
0
0
0
0
0
0
0
0
0
0
0
0
0
0
0
0
0
0
0
0
0
0
0
0
0
0
0
0
0
0
0
0
0
0
0
0
0
0
0
0
0
0
0
0
0
0
0
0
0
0
0
0
0
0
0
0
0
0
0
0
0
0
0
0
0
0
0
0
0
0
0
0
0
0
0
0
0
0
0
0
0
0
0
0
0
0
0
0
0
0
0
0
0
0
0
0
0
0
0
0
0
0
0
0
0
0
0
0
0
0
0
0
0
0
0
0
0
0
0
0
0
0
0
0
0
0
0
0
0
0
0
0
0
0
0
0
0
0
0
0
0
0
0
0
0
0
0
0
0
0
0
0
0
0
0
0
0
0
0
0
0
0
0
0
0
0
0
0
0
0
0
0
0
0
0
0
0
0
0
0
0
0
0
0
0
0
0
0
0
0
0
0
0
0
0
0
0
0
0
0
0
0
0
0
0
0
0
0
0
0
0
0
0
0
0
0
0
0
0
0
0
0
0
0
0
0
0
0
0
0
0
0
0
0
0
0
0
0
0
0
0
0
0
0
0
0
0
0
0
0
0
0
0
0
0
0
0
0
0
0
0
0
0
0
0
0
0
0
0
0
0
0
0
0
0
0
0
0
0
0
0
0
0
0
0
0
0
0
0
0
0
0
0
0
0
0
0
0
0
0
0
0
0
0
0
0
0
0
0
0
0
0
0
0
0
0
0
0
0
0
0
0
0
0
0
0
0
0
0
0
0
0
0
0
0
0
0
0
0
0
0
0
0
0
0
0
0
0
0
0
0
0
0
0
0
0
0
0
0
0
0
0
0
0
0
0
0
0
0
0
0
0
0
0
0
0
0
0
0
0
0
0
0
0
0
0
0
0
0
0
0
0
0
0
0
0
0
0
0
0
0
0
0
0
0
0
0
0
0
0
0
0
0
0
0
0
0
0
0
0
0
0
0
0
0
0
0
0
0
0
0
0
0
0
0
0
0
0
0
0
0
0
0
0
0
0
0
0
0
0
0
0
0
0
0
0
0
0
0
0
0
0
0
0
0
0
0
0
0
0
0
0
0
0
0
0
0
0
0
0
0
0
0
0
0
0
0
0
0
0
0
0
0
0
0
0
0
0
0
0
0
0
0
0
0
0
0
0
0
0
0
0
0
0
0
0
0
0
0
0
0
0
0
0
0
0
0
0
0
0
0
0
0
0
0
0
0
0
0
0
0
0
0
0
0
0
0
0
0
0
0
0
0
0
0
0
0
0
0
0
0
0
0
0
0
0
0
0
0
0
0
0
0
0
0
0
0
0
0
0
0
0
0
0
0
0
0
0
0
0
0
0
0
0
0
0
0
0
0
0
0
0
0
0
0
0
0
0
0
0
0
0
0
0
0
0
0
0
0
0
0
0
0
0
0
0
0
0
0
0
0
0
0
0
0
0
0
0
0
0
0
0
0
0
0
0
0
0
0
0
0
0
0
0
0
0
0
0
0
0
0
0
0
0
0
0
0
0
0
0
0
0
0
0
0
0
0
0
0
0
0
0
0
0
0
0
0
0
0
0
0
0
0
0
0
0
0
0
0
0
0
0
0
0
0
0
0
0
0
0
0
0
0
0
0
0
0
0
0
0
0
0
0
0
0
0
0
0
0
0
0
0
0
0
0
0
0
0
0
0
0
0
0
0
0
0
0
0
0
0
0
0
0
0
0
0
0
0
0
0
0
0
0
0
0
0
0
0
0
0
0
0
0
0
0
0
0
0
0
0
0
0
0
0
0
0
0
0
0
0
0
0
0
0
0
0
0
0
0
0
0
0
0
0
0
0
0
0
0
0
0
0
0
0
0
0
0
0
0
0
0
0
0
0
0
0
0
0
0
0
0
0
0
0
0
0
0
0
0
0
0
0
0
0
0
0
0
0
0
0
0
0
0
0
0
0
0
0
0
0
0
0
0
0
0
0
0
0
0
0
0
0
0
0
0
0
0
0
0
0
0
0
0
0
0
0
0
0
0
0
0
0
0
0
0
0
0
0
0
0
0
0
0
0
0
0
0
0
0
0
0
0
0
0
0
0
0
0
0
0
0
0
0
0
0
0
0
0
0
0
0
0
0
0
0
0
0
0
0
0
0
0
0
0
0
0
0
0
0
0
0
0
0
0
0
0
0
0
0
0
0
0
0
0
0
0
0
0
0
0
0
0
0
0
0
0
0
0
0
0
0
0
0
0
0
0
0
0
0
0
0
0
0
0
0
0
0
0
0
0
0
0
0
0
0
0
0
0
0
0
0
0
0
0
0
0
0
0
0
0
0
0
0
0
0
0
0
0
0
0
0
0
0
0
0
0
0
0
0
0
0
0
0
0
0
0
0
0
0
0
0
0
0
0
0
0
0
0
0
0
0
0
0
0
0
0
0
0
0
0
0
0
0
0
0
0
0
0
0
0
0
0
0
0
0
0
0
0
0
0
0
0
0
0
0
0
0
0
0
0
0
0
0
0
0
0
0
0
0
0
0
0
0
0
0
0
0
0
0
0
0
0
0
0
0
0
0
0
0
0
0
0
0
0
0
0
0
0
0
0
0
0
0
0
0
0
0
0
0
0
0
0
0
0
0
0
0
0
0
0
0
0
0
0
0
0
0
0
0
0
0
0
0
0
0
0
0
0
0
0
0
0
0
0
0
0
0
0
0
0
0
0
0
0
0
0
0
0
0
0
0
0
0
0
0
0
0
0
0
0
0
0
0
0
0
0
0
0
0
0
0
0
0
0
0
0
0
0
0
0
0
0
0
0
0
0
0
0
0
0
0
0
0
0
0
0
0
0
0
0
0
0
0
0
0
0
0
0
0
0
0
0
0
0
0
0
0
0
0
0
0
0
0
0
0
0
0
0
0
0
0
0
0
0
0
0
0
0
0
0
0
0
0
0
0
0
0
0
0
0
0
0
0
0
0
0
0
0
0
0
0
0
0
0
0
0
0
0
0
0
0
0
0
0
0
0
0
0
0
0
0
0
0
0
0
0
0
0
0
0
0
0
0
0
0
0
0
0
0
0
0
0
0
0
0
0
0
0
0
0
0
0
0
0
0
0
0
0
0
0
0
0
0
0
0
0
0
0
0
0
0
0
0
0
0
0
0
0
0
0
0
0
0
0
0
0
0
0
0
0
0
0
0
0
0
0
0
0
0
0
0
0
0
0
0
0
0
0
0
0
0
0
0
0
0
0
0
0
0
0
0
0
0
0
0
0
0
0
0
0
0
0
0
0
0
0
0
0
0
0
0
0
0
0
0
0
0
0
0
0
0
0
0
0
0
0
0
0
0
0
0
0
0
0
0
0
0
0
0
0
0
0
0
0
0
0
0
0
0
0
0
0
0
0
0
0
0
0
0
0
0
0
0
0
0
0
0
0
0
0
0
0
0
0
0
0
0
0
0
0
0
0
0
0
0
0
0
0
0
0
0
0
0
0
0
0
0
0
0
0
0
0
0
0
0
0
0
0
0
0
0
0
0
0
0
0
0
0
0
0
0
0
0
0
0
0
0
0
0
0
0
0
0
0
0
0
0
0
0
0
0
0
0
0
0
0
0
0
0
0
0
0
0
0
0
0
0
0
0
0
0
0
0
0
0
0
0
0
0
0
0
0
0
0
0
0
0
0
0
0
0
0
0
0
0
0
0
0
0
0
0
1
1
1
1
1
1
1
1
1
1
1
1
1
1
1
1
1
1
1
1
1
1
1
1
1
1
1
1
1
1
2
2
2
2
2
2
2
2
2
2
2
2
2
2
2
2
2
2
2
2
2
2
2
2
2
2
2
2
2
2
3
3
3
3
3
3
3
3
3
3
3
3
3
3
3
3
3
3
3
3
3
3
3
3
3
3
3
3
3
3
4
4
4
4
4
4
4
4
4
4
4
4
4
4
4
4
4
4
4
4
4
4
4
4
4
4
4
4
4
4

LOOKUP_TABLE FreeFempp_table 5
1.00000000 0.00000000 0.00000000 1.00000000
1.00000000 1.00000000 0.00000000 1.00000000
1.00000000 0.00000000 1.00000000 1.00000000
0.00000000 1.00000000 0.00000000 1.00000000
0.00000000 1.00000000 1.00000000 1.00000000

POINT_DATA 961
FIELD FieldData 1
Density 1 961 float
4.25311327e-01 2.94111401e-01 1.98520169e-01 1.93343729e-01 2.98413664e-01 4.01494861e-01 3.57069224e-01 1.42373919e-01 1.10035382e-01 2.04608604e-01 3.89680177e-01 4.38654035e-01 4.57276016e-01 4.67971504e-01 4.75362986e-01 4.80895042e-01 4.85259771e-01 4.88837779e-01 4.91814494e-01 4.94243026e-01 4.96100545e-01 4.97348547e-01 4.97988999e-01 4.98096317e-01 4.97812569e-01 4.97312427e-01 4.96760488e-01 4.96283352e-01 4.95963871e-01 4.95439798e-01 5.12166321e-01 5.10125607e-03 3.54374410e-03 4.45497734e-03 4.03772341e-03 5.23560271e-02 3.62058878e-01 3.46467763e-01 1.45763397e-01 8.48240778e-02 1.15711167e-01 3.23491246e-01 3.89170259e-01 4.07344967e-01 4.19202715e-01 4.28803563e-01 4.37060297e-01 4.44346368e-01 4.50869352e-01 4.56700325e-01 4.61768270e-01 4.65897828e-01 4.68896449e-01 4.70661938e-01 4.71259892e-01 4.70929444e-01 4.70017225e-01 4.68880683e-01 4.67809081e-01 4.66982871e-01 4.66589361e-01 4.95206535e-01 5.61126275e-03 4.06891573e-03 3.63178411e-03 2.34268093e-03 2.31977087e-03 3.63258412e-03 3.74109391e-03 3.83224292e-03 3.98628972e-03 3.32749076e-03 3.62990350e-01 3.96080643e-01 4.05473799e-01 4.13931668e-01 4.22474325e-01 4.30835187e-01 4.38751101e-01 4.46100026e-01 4.52798575e-01 4.58682448e-01 4.63503569e-01 4.67018485e-01 4.69107419e-01 4.69855398e-01 4.69547838e-01 4.68586445e-01 4.67375189e-01 4.66231674e-01 4.65352714e-01 4.65021312e-01 4.94794041e-01 4.40181851e-01 3.60287577e-01 3.21811765e-01 1.11935675e-01 4.49344330e-03 4.07776516e-03 3.64310783e-03 3.83813260e-03 3.94165330e-03 2.18161475e-03 2.04917043e-03 4.08041209e-01 4.06878352e-01 4.10322517e-01 4.16827321e-01 4.24798876e-01 4.32971209e-01 4.40751553e-01 4.47938740e-01 4.54327255e-01 4.59622204e-01 4.63531226e-01 4.65905845e-01 4.66837734e-01 4.66649711e-01 4.65790212e-01 4.64696258e-01 4.63691682e-01 4.62954760e-01 4.62759644e-01 4.93684679e-01 4.36734438e-01 3.41261923e-01 2.89813340e-01 2.21576020e-01 1.94030255e-01 2.70651370e-01 3.20351332e-01 3.53832841e-01 3.80938411e-01 3.93148094e-01 2.15039705e-03 2.16270541e-03 4.11739886e-01 4.08505380e-01 4.11926210e-01 4.19019550e-01 4.27225620e-01 4.35277253e-01 4.42861080e-01 4.49722797e-01 4.55488920e-01 4.59780544e-01 4.62394238e-01 4.63425189e-01 4.63252217e-01 4.62397993e-01 4.61354077e-01 4.60458606e-01 4.59864140e-01 4.59808677e-01 4.92195964e-01 4.51083601e-01 3.63653272e-01 3.23689163e-01 2.88182169e-01 2.52166778e-01 2.82713085e-01 3.18458796e-01 3.41338128e-01 3.60805988e-01 3.74058932e-01 3.77023965e-01 2.19564582e-03 2.22234940e-03 4.10754710e-01 4.08387661e-01 4.14251626e-01 4.22334790e-01 4.30425018e-01 4.38229233e-01 4.45450753e-01 4.51602429e-01 4.56182331e-01 4.58909273e-01 4.59885210e-01 4.59570944e-01 4.58595067e-01 4.57524538e-01 4.56715524e-01 4.56283212e-01 4.56385106e-01 4.90400732e-01 4.97472823e-01 4.35332924e-01 4.10013437e-01 3.84499907e-01 3.62335503e-01 3.52250665e-01 3.51826906e-01 3.50790113e-01 3.53545785e-01 3.59004647e-01 3.55096549e-01 3.59317213e-01 2.25120713e-03 2.19075405e-03 4.08412486e-01 4.10848856e-01 4.19037819e-01 4.26864862e-01 4.34636921e-01 4.42040980e-01 4.48434591e-01 4.53150094e-01 4.55801338e-01 4.56503928e-01 4.55836862e-01 4.54575747e-01 4.53386456e-01 4.52643007e-01 4.52406436e-01 4.52694327e-01 4.88395810e-01 5.74736536e-01 5.72899163e-01 5.57430089e-01 5.27188718e-01 4.93230850e-01 4.55883354e-01 4.17352527e-01 3.81801903e-01 3.57291222e-01 3.44726294e-01 3.33566070e-01 3.19434613e-01 3.34987849e-01 2.48948997e-03 3.98021890e-03 4.13455486e-01 4.18718338e-01 4.25433993e-01 4.32700545e-01 4.39996451e-01 4.46419626e-01 4.51063603e-01 4.53390718e-01 4.53537524e-01 4.52251226e-01 4.50508296e-01 4.49099511e-01 4.48411047e-01 4.48424160e-01 4.48950619e-01 4.86296117e-01 6.21223271e-01 6.95702851e-01 6.87656879e-01 6.75350249e-01 6.56079769e-01 6.19025886e-01 5.57321846e-01 4.76535261e-01 4.00550365e-01 3.46652776e-01 3.06560010e-01 2.69225538e-01 2.43468702e-01 4.47249319e-03 2.75822892e-03 4.11114216e-01 4.22386557e-01 4.26674664e-01 4.32843804e-01 4.39664960e-01 4.45873827e-01 4.50219393e-01 4.51934844e-01 4.51187551e-01 4.48966980e-01 4.46523845e-01 4.44802314e-01 4.44184542e-01 4.44534063e-01 4.45394427e-01 4.84249443e-01 5.63464940e-01 6.30456448e-01 6.25614047e-01 6.63075507e-01 7.08408237e-01 7.33554304e-01 7.19910204e-01 6.52623534e-01 5.35967708e-01 4.14671987e-01 3.24632525e-01 2.62252420e-01 2.11802170e-01 2.14090303e-01 2.91269831e-03 4.89739049e-03 4.27097499e-01 4.30295497e-01 4.35041219e-01 4.41076368e-01 4.46904242e-01 4.50785369e-01 4.51603949e-01 4.49584365e-01 4.46076512e-01 4.42710966e-01 4.40615118e-01 4.40133780e-01 4.40956086e-01 4.42312956e-01 4.82454449e-01 4.79878366e-01 3.58510464e-01 2.83077121e-01 3.76335323e-01 5.40654898e-01 6.77115202e-01 7.34539092e-01 7.53062725e-01 7.14419067e-01 5.95318139e-01 4.44902569e-01 3.34828168e-01 2.75753647e-01 2.52475381e-01 5.24725066e-03 3.67506430e-03 4.20181513e-01 4.34213787e-01 4.38720733e-01 4.43970770e-01 4.49477226e-01 4.52862501e-01 4.52519983e-01 4.48802888e-01 4.43613499e-01 4.39114332e-01 4.36641604e-01 4.36440259e-01 4.37941462e-01 4.40055788e-01 4.81174737e-01 4.98968065e-01 2.19372243e-01 8.25024322e-02 1.33396745e-01 3.15985441e-01 5.47675788e-01 5.71958065e-01 6.31843150e-01 7.36348987e-01 7.43305922e-01 6.53976440e-01 5.19757032e-01 4.17436182e-01 3.66912782e-01 3.66066992e-01 3.52090993e-03 3.62679549e-03 4.34734941e-01 4.44040835e-01 4.48319733e-01 4.53742594e-01 4.56686437e-01 4.54864919e-01 4.48908120e-01 4.41559911e-01 4.35725570e-01 4.32955474e-01 4.33281332e-01 4.35758770e-01 4.39030737e-01 4.80738074e-01 5.60808480e-01 2.53129184e-01 2.08315160e-02 8.33693594e-02 3.63429785e-01 5.67596614e-01 3.26001227e-01 1.48607939e-01 4.56316710e-01 6.97863221e-01 7.42629170e-01 6.85650110e-01 5.95034122e-01 5.06080389e-01 4.44734722e-01 4.09215599e-01 3.83486389e-03 5.62927127e-03 4.46733832e-01 4.54871267e-01 4.60368663e-01 4.62774217e-01 4.58943933e-01 4.49967027e-01 4.39820230e-01 4.32438821e-01 4.29548979e-01 4.30771589e-01 4.34633344e-01 4.39659864e-01 4.81508553e-01 5.78229606e-01 3.17715049e-01 4.51460108e-02 6.04275949e-02 4.75403279e-01 6.38541162e-01 1.09102741e-01 4.86749485e-02 1.50558233e-01 4.19378877e-01 6.89899087e-01 7.21616864e-01 6.85334623e-01 6.28980815e-01 5.57194591e-01 4.86774176e-01 4.89966990e-03 3.22240125e-03 4.24307466e-01 4.59170729e-01 4.69317168e-01 4.71695781e-01 4.65101808e-01 4.52002883e-01 4.38153446e-01 4.28956479e-01 4.26227957e-01 4.28845465e-01 4.34626102e-01 4.42280591e-01 4.83824760e-01 5.67277312e-01 3.73917669e-01 6.05444573e-02 5.75712509e-02 3.73363137e-01 6.47238672e-01 4.89899442e-02 5.43526597e-02 1.04792014e-01 2.74197757e-01 5.44549167e-01 6.86199844e-01 6.92371011e-01 6.72987938e-01 6.36418581e-01 5.84531128e-01 4.97244209e-01 2.83271028e-03 3.38380691e-03 4.48065430e-01 4.79122609e-01 4.84181225e-01 4.74087596e-01 4.55231071e-01 4.36225325e-01 4.24682945e-01 4.22448069e-01 4.27077770e-01 4.35457557e-01 4.46996331e-01 4.87914115e-01 5.53553104e-01 4.15636867e-01 8.62694830e-02 5.21749072e-02 1.73553839e-01 6.79016650e-01 1.55485302e-01 3.86196263e-02 2.54263692e-02 1.75086930e-01 4.30672079e-01 6.18211985e-01 6.64752603e-01 6.68737113e-01 6.62564218e-01 6.41063273e-01 5.95595002e-01 4.68562841e-01 4.09083441e-03 5.64231537e-03 4.72963035e-01 5.03642678e-01 4.88133043e-01 4.61036056e-01 4.34038132e-01 4.18589115e-01 4.17003632e-01 4.24412638e-01 4.36306447e-01 4.53511029e-01 4.93813902e-01 5.40321231e-01 4.39054400e-01 1.67679891e-01 5.48763759e-02 8.06073993e-02 4.77149814e-01 5.76180875e-01 9.79344398e-02 1.97853353e-02 2.57499609e-02 3.43967974e-01 5.37865639e-01 6.24045968e-01 6.44050896e-01 6.55453503e-01 6.60921574e-01 6.50483012e-01 6.01813674e-01 1.01229899e-01 7.05814688e-03 1.20722251e-02 5.16377330e-01 5.16598284e-01 4.74092036e-01 4.32885408e-01 4.08836633e-01 4.07228231e-01 4.18693513e-01 4.35629398e-01 4.61009324e-01 5.01334906e-01 5.27550578e-01 4.46454823e-01 2.83070862e-01 7.68932700e-02 5.94011992e-02 2.34905973e-01 5.31029284e-01 6.30340815e-01 1.69806536e-02 1.08051905e-02 7.83178732e-02 4.50064987e-01 5.75830340e-01 6.13702416e-01 6.32252038e-01 6.51988745e-01 6.66964233e-01 6.65433288e-01 5.74214637e-01 1.03864549e-02 7.32129114e-03 3.72058630e-01 5.45372486e-01 5.07405221e-01 4.38082248e-01 3.92929733e-01 3.87218893e-01 4.05779600e-01 4.31068540e-01 4.68146235e-01 5.10075986e-01 5.15344977e-01 4.44141567e-01 3.47495347e-01 1.64372012e-01 6.81659132e-02 1.10167593e-01 3.11155885e-01 5.34029007e-01 6.46215141e-01 9.04992316e-03 7.91462511e-03 2.96409190e-01 5.11825025e-01 5.79418004e-01 6.05339348e-01 6.28725767e-01 6.58015370e-01 6.82781160e-01 6.74132705e-01 4.73055899e-01 7.60734081e-03 1.04340352e-02 4.97090518e-01 5.56368172e-01 4.68009323e-01 3.74913871e-01 3.47264349e-01 3.77643585e-01 4.19278920e-01 4.73104089e-01 5.19410968e-01 5.04016280e-01 4.37678546e-01 3.69913012e-01 2.71708101e-01 1.32087544e-01 1.07261099e-01 1.88326895e-01 3.43116045e-01 5.43801665e-01 6.16072595e-01 6.63132733e-03 5.41087706e-03 4.25356090e-01 5.29522300e-01 5.74470282e-01 6.00387394e-01 6.33144736e-01 6.75343752e-01 7.05208957e-01 6.65086329e-01 2.99905896e-01 1.22654019e-02 1.36847496e-02 5.57015061e-01 5.59764087e-01 3.86629105e-01 2.93297559e-01 3.21909487e-01 3.94477099e-01 4.73329782e-01 5.28221726e-01 4.94355142e-01 4.31323618e-01 3.78867209e-01 3.23524743e-01 2.39078686e-01 1.65086240e-01 1.92669705e-01 2.82709479e-01 4.14091259e-01 5.55552840e-01 5.83566666e-01 4.90483874e-03 5.04678488e-03 4.62860733e-01 5.33902824e-01 5.67760706e-01 6.00120306e-01 6.47644460e-01 7.04368293e-01 7.29873240e-01 6.05463564e-01 8.54829997e-02 1.49922175e-02 2.00113095e-02 6.08205318e-01 5.21050930e-01 2.76342332e-01 2.48089045e-01 3.46540600e-01 4.64169890e-01 5.34021378e-01 4.87446040e-01 4.28116143e-01 3.87944520e-01 3.52609724e-01 3.10783654e-01 2.63688743e-01 2.61213273e-01 3.15837264e-01 3.89770210e-01 4.65652496e-01 5.45769036e-01 5.48883140e-01 4.74624475e-03 4.21087863e-03 4.72762346e-01 5.27689338e-01 5.60425103e-01 6.05261862e-01 6.73377514e-01 7.45761573e-01 7.52708733e-01 3.97679120e-01 3.23099568e-02 2.79973466e-02 5.83934672e-02 6.32721841e-01 3.58183622e-01 2.10200161e-01 2.78366804e-01 4.38784420e-01 5.31401098e-01 4.83940363e-01 4.29346353e-01 4.00662780e-01 3.78374994e-01 3.56888413e-01 3.37306768e-01 3.35171223e-01 3.63661855e-01 4.01793242e-01 4.38708097e-01 4.78015095e-01 5.24332762e-01 5.15885711e-01 3.85006052e-03 3.71884066e-03 4.66955721e-01 5.08225143e-01 5.47420681e-01 6.09053850e-01 7.05675542e-01 7.93464124e-01 7.30245888e-01 2.02476740e-01 5.07336259e-02 5.82913086e-02 1.16241015e-01 4.57019746e-01 2.31924951e-01 2.41750464e-01 4.07668561e-01 5.15195131e-01 4.83331442e-01 4.34177488e-01 4.15611118e-01 4.02049780e-01 3.90338123e-01 3.81941110e-01 3.81879508e-01 3.94427985e-01 4.12690431e-01 4.31417257e-01 4.50903416e-01 4.73892123e-01 5.00030637e-01 4.87952977e-01 3.65178031e-03 3.49691883e-03 4.40720946e-01 4.65143651e-01 5.04359424e-01 5.78995824e-01 7.16905951e-01 8.20680022e-01 7.37662256e-01 1.58756256e-01 5.29416353e-02 2.44839713e-01 4.82150465e-01 3.63259137e-01 3.16742271e-01 4.35704201e-01 5.02916694e-01 4.83958423e-01 4.40013319e-01 4.29309040e-01 4.20702130e-01 4.13179576e-01 4.08021122e-01 4.07033831e-01 4.11462814e-01 4.19466466e-01 4.29012150e-01 4.39544410e-01 4.50968385e-01 4.64190155e-01 4.78072047e-01 4.67284173e-01 3.25614307e-03 3.05026257e-03 3.94804955e-01 3.84810805e-01 3.92901719e-01 4.49207991e-01 6.27536833e-01 8.08411956e-01 8.02776575e-01 5.96023917e-01 6.19404256e-01 6.48009360e-01 5.67505419e-01 5.21303713e-01 5.64619660e-01 5.35139680e-01 4.83658463e-01 4.43349153e-01 4.37909514e-01 4.31716740e-01 4.25935030e-01 4.21628237e-01 4.19701815e-01 4.20621932e-01 4.23932999e-01 4.28814858e-01 4.34488714e-01 4.40348476e-01 4.46515292e-01 4.53703403e-01 4.61797446e-01 4.54689294e-01 2.95310095e-03 2.91483663e-03 3.11226815e-01 2.58563280e-01 2.50205666e-01 3.02710712e-01 4.66600269e-01 6.95272148e-01 7.84599066e-01 7.73359537e-01 7.46344268e-01 7.07023919e-01 6.80474043e-01 6.88338518e-01 5.99166453e-01 4.80599821e-01 4.40842897e-01 4.38232362e-01 4.33387220e-01 4.28900093e-01 4.25716013e-01 4.24330086e-01 4.24802989e-01 4.26744759e-01 4.29565132e-01 4.32619482e-01 4.35461402e-01 4.38074619e-01 4.40941066e-01 4.45089966e-01 4.51466262e-01 4.48738724e-01 2.75776163e-03 2.53309892e-03 1.89449579e-01 1.72801897e-01 2.27007553e-01 2.85419255e-01 3.96843314e-01 5.64037800e-01 6.73689663e-01 7.06979394e-01 7.07925081e-01 7.03785777e-01 7.07154036e-01 6.25365376e-01 4.74047214e-01 4.30561125e-01 4.28459942e-01 4.24752235e-01 4.21917170e-01 4.20893669e-01 4.21813488e-01 4.24158126e-01 4.27110493e-01 4.29937690e-01 4.32173163e-01 4.33649629e-01 4.34502125e-01 4.35133666e-01 4.36234862e-01 4.38954800e-01 4.45150524e-01 4.46407557e-01 2.39897426e-03 2.54414370e-03 1.83133274e-01 2.41950884e-01 2.81711072e-01 3.07850033e-01 3.86133075e-01 4.83655572e-01 5.52837789e-01 5.90648174e-01 6.11039937e-01 6.17796183e-01 5.88284671e-01 4.64711010e-01 4.13484335e-01 4.09400433e-01 4.06675667e-01 4.05579209e-01 4.07118320e-01 4.11242276e-01 4.16971326e-01 4.22940344e-01 4.28018063e-01 4.31615531e-01 4.33657944e-01 4.34407383e-01 4.34294432e-01 4.33845699e-01 4.33744371e-01 4.35186893e-01 4.40704376e-01 4.43217725e-01 2.65521556e-03 2.37185508e-03 3.35873008e-01 3.20774138e-01 3.07948709e-01 3.35571587e-01 3.88124049e-01 4.33749288e-01 4.65897828e-01 4.88074601e-01 5.00668347e-01 5.28211534e-01 4.50445056e-01 3.87744606e-01 3.78994733e-01 3.76615018e-01 3.76747042e-01 3.80361736e-01 3.87770295e-01 3.98114592e-01 4.09714222e-01 4.20770019e-01 4.29929197e-01 4.36488122e-01 4.40325737e-01 4.41734403e-01 4.41261977e-01 4.39597428e-01 4.37533468e-01 4.36133623e-01 4.37242091e-01 4.40315783e-01 2.15319265e-03 3.18030850e-03 3.82011980e-01 3.42094660e-01 3.29583049e-01 3.42360854e-01 3.62015754e-01 3.79449278e-01 3.92871350e-01 4.06773359e-01 4.81226712e-01 4.92013514e-01 4.35573131e-01 4.22356486e-01 4.20046628e-01 4.20210123e-01 4.23215061e-01 4.29699272e-01 4.39264655e-01 4.50587511e-01 4.62013602e-01 4.72145915e-01 4.80116934e-01 4.85582560e-01 4.88600999e-01 4.89502102e-01 4.88764197e-01 4.86870140e-01 4.84144092e-01 4.80731010e-01 4.84309912e-01 5.04874764e-03 3.92432092e-03 4.48386431e-01 4.40228373e-01 4.10658032e-01 3.95872325e-01 3.97436947e-01 4.07182693e-01 4.17246848e-01 4.25334007e-01 4.66239452e-01 
