# vtk DataFile Version 2.0
results/6_density.vtk, Created by Freefem++ 
ASCII
DATASET UNSTRUCTURED_GRID
POINTS 961 float
0 0 0
0.033333333 0 0
0.066666667 0 0
0.1 0 0
0.13333333 0 0
0.16666667 0 0
0.2 0 0
0.23333333 0 0
0.26666667 0 0
0.3 0 0
0.33333333 0 0
0.36666667 0 0
0.4 0 0
0.43333333 0 0
0.46666667 0 0
0.5 0 0
0.53333333 0 0
0.56666667 0 0
0.6 0 0
0.63333333 0 0
0.66666667 0 0
0.7 0 0
0.73333333 0 0
0.76666667 0 0
0.8 0 0
0.83333333 0 0
0.86666667 0 0
0.9 0 0
0.93333333 0 0
0.96666667 0 0
1 0 0
0 0.033333333 0
0.033333333 0.033333333 0
0.066666667 0.033333333 0
0.1 0.033333333 0
0.13333333 0.033333333 0
0.16666667 0.033333333 0
0.2 0.033333333 0
0.23333333 0.033333333 0
0.26666667 0.033333333 0
0.3 0.033333333 0
0.33333333 0.033333333 0
0.36666667 0.033333333 0
0.4 0.033333333 0
0.43333333 0.033333333 0
0.46666667 0.033333333 0
0.5 0.033333333 0
0.53333333 0.033333333 0
0.56666667 0.033333333 0
0.6 0.033333333 0
0.63333333 0.033333333 0
0.66666667 0.033333333 0
0.7 0.033333333 0
0.73333333 0.033333333 0
0.76666667 0.033333333 0
0.8 0.033333333 0
0.83333333 0.033333333 0
0.86666667 0.033333333 0
0.9 0.033333333 0
0.93333333 0.033333333 0
0.96666667 0.033333333 0
1 0.033333333 0
0 0.066666667 0
0.033333333 0.066666667 0
0.066666667 0.066666667 0
0.1 0.066666667 0
0.13333333 0.066666667 0
0.16666667 0.066666667 0
0.2 0.066666667 0
0.23333333 0.066666667 0
0.26666667 0.066666667 0
0.3 0.066666667 0
0.33333333 0.066666667 0
0.36666667 0.066666667 0
0.4 0.066666667 0
0.43333333 0.066666667 0
0.46666667 0.066666667 0
0.5 0.066666667 0
0.53333333 0.066666667 0
0.56666667 0.066666667 0
0.6 0.066666667 0
0.63333333 0.066666667 0
0.66666667 0.066666667 0
0.7 0.066666667 0
0.73333333 0.066666667 0
0.76666667 0.066666667 0
0.8 0.066666667 0
0.83333333 0.066666667 0
0.86666667 0.066666667 0
0.9 0.066666667 0
0.93333333 0.066666667 0
0.96666667 0.066666667 0
1 0.066666667 0
0 0.1 0
0.033333333 0.1 0
0.066666667 0.1 0
0.1 0.1 0
0.13333333 0.1 0
0.16666667 0.1 0
0.2 0.1 0
0.23333333 0.1 0
0.26666667 0.1 0
0.3 0.1 0
0.33333333 0.1 0
0.36666667 0.1 0
0.4 0.1 0
0.43333333 0.1 0
0.46666667 0.1 0
0.5 0.1 0
0.53333333 0.1 0
0.56666667 0.1 0
0.6 0.1 0
0.63333333 0.1 0
0.66666667 0.1 0
0.7 0.1 0
0.73333333 0.1 0
0.76666667 0.1 0
0.8 0.1 0
0.83333333 0.1 0
0.86666667 0.1 0
0.9 0.1 0
0.93333333 0.1 0
0.96666667 0.1 0
1 0.1 0
0 0.13333333 0
0.033333333 0.13333333 0
0.066666667 0.13333333 0
0.1 0.13333333 0
0.13333333 0.13333333 0
0.16666667 0.13333333 0
0.2 0.13333333 0
0.23333333 0.13333333 0
0.26666667 0.13333333 0
0.3 0.13333333 0
0.33333333 0.13333333 0
0.36666667 0.13333333 0
0.4 0.13333333 0
0.43333333 0.13333333 0
0.46666667 0.13333333 0
0.5 0.13333333 0
0.53333333 0.13333333 0
0.56666667 0.13333333 0
0.6 0.13333333 0
0.63333333 0.13333333 0
0.66666667 0.13333333 0
0.7 0.13333333 0
0.73333333 0.13333333 0
0.76666667 0.13333333 0
0.8 0.13333333 0
0.83333333 0.13333333 0
0.86666667 0.13333333 0
0.9 0.13333333 0
0.93333333 0.13333333 0
0.96666667 0.13333333 0
1 0.13333333 0
0 0.16666667 0
0.033333333 0.16666667 0
0.066666667 0.16666667 0
0.1 0.16666667 0
0.13333333 0.16666667 0
0.16666667 0.16666667 0
0.2 0.16666667 0
0.23333333 0.16666667 0
0.26666667 0.16666667 0
0.3 0.16666667 0
0.33333333 0.16666667 0
0.36666667 0.16666667 0
0.4 0.16666667 0
0.43333333 0.16666667 0
0.46666667 0.16666667 0
0.5 0.16666667 0
0.53333333 0.16666667 0
0.56666667 0.16666667 0
0.6 0.16666667 0
0.63333333 0.16666667 0
0.66666667 0.16666667 0
0.7 0.16666667 0
0.73333333 0.16666667 0
0.76666667 0.16666667 0
0.8 0.16666667 0
0.83333333 0.16666667 0
0.86666667 0.16666667 0
0.9 0.16666667 0
0.93333333 0.16666667 0
0.96666667 0.16666667 0
1 0.16666667 0
0 0.2 0
0.033333333 0.2 0
0.066666667 0.2 0
0.1 0.2 0
0.13333333 0.2 0
0.16666667 0.2 0
0.2 0.2 0
0.23333333 0.2 0
0.26666667 0.2 0
0.3 0.2 0
0.33333333 0.2 0
0.36666667 0.2 0
0.4 0.2 0
0.43333333 0.2 0
0.46666667 0.2 0
0.5 0.2 0
0.53333333 0.2 0
0.56666667 0.2 0
0.6 0.2 0
0.63333333 0.2 0
0.66666667 0.2 0
0.7 0.2 0
0.73333333 0.2 0
0.76666667 0.2 0
0.8 0.2 0
0.83333333 0.2 0
0.86666667 0.2 0
0.9 0.2 0
0.93333333 0.2 0
0.96666667 0.2 0
1 0.2 0
0 0.23333333 0
0.033333333 0.23333333 0
0.066666667 0.23333333 0
0.1 0.23333333 0
0.13333333 0.23333333 0
0.16666667 0.23333333 0
0.2 0.23333333 0
0.23333333 0.23333333 0
0.26666667 0.23333333 0
0.3 0.23333333 0
0.33333333 0.23333333 0
0.36666667 0.23333333 0
0.4 0.23333333 0
0.43333333 0.23333333 0
0.46666667 0.23333333 0
0.5 0.23333333 0
0.53333333 0.23333333 0
0.56666667 0.23333333 0
0.6 0.23333333 0
0.63333333 0.23333333 0
0.66666667 0.23333333 0
0.7 0.23333333 0
0.73333333 0.23333333 0
0.76666667 0.23333333 0
0.8 0.23333333 0
0.83333333 0.23333333 0
0.86666667 0.23333333 0
0.9 0.23333333 0
0.93333333 0.23333333 0
0.96666667 0.23333333 0
1 0.23333333 0
0 0.26666667 0
0.033333333 0.26666667 0
0.066666667 0.26666667 0
0.1 0.26666667 0
0.13333333 0.26666667 0
0.16666667 0.26666667 0
0.2 0.26666667 0
0.23333333 0.26666667 0
0.26666667 0.26666667 0
0.3 0.26666667 0
0.33333333 0.26666667 0
0.36666667 0.26666667 0
0.4 0.26666667 0
0.43333333 0.26666667 0
0.46666667 0.26666667 0
0.5 0.26666667 0
0.53333333 0.26666667 0
0.56666667 0.26666667 0
0.6 0.26666667 0
0.63333333 0.26666667 0
0.66666667 0.26666667 0
0.7 0.26666667 0
0.73333333 0.26666667 0
0.76666667 0.26666667 0
0.8 0.26666667 0
0.83333333 0.26666667 0
0.86666667 0.26666667 0
0.9 0.26666667 0
0.93333333 0.26666667 0
0.96666667 0.26666667 0
1 0.26666667 0
0 0.3 0
0.033333333 0.3 0
0.066666667 0.3 0
0.1 0.3 0
0.13333333 0.3 0
0.16666667 0.3 0
0.2 0.3 0
0.23333333 0.3 0
0.26666667 0.3 0
0.3 0.3 0
0.33333333 0.3 0
0.36666667 0.3 0
0.4 0.3 0
0.43333333 0.3 0
0.46666667 0.3 0
0.5 0.3 0
0.53333333 0.3 0
0.56666667 0.3 0
0.6 0.3 0
0.63333333 0.3 0
0.66666667 0.3 0
0.7 0.3 0
0.73333333 0.3 0
0.76666667 0.3 0
0.8 0.3 0
0.83333333 0.3 0
0.86666667 0.3 0
0.9 0.3 0
0.93333333 0.3 0
0.96666667 0.3 0
1 0.3 0
0 0.33333333 0
0.033333333 0.33333333 0
0.066666667 0.33333333 0
0.1 0.33333333 0
0.13333333 0.33333333 0
0.16666667 0.33333333 0
0.2 0.33333333 0
0.23333333 0.33333333 0
0.26666667 0.33333333 0
0.3 0.33333333 0
0.33333333 0.33333333 0
0.36666667 0.33333333 0
0.4 0.33333333 0
0.43333333 0.33333333 0
0.46666667 0.33333333 0
0.5 0.33333333 0
0.53333333 0.33333333 0
0.56666667 0.33333333 0
0.6 0.33333333 0
0.63333333 0.33333333 0
0.66666667 0.33333333 0
0.7 0.33333333 0
0.73333333 0.33333333 0
0.76666667 0.33333333 0
0.8 0.33333333 0
0.83333333 0.33333333 0
0.86666667 0.33333333 0
0.9 0.33333333 0
0.93333333 0.33333333 0
0.96666667 0.33333333 0
1 0.33333333 0
0 0.36666667 0
0.033333333 0.36666667 0
0.066666667 0.36666667 0
0.1 0.36666667 0
0.13333333 0.36666667 0
0.16666667 0.36666667 0
0.2 0.36666667 0
0.23333333 0.36666667 0
0.26666667 0.36666667 0
0.3 0.36666667 0
0.33333333 0.36666667 0
0.36666667 0.36666667 0
0.4 0.36666667 0
0.43333333 0.36666667 0
0.46666667 0.36666667 0
0.5 0.36666667 0
0.53333333 0.36666667 0
0.56666667 0.36666667 0
0.6 0.36666667 0
0.63333333 0.36666667 0
0.66666667 0.36666667 0
0.7 0.36666667 0
0.73333333 0.36666667 0
0.76666667 0.36666667 0
0.8 0.36666667 0
0.83333333 0.36666667 0
0.86666667 0.36666667 0
0.9 0.36666667 0
0.93333333 0.36666667 0
0.96666667 0.36666667 0
1 0.36666667 0
0 0.4 0
0.033333333 0.4 0
0.066666667 0.4 0
0.1 0.4 0
0.13333333 0.4 0
0.16666667 0.4 0
0.2 0.4 0
0.23333333 0.4 0
0.26666667 0.4 0
0.3 0.4 0
0.33333333 0.4 0
0.36666667 0.4 0
0.4 0.4 0
0.43333333 0.4 0
0.46666667 0.4 0
0.5 0.4 0
0.53333333 0.4 0
0.56666667 0.4 0
0.6 0.4 0
0.63333333 0.4 0
0.66666667 0.4 0
0.7 0.4 0
0.73333333 0.4 0
0.76666667 0.4 0
0.8 0.4 0
0.83333333 0.4 0
0.86666667 0.4 0
0.9 0.4 0
0.93333333 0.4 0
0.96666667 0.4 0
1 0.4 0
0 0.43333333 0
0.033333333 0.43333333 0
0.066666667 0.43333333 0
0.1 0.43333333 0
0.13333333 0.43333333 0
0.16666667 0.43333333 0
0.2 0.43333333 0
0.23333333 0.43333333 0
0.26666667 0.43333333 0
0.3 0.43333333 0
0.33333333 0.43333333 0
0.36666667 0.43333333 0
0.4 0.43333333 0
0.43333333 0.43333333 0
0.46666667 0.43333333 0
0.5 0.43333333 0
0.53333333 0.43333333 0
0.56666667 0.43333333 0
0.6 0.43333333 0
0.63333333 0.43333333 0
0.66666667 0.43333333 0
0.7 0.43333333 0
0.73333333 0.43333333 0
0.76666667 0.43333333 0
0.8 0.43333333 0
0.83333333 0.43333333 0
0.86666667 0.43333333 0
0.9 0.43333333 0
0.93333333 0.43333333 0
0.96666667 0.43333333 0
1 0.43333333 0
0 0.46666667 0
0.033333333 0.46666667 0
0.066666667 0.46666667 0
0.1 0.46666667 0
0.13333333 0.46666667 0
0.16666667 0.46666667 0
0.2 0.46666667 0
0.23333333 0.46666667 0
0.26666667 0.46666667 0
0.3 0.46666667 0
0.33333333 0.46666667 0
0.36666667 0.46666667 0
0.4 0.46666667 0
0.43333333 0.46666667 0
0.46666667 0.46666667 0
0.5 0.46666667 0
0.53333333 0.46666667 0
0.56666667 0.46666667 0
0.6 0.46666667 0
0.63333333 0.46666667 0
0.66666667 0.46666667 0
0.7 0.46666667 0
0.73333333 0.46666667 0
0.76666667 0.46666667 0
0.8 0.46666667 0
0.83333333 0.46666667 0
0.86666667 0.46666667 0
0.9 0.46666667 0
0.93333333 0.46666667 0
0.96666667 0.46666667 0
1 0.46666667 0
0 0.5 0
0.033333333 0.5 0
0.066666667 0.5 0
0.1 0.5 0
0.13333333 0.5 0
0.16666667 0.5 0
0.2 0.5 0
0.23333333 0.5 0
0.26666667 0.5 0
0.3 0.5 0
0.33333333 0.5 0
0.36666667 0.5 0
0.4 0.5 0
0.43333333 0.5 0
0.46666667 0.5 0
0.5 0.5 0
0.53333333 0.5 0
0.56666667 0.5 0
0.6 0.5 0
0.63333333 0.5 0
0.66666667 0.5 0
0.7 0.5 0
0.73333333 0.5 0
0.76666667 0.5 0
0.8 0.5 0
0.83333333 0.5 0
0.86666667 0.5 0
0.9 0.5 0
0.93333333 0.5 0
0.96666667 0.5 0
1 0.5 0
0 0.53333333 0
0.033333333 0.53333333 0
0.066666667 0.53333333 0
0.1 0.53333333 0
0.13333333 0.53333333 0
0.16666667 0.53333333 0
0.2 0.53333333 0
0.23333333 0.53333333 0
0.26666667 0.53333333 0
0.3 0.53333333 0
0.33333333 0.53333333 0
0.36666667 0.53333333 0
0.4 0.53333333 0
0.43333333 0.53333333 0
0.46666667 0.53333333 0
0.5 0.53333333 0
0.53333333 0.53333333 0
0.56666667 0.53333333 0
0.6 0.53333333 0
0.63333333 0.53333333 0
0.66666667 0.53333333 0
0.7 0.53333333 0
0.73333333 0.53333333 0
0.76666667 0.53333333 0
0.8 0.53333333 0
[...]
CELL_DATA 1920
Scalars  Label int 1
LOOKUP_TABLE FreeFempp_table
0
0
0
0
0
0
0
0
0
0
0
0
0
0
0
0
0
0
0
0
0
0
0
0
0
0
0
0
0
0
0
0
0
0
0
0
0
0
0
0
0
0
0
0
0
0
0
0
0
0
0
0
0
0
0
0
0
0
0
0
0
0
0
0
0
0
0
0
0
0
0
0
0
0
0
0
0
0
0
0
0
0
0
0
0
0
0
0
0
0
0
0
0
0
0
0
0
0
0
0
0
0
0
0
0
0
0
0
0
0
0
0
0
0
0
0
0
0
0
0
0
0
0
0
0
0
0
0
0
0
0
0
0
0
0
0
0
0
0
0
0
0
0
0
0
0
0
0
0
0
0
0
0
0
0
0
0
0
0
0
0
0
0
0
0
0
0
0
0
0
0
0
0
0
0
0
0
0
0
0
0
0
0
0
0
0
0
0
0
0
0
0
0
0
0
0
0
0
0
0
0
0
0
0
0
0
0
0
0
0
0
0
0
0
0
0
0
0
0
0
0
0
0
0
0
0
0
0
0
0
0
0
0
0
0
0
0
0
0
0
0
0
0
0
0
0
0
0
0
0
0
0
0
0
0
0
0
0
0
0
0
0
0
0
0
0
0
0
0
0
0
0
0
0
0
0
0
0
0
0
0
0
0
0
0
0
0
0
0
0
0
0
0
0
0
0
0
0
0
0
0
0
0
0
0
0
0
0
0
0
0
0
0
0
0
0
0
0
0
0
0
0
0
0
0
0
0
0
0
0
0
0
0
0
0
0
0
0
0
0
0
0
0
0
0
0
0
0
0
0
0
0
0
0
0
0
0
0
0
0
0
0
0
0
0
0
0
0
0
0
0
0
0
0
0
0
0
0
0
0
0
0
0
0
0
0
0
0
0
0
0
0
0
0
0
0
0
0
0
0
0
0
0
0
0
0
0
0
0
0
0
0
0
0
0
0
0
0
0
0
0
0
0
0
0
0
0
0
0
0
0
0
0
0
0
0
0
0
0
0
0
0
0
0
0
0
0
0
0
0
0
0
0
0
0
0
0
0
0
0
0
0
0
0
0
0
0
0
0
0
0
0
0
0
0
0
0
0
0
0
0
0
0
0
0
0
0
0
0
0
0
0
0
0
0
0
0
0
0
0
0
0
0
0
0
0
0
0
0
0
0
0
0
0
0
0
0
0
0
0
0
0
0
0
0
0
0
0
0
0
0
0
0
0
0
0
0
0
0
0
0
0
0
0
0
0
0
0
0
0
0
0
0
0
0
0
0
0
0
0
0
0
0
0
0
0
0
0
0
0
0
0
0
0
0
0
0
0
0
0
0
0
0
0
0
0
0
0
0
0
0
0
0
0
0
0
0
0
0
0
0
0
0
0
0
0
0
0
0
0
0
0
0
0
0
0
0
0
0
0
0
0
0
0
0
0
0
0
0
0
0
0
0
0
0
0
0
0
0
0
0
0
0
0
0
0
0
0
0
0
0
0
0
0
0
0
0
0
0
0
0
0
0
0
0
0
0
0
0
0
0
0
0
0
0
0
0
0
0
0
0
0
0
0
0
0
0
0
0
0
0
0
0
0
0
0
0
0
0
0
0
0
0
0
0
0
0
0
0
0
0
0
0
0
0
0
0
0
0
0
0
0
0
0
0
0
0
0
0
0
0
0
0
0
0
0
0
0
0
0
0
0
0
0
0
0
0
0
0
0
0
0
0
0
0
0
0
0
0
0
0
0
0
0
0
0
0
0
0
0
0
0
0
0
0
0
0
0
0
0
0
0
0
0
0
0
0
0
0
0
0
0
0
0
0
0
0
0
0
0
0
0
0
0
0
0
0
0
0
0
0
0
0
0
0
0
0
0
0
0
0
0
0
0
0
0
0
0
0
0
0
0
0
0
0
0
0
0
0
0
0
0
0
0
0
0
0
0
0
0
0
0
0
0
0
0
0
0
0
0
0
0
0
0
0
0
0
0
0
0
0
0
0
0
0
0
0
0
0
0
0
0
0
0
0
0
0
0
0
0
0
0
0
0
0
0
0
0
0
0
0
0
0
0
0
0
0
0
0
0
0
0
0
0
0
0
0
0
0
0
0
0
0
0
0
0
0
0
0
0
0
0
0
0
0
0
0
0
0
0
0
0
0
0
0
0
0
0
0
0
0
0
0
0
0
0
0
0
0
0
0
0
0
0
0
0
0
0
0
0
0
0
0
0
0
0
0
0
0
0
0
0
0
0
0
0
0
0
0
0
0
0
0
0
0
0
0
0
0
0
0
0
0
0
0
0
0
0
0
0
0
0
0
0
0
0
0
0
0
0
0
0
0
0
0
0
0
0
0
0
0
0
0
0
0
0
0
0
0
0
0
0
0
0
0
0
0
0
0
0
0
0
0
0
0
0
0
0
0
0
0
0
0
0
0
0
0
0
0
0
0
0
0
0
0
0
0
0
0
0
0
0
0
0
0
0
0
0
0
0
0
0
0
0
0
0
0
0
0
0
0
0
0
0
0
0
0
0
0
0
0
0
0
0
0
0
0
0
0
0
0
0
0
0
0
0
0
0
0
0
0
0
0
0
0
0
0
0
0
0
0
0
0
0
0
0
0
0
0
0
0
0
0
0
0
0
0
0
0
0
0
0
0
0
0
0
0
0
0
0
0
0
0
0
0
0
0
0
0
0
0
0
0
0
0
0
0
0
0
0
0
0
0
0
0
0
0
0
0
0
0
0
0
0
0
0
0
0
0
0
0
0
0
0
0
0
0
0
0
0
0
0
0
0
0
0
0
0
0
0
0
0
0
0
0
0
0
0
0
0
0
0
0
0
0
0
0
0
0
0
0
0
0
0
0
0
0
0
0
0
0
0
0
0
0
0
0
0
0
0
0
0
0
0
0
0
0
0
0
0
0
0
0
0
0
0
0
0
0
0
0
0
0
0
0
0
0
0
0
0
0
0
0
0
0
0
0
0
0
0
0
0
0
0
0
0
0
0
0
0
0
0
0
0
0
0
0
0
0
0
0
0
0
0
0
0
0
0
0
0
0
0
0
0
0
0
0
0
0
0
0
0
0
0
0
0
0
0
0
0
0
0
0
0
0
0
0
0
0
0
0
0
0
0
0
0
0
0
0
0
0
0
0
0
0
0
0
0
0
0
0
0
0
0
0
0
0
0
0
0
0
0
0
0
0
0
0
0
0
0
0
0
0
0
0
0
0
0
0
0
0
0
0
0
0
0
0
0
0
0
0
0
0
0
0
0
0
0
0
0
0
0
0
0
0
0
0
0
0
0
0
0
0
0
0
0
0
0
0
0
0
0
0
0
0
0
0
0
0
0
0
0
0
0
0
0
0
0
0
0
0
0
0
0
0
0
0
0
0
0
0
0
0
0
0
0
0
0
0
0
0
0
0
0
0
0
0
0
0
0
0
0
0
0
0
0
0
0
0
0
0
0
0
0
0
0
0
0
0
0
0
0
0
0
0
0
0
0
0
0
0
0
0
0
0
0
0
0
0
0
0
0
0
0
0
0
0
0
0
0
0
0
0
0
0
0
0
0
0
0
0
0
0
0
0
0
0
0
0
0
0
0
0
0
0
0
0
0
0
0
0
0
0
0
0
0
0
0
0
0
0
0
0
0
0
0
0
0
0
0
0
0
0
0
0
0
0
0
0
0
0
0
0
0
0
0
0
0
0
0
0
0
0
0
0
0
0
0
0
0
0
0
0
0
0
0
0
0
0
0
0
0
0
0
0
0
0
0
0
0
0
0
0
0
0
0
0
0
0
0
0
0
0
0
0
0
0
0
0
0
0
0
0
0
0
0
0
0
0
0
0
0
0
0
0
0
0
0
0
0
0
0
0
0
0
0
0
0
0
0
0
0
0
0
0
0
0
0
0
0
0
0
0
0
0
0
0
0
0
0
0
0
0
0
0
0
0
0
0
0
0
0
0
0
0
0
0
0
0
0
0
0
0
0
0
0
0
0
0
0
0
0
0
0
0
0
0
0
0
0
0
0
0
0
0
0
0
0
0
0
0
0
0
0
0
0
0
0
0
0
0
0
0
0
0
0
0
0
0
0
1
1
1
1
1
1
1
1
1
1
1
1
1
1
1
1
1
1
1
1
1
1
1
1
1
1
1
1
1
1
2
2
2
2
2
2
2
2
2
2
2
2
2
2
2
2
2
2
2
2
2
2
2
2
2
2
2
2
2
2
3
3
3
3
3
3
3
3
3
3
3
3
3
3
3
3
3
3
3
3
3
3
3
3
3
3
3
3
3
3
4
4
4
4
4
4
4
4
4
4
4
4
4
4
4
4
4
4
4
4
4
4
4
4
4
4
4
4
4
4

LOOKUP_TABLE FreeFempp_table 5
1.00000000 0.00000000 0.00000000 1.00000000
1.00000000 1.00000000 0.00000000 1.00000000
1.00000000 0.00000000 1.00000000 1.00000000
0.00000000 1.00000000 0.00000000 1.00000000
0.00000000 1.00000000 1.00000000 1.00000000

POINT_DATA 961
FIELD FieldData 1
Density 1 961 float
4.59715456e-01 4.52056974e-01 4.58046943e-01 4.62066412e-01 4.65573490e-01 4.68697399e-01 4.71576899e-01 4.74668950e-01 4.88390386e-01 5.82068086e-01 3.78675456e-03 2.61694472e-03 3.35280108e-03 6.28384808e-03 9.95779455e-01 8.33613813e-01 6.11009002e-01 6.34899318e-01 8.32470179e-01 9.68953311e-01 9.79996622e-01 9.75313008e-01 9.35922563e-01 9.00887668e-01 8.57284248e-01 8.10540378e-01 7.70659268e-01 7.34621584e-01 6.96729362e-01 7.39135504e-01 5.49931049e-01 3.34324032e-01 2.91071683e-01 2.75232524e-01 2.79684633e-01 2.84926891e-01 2.82847166e-01 2.88695574e-01 3.31216276e-01 3.64268482e-01 4.39002328e-02 2.63176393e-03 1.53136672e-03 1.75493374e-03 3.48657276e-03 9.94369626e-01 9.94654059e-01 9.92478848e-01 9.75348175e-01 9.74892974e-01 9.92059171e-01 9.94508624e-01 9.94167328e-01 9.94415104e-01 9.92366374e-01 9.87953186e-01 9.82406914e-01 9.76018131e-01 9.69108164e-01 9.60125268e-01 9.64860737e-01 7.66067743e-01 3.70338676e-04 2.12519168e-04 2.12140920e-04 2.17911307e-04 1.59929550e-04 1.93516535e-04 1.96536013e-04 2.16257074e-04 2.87533447e-04 5.52790705e-04 1.07317930e-03 1.43598625e-03 1.91914663e-03 3.60941794e-03 9.94611979e-01 9.94392812e-01 9.91123736e-01 9.72394943e-01 3.39519441e-01 3.33144404e-02 4.86098882e-03 4.58410522e-03 2.79573709e-01 9.86186564e-01 9.66602325e-01 9.41017866e-01 9.24851894e-01 9.11056817e-01 8.96297455e-01 8.95715415e-01 6.61000073e-01 2.32298626e-04 1.59929768e-04 2.04331736e-04 2.05527540e-04 2.05410164e-04 1.15517512e-04 1.91179424e-04 2.06520315e-04 2.19807043e-04 2.66541319e-04 3.51556955e-04 6.40983228e-04 1.43290590e-03 3.19724320e-03 9.93004441e-01 9.94127333e-01 9.87053990e-01 3.11039358e-01 3.45158309e-01 5.67125250e-03 3.89542128e-03 2.10516178e-03 1.64818391e-03 3.85376555e-03 2.76965618e-01 3.92148942e-01 3.92679363e-01 4.55934495e-01 4.30170983e-01 3.80448103e-01 4.64065522e-01 9.89851594e-01 9.92389321e-01 9.89765882e-01 8.44685316e-01 2.38221183e-01 2.60555148e-01 2.12260291e-01 1.03061855e-01 1.10387558e-03 3.89379158e-04 3.01048538e-04 3.17323895e-04 5.44083654e-04 2.20719376e-03 2.61893332e-01 9.95245099e-01 9.94505823e-01 1.68519214e-01 3.61764319e-02 4.95157763e-03 4.26315283e-03 3.44138662e-03 1.42134330e-03 1.21351623e-03 2.27431231e-03 2.31875479e-01 2.37391487e-01 2.41382062e-01 2.35130399e-01 2.20981583e-01 3.81348491e-01 9.94412541e-01 9.93458450e-01 9.93315756e-01 9.93458867e-01 9.87061560e-01 6.17541313e-01 2.54803300e-01 3.59279394e-01 3.65509689e-01 5.05629592e-02 6.74164330e-04 3.14320612e-04 2.91478529e-04 6.17381884e-04 1.57549325e-02 9.30532932e-01 9.93916452e-01 9.79850829e-01 2.91476324e-02 4.29357775e-03 5.03866607e-03 5.01684239e-03 2.18757585e-01 2.07726052e-03 1.03475049e-03 2.04385398e-03 3.52549821e-01 3.97517890e-01 3.47649604e-01 2.46835396e-01 3.80570382e-01 9.93292034e-01 9.93816137e-01 9.93666291e-01 9.93768930e-01 9.93215740e-01 9.92893279e-01 9.70917046e-01 4.12783504e-01 2.05713928e-01 3.59366179e-01 3.78713429e-01 6.36028592e-04 2.74642429e-04 2.95609439e-04 1.50293857e-03 3.86991084e-01 9.89248037e-01 9.94860947e-01 3.29877496e-01 5.64619387e-03 5.21405973e-03 2.69520618e-02 3.73055875e-01 2.96194911e-01 1.56138511e-03 7.82408402e-04 3.63979023e-03 3.81287336e-01 4.17588711e-01 4.02344823e-01 4.10689175e-01 9.78653967e-01 9.94039297e-01 9.93325591e-01 9.93406355e-01 9.93761539e-01 9.92839515e-01 9.93732691e-01 9.92095232e-01 9.70851362e-01 4.94265407e-01 2.06515267e-01 2.22816005e-01 4.21475648e-04 2.80996843e-04 3.88181623e-04 5.51947439e-03 2.19198048e-01 9.94288325e-01 9.96894002e-01 3.53745580e-01 1.21005168e-02 1.22344736e-02 3.03811580e-01 3.59622955e-01 3.21369529e-01 7.68015743e-04 8.24910996e-04 4.33799565e-01 4.02101189e-01 3.50209445e-01 5.30450881e-01 9.56275046e-01 9.93239760e-01 9.90739405e-01 9.93164480e-01 9.93266940e-01 9.93602335e-01 9.93362844e-01 9.93174672e-01 9.93722439e-01 9.93154824e-01 9.61520195e-01 2.84137249e-01 1.93842372e-03 3.85244261e-04 2.99447653e-04 4.77712078e-04 6.20334446e-02 4.03834373e-01 9.95118260e-01 9.96654034e-01 3.95326495e-01 4.94906902e-02 1.85414657e-01 3.59901458e-01 2.55767733e-01 2.66372156e-03 8.80286272e-04 1.95386494e-03 9.73121729e-03 3.73637490e-02 5.40169656e-01 9.00875449e-01 9.90670621e-01 9.59641218e-01 9.44772840e-01 9.69933450e-01 9.76161838e-01 9.91472840e-01 9.94143546e-01 9.92900670e-01 9.92828369e-01 9.93362188e-01 9.91996169e-01 4.83804584e-01 1.22430502e-03 3.34814074e-04 2.85334856e-04 6.01126696e-04 4.40325029e-03 4.09840226e-01 9.93771970e-01 9.95020449e-01 3.70241374e-01 2.81305790e-01 4.69372451e-01 5.74529469e-01 4.04249877e-03 1.47150294e-03 1.44463882e-03 2.59477086e-03 4.26855264e-03 2.78646126e-02 7.76096404e-01 9.80735362e-01 7.33293533e-01 2.51526415e-01 1.56634018e-01 3.70473325e-01 2.08082259e-01 9.76646543e-01 9.94317353e-01 9.93143737e-01 9.93017018e-01 9.92720008e-01 9.93875682e-01 3.65092367e-01 1.12994830e-03 3.13337077e-04 3.05796217e-04 7.62518612e-04 3.10504460e-03 4.12015229e-01 9.93203402e-01 9.93932128e-01 3.27548116e-01 3.41564208e-01 4.78361070e-01 1.28835710e-02 2.16410379e-03 1.63305562e-03 2.00314540e-03 2.71868240e-03 5.90276113e-03 6.48363829e-01 9.52723086e-01 4.39760387e-01 5.28718010e-02 5.05793188e-03 4.40858072e-03 2.35676840e-02 1.95829347e-01 9.85603034e-01 9.94274557e-01 9.93048251e-01 9.92980242e-01 9.92781818e-01 9.93504047e-01 4.15090844e-02 1.34942494e-03 3.95322306e-04 4.18377022e-04 7.23275822e-04 1.88232271e-03 1.14832325e-02 9.92967665e-01 9.93538022e-01 3.33218426e-01 4.11721379e-01 9.66727316e-01 3.41608445e-03 2.33898847e-03 2.30319728e-03 2.55846069e-03 5.21098124e-03 5.76421916e-01 9.09284651e-01 4.83566165e-01 3.20079289e-02 4.70747054e-03 4.53751674e-03 4.53964574e-03 3.64278436e-01 9.62408483e-01 9.88213778e-01 9.93758559e-01 9.92990196e-01 9.93050337e-01 9.92941678e-01 9.94144857e-01 7.56568229e-03 1.80435844e-03 6.57665427e-04 5.92917379e-04 7.58461887e-04 1.50213600e-03 3.38962348e-03 9.94145572e-01 9.93946731e-01 6.67941391e-01 9.80539918e-01 4.27650381e-03 3.01457080e-03 2.47112592e-03 2.54372298e-03 5.24970051e-03 5.41091144e-01 8.61979723e-01 5.93547404e-01 1.76106587e-01 4.21609823e-03 3.59039195e-03 4.35934961e-03 7.45799243e-01 9.89159524e-01 6.82766318e-01 3.24317753e-01 9.71969604e-01 9.93741512e-01 9.93229032e-01 9.93189037e-01 9.94376719e-01 5.70365647e-03 2.30790395e-03 1.12102507e-03 8.87987495e-04 1.00396422e-03 1.41754420e-03 2.62812967e-03 9.87675965e-01 9.96622980e-01 9.96130586e-01 4.12918115e-03 3.13114142e-03 1.95131020e-03 1.90777192e-03 4.58414294e-03 5.21545649e-01 8.10876429e-01 6.51301146e-01 4.17143017e-01 3.68555589e-03 2.85456143e-03 4.14466066e-03 9.92352009e-01 9.87380505e-01 4.49508667e-01 5.95328817e-03 1.88831426e-02 9.41781282e-01 9.93268490e-01 9.93272841e-01 9.93430018e-01 9.92444158e-01 1.01381494e-02 3.29115381e-03 1.95326982e-03 1.50723837e-03 1.37137098e-03 1.34910061e-03 2.48081516e-03 2.19223574e-02 9.98964250e-01 1.30328760e-01 3.85327288e-03 1.90254126e-03 1.02914334e-03 2.80007371e-03 5.07859766e-01 7.54600525e-01 6.61096513e-01 3.77344847e-01 3.26757762e-03 2.35141022e-03 3.82826058e-03 9.94730413e-01 9.52145636e-01 2.09459309e-02 5.97093021e-03 5.91900339e-03 1.00975282e-01 9.90316212e-01 9.93041456e-01 9.93269205e-01 9.93685663e-01 9.82319832e-01 5.78738190e-02 6.23822305e-03 3.40061635e-03 2.88367760e-03 1.93431473e-03 1.82206358e-03 3.12480703e-03 1.37854116e-02 9.96358037e-01 1.44008351e-02 8.37407541e-03 7.70564307e-04 1.21723895e-03 4.95183378e-01 6.94877505e-01 6.44082963e-01 2.74771303e-01 2.99636601e-03 2.04620650e-03 3.40430252e-03 9.94613349e-01 6.73314929e-01 5.01723867e-03 5.79209998e-03 5.57356700e-03 4.93547786e-03 2.43283704e-01 9.93894279e-01 9.92831469e-01 9.93237197e-01 9.93754745e-01 9.88303125e-01 5.59728384e-01 1.22702479e-01 8.05248246e-02 1.29900100e-02 4.29978315e-03 3.90423136e-03 3.73091199e-03 9.94924784e-01 6.29538655e-01 3.75544846e-01 7.66991347e-04 8.58490181e-04 4.80942219e-01 6.31005049e-01 6.15018308e-01 2.27434143e-01 2.83640553e-03 1.86711701e-03 3.08038201e-03 9.94136214e-01 3.84194225e-01 4.73769708e-03 5.50677022e-03 4.95905802e-03 4.62171249e-03 9.59101878e-03 7.05070615e-01 9.93852496e-01 9.92619276e-01 9.93057430e-01 9.93474007e-01 9.92072880e-01 4.54204410e-01 6.56180799e-01 6.72517836e-01 7.58831978e-01 6.93754315e-01 9.88819957e-01 9.95455384e-01 9.88279581e-01 4.32432950e-01 9.00498591e-04 8.21926340e-04 4.63782549e-01 5.59701562e-01 5.84418118e-01 2.20093161e-01 2.77389144e-03 1.77077716e-03 2.86598969e-03 9.90971208e-01 3.74749213e-01 4.57472401e-03 4.90800152e-03 3.93721974e-03 3.04431957e-03 3.50109604e-03 9.87513885e-02 8.57610524e-01 9.93650198e-01 9.92372155e-01 9.92725134e-01 9.93057251e-01 9.92794335e-01 8.91969383e-01 7.29088426e-01 8.63949776e-01 9.76318777e-01 9.95263338e-01 9.94569123e-01 9.91949081e-01 4.08011908e-03 1.08753843e-03 9.29554400e-04 4.44501430e-01 4.79935765e-01 5.57442784e-01 2.44644731e-01 2.84721353e-03 1.72945135e-03 2.74791266e-03 9.48682308e-01 6.59489572e-01 9.49415565e-03 3.85092408e-03 2.87499884e-03 2.10218690e-03 1.85819936e-03 3.01647396e-03 3.44311953e-01 8.75640750e-01 9.93534148e-01 9.92094994e-01 9.92288232e-01 9.93989408e-01 9.87076759e-01 9.22430754e-01 9.18845832e-01 9.87011313e-01 9.94331777e-01 9.95218694e-01 5.78518450e-01 3.70104681e-03 1.99208478e-03 1.54082384e-03 4.26170558e-01 3.98198366e-01 5.23924828e-01 3.26432705e-01 3.28067830e-03 1.66798022e-03 2.67284270e-03 3.91078413e-01 7.71733284e-01 2.74094671e-01 6.42486801e-03 2.53559765e-03 1.56263274e-03 1.33004028e-03 1.58423709e-03 2.94456142e-03 4.16277230e-01 8.76421690e-01 9.93444502e-01 9.92107689e-01 9.92287338e-01 9.93482113e-01 9.90838766e-01 9.86855209e-01 9.92212534e-01 9.94677603e-01 9.93841827e-01 5.16750384e-03 3.36506311e-03 2.74223369e-03 4.38580196e-03 4.10849720e-01 3.31508368e-01 4.52702492e-01 4.31109667e-01 3.38639948e-03 1.28035480e-03 2.36659055e-03 2.64276028e-01 5.39510906e-01 2.81919718e-01 1.22118361e-01 8.31079204e-03 1.84000493e-03 1.06732617e-03 1.07635674e-03 1.73374137e-03 4.47998941e-03 3.17311913e-01 8.62909317e-01 9.92962420e-01 9.92831945e-01 9.91873682e-01 9.92436469e-01 9.93237436e-01 9.94008124e-01 9.91321862e-01 3.16279903e-02 4.62444220e-03 4.04534722e-03 3.62832914e-03 6.71133911e-03 3.96841317e-01 2.82181501e-01 3.81364346e-01 4.37234133e-01 2.77957171e-01 1.17290544e-03 1.20549672e-03 3.22181076e-01 2.46368498e-01 2.50531584e-01 4.26240385e-01 1.96548209e-01 3.43106571e-03 1.20300543e-03 8.42997630e-04 1.00381020e-03 2.17226590e-03 1.80938710e-02 2.48287931e-01 7.85008669e-01 9.90957916e-01 9.93334055e-01 9.92319465e-01 9.92546618e-01 9.92528737e-01 9.92544532e-01 1.33442104e-01 4.12958162e-03 4.79797507e-03 5.42061171e-03 4.02117558e-02 3.83595645e-01 2.44298041e-01 3.27353567e-01 4.24025476e-01 2.75954247e-01 2.39799870e-03 1.36140781e-03 6.47170516e-03 2.79349059e-01 2.45646223e-01 3.00086617e-01 3.46169978e-01 4.58870269e-02 2.01501208e-03 8.69719079e-04 7.48928520e-04 1.16872485e-03 2.97321728e-03 1.95491239e-01 2.34237969e-01 5.85158229e-01 9.84137535e-01 9.94002044e-01 9.92760360e-01 9.92868006e-01 9.91768718e-01 9.88086700e-01 9.20513988e-01 8.22874367e-01 9.67101514e-01 5.33655822e-01 3.73744726e-01 2.18881756e-01 2.78112561e-01 4.43374604e-01 2.34942347e-01 3.85867665e-03 2.10411008e-03 4.17019892e-03 4.21272218e-01 2.50562280e-01 4.59323704e-01 5.69124997e-01 4.32293415e-01 3.35623394e-03 1.12675293e-03 6.61649799e-04 7.60417606e-04 1.81173952e-03 6.34105457e-03 3.89405400e-01 2.15177953e-01 3.63400340e-01 9.29751098e-01 9.89711702e-01 9.94161904e-01 9.93818045e-01 9.92499590e-01 9.91508067e-01 9.91475940e-01 9.92009401e-01 9.87544000e-01 3.69927436e-01 2.11340383e-01 2.31002346e-01 4.39103246e-01 3.62954527e-01 4.64092894e-03 2.86362018e-03 3.72378947e-03 2.05523968e-01 3.74609590e-01 3.81729335e-01 9.29080129e-01 7.78612912e-01 3.42689157e-02 1.84232614e-03 6.92049274e-04 5.14588028e-04 9.55989235e-04 3.54447821e-03 2.48923287e-01 2.96110004e-01 2.60757953e-01 2.33579829e-01 2.25730583e-01 4.52895284e-01 7.76156604e-01 8.99275720e-01 9.47326362e-01 9.70078945e-01 9.67189252e-01 8.62033844e-01 3.72620702e-01 2.22268850e-01 2.11871743e-01 3.75020206e-01 8.12563479e-01 4.71697934e-03 3.28373699e-03 3.26248398e-03 1.31134987e-02 4.00806516e-01 2.43257657e-01 9.62721825e-01 9.84809458e-01 2.48056740e-01 3.18255299e-03 9.54901334e-04 4.29696782e-04 4.39267984e-04 1.77785417e-03 3.36819589e-02 2.42002606e-01 3.36851329e-01 3.64685506e-01 3.67359757e-01 3.69604439e-01 2.91704118e-01 2.18991473e-01 2.12345645e-01 2.20118821e-01 2.14021698e-01 3.72068882e-01 3.80511016e-01 2.44017228e-01 2.29353473e-01 2.42232114e-01 7.93662608e-01 8.78892019e-02 4.34502866e-03 3.02292500e-03 4.29743342e-03 1.06014431e-01 2.23050609e-01 8.70376110e-01 9.63254929e-01 9.86411929e-01 4.33027983e-01 2.13895808e-03 4.92018473e-04 3.07934009e-04 3.72017414e-04 4.56237234e-03 3.00915595e-02 6.41602203e-02 2.46435344e-01 2.90606171e-01 2.69650847e-01 3.60186815e-01 2.96071291e-01 3.95034343e-01 4.03756768e-01 3.97278041e-01 5.38997710e-01 3.92040551e-01 2.52540022e-01 2.56720394e-01 2.28417143e-01 7.32603610e-01 4.58026916e-01 2.86894850e-02 4.40191617e-03 3.95028247e-03 4.61217435e-03 3.71770054e-01 2.37218589e-01 5.57962775e-01 9.14355934e-01 9.85542536e-01 3.18391234e-01 2.09786952e-03 3.13019147e-04 2.04681768e-04 3.71304661e-04 1.09641012e-02 1.49150550e-01 3.82222801e-01 3.40386957e-01 3.61129761e-01 2.90929139e-01 1.91120446e-01 4.17109579e-01 8.38128477e-02 3.25988352e-01 5.44244707e-01 5.02783358e-01 3.27384144e-01 3.19258869e-01 3.23718548e-01 4.65726584e-01 2.62184322e-01 3.86870891e-01 3.96285921e-01 4.84003453e-03 4.88692755e-03 2.96784341e-01 2.91815907e-01 3.45664293e-01 3.85914922e-01 7.90184677e-01 9.57287788e-01 3.91945332e-01 2.77525489e-03 1.99452334e-04 1.91103536e-04 5.66772069e-04 3.72701883e-01 1.98780090e-01 1.93023041e-01 2.09436312e-01 2.19371587e-01 1.91852510e-01 3.92914325e-01 9.76278447e-03 9.41131823e-03 5.79581261e-01 5.80652058e-01 6.35103822e-01 6.64663017e-01 7.50769198e-01 7.68794000e-01 9.67817962e-01 6.40884697e-01 5.11694849e-01 8.20027411e-01 5.29810846e-01 5.98078609e-01 6.35640204e-01 6.38214111e-01 5.86607814e-01 5.18773437e-01 4.38367724e-01 4.03738201e-01 6.87467515e-01 9.94817078e-01 2.02388896e-04 2.22449293e-04 2.94241726e-01 4.49273169e-01 5.11107087e-01 3.94542128e-01 3.63581896e-01 4.57189381e-01 5.73043704e-01 5.23799717e-01 6.34239167e-02 6.24923468e-01 
