# vtk DataFile Version 2.0
results/iter7.vtk, Created by Freefem++ 
ASCII
DATASET UNSTRUCTURED_GRID
POINTS 961 float
0 0 0
0.033333333 0 0
0.066666667 0 0
0.1 0 0
0.13333333 0 0
0.16666667 0 0
0.2 0 0
0.23333333 0 0
0.26666667 0 0
0.3 0 0
0.33333333 0 0
0.36666667 0 0
0.4 0 0
0.43333333 0 0
0.46666667 0 0
0.5 0 0
0.53333333 0 0
0.56666667 0 0
0.6 0 0
0.63333333 0 0
0.66666667 0 0
0.7 0 0
0.73333333 0 0
0.76666667 0 0
0.8 0 0
0.83333333 0 0
0.86666667 0 0
0.9 0 0
0.93333333 0 0
0.96666667 0 0
1 0 0
0 0.033333333 0
0.033333333 0.033333333 0
0.066666667 0.033333333 0
0.1 0.033333333 0
0.13333333 0.033333333 0
0.16666667 0.033333333 0
0.2 0.033333333 0
0.23333333 0.033333333 0
0.26666667 0.033333333 0
0.3 0.033333333 0
0.33333333 0.033333333 0
0.36666667 0.033333333 0
0.4 0.033333333 0
0.43333333 0.033333333 0
0.46666667 0.033333333 0
0.5 0.033333333 0
0.53333333 0.033333333 0
0.56666667 0.033333333 0
0.6 0.033333333 0
0.63333333 0.033333333 0
0.66666667 0.033333333 0
0.7 0.033333333 0
0.73333333 0.033333333 0
0.76666667 0.033333333 0
0.8 0.033333333 0
0.83333333 0.033333333 0
0.86666667 0.033333333 0
0.9 0.033333333 0
0.93333333 0.033333333 0
0.96666667 0.033333333 0
1 0.033333333 0
0 0.066666667 0
0.033333333 0.066666667 0
0.066666667 0.066666667 0
0.1 0.066666667 0
0.13333333 0.066666667 0
0.16666667 0.066666667 0
0.2 0.066666667 0
0.23333333 0.066666667 0
0.26666667 0.066666667 0
0.3 0.066666667 0
0.33333333 0.066666667 0
0.36666667 0.066666667 0
0.4 0.066666667 0
0.43333333 0.066666667 0
0.46666667 0.066666667 0
0.5 0.066666667 0
0.53333333 0.066666667 0
0.56666667 0.066666667 0
0.6 0.066666667 0
0.63333333 0.066666667 0
0.66666667 0.066666667 0
0.7 0.066666667 0
0.73333333 0.066666667 0
0.76666667 0.066666667 0
0.8 0.066666667 0
0.83333333 0.066666667 0
0.86666667 0.066666667 0
0.9 0.066666667 0
0.93333333 0.066666667 0
0.96666667 0.066666667 0
1 0.066666667 0
0 0.1 0
0.033333333 0.1 0
0.066666667 0.1 0
0.1 0.1 0
0.13333333 0.1 0
0.16666667 0.1 0
0.2 0.1 0
0.23333333 0.1 0
0.26666667 0.1 0
0.3 0.1 0
0.33333333 0.1 0
0.36666667 0.1 0
0.4 0.1 0
0.43333333 0.1 0
0.46666667 0.1 0
0.5 0.1 0
0.53333333 0.1 0
0.56666667 0.1 0
0.6 0.1 0
0.63333333 0.1 0
0.66666667 0.1 0
0.7 0.1 0
0.73333333 0.1 0
0.76666667 0.1 0
0.8 0.1 0
0.83333333 0.1 0
0.86666667 0.1 0
0.9 0.1 0
0.93333333 0.1 0
0.96666667 0.1 0
1 0.1 0
0 0.13333333 0
0.033333333 0.13333333 0
0.066666667 0.13333333 0
0.1 0.13333333 0
0.13333333 0.13333333 0
0.16666667 0.13333333 0
0.2 0.13333333 0
0.23333333 0.13333333 0
0.26666667 0.13333333 0
0.3 0.13333333 0
0.33333333 0.13333333 0
0.36666667 0.13333333 0
0.4 0.13333333 0
0.43333333 0.13333333 0
0.46666667 0.13333333 0
0.5 0.13333333 0
0.53333333 0.13333333 0
0.56666667 0.13333333 0
0.6 0.13333333 0
0.63333333 0.13333333 0
0.66666667 0.13333333 0
0.7 0.13333333 0
0.73333333 0.13333333 0
0.76666667 0.13333333 0
0.8 0.13333333 0
0.83333333 0.13333333 0
0.86666667 0.13333333 0
0.9 0.13333333 0
0.93333333 0.13333333 0
0.96666667 0.13333333 0
1 0.13333333 0
0 0.16666667 0
0.033333333 0.16666667 0
0.066666667 0.16666667 0
0.1 0.16666667 0
0.13333333 0.16666667 0
0.16666667 0.16666667 0
0.2 0.16666667 0
0.23333333 0.16666667 0
0.26666667 0.16666667 0
0.3 0.16666667 0
0.33333333 0.16666667 0
0.36666667 0.16666667 0
0.4 0.16666667 0
0.43333333 0.16666667 0
0.46666667 0.16666667 0
0.5 0.16666667 0
0.53333333 0.16666667 0
0.56666667 0.16666667 0
0.6 0.16666667 0
0.63333333 0.16666667 0
0.66666667 0.16666667 0
0.7 0.16666667 0
0.73333333 0.16666667 0
0.76666667 0.16666667 0
0.8 0.16666667 0
0.83333333 0.16666667 0
0.86666667 0.16666667 0
0.9 0.16666667 0
0.93333333 0.16666667 0
0.96666667 0.16666667 0
1 0.16666667 0
0 0.2 0
0.033333333 0.2 0
0.066666667 0.2 0
0.1 0.2 0
0.13333333 0.2 0
0.16666667 0.2 0
0.2 0.2 0
0.23333333 0.2 0
0.26666667 0.2 0
0.3 0.2 0
0.33333333 0.2 0
0.36666667 0.2 0
0.4 0.2 0
0.43333333 0.2 0
0.46666667 0.2 0
0.5 0.2 0
0.53333333 0.2 0
0.56666667 0.2 0
0.6 0.2 0
0.63333333 0.2 0
0.66666667 0.2 0
0.7 0.2 0
0.73333333 0.2 0
0.76666667 0.2 0
0.8 0.2 0
0.83333333 0.2 0
0.86666667 0.2 0
0.9 0.2 0
0.93333333 0.2 0
0.96666667 0.2 0
1 0.2 0
0 0.23333333 0
0.033333333 0.23333333 0
0.066666667 0.23333333 0
0.1 0.23333333 0
0.13333333 0.23333333 0
0.16666667 0.23333333 0
0.2 0.23333333 0
0.23333333 0.23333333 0
0.26666667 0.23333333 0
0.3 0.23333333 0
0.33333333 0.23333333 0
0.36666667 0.23333333 0
0.4 0.23333333 0
0.43333333 0.23333333 0
0.46666667 0.23333333 0
0.5 0.23333333 0
0.53333333 0.23333333 0
0.56666667 0.23333333 0
0.6 0.23333333 0
0.63333333 0.23333333 0
0.66666667 0.23333333 0
0.7 0.23333333 0
0.73333333 0.23333333 0
0.76666667 0.23333333 0
0.8 0.23333333 0
0.83333333 0.23333333 0
0.86666667 0.23333333 0
0.9 0.23333333 0
0.93333333 0.23333333 0
0.96666667 0.23333333 0
1 0.23333333 0
0 0.26666667 0
0.033333333 0.26666667 0
0.066666667 0.26666667 0
0.1 0.26666667 0
0.13333333 0.26666667 0
0.16666667 0.26666667 0
0.2 0.26666667 0
0.23333333 0.26666667 0
0.26666667 0.26666667 0
0.3 0.26666667 0
0.33333333 0.26666667 0
0.36666667 0.26666667 0
0.4 0.26666667 0
0.43333333 0.26666667 0
0.46666667 0.26666667 0
0.5 0.26666667 0
0.53333333 0.26666667 0
0.56666667 0.26666667 0
0.6 0.26666667 0
0.63333333 0.26666667 0
0.66666667 0.26666667 0
0.7 0.26666667 0
0.73333333 0.26666667 0
0.76666667 0.26666667 0
0.8 0.26666667 0
0.83333333 0.26666667 0
0.86666667 0.26666667 0
0.9 0.26666667 0
0.93333333 0.26666667 0
0.96666667 0.26666667 0
1 0.26666667 0
0 0.3 0
0.033333333 0.3 0
0.066666667 0.3 0
0.1 0.3 0
0.13333333 0.3 0
0.16666667 0.3 0
0.2 0.3 0
0.23333333 0.3 0
0.26666667 0.3 0
0.3 0.3 0
0.33333333 0.3 0
0.36666667 0.3 0
0.4 0.3 0
0.43333333 0.3 0
0.46666667 0.3 0
0.5 0.3 0
0.53333333 0.3 0
0.56666667 0.3 0
0.6 0.3 0
0.63333333 0.3 0
0.66666667 0.3 0
0.7 0.3 0
0.73333333 0.3 0
0.76666667 0.3 0
0.8 0.3 0
0.83333333 0.3 0
0.86666667 0.3 0
0.9 0.3 0
0.93333333 0.3 0
0.96666667 0.3 0
1 0.3 0
0 0.33333333 0
0.033333333 0.33333333 0
0.066666667 0.33333333 0
0.1 0.33333333 0
0.13333333 0.33333333 0
0.16666667 0.33333333 0
0.2 0.33333333 0
0.23333333 0.33333333 0
0.26666667 0.33333333 0
0.3 0.33333333 0
0.33333333 0.33333333 0
0.36666667 0.33333333 0
0.4 0.33333333 0
0.43333333 0.33333333 0
0.46666667 0.33333333 0
0.5 0.33333333 0
0.53333333 0.33333333 0
0.56666667 0.33333333 0
0.6 0.33333333 0
0.63333333 0.33333333 0
0.66666667 0.33333333 0
0.7 0.33333333 0
0.73333333 0.33333333 0
0.76666667 0.33333333 0
0.8 0.33333333 0
0.83333333 0.33333333 0
0.86666667 0.33333333 0
0.9 0.33333333 0
0.93333333 0.33333333 0
0.96666667 0.33333333 0
1 0.33333333 0
0 0.36666667 0
0.033333333 0.36666667 0
0.066666667 0.36666667 0
0.1 0.36666667 0
0.13333333 0.36666667 0
0.16666667 0.36666667 0
0.2 0.36666667 0
0.23333333 0.36666667 0
0.26666667 0.36666667 0
0.3 0.36666667 0
0.33333333 0.36666667 0
0.36666667 0.36666667 0
0.4 0.36666667 0
0.43333333 0.36666667 0
0.46666667 0.36666667 0
0.5 0.36666667 0
0.53333333 0.36666667 0
0.56666667 0.36666667 0
0.6 0.36666667 0
0.63333333 0.36666667 0
0.66666667 0.36666667 0
0.7 0.36666667 0
0.73333333 0.36666667 0
0.76666667 0.36666667 0
0.8 0.36666667 0
0.83333333 0.36666667 0
0.86666667 0.36666667 0
0.9 0.36666667 0
0.93333333 0.36666667 0
0.96666667 0.36666667 0
1 0.36666667 0
0 0.4 0
0.033333333 0.4 0
0.066666667 0.4 0
0.1 0.4 0
0.13333333 0.4 0
0.16666667 0.4 0
0.2 0.4 0
0.23333333 0.4 0
0.26666667 0.4 0
0.3 0.4 0
0.33333333 0.4 0
0.36666667 0.4 0
0.4 0.4 0
0.43333333 0.4 0
0.46666667 0.4 0
0.5 0.4 0
0.53333333 0.4 0
0.56666667 0.4 0
0.6 0.4 0
0.63333333 0.4 0
0.66666667 0.4 0
0.7 0.4 0
0.73333333 0.4 0
0.76666667 0.4 0
0.8 0.4 0
0.83333333 0.4 0
0.86666667 0.4 0
0.9 0.4 0
0.93333333 0.4 0
0.96666667 0.4 0
1 0.4 0
0 0.43333333 0
0.033333333 0.43333333 0
0.066666667 0.43333333 0
0.1 0.43333333 0
0.13333333 0.43333333 0
0.16666667 0.43333333 0
0.2 0.43333333 0
0.23333333 0.43333333 0
0.26666667 0.43333333 0
0.3 0.43333333 0
0.33333333 0.43333333 0
0.36666667 0.43333333 0
0.4 0.43333333 0
0.43333333 0.43333333 0
0.46666667 0.43333333 0
0.5 0.43333333 0
0.53333333 0.43333333 0
0.56666667 0.43333333 0
0.6 0.43333333 0
0.63333333 0.43333333 0
0.66666667 0.43333333 0
0.7 0.43333333 0
0.73333333 0.43333333 0
0.76666667 0.43333333 0
0.8 0.43333333 0
0.83333333 0.43333333 0
0.86666667 0.43333333 0
0.9 0.43333333 0
0.93333333 0.43333333 0
0.96666667 0.43333333 0
1 0.43333333 0
0 0.46666667 0
0.033333333 0.46666667 0
0.066666667 0.46666667 0
0.1 0.46666667 0
0.13333333 0.46666667 0
0.16666667 0.46666667 0
0.2 0.46666667 0
0.23333333 0.46666667 0
0.26666667 0.46666667 0
0.3 0.46666667 0
0.33333333 0.46666667 0
0.36666667 0.46666667 0
0.4 0.46666667 0
0.43333333 0.46666667 0
0.46666667 0.46666667 0
0.5 0.46666667 0
0.53333333 0.46666667 0
0.56666667 0.46666667 0
0.6 0.46666667 0
0.63333333 0.46666667 0
0.66666667 0.46666667 0
0.7 0.46666667 0
0.73333333 0.46666667 0
0.76666667 0.46666667 0
0.8 0.46666667 0
0.83333333 0.46666667 0
0.86666667 0.46666667 0
0.9 0.46666667 0
0.93333333 0.46666667 0
0.96666667 0.46666667 0
1 0.46666667 0
0 0.5 0
0.033333333 0.5 0
0.066666667 0.5 0
0.1 0.5 0
0.13333333 0.5 0
0.16666667 0.5 0
0.2 0.5 0
0.23333333 0.5 0
0.26666667 0.5 0
0.3 0.5 0
0.33333333 0.5 0
0.36666667 0.5 0
0.4 0.5 0
0.43333333 0.5 0
0.46666667 0.5 0
0.5 0.5 0
0.53333333 0.5 0
0.56666667 0.5 0
0.6 0.5 0
0.63333333 0.5 0
0.66666667 0.5 0
0.7 0.5 0
0.73333333 0.5 0
0.76666667 0.5 0
0.8 0.5 0
0.83333333 0.5 0
0.86666667 0.5 0
0.9 0.5 0
0.93333333 0.5 0
0.96666667 0.5 0
1 0.5 0
0 0.53333333 0
0.033333333 0.53333333 0
0.066666667 0.53333333 0
0.1 0.53333333 0
0.13333333 0.53333333 0
0.16666667 0.53333333 0
0.2 0.53333333 0
0.23333333 0.53333333 0
0.26666667 0.53333333 0
0.3 0.53333333 0
0.33333333 0.53333333 0
0.36666667 0.53333333 0
0.4 0.53333333 0
0.43333333 0.53333333 0
0.46666667 0.53333333 0
0.5 0.53333333 0
0.53333333 0.53333333 0
0.56666667 0.53333333 0
0.6 0.53333333 0
0.63333333 0.53333333 0
0.66666667 0.53333333 0
0.7 0.53333333 0
0.73333333 0.53333333 0
0.76666667 0.53333333 0
0.8 0.53333333 0
[...]
CELL_DATA 1920
Scalars  Label int 1
LOOKUP_TABLE FreeFempp_table
0
0
0
0
0
0
0
0
0
0
0
0
0
0
0
0
0
0
0
0
0
0
0
0
0
0
0
0
0
0
0
0
0
0
0
0
0
0
0
0
0
0
0
0
0
0
0
0
0
0
0
0
0
0
0
0
0
0
0
0
0
0
0
0
0
0
0
0
0
0
0
0
0
0
0
0
0
0
0
0
0
0
0
0
0
0
0
0
0
0
0
0
0
0
0
0
0
0
0
0
0
0
0
0
0
0
0
0
0
0
0
0
0
0
0
0
0
0
0
0
0
0
0
0
0
0
0
0
0
0
0
0
0
0
0
0
0
0
0
0
0
0
0
0
0
0
0
0
0
0
0
0
0
0
0
0
0
0
0
0
0
0
0
0
0
0
0
0
0
0
0
0
0
0
0
0
0
0
0
0
0
0
0
0
0
0
0
0
0
0
0
0
0
0
0
0
0
0
0
0
0
0
0
0
0
0
0
0
0
0
0
0
0
0
0
0
0
0
0
0
0
0
0
0
0
0
0
0
0
0
0
0
0
0
0
0
0
0
0
0
0
0
0
0
0
0
0
0
0
0
0
0
0
0
0
0
0
0
0
0
0
0
0
0
0
0
0
0
0
0
0
0
0
0
0
0
0
0
0
0
0
0
0
0
0
0
0
0
0
0
0
0
0
0
0
0
0
0
0
0
0
0
0
0
0
0
0
0
0
0
0
0
0
0
0
0
0
0
0
0
0
0
0
0
0
0
0
0
0
0
0
0
0
0
0
0
0
0
0
0
0
0
0
0
0
0
0
0
0
0
0
0
0
0
0
0
0
0
0
0
0
0
0
0
0
0
0
0
0
0
0
0
0
0
0
0
0
0
0
0
0
0
0
0
0
0
0
0
0
0
0
0
0
0
0
0
0
0
0
0
0
0
0
0
0
0
0
0
0
0
0
0
0
0
0
0
0
0
0
0
0
0
0
0
0
0
0
0
0
0
0
0
0
0
0
0
0
0
0
0
0
0
0
0
0
0
0
0
0
0
0
0
0
0
0
0
0
0
0
0
0
0
0
0
0
0
0
0
0
0
0
0
0
0
0
0
0
0
0
0
0
0
0
0
0
0
0
0
0
0
0
0
0
0
0
0
0
0
0
0
0
0
0
0
0
0
0
0
0
0
0
0
0
0
0
0
0
0
0
0
0
0
0
0
0
0
0
0
0
0
0
0
0
0
0
0
0
0
0
0
0
0
0
0
0
0
0
0
0
0
0
0
0
0
0
0
0
0
0
0
0
0
0
0
0
0
0
0
0
0
0
0
0
0
0
0
0
0
0
0
0
0
0
0
0
0
0
0
0
0
0
0
0
0
0
0
0
0
0
0
0
0
0
0
0
0
0
0
0
0
0
0
0
0
0
0
0
0
0
0
0
0
0
0
0
0
0
0
0
0
0
0
0
0
0
0
0
0
0
0
0
0
0
0
0
0
0
0
0
0
0
0
0
0
0
0
0
0
0
0
0
0
0
0
0
0
0
0
0
0
0
0
0
0
0
0
0
0
0
0
0
0
0
0
0
0
0
0
0
0
0
0
0
0
0
0
0
0
0
0
0
0
0
0
0
0
0
0
0
0
0
0
0
0
0
0
0
0
0
0
0
0
0
0
0
0
0
0
0
0
0
0
0
0
0
0
0
0
0
0
0
0
0
0
0
0
0
0
0
0
0
0
0
0
0
0
0
0
0
0
0
0
0
0
0
0
0
0
0
0
0
0
0
0
0
0
0
0
0
0
0
0
0
0
0
0
0
0
0
0
0
0
0
0
0
0
0
0
0
0
0
0
0
0
0
0
0
0
0
0
0
0
0
0
0
0
0
0
0
0
0
0
0
0
0
0
0
0
0
0
0
0
0
0
0
0
0
0
0
0
0
0
0
0
0
0
0
0
0
0
0
0
0
0
0
0
0
0
0
0
0
0
0
0
0
0
0
0
0
0
0
0
0
0
0
0
0
0
0
0
0
0
0
0
0
0
0
0
0
0
0
0
0
0
0
0
0
0
0
0
0
0
0
0
0
0
0
0
0
0
0
0
0
0
0
0
0
0
0
0
0
0
0
0
0
0
0
0
0
0
0
0
0
0
0
0
0
0
0
0
0
0
0
0
0
0
0
0
0
0
0
0
0
0
0
0
0
0
0
0
0
0
0
0
0
0
0
0
0
0
0
0
0
0
0
0
0
0
0
0
0
0
0
0
0
0
0
0
0
0
0
0
0
0
0
0
0
0
0
0
0
0
0
0
0
0
0
0
0
0
0
0
0
0
0
0
0
0
0
0
0
0
0
0
0
0
0
0
0
0
0
0
0
0
0
0
0
0
0
0
0
0
0
0
0
0
0
0
0
0
0
0
0
0
0
0
0
0
0
0
0
0
0
0
0
0
0
0
0
0
0
0
0
0
0
0
0
0
0
0
0
0
0
0
0
0
0
0
0
0
0
0
0
0
0
0
0
0
0
0
0
0
0
0
0
0
0
0
0
0
0
0
0
0
0
0
0
0
0
0
0
0
0
0
0
0
0
0
0
0
0
0
0
0
0
0
0
0
0
0
0
0
0
0
0
0
0
0
0
0
0
0
0
0
0
0
0
0
0
0
0
0
0
0
0
0
0
0
0
0
0
0
0
0
0
0
0
0
0
0
0
0
0
0
0
0
0
0
0
0
0
0
0
0
0
0
0
0
0
0
0
0
0
0
0
0
0
0
0
0
0
0
0
0
0
0
0
0
0
0
0
0
0
0
0
0
0
0
0
0
0
0
0
0
0
0
0
0
0
0
0
0
0
0
0
0
0
0
0
0
0
0
0
0
0
0
0
0
0
0
0
0
0
0
0
0
0
0
0
0
0
0
0
0
0
0
0
0
0
0
0
0
0
0
0
0
0
0
0
0
0
0
0
0
0
0
0
0
0
0
0
0
0
0
0
0
0
0
0
0
0
0
0
0
0
0
0
0
0
0
0
0
0
0
0
0
0
0
0
0
0
0
0
0
0
0
0
0
0
0
0
0
0
0
0
0
0
0
0
0
0
0
0
0
0
0
0
0
0
0
0
0
0
0
0
0
0
0
0
0
0
0
0
0
0
0
0
0
0
0
0
0
0
0
0
0
0
0
0
0
0
0
0
0
0
0
0
0
0
0
0
0
0
0
0
0
0
0
0
0
0
0
0
0
0
0
0
0
0
0
0
0
0
0
0
0
0
0
0
0
0
0
0
0
0
0
0
0
0
0
0
0
0
0
0
0
0
0
0
0
0
0
0
0
0
0
0
0
0
0
0
0
0
0
0
0
0
0
0
0
0
0
0
0
0
0
0
0
0
0
0
0
0
0
0
0
0
0
0
0
0
0
0
0
0
0
0
0
0
0
0
0
0
0
0
0
0
0
0
0
0
0
0
0
0
0
0
0
0
0
0
0
0
0
0
0
0
0
0
0
0
0
0
0
0
0
0
0
0
0
0
0
0
0
0
0
0
0
0
0
0
0
0
0
0
0
0
0
0
0
0
0
0
0
0
0
0
0
0
0
0
0
0
0
0
0
0
0
0
0
0
0
0
0
0
0
0
0
0
0
0
0
0
0
0
0
0
0
0
0
0
0
0
0
0
0
0
0
0
0
0
0
0
0
0
0
0
0
0
0
0
0
0
0
0
0
0
0
0
0
0
0
0
0
0
0
0
0
0
0
0
0
0
0
0
0
0
0
0
0
0
0
0
0
0
0
0
0
0
0
0
0
0
0
0
0
0
0
0
0
0
0
0
0
0
0
0
0
0
0
0
0
0
0
0
0
0
0
0
0
0
0
0
0
0
0
0
0
0
0
0
0
0
0
0
0
0
0
0
0
0
0
0
0
0
0
0
0
0
0
0
0
0
0
0
0
0
0
0
0
0
0
0
0
0
0
0
0
0
0
0
0
0
0
0
0
0
0
0
0
0
0
0
0
0
0
0
0
0
0
0
0
0
0
0
0
0
0
0
0
0
0
0
0
0
0
0
0
0
0
0
0
0
0
0
0
0
0
0
0
0
0
0
0
0
0
0
0
0
0
1
1
1
1
1
1
1
1
1
1
1
1
1
1
1
1
1
1
1
1
1
1
1
1
1
1
1
1
1
1
2
2
2
2
2
2
2
2
2
2
2
2
2
2
2
2
2
2
2
2
2
2
2
2
2
2
2
2
2
2
3
3
3
3
3
3
3
3
3
3
3
3
3
3
3
3
3
3
3
3
3
3
3
3
3
3
3
3
3
3
4
4
4
4
4
4
4
4
4
4
4
4
4
4
4
4
4
4
4
4
4
4
4
4
4
4
4
4
4
4

LOOKUP_TABLE FreeFempp_table 5
1.00000000 0.00000000 0.00000000 1.00000000
1.00000000 1.00000000 0.00000000 1.00000000
1.00000000 0.00000000 1.00000000 1.00000000
0.00000000 1.00000000 0.00000000 1.00000000
0.00000000 1.00000000 1.00000000 1.00000000

POINT_DATA 961
FIELD FieldData 1
Density 1 961 float
1.18093774e-01 1.01797007e-01 9.97804701e-02 9.93337855e-02 9.82496366e-02 9.48501527e-02 8.21023136e-02 4.79010567e-02 1.20939221e-02 1.91935746e-03 1.48500223e-03 1.37214176e-02 2.82589406e-01 5.47542036e-01 7.12925255e-01 8.87226522e-01 9.01449978e-01 7.83953965e-01 8.31667125e-01 9.08865690e-01 9.26531494e-01 9.24025178e-01 9.10116553e-01 8.88818026e-01 8.69824111e-01 8.54701459e-01 8.34946215e-01 8.21416438e-01 8.12138677e-01 7.97931015e-01 7.71396399e-01 2.61471490e-03 3.18751228e-03 3.17603373e-03 3.21424240e-03 3.27603007e-03 3.30069219e-03 3.19500524e-03 2.73065479e-03 1.67852233e-03 7.19112635e-04 6.17216690e-04 3.37448181e-03 1.18109792e-01 4.74088371e-01 6.83819830e-01 8.99050593e-01 9.09064651e-01 5.39548695e-01 4.85387236e-01 7.49658525e-01 8.52117360e-01 8.69111121e-01 8.62877190e-01 8.50521028e-01 8.42498958e-01 8.38675261e-01 8.18682253e-01 8.09602141e-01 8.01631987e-01 7.94467866e-01 7.75630713e-01 2.21537147e-03 1.11118425e-03 5.09223377e-04 2.96264450e-04 2.43336210e-04 2.40208727e-04 2.42921116e-04 2.39031899e-04 2.27055891e-04 2.28507983e-04 2.75273924e-04 5.08187513e-04 4.63246088e-03 1.57160103e-01 5.77757955e-01 8.56016457e-01 8.91462207e-01 7.13706017e-02 1.67118497e-02 3.34599465e-02 8.39588419e-02 1.70474321e-01 2.82432169e-01 3.84748310e-01 4.53920871e-01 4.82491940e-01 5.40197253e-01 6.29581749e-01 6.37873530e-01 6.51868045e-01 6.81521177e-01 8.89121890e-02 3.09544113e-02 9.87404678e-03 5.11788111e-03 3.88892763e-03 3.55584477e-03 3.48489429e-03 3.50305857e-03 3.52874142e-03 3.47754685e-03 3.19953635e-03 2.34271050e-03 1.28541072e-03 4.67857998e-03 1.11814700e-01 6.05795860e-01 9.26775277e-01 3.61099720e-01 7.88511895e-03 2.29608756e-03 2.17177160e-03 2.72686360e-03 3.39761889e-03 4.09747614e-03 5.05256653e-03 8.68315808e-03 3.17548253e-02 2.86080539e-01 4.61385041e-01 4.96817023e-01 5.57963789e-01 3.94421339e-01 2.97109574e-01 2.17954651e-01 1.91737860e-01 1.88911542e-01 1.93644375e-01 2.00691313e-01 2.08310187e-01 2.14675769e-01 2.15291932e-01 1.95800066e-01 1.24564871e-01 2.93912590e-02 3.20917228e-03 2.15242198e-03 1.06918458e-02 5.07198811e-01 8.99863243e-01 1.69578612e-01 1.10559082e-02 4.02082549e-03 3.74681922e-03 2.23298627e-03 1.14375271e-03 5.68873947e-04 5.72990975e-04 1.34569511e-03 1.07048154e-02 1.93861499e-01 4.23340559e-01 5.03094852e-01 4.71852720e-01 4.01137590e-01 3.79623055e-01 3.82063508e-01 3.88317436e-01 3.95794749e-01 4.03088987e-01 4.09851819e-01 4.15857315e-01 4.20633733e-01 4.21253145e-01 4.02694196e-01 3.04329902e-01 1.02156706e-01 4.67218971e-03 8.21461435e-04 6.11241721e-03 2.21440241e-01 8.97077143e-01 7.45491326e-01 2.65049130e-01 3.44370186e-01 1.69884652e-01 4.25033681e-02 1.01494761e-02 3.94486869e-03 1.25795137e-03 9.87500069e-04 7.99492188e-03 1.87630758e-01 4.11535442e-01 5.03730953e-01 4.34489429e-01 4.17392284e-01 4.19940948e-01 4.20281917e-01 4.21233773e-01 4.22927082e-01 4.25176144e-01 4.27915215e-01 4.31076586e-01 4.34070379e-01 4.34877902e-01 4.26171929e-01 3.79165411e-01 1.67147443e-01 1.08068474e-02 2.44576274e-03 2.24854308e-03 1.77761223e-02 5.16219079e-01 8.63393664e-01 9.31213200e-01 9.52407897e-01 9.20798123e-01 7.15781450e-01 4.18859214e-01 4.85457219e-02 3.72112496e-03 1.04979041e-03 7.15802843e-03 7.11570233e-02 5.45500576e-01 4.83626097e-01 4.65104669e-01 4.65625465e-01 4.64828908e-01 4.64931160e-01 4.66334254e-01 4.69038874e-01 4.72812980e-01 4.77156401e-01 4.81084734e-01 4.83028948e-01 4.81336981e-01 4.73929942e-01 4.46002841e-01 3.06082666e-01 1.12366214e-01 6.61161589e-03 1.97020336e-03 4.39296197e-03 4.61819246e-02 6.02736592e-01 7.13982999e-01 7.65217602e-01 7.46764481e-01 8.52440178e-01 7.72859812e-01 2.26551712e-01 4.56537027e-03 8.69273557e-04 2.32155598e-03 6.23631656e-01 5.82318962e-01 5.67451298e-01 5.66292882e-01 5.64143896e-01 5.63630879e-01 5.65190554e-01 5.68721652e-01 5.73740602e-01 5.79437375e-01 5.84728658e-01 5.88422060e-01 5.89645267e-01 5.87982357e-01 5.81866324e-01 5.64762354e-01 5.11850417e-01 2.95424551e-01 7.25871027e-02 4.48327744e-03 1.07147032e-03 3.94151220e-03 6.15340471e-03 7.16419006e-03 1.07656736e-02 3.09507158e-02 7.84678280e-01 9.21129704e-01 1.11872591e-01 1.63278147e-03 4.87778889e-04 7.19867527e-01 7.14914203e-01 7.11598635e-01 7.10295081e-01 7.07192183e-01 7.05044568e-01 7.04326332e-01 7.05054462e-01 7.06951380e-01 7.09462106e-01 7.11950600e-01 7.13998675e-01 7.15649605e-01 7.17422247e-01 7.20062494e-01 7.23923922e-01 7.25271404e-01 7.01796949e-01 5.91381431e-01 2.31264234e-01 1.01940176e-02 5.21657430e-03 2.81736231e-03 7.38811505e-04 1.30989659e-03 2.97900545e-03 4.21085618e-02 9.30555046e-01 6.64606869e-01 4.31532087e-03 4.30290675e-04 7.71434367e-01 7.88054705e-01 7.91336060e-01 7.90415168e-01 7.88612306e-01 7.86651611e-01 7.84477353e-01 7.82230675e-01 7.80074418e-01 7.77995527e-01 7.75913358e-01 7.73982584e-01 7.72825956e-01 7.73517013e-01 7.77325809e-01 7.85392344e-01 7.98203766e-01 8.13460410e-01 8.23745489e-01 8.07294130e-01 6.49507701e-01 5.46308339e-01 3.45915109e-01 1.78735126e-02 7.75810471e-03 6.58825412e-03 1.22159719e-02 3.96741211e-01 9.32021856e-01 8.88675079e-03 4.20372235e-04 7.55162358e-01 7.76984274e-01 7.82189012e-01 7.81378210e-01 7.81972826e-01 7.82420754e-01 7.81654000e-01 7.79462278e-01 7.75985897e-01 7.71322668e-01 7.65541434e-01 7.59012640e-01 7.52705038e-01 7.48211384e-01 7.47455597e-01 7.52209485e-01 7.63811350e-01 7.83266723e-01 8.10419619e-01 8.41203988e-01 8.62636209e-01 8.79616678e-01 8.70595753e-01 7.62887239e-01 5.59918642e-01 2.45958209e-01 1.02382898e-01 5.88957489e-01 9.68466759e-01 1.33248521e-02 3.07756069e-04 6.68717027e-01 6.70781314e-01 6.72508240e-01 6.73138380e-01 6.80344999e-01 6.90366745e-01 6.99692428e-01 7.06179857e-01 7.08754003e-01 7.06964076e-01 7.00901628e-01 6.91356182e-01 6.79852307e-01 6.68428063e-01 6.59195900e-01 6.53883517e-01 6.53768837e-01 6.60443306e-01 6.76896393e-01 7.07135797e-01 7.51350760e-01 7.97881663e-01 8.23215425e-01 8.36066663e-01 8.44769418e-01 7.78195739e-01 6.87700033e-01 9.24699962e-01 9.72417593e-01 1.31830703e-02 1.96212641e-04 5.56785464e-01 5.13164043e-01 4.98977959e-01 5.00662982e-01 5.14644861e-01 5.37710249e-01 5.64152300e-01 5.88477015e-01 6.07005835e-01 6.17477059e-01 6.19468391e-01 6.14444137e-01 6.04839742e-01 5.93128622e-01 5.81267774e-01 5.70506811e-01 5.61532974e-01 5.54950833e-01 5.51947236e-01 5.54726839e-01 5.65210402e-01 5.79592884e-01 5.84064066e-01 5.73371589e-01 5.63138664e-01 5.89312732e-01 7.58655429e-01 9.50450838e-01 9.54423189e-01 1.07261790e-02 1.58396972e-04 4.77966517e-01 4.04323101e-01 3.77868950e-01 3.84519577e-01 4.06342149e-01 4.38648820e-01 4.74354446e-01 5.07309496e-01 5.35185695e-01 5.55454135e-01 5.66195905e-01 5.68246305e-01 5.64108729e-01 5.56307852e-01 5.46720266e-01 5.36569774e-01 5.26642680e-01 5.17506242e-01 5.09670675e-01 5.03608584e-01 4.98902321e-01 4.92035240e-01 4.76022214e-01 4.48534697e-01 4.30726886e-01 5.00553131e-01 7.80624211e-01 9.48821008e-01 9.02205348e-01 8.66024755e-03 1.97563670e-04 4.19870496e-01 3.14715564e-01 2.62989670e-01 2.73468226e-01 3.18022788e-01 3.81154418e-01 4.39239174e-01 4.80726302e-01 5.11452258e-01 5.33689439e-01 5.46295881e-01 5.50141037e-01 5.47735095e-01 5.41504383e-01 5.33236086e-01 5.24151742e-01 5.15059531e-01 5.06480992e-01 4.98764575e-01 4.92010772e-01 4.85299826e-01 4.75805342e-01 4.62494433e-01 4.57531750e-01 4.98950034e-01 6.60995722e-01 8.77781630e-01 9.47321355e-01 7.83053935e-01 6.98893890e-03 2.66466697e-04 3.74441892e-01 2.22483456e-01 1.34608716e-01 1.32848844e-01 1.82246357e-01 2.85966098e-01 3.99084270e-01 4.68150556e-01 5.08815706e-01 5.33891618e-01 5.45657218e-01 5.47369063e-01 5.42947114e-01 5.35266161e-01 5.26132762e-01 5.16641438e-01 5.07310033e-01 4.98180598e-01 4.89059567e-01 4.79778111e-01 4.70189482e-01 4.62718248e-01 4.71113682e-01 5.24028301e-01 6.56387627e-01 8.26277018e-01 9.22645807e-01 9.16917920e-01 4.16409969e-01 4.73717507e-03 3.36145255e-04 3.42260927e-01 1.53129205e-01 6.66980594e-02 5.92661873e-02 8.79344344e-02 1.84375495e-01 3.40219289e-01 4.45769399e-01 5.05207598e-01 5.39656043e-01 5.54152429e-01 5.55138826e-01 5.48806727e-01 5.38941264e-01 5.27536392e-01 5.15561640e-01 5.03125191e-01 4.89503771e-01 4.73826408e-01 4.56986994e-01 4.44726467e-01 4.54562932e-01 5.16732633e-01 6.51732326e-01 8.01827550e-01 8.96610916e-01 9.21178401e-01 7.86055863e-01 8.89641866e-02 2.60228594e-03 4.29505133e-04 3.01591814e-01 1.00240067e-01 3.70144919e-02 3.30636092e-02 5.41012511e-02 1.35448247e-01 2.99418956e-01 4.22725648e-01 4.97981101e-01 5.44217467e-01 5.65564275e-01 5.70037067e-01 5.65113187e-01 5.54947734e-01 5.41450381e-01 5.25299370e-01 5.06129563e-01 4.82673854e-01 4.54867840e-01 4.29127634e-01 4.26249176e-01 4.81508434e-01 6.22370601e-01 7.81575680e-01 8.76276731e-01 9.11707222e-01 8.63555551e-01 3.79405499e-01 1.93721876e-02 1.57904171e-03 6.39659178e-04 2.40807533e-01 5.73307946e-02 1.92998741e-02 2.00544707e-02 4.37034704e-02 1.34035319e-01 2.97257036e-01 4.13625836e-01 4.92435426e-01 5.46186507e-01 5.75215876e-01 5.86602330e-01 5.86988449e-01 5.79695642e-01 5.65820217e-01 5.45199513e-01 5.16952038e-01 4.80641425e-01 4.41117853e-01 4.17987049e-01 4.49343473e-01 5.73903680e-01 7.52792060e-01 8.60038042e-01 9.02340174e-01 8.85230422e-01 6.56083226e-01 9.61397439e-02 6.32806262e-03 1.42025074e-03 1.09928311e-03 1.78220674e-01 3.00248191e-02 9.82634630e-03 1.31216710e-02 4.40090485e-02 1.72538191e-01 3.29427689e-01 4.22239423e-01 4.91249800e-01 5.45143008e-01 5.79736054e-01 5.98839879e-01 6.06362939e-01 6.03990376e-01 5.91596425e-01 5.67881107e-01 5.31885684e-01 4.86818433e-01 4.48413581e-01 4.53517884e-01 5.45267522e-01 7.20013857e-01 8.45872045e-01 8.96406829e-01 8.87287676e-01 7.51009703e-01 2.54823774e-01 2.16206182e-02 3.16868420e-03 1.93660439e-03 2.43870961e-03 1.33898199e-01 1.64314993e-02 5.51098399e-03 9.98063944e-03 5.55929095e-02 2.47000307e-01 3.76771688e-01 4.39706177e-01 4.92579371e-01 5.41028678e-01 5.77986062e-01 6.02773905e-01 6.16044164e-01 6.18005455e-01 6.07819736e-01 5.84000945e-01 5.47233701e-01 5.07604241e-01 4.95601982e-01 5.55588007e-01 7.00718045e-01 8.30630302e-01 8.92834604e-01 8.87172163e-01 7.59132504e-01 3.04701030e-01 4.01109941e-02 6.96547376e-03 2.81049963e-03 3.96468630e-03 8.46813526e-03 1.11005574e-01 1.03658894e-02 3.53461155e-03 9.08317044e-03 8.54635611e-02 3.33628774e-01 4.17766452e-01 4.52977717e-01 4.92770582e-01 5.34535348e-01 5.70772707e-01 5.97320378e-01 6.12826586e-01 6.16920114e-01 6.09214604e-01 5.90187609e-01 5.64870477e-01 5.51385939e-01 5.86942315e-01 6.95460856e-01 8.12009215e-01 8.80817771e-01 8.95984352e-01 8.02192330e-01 3.60728621e-01 5.51998988e-02 1.22878905e-02 5.02637122e-03 5.14741102e-03 1.24312844e-02 3.74028236e-02 1.05301887e-01 7.59790977e-03 2.56467843e-03 9.59554221e-03 1.50862694e-01 4.11332369e-01 4.46931779e-01 4.58473921e-01 4.90206063e-01 5.26432574e-01 5.59022665e-01 5.83191752e-01 5.97677886e-01 6.02424502e-01 5.98396122e-01 5.89694858e-01 5.86803615e-01 6.11182094e-01 6.86993539e-01 7.90267229e-01 8.59276831e-01 8.88581812e-01 8.63782525e-01 6.41443133e-01 1.89347714e-01 3.43939960e-02 1.30135706e-02 1.11296885e-02 2.10389178e-02 6.43368065e-02 1.66133791e-01 1.15739129e-01 6.30031852e-03 2.03874242e-03 1.06403762e-02 2.45800719e-01 4.66252148e-01 4.65090066e-01 4.61756170e-01 4.86984193e-01 5.17160296e-01 5.42993724e-01 5.61918974e-01 5.74115098e-01 5.80005109e-01 5.81670523e-01 5.86170495e-01 6.07120872e-01 6.61573291e-01 7.51044333e-01 8.28437269e-01 8.70161414e-01 8.79390121e-01 8.30660760e-01 5.89842081e-01 2.16766104e-01 6.16305321e-02 4.58104126e-02 6.86879158e-02 1.85262203e-01 3.77010822e-01 4.85323280e-01 1.40602693e-01 5.69715817e-03 1.71313283e-03 1.17765255e-02 3.17089349e-01 4.93088275e-01 4.70717788e-01 4.65659857e-01 4.84897226e-01 5.06580949e-01 5.23342788e-01 5.36157429e-01 5.46647906e-01 5.55389464e-01 5.64573824e-01 5.81515133e-01 6.18764400e-01 6.86220527e-01 7.72090554e-01 8.32728863e-01 8.60443830e-01 8.64560246e-01 8.28775525e-01 7.06364393e-01 4.81443882e-01 3.15886438e-01 3.35182250e-01 4.85314667e-01 6.18537426e-01 6.78615987e-01 6.90561414e-01 1.66814700e-01 5.36025688e-03 1.50970824e-03 1.37879858e-02 3.59856188e-01 5.03735304e-01 4.67360705e-01 4.67181265e-01 4.81543243e-01 4.93940592e-01 5.02295554e-01 5.10134220e-01 5.19857705e-01 5.32582879e-01 5.50487578e-01 5.78481972e-01 6.23382032e-01 6.88413143e-01 7.61453092e-01 8.12796652e-01 8.34287584e-01 8.38452876e-01 8.23853850e-01 7.88181067e-01 7.52293646e-01 7.43815005e-01 7.68621981e-01 8.08398485e-01 8.31925333e-01 8.29237521e-01 7.97655702e-01 1.84358180e-01 5.11739030e-03 1.45836372e-03 1.82789993e-02 3.97990823e-01 5.08660257e-01 4.61139917e-01 4.64395046e-01 4.74377096e-01 4.80023295e-01 4.83701289e-01 4.88910228e-01 4.97966588e-01 5.13602555e-01 5.39669216e-01 5.78466713e-01 6.27774954e-01 6.82746053e-01 7.36192048e-01 7.75612712e-01 7.95379102e-01 8.02276671e-01 8.01053941e-01 7.93994963e-01 7.90222168e-01 7.97159672e-01 8.07101548e-01 8.10468614e-01 8.07523370e-01 8.04234028e-01 7.88512230e-01 1.90845236e-01 4.85851755e-03 1.56981160e-03 2.81644892e-02 4.40917015e-01 5.07727444e-01 4.55382138e-01 4.59414035e-01 4.65587914e-01 4.67406154e-01 4.69112486e-01 4.72967923e-01 4.80359793e-01 4.95328307e-01 5.25606096e-01 5.74990869e-01 6.34660959e-01 6.90003753e-01 7.33021319e-01 7.61010587e-01 7.75428176e-01 7.81807005e-01 7.83159852e-01 7.78562784e-01 7.67318428e-01 7.50123441e-01 7.29505062e-01 7.11148620e-01 6.99647188e-01 7.04350948e-01 7.12401807e-01 1.94748431e-01 4.91622975e-03 2.20953161e-03 5.55975400e-02 5.18384337e-01 5.28035700e-01 4.69244063e-01 4.72204119e-01 4.75499839e-01 4.73447442e-01 4.71007079e-01 4.70336914e-01 4.72334623e-01 4.81041461e-01 5.07984161e-01 5.64081192e-01 6.41603291e-01 7.16359675e-01 7.69887686e-01 7.97546685e-01 8.05456400e-01 8.02100062e-01 7.91546822e-01 7.73859143e-01 7.48110592e-01 7.13865280e-01 6.73729300e-01 6.36895061e-01 6.14043176e-01 6.18698061e-01 6.47169173e-01 1.56190008e-01 6.46598870e-03 2.51110410e-03 1.26201496e-01 6.57480180e-01 6.13040209e-01 5.28644383e-01 5.24832010e-01 5.24342597e-01 5.20114899e-01 5.15430748e-01 5.11658430e-01 5.09544671e-01 5.12652874e-01 5.31660974e-01 5.78919232e-01 6.50959373e-01 7.24368513e-01 7.77289093e-01 8.04058313e-01 8.10678720e-01 8.04146945e-01 7.87818968e-01 7.63310671e-01 7.33151197e-01 7.00116873e-01 6.66086495e-01 6.34607613e-01 6.12370491e-01 6.09638214e-01 6.31442964e-01 
