# vtk DataFile Version 2.0
results/iter9.vtk, Created by Freefem++ 
ASCII
DATASET UNSTRUCTURED_GRID
POINTS 961 float
0 0 0
0.033333333 0 0
0.066666667 0 0
0.1 0 0
0.13333333 0 0
0.16666667 0 0
0.2 0 0
0.23333333 0 0
0.26666667 0 0
0.3 0 0
0.33333333 0 0
0.36666667 0 0
0.4 0 0
0.43333333 0 0
0.46666667 0 0
0.5 0 0
0.53333333 0 0
0.56666667 0 0
0.6 0 0
0.63333333 0 0
0.66666667 0 0
0.7 0 0
0.73333333 0 0
0.76666667 0 0
0.8 0 0
0.83333333 0 0
0.86666667 0 0
0.9 0 0
0.93333333 0 0
0.96666667 0 0
1 0 0
0 0.033333333 0
0.033333333 0.033333333 0
0.066666667 0.033333333 0
0.1 0.033333333 0
0.13333333 0.033333333 0
0.16666667 0.033333333 0
0.2 0.033333333 0
0.23333333 0.033333333 0
0.26666667 0.033333333 0
0.3 0.033333333 0
0.33333333 0.033333333 0
0.36666667 0.033333333 0
0.4 0.033333333 0
0.43333333 0.033333333 0
0.46666667 0.033333333 0
0.5 0.033333333 0
0.53333333 0.033333333 0
0.56666667 0.033333333 0
0.6 0.033333333 0
0.63333333 0.033333333 0
0.66666667 0.033333333 0
0.7 0.033333333 0
0.73333333 0.033333333 0
0.76666667 0.033333333 0
0.8 0.033333333 0
0.83333333 0.033333333 0
0.86666667 0.033333333 0
0.9 0.033333333 0
0.93333333 0.033333333 0
0.96666667 0.033333333 0
1 0.033333333 0
0 0.066666667 0
0.033333333 0.066666667 0
0.066666667 0.066666667 0
0.1 0.066666667 0
0.13333333 0.066666667 0
0.16666667 0.066666667 0
0.2 0.066666667 0
0.23333333 0.066666667 0
0.26666667 0.066666667 0
0.3 0.066666667 0
0.33333333 0.066666667 0
0.36666667 0.066666667 0
0.4 0.066666667 0
0.43333333 0.066666667 0
0.46666667 0.066666667 0
0.5 0.066666667 0
0.53333333 0.066666667 0
0.56666667 0.066666667 0
0.6 0.066666667 0
0.63333333 0.066666667 0
0.66666667 0.066666667 0
0.7 0.066666667 0
0.73333333 0.066666667 0
0.76666667 0.066666667 0
0.8 0.066666667 0
0.83333333 0.066666667 0
0.86666667 0.066666667 0
0.9 0.066666667 0
0.93333333 0.066666667 0
0.96666667 0.066666667 0
1 0.066666667 0
0 0.1 0
0.033333333 0.1 0
0.066666667 0.1 0
0.1 0.1 0
0.13333333 0.1 0
0.16666667 0.1 0
0.2 0.1 0
0.23333333 0.1 0
0.26666667 0.1 0
0.3 0.1 0
0.33333333 0.1 0
0.36666667 0.1 0
0.4 0.1 0
0.43333333 0.1 0
0.46666667 0.1 0
0.5 0.1 0
0.53333333 0.1 0
0.56666667 0.1 0
0.6 0.1 0
0.63333333 0.1 0
0.66666667 0.1 0
0.7 0.1 0
0.73333333 0.1 0
0.76666667 0.1 0
0.8 0.1 0
0.83333333 0.1 0
0.86666667 0.1 0
0.9 0.1 0
0.93333333 0.1 0
0.96666667 0.1 0
1 0.1 0
0 0.13333333 0
0.033333333 0.13333333 0
0.066666667 0.13333333 0
0.1 0.13333333 0
0.13333333 0.13333333 0
0.16666667 0.13333333 0
0.2 0.13333333 0
0.23333333 0.13333333 0
0.26666667 0.13333333 0
0.3 0.13333333 0
0.33333333 0.13333333 0
0.36666667 0.13333333 0
0.4 0.13333333 0
0.43333333 0.13333333 0
0.46666667 0.13333333 0
0.5 0.13333333 0
0.53333333 0.13333333 0
0.56666667 0.13333333 0
0.6 0.13333333 0
0.63333333 0.13333333 0
0.66666667 0.13333333 0
0.7 0.13333333 0
0.73333333 0.13333333 0
0.76666667 0.13333333 0
0.8 0.13333333 0
0.83333333 0.13333333 0
0.86666667 0.13333333 0
0.9 0.13333333 0
0.93333333 0.13333333 0
0.96666667 0.13333333 0
1 0.13333333 0
0 0.16666667 0
0.033333333 0.16666667 0
0.066666667 0.16666667 0
0.1 0.16666667 0
0.13333333 0.16666667 0
0.16666667 0.16666667 0
0.2 0.16666667 0
0.23333333 0.16666667 0
0.26666667 0.16666667 0
0.3 0.16666667 0
0.33333333 0.16666667 0
0.36666667 0.16666667 0
0.4 0.16666667 0
0.43333333 0.16666667 0
0.46666667 0.16666667 0
0.5 0.16666667 0
0.53333333 0.16666667 0
0.56666667 0.16666667 0
0.6 0.16666667 0
0.63333333 0.16666667 0
0.66666667 0.16666667 0
0.7 0.16666667 0
0.73333333 0.16666667 0
0.76666667 0.16666667 0
0.8 0.16666667 0
0.83333333 0.16666667 0
0.86666667 0.16666667 0
0.9 0.16666667 0
0.93333333 0.16666667 0
0.96666667 0.16666667 0
1 0.16666667 0
0 0.2 0
0.033333333 0.2 0
0.066666667 0.2 0
0.1 0.2 0
0.13333333 0.2 0
0.16666667 0.2 0
0.2 0.2 0
0.23333333 0.2 0
0.26666667 0.2 0
0.3 0.2 0
0.33333333 0.2 0
0.36666667 0.2 0
0.4 0.2 0
0.43333333 0.2 0
0.46666667 0.2 0
0.5 0.2 0
0.53333333 0.2 0
0.56666667 0.2 0
0.6 0.2 0
0.63333333 0.2 0
0.66666667 0.2 0
0.7 0.2 0
0.73333333 0.2 0
0.76666667 0.2 0
0.8 0.2 0
0.83333333 0.2 0
0.86666667 0.2 0
0.9 0.2 0
0.93333333 0.2 0
0.96666667 0.2 0
1 0.2 0
0 0.23333333 0
0.033333333 0.23333333 0
0.066666667 0.23333333 0
0.1 0.23333333 0
0.13333333 0.23333333 0
0.16666667 0.23333333 0
0.2 0.23333333 0
0.23333333 0.23333333 0
0.26666667 0.23333333 0
0.3 0.23333333 0
0.33333333 0.23333333 0
0.36666667 0.23333333 0
0.4 0.23333333 0
0.43333333 0.23333333 0
0.46666667 0.23333333 0
0.5 0.23333333 0
0.53333333 0.23333333 0
0.56666667 0.23333333 0
0.6 0.23333333 0
0.63333333 0.23333333 0
0.66666667 0.23333333 0
0.7 0.23333333 0
0.73333333 0.23333333 0
0.76666667 0.23333333 0
0.8 0.23333333 0
0.83333333 0.23333333 0
0.86666667 0.23333333 0
0.9 0.23333333 0
0.93333333 0.23333333 0
0.96666667 0.23333333 0
1 0.23333333 0
0 0.26666667 0
0.033333333 0.26666667 0
0.066666667 0.26666667 0
0.1 0.26666667 0
0.13333333 0.26666667 0
0.16666667 0.26666667 0
0.2 0.26666667 0
0.23333333 0.26666667 0
0.26666667 0.26666667 0
0.3 0.26666667 0
0.33333333 0.26666667 0
0.36666667 0.26666667 0
0.4 0.26666667 0
0.43333333 0.26666667 0
0.46666667 0.26666667 0
0.5 0.26666667 0
0.53333333 0.26666667 0
0.56666667 0.26666667 0
0.6 0.26666667 0
0.63333333 0.26666667 0
0.66666667 0.26666667 0
0.7 0.26666667 0
0.73333333 0.26666667 0
0.76666667 0.26666667 0
0.8 0.26666667 0
0.83333333 0.26666667 0
0.86666667 0.26666667 0
0.9 0.26666667 0
0.93333333 0.26666667 0
0.96666667 0.26666667 0
1 0.26666667 0
0 0.3 0
0.033333333 0.3 0
0.066666667 0.3 0
0.1 0.3 0
0.13333333 0.3 0
0.16666667 0.3 0
0.2 0.3 0
0.23333333 0.3 0
0.26666667 0.3 0
0.3 0.3 0
0.33333333 0.3 0
0.36666667 0.3 0
0.4 0.3 0
0.43333333 0.3 0
0.46666667 0.3 0
0.5 0.3 0
0.53333333 0.3 0
0.56666667 0.3 0
0.6 0.3 0
0.63333333 0.3 0
0.66666667 0.3 0
0.7 0.3 0
0.73333333 0.3 0
0.76666667 0.3 0
0.8 0.3 0
0.83333333 0.3 0
0.86666667 0.3 0
0.9 0.3 0
0.93333333 0.3 0
0.96666667 0.3 0
1 0.3 0
0 0.33333333 0
0.033333333 0.33333333 0
0.066666667 0.33333333 0
0.1 0.33333333 0
0.13333333 0.33333333 0
0.16666667 0.33333333 0
0.2 0.33333333 0
0.23333333 0.33333333 0
0.26666667 0.33333333 0
0.3 0.33333333 0
0.33333333 0.33333333 0
0.36666667 0.33333333 0
0.4 0.33333333 0
0.43333333 0.33333333 0
0.46666667 0.33333333 0
0.5 0.33333333 0
0.53333333 0.33333333 0
0.56666667 0.33333333 0
0.6 0.33333333 0
0.63333333 0.33333333 0
0.66666667 0.33333333 0
0.7 0.33333333 0
0.73333333 0.33333333 0
0.76666667 0.33333333 0
0.8 0.33333333 0
0.83333333 0.33333333 0
0.86666667 0.33333333 0
0.9 0.33333333 0
0.93333333 0.33333333 0
0.96666667 0.33333333 0
1 0.33333333 0
0 0.36666667 0
0.033333333 0.36666667 0
0.066666667 0.36666667 0
0.1 0.36666667 0
0.13333333 0.36666667 0
0.16666667 0.36666667 0
0.2 0.36666667 0
0.23333333 0.36666667 0
0.26666667 0.36666667 0
0.3 0.36666667 0
0.33333333 0.36666667 0
0.36666667 0.36666667 0
0.4 0.36666667 0
0.43333333 0.36666667 0
0.46666667 0.36666667 0
0.5 0.36666667 0
0.53333333 0.36666667 0
0.56666667 0.36666667 0
0.6 0.36666667 0
0.63333333 0.36666667 0
0.66666667 0.36666667 0
0.7 0.36666667 0
0.73333333 0.36666667 0
0.76666667 0.36666667 0
0.8 0.36666667 0
0.83333333 0.36666667 0
0.86666667 0.36666667 0
0.9 0.36666667 0
0.93333333 0.36666667 0
0.96666667 0.36666667 0
1 0.36666667 0
0 0.4 0
0.033333333 0.4 0
0.066666667 0.4 0
0.1 0.4 0
0.13333333 0.4 0
0.16666667 0.4 0
0.2 0.4 0
0.23333333 0.4 0
0.26666667 0.4 0
0.3 0.4 0
0.33333333 0.4 0
0.36666667 0.4 0
0.4 0.4 0
0.43333333 0.4 0
0.46666667 0.4 0
0.5 0.4 0
0.53333333 0.4 0
0.56666667 0.4 0
0.6 0.4 0
0.63333333 0.4 0
0.66666667 0.4 0
0.7 0.4 0
0.73333333 0.4 0
0.76666667 0.4 0
0.8 0.4 0
0.83333333 0.4 0
0.86666667 0.4 0
0.9 0.4 0
0.93333333 0.4 0
0.96666667 0.4 0
1 0.4 0
0 0.43333333 0
0.033333333 0.43333333 0
0.066666667 0.43333333 0
0.1 0.43333333 0
0.13333333 0.43333333 0
0.16666667 0.43333333 0
0.2 0.43333333 0
0.23333333 0.43333333 0
0.26666667 0.43333333 0
0.3 0.43333333 0
0.33333333 0.43333333 0
0.36666667 0.43333333 0
0.4 0.43333333 0
0.43333333 0.43333333 0
0.46666667 0.43333333 0
0.5 0.43333333 0
0.53333333 0.43333333 0
0.56666667 0.43333333 0
0.6 0.43333333 0
0.63333333 0.43333333 0
0.66666667 0.43333333 0
0.7 0.43333333 0
0.73333333 0.43333333 0
0.76666667 0.43333333 0
0.8 0.43333333 0
0.83333333 0.43333333 0
0.86666667 0.43333333 0
0.9 0.43333333 0
0.93333333 0.43333333 0
0.96666667 0.43333333 0
1 0.43333333 0
0 0.46666667 0
0.033333333 0.46666667 0
0.066666667 0.46666667 0
0.1 0.46666667 0
0.13333333 0.46666667 0
0.16666667 0.46666667 0
0.2 0.46666667 0
0.23333333 0.46666667 0
0.26666667 0.46666667 0
0.3 0.46666667 0
0.33333333 0.46666667 0
0.36666667 0.46666667 0
0.4 0.46666667 0
0.43333333 0.46666667 0
0.46666667 0.46666667 0
0.5 0.46666667 0
0.53333333 0.46666667 0
0.56666667 0.46666667 0
0.6 0.46666667 0
0.63333333 0.46666667 0
0.66666667 0.46666667 0
0.7 0.46666667 0
0.73333333 0.46666667 0
0.76666667 0.46666667 0
0.8 0.46666667 0
0.83333333 0.46666667 0
0.86666667 0.46666667 0
0.9 0.46666667 0
0.93333333 0.46666667 0
0.96666667 0.46666667 0
1 0.46666667 0
0 0.5 0
0.033333333 0.5 0
0.066666667 0.5 0
0.1 0.5 0
0.13333333 0.5 0
0.16666667 0.5 0
0.2 0.5 0
0.23333333 0.5 0
0.26666667 0.5 0
0.3 0.5 0
0.33333333 0.5 0
0.36666667 0.5 0
0.4 0.5 0
0.43333333 0.5 0
0.46666667 0.5 0
0.5 0.5 0
0.53333333 0.5 0
0.56666667 0.5 0
0.6 0.5 0
0.63333333 0.5 0
0.66666667 0.5 0
0.7 0.5 0
0.73333333 0.5 0
0.76666667 0.5 0
0.8 0.5 0
0.83333333 0.5 0
0.86666667 0.5 0
0.9 0.5 0
0.93333333 0.5 0
0.96666667 0.5 0
1 0.5 0
0 0.53333333 0
0.033333333 0.53333333 0
0.066666667 0.53333333 0
0.1 0.53333333 0
0.13333333 0.53333333 0
0.16666667 0.53333333 0
0.2 0.53333333 0
0.23333333 0.53333333 0
0.26666667 0.53333333 0
0.3 0.53333333 0
0.33333333 0.53333333 0
0.36666667 0.53333333 0
0.4 0.53333333 0
0.43333333 0.53333333 0
0.46666667 0.53333333 0
0.5 0.53333333 0
0.53333333 0.53333333 0
0.56666667 0.53333333 0
0.6 0.53333333 0
0.63333333 0.53333333 0
0.66666667 0.53333333 0
0.7 0.53333333 0
0.73333333 0.53333333 0
0.76666667 0.53333333 0
0.8 0.53333333 0
[...]
CELL_DATA 1920
Scalars  Label int 1
LOOKUP_TABLE FreeFempp_table
0
0
0
0
0
0
0
0
0
0
0
0
0
0
0
0
0
0
0
0
0
0
0
0
0
0
0
0
0
0
0
0
0
0
0
0
0
0
0
0
0
0
0
0
0
0
0
0
0
0
0
0
0
0
0
0
0
0
0
0
0
0
0
0
0
0
0
0
0
0
0
0
0
0
0
0
0
0
0
0
0
0
0
0
0
0
0
0
0
0
0
0
0
0
0
0
0
0
0
0
0
0
0
0
0
0
0
0
0
0
0
0
0
0
0
0
0
0
0
0
0
0
0
0
0
0
0
0
0
0
0
0
0
0
0
0
0
0
0
0
0
0
0
0
0
0
0
0
0
0
0
0
0
0
0
0
0
0
0
0
0
0
0
0
0
0
0
0
0
0
0
0
0
0
0
0
0
0
0
0
0
0
0
0
0
0
0
0
0
0
0
0
0
0
0
0
0
0
0
0
0
0
0
0
0
0
0
0
0
0
0
0
0
0
0
0
0
0
0
0
0
0
0
0
0
0
0
0
0
0
0
0
0
0
0
0
0
0
0
0
0
0
0
0
0
0
0
0
0
0
0
0
0
0
0
0
0
0
0
0
0
0
0
0
0
0
0
0
0
0
0
0
0
0
0
0
0
0
0
0
0
0
0
0
0
0
0
0
0
0
0
0
0
0
0
0
0
0
0
0
0
0
0
0
0
0
0
0
0
0
0
0
0
0
0
0
0
0
0
0
0
0
0
0
0
0
0
0
0
0
0
0
0
0
0
0
0
0
0
0
0
0
0
0
0
0
0
0
0
0
0
0
0
0
0
0
0
0
0
0
0
0
0
0
0
0
0
0
0
0
0
0
0
0
0
0
0
0
0
0
0
0
0
0
0
0
0
0
0
0
0
0
0
0
0
0
0
0
0
0
0
0
0
0
0
0
0
0
0
0
0
0
0
0
0
0
0
0
0
0
0
0
0
0
0
0
0
0
0
0
0
0
0
0
0
0
0
0
0
0
0
0
0
0
0
0
0
0
0
0
0
0
0
0
0
0
0
0
0
0
0
0
0
0
0
0
0
0
0
0
0
0
0
0
0
0
0
0
0
0
0
0
0
0
0
0
0
0
0
0
0
0
0
0
0
0
0
0
0
0
0
0
0
0
0
0
0
0
0
0
0
0
0
0
0
0
0
0
0
0
0
0
0
0
0
0
0
0
0
0
0
0
0
0
0
0
0
0
0
0
0
0
0
0
0
0
0
0
0
0
0
0
0
0
0
0
0
0
0
0
0
0
0
0
0
0
0
0
0
0
0
0
0
0
0
0
0
0
0
0
0
0
0
0
0
0
0
0
0
0
0
0
0
0
0
0
0
0
0
0
0
0
0
0
0
0
0
0
0
0
0
0
0
0
0
0
0
0
0
0
0
0
0
0
0
0
0
0
0
0
0
0
0
0
0
0
0
0
0
0
0
0
0
0
0
0
0
0
0
0
0
0
0
0
0
0
0
0
0
0
0
0
0
0
0
0
0
0
0
0
0
0
0
0
0
0
0
0
0
0
0
0
0
0
0
0
0
0
0
0
0
0
0
0
0
0
0
0
0
0
0
0
0
0
0
0
0
0
0
0
0
0
0
0
0
0
0
0
0
0
0
0
0
0
0
0
0
0
0
0
0
0
0
0
0
0
0
0
0
0
0
0
0
0
0
0
0
0
0
0
0
0
0
0
0
0
0
0
0
0
0
0
0
0
0
0
0
0
0
0
0
0
0
0
0
0
0
0
0
0
0
0
0
0
0
0
0
0
0
0
0
0
0
0
0
0
0
0
0
0
0
0
0
0
0
0
0
0
0
0
0
0
0
0
0
0
0
0
0
0
0
0
0
0
0
0
0
0
0
0
0
0
0
0
0
0
0
0
0
0
0
0
0
0
0
0
0
0
0
0
0
0
0
0
0
0
0
0
0
0
0
0
0
0
0
0
0
0
0
0
0
0
0
0
0
0
0
0
0
0
0
0
0
0
0
0
0
0
0
0
0
0
0
0
0
0
0
0
0
0
0
0
0
0
0
0
0
0
0
0
0
0
0
0
0
0
0
0
0
0
0
0
0
0
0
0
0
0
0
0
0
0
0
0
0
0
0
0
0
0
0
0
0
0
0
0
0
0
0
0
0
0
0
0
0
0
0
0
0
0
0
0
0
0
0
0
0
0
0
0
0
0
0
0
0
0
0
0
0
0
0
0
0
0
0
0
0
0
0
0
0
0
0
0
0
0
0
0
0
0
0
0
0
0
0
0
0
0
0
0
0
0
0
0
0
0
0
0
0
0
0
0
0
0
0
0
0
0
0
0
0
0
0
0
0
0
0
0
0
0
0
0
0
0
0
0
0
0
0
0
0
0
0
0
0
0
0
0
0
0
0
0
0
0
0
0
0
0
0
0
0
0
0
0
0
0
0
0
0
0
0
0
0
0
0
0
0
0
0
0
0
0
0
0
0
0
0
0
0
0
0
0
0
0
0
0
0
0
0
0
0
0
0
0
0
0
0
0
0
0
0
0
0
0
0
0
0
0
0
0
0
0
0
0
0
0
0
0
0
0
0
0
0
0
0
0
0
0
0
0
0
0
0
0
0
0
0
0
0
0
0
0
0
0
0
0
0
0
0
0
0
0
0
0
0
0
0
0
0
0
0
0
0
0
0
0
0
0
0
0
0
0
0
0
0
0
0
0
0
0
0
0
0
0
0
0
0
0
0
0
0
0
0
0
0
0
0
0
0
0
0
0
0
0
0
0
0
0
0
0
0
0
0
0
0
0
0
0
0
0
0
0
0
0
0
0
0
0
0
0
0
0
0
0
0
0
0
0
0
0
0
0
0
0
0
0
0
0
0
0
0
0
0
0
0
0
0
0
0
0
0
0
0
0
0
0
0
0
0
0
0
0
0
0
0
0
0
0
0
0
0
0
0
0
0
0
0
0
0
0
0
0
0
0
0
0
0
0
0
0
0
0
0
0
0
0
0
0
0
0
0
0
0
0
0
0
0
0
0
0
0
0
0
0
0
0
0
0
0
0
0
0
0
0
0
0
0
0
0
0
0
0
0
0
0
0
0
0
0
0
0
0
0
0
0
0
0
0
0
0
0
0
0
0
0
0
0
0
0
0
0
0
0
0
0
0
0
0
0
0
0
0
0
0
0
0
0
0
0
0
0
0
0
0
0
0
0
0
0
0
0
0
0
0
0
0
0
0
0
0
0
0
0
0
0
0
0
0
0
0
0
0
0
0
0
0
0
0
0
0
0
0
0
0
0
0
0
0
0
0
0
0
0
0
0
0
0
0
0
0
0
0
0
0
0
0
0
0
0
0
0
0
0
0
0
0
0
0
0
0
0
0
0
0
0
0
0
0
0
0
0
0
0
0
0
0
0
0
0
0
0
0
0
0
0
0
0
0
0
0
0
0
0
0
0
0
0
0
0
0
0
0
0
0
0
0
0
0
0
0
0
0
0
0
0
0
0
0
0
0
0
0
0
0
0
0
0
0
0
0
0
0
0
0
0
0
0
0
0
0
0
0
0
0
0
0
0
0
0
0
0
0
0
0
0
0
0
0
0
0
0
0
0
0
0
0
0
0
0
0
0
0
0
0
0
0
0
0
0
0
0
0
0
0
0
0
0
0
0
0
0
0
0
0
0
0
0
0
0
0
0
0
0
0
0
0
0
0
0
0
0
0
0
0
0
0
0
0
0
0
0
0
0
0
0
0
0
0
0
0
0
0
0
0
0
0
0
0
0
0
0
0
0
0
0
0
0
0
0
0
0
0
0
0
0
0
0
0
0
0
0
0
0
0
0
0
0
0
0
0
0
0
0
0
0
0
0
0
0
0
0
0
0
0
0
0
0
0
0
0
0
0
0
0
0
0
0
0
0
0
0
0
0
0
0
0
0
0
0
0
0
0
0
0
0
0
0
0
0
0
0
0
0
0
0
0
0
0
0
0
0
0
0
0
0
0
0
0
0
0
0
0
0
0
0
0
0
0
0
0
0
0
0
0
0
0
0
0
0
0
0
0
0
0
0
0
0
0
0
0
1
1
1
1
1
1
1
1
1
1
1
1
1
1
1
1
1
1
1
1
1
1
1
1
1
1
1
1
1
1
2
2
2
2
2
2
2
2
2
2
2
2
2
2
2
2
2
2
2
2
2
2
2
2
2
2
2
2
2
2
3
3
3
3
3
3
3
3
3
3
3
3
3
3
3
3
3
3
3
3
3
3
3
3
3
3
3
3
3
3
4
4
4
4
4
4
4
4
4
4
4
4
4
4
4
4
4
4
4
4
4
4
4
4
4
4
4
4
4
4

LOOKUP_TABLE FreeFempp_table 5
1.00000000 0.00000000 0.00000000 1.00000000
1.00000000 1.00000000 0.00000000 1.00000000
1.00000000 0.00000000 1.00000000 1.00000000
0.00000000 1.00000000 0.00000000 1.00000000
0.00000000 1.00000000 1.00000000 1.00000000

POINT_DATA 961
FIELD FieldData 1
Density 1 961 float
4.06751543e-01 1.24605708e-01 1.81125943e-02 8.66715889e-03 1.42673887e-02 4.90131788e-02 1.36696652e-01 2.10149020e-01 2.34636337e-01 2.18818784e-01 1.66544408e-01 1.55171499e-01 2.23182127e-01 3.47224712e-01 4.55404371e-01 5.34151256e-01 5.93172669e-01 6.34502709e-01 6.68230772e-01 7.07360625e-01 7.41243124e-01 7.47086227e-01 7.43664742e-01 8.04324448e-01 9.13844943e-01 9.60162580e-01 8.66956830e-01 1.59439087e-01 4.64022793e-02 1.22637719e-01 3.10134709e-01 2.01984182e-01 7.64147714e-02 1.37269599e-02 5.69644803e-03 7.77645456e-03 2.53324155e-02 8.17419812e-02 1.33355841e-01 1.45084843e-01 1.55274838e-01 1.23122528e-01 9.67297032e-02 1.31177023e-01 2.33999237e-01 3.56559038e-01 4.61757004e-01 5.49286425e-01 6.13431334e-01 6.62514329e-01 7.14793682e-01 7.62124658e-01 7.76815236e-01 7.72611797e-01 8.26917887e-01 9.31739330e-01 9.74425197e-01 9.26082671e-01 1.44541293e-01 2.36894358e-02 4.92035039e-02 2.06378058e-01 6.04098896e-03 6.46176655e-03 4.40032734e-03 3.03436629e-03 3.72905564e-03 9.75826848e-03 3.42340209e-02 6.02060035e-02 6.72953799e-02 1.24301538e-01 1.77047074e-01 1.00749210e-01 1.08150251e-01 1.89607620e-01 3.05046380e-01 4.12018090e-01 5.04141510e-01 5.71605980e-01 6.25213087e-01 6.87744558e-01 7.48632967e-01 7.73903310e-01 7.73059547e-01 8.20317328e-01 9.22706366e-01 9.70823467e-01 9.31143820e-01 1.61176726e-01 1.73384659e-02 2.99013797e-02 1.46678925e-01 6.19499071e-04 6.89483481e-04 7.00171629e-04 6.91770401e-04 7.32937653e-04 1.03020645e-03 1.75281602e-03 2.42306129e-03 3.39724147e-03 1.33687593e-02 1.66693524e-01 9.54837501e-02 9.04214680e-02 1.68720618e-01 2.71091759e-01 3.70571315e-01 4.62497801e-01 5.29830098e-01 5.83201706e-01 6.54314697e-01 7.29031920e-01 7.61166036e-01 7.55990684e-01 7.93212652e-01 9.00147498e-01 9.61827695e-01 9.31412280e-01 2.06099823e-01 1.63294468e-02 2.40049399e-02 1.35663629e-01 1.10819843e-02 8.87985900e-03 6.65574381e-03 4.06955136e-03 2.22614640e-03 1.22281059e-03 7.72590924e-04 5.04705822e-04 4.93999862e-04 1.16481679e-03 4.14475985e-03 4.79946332e-03 1.69462208e-02 1.02583691e-01 2.30025545e-01 3.16144288e-01 4.05344367e-01 4.83835459e-01 5.48534036e-01 6.31503940e-01 7.15759337e-01 7.47723997e-01 7.32810318e-01 7.57166743e-01 8.69584918e-01 9.48704422e-01 9.31177080e-01 2.93073148e-01 1.67508721e-02 1.98570285e-02 1.18984662e-01 8.29100370e-01 8.35829318e-01 7.70566761e-01 5.28188944e-01 1.84753790e-01 4.49950136e-02 1.83110181e-02 9.14316345e-03 6.03257306e-03 5.19361254e-03 4.98104701e-03 2.07473035e-03 1.49104034e-03 8.05656705e-03 9.31690410e-02 2.48129129e-01 3.58116120e-01 4.66379702e-01 5.53958952e-01 6.39672041e-01 7.15285838e-01 7.30442524e-01 6.97600961e-01 7.10606456e-01 8.31070840e-01 9.32000697e-01 9.30996180e-01 4.15177643e-01 1.82860140e-02 1.68841109e-02 9.96711552e-02 8.70347798e-01 7.77860343e-01 6.20746613e-01 7.99569428e-01 8.85752976e-01 7.71267593e-01 6.70480311e-01 6.08943403e-01 5.23672163e-01 4.20765221e-01 2.78210133e-01 7.63357133e-02 4.77764010e-03 1.37105852e-03 6.26449054e-03 1.03384182e-01 3.65141332e-01 5.57105243e-01 6.45075142e-01 6.89380705e-01 7.24498868e-01 7.07156718e-01 6.48034155e-01 6.51192248e-01 7.83316016e-01 9.11464274e-01 9.31515813e-01 5.49593866e-01 2.10601948e-02 1.44506684e-02 7.66052529e-02 7.74898350e-01 2.44324535e-01 3.82382236e-02 1.19709894e-01 4.04803306e-01 4.98395056e-01 5.38303375e-01 6.86615050e-01 7.51985490e-01 7.58691430e-01 7.29104042e-01 6.10105991e-01 1.85667291e-01 5.97159844e-03 1.48146274e-03 9.81809851e-03 2.27244958e-01 6.87333822e-01 7.42118418e-01 7.23614037e-01 7.15569019e-01 6.68578863e-01 5.89474738e-01 5.85757196e-01 7.29878366e-01 8.88208747e-01 9.30486739e-01 6.61239564e-01 2.59024482e-02 1.23730814e-02 5.06465361e-02 8.22037458e-01 3.73080939e-01 1.20177194e-02 1.12631395e-02 7.14337304e-02 1.79610491e-01 2.83831775e-01 4.91169006e-01 6.63657606e-01 7.53555119e-01 8.04390550e-01 8.40329647e-01 8.28148425e-01 2.21938655e-01 4.62672161e-03 2.52765091e-03 1.63390227e-02 1.62462965e-01 5.67100167e-01 6.18266702e-01 6.25041604e-01 6.07003808e-01 5.45289099e-01 5.39561391e-01 6.84754372e-01 8.65651071e-01 9.25862849e-01 7.30635166e-01 3.52647454e-02 1.12632122e-02 3.01108956e-02 8.15911114e-01 5.11081874e-01 1.26659870e-02 3.95328831e-03 1.55399656e-02 8.76688436e-02 2.13114575e-01 4.26456571e-01 6.29529536e-01 7.47063220e-01 8.14690828e-01 8.67820323e-01 9.36150789e-01 9.50272560e-01 1.02201119e-01 4.50295629e-03 4.43835510e-03 1.35170855e-02 1.24021307e-01 3.22596431e-01 4.60819602e-01 5.55538058e-01 5.53499877e-01 5.46203136e-01 6.70477211e-01 8.50410581e-01 9.18144941e-01 7.61823177e-01 5.39707690e-02 1.19742751e-02 2.01304257e-02 7.89141715e-01 5.31856775e-01 1.48018636e-02 2.50803749e-03 6.78714551e-03 5.94199672e-02 2.02507287e-01 4.35023725e-01 6.49654686e-01 7.57905543e-01 8.00084352e-01 8.16712379e-01 8.79861116e-01 9.78813350e-01 9.83912647e-01 5.70625179e-02 4.08257172e-03 1.08030150e-02 6.56030774e-02 3.28985184e-01 5.13515592e-01 6.20938361e-01 6.34080112e-01 6.14156544e-01 6.96927607e-01 8.47733736e-01 9.10543263e-01 7.70724118e-01 8.37493464e-02 1.49915032e-02 1.77367907e-02 7.66921341e-01 5.32705784e-01 1.85829960e-02 2.06159358e-03 4.37302701e-03 5.57486080e-02 2.31942952e-01 4.70392078e-01 6.76024318e-01 7.67234802e-01 7.74453998e-01 7.19429135e-01 6.82031572e-01 8.52061033e-01 9.83280778e-01 8.80664051e-01 3.30658853e-02 3.96838933e-02 4.50216025e-01 7.23187864e-01 7.55144656e-01 7.64824510e-01 7.45965004e-01 7.09924161e-01 7.49080062e-01 8.55074942e-01 9.04464900e-01 7.72039771e-01 1.17915764e-01 2.09192950e-02 2.06676926e-02 7.53085613e-01 5.32719791e-01 2.40543224e-02 1.97420525e-03 3.45635251e-03 5.95141128e-02 3.13228875e-01 5.34783423e-01 6.91841662e-01 7.57129550e-01 7.34171808e-01 6.17235482e-01 4.60679173e-01 4.73985165e-01 7.85906136e-01 9.04797733e-01 4.53786820e-01 5.68646550e-01 8.64965737e-01 9.00888324e-01 8.76591980e-01 8.55008960e-01 8.26510072e-01 7.91537583e-01 8.04018617e-01 8.68289411e-01 9.00183618e-01 7.73804069e-01 1.60808280e-01 3.31406146e-02 3.17142606e-02 7.48785257e-01 5.26590884e-01 2.66818721e-02 1.89878023e-03 3.01353238e-03 6.59422055e-02 4.38628465e-01 6.22345448e-01 6.99313402e-01 7.22305238e-01 6.69672191e-01 5.28338253e-01 3.50973248e-01 2.75095552e-01 3.88454527e-01 6.52565002e-01 7.05648303e-01 8.39447796e-01 9.28036034e-01 9.30558383e-01 9.13720310e-01 8.95918131e-01 8.71563554e-01 8.44557762e-01 8.45965862e-01 8.81738484e-01 8.97919893e-01 7.81769216e-01 2.34537065e-01 6.34335652e-02 6.47902861e-02 7.49310851e-01 5.09014845e-01 2.24690121e-02 1.61361205e-03 2.67890538e-03 7.15740994e-02 5.60867548e-01 7.02848077e-01 6.98900998e-01 6.67015254e-01 5.84241271e-01 4.47048247e-01 3.06319267e-01 2.33393848e-01 2.67122120e-01 4.37241614e-01 6.55416071e-01 8.40036392e-01 9.15820837e-01 9.27289784e-01 9.21712160e-01 9.10592079e-01 8.92957926e-01 8.74253571e-01 8.72777820e-01 8.92229259e-01 8.97236347e-01 7.99180806e-01 3.63004416e-01 1.40581027e-01 1.57215640e-01 7.46276557e-01 4.80698705e-01 1.58316605e-02 1.23787997e-03 2.45746877e-03 7.73008689e-02 6.44950867e-01 7.55965590e-01 6.87965870e-01 5.98167777e-01 4.91723031e-01 3.75012398e-01 2.79969454e-01 2.34458551e-01 2.59307384e-01 3.85965258e-01 6.03154242e-01 7.95901477e-01 8.83566499e-01 9.09078717e-01 9.13263261e-01 9.08473790e-01 8.97405088e-01 8.85773242e-01 8.84993732e-01 8.96318197e-01 8.95203054e-01 8.17958891e-01 5.17320812e-01 2.85393476e-01 3.23487848e-01 7.36053109e-01 4.44908261e-01 1.12725366e-02 9.98006319e-04 2.55239452e-03 9.31551605e-02 7.02277720e-01 7.83836782e-01 6.65619731e-01 5.23647666e-01 4.06156301e-01 3.16532612e-01 2.57876068e-01 2.37642661e-01 2.69172966e-01 3.76957804e-01 5.61200261e-01 7.38449633e-01 8.36477578e-01 8.76513839e-01 8.90973508e-01 8.93154204e-01 8.88392329e-01 8.82722437e-01 8.83665800e-01 8.91057849e-01 8.86158526e-01 8.22575748e-01 6.20454669e-01 4.31496680e-01 4.62827235e-01 7.21816480e-01 4.07895893e-01 8.41451716e-03 9.06697591e-04 3.06685921e-03 1.34201244e-01 7.49554038e-01 7.93722272e-01 6.33345485e-01 4.53360677e-01 3.37434977e-01 2.72626340e-01 2.38624275e-01 2.34187528e-01 2.69789904e-01 3.62728864e-01 5.13616621e-01 6.69954360e-01 7.74771690e-01 8.29319060e-01 8.55250835e-01 8.65629137e-01 8.67572844e-01 8.67453814e-01 8.70706677e-01 8.75820398e-01 8.67218852e-01 8.09125662e-01 6.57468736e-01 5.10342717e-01 5.23683906e-01 7.09307492e-01 3.77463311e-01 6.53129537e-03 8.70681251e-04 3.91549803e-03 2.07476497e-01 7.84592509e-01 7.87974060e-01 5.93833685e-01 3.96292388e-01 2.89800018e-01 2.42964521e-01 2.24002779e-01 2.27586299e-01 2.62004226e-01 3.39725971e-01 4.61891145e-01 5.97111881e-01 7.03292549e-01 7.69804180e-01 8.07372868e-01 8.26928437e-01 8.36230397e-01 8.41679871e-01 8.47551346e-01 8.50970030e-01 8.38171780e-01 7.82008708e-01 6.58807099e-01 5.40666163e-01 5.44641614e-01 7.01374650e-01 3.55130225e-01 5.33114467e-03 8.26099829e-04 4.94064949e-03 2.96269923e-01 7.97571957e-01 7.66162455e-01 5.52537322e-01 3.57040435e-01 2.62167424e-01 2.26327375e-01 2.15716124e-01 2.22804606e-01 2.53322512e-01 3.16314250e-01 4.13732409e-01 5.27836680e-01 6.29304230e-01 7.02908039e-01 7.50486672e-01 7.79211164e-01 7.95964122e-01 8.07030559e-01 8.15341473e-01 8.17513645e-01 8.01691055e-01 7.48429477e-01 6.48344100e-01 5.56107223e-01 5.58964550e-01 6.98551178e-01 3.36862326e-01 4.56048921e-03 7.69372622e-04 6.13313168e-03 3.64512712e-01 7.81480134e-01 7.26561487e-01 5.14494836e-01 3.34759384e-01 2.50428557e-01 2.20536947e-01 2.14110821e-01 2.22435489e-01 2.48522267e-01 2.98626691e-01 3.75000775e-01 4.68356669e-01 5.59707344e-01 6.34323239e-01 6.88480854e-01 7.24785805e-01 7.48385370e-01 7.64411807e-01 7.74929821e-01 7.76525915e-01 7.59957492e-01 7.12726891e-01 6.34439290e-01 5.66401839e-01 5.72987318e-01 7.01178610e-01 3.14174473e-01 4.00295528e-03 7.66528305e-04 8.12580250e-03 3.97431582e-01 7.38193572e-01 6.69413269e-01 4.79920894e-01 3.24455589e-01 2.49569371e-01 2.22845733e-01 2.18261391e-01 2.26724029e-01 2.48768300e-01 2.88249075e-01 3.47218186e-01 4.21279162e-01 4.99090463e-01 5.68958402e-01 6.24742150e-01 6.65799320e-01 6.94445670e-01 7.14237928e-01 7.26691127e-01 7.28849053e-01 7.13620901e-01 6.75041676e-01 6.16700470e-01 5.69776297e-01 5.82281470e-01 6.96364820e-01 2.58676112e-01 3.43594118e-03 9.34970740e-04 1.33241024e-02 4.11981851e-01 6.80611134e-01 6.03186667e-01 4.47531313e-01 3.20496559e-01 2.55179524e-01 2.30568141e-01 2.26577699e-01 2.34537065e-01 2.53062487e-01 2.83941805e-01 3.28734279e-01 3.85714859e-01 4.48700100e-01 5.09517014e-01 5.62045515e-01 6.03762150e-01 6.34780705e-01 6.56759560e-01 6.70774162e-01 6.74264908e-01 6.62370265e-01 6.33118153e-01 5.91621757e-01 5.62990308e-01 5.83646595e-01 6.62109137e-01 1.45072043e-01 2.55732494e-03 1.32298330e-03 2.85539478e-02 4.26759094e-01 6.20980501e-01 5.40933609e-01 4.19151336e-01 3.19790184e-01 2.64320701e-01 2.41530478e-01 2.37347245e-01 2.44187430e-01 2.59443074e-01 2.83238232e-01 3.16482693e-01 3.58789980e-01 4.07137692e-01 4.56417084e-01 5.01699030e-01 5.40022194e-01 5.70387304e-01 5.92800319e-01 6.07420623e-01 6.12597287e-01 6.05183184e-01 5.84875107e-01 5.56832075e-01 5.44148982e-01 5.75811982e-01 6.00888252e-01 6.36159033e-02 1.62198325e-03 1.80079939e-03 6.06282093e-02 4.38170224e-01 5.63095629e-01 4.90012378e-01 3.97630990e-01 3.21679622e-01 2.75320977e-01 2.54018843e-01 2.48921648e-01 2.53868818e-01 2.65656352e-01 2.83235222e-01 3.06876928e-01 3.36735964e-01 3.71535629e-01 4.08413649e-01 4.43950653e-01 4.75551099e-01 5.02072752e-01 5.22939980e-01 5.37097931e-01 5.43518305e-01 5.40673435e-01 5.28341115e-01 5.10235012e-01 5.11098266e-01 5.57563722e-01 5.41659832e-01 4.00939174e-02 1.14085397e-03 2.24626320e-03 1.01941757e-01 4.36750412e-01 5.08709133e-01 4.50572670e-01 3.83028567e-01 3.25583518e-01 2.86813557e-01 2.66437799e-01 2.59680599e-01 2.61818022e-01 2.69528270e-01 2.81119049e-01 2.96390235e-01 3.15651804e-01 3.38496625e-01 3.63412380e-01 3.88228595e-01 4.11109865e-01 4.31038976e-01 4.47640091e-01 4.59887981e-01 4.66364145e-01 4.66499180e-01 4.60399270e-01 4.49091971e-01 4.60715681e-01 5.25854051e-01 5.25726080e-01 4.72535752e-02 1.13387150e-03 2.62637832e-03 1.43046051e-01 4.25305963e-01 4.61410195e-01 4.20134217e-01 3.73024493e-01 3.29883546e-01 2.97057688e-01 2.76995927e-01 2.67890275e-01 2.66287297e-01 2.69087702e-01 2.74478734e-01 2.82075763e-01 2.92184651e-01 3.04739624e-01 3.18913877e-01 3.33403677e-01 3.47041190e-01 3.59092921e-01 3.69222343e-01 3.77121568e-01 3.81930828e-01 3.83048713e-01 3.80354941e-01 3.72968137e-01 3.93015802e-01 4.78753150e-01 5.65906167e-01 1.36336118e-01 1.99513044e-03 2.94824294e-03 1.77886620e-01 4.10098821e-01 4.22614783e-01 3.96430373e-01 3.64837766e-01 3.32254082e-01 3.03841501e-01 2.83533692e-01 2.71481544e-01 2.65331328e-01 2.62450486e-01 2.61305094e-01 2.61658162e-01 2.63821065e-01 2.67774463e-01 2.72974491e-01 2.78618842e-01 2.83997059e-01 2.88616568e-01 2.92145610e-01 2.94417500e-01 2.95431912e-01 2.95183927e-01 2.93089539e-01 2.87773162e-01 3.14642072e-01 4.18487698e-01 5.57323277e-01 2.40474522e-01 3.12509155e-03 3.11897648e-03 1.92948848e-01 3.89557362e-01 3.90344560e-01 3.76273304e-01 3.54901403e-01 3.29118669e-01 3.03518087e-01 2.82263219e-01 2.66564190e-01 2.55201250e-01 2.46327043e-01 2.38805696e-01 2.32598469e-01 2.28102446e-01 2.25316048e-01 2.23801643e-01 2.23005295e-01 2.22480118e-01 2.21855581e-01 2.20760152e-01 2.18881100e-01 2.16214910e-01 2.13183969e-01 2.09977672e-01 2.06821427e-01 2.38422632e-01 3.53311986e-01 5.63235223e-01 2.83071876e-01 3.60340206e-03 3.43009061e-03 2.16647699e-01 4.02070016e-01 3.96179765e-01 3.87743056e-01 3.71088654e-01 3.48855585e-01 3.24712425e-01 3.01844209e-01 2.81924635e-01 2.65191793e-01 2.51090854e-01 2.38868266e-01 2.28206664e-01 2.19245508e-01 2.12061927e-01 2.06355453e-01 2.01723516e-01 1.97909087e-01 1.94638386e-01 1.91498920e-01 1.87969804e-01 1.83666810e-01 1.78756341e-01 1.74183354e-01 1.71805680e-01 1.96947694e-01 3.05729210e-01 5.93205512e-01 4.00531977e-01 5.09158242e-03 3.09244124e-03 2.75016665e-01 5.01431823e-01 4.73769158e-01 4.67529953e-01 4.54567581e-01 4.36773121e-01 4.16594595e-01 3.95782948e-01 3.75633538e-01 3.57200116e-01 3.41117382e-01 3.27318728e-01 3.15320611e-01 3.04811865e-01 2.95812190e-01 2.88148314e-01 2.81539887e-01 2.75925487e-01 2.71190017e-01 2.66949981e-01 2.62550086e-01 2.57271022e-01 2.50880092e-01 2.44538099e-01 2.41612241e-01 2.58215845e-01 3.48167032e-01 
