# vtk DataFile Version 2.0
results/iter3.vtk, Created by Freefem++ 
ASCII
DATASET UNSTRUCTURED_GRID
POINTS 961 float
0 0 0
0.033333333 0 0
0.066666667 0 0
0.1 0 0
0.13333333 0 0
0.16666667 0 0
0.2 0 0
0.23333333 0 0
0.26666667 0 0
0.3 0 0
0.33333333 0 0
0.36666667 0 0
0.4 0 0
0.43333333 0 0
0.46666667 0 0
0.5 0 0
0.53333333 0 0
0.56666667 0 0
0.6 0 0
0.63333333 0 0
0.66666667 0 0
0.7 0 0
0.73333333 0 0
0.76666667 0 0
0.8 0 0
0.83333333 0 0
0.86666667 0 0
0.9 0 0
0.93333333 0 0
0.96666667 0 0
1 0 0
0 0.033333333 0
0.033333333 0.033333333 0
0.066666667 0.033333333 0
0.1 0.033333333 0
0.13333333 0.033333333 0
0.16666667 0.033333333 0
0.2 0.033333333 0
0.23333333 0.033333333 0
0.26666667 0.033333333 0
0.3 0.033333333 0
0.33333333 0.033333333 0
0.36666667 0.033333333 0
0.4 0.033333333 0
0.43333333 0.033333333 0
0.46666667 0.033333333 0
0.5 0.033333333 0
0.53333333 0.033333333 0
0.56666667 0.033333333 0
0.6 0.033333333 0
0.63333333 0.033333333 0
0.66666667 0.033333333 0
0.7 0.033333333 0
0.73333333 0.033333333 0
0.76666667 0.033333333 0
0.8 0.033333333 0
0.83333333 0.033333333 0
0.86666667 0.033333333 0
0.9 0.033333333 0
0.93333333 0.033333333 0
0.96666667 0.033333333 0
1 0.033333333 0
0 0.066666667 0
0.033333333 0.066666667 0
0.066666667 0.066666667 0
0.1 0.066666667 0
0.13333333 0.066666667 0
0.16666667 0.066666667 0
0.2 0.066666667 0
0.23333333 0.066666667 0
0.26666667 0.066666667 0
0.3 0.066666667 0
0.33333333 0.066666667 0
0.36666667 0.066666667 0
0.4 0.066666667 0
0.43333333 0.066666667 0
0.46666667 0.066666667 0
0.5 0.066666667 0
0.53333333 0.066666667 0
0.56666667 0.066666667 0
0.6 0.066666667 0
0.63333333 0.066666667 0
0.66666667 0.066666667 0
0.7 0.066666667 0
0.73333333 0.066666667 0
0.76666667 0.066666667 0
0.8 0.066666667 0
0.83333333 0.066666667 0
0.86666667 0.066666667 0
0.9 0.066666667 0
0.93333333 0.066666667 0
0.96666667 0.066666667 0
1 0.066666667 0
0 0.1 0
0.033333333 0.1 0
0.066666667 0.1 0
0.1 0.1 0
0.13333333 0.1 0
0.16666667 0.1 0
0.2 0.1 0
0.23333333 0.1 0
0.26666667 0.1 0
0.3 0.1 0
0.33333333 0.1 0
0.36666667 0.1 0
0.4 0.1 0
0.43333333 0.1 0
0.46666667 0.1 0
0.5 0.1 0
0.53333333 0.1 0
0.56666667 0.1 0
0.6 0.1 0
0.63333333 0.1 0
0.66666667 0.1 0
0.7 0.1 0
0.73333333 0.1 0
0.76666667 0.1 0
0.8 0.1 0
0.83333333 0.1 0
0.86666667 0.1 0
0.9 0.1 0
0.93333333 0.1 0
0.96666667 0.1 0
1 0.1 0
0 0.13333333 0
0.033333333 0.13333333 0
0.066666667 0.13333333 0
0.1 0.13333333 0
0.13333333 0.13333333 0
0.16666667 0.13333333 0
0.2 0.13333333 0
0.23333333 0.13333333 0
0.26666667 0.13333333 0
0.3 0.13333333 0
0.33333333 0.13333333 0
0.36666667 0.13333333 0
0.4 0.13333333 0
0.43333333 0.13333333 0
0.46666667 0.13333333 0
0.5 0.13333333 0
0.53333333 0.13333333 0
0.56666667 0.13333333 0
0.6 0.13333333 0
0.63333333 0.13333333 0
0.66666667 0.13333333 0
0.7 0.13333333 0
0.73333333 0.13333333 0
0.76666667 0.13333333 0
0.8 0.13333333 0
0.83333333 0.13333333 0
0.86666667 0.13333333 0
0.9 0.13333333 0
0.93333333 0.13333333 0
0.96666667 0.13333333 0
1 0.13333333 0
0 0.16666667 0
0.033333333 0.16666667 0
0.066666667 0.16666667 0
0.1 0.16666667 0
0.13333333 0.16666667 0
0.16666667 0.16666667 0
0.2 0.16666667 0
0.23333333 0.16666667 0
0.26666667 0.16666667 0
0.3 0.16666667 0
0.33333333 0.16666667 0
0.36666667 0.16666667 0
0.4 0.16666667 0
0.43333333 0.16666667 0
0.46666667 0.16666667 0
0.5 0.16666667 0
0.53333333 0.16666667 0
0.56666667 0.16666667 0
0.6 0.16666667 0
0.63333333 0.16666667 0
0.66666667 0.16666667 0
0.7 0.16666667 0
0.73333333 0.16666667 0
0.76666667 0.16666667 0
0.8 0.16666667 0
0.83333333 0.16666667 0
0.86666667 0.16666667 0
0.9 0.16666667 0
0.93333333 0.16666667 0
0.96666667 0.16666667 0
1 0.16666667 0
0 0.2 0
0.033333333 0.2 0
0.066666667 0.2 0
0.1 0.2 0
0.13333333 0.2 0
0.16666667 0.2 0
0.2 0.2 0
0.23333333 0.2 0
0.26666667 0.2 0
0.3 0.2 0
0.33333333 0.2 0
0.36666667 0.2 0
0.4 0.2 0
0.43333333 0.2 0
0.46666667 0.2 0
0.5 0.2 0
0.53333333 0.2 0
0.56666667 0.2 0
0.6 0.2 0
0.63333333 0.2 0
0.66666667 0.2 0
0.7 0.2 0
0.73333333 0.2 0
0.76666667 0.2 0
0.8 0.2 0
0.83333333 0.2 0
0.86666667 0.2 0
0.9 0.2 0
0.93333333 0.2 0
0.96666667 0.2 0
1 0.2 0
0 0.23333333 0
0.033333333 0.23333333 0
0.066666667 0.23333333 0
0.1 0.23333333 0
0.13333333 0.23333333 0
0.16666667 0.23333333 0
0.2 0.23333333 0
0.23333333 0.23333333 0
0.26666667 0.23333333 0
0.3 0.23333333 0
0.33333333 0.23333333 0
0.36666667 0.23333333 0
0.4 0.23333333 0
0.43333333 0.23333333 0
0.46666667 0.23333333 0
0.5 0.23333333 0
0.53333333 0.23333333 0
0.56666667 0.23333333 0
0.6 0.23333333 0
0.63333333 0.23333333 0
0.66666667 0.23333333 0
0.7 0.23333333 0
0.73333333 0.23333333 0
0.76666667 0.23333333 0
0.8 0.23333333 0
0.83333333 0.23333333 0
0.86666667 0.23333333 0
0.9 0.23333333 0
0.93333333 0.23333333 0
0.96666667 0.23333333 0
1 0.23333333 0
0 0.26666667 0
0.033333333 0.26666667 0
0.066666667 0.26666667 0
0.1 0.26666667 0
0.13333333 0.26666667 0
0.16666667 0.26666667 0
0.2 0.26666667 0
0.23333333 0.26666667 0
0.26666667 0.26666667 0
0.3 0.26666667 0
0.33333333 0.26666667 0
0.36666667 0.26666667 0
0.4 0.26666667 0
0.43333333 0.26666667 0
0.46666667 0.26666667 0
0.5 0.26666667 0
0.53333333 0.26666667 0
0.56666667 0.26666667 0
0.6 0.26666667 0
0.63333333 0.26666667 0
0.66666667 0.26666667 0
0.7 0.26666667 0
0.73333333 0.26666667 0
0.76666667 0.26666667 0
0.8 0.26666667 0
0.83333333 0.26666667 0
0.86666667 0.26666667 0
0.9 0.26666667 0
0.93333333 0.26666667 0
0.96666667 0.26666667 0
1 0.26666667 0
0 0.3 0
0.033333333 0.3 0
0.066666667 0.3 0
0.1 0.3 0
0.13333333 0.3 0
0.16666667 0.3 0
0.2 0.3 0
0.23333333 0.3 0
0.26666667 0.3 0
0.3 0.3 0
0.33333333 0.3 0
0.36666667 0.3 0
0.4 0.3 0
0.43333333 0.3 0
0.46666667 0.3 0
0.5 0.3 0
0.53333333 0.3 0
0.56666667 0.3 0
0.6 0.3 0
0.63333333 0.3 0
0.66666667 0.3 0
0.7 0.3 0
0.73333333 0.3 0
0.76666667 0.3 0
0.8 0.3 0
0.83333333 0.3 0
0.86666667 0.3 0
0.9 0.3 0
0.93333333 0.3 0
0.96666667 0.3 0
1 0.3 0
0 0.33333333 0
0.033333333 0.33333333 0
0.066666667 0.33333333 0
0.1 0.33333333 0
0.13333333 0.33333333 0
0.16666667 0.33333333 0
0.2 0.33333333 0
0.23333333 0.33333333 0
0.26666667 0.33333333 0
0.3 0.33333333 0
0.33333333 0.33333333 0
0.36666667 0.33333333 0
0.4 0.33333333 0
0.43333333 0.33333333 0
0.46666667 0.33333333 0
0.5 0.33333333 0
0.53333333 0.33333333 0
0.56666667 0.33333333 0
0.6 0.33333333 0
0.63333333 0.33333333 0
0.66666667 0.33333333 0
0.7 0.33333333 0
0.73333333 0.33333333 0
0.76666667 0.33333333 0
0.8 0.33333333 0
0.83333333 0.33333333 0
0.86666667 0.33333333 0
0.9 0.33333333 0
0.93333333 0.33333333 0
0.96666667 0.33333333 0
1 0.33333333 0
0 0.36666667 0
0.033333333 0.36666667 0
0.066666667 0.36666667 0
0.1 0.36666667 0
0.13333333 0.36666667 0
0.16666667 0.36666667 0
0.2 0.36666667 0
0.23333333 0.36666667 0
0.26666667 0.36666667 0
0.3 0.36666667 0
0.33333333 0.36666667 0
0.36666667 0.36666667 0
0.4 0.36666667 0
0.43333333 0.36666667 0
0.46666667 0.36666667 0
0.5 0.36666667 0
0.53333333 0.36666667 0
0.56666667 0.36666667 0
0.6 0.36666667 0
0.63333333 0.36666667 0
0.66666667 0.36666667 0
0.7 0.36666667 0
0.73333333 0.36666667 0
0.76666667 0.36666667 0
0.8 0.36666667 0
0.83333333 0.36666667 0
0.86666667 0.36666667 0
0.9 0.36666667 0
0.93333333 0.36666667 0
0.96666667 0.36666667 0
1 0.36666667 0
0 0.4 0
0.033333333 0.4 0
0.066666667 0.4 0
0.1 0.4 0
0.13333333 0.4 0
0.16666667 0.4 0
0.2 0.4 0
0.23333333 0.4 0
0.26666667 0.4 0
0.3 0.4 0
0.33333333 0.4 0
0.36666667 0.4 0
0.4 0.4 0
0.43333333 0.4 0
0.46666667 0.4 0
0.5 0.4 0
0.53333333 0.4 0
0.56666667 0.4 0
0.6 0.4 0
0.63333333 0.4 0
0.66666667 0.4 0
0.7 0.4 0
0.73333333 0.4 0
0.76666667 0.4 0
0.8 0.4 0
0.83333333 0.4 0
0.86666667 0.4 0
0.9 0.4 0
0.93333333 0.4 0
0.96666667 0.4 0
1 0.4 0
0 0.43333333 0
0.033333333 0.43333333 0
0.066666667 0.43333333 0
0.1 0.43333333 0
0.13333333 0.43333333 0
0.16666667 0.43333333 0
0.2 0.43333333 0
0.23333333 0.43333333 0
0.26666667 0.43333333 0
0.3 0.43333333 0
0.33333333 0.43333333 0
0.36666667 0.43333333 0
0.4 0.43333333 0
0.43333333 0.43333333 0
0.46666667 0.43333333 0
0.5 0.43333333 0
0.53333333 0.43333333 0
0.56666667 0.43333333 0
0.6 0.43333333 0
0.63333333 0.43333333 0
0.66666667 0.43333333 0
0.7 0.43333333 0
0.73333333 0.43333333 0
0.76666667 0.43333333 0
0.8 0.43333333 0
0.83333333 0.43333333 0
0.86666667 0.43333333 0
0.9 0.43333333 0
0.93333333 0.43333333 0
0.96666667 0.43333333 0
1 0.43333333 0
0 0.46666667 0
0.033333333 0.46666667 0
0.066666667 0.46666667 0
0.1 0.46666667 0
0.13333333 0.46666667 0
0.16666667 0.46666667 0
0.2 0.46666667 0
0.23333333 0.46666667 0
0.26666667 0.46666667 0
0.3 0.46666667 0
0.33333333 0.46666667 0
0.36666667 0.46666667 0
0.4 0.46666667 0
0.43333333 0.46666667 0
0.46666667 0.46666667 0
0.5 0.46666667 0
0.53333333 0.46666667 0
0.56666667 0.46666667 0
0.6 0.46666667 0
0.63333333 0.46666667 0
0.66666667 0.46666667 0
0.7 0.46666667 0
0.73333333 0.46666667 0
0.76666667 0.46666667 0
0.8 0.46666667 0
0.83333333 0.46666667 0
0.86666667 0.46666667 0
0.9 0.46666667 0
0.93333333 0.46666667 0
0.96666667 0.46666667 0
1 0.46666667 0
0 0.5 0
0.033333333 0.5 0
0.066666667 0.5 0
0.1 0.5 0
0.13333333 0.5 0
0.16666667 0.5 0
0.2 0.5 0
0.23333333 0.5 0
0.26666667 0.5 0
0.3 0.5 0
0.33333333 0.5 0
0.36666667 0.5 0
0.4 0.5 0
0.43333333 0.5 0
0.46666667 0.5 0
0.5 0.5 0
0.53333333 0.5 0
0.56666667 0.5 0
0.6 0.5 0
0.63333333 0.5 0
0.66666667 0.5 0
0.7 0.5 0
0.73333333 0.5 0
0.76666667 0.5 0
0.8 0.5 0
0.83333333 0.5 0
0.86666667 0.5 0
0.9 0.5 0
0.93333333 0.5 0
0.96666667 0.5 0
1 0.5 0
0 0.53333333 0
0.033333333 0.53333333 0
0.066666667 0.53333333 0
0.1 0.53333333 0
0.13333333 0.53333333 0
0.16666667 0.53333333 0
0.2 0.53333333 0
0.23333333 0.53333333 0
0.26666667 0.53333333 0
0.3 0.53333333 0
0.33333333 0.53333333 0
0.36666667 0.53333333 0
0.4 0.53333333 0
0.43333333 0.53333333 0
0.46666667 0.53333333 0
0.5 0.53333333 0
0.53333333 0.53333333 0
0.56666667 0.53333333 0
0.6 0.53333333 0
0.63333333 0.53333333 0
0.66666667 0.53333333 0
0.7 0.53333333 0
0.73333333 0.53333333 0
0.76666667 0.53333333 0
0.8 0.53333333 0
[...]
CELL_DATA 1920
Scalars  Label int 1
LOOKUP_TABLE FreeFempp_table
0
0
0
0
0
0
0
0
0
0
0
0
0
0
0
0
0
0
0
0
0
0
0
0
0
0
0
0
0
0
0
0
0
0
0
0
0
0
0
0
0
0
0
0
0
0
0
0
0
0
0
0
0
0
0
0
0
0
0
0
0
0
0
0
0
0
0
0
0
0
0
0
0
0
0
0
0
0
0
0
0
0
0
0
0
0
0
0
0
0
0
0
0
0
0
0
0
0
0
0
0
0
0
0
0
0
0
0
0
0
0
0
0
0
0
0
0
0
0
0
0
0
0
0
0
0
0
0
0
0
0
0
0
0
0
0
0
0
0
0
0
0
0
0
0
0
0
0
0
0
0
0
0
0
0
0
0
0
0
0
0
0
0
0
0
0
0
0
0
0
0
0
0
0
0
0
0
0
0
0
0
0
0
0
0
0
0
0
0
0
0
0
0
0
0
0
0
0
0
0
0
0
0
0
0
0
0
0
0
0
0
0
0
0
0
0
0
0
0
0
0
0
0
0
0
0
0
0
0
0
0
0
0
0
0
0
0
0
0
0
0
0
0
0
0
0
0
0
0
0
0
0
0
0
0
0
0
0
0
0
0
0
0
0
0
0
0
0
0
0
0
0
0
0
0
0
0
0
0
0
0
0
0
0
0
0
0
0
0
0
0
0
0
0
0
0
0
0
0
0
0
0
0
0
0
0
0
0
0
0
0
0
0
0
0
0
0
0
0
0
0
0
0
0
0
0
0
0
0
0
0
0
0
0
0
0
0
0
0
0
0
0
0
0
0
0
0
0
0
0
0
0
0
0
0
0
0
0
0
0
0
0
0
0
0
0
0
0
0
0
0
0
0
0
0
0
0
0
0
0
0
0
0
0
0
0
0
0
0
0
0
0
0
0
0
0
0
0
0
0
0
0
0
0
0
0
0
0
0
0
0
0
0
0
0
0
0
0
0
0
0
0
0
0
0
0
0
0
0
0
0
0
0
0
0
0
0
0
0
0
0
0
0
0
0
0
0
0
0
0
0
0
0
0
0
0
0
0
0
0
0
0
0
0
0
0
0
0
0
0
0
0
0
0
0
0
0
0
0
0
0
0
0
0
0
0
0
0
0
0
0
0
0
0
0
0
0
0
0
0
0
0
0
0
0
0
0
0
0
0
0
0
0
0
0
0
0
0
0
0
0
0
0
0
0
0
0
0
0
0
0
0
0
0
0
0
0
0
0
0
0
0
0
0
0
0
0
0
0
0
0
0
0
0
0
0
0
0
0
0
0
0
0
0
0
0
0
0
0
0
0
0
0
0
0
0
0
0
0
0
0
0
0
0
0
0
0
0
0
0
0
0
0
0
0
0
0
0
0
0
0
0
0
0
0
0
0
0
0
0
0
0
0
0
0
0
0
0
0
0
0
0
0
0
0
0
0
0
0
0
0
0
0
0
0
0
0
0
0
0
0
0
0
0
0
0
0
0
0
0
0
0
0
0
0
0
0
0
0
0
0
0
0
0
0
0
0
0
0
0
0
0
0
0
0
0
0
0
0
0
0
0
0
0
0
0
0
0
0
0
0
0
0
0
0
0
0
0
0
0
0
0
0
0
0
0
0
0
0
0
0
0
0
0
0
0
0
0
0
0
0
0
0
0
0
0
0
0
0
0
0
0
0
0
0
0
0
0
0
0
0
0
0
0
0
0
0
0
0
0
0
0
0
0
0
0
0
0
0
0
0
0
0
0
0
0
0
0
0
0
0
0
0
0
0
0
0
0
0
0
0
0
0
0
0
0
0
0
0
0
0
0
0
0
0
0
0
0
0
0
0
0
0
0
0
0
0
0
0
0
0
0
0
0
0
0
0
0
0
0
0
0
0
0
0
0
0
0
0
0
0
0
0
0
0
0
0
0
0
0
0
0
0
0
0
0
0
0
0
0
0
0
0
0
0
0
0
0
0
0
0
0
0
0
0
0
0
0
0
0
0
0
0
0
0
0
0
0
0
0
0
0
0
0
0
0
0
0
0
0
0
0
0
0
0
0
0
0
0
0
0
0
0
0
0
0
0
0
0
0
0
0
0
0
0
0
0
0
0
0
0
0
0
0
0
0
0
0
0
0
0
0
0
0
0
0
0
0
0
0
0
0
0
0
0
0
0
0
0
0
0
0
0
0
0
0
0
0
0
0
0
0
0
0
0
0
0
0
0
0
0
0
0
0
0
0
0
0
0
0
0
0
0
0
0
0
0
0
0
0
0
0
0
0
0
0
0
0
0
0
0
0
0
0
0
0
0
0
0
0
0
0
0
0
0
0
0
0
0
0
0
0
0
0
0
0
0
0
0
0
0
0
0
0
0
0
0
0
0
0
0
0
0
0
0
0
0
0
0
0
0
0
0
0
0
0
0
0
0
0
0
0
0
0
0
0
0
0
0
0
0
0
0
0
0
0
0
0
0
0
0
0
0
0
0
0
0
0
0
0
0
0
0
0
0
0
0
0
0
0
0
0
0
0
0
0
0
0
0
0
0
0
0
0
0
0
0
0
0
0
0
0
0
0
0
0
0
0
0
0
0
0
0
0
0
0
0
0
0
0
0
0
0
0
0
0
0
0
0
0
0
0
0
0
0
0
0
0
0
0
0
0
0
0
0
0
0
0
0
0
0
0
0
0
0
0
0
0
0
0
0
0
0
0
0
0
0
0
0
0
0
0
0
0
0
0
0
0
0
0
0
0
0
0
0
0
0
0
0
0
0
0
0
0
0
0
0
0
0
0
0
0
0
0
0
0
0
0
0
0
0
0
0
0
0
0
0
0
0
0
0
0
0
0
0
0
0
0
0
0
0
0
0
0
0
0
0
0
0
0
0
0
0
0
0
0
0
0
0
0
0
0
0
0
0
0
0
0
0
0
0
0
0
0
0
0
0
0
0
0
0
0
0
0
0
0
0
0
0
0
0
0
0
0
0
0
0
0
0
0
0
0
0
0
0
0
0
0
0
0
0
0
0
0
0
0
0
0
0
0
0
0
0
0
0
0
0
0
0
0
0
0
0
0
0
0
0
0
0
0
0
0
0
0
0
0
0
0
0
0
0
0
0
0
0
0
0
0
0
0
0
0
0
0
0
0
0
0
0
0
0
0
0
0
0
0
0
0
0
0
0
0
0
0
0
0
0
0
0
0
0
0
0
0
0
0
0
0
0
0
0
0
0
0
0
0
0
0
0
0
0
0
0
0
0
0
0
0
0
0
0
0
0
0
0
0
0
0
0
0
0
0
0
0
0
0
0
0
0
0
0
0
0
0
0
0
0
0
0
0
0
0
0
0
0
0
0
0
0
0
0
0
0
0
0
0
0
0
0
0
0
0
0
0
0
0
0
0
0
0
0
0
0
0
0
0
0
0
0
0
0
0
0
0
0
0
0
0
0
0
0
0
0
0
0
0
0
0
0
0
0
0
0
0
0
0
0
0
0
0
0
0
0
0
0
0
0
0
0
0
0
0
0
0
0
0
0
0
0
0
0
0
0
0
0
0
0
0
0
0
0
0
0
0
0
0
0
0
0
0
0
0
0
0
0
0
0
0
0
0
0
0
0
0
0
0
0
0
0
0
0
0
0
0
0
0
0
0
0
0
0
0
0
0
0
0
0
0
0
0
0
0
0
0
0
0
0
0
0
0
0
0
0
0
0
0
0
0
0
0
0
0
0
0
0
0
0
0
0
0
0
0
0
0
0
0
0
0
0
0
0
0
0
0
0
0
0
0
0
0
0
0
0
0
0
0
0
0
0
0
0
0
0
0
0
0
0
0
0
0
0
0
0
0
0
0
0
0
0
0
0
0
0
0
0
0
0
0
0
0
0
0
0
0
0
0
0
0
0
0
0
0
0
0
0
0
0
0
0
0
0
0
0
0
0
0
0
0
0
0
0
0
0
0
0
0
0
0
0
0
0
0
0
0
0
0
0
0
0
0
0
0
0
0
0
0
0
0
0
0
0
0
0
0
0
0
0
0
0
0
0
0
0
0
0
0
0
0
0
0
0
0
0
0
0
0
0
0
0
0
0
0
0
0
0
0
0
0
0
0
1
1
1
1
1
1
1
1
1
1
1
1
1
1
1
1
1
1
1
1
1
1
1
1
1
1
1
1
1
1
2
2
2
2
2
2
2
2
2
2
2
2
2
2
2
2
2
2
2
2
2
2
2
2
2
2
2
2
2
2
3
3
3
3
3
3
3
3
3
3
3
3
3
3
3
3
3
3
3
3
3
3
3
3
3
3
3
3
3
3
4
4
4
4
4
4
4
4
4
4
4
4
4
4
4
4
4
4
4
4
4
4
4
4
4
4
4
4
4
4

LOOKUP_TABLE FreeFempp_table 5
1.00000000 0.00000000 0.00000000 1.00000000
1.00000000 1.00000000 0.00000000 1.00000000
1.00000000 0.00000000 1.00000000 1.00000000
0.00000000 1.00000000 0.00000000 1.00000000
0.00000000 1.00000000 1.00000000 1.00000000

POINT_DATA 961
FIELD FieldData 1
Density 1 961 float
1.42971091e-02 2.02250145e-02 4.75612246e-02 8.30746666e-02 9.30239186e-02 7.72137195e-02 4.52394783e-02 1.94548778e-02 9.68163926e-03 7.23536452e-03 9.54646152e-03 2.45689992e-02 8.05721134e-02 2.08318800e-01 5.91131091e-01 9.30918038e-01 9.56313372e-01 8.78408670e-01 8.08320522e-01 8.82472396e-01 9.31011498e-01 9.45820451e-01 9.52286601e-01 9.55612779e-01 9.55688298e-01 9.53651011e-01 9.50074136e-01 9.45371866e-01 9.40023839e-01 9.38295245e-01 9.40833569e-01 3.37057374e-03 5.03713358e-03 1.32930093e-02 2.57423390e-02 3.04293092e-02 2.71633044e-02 1.85498353e-02 9.38923378e-03 5.07159345e-03 3.84972058e-03 4.85294964e-03 1.26393624e-02 4.23573367e-02 1.14643581e-01 3.91576678e-01 8.83972585e-01 9.12979960e-01 5.70824087e-01 3.06932032e-01 4.09685016e-01 5.95371604e-01 6.95397019e-01 7.62055039e-01 8.14793885e-01 8.48214447e-01 8.71510565e-01 8.87950003e-01 8.96152914e-01 8.98609400e-01 9.05264199e-01 9.19286251e-01 1.54560478e-03 1.14196038e-03 1.66403770e-03 2.62992247e-03 2.89324368e-03 2.69021839e-03 2.31482391e-03 1.64905621e-03 1.32304372e-03 1.31919363e-03 1.45724812e-03 2.83172377e-03 1.00490628e-02 2.83927768e-02 1.02194995e-01 6.46128178e-01 8.57118666e-01 1.76042229e-01 2.50868686e-02 1.85527634e-02 2.23792791e-02 2.75001600e-02 3.72513793e-02 6.23950958e-02 1.12059861e-01 2.06025973e-01 3.66570443e-01 5.34745336e-01 6.48358762e-01 7.37193704e-01 8.06235254e-01 7.89695140e-03 4.48719598e-03 2.90057482e-03 2.62932712e-03 2.67208600e-03 2.78106844e-03 3.11870035e-03 3.30588105e-03 3.37382196e-03 3.10171489e-03 2.17588129e-03 1.19841821e-03 1.57515693e-03 3.25268926e-03 9.63307917e-03 8.95669982e-02 7.27950633e-01 6.63318276e-01 7.84341469e-02 1.90421827e-02 7.90455565e-03 4.69407672e-03 3.84337921e-03 4.63164598e-03 7.19652092e-03 1.32057713e-02 3.21008489e-02 8.48361626e-02 1.78602293e-01 3.16618890e-01 4.61064488e-01 5.76623157e-02 3.13643366e-02 1.96539015e-02 1.86092649e-02 2.20641810e-02 2.69330703e-02 3.12288702e-02 3.37498784e-02 3.31691131e-02 2.78201103e-02 1.72657035e-02 7.64042977e-03 3.83210601e-03 2.08177580e-03 1.33962161e-03 4.81534610e-03 4.52130027e-02 6.58728361e-01 7.82221913e-01 4.68409479e-01 1.14376910e-01 3.14586759e-02 1.05488533e-02 4.31324448e-03 2.75127636e-03 2.59967730e-03 4.43452643e-03 1.27217975e-02 3.64111923e-02 8.47242549e-02 1.50767103e-01 1.49938494e-01 8.47849771e-02 4.83646542e-02 4.43464704e-02 5.82219660e-02 8.32775757e-02 1.06954634e-01 1.23107910e-01 1.31508663e-01 1.26862779e-01 9.97118726e-02 6.22490048e-02 3.90430205e-02 2.02085376e-02 6.76647294e-03 2.88768974e-03 2.49363435e-03 1.98395923e-02 1.54028386e-01 8.29310477e-01 9.04848993e-01 7.29612947e-01 2.74012268e-01 6.09724484e-02 1.76198743e-02 5.54646645e-03 2.51604617e-03 3.04984814e-03 9.11815185e-03 2.75568273e-02 5.28789759e-02 2.45035052e-01 1.49174497e-01 8.94736648e-02 8.02692100e-02 1.02109544e-01 1.47179008e-01 1.92538202e-01 2.23952323e-01 2.44771868e-01 2.55446136e-01 2.48130843e-01 2.21787438e-01 1.93065301e-01 1.43175557e-01 7.38739222e-02 3.23240384e-02 9.45692230e-03 3.96383042e-03 5.16234618e-03 4.60011065e-02 6.54078066e-01 8.85415077e-01 9.04694557e-01 8.35683048e-01 4.83696252e-01 8.51849541e-02 1.28799723e-02 2.85347668e-03 2.89952499e-03 1.01268804e-02 2.37562247e-02 4.28846151e-01 2.97383159e-01 2.06102297e-01 1.89050794e-01 2.18465924e-01 2.78340816e-01 3.34958643e-01 3.71738315e-01 3.94919902e-01 4.09345716e-01 4.14247245e-01 4.10591632e-01 4.03975427e-01 3.80985022e-01 3.21164548e-01 2.41754383e-01 1.33159563e-01 4.41277437e-02 8.05256143e-03 2.85162334e-03 1.50865680e-02 6.00864068e-02 2.11804777e-01 5.07524073e-01 7.86199212e-01 7.62181163e-01 1.99418977e-01 1.40452208e-02 2.45065778e-03 3.96453869e-03 1.08343456e-02 7.27232516e-01 6.26160741e-01 5.40167391e-01 5.17594576e-01 5.32568693e-01 5.66122234e-01 5.93035340e-01 6.06324613e-01 6.11493826e-01 6.11647964e-01 6.07101977e-01 5.99121749e-01 5.90174198e-01 5.78343809e-01 5.59644997e-01 5.34987807e-01 4.78729546e-01 3.36979598e-01 1.23406999e-01 1.86059847e-02 5.57312416e-03 3.15887551e-03 8.07129499e-03 2.27161236e-02 9.44551453e-02 6.65684938e-01 8.39606106e-01 1.43018007e-01 6.60356088e-03 2.39239866e-03 4.91302600e-03 8.97309840e-01 8.67421508e-01 8.43912065e-01 8.33880007e-01 8.26712847e-01 8.20300460e-01 8.11806321e-01 8.00918221e-01 7.88981378e-01 7.76160717e-01 7.62170017e-01 7.47580051e-01 7.33608603e-01 7.20901668e-01 7.10227728e-01 7.03120589e-01 6.95453763e-01 6.72175825e-01 5.90770304e-01 3.64586711e-01 9.25171301e-02 1.15826931e-02 3.15718330e-03 5.04461909e-03 1.13662947e-02 7.79901370e-02 7.79936016e-01 8.12188447e-01 3.46502513e-02 2.65208865e-03 2.54484662e-03 9.34260368e-01 9.23733652e-01 9.18739915e-01 9.15426254e-01 9.09595430e-01 9.01490808e-01 8.91253471e-01 8.79537880e-01 8.66951048e-01 8.53559613e-01 8.39459836e-01 8.25252414e-01 8.11867893e-01 8.00193667e-01 7.91268289e-01 7.86327779e-01 7.85684347e-01 7.88240552e-01 7.88689017e-01 7.64968395e-01 6.11188769e-01 1.92317769e-01 2.76746619e-02 1.05035836e-02 8.18345323e-03 1.37263220e-02 1.34714484e-01 8.65318358e-01 2.28046492e-01 6.29796693e-03 1.98861933e-03 8.95160079e-01 8.84949148e-01 8.86862874e-01 8.91145587e-01 8.93526018e-01 8.93782735e-01 8.91241312e-01 8.86041224e-01 8.78564179e-01 8.69164944e-01 8.58403027e-01 8.47129762e-01 8.36298585e-01 8.26759934e-01 8.19293797e-01 8.14602852e-01 8.13125014e-01 8.15166533e-01 8.20530176e-01 8.26896846e-01 8.18906426e-01 7.14107156e-01 3.45803767e-01 8.03581104e-02 2.57880110e-02 1.46099469e-02 4.20729220e-02 6.92082942e-01 8.11160505e-01 2.13280022e-02 2.24029901e-03 6.57912791e-01 6.20496452e-01 6.31274462e-01 6.75624609e-01 7.29506314e-01 7.78340816e-01 8.12506378e-01 8.31782103e-01 8.39795291e-01 8.40205193e-01 8.35917473e-01 8.29204500e-01 8.21806908e-01 8.14952433e-01 8.09399128e-01 8.05435598e-01 8.02893579e-01 8.01376343e-01 8.00474048e-01 8.00400972e-01 8.01939249e-01 7.91726232e-01 7.03038573e-01 4.37772453e-01 1.69129610e-01 6.95300028e-02 8.84581283e-02 6.61539316e-01 8.92675281e-01 3.33187170e-02 1.39919471e-03 2.53764153e-01 2.03299254e-01 1.96808249e-01 2.41075188e-01 3.32092673e-01 4.63913918e-01 5.95380962e-01 6.88507080e-01 7.41021216e-01 7.66272306e-01 7.75869727e-01 7.77204812e-01 7.74804711e-01 7.71412730e-01 7.68502474e-01 7.66462207e-01 7.64702201e-01 7.61839092e-01 7.55917192e-01 7.45267451e-01 7.31365919e-01 7.19710886e-01 7.05153465e-01 6.58448219e-01 5.50272763e-01 4.17118698e-01 4.95443404e-01 8.98636818e-01 9.17137861e-01 3.35960165e-02 6.32835319e-04 8.93104896e-02 6.56779855e-02 5.90247251e-02 7.27986470e-02 1.11315198e-01 1.96227401e-01 3.38141501e-01 4.91191655e-01 6.00735247e-01 6.61728680e-01 6.90854847e-01 7.02306688e-01 7.04946220e-01 7.04118371e-01 7.02924669e-01 7.02746093e-01 7.03451216e-01 7.03532815e-01 7.00214565e-01 6.89917684e-01 6.70535505e-01 6.47225142e-01 6.36408925e-01 6.53159380e-01 6.87917888e-01 7.26637363e-01 8.38154078e-01 9.59065855e-01 9.14075077e-01 3.10856421e-02 4.40749311e-04 4.39477116e-02 3.26278396e-02 2.89445296e-02 3.49133983e-02 5.38628101e-02 1.02704957e-01 2.06578076e-01 3.55193794e-01 4.87250566e-01 5.70238233e-01 6.12655044e-01 6.30139709e-01 6.34008586e-01 6.31666481e-01 6.28058732e-01 6.26330197e-01 6.27973378e-01 6.32809043e-01 6.39003396e-01 6.43433690e-01 6.43022716e-01 6.38176620e-01 6.38588190e-01 6.63686335e-01 7.26199865e-01 8.18526983e-01 9.18591559e-01 9.68217015e-01 8.77922595e-01 2.72775888e-02 4.59015835e-04 2.83922590e-02 2.19552089e-02 1.99265480e-02 2.39154492e-02 3.76963466e-02 7.68535361e-02 1.66904598e-01 3.05533707e-01 4.36487108e-01 5.22270858e-01 5.66763759e-01 5.83874345e-01 5.84546208e-01 5.76595068e-01 5.66131532e-01 5.58140039e-01 5.56320250e-01 5.62662363e-01 5.77263236e-01 5.98822057e-01 6.25668466e-01 6.56524897e-01 6.91813111e-01 7.36464143e-01 7.99191177e-01 8.80199134e-01 9.48055744e-01 9.66006219e-01 7.92609513e-01 2.30339672e-02 6.02333050e-04 2.14327648e-02 1.72107350e-02 1.62028130e-02 2.00050510e-02 3.37596722e-02 7.57180750e-02 1.72788233e-01 3.13298404e-01 4.37269688e-01 5.15769958e-01 5.55666804e-01 5.69269001e-01 5.65652132e-01 5.51635206e-01 5.33463418e-01 5.17355263e-01 5.08845568e-01 5.11669576e-01 5.27458906e-01 5.57025194e-01 6.01718068e-01 6.61273956e-01 7.30205655e-01 8.00701678e-01 8.67937148e-01 9.26726937e-01 9.62477267e-01 9.50487852e-01 5.70234895e-01 1.73826944e-02 7.17487710e-04 1.74273085e-02 1.43323401e-02 1.40823089e-02 1.87092703e-02 3.60032208e-02 9.07517597e-02 2.09344313e-01 3.55533779e-01 4.67881888e-01 5.35015047e-01 5.68740487e-01 5.79526842e-01 5.74054241e-01 5.57340860e-01 5.34679353e-01 5.12369752e-01 4.96678561e-01 4.91945684e-01 5.00550449e-01 5.26294053e-01 5.77016473e-01 6.57249272e-01 7.54798591e-01 8.45296204e-01 9.12078381e-01 9.52137768e-01 9.63577211e-01 8.90070915e-01 2.06335932e-01 1.04649477e-02 1.19002035e-03 1.46127529e-02 1.21545373e-02 1.25637231e-02 1.89517587e-02 4.41729426e-02 1.23794973e-01 2.70847261e-01 4.14001346e-01 5.08778930e-01 5.63838303e-01 5.92827499e-01 6.03650689e-01 6.00674391e-01 5.86910069e-01 5.65719068e-01 5.41727781e-01 5.20014822e-01 5.04384637e-01 4.98649538e-01 5.12962759e-01 5.66717803e-01 6.70184612e-01 7.93636918e-01 8.88911843e-01 9.41637576e-01 9.61918533e-01 9.41474140e-01 6.60363376e-01 5.69592267e-02 6.19432144e-03 2.69217696e-03 1.23979133e-02 1.03235943e-02 1.14273885e-02 2.08318420e-02 6.09656423e-02 1.79486170e-01 3.47178042e-01 4.71512496e-01 5.45314789e-01 5.89866519e-01 6.16670728e-01 6.30779982e-01 6.34617507e-01 6.29417002e-01 6.16123557e-01 5.96010029e-01 5.70786834e-01 5.43443620e-01 5.22900164e-01 5.31316996e-01 6.00043476e-01 7.30343819e-01 8.57188344e-01 9.29854035e-01 9.57724512e-01 9.50976133e-01 8.26383650e-01 2.15541244e-01 2.12477818e-02 5.47802355e-03 4.96623153e-03 1.05136335e-02 8.67858157e-03 1.06627801e-02 2.51771882e-02 9.18096676e-02 2.57899642e-01 4.21873450e-01 5.15176892e-01 5.68686068e-01 6.05291784e-01 6.32355154e-01 6.52173340e-01 6.65415108e-01 6.71805859e-01 6.70181751e-01 6.58601820e-01 6.35667861e-01 6.05578661e-01 5.87051690e-01 6.14612520e-01 7.12244451e-01 8.38670850e-01 9.20625389e-01 9.51986372e-01 9.46434915e-01 8.51377904e-01 3.63987356e-01 4.54363413e-02 1.00850808e-02 6.53312402e-03 7.59423571e-03 8.79065599e-03 7.21975183e-03 1.03487605e-02 3.36435549e-02 1.43846691e-01 3.47427160e-01 4.79227811e-01 5.38195074e-01 5.74606717e-01 6.05936825e-01 6.35152400e-01 6.61846519e-01 6.84861302e-01 7.02661097e-01 7.13109076e-01 7.13701665e-01 7.04109848e-01 6.93375230e-01 7.06595898e-01 7.68016636e-01 8.58142555e-01 9.22431648e-01 9.44186211e-01 9.23097491e-01 7.83728838e-01 3.23803514e-01 5.23633771e-02 1.31815728e-02 7.33333966e-03 8.04400444e-03 1.05851460e-02 7.21310684e-03 6.08474296e-03 1.07111372e-02 4.90737408e-02 2.20324427e-01 4.27434027e-01 5.09771585e-01 5.37803054e-01 5.61282992e-01 5.89969814e-01 6.22711599e-01 6.56467319e-01 6.88365817e-01 7.16181934e-01 7.38371015e-01 7.54730701e-01 7.68870294e-01 7.91627526e-01 8.35827649e-01 8.93594682e-01 9.35367167e-01 9.40252483e-01 8.76824319e-01 5.99634588e-01 1.49451450e-01 3.29700559e-02 1.09411040e-02 7.10317399e-03 8.43948312e-03 1.20970402e-02 1.75237264e-02 5.78613952e-03 5.32831904e-03 1.21715385e-02 7.59604350e-02 3.11602652e-01 4.79707956e-01 5.09672225e-01 5.13358235e-01 5.28680861e-01 5.57333231e-01 5.94476938e-01 6.34957254e-01 6.74773157e-01 7.11746573e-01 7.45863378e-01 7.79481888e-01 8.16901922e-01 8.61244023e-01 9.07705069e-01 9.43258941e-01 9.57996488e-01 9.24532950e-01 5.39911270e-01 8.92960355e-02 2.35369708e-02 1.11630205e-02 1.07587865e-02 1.83013901e-02 3.26619819e-02 5.42974174e-02 7.58035183e-02 4.54514008e-03 4.86077042e-03 1.53777627e-02 1.20066002e-01 3.94769251e-01 4.94582117e-01 4.79032785e-01 4.67103511e-01 4.79424655e-01 5.09983659e-01 5.51446557e-01 5.97840190e-01 6.44900978e-01 6.90740705e-01 7.36423075e-01 7.85108387e-01 8.38188767e-01 8.90328109e-01 9.31487560e-01 9.56161916e-01 9.64176774e-01 9.39147770e-01 6.61759913e-01 1.32348031e-01 5.26839420e-02 5.33652045e-02 8.59290808e-02 2.25092605e-01 4.87195164e-01 6.56784177e-01 7.20255136e-01 3.39151896e-03 4.60038241e-03 2.12000571e-02 1.82907134e-01 4.46082741e-01 4.70232576e-01 4.23533082e-01 4.06495541e-01 4.19847459e-01 4.52082247e-01 4.95810986e-01 5.46249747e-01 5.99881053e-01 6.54662609e-01 7.10943460e-01 7.70674586e-01 8.32787514e-01 8.88999760e-01 9.29658771e-01 9.53005016e-01 9.62548375e-01 9.57334399e-01 9.12918508e-01 7.88702369e-01 7.28443742e-01 7.89141476e-01 8.54507029e-01 9.08334851e-01 9.37706530e-01 9.49284613e-01 9.57762301e-01 2.30089528e-03 4.56970185e-03 3.08761355e-02 2.52079457e-01 4.54739690e-01 4.16040212e-01 3.58472139e-01 3.44968319e-01 3.59620601e-01 3.89875680e-01 4.31060612e-01 4.81658101e-01 5.40353298e-01 6.04926825e-01 6.72846138e-01 7.41980374e-01 8.09056878e-01 8.67479026e-01 9.10511017e-01 9.37123597e-01 9.50977385e-01 9.55376565e-01 9.51181829e-01 9.42493975e-01 9.41310287e-01 9.47715163e-01 9.52403724e-01 9.53046739e-01 9.49006736e-01 9.47222054e-01 9.55094755e-01 1.37173093e-03 4.99712443e-03 4.88661416e-02 3.20617020e-01 4.43783730e-01 3.68356198e-01 3.15453887e-01 3.06491643e-01 3.18236083e-01 3.40852022e-01 3.73475701e-01 4.18500870e-01 4.78212088e-01 5.52004695e-01 6.34497285e-01 7.16471553e-01 7.88800418e-01 8.45879495e-01 8.86320949e-01 9.11971033e-01 9.26102936e-01 9.31619585e-01 9.30429280e-01 9.24342513e-01 9.14714754e-01 9.00393784e-01 8.79608631e-01 8.53524923e-01 8.29680562e-01 8.38522971e-01 8.75734687e-01 1.24844827e-03 7.23969797e-03 9.73055363e-02 4.49745506e-01 5.03004789e-01 4.07886893e-01 3.57757419e-01 3.46993923e-01 3.51087004e-01 3.63400906e-01 3.85676712e-01 4.22353655e-01 4.77818727e-01 5.53173721e-01 6.42086208e-01 7.30227590e-01 8.02900732e-01 8.53769183e-01 8.84667397e-01 9.00019407e-01 9.03180838e-01 8.96085858e-01 8.80567610e-01 8.58101308e-01 8.26666355e-01 7.82157183e-01 7.25098014e-01 6.64709926e-01 6.22862399e-01 6.47174776e-01 7.23775983e-01 2.80002342e-03 9.37021803e-03 1.71777964e-01 6.17814839e-01 6.34131491e-01 5.23110151e-01 4.70439613e-01 4.56737608e-01 4.55407649e-01 4.61670160e-01 4.78263110e-01 5.09608269e-01 5.59317172e-01 6.27175808e-01 7.05816984e-01 7.81457901e-01 8.41548085e-01 8.81716192e-01 9.04335737e-01 9.13177371e-01 9.10301864e-01 8.96171093e-01 8.72358322e-01 8.42911363e-01 8.08976650e-01 7.66488850e-01 7.13442504e-01 6.56465769e-01 6.14949107e-01 6.25990450e-01 6.87545180e-01 
