# vtk DataFile Version 2.0
results/iter6.vtk, Created by Freefem++ 
ASCII
DATASET UNSTRUCTURED_GRID
POINTS 961 float
0 0 0
0.033333333 0 0
0.066666667 0 0
0.1 0 0
0.13333333 0 0
0.16666667 0 0
0.2 0 0
0.23333333 0 0
0.26666667 0 0
0.3 0 0
0.33333333 0 0
0.36666667 0 0
0.4 0 0
0.43333333 0 0
0.46666667 0 0
0.5 0 0
0.53333333 0 0
0.56666667 0 0
0.6 0 0
0.63333333 0 0
0.66666667 0 0
0.7 0 0
0.73333333 0 0
0.76666667 0 0
0.8 0 0
0.83333333 0 0
0.86666667 0 0
0.9 0 0
0.93333333 0 0
0.96666667 0 0
1 0 0
0 0.033333333 0
0.033333333 0.033333333 0
0.066666667 0.033333333 0
0.1 0.033333333 0
0.13333333 0.033333333 0
0.16666667 0.033333333 0
0.2 0.033333333 0
0.23333333 0.033333333 0
0.26666667 0.033333333 0
0.3 0.033333333 0
0.33333333 0.033333333 0
0.36666667 0.033333333 0
0.4 0.033333333 0
0.43333333 0.033333333 0
0.46666667 0.033333333 0
0.5 0.033333333 0
0.53333333 0.033333333 0
0.56666667 0.033333333 0
0.6 0.033333333 0
0.63333333 0.033333333 0
0.66666667 0.033333333 0
0.7 0.033333333 0
0.73333333 0.033333333 0
0.76666667 0.033333333 0
0.8 0.033333333 0
0.83333333 0.033333333 0
0.86666667 0.033333333 0
0.9 0.033333333 0
0.93333333 0.033333333 0
0.96666667 0.033333333 0
1 0.033333333 0
0 0.066666667 0
0.033333333 0.066666667 0
0.066666667 0.066666667 0
0.1 0.066666667 0
0.13333333 0.066666667 0
0.16666667 0.066666667 0
0.2 0.066666667 0
0.23333333 0.066666667 0
0.26666667 0.066666667 0
0.3 0.066666667 0
0.33333333 0.066666667 0
0.36666667 0.066666667 0
0.4 0.066666667 0
0.43333333 0.066666667 0
0.46666667 0.066666667 0
0.5 0.066666667 0
0.53333333 0.066666667 0
0.56666667 0.066666667 0
0.6 0.066666667 0
0.63333333 0.066666667 0
0.66666667 0.066666667 0
0.7 0.066666667 0
0.73333333 0.066666667 0
0.76666667 0.066666667 0
0.8 0.066666667 0
0.83333333 0.066666667 0
0.86666667 0.066666667 0
0.9 0.066666667 0
0.93333333 0.066666667 0
0.96666667 0.066666667 0
1 0.066666667 0
0 0.1 0
0.033333333 0.1 0
0.066666667 0.1 0
0.1 0.1 0
0.13333333 0.1 0
0.16666667 0.1 0
0.2 0.1 0
0.23333333 0.1 0
0.26666667 0.1 0
0.3 0.1 0
0.33333333 0.1 0
0.36666667 0.1 0
0.4 0.1 0
0.43333333 0.1 0
0.46666667 0.1 0
0.5 0.1 0
0.53333333 0.1 0
0.56666667 0.1 0
0.6 0.1 0
0.63333333 0.1 0
0.66666667 0.1 0
0.7 0.1 0
0.73333333 0.1 0
0.76666667 0.1 0
0.8 0.1 0
0.83333333 0.1 0
0.86666667 0.1 0
0.9 0.1 0
0.93333333 0.1 0
0.96666667 0.1 0
1 0.1 0
0 0.13333333 0
0.033333333 0.13333333 0
0.066666667 0.13333333 0
0.1 0.13333333 0
0.13333333 0.13333333 0
0.16666667 0.13333333 0
0.2 0.13333333 0
0.23333333 0.13333333 0
0.26666667 0.13333333 0
0.3 0.13333333 0
0.33333333 0.13333333 0
0.36666667 0.13333333 0
0.4 0.13333333 0
0.43333333 0.13333333 0
0.46666667 0.13333333 0
0.5 0.13333333 0
0.53333333 0.13333333 0
0.56666667 0.13333333 0
0.6 0.13333333 0
0.63333333 0.13333333 0
0.66666667 0.13333333 0
0.7 0.13333333 0
0.73333333 0.13333333 0
0.76666667 0.13333333 0
0.8 0.13333333 0
0.83333333 0.13333333 0
0.86666667 0.13333333 0
0.9 0.13333333 0
0.93333333 0.13333333 0
0.96666667 0.13333333 0
1 0.13333333 0
0 0.16666667 0
0.033333333 0.16666667 0
0.066666667 0.16666667 0
0.1 0.16666667 0
0.13333333 0.16666667 0
0.16666667 0.16666667 0
0.2 0.16666667 0
0.23333333 0.16666667 0
0.26666667 0.16666667 0
0.3 0.16666667 0
0.33333333 0.16666667 0
0.36666667 0.16666667 0
0.4 0.16666667 0
0.43333333 0.16666667 0
0.46666667 0.16666667 0
0.5 0.16666667 0
0.53333333 0.16666667 0
0.56666667 0.16666667 0
0.6 0.16666667 0
0.63333333 0.16666667 0
0.66666667 0.16666667 0
0.7 0.16666667 0
0.73333333 0.16666667 0
0.76666667 0.16666667 0
0.8 0.16666667 0
0.83333333 0.16666667 0
0.86666667 0.16666667 0
0.9 0.16666667 0
0.93333333 0.16666667 0
0.96666667 0.16666667 0
1 0.16666667 0
0 0.2 0
0.033333333 0.2 0
0.066666667 0.2 0
0.1 0.2 0
0.13333333 0.2 0
0.16666667 0.2 0
0.2 0.2 0
0.23333333 0.2 0
0.26666667 0.2 0
0.3 0.2 0
0.33333333 0.2 0
0.36666667 0.2 0
0.4 0.2 0
0.43333333 0.2 0
0.46666667 0.2 0
0.5 0.2 0
0.53333333 0.2 0
0.56666667 0.2 0
0.6 0.2 0
0.63333333 0.2 0
0.66666667 0.2 0
0.7 0.2 0
0.73333333 0.2 0
0.76666667 0.2 0
0.8 0.2 0
0.83333333 0.2 0
0.86666667 0.2 0
0.9 0.2 0
0.93333333 0.2 0
0.96666667 0.2 0
1 0.2 0
0 0.23333333 0
0.033333333 0.23333333 0
0.066666667 0.23333333 0
0.1 0.23333333 0
0.13333333 0.23333333 0
0.16666667 0.23333333 0
0.2 0.23333333 0
0.23333333 0.23333333 0
0.26666667 0.23333333 0
0.3 0.23333333 0
0.33333333 0.23333333 0
0.36666667 0.23333333 0
0.4 0.23333333 0
0.43333333 0.23333333 0
0.46666667 0.23333333 0
0.5 0.23333333 0
0.53333333 0.23333333 0
0.56666667 0.23333333 0
0.6 0.23333333 0
0.63333333 0.23333333 0
0.66666667 0.23333333 0
0.7 0.23333333 0
0.73333333 0.23333333 0
0.76666667 0.23333333 0
0.8 0.23333333 0
0.83333333 0.23333333 0
0.86666667 0.23333333 0
0.9 0.23333333 0
0.93333333 0.23333333 0
0.96666667 0.23333333 0
1 0.23333333 0
0 0.26666667 0
0.033333333 0.26666667 0
0.066666667 0.26666667 0
0.1 0.26666667 0
0.13333333 0.26666667 0
0.16666667 0.26666667 0
0.2 0.26666667 0
0.23333333 0.26666667 0
0.26666667 0.26666667 0
0.3 0.26666667 0
0.33333333 0.26666667 0
0.36666667 0.26666667 0
0.4 0.26666667 0
0.43333333 0.26666667 0
0.46666667 0.26666667 0
0.5 0.26666667 0
0.53333333 0.26666667 0
0.56666667 0.26666667 0
0.6 0.26666667 0
0.63333333 0.26666667 0
0.66666667 0.26666667 0
0.7 0.26666667 0
0.73333333 0.26666667 0
0.76666667 0.26666667 0
0.8 0.26666667 0
0.83333333 0.26666667 0
0.86666667 0.26666667 0
0.9 0.26666667 0
0.93333333 0.26666667 0
0.96666667 0.26666667 0
1 0.26666667 0
0 0.3 0
0.033333333 0.3 0
0.066666667 0.3 0
0.1 0.3 0
0.13333333 0.3 0
0.16666667 0.3 0
0.2 0.3 0
0.23333333 0.3 0
0.26666667 0.3 0
0.3 0.3 0
0.33333333 0.3 0
0.36666667 0.3 0
0.4 0.3 0
0.43333333 0.3 0
0.46666667 0.3 0
0.5 0.3 0
0.53333333 0.3 0
0.56666667 0.3 0
0.6 0.3 0
0.63333333 0.3 0
0.66666667 0.3 0
0.7 0.3 0
0.73333333 0.3 0
0.76666667 0.3 0
0.8 0.3 0
0.83333333 0.3 0
0.86666667 0.3 0
0.9 0.3 0
0.93333333 0.3 0
0.96666667 0.3 0
1 0.3 0
0 0.33333333 0
0.033333333 0.33333333 0
0.066666667 0.33333333 0
0.1 0.33333333 0
0.13333333 0.33333333 0
0.16666667 0.33333333 0
0.2 0.33333333 0
0.23333333 0.33333333 0
0.26666667 0.33333333 0
0.3 0.33333333 0
0.33333333 0.33333333 0
0.36666667 0.33333333 0
0.4 0.33333333 0
0.43333333 0.33333333 0
0.46666667 0.33333333 0
0.5 0.33333333 0
0.53333333 0.33333333 0
0.56666667 0.33333333 0
0.6 0.33333333 0
0.63333333 0.33333333 0
0.66666667 0.33333333 0
0.7 0.33333333 0
0.73333333 0.33333333 0
0.76666667 0.33333333 0
0.8 0.33333333 0
0.83333333 0.33333333 0
0.86666667 0.33333333 0
0.9 0.33333333 0
0.93333333 0.33333333 0
0.96666667 0.33333333 0
1 0.33333333 0
0 0.36666667 0
0.033333333 0.36666667 0
0.066666667 0.36666667 0
0.1 0.36666667 0
0.13333333 0.36666667 0
0.16666667 0.36666667 0
0.2 0.36666667 0
0.23333333 0.36666667 0
0.26666667 0.36666667 0
0.3 0.36666667 0
0.33333333 0.36666667 0
0.36666667 0.36666667 0
0.4 0.36666667 0
0.43333333 0.36666667 0
0.46666667 0.36666667 0
0.5 0.36666667 0
0.53333333 0.36666667 0
0.56666667 0.36666667 0
0.6 0.36666667 0
0.63333333 0.36666667 0
0.66666667 0.36666667 0
0.7 0.36666667 0
0.73333333 0.36666667 0
0.76666667 0.36666667 0
0.8 0.36666667 0
0.83333333 0.36666667 0
0.86666667 0.36666667 0
0.9 0.36666667 0
0.93333333 0.36666667 0
0.96666667 0.36666667 0
1 0.36666667 0
0 0.4 0
0.033333333 0.4 0
0.066666667 0.4 0
0.1 0.4 0
0.13333333 0.4 0
0.16666667 0.4 0
0.2 0.4 0
0.23333333 0.4 0
0.26666667 0.4 0
0.3 0.4 0
0.33333333 0.4 0
0.36666667 0.4 0
0.4 0.4 0
0.43333333 0.4 0
0.46666667 0.4 0
0.5 0.4 0
0.53333333 0.4 0
0.56666667 0.4 0
0.6 0.4 0
0.63333333 0.4 0
0.66666667 0.4 0
0.7 0.4 0
0.73333333 0.4 0
0.76666667 0.4 0
0.8 0.4 0
0.83333333 0.4 0
0.86666667 0.4 0
0.9 0.4 0
0.93333333 0.4 0
0.96666667 0.4 0
1 0.4 0
0 0.43333333 0
0.033333333 0.43333333 0
0.066666667 0.43333333 0
0.1 0.43333333 0
0.13333333 0.43333333 0
0.16666667 0.43333333 0
0.2 0.43333333 0
0.23333333 0.43333333 0
0.26666667 0.43333333 0
0.3 0.43333333 0
0.33333333 0.43333333 0
0.36666667 0.43333333 0
0.4 0.43333333 0
0.43333333 0.43333333 0
0.46666667 0.43333333 0
0.5 0.43333333 0
0.53333333 0.43333333 0
0.56666667 0.43333333 0
0.6 0.43333333 0
0.63333333 0.43333333 0
0.66666667 0.43333333 0
0.7 0.43333333 0
0.73333333 0.43333333 0
0.76666667 0.43333333 0
0.8 0.43333333 0
0.83333333 0.43333333 0
0.86666667 0.43333333 0
0.9 0.43333333 0
0.93333333 0.43333333 0
0.96666667 0.43333333 0
1 0.43333333 0
0 0.46666667 0
0.033333333 0.46666667 0
0.066666667 0.46666667 0
0.1 0.46666667 0
0.13333333 0.46666667 0
0.16666667 0.46666667 0
0.2 0.46666667 0
0.23333333 0.46666667 0
0.26666667 0.46666667 0
0.3 0.46666667 0
0.33333333 0.46666667 0
0.36666667 0.46666667 0
0.4 0.46666667 0
0.43333333 0.46666667 0
0.46666667 0.46666667 0
0.5 0.46666667 0
0.53333333 0.46666667 0
0.56666667 0.46666667 0
0.6 0.46666667 0
0.63333333 0.46666667 0
0.66666667 0.46666667 0
0.7 0.46666667 0
0.73333333 0.46666667 0
0.76666667 0.46666667 0
0.8 0.46666667 0
0.83333333 0.46666667 0
0.86666667 0.46666667 0
0.9 0.46666667 0
0.93333333 0.46666667 0
0.96666667 0.46666667 0
1 0.46666667 0
0 0.5 0
0.033333333 0.5 0
0.066666667 0.5 0
0.1 0.5 0
0.13333333 0.5 0
0.16666667 0.5 0
0.2 0.5 0
0.23333333 0.5 0
0.26666667 0.5 0
0.3 0.5 0
0.33333333 0.5 0
0.36666667 0.5 0
0.4 0.5 0
0.43333333 0.5 0
0.46666667 0.5 0
0.5 0.5 0
0.53333333 0.5 0
0.56666667 0.5 0
0.6 0.5 0
0.63333333 0.5 0
0.66666667 0.5 0
0.7 0.5 0
0.73333333 0.5 0
0.76666667 0.5 0
0.8 0.5 0
0.83333333 0.5 0
0.86666667 0.5 0
0.9 0.5 0
0.93333333 0.5 0
0.96666667 0.5 0
1 0.5 0
0 0.53333333 0
0.033333333 0.53333333 0
0.066666667 0.53333333 0
0.1 0.53333333 0
0.13333333 0.53333333 0
0.16666667 0.53333333 0
0.2 0.53333333 0
0.23333333 0.53333333 0
0.26666667 0.53333333 0
0.3 0.53333333 0
0.33333333 0.53333333 0
0.36666667 0.53333333 0
0.4 0.53333333 0
0.43333333 0.53333333 0
0.46666667 0.53333333 0
0.5 0.53333333 0
0.53333333 0.53333333 0
0.56666667 0.53333333 0
0.6 0.53333333 0
0.63333333 0.53333333 0
0.66666667 0.53333333 0
0.7 0.53333333 0
0.73333333 0.53333333 0
0.76666667 0.53333333 0
0.8 0.53333333 0
[...]
CELL_DATA 1920
Scalars  Label int 1
LOOKUP_TABLE FreeFempp_table
0
0
0
0
0
0
0
0
0
0
0
0
0
0
0
0
0
0
0
0
0
0
0
0
0
0
0
0
0
0
0
0
0
0
0
0
0
0
0
0
0
0
0
0
0
0
0
0
0
0
0
0
0
0
0
0
0
0
0
0
0
0
0
0
0
0
0
0
0
0
0
0
0
0
0
0
0
0
0
0
0
0
0
0
0
0
0
0
0
0
0
0
0
0
0
0
0
0
0
0
0
0
0
0
0
0
0
0
0
0
0
0
0
0
0
0
0
0
0
0
0
0
0
0
0
0
0
0
0
0
0
0
0
0
0
0
0
0
0
0
0
0
0
0
0
0
0
0
0
0
0
0
0
0
0
0
0
0
0
0
0
0
0
0
0
0
0
0
0
0
0
0
0
0
0
0
0
0
0
0
0
0
0
0
0
0
0
0
0
0
0
0
0
0
0
0
0
0
0
0
0
0
0
0
0
0
0
0
0
0
0
0
0
0
0
0
0
0
0
0
0
0
0
0
0
0
0
0
0
0
0
0
0
0
0
0
0
0
0
0
0
0
0
0
0
0
0
0
0
0
0
0
0
0
0
0
0
0
0
0
0
0
0
0
0
0
0
0
0
0
0
0
0
0
0
0
0
0
0
0
0
0
0
0
0
0
0
0
0
0
0
0
0
0
0
0
0
0
0
0
0
0
0
0
0
0
0
0
0
0
0
0
0
0
0
0
0
0
0
0
0
0
0
0
0
0
0
0
0
0
0
0
0
0
0
0
0
0
0
0
0
0
0
0
0
0
0
0
0
0
0
0
0
0
0
0
0
0
0
0
0
0
0
0
0
0
0
0
0
0
0
0
0
0
0
0
0
0
0
0
0
0
0
0
0
0
0
0
0
0
0
0
0
0
0
0
0
0
0
0
0
0
0
0
0
0
0
0
0
0
0
0
0
0
0
0
0
0
0
0
0
0
0
0
0
0
0
0
0
0
0
0
0
0
0
0
0
0
0
0
0
0
0
0
0
0
0
0
0
0
0
0
0
0
0
0
0
0
0
0
0
0
0
0
0
0
0
0
0
0
0
0
0
0
0
0
0
0
0
0
0
0
0
0
0
0
0
0
0
0
0
0
0
0
0
0
0
0
0
0
0
0
0
0
0
0
0
0
0
0
0
0
0
0
0
0
0
0
0
0
0
0
0
0
0
0
0
0
0
0
0
0
0
0
0
0
0
0
0
0
0
0
0
0
0
0
0
0
0
0
0
0
0
0
0
0
0
0
0
0
0
0
0
0
0
0
0
0
0
0
0
0
0
0
0
0
0
0
0
0
0
0
0
0
0
0
0
0
0
0
0
0
0
0
0
0
0
0
0
0
0
0
0
0
0
0
0
0
0
0
0
0
0
0
0
0
0
0
0
0
0
0
0
0
0
0
0
0
0
0
0
0
0
0
0
0
0
0
0
0
0
0
0
0
0
0
0
0
0
0
0
0
0
0
0
0
0
0
0
0
0
0
0
0
0
0
0
0
0
0
0
0
0
0
0
0
0
0
0
0
0
0
0
0
0
0
0
0
0
0
0
0
0
0
0
0
0
0
0
0
0
0
0
0
0
0
0
0
0
0
0
0
0
0
0
0
0
0
0
0
0
0
0
0
0
0
0
0
0
0
0
0
0
0
0
0
0
0
0
0
0
0
0
0
0
0
0
0
0
0
0
0
0
0
0
0
0
0
0
0
0
0
0
0
0
0
0
0
0
0
0
0
0
0
0
0
0
0
0
0
0
0
0
0
0
0
0
0
0
0
0
0
0
0
0
0
0
0
0
0
0
0
0
0
0
0
0
0
0
0
0
0
0
0
0
0
0
0
0
0
0
0
0
0
0
0
0
0
0
0
0
0
0
0
0
0
0
0
0
0
0
0
0
0
0
0
0
0
0
0
0
0
0
0
0
0
0
0
0
0
0
0
0
0
0
0
0
0
0
0
0
0
0
0
0
0
0
0
0
0
0
0
0
0
0
0
0
0
0
0
0
0
0
0
0
0
0
0
0
0
0
0
0
0
0
0
0
0
0
0
0
0
0
0
0
0
0
0
0
0
0
0
0
0
0
0
0
0
0
0
0
0
0
0
0
0
0
0
0
0
0
0
0
0
0
0
0
0
0
0
0
0
0
0
0
0
0
0
0
0
0
0
0
0
0
0
0
0
0
0
0
0
0
0
0
0
0
0
0
0
0
0
0
0
0
0
0
0
0
0
0
0
0
0
0
0
0
0
0
0
0
0
0
0
0
0
0
0
0
0
0
0
0
0
0
0
0
0
0
0
0
0
0
0
0
0
0
0
0
0
0
0
0
0
0
0
0
0
0
0
0
0
0
0
0
0
0
0
0
0
0
0
0
0
0
0
0
0
0
0
0
0
0
0
0
0
0
0
0
0
0
0
0
0
0
0
0
0
0
0
0
0
0
0
0
0
0
0
0
0
0
0
0
0
0
0
0
0
0
0
0
0
0
0
0
0
0
0
0
0
0
0
0
0
0
0
0
0
0
0
0
0
0
0
0
0
0
0
0
0
0
0
0
0
0
0
0
0
0
0
0
0
0
0
0
0
0
0
0
0
0
0
0
0
0
0
0
0
0
0
0
0
0
0
0
0
0
0
0
0
0
0
0
0
0
0
0
0
0
0
0
0
0
0
0
0
0
0
0
0
0
0
0
0
0
0
0
0
0
0
0
0
0
0
0
0
0
0
0
0
0
0
0
0
0
0
0
0
0
0
0
0
0
0
0
0
0
0
0
0
0
0
0
0
0
0
0
0
0
0
0
0
0
0
0
0
0
0
0
0
0
0
0
0
0
0
0
0
0
0
0
0
0
0
0
0
0
0
0
0
0
0
0
0
0
0
0
0
0
0
0
0
0
0
0
0
0
0
0
0
0
0
0
0
0
0
0
0
0
0
0
0
0
0
0
0
0
0
0
0
0
0
0
0
0
0
0
0
0
0
0
0
0
0
0
0
0
0
0
0
0
0
0
0
0
0
0
0
0
0
0
0
0
0
0
0
0
0
0
0
0
0
0
0
0
0
0
0
0
0
0
0
0
0
0
0
0
0
0
0
0
0
0
0
0
0
0
0
0
0
0
0
0
0
0
0
0
0
0
0
0
0
0
0
0
0
0
0
0
0
0
0
0
0
0
0
0
0
0
0
0
0
0
0
0
0
0
0
0
0
0
0
0
0
0
0
0
0
0
0
0
0
0
0
0
0
0
0
0
0
0
0
0
0
0
0
0
0
0
0
0
0
0
0
0
0
0
0
0
0
0
0
0
0
0
0
0
0
0
0
0
0
0
0
0
0
0
0
0
0
0
0
0
0
0
0
0
0
0
0
0
0
0
0
0
0
0
0
0
0
0
0
0
0
0
0
0
0
0
0
0
0
0
0
0
0
0
0
0
0
0
0
0
0
0
0
0
0
0
0
0
0
0
0
0
0
0
0
0
0
0
0
0
0
0
0
0
0
0
0
0
0
0
0
0
0
0
0
0
0
0
0
0
0
0
0
0
0
0
0
0
0
0
0
0
0
0
0
0
0
0
0
0
0
0
0
0
0
0
0
0
0
0
0
0
0
0
0
0
0
0
0
0
0
0
0
0
0
0
0
0
0
0
0
0
0
0
0
0
0
0
0
0
0
0
0
0
0
0
0
0
0
0
0
0
0
0
0
0
0
0
0
0
0
0
0
0
0
0
0
0
0
0
0
0
0
0
0
0
0
0
0
0
0
0
0
0
0
0
0
0
0
0
0
0
0
0
0
0
0
0
0
0
0
0
0
0
0
0
0
0
0
0
0
0
0
0
0
0
0
0
0
0
0
0
0
0
0
0
0
0
0
0
0
0
0
0
0
0
0
0
0
0
0
0
0
0
0
0
0
0
0
0
0
0
0
0
0
0
0
0
0
0
0
0
0
0
0
0
0
0
0
0
0
0
0
0
0
0
0
0
0
0
0
0
0
0
0
0
0
0
0
0
0
0
0
0
0
0
0
0
0
0
0
0
0
0
0
0
0
0
0
0
0
0
0
0
0
0
0
1
1
1
1
1
1
1
1
1
1
1
1
1
1
1
1
1
1
1
1
1
1
1
1
1
1
1
1
1
1
2
2
2
2
2
2
2
2
2
2
2
2
2
2
2
2
2
2
2
2
2
2
2
2
2
2
2
2
2
2
3
3
3
3
3
3
3
3
3
3
3
3
3
3
3
3
3
3
3
3
3
3
3
3
3
3
3
3
3
3
4
4
4
4
4
4
4
4
4
4
4
4
4
4
4
4
4
4
4
4
4
4
4
4
4
4
4
4
4
4

LOOKUP_TABLE FreeFempp_table 5
1.00000000 0.00000000 0.00000000 1.00000000
1.00000000 1.00000000 0.00000000 1.00000000
1.00000000 0.00000000 1.00000000 1.00000000
0.00000000 1.00000000 0.00000000 1.00000000
0.00000000 1.00000000 1.00000000 1.00000000

POINT_DATA 961
FIELD FieldData 1
Density 1 961 float
6.84460029e-02 6.28821924e-02 6.24383502e-02 6.16708249e-02 6.02601506e-02 5.82417659e-02 5.20193204e-02 2.96226405e-02 6.56473311e-03 1.93388388e-03 1.59464788e-03 7.11598247e-03 1.08905092e-01 3.47243220e-01 5.45317590e-01 8.27284455e-01 9.53178465e-01 9.49828267e-01 8.73854041e-01 8.37313592e-01 8.36287439e-01 8.70690584e-01 8.93583357e-01 8.95981491e-01 9.08074439e-01 9.23630059e-01 9.13982987e-01 8.96897376e-01 8.83379519e-01 8.70397925e-01 8.52132678e-01 2.13790778e-03 2.60097673e-03 2.70873471e-03 2.78284657e-03 2.83302832e-03 2.84318463e-03 2.77678785e-03 2.36268085e-03 1.33164821e-03 6.98275573e-04 6.73783943e-04 2.17124145e-03 3.73087898e-02 2.16603801e-01 4.13869709e-01 7.62964189e-01 9.56781745e-01 9.52868998e-01 6.71426117e-01 4.15219516e-01 3.79555464e-01 4.71046448e-01 5.97515047e-01 6.88875854e-01 7.74673760e-01 8.70685637e-01 8.95002663e-01 8.89278769e-01 8.75432312e-01 8.66117060e-01 8.53900850e-01 1.06979313e-03 5.14281681e-04 3.16129241e-04 2.71948607e-04 2.70008226e-04 2.74694670e-04 2.77951447e-04 2.72463716e-04 2.56966334e-04 2.73075013e-04 3.21555650e-04 4.48023202e-04 2.85180332e-03 6.19282536e-02 2.57643461e-01 6.09689474e-01 9.42780137e-01 9.48663235e-01 2.85157412e-01 3.11195478e-02 1.98762864e-02 2.70415526e-02 4.04524580e-02 7.04419836e-02 1.54858619e-01 3.07999432e-01 5.03566146e-01 7.07584381e-01 7.41458893e-01 7.53591835e-01 7.79694319e-01 2.29236726e-02 8.02234653e-03 4.01367620e-03 3.04589397e-03 2.71752430e-03 2.58579152e-03 2.54171505e-03 2.53986195e-03 2.55344948e-03 2.53854436e-03 2.39961082e-03 1.35348423e-03 4.83238837e-04 3.23035871e-03 4.89315987e-02 2.25616381e-01 8.56024981e-01 9.69100296e-01 3.46104860e-01 6.80590095e-03 2.16184114e-03 2.24703993e-03 2.29494064e-03 2.52397708e-03 3.57561209e-03 6.11529592e-03 1.61504112e-02 1.61385193e-01 4.24638927e-01 5.35917222e-01 6.28607452e-01 2.37103477e-01 1.34011433e-01 9.45132226e-02 9.04643089e-02 9.05595273e-02 9.08983126e-02 9.18703154e-02 9.34901536e-02 9.52294618e-02 9.50130224e-02 8.45382288e-02 4.61688600e-02 4.87084035e-03 1.69002998e-03 1.70886586e-03 6.56306185e-03 2.04455137e-01 9.39191282e-01 9.42648530e-01 3.46164815e-02 2.56847497e-03 1.99371460e-03 1.12948928e-03 7.48354301e-04 6.09165989e-04 6.44798274e-04 1.01355196e-03 5.78282773e-03 9.10610110e-02 3.24759811e-01 4.87696230e-01 4.16448325e-01 3.00681889e-01 2.46157497e-01 2.46190891e-01 2.54857093e-01 2.65703380e-01 2.78330892e-01 2.91410655e-01 3.02390814e-01 3.07306856e-01 2.95088917e-01 2.45945871e-01 1.40314832e-01 5.47997281e-02 3.64664756e-03 5.74087084e-04 2.61175702e-03 3.68778408e-02 9.44286406e-01 9.06836152e-01 5.27504534e-02 1.61329135e-02 5.87775558e-03 3.79729713e-03 2.92508677e-03 1.88267569e-03 8.62538058e-04 7.46448175e-04 4.42147208e-03 8.14411417e-02 2.82944232e-01 5.24515986e-01 4.21885192e-01 3.71469349e-01 3.68014604e-01 3.72664034e-01 3.81750792e-01 3.93625706e-01 4.06088233e-01 4.16985333e-01 4.24632102e-01 4.26467717e-01 4.16681349e-01 3.92698497e-01 3.33205432e-01 1.15748994e-01 6.68959320e-03 1.97429257e-03 9.87726264e-04 2.09641568e-02 8.41186523e-01 9.15196419e-01 7.15767264e-01 3.04231316e-01 2.05762729e-01 1.81472868e-01 9.27457213e-02 1.42975887e-02 1.73013436e-03 7.23082514e-04 4.18678485e-03 3.51824798e-02 6.40683055e-01 5.72045863e-01 5.39147735e-01 5.35951674e-01 5.35249174e-01 5.37815571e-01 5.43465137e-01 5.50900757e-01 5.58853209e-01 5.66458344e-01 5.72775662e-01 5.76090753e-01 5.75087488e-01 5.64224720e-01 5.06984055e-01 3.08732778e-01 1.19257607e-01 7.13216001e-03 2.41245236e-03 5.72352065e-03 3.89162116e-02 8.39670181e-01 9.31359708e-01 9.33151126e-01 9.26674724e-01 9.08628464e-01 6.55925035e-01 3.75068039e-02 1.58606668e-03 6.53790252e-04 1.77340722e-03 7.54086792e-01 7.26791024e-01 7.13460207e-01 7.10311294e-01 7.06288338e-01 7.04011619e-01 7.04231083e-01 7.06699610e-01 7.10774362e-01 7.15686083e-01 7.20581293e-01 7.24433005e-01 7.26421535e-01 7.26151705e-01 7.23325729e-01 7.11420536e-01 6.68355346e-01 3.97404552e-01 1.15894727e-01 5.53730689e-03 7.98629655e-04 5.04860375e-03 1.20243262e-02 1.99940465e-02 7.53686652e-02 1.26951814e-01 7.01582313e-01 7.01435268e-01 2.06451211e-02 8.06450436e-04 5.14867774e-04 8.32131326e-01 8.32104683e-01 8.30004394e-01 8.26893866e-01 8.22704077e-01 8.19291949e-01 8.17132115e-01 8.16325307e-01 8.16639721e-01 8.17621469e-01 8.18812788e-01 8.19882691e-01 8.20762634e-01 8.21924925e-01 8.24894667e-01 8.32156122e-01 8.42950463e-01 8.37982535e-01 7.87728012e-01 3.82694095e-01 1.42319342e-02 5.66373719e-03 2.40937108e-03 6.96135976e-04 1.65991695e-03 2.96744145e-03 2.43936628e-02 8.83001983e-01 8.07809353e-01 4.88350494e-03 5.81450528e-04 8.64334524e-01 8.75132859e-01 8.77176166e-01 8.74670804e-01 8.71706367e-01 8.69000018e-01 8.66609454e-01 8.64598691e-01 8.62854600e-01 8.61136615e-01 8.59301507e-01 8.57450128e-01 8.55969369e-01 8.55629683e-01 8.57768834e-01 8.64120424e-01 8.75762343e-01 8.91642988e-01 9.08695638e-01 9.10863638e-01 8.35826337e-01 6.87023759e-01 3.00473779e-01 1.90230310e-02 6.01452217e-03 2.12977035e-03 4.65788506e-03 2.30598494e-01 9.57011640e-01 1.10573061e-02 3.50090995e-04 8.55882764e-01 8.69535625e-01 8.73499751e-01 8.71870220e-01 8.70578349e-01 8.69435966e-01 8.68163049e-01 8.66592765e-01 8.64371717e-01 8.61125886e-01 8.56777728e-01 8.51668298e-01 8.46500635e-01 8.42303395e-01 8.40435445e-01 8.42319965e-01 8.48892033e-01 8.60705137e-01 8.78310323e-01 9.01394486e-01 9.25675213e-01 9.45009768e-01 9.43045259e-01 8.97748947e-01 7.62278974e-01 8.17678496e-02 3.60971503e-02 1.45820141e-01 9.56687570e-01 1.28524061e-02 1.26176747e-04 8.01245093e-01 8.08040202e-01 8.11951041e-01 8.11914802e-01 8.14424455e-01 8.18300128e-01 8.22609067e-01 8.26155722e-01 8.27279270e-01 8.24794531e-01 8.18583727e-01 8.09410274e-01 7.98514903e-01 7.87374616e-01 7.77573943e-01 7.70498812e-01 7.66956210e-01 7.67541587e-01 7.73742378e-01 7.88835227e-01 8.16527128e-01 8.54121983e-01 8.87691677e-01 9.13827777e-01 9.32995498e-01 8.87223542e-01 8.68270576e-01 9.54775453e-01 9.80346739e-01 1.43063050e-02 1.27696621e-04 6.86475456e-01 6.56583488e-01 6.45829201e-01 6.46731198e-01 6.59248948e-01 6.80351973e-01 7.06303298e-01 7.30980217e-01 7.47693598e-01 7.53305078e-01 7.48564601e-01 7.35986292e-01 7.18353033e-01 6.98242605e-01 6.77940130e-01 6.59251451e-01 6.43316388e-01 6.30975187e-01 6.23553634e-01 6.23106241e-01 6.30757332e-01 6.43718481e-01 6.54534698e-01 6.57424569e-01 6.58822358e-01 7.05987453e-01 8.92681777e-01 9.87640500e-01 9.83143449e-01 1.33203734e-02 1.71948239e-04 5.29539287e-01 4.31702763e-01 3.81501466e-01 3.77695590e-01 4.02060837e-01 4.50867563e-01 5.17781556e-01 5.86242378e-01 6.36605918e-01 6.61072731e-01 6.63328528e-01 6.50191903e-01 6.27532244e-01 5.99830687e-01 5.70642769e-01 5.42873561e-01 5.18881857e-01 5.00720739e-01 4.90261585e-01 4.88491297e-01 4.93571311e-01 4.99434471e-01 4.98395652e-01 4.88581032e-01 4.94599491e-01 6.18141711e-01 9.01699841e-01 9.89732385e-01 9.71675754e-01 1.15861520e-02 2.45302916e-04 3.83678287e-01 2.46057808e-01 1.81484357e-01 1.77501902e-01 2.02947095e-01 2.58197576e-01 3.46768916e-01 4.51506793e-01 5.35480201e-01 5.79739809e-01 5.90034127e-01 5.78133702e-01 5.53069890e-01 5.20946205e-01 4.86365080e-01 4.53319550e-01 4.25507635e-01 4.06365931e-01 3.98757875e-01 4.04076874e-01 4.20975477e-01 4.45548177e-01 4.75729823e-01 5.20744443e-01 6.18533254e-01 8.14033806e-01 9.65775609e-01 9.89772916e-01 9.15837705e-01 9.32493899e-03 3.01869935e-04 2.71950603e-01 1.39087439e-01 8.99714381e-02 9.05963033e-02 1.13695666e-01 1.63463429e-01 2.53204316e-01 3.74858648e-01 4.77332264e-01 5.30896246e-01 5.44043303e-01 5.32393694e-01 5.06440699e-01 4.72527444e-01 4.35371548e-01 3.99467677e-01 3.69491220e-01 3.50152940e-01 3.45783114e-01 3.59785318e-01 3.94259334e-01 4.51070726e-01 5.35034716e-01 6.54531896e-01 8.07132483e-01 9.37399924e-01 9.84923661e-01 9.78146315e-01 3.27745795e-01 4.25597560e-03 2.80717679e-04 1.87272176e-01 7.99980313e-02 4.65081111e-02 4.88872938e-02 6.95788190e-02 1.18591264e-01 2.15041846e-01 3.52596730e-01 4.62456763e-01 5.13557374e-01 5.22991121e-01 5.09616435e-01 4.83573914e-01 4.50062066e-01 4.12916034e-01 3.76387477e-01 3.45690906e-01 3.26822072e-01 3.26238692e-01 3.51029873e-01 4.09665108e-01 5.11603475e-01 6.56471133e-01 8.10149133e-01 9.21059847e-01 9.73981082e-01 9.85293388e-01 9.09721434e-01 3.47618498e-02 1.53208419e-03 4.30346379e-04 1.25529423e-01 4.51810248e-02 2.45181099e-02 2.71253753e-02 4.48086560e-02 9.68142003e-02 2.14105487e-01 3.71706009e-01 4.76952523e-01 5.14997840e-01 5.15913248e-01 4.99871612e-01 4.75051701e-01 4.44623858e-01 4.10859108e-01 3.77088219e-01 3.48603547e-01 3.32799405e-01 3.39117765e-01 3.79978150e-01 4.71684039e-01 6.23301268e-01 7.95704067e-01 9.13035214e-01 9.65102255e-01 9.81823504e-01 9.64940190e-01 4.27551836e-01 9.68719833e-03 1.15003285e-03 9.03052860e-04 8.55874643e-02 2.55870353e-02 1.28219603e-02 1.53655773e-02 3.15856822e-02 9.37483683e-02 2.50235945e-01 4.20554042e-01 5.02629519e-01 5.19472420e-01 5.10487497e-01 4.93097454e-01 4.72087651e-01 4.48286146e-01 4.22297478e-01 3.96253049e-01 3.75148475e-01 3.67853135e-01 3.87719542e-01 4.53214049e-01 5.82634032e-01 7.58257866e-01 8.96905780e-01 9.58786726e-01 9.78290319e-01 9.74063993e-01 8.32422733e-01 5.70281520e-02 3.75390565e-03 1.52766122e-03 1.79341051e-03 6.04789294e-02 1.48038212e-02 6.66184165e-03 9.13366210e-03 2.58418601e-02 1.12029351e-01 3.21033090e-01 4.77373958e-01 5.21058857e-01 5.15195072e-01 4.98606443e-01 4.82838601e-01 4.68804270e-01 4.55268174e-01 4.41681564e-01 4.29392397e-01 4.23124135e-01 4.33057189e-01 4.76375878e-01 5.73707759e-01 7.25232482e-01 8.71670663e-01 9.49791789e-01 9.74690437e-01 9.74269509e-01 9.11357164e-01 2.93244779e-01 1.51414275e-02 2.71178014e-03 2.42962246e-03 3.81454895e-03 4.44849506e-02 8.86598323e-03 3.79186333e-03 6.19515590e-03 2.62510460e-02 1.58747926e-01 4.09358352e-01 5.19754291e-01 5.22033811e-01 4.97940272e-01 4.77917582e-01 4.66809243e-01 4.62185174e-01 4.61419880e-01 4.63668257e-01 4.70541269e-01 4.87235010e-01 5.24622202e-01 5.99369287e-01 7.19825387e-01 8.52127969e-01 9.38147366e-01 9.70229983e-01 9.70568120e-01 9.15519178e-01 4.68919069e-01 3.74399349e-02 6.27651531e-03 3.24952696e-03 4.43374133e-03 8.91223829e-03 3.44221368e-02 5.83813712e-03 2.50445493e-03 5.12280967e-03 3.44964936e-02 2.40486279e-01 4.88073111e-01 5.35690367e-01 5.03053546e-01 4.67805356e-01 4.48945552e-01 4.44966912e-01 4.50954080e-01 4.63628650e-01 4.82603729e-01 5.10681331e-01 5.54074109e-01 6.22010648e-01 7.20734596e-01 8.34633052e-01 9.21892285e-01 9.62925553e-01 9.69142973e-01 9.14866507e-01 4.98600423e-01 6.26287386e-02 9.45924129e-03 4.45177313e-03 4.59172623e-03 8.53481051e-03 2.06992012e-02 2.77131796e-02 4.30409005e-03 1.90185942e-03 5.11722360e-03 5.61284050e-02 3.48554313e-01 5.37505090e-01 5.22361517e-01 4.65030193e-01 4.26483929e-01 4.13141131e-01 4.18076724e-01 4.34784830e-01 4.59879816e-01 4.93673027e-01 5.40156901e-01 6.05804086e-01 6.95075691e-01 7.99847245e-01 8.92376423e-01 9.48001981e-01 9.68539476e-01 9.53057349e-01 7.59972215e-01 2.29410991e-01 2.70724650e-02 7.27831339e-03 6.51196670e-03 1.00603197e-02 2.29850970e-02 6.10417537e-02 2.53069550e-02 3.48909246e-03 1.57253689e-03 5.83201926e-03 9.98164639e-02 4.50162023e-01 5.49208224e-01 4.81602103e-01 4.11439925e-01 3.77136528e-01 3.72502536e-01 3.87022018e-01 4.13729429e-01 4.49449122e-01 4.94810969e-01 5.54122329e-01 6.33053303e-01 7.31377602e-01 8.33004773e-01 9.10945475e-01 9.53184903e-01 9.67148602e-01 9.48848009e-01 7.67027795e-01 3.23964536e-01 7.49878362e-02 3.01779881e-02 3.25750038e-02 6.34793341e-02 1.54419526e-01 3.04886699e-01 3.03256921e-02 3.19365016e-03 1.35823945e-03 7.11546838e-03 1.67288676e-01 5.14920652e-01 5.21551192e-01 4.18137908e-01 3.48480016e-01 3.24041516e-01 3.28987837e-01 3.52076977e-01 3.87360811e-01 4.32175100e-01 4.86667216e-01 5.53952575e-01 6.38023138e-01 7.36498117e-01 8.32875609e-01 9.04667616e-01 9.44056273e-01 9.58142459e-01 9.49874163e-01 8.95343304e-01 7.66446948e-01 5.90721607e-01 4.87567306e-01 5.06872892e-01 5.97197175e-01 6.90053761e-01 7.52029836e-01 3.88624854e-02 3.08610382e-03 1.20472256e-03 9.06639267e-03 2.43771821e-01 5.34230590e-01 4.59441274e-01 3.41725796e-01 2.84451038e-01 2.71718293e-01 2.84064770e-01 3.12606782e-01 3.54018241e-01 4.06817198e-01 4.70055491e-01 5.43745100e-01 6.28520906e-01 7.21343756e-01 8.10135424e-01 8.78584445e-01 9.19515610e-01 9.36893344e-01 9.36369002e-01 9.21168447e-01 8.99232864e-01 8.71206284e-01 8.43579888e-01 8.32319856e-01 8.38439822e-01 8.50947380e-01 8.59483659e-01 5.00234067e-02 3.01794987e-03 1.10133761e-03 1.17772855e-02 3.07159394e-01 5.09377122e-01 3.76486182e-01 2.68054277e-01 2.28450254e-01 2.24505857e-01 2.39140838e-01 2.67715365e-01 3.10634792e-01 3.68884385e-01 4.41316843e-01 5.24025202e-01 6.11782312e-01 6.98903501e-01 7.77964652e-01 8.40515137e-01 8.81803870e-01 9.02946472e-01 9.08249021e-01 9.03326869e-01 8.93568635e-01 8.77105117e-01 8.52990389e-01 8.31213832e-01 8.21843207e-01 8.26620102e-01 8.33790720e-01 5.99908866e-02 2.96765356e-03 9.89965629e-04 1.41785787e-02 3.37517619e-01 4.51388538e-01 2.97780603e-01 2.12085381e-01 1.85384020e-01 1.82903871e-01 1.92860156e-01 2.14691252e-01 2.52189606e-01 3.10055554e-01 3.90468597e-01 4.88932550e-01 5.93217552e-01 6.88888907e-01 7.66370952e-01 8.22718263e-01 8.59294474e-01 8.79136503e-01 8.85509491e-01 8.81737888e-01 8.70122194e-01 8.49313140e-01 8.18941653e-01 7.87243247e-01 7.66995609e-01 7.69023418e-01 7.82119453e-01 6.77362233e-02 3.17130098e-03 1.01596280e-03 1.69599038e-02 3.76695335e-01 4.42800552e-01 2.90788740e-01 2.13118330e-01 1.83796406e-01 1.73369780e-01 1.73929363e-01 1.86683461e-01 2.16434449e-01 2.70074725e-01 3.54222298e-01 4.68212485e-01 5.95937312e-01 7.11045206e-01 7.95794785e-01 8.49023461e-01 8.77994597e-01 8.89940202e-01 8.89574885e-01 8.79875541e-01 8.62643361e-01 8.37610960e-01 8.03906202e-01 7.65351653e-01 7.33178139e-01 7.26830006e-01 7.44137168e-01 5.65989129e-02 4.25028102e-03 1.15732301e-03 2.11116876e-02 5.21258414e-01 5.83784223e-01 4.17385757e-01 3.26428026e-01 2.82569259e-01 2.60608584e-01 2.53691733e-01 2.63094902e-01 2.92934954e-01 3.48097742e-01 4.31195974e-01 5.36835849e-01 6.48256421e-01 7.44760096e-01 8.14556241e-01 8.57795537e-01 8.80124688e-01 8.86952281e-01 8.81987512e-01 8.68266046e-01 8.48761499e-01 8.24993610e-01 7.96639144e-01 7.64946282e-01 7.36331284e-01 7.24682689e-01 7.37031639e-01 
