# vtk DataFile Version 2.0
results_case1_non_linear/11_density.vtk, Created by Freefem++ 
ASCII
DATASET UNSTRUCTURED_GRID
POINTS 961 float
0 0 0
0.033333333 0 0
0.066666667 0 0
0.1 0 0
0.13333333 0 0
0.16666667 0 0
0.2 0 0
0.23333333 0 0
0.26666667 0 0
0.3 0 0
0.33333333 0 0
0.36666667 0 0
0.4 0 0
0.43333333 0 0
0.46666667 0 0
0.5 0 0
0.53333333 0 0
0.56666667 0 0
0.6 0 0
0.63333333 0 0
0.66666667 0 0
0.7 0 0
0.73333333 0 0
0.76666667 0 0
0.8 0 0
0.83333333 0 0
0.86666667 0 0
0.9 0 0
0.93333333 0 0
0.96666667 0 0
1 0 0
0 0.033333333 0
0.033333333 0.033333333 0
0.066666667 0.033333333 0
0.1 0.033333333 0
0.13333333 0.033333333 0
0.16666667 0.033333333 0
0.2 0.033333333 0
0.23333333 0.033333333 0
0.26666667 0.033333333 0
0.3 0.033333333 0
0.33333333 0.033333333 0
0.36666667 0.033333333 0
0.4 0.033333333 0
0.43333333 0.033333333 0
0.46666667 0.033333333 0
0.5 0.033333333 0
0.53333333 0.033333333 0
0.56666667 0.033333333 0
0.6 0.033333333 0
0.63333333 0.033333333 0
0.66666667 0.033333333 0
0.7 0.033333333 0
0.73333333 0.033333333 0
0.76666667 0.033333333 0
0.8 0.033333333 0
0.83333333 0.033333333 0
0.86666667 0.033333333 0
0.9 0.033333333 0
0.93333333 0.033333333 0
0.96666667 0.033333333 0
1 0.033333333 0
0 0.066666667 0
0.033333333 0.066666667 0
0.066666667 0.066666667 0
0.1 0.066666667 0
0.13333333 0.066666667 0
0.16666667 0.066666667 0
0.2 0.066666667 0
0.23333333 0.066666667 0
0.26666667 0.066666667 0
0.3 0.066666667 0
0.33333333 0.066666667 0
0.36666667 0.066666667 0
0.4 0.066666667 0
0.43333333 0.066666667 0
0.46666667 0.066666667 0
0.5 0.066666667 0
0.53333333 0.066666667 0
0.56666667 0.066666667 0
0.6 0.066666667 0
0.63333333 0.066666667 0
0.66666667 0.066666667 0
0.7 0.066666667 0
0.73333333 0.066666667 0
0.76666667 0.066666667 0
0.8 0.066666667 0
0.83333333 0.066666667 0
0.86666667 0.066666667 0
0.9 0.066666667 0
0.93333333 0.066666667 0
0.96666667 0.066666667 0
1 0.066666667 0
0 0.1 0
0.033333333 0.1 0
0.066666667 0.1 0
0.1 0.1 0
0.13333333 0.1 0
0.16666667 0.1 0
0.2 0.1 0
0.23333333 0.1 0
0.26666667 0.1 0
0.3 0.1 0
0.33333333 0.1 0
0.36666667 0.1 0
0.4 0.1 0
0.43333333 0.1 0
0.46666667 0.1 0
0.5 0.1 0
0.53333333 0.1 0
0.56666667 0.1 0
0.6 0.1 0
0.63333333 0.1 0
0.66666667 0.1 0
0.7 0.1 0
0.73333333 0.1 0
0.76666667 0.1 0
0.8 0.1 0
0.83333333 0.1 0
0.86666667 0.1 0
0.9 0.1 0
0.93333333 0.1 0
0.96666667 0.1 0
1 0.1 0
0 0.13333333 0
0.033333333 0.13333333 0
0.066666667 0.13333333 0
0.1 0.13333333 0
0.13333333 0.13333333 0
0.16666667 0.13333333 0
0.2 0.13333333 0
0.23333333 0.13333333 0
0.26666667 0.13333333 0
0.3 0.13333333 0
0.33333333 0.13333333 0
0.36666667 0.13333333 0
0.4 0.13333333 0
0.43333333 0.13333333 0
0.46666667 0.13333333 0
0.5 0.13333333 0
0.53333333 0.13333333 0
0.56666667 0.13333333 0
0.6 0.13333333 0
0.63333333 0.13333333 0
0.66666667 0.13333333 0
0.7 0.13333333 0
0.73333333 0.13333333 0
0.76666667 0.13333333 0
0.8 0.13333333 0
0.83333333 0.13333333 0
0.86666667 0.13333333 0
0.9 0.13333333 0
0.93333333 0.13333333 0
0.96666667 0.13333333 0
1 0.13333333 0
0 0.16666667 0
0.033333333 0.16666667 0
0.066666667 0.16666667 0
0.1 0.16666667 0
0.13333333 0.16666667 0
0.16666667 0.16666667 0
0.2 0.16666667 0
0.23333333 0.16666667 0
0.26666667 0.16666667 0
0.3 0.16666667 0
0.33333333 0.16666667 0
0.36666667 0.16666667 0
0.4 0.16666667 0
0.43333333 0.16666667 0
0.46666667 0.16666667 0
0.5 0.16666667 0
0.53333333 0.16666667 0
0.56666667 0.16666667 0
0.6 0.16666667 0
0.63333333 0.16666667 0
0.66666667 0.16666667 0
0.7 0.16666667 0
0.73333333 0.16666667 0
0.76666667 0.16666667 0
0.8 0.16666667 0
0.83333333 0.16666667 0
0.86666667 0.16666667 0
0.9 0.16666667 0
0.93333333 0.16666667 0
0.96666667 0.16666667 0
1 0.16666667 0
0 0.2 0
0.033333333 0.2 0
0.066666667 0.2 0
0.1 0.2 0
0.13333333 0.2 0
0.16666667 0.2 0
0.2 0.2 0
0.23333333 0.2 0
0.26666667 0.2 0
0.3 0.2 0
0.33333333 0.2 0
0.36666667 0.2 0
0.4 0.2 0
0.43333333 0.2 0
0.46666667 0.2 0
0.5 0.2 0
0.53333333 0.2 0
0.56666667 0.2 0
0.6 0.2 0
0.63333333 0.2 0
0.66666667 0.2 0
0.7 0.2 0
0.73333333 0.2 0
0.76666667 0.2 0
0.8 0.2 0
0.83333333 0.2 0
0.86666667 0.2 0
0.9 0.2 0
0.93333333 0.2 0
0.96666667 0.2 0
1 0.2 0
0 0.23333333 0
0.033333333 0.23333333 0
0.066666667 0.23333333 0
0.1 0.23333333 0
0.13333333 0.23333333 0
0.16666667 0.23333333 0
0.2 0.23333333 0
0.23333333 0.23333333 0
0.26666667 0.23333333 0
0.3 0.23333333 0
0.33333333 0.23333333 0
0.36666667 0.23333333 0
0.4 0.23333333 0
0.43333333 0.23333333 0
0.46666667 0.23333333 0
0.5 0.23333333 0
0.53333333 0.23333333 0
0.56666667 0.23333333 0
0.6 0.23333333 0
0.63333333 0.23333333 0
0.66666667 0.23333333 0
0.7 0.23333333 0
0.73333333 0.23333333 0
0.76666667 0.23333333 0
0.8 0.23333333 0
0.83333333 0.23333333 0
0.86666667 0.23333333 0
0.9 0.23333333 0
0.93333333 0.23333333 0
0.96666667 0.23333333 0
1 0.23333333 0
0 0.26666667 0
0.033333333 0.26666667 0
0.066666667 0.26666667 0
0.1 0.26666667 0
0.13333333 0.26666667 0
0.16666667 0.26666667 0
0.2 0.26666667 0
0.23333333 0.26666667 0
0.26666667 0.26666667 0
0.3 0.26666667 0
0.33333333 0.26666667 0
0.36666667 0.26666667 0
0.4 0.26666667 0
0.43333333 0.26666667 0
0.46666667 0.26666667 0
0.5 0.26666667 0
0.53333333 0.26666667 0
0.56666667 0.26666667 0
0.6 0.26666667 0
0.63333333 0.26666667 0
0.66666667 0.26666667 0
0.7 0.26666667 0
0.73333333 0.26666667 0
0.76666667 0.26666667 0
0.8 0.26666667 0
0.83333333 0.26666667 0
0.86666667 0.26666667 0
0.9 0.26666667 0
0.93333333 0.26666667 0
0.96666667 0.26666667 0
1 0.26666667 0
0 0.3 0
0.033333333 0.3 0
0.066666667 0.3 0
0.1 0.3 0
0.13333333 0.3 0
0.16666667 0.3 0
0.2 0.3 0
0.23333333 0.3 0
0.26666667 0.3 0
0.3 0.3 0
0.33333333 0.3 0
0.36666667 0.3 0
0.4 0.3 0
0.43333333 0.3 0
0.46666667 0.3 0
0.5 0.3 0
0.53333333 0.3 0
0.56666667 0.3 0
0.6 0.3 0
0.63333333 0.3 0
0.66666667 0.3 0
0.7 0.3 0
0.73333333 0.3 0
0.76666667 0.3 0
0.8 0.3 0
0.83333333 0.3 0
0.86666667 0.3 0
0.9 0.3 0
0.93333333 0.3 0
0.96666667 0.3 0
1 0.3 0
0 0.33333333 0
0.033333333 0.33333333 0
0.066666667 0.33333333 0
0.1 0.33333333 0
0.13333333 0.33333333 0
0.16666667 0.33333333 0
0.2 0.33333333 0
0.23333333 0.33333333 0
0.26666667 0.33333333 0
0.3 0.33333333 0
0.33333333 0.33333333 0
0.36666667 0.33333333 0
0.4 0.33333333 0
0.43333333 0.33333333 0
0.46666667 0.33333333 0
0.5 0.33333333 0
0.53333333 0.33333333 0
0.56666667 0.33333333 0
0.6 0.33333333 0
0.63333333 0.33333333 0
0.66666667 0.33333333 0
0.7 0.33333333 0
0.73333333 0.33333333 0
0.76666667 0.33333333 0
0.8 0.33333333 0
0.83333333 0.33333333 0
0.86666667 0.33333333 0
0.9 0.33333333 0
0.93333333 0.33333333 0
0.96666667 0.33333333 0
1 0.33333333 0
0 0.36666667 0
0.033333333 0.36666667 0
0.066666667 0.36666667 0
0.1 0.36666667 0
0.13333333 0.36666667 0
0.16666667 0.36666667 0
0.2 0.36666667 0
0.23333333 0.36666667 0
0.26666667 0.36666667 0
0.3 0.36666667 0
0.33333333 0.36666667 0
0.36666667 0.36666667 0
0.4 0.36666667 0
0.43333333 0.36666667 0
0.46666667 0.36666667 0
0.5 0.36666667 0
0.53333333 0.36666667 0
0.56666667 0.36666667 0
0.6 0.36666667 0
0.63333333 0.36666667 0
0.66666667 0.36666667 0
0.7 0.36666667 0
0.73333333 0.36666667 0
0.76666667 0.36666667 0
0.8 0.36666667 0
0.83333333 0.36666667 0
0.86666667 0.36666667 0
0.9 0.36666667 0
0.93333333 0.36666667 0
0.96666667 0.36666667 0
1 0.36666667 0
0 0.4 0
0.033333333 0.4 0
0.066666667 0.4 0
0.1 0.4 0
0.13333333 0.4 0
0.16666667 0.4 0
0.2 0.4 0
0.23333333 0.4 0
0.26666667 0.4 0
0.3 0.4 0
0.33333333 0.4 0
0.36666667 0.4 0
0.4 0.4 0
0.43333333 0.4 0
0.46666667 0.4 0
0.5 0.4 0
0.53333333 0.4 0
0.56666667 0.4 0
0.6 0.4 0
0.63333333 0.4 0
0.66666667 0.4 0
0.7 0.4 0
0.73333333 0.4 0
0.76666667 0.4 0
0.8 0.4 0
0.83333333 0.4 0
0.86666667 0.4 0
0.9 0.4 0
0.93333333 0.4 0
0.96666667 0.4 0
1 0.4 0
0 0.43333333 0
0.033333333 0.43333333 0
0.066666667 0.43333333 0
0.1 0.43333333 0
0.13333333 0.43333333 0
0.16666667 0.43333333 0
0.2 0.43333333 0
0.23333333 0.43333333 0
0.26666667 0.43333333 0
0.3 0.43333333 0
0.33333333 0.43333333 0
0.36666667 0.43333333 0
0.4 0.43333333 0
0.43333333 0.43333333 0
0.46666667 0.43333333 0
0.5 0.43333333 0
0.53333333 0.43333333 0
0.56666667 0.43333333 0
0.6 0.43333333 0
0.63333333 0.43333333 0
0.66666667 0.43333333 0
0.7 0.43333333 0
0.73333333 0.43333333 0
0.76666667 0.43333333 0
0.8 0.43333333 0
0.83333333 0.43333333 0
0.86666667 0.43333333 0
0.9 0.43333333 0
0.93333333 0.43333333 0
0.96666667 0.43333333 0
1 0.43333333 0
0 0.46666667 0
0.033333333 0.46666667 0
0.066666667 0.46666667 0
0.1 0.46666667 0
0.13333333 0.46666667 0
0.16666667 0.46666667 0
0.2 0.46666667 0
0.23333333 0.46666667 0
0.26666667 0.46666667 0
0.3 0.46666667 0
0.33333333 0.46666667 0
0.36666667 0.46666667 0
0.4 0.46666667 0
0.43333333 0.46666667 0
0.46666667 0.46666667 0
0.5 0.46666667 0
0.53333333 0.46666667 0
0.56666667 0.46666667 0
0.6 0.46666667 0
0.63333333 0.46666667 0
0.66666667 0.46666667 0
0.7 0.46666667 0
0.73333333 0.46666667 0
0.76666667 0.46666667 0
0.8 0.46666667 0
0.83333333 0.46666667 0
0.86666667 0.46666667 0
0.9 0.46666667 0
0.93333333 0.46666667 0
0.96666667 0.46666667 0
1 0.46666667 0
0 0.5 0
0.033333333 0.5 0
0.066666667 0.5 0
0.1 0.5 0
0.13333333 0.5 0
0.16666667 0.5 0
0.2 0.5 0
0.23333333 0.5 0
0.26666667 0.5 0
0.3 0.5 0
0.33333333 0.5 0
0.36666667 0.5 0
0.4 0.5 0
0.43333333 0.5 0
0.46666667 0.5 0
0.5 0.5 0
0.53333333 0.5 0
0.56666667 0.5 0
0.6 0.5 0
0.63333333 0.5 0
0.66666667 0.5 0
0.7 0.5 0
0.73333333 0.5 0
0.76666667 0.5 0
0.8 0.5 0
0.83333333 0.5 0
0.86666667 0.5 0
0.9 0.5 0
0.93333333 0.5 0
0.96666667 0.5 0
1 0.5 0
0 0.53333333 0
0.033333333 0.53333333 0
0.066666667 0.53333333 0
0.1 0.53333333 0
0.13333333 0.53333333 0
0.16666667 0.53333333 0
0.2 0.53333333 0
0.23333333 0.53333333 0
0.26666667 0.53333333 0
0.3 0.53333333 0
0.33333333 0.53333333 0
0.36666667 0.53333333 0
0.4 0.53333333 0
0.43333333 0.53333333 0
0.46666667 0.53333333 0
0.5 0.53333333 0
0.53333333 0.53333333 0
0.56666667 0.53333333 0
0.6 0.53333333 0
0.63333333 0.53333333 0
0.66666667 0.53333333 0
0.7 0.53333333 0
0.73333333 0.53333333 0
0.76666667 0.53333333 0
[...]
CELL_DATA 1920
Scalars  Label int 1
LOOKUP_TABLE FreeFempp_table
0
0
0
0
0
0
0
0
0
0
0
0
0
0
0
0
0
0
0
0
0
0
0
0
0
0
0
0
0
0
0
0
0
0
0
0
0
0
0
0
0
0
0
0
0
0
0
0
0
0
0
0
0
0
0
0
0
0
0
0
0
0
0
0
0
0
0
0
0
0
0
0
0
0
0
0
0
0
0
0
0
0
0
0
0
0
0
0
0
0
0
0
0
0
0
0
0
0
0
0
0
0
0
0
0
0
0
0
0
0
0
0
0
0
0
0
0
0
0
0
0
0
0
0
0
0
0
0
0
0
0
0
0
0
0
0
0
0
0
0
0
0
0
0
0
0
0
0
0
0
0
0
0
0
0
0
0
0
0
0
0
0
0
0
0
0
0
0
0
0
0
0
0
0
0
0
0
0
0
0
0
0
0
0
0
0
0
0
0
0
0
0
0
0
0
0
0
0
0
0
0
0
0
0
0
0
0
0
0
0
0
0
0
0
0
0
0
0
0
0
0
0
0
0
0
0
0
0
0
0
0
0
0
0
0
0
0
0
0
0
0
0
0
0
0
0
0
0
0
0
0
0
0
0
0
0
0
0
0
0
0
0
0
0
0
0
0
0
0
0
0
0
0
0
0
0
0
0
0
0
0
0
0
0
0
0
0
0
0
0
0
0
0
0
0
0
0
0
0
0
0
0
0
0
0
0
0
0
0
0
0
0
0
0
0
0
0
0
0
0
0
0
0
0
0
0
0
0
0
0
0
0
0
0
0
0
0
0
0
0
0
0
0
0
0
0
0
0
0
0
0
0
0
0
0
0
0
0
0
0
0
0
0
0
0
0
0
0
0
0
0
0
0
0
0
0
0
0
0
0
0
0
0
0
0
0
0
0
0
0
0
0
0
0
0
0
0
0
0
0
0
0
0
0
0
0
0
0
0
0
0
0
0
0
0
0
0
0
0
0
0
0
0
0
0
0
0
0
0
0
0
0
0
0
0
0
0
0
0
0
0
0
0
0
0
0
0
0
0
0
0
0
0
0
0
0
0
0
0
0
0
0
0
0
0
0
0
0
0
0
0
0
0
0
0
0
0
0
0
0
0
0
0
0
0
0
0
0
0
0
0
0
0
0
0
0
0
0
0
0
0
0
0
0
0
0
0
0
0
0
0
0
0
0
0
0
0
0
0
0
0
0
0
0
0
0
0
0
0
0
0
0
0
0
0
0
0
0
0
0
0
0
0
0
0
0
0
0
0
0
0
0
0
0
0
0
0
0
0
0
0
0
0
0
0
0
0
0
0
0
0
0
0
0
0
0
0
0
0
0
0
0
0
0
0
0
0
0
0
0
0
0
0
0
0
0
0
0
0
0
0
0
0
0
0
0
0
0
0
0
0
0
0
0
0
0
0
0
0
0
0
0
0
0
0
0
0
0
0
0
0
0
0
0
0
0
0
0
0
0
0
0
0
0
0
0
0
0
0
0
0
0
0
0
0
0
0
0
0
0
0
0
0
0
0
0
0
0
0
0
0
0
0
0
0
0
0
0
0
0
0
0
0
0
0
0
0
0
0
0
0
0
0
0
0
0
0
0
0
0
0
0
0
0
0
0
0
0
0
0
0
0
0
0
0
0
0
0
0
0
0
0
0
0
0
0
0
0
0
0
0
0
0
0
0
0
0
0
0
0
0
0
0
0
0
0
0
0
0
0
0
0
0
0
0
0
0
0
0
0
0
0
0
0
0
0
0
0
0
0
0
0
0
0
0
0
0
0
0
0
0
0
0
0
0
0
0
0
0
0
0
0
0
0
0
0
0
0
0
0
0
0
0
0
0
0
0
0
0
0
0
0
0
0
0
0
0
0
0
0
0
0
0
0
0
0
0
0
0
0
0
0
0
0
0
0
0
0
0
0
0
0
0
0
0
0
0
0
0
0
0
0
0
0
0
0
0
0
0
0
0
0
0
0
0
0
0
0
0
0
0
0
0
0
0
0
0
0
0
0
0
0
0
0
0
0
0
0
0
0
0
0
0
0
0
0
0
0
0
0
0
0
0
0
0
0
0
0
0
0
0
0
0
0
0
0
0
0
0
0
0
0
0
0
0
0
0
0
0
0
0
0
0
0
0
0
0
0
0
0
0
0
0
0
0
0
0
0
0
0
0
0
0
0
0
0
0
0
0
0
0
0
0
0
0
0
0
0
0
0
0
0
0
0
0
0
0
0
0
0
0
0
0
0
0
0
0
0
0
0
0
0
0
0
0
0
0
0
0
0
0
0
0
0
0
0
0
0
0
0
0
0
0
0
0
0
0
0
0
0
0
0
0
0
0
0
0
0
0
0
0
0
0
0
0
0
0
0
0
0
0
0
0
0
0
0
0
0
0
0
0
0
0
0
0
0
0
0
0
0
0
0
0
0
0
0
0
0
0
0
0
0
0
0
0
0
0
0
0
0
0
0
0
0
0
0
0
0
0
0
0
0
0
0
0
0
0
0
0
0
0
0
0
0
0
0
0
0
0
0
0
0
0
0
0
0
0
0
0
0
0
0
0
0
0
0
0
0
0
0
0
0
0
0
0
0
0
0
0
0
0
0
0
0
0
0
0
0
0
0
0
0
0
0
0
0
0
0
0
0
0
0
0
0
0
0
0
0
0
0
0
0
0
0
0
0
0
0
0
0
0
0
0
0
0
0
0
0
0
0
0
0
0
0
0
0
0
0
0
0
0
0
0
0
0
0
0
0
0
0
0
0
0
0
0
0
0
0
0
0
0
0
0
0
0
0
0
0
0
0
0
0
0
0
0
0
0
0
0
0
0
0
0
0
0
0
0
0
0
0
0
0
0
0
0
0
0
0
0
0
0
0
0
0
0
0
0
0
0
0
0
0
0
0
0
0
0
0
0
0
0
0
0
0
0
0
0
0
0
0
0
0
0
0
0
0
0
0
0
0
0
0
0
0
0
0
0
0
0
0
0
0
0
0
0
0
0
0
0
0
0
0
0
0
0
0
0
0
0
0
0
0
0
0
0
0
0
0
0
0
0
0
0
0
0
0
0
0
0
0
0
0
0
0
0
0
0
0
0
0
0
0
0
0
0
0
0
0
0
0
0
0
0
0
0
0
0
0
0
0
0
0
0
0
0
0
0
0
0
0
0
0
0
0
0
0
0
0
0
0
0
0
0
0
0
0
0
0
0
0
0
0
0
0
0
0
0
0
0
0
0
0
0
0
0
0
0
0
0
0
0
0
0
0
0
0
0
0
0
0
0
0
0
0
0
0
0
0
0
0
0
0
0
0
0
0
0
0
0
0
0
0
0
0
0
0
0
0
0
0
0
0
0
0
0
0
0
0
0
0
0
0
0
0
0
0
0
0
0
0
0
0
0
0
0
0
0
0
0
0
0
0
0
0
0
0
0
0
0
0
0
0
0
0
0
0
0
0
0
0
0
0
0
0
0
0
0
0
0
0
0
0
0
0
0
0
0
0
0
0
0
0
0
0
0
0
0
0
0
0
0
0
0
0
0
0
0
0
0
0
0
0
0
0
0
0
0
0
0
0
0
0
0
0
0
0
0
0
0
0
0
0
0
0
0
0
0
0
0
0
0
0
0
0
0
0
0
0
0
0
0
0
0
0
0
0
0
0
0
0
0
0
0
0
0
0
0
0
0
0
0
0
0
0
0
0
0
0
0
0
0
0
0
0
0
0
0
0
0
0
0
0
0
0
0
0
0
0
0
0
0
0
0
0
0
0
0
0
0
0
0
0
0
0
0
0
0
0
0
0
0
0
0
0
0
0
0
0
0
0
0
0
0
0
0
0
0
0
0
0
0
0
0
0
0
0
0
0
0
0
0
0
0
0
0
0
0
0
0
0
0
0
0
0
0
0
0
0
0
0
0
0
0
0
0
0
0
0
0
0
0
0
0
0
0
0
0
0
0
0
0
0
0
0
0
0
0
0
0
0
0
0
0
0
0
0
0
0
0
0
0
0
0
0
0
0
0
0
0
0
0
0
0
0
0
0
0
0
0
0
0
0
0
0
0
0
0
0
0
0
0
0
0
0
0
0
0
0
0
0
1
1
1
1
1
1
1
1
1
1
1
1
1
1
1
1
1
1
1
1
1
1
1
1
1
1
1
1
1
1
2
2
2
2
2
2
2
2
2
2
2
2
2
2
2
2
2
2
2
2
2
2
2
2
2
2
2
2
2
2
3
3
3
3
3
3
3
3
3
3
3
3
3
3
3
3
3
3
3
3
3
3
3
3
3
3
3
3
3
3
4
4
4
4
4
4
4
4
4
4
4
4
4
4
4
4
4
4
4
4
4
4
4
4
4
4
4
4
4
4

LOOKUP_TABLE FreeFempp_table 5
1.00000000 0.00000000 0.00000000 1.00000000
1.00000000 1.00000000 0.00000000 1.00000000
1.00000000 0.00000000 1.00000000 1.00000000
0.00000000 1.00000000 0.00000000 1.00000000
0.00000000 1.00000000 1.00000000 1.00000000

POINT_DATA 961
FIELD FieldData 1
Density 1 961 float
4.84240919e-01 4.63722378e-01 4.60956722e-01 4.60704714e-01 4.60604429e-01 4.60560441e-01 4.60984707e-01 4.59649891e-01 3.58706921e-01 7.01595172e-02 6.10097758e-02 2.83829570e-01 4.45446104e-01 5.39577901e-01 6.23427093e-01 6.16081238e-01 5.59216440e-01 5.43251693e-01 5.45150638e-01 5.43392181e-01 5.41854203e-01 5.38706064e-01 5.33631027e-01 5.28092384e-01 5.22066355e-01 5.16654134e-01 5.12945533e-01 5.10873020e-01 5.09558320e-01 5.09242594e-01 5.09982467e-01 3.80160928e-01 3.69453281e-01 3.66034567e-01 3.65979642e-01 3.65901321e-01 3.65787834e-01 3.65562558e-01 3.61690342e-01 3.04598063e-01 6.80625513e-02 2.98186466e-02 1.56429052e-01 3.69519114e-01 5.23830652e-01 6.49870872e-01 6.47453010e-01 5.50883770e-01 5.27539730e-01 5.43285728e-01 5.48249841e-01 5.48462033e-01 5.45227647e-01 5.39580107e-01 5.32997012e-01 5.26044965e-01 5.17904580e-01 5.11435866e-01 5.07720113e-01 5.05580664e-01 5.05234361e-01 5.07717848e-01 5.73593900e-02 6.28156960e-02 6.09787479e-02 6.10624664e-02 6.09502010e-02 6.07846864e-02 6.06703833e-02 6.03349097e-02 5.52075617e-02 1.72132719e-02 4.50797379e-03 3.00759487e-02 1.14140257e-01 3.76129359e-01 5.95537305e-01 6.15360498e-01 3.85590017e-01 3.29786956e-01 3.82471442e-01 4.18754399e-01 4.40402895e-01 4.73739058e-01 5.06904542e-01 5.09930611e-01 5.09293795e-01 5.07252216e-01 5.01602471e-01 4.96374696e-01 4.93403077e-01 4.93741781e-01 5.00126421e-01 6.78718388e-02 5.35476319e-02 5.18154874e-02 5.28907739e-02 5.40701449e-02 5.52310273e-02 5.63758165e-02 5.75574674e-02 5.84793985e-02 5.81688695e-02 6.26677200e-02 4.49436344e-02 1.44001888e-02 5.77988327e-02 1.76270112e-01 5.87173045e-01 3.71501774e-01 1.45169675e-01 1.08941682e-01 1.07686572e-01 1.17118843e-01 1.68334454e-01 3.28766763e-01 4.11325485e-01 4.52843875e-01 4.63214159e-01 4.73880500e-01 4.75857615e-01 4.74419802e-01 4.76787955e-01 4.88333553e-01 3.52314204e-01 3.12379509e-01 3.03393871e-01 3.08535606e-01 3.16139936e-01 3.24063033e-01 3.31747413e-01 3.38878274e-01 3.45107913e-01 3.49852860e-01 3.50565076e-01 3.04384023e-01 1.04195982e-01 6.91645741e-02 5.74797466e-02 1.71322003e-01 5.72078049e-01 2.70424694e-01 9.33940634e-02 5.32710999e-02 3.36724743e-02 2.97171231e-02 6.22669160e-02 1.32140338e-01 2.84990460e-01 3.40796143e-01 3.67426455e-01 4.17417794e-01 4.49249476e-01 4.58860219e-01 4.75631088e-01 4.24884319e-01 3.90535593e-01 3.75049442e-01 3.79549593e-01 3.88019890e-01 3.96785140e-01 4.05018091e-01 4.12312210e-01 4.18383539e-01 4.23079163e-01 4.25975323e-01 4.21854347e-01 3.76441479e-01 3.52072656e-01 3.12299550e-01 1.02113403e-01 1.73879609e-01 5.39497733e-01 3.11831534e-01 2.00376436e-01 1.54892728e-01 1.17451690e-01 6.95734024e-02 2.40810364e-02 4.74555455e-02 7.15603307e-02 1.05183385e-01 1.88035086e-01 3.58907044e-01 4.38296735e-01 4.64090109e-01 4.47650015e-01 4.17315573e-01 4.03871834e-01 4.06378865e-01 4.11948234e-01 4.17824626e-01 4.23158944e-01 4.27620471e-01 4.31095213e-01 4.33651984e-01 4.35368001e-01 4.35600698e-01 4.32516485e-01 4.32843834e-01 4.27437454e-01 3.38301748e-01 1.00433305e-01 1.62050486e-01 5.34649014e-01 5.88560283e-01 5.86406887e-01 5.60560226e-01 4.65956330e-01 1.66759253e-01 5.67995384e-02 1.67487860e-02 1.54054156e-02 3.08890808e-02 1.04007639e-01 3.48819911e-01 4.42130297e-01 4.68975633e-01 4.46938008e-01 4.38465238e-01 4.39804792e-01 4.42390233e-01 4.45332050e-01 4.48057175e-01 4.50268805e-01 4.51869875e-01 4.52886730e-01 4.53332067e-01 4.52997506e-01 4.51543778e-01 4.49606627e-01 4.46199268e-01 4.33444738e-01 3.42455029e-01 1.01374410e-01 1.40058473e-01 4.49589431e-01 5.66108346e-01 6.16080999e-01 6.29959702e-01 6.05557919e-01 3.94574136e-01 1.65192202e-01 7.34487623e-02 3.15587856e-02 1.99632738e-02 9.74593610e-02 2.99169630e-01 4.91890341e-01 4.78617191e-01 4.73662674e-01 4.74008322e-01 4.74446416e-01 4.75223243e-01 4.76125568e-01 4.76909339e-01 4.77401376e-01 4.77508932e-01 4.77165639e-01 4.76284176e-01 4.74801809e-01 4.72798944e-01 4.70062077e-01 4.65379566e-01 4.51414347e-01 3.55715036e-01 1.01654619e-01 7.68004805e-02 1.53850466e-01 2.61577696e-01 3.16290170e-01 3.74778360e-01 5.22406518e-01 5.67541063e-01 4.18677926e-01 2.12694883e-01 6.24895059e-02 1.83354113e-02 4.54192162e-02 5.13944268e-01 5.09529471e-01 5.06708860e-01 5.06090641e-01 5.05236804e-01 5.04731834e-01 5.04587531e-01 5.04635274e-01 5.04618645e-01 5.04348755e-01 5.03758490e-01 5.02881348e-01 5.01814127e-01 5.00619709e-01 4.99180019e-01 4.97257292e-01 4.94185120e-01 4.81517613e-01 3.79316092e-01 1.02482118e-01 2.34799255e-02 3.88140194e-02 5.75433448e-02 7.89057463e-02 1.27119318e-01 1.99824631e-01 4.63890135e-01 4.61374491e-01 2.57421196e-01 4.13970463e-02 1.30616073e-02 5.30136824e-01 5.33314824e-01 5.31863391e-01 5.30604899e-01 5.29272079e-01 5.28312147e-01 5.27866364e-01 5.27821720e-01 5.27833700e-01 5.27637422e-01 5.27206898e-01 5.26701391e-01 5.26350141e-01 5.26329756e-01 5.26719868e-01 5.27713954e-01 5.29989302e-01 5.33685982e-01 5.27107775e-01 4.17649388e-01 1.29074648e-01 4.76400666e-02 1.93707328e-02 2.09687166e-02 3.38854454e-02 6.36354908e-02 1.87465668e-01 5.06956220e-01 4.25335139e-01 7.22455382e-02 1.16167068e-02 5.35266459e-01 5.43045461e-01 5.42866528e-01 5.41684151e-01 5.40791690e-01 5.40315211e-01 5.40432692e-01 5.40980697e-01 5.41470885e-01 5.41595042e-01 5.41398406e-01 5.41162312e-01 5.41228116e-01 5.41901112e-01 5.43459594e-01 5.46317339e-01 5.51517069e-01 5.60966253e-01 5.74207425e-01 5.76805055e-01 5.03843069e-01 3.23258311e-01 1.50244638e-01 8.75290409e-02 5.68331070e-02 6.88056573e-02 9.28288996e-02 3.00103486e-01 5.69266319e-01 1.05850086e-01 1.06644714e-02 5.26355803e-01 5.34046948e-01 5.35259366e-01 5.35147965e-01 5.35833895e-01 5.37192583e-01 5.39151371e-01 5.41203499e-01 5.42636454e-01 5.43197632e-01 5.43080270e-01 5.42687595e-01 5.42437792e-01 5.42704940e-01 5.43851256e-01 5.46288311e-01 5.50791860e-01 5.59160769e-01 5.73151588e-01 5.91257989e-01 6.10838413e-01 6.06563747e-01 5.50274730e-01 4.45515156e-01 2.82848567e-01 2.07597554e-01 1.74397245e-01 2.83751398e-01 6.05163813e-01 1.27219483e-01 8.17431789e-03 5.04054844e-01 5.05356550e-01 5.07217526e-01 5.09638369e-01 5.13684630e-01 5.18890142e-01 5.24524450e-01 5.29282629e-01 5.32234192e-01 5.33392847e-01 5.33237696e-01 5.32310903e-01 5.31079531e-01 5.29934704e-01 5.29237986e-01 5.29335797e-01 5.30624747e-01 5.33993959e-01 5.40895462e-01 5.52031457e-01 5.70408225e-01 6.01929665e-01 6.35555625e-01 6.41230524e-01 5.96746922e-01 5.68629563e-01 4.88080561e-01 5.23847044e-01 6.65941119e-01 1.35775521e-01 6.54756930e-03 4.71443594e-01 4.59289581e-01 4.58947539e-01 4.65977788e-01 4.76758480e-01 4.89042073e-01 5.00715852e-01 5.09443939e-01 5.14460623e-01 5.16420245e-01 5.16257465e-01 5.14690042e-01 5.12227118e-01 5.09264469e-01 5.06162882e-01 5.03279448e-01 5.00961542e-01 4.99642670e-01 4.99991894e-01 5.02603054e-01 5.08618832e-01 5.22665679e-01 5.47459364e-01 5.71914017e-01 5.80951333e-01 5.97926497e-01 6.22934818e-01 6.79827750e-01 6.82387292e-01 1.33391723e-01 5.99896489e-03 4.31102872e-01 3.98808002e-01 3.92748088e-01 4.07200992e-01 4.29978430e-01 4.53973711e-01 4.74090099e-01 4.87583488e-01 4.94850844e-01 4.97689635e-01 4.97626513e-01 4.95580405e-01 4.92096573e-01 4.87569362e-01 4.82372850e-01 4.76928055e-01 4.71723497e-01 4.67304021e-01 4.64190334e-01 4.62647378e-01 4.62677151e-01 4.65095162e-01 4.71708298e-01 4.81667310e-01 4.92529422e-01 5.20058870e-01 5.95169246e-01 7.01807857e-01 6.38645589e-01 1.21764533e-01 6.42108172e-03 3.85084122e-01 3.27488899e-01 3.14263850e-01 3.39798450e-01 3.80542755e-01 4.20905203e-01 4.50756460e-01 4.68751132e-01 4.77871865e-01 4.81438845e-01 4.81577784e-01 4.79375005e-01 4.75389242e-01 4.69998211e-01 4.63578284e-01 4.56598490e-01 4.49667007e-01 4.43522274e-01 4.38898712e-01 4.36244577e-01 4.35570002e-01 4.36923951e-01 4.41267699e-01 4.50940579e-01 4.72141683e-01 5.23548961e-01 6.24632955e-01 6.96748555e-01 5.47694802e-01 1.06962718e-01 8.09068792e-03 3.35993171e-01 2.54713178e-01 2.36651927e-01 2.75797576e-01 3.38218421e-01 3.96402687e-01 4.34714407e-01 4.55566138e-01 4.65605080e-01 4.69584912e-01 4.70001251e-01 4.67991948e-01 4.64093506e-01 4.58652973e-01 4.52026010e-01 4.44676995e-01 4.37234074e-01 4.30496782e-01 4.25352782e-01 4.22625095e-01 4.23068762e-01 4.27759439e-01 4.39021617e-01 4.62005317e-01 5.06710172e-01 5.85158944e-01 6.70884371e-01 6.33125305e-01 3.01093787e-01 6.31208718e-02 8.26273765e-03 2.80615270e-01 1.91429034e-01 1.74335837e-01 2.28642613e-01 3.12998325e-01 3.85011345e-01 4.27268535e-01 4.48219657e-01 4.57996309e-01 4.62054282e-01 4.62807149e-01 4.61275011e-01 4.57935333e-01 4.53104913e-01 4.47111666e-01 4.40382749e-01 4.33500648e-01 4.27241206e-01 4.22593236e-01 4.20823961e-01 4.23762470e-01 4.34324265e-01 4.57474142e-01 5.00753343e-01 5.69546700e-01 6.46643877e-01 6.52666330e-01 4.78497028e-01 1.52091369e-01 3.18913125e-02 1.65359732e-02 2.09362969e-01 1.40822366e-01 1.33101717e-01 2.05381528e-01 3.09860826e-01 3.87420446e-01 4.27175373e-01 4.45330024e-01 4.53859687e-01 4.57762480e-01 4.58901167e-01 4.58028704e-01 4.55535918e-01 4.51723218e-01 4.46915179e-01 4.41528291e-01 4.36133265e-01 4.31540161e-01 4.28943157e-01 4.30210501e-01 4.38432068e-01 4.58507687e-01 4.97342288e-01 5.59894204e-01 6.29928887e-01 6.45041227e-01 5.24373472e-01 2.30193853e-01 7.06763566e-02 3.04691941e-02 3.48071270e-02 1.34324059e-01 1.01775408e-01 1.11917943e-01 2.06806377e-01 3.26931506e-01 3.99785548e-01 4.31369573e-01 4.44916695e-01 4.51752216e-01 4.55416232e-01 4.56975371e-01 4.56852883e-01 4.55339968e-01 4.52738285e-01 4.49418426e-01 4.45874751e-01 4.42808390e-01 4.41276163e-01 4.42957669e-01 4.50588107e-01 4.68435556e-01 5.01931787e-01 5.55122972e-01 6.17080510e-01 6.34171724e-01 5.38044214e-01 2.87252247e-01 1.10722050e-01 4.22082879e-02 5.06151132e-02 7.87207708e-02 7.94842318e-02 7.50765502e-02 1.09454036e-01 2.31987000e-01 3.57041746e-01 4.15725857e-01 4.36387658e-01 4.45183545e-01 4.50439215e-01 4.53904122e-01 4.55899149e-01 4.56552625e-01 4.56061333e-01 4.54741985e-01 4.53064114e-01 4.51714873e-01 4.51720536e-01 4.54658449e-01 4.62976247e-01 4.80278432e-01 5.10865152e-01 5.56461215e-01 6.07677877e-01 6.25974953e-01 5.40721834e-01 3.18609685e-01 1.50460392e-01 6.85869828e-02 5.69032952e-02 1.01229765e-01 1.89948022e-01 4.79312986e-02 5.94949350e-02 1.26927644e-01 2.79714942e-01 3.90570909e-01 4.29374039e-01 4.39818233e-01 4.44958478e-01 4.49064791e-01 4.52418119e-01 4.54836518e-01 4.56250399e-01 4.56785202e-01 4.56775874e-01 4.56811726e-01 4.57834899e-01 4.61297899e-01 4.69370395e-01 4.85090762e-01 5.11996984e-01 5.51951110e-01 5.98898172e-01 6.26697719e-01 5.77059805e-01 3.88761073e-01 1.95760921e-01 1.05114043e-01 8.28347579e-02 1.06317006e-01 1.89359993e-01 3.17340642e-01 3.17059718e-02 5.60059696e-02 1.68885261e-01 3.38135511e-01 4.18661267e-01 4.37363148e-01 4.40812618e-01 4.43776697e-01 4.47170109e-01 4.50451553e-01 4.53226388e-01 4.55345303e-01 4.56895202e-01 4.58213091e-01 4.59962010e-01 4.63268816e-01 4.69886839e-01 4.82284933e-01 5.03408253e-01 5.35482168e-01 5.76751411e-01 6.15253806e-01 6.19915724e-01 5.38393676e-01 3.51749212e-01 1.93270639e-01 1.46250069e-01 1.60254434e-01 2.17296600e-01 3.18084747e-01 4.05840516e-01 2.39141826e-02 6.38742894e-02 2.39303946e-01 3.88720274e-01 4.35187668e-01 4.39468026e-01 4.39748675e-01 4.41718072e-01 4.44611341e-01 4.47726399e-01 4.50701177e-01 4.53413129e-01 4.55943406e-01 4.58597720e-01 4.62001294e-01 4.67259109e-01 4.76100028e-01 4.90809411e-01 5.13616741e-01 5.45070350e-01 5.81048727e-01 6.08861029e-01 6.03966773e-01 5.34226179e-01 4.02843118e-01 3.01790029e-01 2.86791205e-01 3.28184217e-01 3.85948837e-01 4.35025930e-01 4.69873130e-01 1.96483489e-02 7.29594156e-02 3.09943110e-01 4.19473439e-01 4.39187586e-01 4.37807232e-01 4.37637925e-01 4.39123571e-01 4.41409200e-01 4.44092453e-01 4.46999043e-01 4.50108916e-01 4.53531981e-01 4.57516879e-01 4.62525517e-01 4.69383210e-01 4.79414076e-01 4.94317770e-01 5.15442729e-01 5.42251170e-01 5.70283890e-01 5.89663327e-01 5.85751534e-01 5.46320975e-01 4.84978914e-01 4.50497419e-01 4.56905216e-01 4.77592647e-01 4.93644387e-01 5.03436744e-01 5.06990731e-01 2.23389957e-02 8.05432796e-02 3.49563181e-01 4.30510014e-01 4.36240047e-01 4.35462177e-01 4.35627878e-01 4.36353117e-01 4.37607557e-01 4.39434797e-01 4.41888392e-01 4.45090681e-01 4.49224085e-01 4.54494685e-01 4.61137950e-01 4.69513446e-01 4.80244279e-01 4.94194448e-01 5.11966288e-01 5.32795906e-01 5.53331196e-01 5.67323923e-01 5.67342997e-01 5.50258458e-01 5.26806772e-01 5.16775966e-01 5.20317614e-01 5.24087429e-01 5.25375843e-01 5.26503026e-01 5.22678077e-01 6.16912059e-02 6.83704019e-02 3.36625665e-01 4.31193978e-01 4.34688389e-01 4.35584813e-01 4.34668779e-01 4.33580756e-01 4.33129340e-01 4.33569908e-01 4.35086995e-01 4.37946469e-01 4.42453086e-01 4.48839039e-01 4.57172334e-01 4.67353225e-01 4.79220510e-01 4.92679656e-01 5.07628441e-01 5.23484528e-01 5.38496494e-01 5.49497783e-01 5.52855551e-01 5.47251701e-01 5.37266850e-01 5.30312836e-01 5.27387798e-01 5.25839627e-01 5.26256561e-01 5.28351426e-01 5.25290430e-01 3.37990224e-01 1.16576165e-01 1.05530620e-01 3.50555360e-01 4.32563663e-01 4.36638415e-01 4.33117896e-01 4.29414243e-01 4.26820576e-01 4.25464898e-01 4.25590903e-01 4.27635044e-01 4.32092428e-01 4.39339697e-01 4.49466318e-01 4.62163657e-01 4.76726860e-01 4.92194712e-01 5.07564187e-01 5.21909177e-01 5.34251451e-01 5.43284476e-01 5.47388732e-01 5.45554459e-01 5.39029479e-01 5.31126380e-01 5.24550498e-01 5.20575941e-01 5.19722104e-01 5.21269500e-01 5.20513296e-01 4.68970507e-01 3.51621121e-01 6.31719828e-02 1.22819245e-01 4.04654562e-01 4.40048814e-01 4.35204804e-01 4.30098236e-01 4.26007748e-01 4.23032939e-01 4.21615332e-01 4.22412574e-01 4.26125288e-01 4.33327824e-01 4.44290727e-01 4.58816200e-01 4.76129591e-01 4.94880557e-01 5.13296783e-01 5.29477954e-01 5.41731894e-01 5.48826337e-01 5.50150394e-01 5.45955241e-01 5.37710190e-01 5.27940631e-01 5.19150257e-01 5.12801468e-01 5.09286284e-01 5.09383619e-01 5.11872232e-01 4.72849190e-01 3.99702311e-01 9.39055234e-02 8.26650634e-02 4.16921139e-01 4.70761895e-01 4.55709904e-01 4.50726062e-01 4.46981221e-01 4.43935066e-01 4.42055941e-01 4.41985011e-01 4.44369704e-01 4.49741870e-01 4.58377838e-01 4.70165581e-01 4.84513730e-01 5.00329673e-01 5.16084969e-01 5.29984653e-01 5.40249527e-01 5.45499325e-01 5.45188129e-01 5.39965570e-01 5.31687915e-01 5.22764921e-01 5.15096068e-01 5.09463966e-01 5.05862415e-01 5.04751146e-01 5.06811559e-01 
