# vtk DataFile Version 2.0
results_case1_non_linear/2_density.vtk, Created by Freefem++ 
ASCII
DATASET UNSTRUCTURED_GRID
POINTS 961 float
0 0 0
0.033333333 0 0
0.066666667 0 0
0.1 0 0
0.13333333 0 0
0.16666667 0 0
0.2 0 0
0.23333333 0 0
0.26666667 0 0
0.3 0 0
0.33333333 0 0
0.36666667 0 0
0.4 0 0
0.43333333 0 0
0.46666667 0 0
0.5 0 0
0.53333333 0 0
0.56666667 0 0
0.6 0 0
0.63333333 0 0
0.66666667 0 0
0.7 0 0
0.73333333 0 0
0.76666667 0 0
0.8 0 0
0.83333333 0 0
0.86666667 0 0
0.9 0 0
0.93333333 0 0
0.96666667 0 0
1 0 0
0 0.033333333 0
0.033333333 0.033333333 0
0.066666667 0.033333333 0
0.1 0.033333333 0
0.13333333 0.033333333 0
0.16666667 0.033333333 0
0.2 0.033333333 0
0.23333333 0.033333333 0
0.26666667 0.033333333 0
0.3 0.033333333 0
0.33333333 0.033333333 0
0.36666667 0.033333333 0
0.4 0.033333333 0
0.43333333 0.033333333 0
0.46666667 0.033333333 0
0.5 0.033333333 0
0.53333333 0.033333333 0
0.56666667 0.033333333 0
0.6 0.033333333 0
0.63333333 0.033333333 0
0.66666667 0.033333333 0
0.7 0.033333333 0
0.73333333 0.033333333 0
0.76666667 0.033333333 0
0.8 0.033333333 0
0.83333333 0.033333333 0
0.86666667 0.033333333 0
0.9 0.033333333 0
0.93333333 0.033333333 0
0.96666667 0.033333333 0
1 0.033333333 0
0 0.066666667 0
0.033333333 0.066666667 0
0.066666667 0.066666667 0
0.1 0.066666667 0
0.13333333 0.066666667 0
0.16666667 0.066666667 0
0.2 0.066666667 0
0.23333333 0.066666667 0
0.26666667 0.066666667 0
0.3 0.066666667 0
0.33333333 0.066666667 0
0.36666667 0.066666667 0
0.4 0.066666667 0
0.43333333 0.066666667 0
0.46666667 0.066666667 0
0.5 0.066666667 0
0.53333333 0.066666667 0
0.56666667 0.066666667 0
0.6 0.066666667 0
0.63333333 0.066666667 0
0.66666667 0.066666667 0
0.7 0.066666667 0
0.73333333 0.066666667 0
0.76666667 0.066666667 0
0.8 0.066666667 0
0.83333333 0.066666667 0
0.86666667 0.066666667 0
0.9 0.066666667 0
0.93333333 0.066666667 0
0.96666667 0.066666667 0
1 0.066666667 0
0 0.1 0
0.033333333 0.1 0
0.066666667 0.1 0
0.1 0.1 0
0.13333333 0.1 0
0.16666667 0.1 0
0.2 0.1 0
0.23333333 0.1 0
0.26666667 0.1 0
0.3 0.1 0
0.33333333 0.1 0
0.36666667 0.1 0
0.4 0.1 0
0.43333333 0.1 0
0.46666667 0.1 0
0.5 0.1 0
0.53333333 0.1 0
0.56666667 0.1 0
0.6 0.1 0
0.63333333 0.1 0
0.66666667 0.1 0
0.7 0.1 0
0.73333333 0.1 0
0.76666667 0.1 0
0.8 0.1 0
0.83333333 0.1 0
0.86666667 0.1 0
0.9 0.1 0
0.93333333 0.1 0
0.96666667 0.1 0
1 0.1 0
0 0.13333333 0
0.033333333 0.13333333 0
0.066666667 0.13333333 0
0.1 0.13333333 0
0.13333333 0.13333333 0
0.16666667 0.13333333 0
0.2 0.13333333 0
0.23333333 0.13333333 0
0.26666667 0.13333333 0
0.3 0.13333333 0
0.33333333 0.13333333 0
0.36666667 0.13333333 0
0.4 0.13333333 0
0.43333333 0.13333333 0
0.46666667 0.13333333 0
0.5 0.13333333 0
0.53333333 0.13333333 0
0.56666667 0.13333333 0
0.6 0.13333333 0
0.63333333 0.13333333 0
0.66666667 0.13333333 0
0.7 0.13333333 0
0.73333333 0.13333333 0
0.76666667 0.13333333 0
0.8 0.13333333 0
0.83333333 0.13333333 0
0.86666667 0.13333333 0
0.9 0.13333333 0
0.93333333 0.13333333 0
0.96666667 0.13333333 0
1 0.13333333 0
0 0.16666667 0
0.033333333 0.16666667 0
0.066666667 0.16666667 0
0.1 0.16666667 0
0.13333333 0.16666667 0
0.16666667 0.16666667 0
0.2 0.16666667 0
0.23333333 0.16666667 0
0.26666667 0.16666667 0
0.3 0.16666667 0
0.33333333 0.16666667 0
0.36666667 0.16666667 0
0.4 0.16666667 0
0.43333333 0.16666667 0
0.46666667 0.16666667 0
0.5 0.16666667 0
0.53333333 0.16666667 0
0.56666667 0.16666667 0
0.6 0.16666667 0
0.63333333 0.16666667 0
0.66666667 0.16666667 0
0.7 0.16666667 0
0.73333333 0.16666667 0
0.76666667 0.16666667 0
0.8 0.16666667 0
0.83333333 0.16666667 0
0.86666667 0.16666667 0
0.9 0.16666667 0
0.93333333 0.16666667 0
0.96666667 0.16666667 0
1 0.16666667 0
0 0.2 0
0.033333333 0.2 0
0.066666667 0.2 0
0.1 0.2 0
0.13333333 0.2 0
0.16666667 0.2 0
0.2 0.2 0
0.23333333 0.2 0
0.26666667 0.2 0
0.3 0.2 0
0.33333333 0.2 0
0.36666667 0.2 0
0.4 0.2 0
0.43333333 0.2 0
0.46666667 0.2 0
0.5 0.2 0
0.53333333 0.2 0
0.56666667 0.2 0
0.6 0.2 0
0.63333333 0.2 0
0.66666667 0.2 0
0.7 0.2 0
0.73333333 0.2 0
0.76666667 0.2 0
0.8 0.2 0
0.83333333 0.2 0
0.86666667 0.2 0
0.9 0.2 0
0.93333333 0.2 0
0.96666667 0.2 0
1 0.2 0
0 0.23333333 0
0.033333333 0.23333333 0
0.066666667 0.23333333 0
0.1 0.23333333 0
0.13333333 0.23333333 0
0.16666667 0.23333333 0
0.2 0.23333333 0
0.23333333 0.23333333 0
0.26666667 0.23333333 0
0.3 0.23333333 0
0.33333333 0.23333333 0
0.36666667 0.23333333 0
0.4 0.23333333 0
0.43333333 0.23333333 0
0.46666667 0.23333333 0
0.5 0.23333333 0
0.53333333 0.23333333 0
0.56666667 0.23333333 0
0.6 0.23333333 0
0.63333333 0.23333333 0
0.66666667 0.23333333 0
0.7 0.23333333 0
0.73333333 0.23333333 0
0.76666667 0.23333333 0
0.8 0.23333333 0
0.83333333 0.23333333 0
0.86666667 0.23333333 0
0.9 0.23333333 0
0.93333333 0.23333333 0
0.96666667 0.23333333 0
1 0.23333333 0
0 0.26666667 0
0.033333333 0.26666667 0
0.066666667 0.26666667 0
0.1 0.26666667 0
0.13333333 0.26666667 0
0.16666667 0.26666667 0
0.2 0.26666667 0
0.23333333 0.26666667 0
0.26666667 0.26666667 0
0.3 0.26666667 0
0.33333333 0.26666667 0
0.36666667 0.26666667 0
0.4 0.26666667 0
0.43333333 0.26666667 0
0.46666667 0.26666667 0
0.5 0.26666667 0
0.53333333 0.26666667 0
0.56666667 0.26666667 0
0.6 0.26666667 0
0.63333333 0.26666667 0
0.66666667 0.26666667 0
0.7 0.26666667 0
0.73333333 0.26666667 0
0.76666667 0.26666667 0
0.8 0.26666667 0
0.83333333 0.26666667 0
0.86666667 0.26666667 0
0.9 0.26666667 0
0.93333333 0.26666667 0
0.96666667 0.26666667 0
1 0.26666667 0
0 0.3 0
0.033333333 0.3 0
0.066666667 0.3 0
0.1 0.3 0
0.13333333 0.3 0
0.16666667 0.3 0
0.2 0.3 0
0.23333333 0.3 0
0.26666667 0.3 0
0.3 0.3 0
0.33333333 0.3 0
0.36666667 0.3 0
0.4 0.3 0
0.43333333 0.3 0
0.46666667 0.3 0
0.5 0.3 0
0.53333333 0.3 0
0.56666667 0.3 0
0.6 0.3 0
0.63333333 0.3 0
0.66666667 0.3 0
0.7 0.3 0
0.73333333 0.3 0
0.76666667 0.3 0
0.8 0.3 0
0.83333333 0.3 0
0.86666667 0.3 0
0.9 0.3 0
0.93333333 0.3 0
0.96666667 0.3 0
1 0.3 0
0 0.33333333 0
0.033333333 0.33333333 0
0.066666667 0.33333333 0
0.1 0.33333333 0
0.13333333 0.33333333 0
0.16666667 0.33333333 0
0.2 0.33333333 0
0.23333333 0.33333333 0
0.26666667 0.33333333 0
0.3 0.33333333 0
0.33333333 0.33333333 0
0.36666667 0.33333333 0
0.4 0.33333333 0
0.43333333 0.33333333 0
0.46666667 0.33333333 0
0.5 0.33333333 0
0.53333333 0.33333333 0
0.56666667 0.33333333 0
0.6 0.33333333 0
0.63333333 0.33333333 0
0.66666667 0.33333333 0
0.7 0.33333333 0
0.73333333 0.33333333 0
0.76666667 0.33333333 0
0.8 0.33333333 0
0.83333333 0.33333333 0
0.86666667 0.33333333 0
0.9 0.33333333 0
0.93333333 0.33333333 0
0.96666667 0.33333333 0
1 0.33333333 0
0 0.36666667 0
0.033333333 0.36666667 0
0.066666667 0.36666667 0
0.1 0.36666667 0
0.13333333 0.36666667 0
0.16666667 0.36666667 0
0.2 0.36666667 0
0.23333333 0.36666667 0
0.26666667 0.36666667 0
0.3 0.36666667 0
0.33333333 0.36666667 0
0.36666667 0.36666667 0
0.4 0.36666667 0
0.43333333 0.36666667 0
0.46666667 0.36666667 0
0.5 0.36666667 0
0.53333333 0.36666667 0
0.56666667 0.36666667 0
0.6 0.36666667 0
0.63333333 0.36666667 0
0.66666667 0.36666667 0
0.7 0.36666667 0
0.73333333 0.36666667 0
0.76666667 0.36666667 0
0.8 0.36666667 0
0.83333333 0.36666667 0
0.86666667 0.36666667 0
0.9 0.36666667 0
0.93333333 0.36666667 0
0.96666667 0.36666667 0
1 0.36666667 0
0 0.4 0
0.033333333 0.4 0
0.066666667 0.4 0
0.1 0.4 0
0.13333333 0.4 0
0.16666667 0.4 0
0.2 0.4 0
0.23333333 0.4 0
0.26666667 0.4 0
0.3 0.4 0
0.33333333 0.4 0
0.36666667 0.4 0
0.4 0.4 0
0.43333333 0.4 0
0.46666667 0.4 0
0.5 0.4 0
0.53333333 0.4 0
0.56666667 0.4 0
0.6 0.4 0
0.63333333 0.4 0
0.66666667 0.4 0
0.7 0.4 0
0.73333333 0.4 0
0.76666667 0.4 0
0.8 0.4 0
0.83333333 0.4 0
0.86666667 0.4 0
0.9 0.4 0
0.93333333 0.4 0
0.96666667 0.4 0
1 0.4 0
0 0.43333333 0
0.033333333 0.43333333 0
0.066666667 0.43333333 0
0.1 0.43333333 0
0.13333333 0.43333333 0
0.16666667 0.43333333 0
0.2 0.43333333 0
0.23333333 0.43333333 0
0.26666667 0.43333333 0
0.3 0.43333333 0
0.33333333 0.43333333 0
0.36666667 0.43333333 0
0.4 0.43333333 0
0.43333333 0.43333333 0
0.46666667 0.43333333 0
0.5 0.43333333 0
0.53333333 0.43333333 0
0.56666667 0.43333333 0
0.6 0.43333333 0
0.63333333 0.43333333 0
0.66666667 0.43333333 0
0.7 0.43333333 0
0.73333333 0.43333333 0
0.76666667 0.43333333 0
0.8 0.43333333 0
0.83333333 0.43333333 0
0.86666667 0.43333333 0
0.9 0.43333333 0
0.93333333 0.43333333 0
0.96666667 0.43333333 0
1 0.43333333 0
0 0.46666667 0
0.033333333 0.46666667 0
0.066666667 0.46666667 0
0.1 0.46666667 0
0.13333333 0.46666667 0
0.16666667 0.46666667 0
0.2 0.46666667 0
0.23333333 0.46666667 0
0.26666667 0.46666667 0
0.3 0.46666667 0
0.33333333 0.46666667 0
0.36666667 0.46666667 0
0.4 0.46666667 0
0.43333333 0.46666667 0
0.46666667 0.46666667 0
0.5 0.46666667 0
0.53333333 0.46666667 0
0.56666667 0.46666667 0
0.6 0.46666667 0
0.63333333 0.46666667 0
0.66666667 0.46666667 0
0.7 0.46666667 0
0.73333333 0.46666667 0
0.76666667 0.46666667 0
0.8 0.46666667 0
0.83333333 0.46666667 0
0.86666667 0.46666667 0
0.9 0.46666667 0
0.93333333 0.46666667 0
0.96666667 0.46666667 0
1 0.46666667 0
0 0.5 0
0.033333333 0.5 0
0.066666667 0.5 0
0.1 0.5 0
0.13333333 0.5 0
0.16666667 0.5 0
0.2 0.5 0
0.23333333 0.5 0
0.26666667 0.5 0
0.3 0.5 0
0.33333333 0.5 0
0.36666667 0.5 0
0.4 0.5 0
0.43333333 0.5 0
0.46666667 0.5 0
0.5 0.5 0
0.53333333 0.5 0
0.56666667 0.5 0
0.6 0.5 0
0.63333333 0.5 0
0.66666667 0.5 0
0.7 0.5 0
0.73333333 0.5 0
0.76666667 0.5 0
0.8 0.5 0
0.83333333 0.5 0
0.86666667 0.5 0
0.9 0.5 0
0.93333333 0.5 0
0.96666667 0.5 0
1 0.5 0
0 0.53333333 0
0.033333333 0.53333333 0
0.066666667 0.53333333 0
0.1 0.53333333 0
0.13333333 0.53333333 0
0.16666667 0.53333333 0
0.2 0.53333333 0
0.23333333 0.53333333 0
0.26666667 0.53333333 0
0.3 0.53333333 0
0.33333333 0.53333333 0
0.36666667 0.53333333 0
0.4 0.53333333 0
0.43333333 0.53333333 0
0.46666667 0.53333333 0
0.5 0.53333333 0
0.53333333 0.53333333 0
0.56666667 0.53333333 0
0.6 0.53333333 0
0.63333333 0.53333333 0
0.66666667 0.53333333 0
0.7 0.53333333 0
0.73333333 0.53333333 0
0.76666667 0.53333333 0
[...]
CELL_DATA 1920
Scalars  Label int 1
LOOKUP_TABLE FreeFempp_table
0
0
0
0
0
0
0
0
0
0
0
0
0
0
0
0
0
0
0
0
0
0
0
0
0
0
0
0
0
0
0
0
0
0
0
0
0
0
0
0
0
0
0
0
0
0
0
0
0
0
0
0
0
0
0
0
0
0
0
0
0
0
0
0
0
0
0
0
0
0
0
0
0
0
0
0
0
0
0
0
0
0
0
0
0
0
0
0
0
0
0
0
0
0
0
0
0
0
0
0
0
0
0
0
0
0
0
0
0
0
0
0
0
0
0
0
0
0
0
0
0
0
0
0
0
0
0
0
0
0
0
0
0
0
0
0
0
0
0
0
0
0
0
0
0
0
0
0
0
0
0
0
0
0
0
0
0
0
0
0
0
0
0
0
0
0
0
0
0
0
0
0
0
0
0
0
0
0
0
0
0
0
0
0
0
0
0
0
0
0
0
0
0
0
0
0
0
0
0
0
0
0
0
0
0
0
0
0
0
0
0
0
0
0
0
0
0
0
0
0
0
0
0
0
0
0
0
0
0
0
0
0
0
0
0
0
0
0
0
0
0
0
0
0
0
0
0
0
0
0
0
0
0
0
0
0
0
0
0
0
0
0
0
0
0
0
0
0
0
0
0
0
0
0
0
0
0
0
0
0
0
0
0
0
0
0
0
0
0
0
0
0
0
0
0
0
0
0
0
0
0
0
0
0
0
0
0
0
0
0
0
0
0
0
0
0
0
0
0
0
0
0
0
0
0
0
0
0
0
0
0
0
0
0
0
0
0
0
0
0
0
0
0
0
0
0
0
0
0
0
0
0
0
0
0
0
0
0
0
0
0
0
0
0
0
0
0
0
0
0
0
0
0
0
0
0
0
0
0
0
0
0
0
0
0
0
0
0
0
0
0
0
0
0
0
0
0
0
0
0
0
0
0
0
0
0
0
0
0
0
0
0
0
0
0
0
0
0
0
0
0
0
0
0
0
0
0
0
0
0
0
0
0
0
0
0
0
0
0
0
0
0
0
0
0
0
0
0
0
0
0
0
0
0
0
0
0
0
0
0
0
0
0
0
0
0
0
0
0
0
0
0
0
0
0
0
0
0
0
0
0
0
0
0
0
0
0
0
0
0
0
0
0
0
0
0
0
0
0
0
0
0
0
0
0
0
0
0
0
0
0
0
0
0
0
0
0
0
0
0
0
0
0
0
0
0
0
0
0
0
0
0
0
0
0
0
0
0
0
0
0
0
0
0
0
0
0
0
0
0
0
0
0
0
0
0
0
0
0
0
0
0
0
0
0
0
0
0
0
0
0
0
0
0
0
0
0
0
0
0
0
0
0
0
0
0
0
0
0
0
0
0
0
0
0
0
0
0
0
0
0
0
0
0
0
0
0
0
0
0
0
0
0
0
0
0
0
0
0
0
0
0
0
0
0
0
0
0
0
0
0
0
0
0
0
0
0
0
0
0
0
0
0
0
0
0
0
0
0
0
0
0
0
0
0
0
0
0
0
0
0
0
0
0
0
0
0
0
0
0
0
0
0
0
0
0
0
0
0
0
0
0
0
0
0
0
0
0
0
0
0
0
0
0
0
0
0
0
0
0
0
0
0
0
0
0
0
0
0
0
0
0
0
0
0
0
0
0
0
0
0
0
0
0
0
0
0
0
0
0
0
0
0
0
0
0
0
0
0
0
0
0
0
0
0
0
0
0
0
0
0
0
0
0
0
0
0
0
0
0
0
0
0
0
0
0
0
0
0
0
0
0
0
0
0
0
0
0
0
0
0
0
0
0
0
0
0
0
0
0
0
0
0
0
0
0
0
0
0
0
0
0
0
0
0
0
0
0
0
0
0
0
0
0
0
0
0
0
0
0
0
0
0
0
0
0
0
0
0
0
0
0
0
0
0
0
0
0
0
0
0
0
0
0
0
0
0
0
0
0
0
0
0
0
0
0
0
0
0
0
0
0
0
0
0
0
0
0
0
0
0
0
0
0
0
0
0
0
0
0
0
0
0
0
0
0
0
0
0
0
0
0
0
0
0
0
0
0
0
0
0
0
0
0
0
0
0
0
0
0
0
0
0
0
0
0
0
0
0
0
0
0
0
0
0
0
0
0
0
0
0
0
0
0
0
0
0
0
0
0
0
0
0
0
0
0
0
0
0
0
0
0
0
0
0
0
0
0
0
0
0
0
0
0
0
0
0
0
0
0
0
0
0
0
0
0
0
0
0
0
0
0
0
0
0
0
0
0
0
0
0
0
0
0
0
0
0
0
0
0
0
0
0
0
0
0
0
0
0
0
0
0
0
0
0
0
0
0
0
0
0
0
0
0
0
0
0
0
0
0
0
0
0
0
0
0
0
0
0
0
0
0
0
0
0
0
0
0
0
0
0
0
0
0
0
0
0
0
0
0
0
0
0
0
0
0
0
0
0
0
0
0
0
0
0
0
0
0
0
0
0
0
0
0
0
0
0
0
0
0
0
0
0
0
0
0
0
0
0
0
0
0
0
0
0
0
0
0
0
0
0
0
0
0
0
0
0
0
0
0
0
0
0
0
0
0
0
0
0
0
0
0
0
0
0
0
0
0
0
0
0
0
0
0
0
0
0
0
0
0
0
0
0
0
0
0
0
0
0
0
0
0
0
0
0
0
0
0
0
0
0
0
0
0
0
0
0
0
0
0
0
0
0
0
0
0
0
0
0
0
0
0
0
0
0
0
0
0
0
0
0
0
0
0
0
0
0
0
0
0
0
0
0
0
0
0
0
0
0
0
0
0
0
0
0
0
0
0
0
0
0
0
0
0
0
0
0
0
0
0
0
0
0
0
0
0
0
0
0
0
0
0
0
0
0
0
0
0
0
0
0
0
0
0
0
0
0
0
0
0
0
0
0
0
0
0
0
0
0
0
0
0
0
0
0
0
0
0
0
0
0
0
0
0
0
0
0
0
0
0
0
0
0
0
0
0
0
0
0
0
0
0
0
0
0
0
0
0
0
0
0
0
0
0
0
0
0
0
0
0
0
0
0
0
0
0
0
0
0
0
0
0
0
0
0
0
0
0
0
0
0
0
0
0
0
0
0
0
0
0
0
0
0
0
0
0
0
0
0
0
0
0
0
0
0
0
0
0
0
0
0
0
0
0
0
0
0
0
0
0
0
0
0
0
0
0
0
0
0
0
0
0
0
0
0
0
0
0
0
0
0
0
0
0
0
0
0
0
0
0
0
0
0
0
0
0
0
0
0
0
0
0
0
0
0
0
0
0
0
0
0
0
0
0
0
0
0
0
0
0
0
0
0
0
0
0
0
0
0
0
0
0
0
0
0
0
0
0
0
0
0
0
0
0
0
0
0
0
0
0
0
0
0
0
0
0
0
0
0
0
0
0
0
0
0
0
0
0
0
0
0
0
0
0
0
0
0
0
0
0
0
0
0
0
0
0
0
0
0
0
0
0
0
0
0
0
0
0
0
0
0
0
0
0
0
0
0
0
0
0
0
0
0
0
0
0
0
0
0
0
0
0
0
0
0
0
0
0
0
0
0
0
0
0
0
0
0
0
0
0
0
0
0
0
0
0
0
0
0
0
0
0
0
0
0
0
0
0
0
0
0
0
0
0
0
0
0
0
0
0
0
0
0
0
0
0
0
0
0
0
0
0
0
0
0
0
0
0
0
0
0
0
0
0
0
0
0
0
0
0
0
0
0
0
0
0
0
0
0
0
0
0
0
0
0
0
0
0
0
0
0
0
0
0
0
0
0
0
0
0
0
0
0
0
0
0
0
0
0
0
0
0
0
0
0
0
0
0
0
0
0
0
0
0
0
0
0
0
0
0
0
0
0
0
0
0
0
0
0
0
0
0
0
0
0
0
0
0
0
0
0
0
0
0
0
0
0
0
0
0
0
0
0
0
0
0
0
0
0
0
0
0
0
0
0
0
0
0
0
0
0
0
0
0
0
0
0
0
0
0
0
0
0
0
0
0
0
0
0
0
0
0
0
0
0
0
0
0
0
0
0
0
0
0
0
0
0
0
0
0
0
0
0
0
0
0
0
0
0
0
0
0
0
0
0
0
0
0
0
0
1
1
1
1
1
1
1
1
1
1
1
1
1
1
1
1
1
1
1
1
1
1
1
1
1
1
1
1
1
1
2
2
2
2
2
2
2
2
2
2
2
2
2
2
2
2
2
2
2
2
2
2
2
2
2
2
2
2
2
2
3
3
3
3
3
3
3
3
3
3
3
3
3
3
3
3
3
3
3
3
3
3
3
3
3
3
3
3
3
3
4
4
4
4
4
4
4
4
4
4
4
4
4
4
4
4
4
4
4
4
4
4
4
4
4
4
4
4
4
4

LOOKUP_TABLE FreeFempp_table 5
1.00000000 0.00000000 0.00000000 1.00000000
1.00000000 1.00000000 0.00000000 1.00000000
1.00000000 0.00000000 1.00000000 1.00000000
0.00000000 1.00000000 0.00000000 1.00000000
0.00000000 1.00000000 1.00000000 1.00000000

POINT_DATA 961
FIELD FieldData 1
Density 1 961 float
3.21675569e-01 3.53971839e-01 3.69505227e-01 3.71985435e-01 3.73224944e-01 3.72382939e-01 3.70410681e-01 3.67079228e-01 3.62992287e-01 3.60428274e-01 3.57419461e-01 3.60191077e-01 3.76213431e-01 3.92346263e-01 4.01225537e-01 4.04825896e-01 4.03948724e-01 3.96290511e-01 3.81397545e-01 3.54967326e-01 3.31046999e-01 4.24025089e-01 6.99140787e-01 7.66437411e-01 6.16558969e-01 5.51325560e-01 5.73444963e-01 2.57356286e-01 2.33085886e-01 2.98659235e-01 4.17103291e-01 1.21862225e-01 2.45794684e-01 2.89159954e-01 2.86140770e-01 2.84799814e-01 2.83773214e-01 2.81786144e-01 2.79084891e-01 2.73862332e-01 2.70744532e-01 2.67734200e-01 2.78213531e-01 3.17164868e-01 3.54062289e-01 3.71289760e-01 3.78806293e-01 3.85654420e-01 3.83643985e-01 3.66002828e-01 3.34941298e-01 3.08516055e-01 3.82773846e-01 6.78347468e-01 7.72920907e-01 4.62261945e-01 2.69241333e-01 2.87866920e-01 2.23866060e-01 3.13732684e-01 4.09136057e-01 4.90121633e-01 4.90418263e-02 3.80352549e-02 5.41807674e-02 5.20501472e-02 5.07376082e-02 5.05193435e-02 5.01659960e-02 5.00758328e-02 5.08871414e-02 5.21536954e-02 5.39801419e-02 8.07360932e-02 1.83721125e-01 2.81448632e-01 3.24742705e-01 3.48881721e-01 3.91972959e-01 4.28895593e-01 4.25272226e-01 3.75923812e-01 3.10978204e-01 3.37191314e-01 5.89034736e-01 7.63047576e-01 3.54715258e-01 1.10873304e-01 7.69813284e-02 5.87045848e-02 1.37761891e-01 3.63091975e-01 5.01754522e-01 2.76158601e-01 8.86932835e-02 3.53879333e-02 3.55381779e-02 4.41978350e-02 5.01706973e-02 5.54558113e-02 5.94973080e-02 5.99174090e-02 4.02467586e-02 8.31387751e-03 7.69340433e-03 2.93990597e-02 5.43867201e-02 7.16925189e-02 1.09732613e-01 2.24549502e-01 3.63892078e-01 4.47747469e-01 4.49388653e-01 3.67280632e-01 3.15149188e-01 4.72634017e-01 7.37392187e-01 4.52879906e-01 1.34511590e-01 7.35020787e-02 3.56601067e-02 4.06709425e-02 1.71427608e-01 3.88397187e-01 3.70677024e-01 2.61515468e-01 1.71763688e-01 1.81801721e-01 2.29568779e-01 2.63737887e-01 2.91853607e-01 3.12767029e-01 3.14053595e-01 2.63551891e-01 1.11858934e-01 7.39752501e-02 6.02009371e-02 2.73720883e-02 9.22614895e-03 1.29593089e-02 3.60989831e-02 8.85488465e-02 2.01358154e-01 3.55230570e-01 3.71172339e-01 3.17276746e-01 3.74566197e-01 6.05874062e-01 5.36053836e-01 2.17125967e-01 1.31504595e-01 7.08701611e-02 2.70591658e-02 1.07300386e-01 3.38658810e-01 3.81931454e-01 3.09990138e-01 2.30676010e-01 2.20413551e-01 2.69148052e-01 3.12129587e-01 3.44623804e-01 3.68917078e-01 3.79573613e-01 3.73392671e-01 3.46679151e-01 3.44537914e-01 3.31512541e-01 2.02933490e-01 9.82939824e-02 5.46383038e-02 1.87825505e-02 1.35234622e-02 3.08334772e-02 9.64450613e-02 2.24661767e-01 2.70138323e-01 3.20133150e-01 4.92821783e-01 5.99020004e-01 3.38786393e-01 2.30500385e-01 1.73701808e-01 4.14590649e-02 9.41321105e-02 3.31495732e-01 4.45547611e-01 3.84700090e-01 3.21642756e-01 2.96218365e-01 3.18914533e-01 3.49632978e-01 3.74788642e-01 3.94745022e-01 4.07203972e-01 4.11534309e-01 4.13396358e-01 4.22783762e-01 4.28419262e-01 4.05491561e-01 3.75283539e-01 3.13636124e-01 1.47116393e-01 6.21634908e-02 1.87936854e-02 1.63150076e-02 5.40492199e-02 1.53029934e-01 2.76711553e-01 4.50345606e-01 6.42559588e-01 5.54043293e-01 3.65086168e-01 2.66126603e-01 5.98271862e-02 9.06898826e-02 3.27830672e-01 5.81394792e-01 5.61391354e-01 5.18540323e-01 4.84518230e-01 4.67077672e-01 4.61550862e-01 4.60665345e-01 4.62590247e-01 4.64597881e-01 4.64301318e-01 4.61992651e-01 4.59993303e-01 4.57170606e-01 4.51928973e-01 4.49149668e-01 4.42542762e-01 4.02388006e-01 3.15831184e-01 1.30833060e-01 4.20518592e-02 1.64551269e-02 4.09045666e-02 1.54991046e-01 3.99224162e-01 6.47264898e-01 6.96013093e-01 5.63312352e-01 3.51459920e-01 7.22146332e-02 8.40392783e-02 3.15752149e-01 6.41829967e-01 6.73341870e-01 6.64143860e-01 6.51071787e-01 6.30974293e-01 6.05249822e-01 5.79244137e-01 5.57585657e-01 5.40951908e-01 5.27546823e-01 5.15839577e-01 5.05402446e-01 4.95639354e-01 4.85960215e-01 4.76878315e-01 4.68887717e-01 4.62937474e-01 4.53459084e-01 3.90777260e-01 2.26201892e-01 7.10498989e-02 1.92576107e-02 4.57952730e-02 2.16808543e-01 5.51633716e-01 7.27290213e-01 7.07460523e-01 4.68443513e-01 8.87055248e-02 6.05696291e-02 2.40125626e-01 5.49712360e-01 5.89136183e-01 6.04724050e-01 6.29129708e-01 6.50743246e-01 6.54671609e-01 6.41527891e-01 6.20356977e-01 5.98568499e-01 5.79015851e-01 5.62041283e-01 5.47247350e-01 5.33939242e-01 5.21476150e-01 5.09618819e-01 4.98431683e-01 4.88884747e-01 4.82788742e-01 4.75461811e-01 4.30002004e-01 2.87399411e-01 8.61626342e-02 2.22124942e-02 6.74990192e-02 3.21526676e-01 6.34412944e-01 7.30128348e-01 5.81353188e-01 1.11720070e-01 3.12314574e-02 1.12460658e-01 4.16647851e-01 3.99825424e-01 4.10640061e-01 4.49891448e-01 5.10524273e-01 5.70037782e-01 6.06073678e-01 6.16071165e-01 6.10567927e-01 5.98856628e-01 5.85667849e-01 5.72824597e-01 5.60752511e-01 5.49343407e-01 5.38399339e-01 5.27743936e-01 5.17374039e-01 5.07733881e-01 4.99268174e-01 4.88210142e-01 4.47589576e-01 3.05246145e-01 8.29647779e-02 2.70334501e-02 1.06785461e-01 3.95886540e-01 5.75962782e-01 6.14218414e-01 1.30743802e-01 1.78956911e-02 4.44238186e-02 3.33308578e-01 2.73691177e-01 2.63750464e-01 2.95934498e-01 3.56098056e-01 4.33640599e-01 5.06066978e-01 5.55434227e-01 5.79206169e-01 5.85758924e-01 5.83542585e-01 5.77555895e-01 5.70224881e-01 5.62582850e-01 5.54950655e-01 5.47278225e-01 5.39295912e-01 5.30459106e-01 5.20003259e-01 5.07782042e-01 4.91479307e-01 4.39747214e-01 2.61243820e-01 6.86317086e-02 3.24245840e-02 9.42902043e-02 2.99420089e-01 5.87379992e-01 1.56316549e-01 1.59795675e-02 2.23977603e-02 2.72951365e-01 1.97244361e-01 1.78159520e-01 2.09203392e-01 2.67337233e-01 3.42987597e-01 4.19883937e-01 4.84552175e-01 5.28841853e-01 5.53017437e-01 5.63341856e-01 5.65836668e-01 5.64393759e-01 5.61216295e-01 5.57428777e-01 5.53450644e-01 5.49190521e-01 5.43988407e-01 5.36463559e-01 5.25413871e-01 5.11959136e-01 4.91825163e-01 4.05962616e-01 1.92219138e-01 5.11909649e-02 3.30472700e-02 1.73243165e-01 6.04217708e-01 2.64889896e-01 2.99488511e-02 1.63136497e-02 2.09586367e-01 1.36916310e-01 1.21764868e-01 1.62901551e-01 2.31626898e-01 3.08088928e-01 3.80111694e-01 4.41003859e-01 4.87684757e-01 5.19022107e-01 5.37322700e-01 5.46522915e-01 5.50116420e-01 5.50655842e-01 5.49870431e-01 5.48802197e-01 5.47900259e-01 5.46976745e-01 5.45112848e-01 5.41204095e-01 5.36240280e-01 5.31204045e-01 4.86006916e-01 3.06568384e-01 1.01860806e-01 3.64242643e-02 2.10128784e-01 7.05736756e-01 5.85171759e-01 9.50774625e-02 1.86151061e-02 1.46906212e-01 9.12562013e-02 8.70286003e-02 1.47391990e-01 2.35123858e-01 3.15635771e-01 3.79454076e-01 4.28940237e-01 4.67200935e-01 4.95788008e-01 5.15602469e-01 5.28000653e-01 5.34761965e-01 5.37750125e-01 5.38685381e-01 5.38997173e-01 5.39765775e-01 5.41626215e-01 5.44832230e-01 5.49885690e-01 5.59180021e-01 5.74139178e-01 5.56022048e-01 3.81906569e-01 1.58903345e-01 6.22121841e-02 2.24753812e-01 7.52528310e-01 7.55845606e-01 1.45776600e-01 1.27476677e-02 9.66131762e-02 6.20190911e-02 7.13729709e-02 1.61218286e-01 2.71927327e-01 3.50535631e-01 4.00290042e-01 4.35397148e-01 4.62770849e-01 4.84946966e-01 5.02411067e-01 5.15077353e-01 5.23180127e-01 5.27472198e-01 5.29088616e-01 5.29357791e-01 5.29661655e-01 5.31384408e-01 5.36040246e-01 5.45876384e-01 5.65102816e-01 5.97734809e-01 6.19835794e-01 5.10052621e-01 2.49607638e-01 9.37130004e-02 2.04239815e-01 7.45354295e-01 7.73878813e-01 1.58012792e-01 6.06033159e-03 6.40805587e-02 4.55480702e-02 7.15109333e-02 2.01956108e-01 3.28246236e-01 3.91444147e-01 4.24024969e-01 4.46895301e-01 4.65981156e-01 4.82699335e-01 4.97101784e-01 5.08665979e-01 5.16908884e-01 5.21714985e-01 5.23423493e-01 5.22792935e-01 5.20998359e-01 5.19749224e-01 5.21504283e-01 5.29673457e-01 5.49135745e-01 5.85955024e-01 6.35067523e-01 6.13643348e-01 3.66884202e-01 1.34181216e-01 1.97180435e-01 7.16264784e-01 5.56954384e-01 1.17600843e-01 1.93709321e-03 4.52948026e-02 3.70671488e-02 8.21463093e-02 2.64242411e-01 3.80855829e-01 4.22577947e-01 4.41633880e-01 4.57252085e-01 4.71709549e-01 4.85060990e-01 4.97077078e-01 5.07281661e-01 5.15083969e-01 5.19938469e-01 5.21499336e-01 5.19754946e-01 5.15236497e-01 5.09474933e-01 5.05376637e-01 5.07021904e-01 5.19137681e-01 5.47406137e-01 5.98608136e-01 6.50091588e-01 5.46222270e-01 2.41318390e-01 2.32501507e-01 6.54825568e-01 3.44794273e-01 6.28335476e-02 4.53407271e-03 3.34575921e-02 3.22451293e-02 9.44459140e-02 3.22398186e-01 4.17533457e-01 4.41483736e-01 4.53487724e-01 4.65767533e-01 4.77908045e-01 4.89325970e-01 4.99689102e-01 5.08676171e-01 5.15833795e-01 5.20525336e-01 5.21994054e-01 5.19532144e-01 5.12853920e-01 5.02864540e-01 4.92361516e-01 4.85666215e-01 4.87279654e-01 5.01419604e-01 5.33564627e-01 5.84380090e-01 5.96423447e-01 4.56989318e-01 3.28068316e-01 6.28224552e-01 2.18648896e-01 3.27761658e-02 1.19676031e-02 2.44312324e-02 2.88243126e-02 1.05601668e-01 3.58804405e-01 4.39204454e-01 4.52783853e-01 4.62221920e-01 4.72866982e-01 4.83601302e-01 4.93720233e-01 5.02855003e-01 5.10801554e-01 5.17299056e-01 5.21841109e-01 5.23594439e-01 5.21458924e-01 5.14432669e-01 5.02566516e-01 4.87999111e-01 4.74623859e-01 4.66689825e-01 4.69139487e-01 4.88136351e-01 5.28317451e-01 5.82609773e-01 6.25980973e-01 6.58953071e-01 6.62111700e-01 1.76346242e-01 2.54199281e-02 2.08905358e-02 1.69649348e-02 2.73322649e-02 1.21556185e-01 3.80989552e-01 4.52398568e-01 4.60878760e-01 4.69146132e-01 4.78521973e-01 4.88037527e-01 4.97025937e-01 5.05102813e-01 5.12131691e-01 5.18044293e-01 5.22620022e-01 5.25292277e-01 5.25026023e-01 5.20475566e-01 5.10854244e-01 4.97194767e-01 4.82249260e-01 4.69740987e-01 4.68175024e-01 4.90172923e-01 5.42410195e-01 6.20900035e-01 7.00198174e-01 7.22782433e-01 5.80046117e-01 1.40483975e-01 2.49160882e-02 3.12186610e-02 1.11793047e-02 3.09792254e-02 1.52825624e-01 3.99866343e-01 4.62374717e-01 4.67522830e-01 4.74421173e-01 4.82374161e-01 4.90582287e-01 4.98412877e-01 5.05468965e-01 5.11647940e-01 5.17060757e-01 5.21873653e-01 5.26087821e-01 5.29250145e-01 5.30269921e-01 5.27916610e-01 5.22186816e-01 5.14898717e-01 5.10206997e-01 5.21725953e-01 5.61947703e-01 6.21310115e-01 6.87002420e-01 7.12787211e-01 6.28799319e-01 3.07836711e-01 7.30658323e-02 2.38910802e-02 4.51006331e-02 7.43630994e-03 4.26987521e-02 2.10281655e-01 4.22036171e-01 4.70894396e-01 4.72740382e-01 4.77734089e-01 4.84003186e-01 4.90768552e-01 4.97379959e-01 5.03410935e-01 5.08763313e-01 5.13692498e-01 5.18770993e-01 5.24754107e-01 5.32251418e-01 5.41237473e-01 5.50989091e-01 5.61225474e-01 5.73216140e-01 5.88987350e-01 6.13725066e-01 6.62310421e-01 6.92593157e-01 6.75663114e-01 5.93479872e-01 4.24408168e-01 1.38399139e-01 2.68758144e-02 3.26801501e-02 7.53650293e-02 5.98742440e-03 5.98693974e-02 2.89416164e-01 4.48013455e-01 4.77599978e-01 4.76011425e-01 4.78714019e-01 4.83133197e-01 4.88391072e-01 4.93766755e-01 4.98780847e-01 5.03303289e-01 5.07653058e-01 5.12696326e-01 5.19895673e-01 5.31135678e-01 5.48125446e-01 5.71636498e-01 6.01437092e-01 6.36131942e-01 6.66529059e-01 6.47530317e-01 5.59625030e-01 4.77567077e-01 3.95210207e-01 2.00082272e-01 1.06690571e-01 3.69078256e-02 2.21202299e-02 7.09364787e-02 1.58660561e-01 5.88347018e-03 7.33056143e-02 3.59699011e-01 4.71096158e-01 4.81402874e-01 4.76942271e-01 4.77250546e-01 4.79812950e-01 4.83601809e-01 4.87793326e-01 4.91839975e-01 4.95537400e-01 4.99138832e-01 5.03539503e-01 5.10516286e-01 5.22845805e-01 5.43884218e-01 5.76274514e-01 6.20099545e-01 6.70652568e-01 7.11084604e-01 6.74661160e-01 4.14857745e-01 1.85476556e-01 1.19225755e-01 6.68361261e-02 4.04538549e-02 6.89345375e-02 1.39994308e-01 2.08863571e-01 3.41285944e-01 5.49035007e-03 7.79295340e-02 3.90525043e-01 4.83009487e-01 4.81805235e-01 4.75384206e-01 4.73521501e-01 4.74431336e-01 4.76921052e-01 4.80067730e-01 4.83262777e-01 4.86203134e-01 4.88954812e-01 4.92123604e-01 4.97170031e-01 5.06780148e-01 5.24863362e-01 5.55461526e-01 6.00287437e-01 6.55828476e-01 7.10450530e-01 7.32277930e-01 6.19965017e-01 3.21626246e-01 2.11499393e-01 1.86549142e-01 2.07143560e-01 3.14567000e-01 5.83062470e-01 6.39750302e-01 6.09575093e-01 4.78101149e-03 7.91471153e-02 3.99975777e-01 4.86139446e-01 4.79293227e-01 4.71222252e-01 4.67850268e-01 4.67637599e-01 4.69188839e-01 4.71543908e-01 4.74086612e-01 4.76448238e-01 4.78484839e-01 4.80343670e-01 4.82689023e-01 4.87125725e-01 4.96587127e-01 5.15004396e-01 5.45610845e-01 5.88598728e-01 6.40250623e-01 6.92091644e-01 7.24413812e-01 7.11363018e-01 7.17442691e-01 7.30455220e-01 7.33961463e-01 7.48259842e-01 7.88468063e-01 7.83590913e-01 7.35070527e-01 4.13079234e-03 8.07881579e-02 4.07367975e-01 4.85356659e-01 4.73791927e-01 4.64695066e-01 4.60989207e-01 4.60452110e-01 4.61556643e-01 4.63436544e-01 4.65570927e-01 4.67626423e-01 4.69361275e-01 4.70564753e-01 4.71101433e-01 4.71182227e-01 4.71881181e-01 4.75495815e-01 4.84798908e-01 5.00549912e-01 5.18864691e-01 5.34380138e-01 5.54747939e-01 6.05696321e-01 6.80818915e-01 7.24167943e-01 7.32505560e-01 7.32067168e-01 7.26185262e-01 7.00966060e-01 6.65505588e-01 2.77105649e-03 8.28298181e-02 4.16460961e-01 4.80833203e-01 4.65602160e-01 4.57286686e-01 4.54444736e-01 4.54213023e-01 4.55218673e-01 4.56842065e-01 4.58765328e-01 4.60811436e-01 4.62816894e-01 4.64482039e-01 4.65240568e-01 4.64265585e-01 4.60764766e-01 4.54543829e-01 4.46181864e-01 4.35287058e-01 4.16625649e-01 3.83625090e-01 3.51737142e-01 3.65344942e-01 4.22255427e-01 4.87027735e-01 5.23101330e-01 5.36445498e-01 5.44266522e-01 5.42379200e-01 5.38753808e-01 6.09522499e-03 8.76663402e-02 4.30501968e-01 4.79401618e-01 4.61996317e-01 4.56064373e-01 4.54442173e-01 4.54513848e-01 4.55346674e-01 4.56619680e-01 4.58243132e-01 4.60244268e-01 4.62650627e-01 4.65316087e-01 4.67698634e-01 4.68639106e-01 4.66241270e-01 4.57982957e-01 4.41066444e-01 4.12537277e-01 3.68887633e-01 3.12106788e-01 2.70121753e-01 2.83306628e-01 3.45596611e-01 4.21329021e-01 4.70704079e-01 4.89977330e-01 4.96294975e-01 4.91888702e-01 4.87642229e-01 2.42775120e-02 8.88054371e-02 4.48375762e-01 4.97418314e-01 4.71620649e-01 4.67625290e-01 4.66761857e-01 4.66929376e-01 4.67550218e-01 4.68432188e-01 4.69564170e-01 4.71037179e-01 4.72957492e-01 4.75312710e-01 4.77788270e-01 4.79543209e-01 4.78970885e-01 4.73493844e-01 4.59475577e-01 4.32376802e-01 3.87777865e-01 3.28015536e-01 2.81335771e-01 2.88239449e-01 3.52499872e-01 4.36750323e-01 4.85664696e-01 5.02260506e-01 5.04606247e-01 4.96400386e-01 4.90427166e-01 
