# vtk DataFile Version 2.0
results_case1_non_linear/2_density.vtk, Created by Freefem++ 
ASCII
DATASET UNSTRUCTURED_GRID
POINTS 961 float
0 0 0
0.033333333 0 0
0.066666667 0 0
0.1 0 0
0.13333333 0 0
0.16666667 0 0
0.2 0 0
0.23333333 0 0
0.26666667 0 0
0.3 0 0
0.33333333 0 0
0.36666667 0 0
0.4 0 0
0.43333333 0 0
0.46666667 0 0
0.5 0 0
0.53333333 0 0
0.56666667 0 0
0.6 0 0
0.63333333 0 0
0.66666667 0 0
0.7 0 0
0.73333333 0 0
0.76666667 0 0
0.8 0 0
0.83333333 0 0
0.86666667 0 0
0.9 0 0
0.93333333 0 0
0.96666667 0 0
1 0 0
0 0.033333333 0
0.033333333 0.033333333 0
0.066666667 0.033333333 0
0.1 0.033333333 0
0.13333333 0.033333333 0
0.16666667 0.033333333 0
0.2 0.033333333 0
0.23333333 0.033333333 0
0.26666667 0.033333333 0
0.3 0.033333333 0
0.33333333 0.033333333 0
0.36666667 0.033333333 0
0.4 0.033333333 0
0.43333333 0.033333333 0
0.46666667 0.033333333 0
0.5 0.033333333 0
0.53333333 0.033333333 0
0.56666667 0.033333333 0
0.6 0.033333333 0
0.63333333 0.033333333 0
0.66666667 0.033333333 0
0.7 0.033333333 0
0.73333333 0.033333333 0
0.76666667 0.033333333 0
0.8 0.033333333 0
0.83333333 0.033333333 0
0.86666667 0.033333333 0
0.9 0.033333333 0
0.93333333 0.033333333 0
0.96666667 0.033333333 0
1 0.033333333 0
0 0.066666667 0
0.033333333 0.066666667 0
0.066666667 0.066666667 0
0.1 0.066666667 0
0.13333333 0.066666667 0
0.16666667 0.066666667 0
0.2 0.066666667 0
0.23333333 0.066666667 0
0.26666667 0.066666667 0
0.3 0.066666667 0
0.33333333 0.066666667 0
0.36666667 0.066666667 0
0.4 0.066666667 0
0.43333333 0.066666667 0
0.46666667 0.066666667 0
0.5 0.066666667 0
0.53333333 0.066666667 0
0.56666667 0.066666667 0
0.6 0.066666667 0
0.63333333 0.066666667 0
0.66666667 0.066666667 0
0.7 0.066666667 0
0.73333333 0.066666667 0
0.76666667 0.066666667 0
0.8 0.066666667 0
0.83333333 0.066666667 0
0.86666667 0.066666667 0
0.9 0.066666667 0
0.93333333 0.066666667 0
0.96666667 0.066666667 0
1 0.066666667 0
0 0.1 0
0.033333333 0.1 0
0.066666667 0.1 0
0.1 0.1 0
0.13333333 0.1 0
0.16666667 0.1 0
0.2 0.1 0
0.23333333 0.1 0
0.26666667 0.1 0
0.3 0.1 0
0.33333333 0.1 0
0.36666667 0.1 0
0.4 0.1 0
0.43333333 0.1 0
0.46666667 0.1 0
0.5 0.1 0
0.53333333 0.1 0
0.56666667 0.1 0
0.6 0.1 0
0.63333333 0.1 0
0.66666667 0.1 0
0.7 0.1 0
0.73333333 0.1 0
0.76666667 0.1 0
0.8 0.1 0
0.83333333 0.1 0
0.86666667 0.1 0
0.9 0.1 0
0.93333333 0.1 0
0.96666667 0.1 0
1 0.1 0
0 0.13333333 0
0.033333333 0.13333333 0
0.066666667 0.13333333 0
0.1 0.13333333 0
0.13333333 0.13333333 0
0.16666667 0.13333333 0
0.2 0.13333333 0
0.23333333 0.13333333 0
0.26666667 0.13333333 0
0.3 0.13333333 0
0.33333333 0.13333333 0
0.36666667 0.13333333 0
0.4 0.13333333 0
0.43333333 0.13333333 0
0.46666667 0.13333333 0
0.5 0.13333333 0
0.53333333 0.13333333 0
0.56666667 0.13333333 0
0.6 0.13333333 0
0.63333333 0.13333333 0
0.66666667 0.13333333 0
0.7 0.13333333 0
0.73333333 0.13333333 0
0.76666667 0.13333333 0
0.8 0.13333333 0
0.83333333 0.13333333 0
0.86666667 0.13333333 0
0.9 0.13333333 0
0.93333333 0.13333333 0
0.96666667 0.13333333 0
1 0.13333333 0
0 0.16666667 0
0.033333333 0.16666667 0
0.066666667 0.16666667 0
0.1 0.16666667 0
0.13333333 0.16666667 0
0.16666667 0.16666667 0
0.2 0.16666667 0
0.23333333 0.16666667 0
0.26666667 0.16666667 0
0.3 0.16666667 0
0.33333333 0.16666667 0
0.36666667 0.16666667 0
0.4 0.16666667 0
0.43333333 0.16666667 0
0.46666667 0.16666667 0
0.5 0.16666667 0
0.53333333 0.16666667 0
0.56666667 0.16666667 0
0.6 0.16666667 0
0.63333333 0.16666667 0
0.66666667 0.16666667 0
0.7 0.16666667 0
0.73333333 0.16666667 0
0.76666667 0.16666667 0
0.8 0.16666667 0
0.83333333 0.16666667 0
0.86666667 0.16666667 0
0.9 0.16666667 0
0.93333333 0.16666667 0
0.96666667 0.16666667 0
1 0.16666667 0
0 0.2 0
0.033333333 0.2 0
0.066666667 0.2 0
0.1 0.2 0
0.13333333 0.2 0
0.16666667 0.2 0
0.2 0.2 0
0.23333333 0.2 0
0.26666667 0.2 0
0.3 0.2 0
0.33333333 0.2 0
0.36666667 0.2 0
0.4 0.2 0
0.43333333 0.2 0
0.46666667 0.2 0
0.5 0.2 0
0.53333333 0.2 0
0.56666667 0.2 0
0.6 0.2 0
0.63333333 0.2 0
0.66666667 0.2 0
0.7 0.2 0
0.73333333 0.2 0
0.76666667 0.2 0
0.8 0.2 0
0.83333333 0.2 0
0.86666667 0.2 0
0.9 0.2 0
0.93333333 0.2 0
0.96666667 0.2 0
1 0.2 0
0 0.23333333 0
0.033333333 0.23333333 0
0.066666667 0.23333333 0
0.1 0.23333333 0
0.13333333 0.23333333 0
0.16666667 0.23333333 0
0.2 0.23333333 0
0.23333333 0.23333333 0
0.26666667 0.23333333 0
0.3 0.23333333 0
0.33333333 0.23333333 0
0.36666667 0.23333333 0
0.4 0.23333333 0
0.43333333 0.23333333 0
0.46666667 0.23333333 0
0.5 0.23333333 0
0.53333333 0.23333333 0
0.56666667 0.23333333 0
0.6 0.23333333 0
0.63333333 0.23333333 0
0.66666667 0.23333333 0
0.7 0.23333333 0
0.73333333 0.23333333 0
0.76666667 0.23333333 0
0.8 0.23333333 0
0.83333333 0.23333333 0
0.86666667 0.23333333 0
0.9 0.23333333 0
0.93333333 0.23333333 0
0.96666667 0.23333333 0
1 0.23333333 0
0 0.26666667 0
0.033333333 0.26666667 0
0.066666667 0.26666667 0
0.1 0.26666667 0
0.13333333 0.26666667 0
0.16666667 0.26666667 0
0.2 0.26666667 0
0.23333333 0.26666667 0
0.26666667 0.26666667 0
0.3 0.26666667 0
0.33333333 0.26666667 0
0.36666667 0.26666667 0
0.4 0.26666667 0
0.43333333 0.26666667 0
0.46666667 0.26666667 0
0.5 0.26666667 0
0.53333333 0.26666667 0
0.56666667 0.26666667 0
0.6 0.26666667 0
0.63333333 0.26666667 0
0.66666667 0.26666667 0
0.7 0.26666667 0
0.73333333 0.26666667 0
0.76666667 0.26666667 0
0.8 0.26666667 0
0.83333333 0.26666667 0
0.86666667 0.26666667 0
0.9 0.26666667 0
0.93333333 0.26666667 0
0.96666667 0.26666667 0
1 0.26666667 0
0 0.3 0
0.033333333 0.3 0
0.066666667 0.3 0
0.1 0.3 0
0.13333333 0.3 0
0.16666667 0.3 0
0.2 0.3 0
0.23333333 0.3 0
0.26666667 0.3 0
0.3 0.3 0
0.33333333 0.3 0
0.36666667 0.3 0
0.4 0.3 0
0.43333333 0.3 0
0.46666667 0.3 0
0.5 0.3 0
0.53333333 0.3 0
0.56666667 0.3 0
0.6 0.3 0
0.63333333 0.3 0
0.66666667 0.3 0
0.7 0.3 0
0.73333333 0.3 0
0.76666667 0.3 0
0.8 0.3 0
0.83333333 0.3 0
0.86666667 0.3 0
0.9 0.3 0
0.93333333 0.3 0
0.96666667 0.3 0
1 0.3 0
0 0.33333333 0
0.033333333 0.33333333 0
0.066666667 0.33333333 0
0.1 0.33333333 0
0.13333333 0.33333333 0
0.16666667 0.33333333 0
0.2 0.33333333 0
0.23333333 0.33333333 0
0.26666667 0.33333333 0
0.3 0.33333333 0
0.33333333 0.33333333 0
0.36666667 0.33333333 0
0.4 0.33333333 0
0.43333333 0.33333333 0
0.46666667 0.33333333 0
0.5 0.33333333 0
0.53333333 0.33333333 0
0.56666667 0.33333333 0
0.6 0.33333333 0
0.63333333 0.33333333 0
0.66666667 0.33333333 0
0.7 0.33333333 0
0.73333333 0.33333333 0
0.76666667 0.33333333 0
0.8 0.33333333 0
0.83333333 0.33333333 0
0.86666667 0.33333333 0
0.9 0.33333333 0
0.93333333 0.33333333 0
0.96666667 0.33333333 0
1 0.33333333 0
0 0.36666667 0
0.033333333 0.36666667 0
0.066666667 0.36666667 0
0.1 0.36666667 0
0.13333333 0.36666667 0
0.16666667 0.36666667 0
0.2 0.36666667 0
0.23333333 0.36666667 0
0.26666667 0.36666667 0
0.3 0.36666667 0
0.33333333 0.36666667 0
0.36666667 0.36666667 0
0.4 0.36666667 0
0.43333333 0.36666667 0
0.46666667 0.36666667 0
0.5 0.36666667 0
0.53333333 0.36666667 0
0.56666667 0.36666667 0
0.6 0.36666667 0
0.63333333 0.36666667 0
0.66666667 0.36666667 0
0.7 0.36666667 0
0.73333333 0.36666667 0
0.76666667 0.36666667 0
0.8 0.36666667 0
0.83333333 0.36666667 0
0.86666667 0.36666667 0
0.9 0.36666667 0
0.93333333 0.36666667 0
0.96666667 0.36666667 0
1 0.36666667 0
0 0.4 0
0.033333333 0.4 0
0.066666667 0.4 0
0.1 0.4 0
0.13333333 0.4 0
0.16666667 0.4 0
0.2 0.4 0
0.23333333 0.4 0
0.26666667 0.4 0
0.3 0.4 0
0.33333333 0.4 0
0.36666667 0.4 0
0.4 0.4 0
0.43333333 0.4 0
0.46666667 0.4 0
0.5 0.4 0
0.53333333 0.4 0
0.56666667 0.4 0
0.6 0.4 0
0.63333333 0.4 0
0.66666667 0.4 0
0.7 0.4 0
0.73333333 0.4 0
0.76666667 0.4 0
0.8 0.4 0
0.83333333 0.4 0
0.86666667 0.4 0
0.9 0.4 0
0.93333333 0.4 0
0.96666667 0.4 0
1 0.4 0
0 0.43333333 0
0.033333333 0.43333333 0
0.066666667 0.43333333 0
0.1 0.43333333 0
0.13333333 0.43333333 0
0.16666667 0.43333333 0
0.2 0.43333333 0
0.23333333 0.43333333 0
0.26666667 0.43333333 0
0.3 0.43333333 0
0.33333333 0.43333333 0
0.36666667 0.43333333 0
0.4 0.43333333 0
0.43333333 0.43333333 0
0.46666667 0.43333333 0
0.5 0.43333333 0
0.53333333 0.43333333 0
0.56666667 0.43333333 0
0.6 0.43333333 0
0.63333333 0.43333333 0
0.66666667 0.43333333 0
0.7 0.43333333 0
0.73333333 0.43333333 0
0.76666667 0.43333333 0
0.8 0.43333333 0
0.83333333 0.43333333 0
0.86666667 0.43333333 0
0.9 0.43333333 0
0.93333333 0.43333333 0
0.96666667 0.43333333 0
1 0.43333333 0
0 0.46666667 0
0.033333333 0.46666667 0
0.066666667 0.46666667 0
0.1 0.46666667 0
0.13333333 0.46666667 0
0.16666667 0.46666667 0
0.2 0.46666667 0
0.23333333 0.46666667 0
0.26666667 0.46666667 0
0.3 0.46666667 0
0.33333333 0.46666667 0
0.36666667 0.46666667 0
0.4 0.46666667 0
0.43333333 0.46666667 0
0.46666667 0.46666667 0
0.5 0.46666667 0
0.53333333 0.46666667 0
0.56666667 0.46666667 0
0.6 0.46666667 0
0.63333333 0.46666667 0
0.66666667 0.46666667 0
0.7 0.46666667 0
0.73333333 0.46666667 0
0.76666667 0.46666667 0
0.8 0.46666667 0
0.83333333 0.46666667 0
0.86666667 0.46666667 0
0.9 0.46666667 0
0.93333333 0.46666667 0
0.96666667 0.46666667 0
1 0.46666667 0
0 0.5 0
0.033333333 0.5 0
0.066666667 0.5 0
0.1 0.5 0
0.13333333 0.5 0
0.16666667 0.5 0
0.2 0.5 0
0.23333333 0.5 0
0.26666667 0.5 0
0.3 0.5 0
0.33333333 0.5 0
0.36666667 0.5 0
0.4 0.5 0
0.43333333 0.5 0
0.46666667 0.5 0
0.5 0.5 0
0.53333333 0.5 0
0.56666667 0.5 0
0.6 0.5 0
0.63333333 0.5 0
0.66666667 0.5 0
0.7 0.5 0
0.73333333 0.5 0
0.76666667 0.5 0
0.8 0.5 0
0.83333333 0.5 0
0.86666667 0.5 0
0.9 0.5 0
0.93333333 0.5 0
0.96666667 0.5 0
1 0.5 0
0 0.53333333 0
0.033333333 0.53333333 0
0.066666667 0.53333333 0
0.1 0.53333333 0
0.13333333 0.53333333 0
0.16666667 0.53333333 0
0.2 0.53333333 0
0.23333333 0.53333333 0
0.26666667 0.53333333 0
0.3 0.53333333 0
0.33333333 0.53333333 0
0.36666667 0.53333333 0
0.4 0.53333333 0
0.43333333 0.53333333 0
0.46666667 0.53333333 0
0.5 0.53333333 0
0.53333333 0.53333333 0
0.56666667 0.53333333 0
0.6 0.53333333 0
0.63333333 0.53333333 0
0.66666667 0.53333333 0
0.7 0.53333333 0
0.73333333 0.53333333 0
0.76666667 0.53333333 0
[...]
CELL_DATA 1920
Scalars  Label int 1
LOOKUP_TABLE FreeFempp_table
0
0
0
0
0
0
0
0
0
0
0
0
0
0
0
0
0
0
0
0
0
0
0
0
0
0
0
0
0
0
0
0
0
0
0
0
0
0
0
0
0
0
0
0
0
0
0
0
0
0
0
0
0
0
0
0
0
0
0
0
0
0
0
0
0
0
0
0
0
0
0
0
0
0
0
0
0
0
0
0
0
0
0
0
0
0
0
0
0
0
0
0
0
0
0
0
0
0
0
0
0
0
0
0
0
0
0
0
0
0
0
0
0
0
0
0
0
0
0
0
0
0
0
0
0
0
0
0
0
0
0
0
0
0
0
0
0
0
0
0
0
0
0
0
0
0
0
0
0
0
0
0
0
0
0
0
0
0
0
0
0
0
0
0
0
0
0
0
0
0
0
0
0
0
0
0
0
0
0
0
0
0
0
0
0
0
0
0
0
0
0
0
0
0
0
0
0
0
0
0
0
0
0
0
0
0
0
0
0
0
0
0
0
0
0
0
0
0
0
0
0
0
0
0
0
0
0
0
0
0
0
0
0
0
0
0
0
0
0
0
0
0
0
0
0
0
0
0
0
0
0
0
0
0
0
0
0
0
0
0
0
0
0
0
0
0
0
0
0
0
0
0
0
0
0
0
0
0
0
0
0
0
0
0
0
0
0
0
0
0
0
0
0
0
0
0
0
0
0
0
0
0
0
0
0
0
0
0
0
0
0
0
0
0
0
0
0
0
0
0
0
0
0
0
0
0
0
0
0
0
0
0
0
0
0
0
0
0
0
0
0
0
0
0
0
0
0
0
0
0
0
0
0
0
0
0
0
0
0
0
0
0
0
0
0
0
0
0
0
0
0
0
0
0
0
0
0
0
0
0
0
0
0
0
0
0
0
0
0
0
0
0
0
0
0
0
0
0
0
0
0
0
0
0
0
0
0
0
0
0
0
0
0
0
0
0
0
0
0
0
0
0
0
0
0
0
0
0
0
0
0
0
0
0
0
0
0
0
0
0
0
0
0
0
0
0
0
0
0
0
0
0
0
0
0
0
0
0
0
0
0
0
0
0
0
0
0
0
0
0
0
0
0
0
0
0
0
0
0
0
0
0
0
0
0
0
0
0
0
0
0
0
0
0
0
0
0
0
0
0
0
0
0
0
0
0
0
0
0
0
0
0
0
0
0
0
0
0
0
0
0
0
0
0
0
0
0
0
0
0
0
0
0
0
0
0
0
0
0
0
0
0
0
0
0
0
0
0
0
0
0
0
0
0
0
0
0
0
0
0
0
0
0
0
0
0
0
0
0
0
0
0
0
0
0
0
0
0
0
0
0
0
0
0
0
0
0
0
0
0
0
0
0
0
0
0
0
0
0
0
0
0
0
0
0
0
0
0
0
0
0
0
0
0
0
0
0
0
0
0
0
0
0
0
0
0
0
0
0
0
0
0
0
0
0
0
0
0
0
0
0
0
0
0
0
0
0
0
0
0
0
0
0
0
0
0
0
0
0
0
0
0
0
0
0
0
0
0
0
0
0
0
0
0
0
0
0
0
0
0
0
0
0
0
0
0
0
0
0
0
0
0
0
0
0
0
0
0
0
0
0
0
0
0
0
0
0
0
0
0
0
0
0
0
0
0
0
0
0
0
0
0
0
0
0
0
0
0
0
0
0
0
0
0
0
0
0
0
0
0
0
0
0
0
0
0
0
0
0
0
0
0
0
0
0
0
0
0
0
0
0
0
0
0
0
0
0
0
0
0
0
0
0
0
0
0
0
0
0
0
0
0
0
0
0
0
0
0
0
0
0
0
0
0
0
0
0
0
0
0
0
0
0
0
0
0
0
0
0
0
0
0
0
0
0
0
0
0
0
0
0
0
0
0
0
0
0
0
0
0
0
0
0
0
0
0
0
0
0
0
0
0
0
0
0
0
0
0
0
0
0
0
0
0
0
0
0
0
0
0
0
0
0
0
0
0
0
0
0
0
0
0
0
0
0
0
0
0
0
0
0
0
0
0
0
0
0
0
0
0
0
0
0
0
0
0
0
0
0
0
0
0
0
0
0
0
0
0
0
0
0
0
0
0
0
0
0
0
0
0
0
0
0
0
0
0
0
0
0
0
0
0
0
0
0
0
0
0
0
0
0
0
0
0
0
0
0
0
0
0
0
0
0
0
0
0
0
0
0
0
0
0
0
0
0
0
0
0
0
0
0
0
0
0
0
0
0
0
0
0
0
0
0
0
0
0
0
0
0
0
0
0
0
0
0
0
0
0
0
0
0
0
0
0
0
0
0
0
0
0
0
0
0
0
0
0
0
0
0
0
0
0
0
0
0
0
0
0
0
0
0
0
0
0
0
0
0
0
0
0
0
0
0
0
0
0
0
0
0
0
0
0
0
0
0
0
0
0
0
0
0
0
0
0
0
0
0
0
0
0
0
0
0
0
0
0
0
0
0
0
0
0
0
0
0
0
0
0
0
0
0
0
0
0
0
0
0
0
0
0
0
0
0
0
0
0
0
0
0
0
0
0
0
0
0
0
0
0
0
0
0
0
0
0
0
0
0
0
0
0
0
0
0
0
0
0
0
0
0
0
0
0
0
0
0
0
0
0
0
0
0
0
0
0
0
0
0
0
0
0
0
0
0
0
0
0
0
0
0
0
0
0
0
0
0
0
0
0
0
0
0
0
0
0
0
0
0
0
0
0
0
0
0
0
0
0
0
0
0
0
0
0
0
0
0
0
0
0
0
0
0
0
0
0
0
0
0
0
0
0
0
0
0
0
0
0
0
0
0
0
0
0
0
0
0
0
0
0
0
0
0
0
0
0
0
0
0
0
0
0
0
0
0
0
0
0
0
0
0
0
0
0
0
0
0
0
0
0
0
0
0
0
0
0
0
0
0
0
0
0
0
0
0
0
0
0
0
0
0
0
0
0
0
0
0
0
0
0
0
0
0
0
0
0
0
0
0
0
0
0
0
0
0
0
0
0
0
0
0
0
0
0
0
0
0
0
0
0
0
0
0
0
0
0
0
0
0
0
0
0
0
0
0
0
0
0
0
0
0
0
0
0
0
0
0
0
0
0
0
0
0
0
0
0
0
0
0
0
0
0
0
0
0
0
0
0
0
0
0
0
0
0
0
0
0
0
0
0
0
0
0
0
0
0
0
0
0
0
0
0
0
0
0
0
0
0
0
0
0
0
0
0
0
0
0
0
0
0
0
0
0
0
0
0
0
0
0
0
0
0
0
0
0
0
0
0
0
0
0
0
0
0
0
0
0
0
0
0
0
0
0
0
0
0
0
0
0
0
0
0
0
0
0
0
0
0
0
0
0
0
0
0
0
0
0
0
0
0
0
0
0
0
0
0
0
0
0
0
0
0
0
0
0
0
0
0
0
0
0
0
0
0
0
0
0
0
0
0
0
0
0
0
0
0
0
0
0
0
0
0
0
0
0
0
0
0
0
0
0
0
0
0
0
0
0
0
0
0
0
0
0
0
0
0
0
0
0
0
0
0
0
0
0
0
0
0
0
0
0
0
0
0
0
0
0
0
0
0
0
0
0
0
0
0
0
0
0
0
0
0
0
0
0
0
0
0
0
0
0
0
0
0
0
0
0
0
0
0
0
0
0
0
0
0
0
0
0
0
0
0
0
0
0
0
0
0
0
0
0
0
0
0
0
0
0
0
0
0
0
0
0
0
0
0
0
0
0
0
0
0
0
0
0
0
0
0
0
0
0
0
0
0
0
0
0
0
0
0
0
0
0
0
0
0
0
0
0
0
0
0
0
0
0
0
0
0
0
0
0
0
0
0
0
0
0
0
0
0
0
0
0
0
0
0
0
0
0
0
0
0
0
0
0
0
0
0
0
0
0
0
0
0
0
0
0
0
0
0
0
0
0
0
0
0
0
0
0
0
0
0
0
0
0
0
0
0
0
0
0
0
0
0
0
0
0
0
0
0
0
0
0
0
0
0
0
0
0
0
0
0
0
0
0
0
0
0
0
0
0
0
0
0
0
0
0
0
0
0
0
0
0
0
0
0
0
0
0
0
0
0
0
0
0
0
0
0
0
0
0
0
1
1
1
1
1
1
1
1
1
1
1
1
1
1
1
1
1
1
1
1
1
1
1
1
1
1
1
1
1
1
2
2
2
2
2
2
2
2
2
2
2
2
2
2
2
2
2
2
2
2
2
2
2
2
2
2
2
2
2
2
3
3
3
3
3
3
3
3
3
3
3
3
3
3
3
3
3
3
3
3
3
3
3
3
3
3
3
3
3
3
4
4
4
4
4
4
4
4
4
4
4
4
4
4
4
4
4
4
4
4
4
4
4
4
4
4
4
4
4
4

LOOKUP_TABLE FreeFempp_table 5
1.00000000 0.00000000 0.00000000 1.00000000
1.00000000 1.00000000 0.00000000 1.00000000
1.00000000 0.00000000 1.00000000 1.00000000
0.00000000 1.00000000 0.00000000 1.00000000
0.00000000 1.00000000 1.00000000 1.00000000

POINT_DATA 961
FIELD FieldData 1
Density 1 961 float
1.90538481e-01 2.30412990e-01 3.55998784e-01 3.92583311e-01 3.93096864e-01 3.79306704e-01 3.31777930e-01 1.89473644e-01 4.55565304e-02 2.08864398e-02 4.86637056e-02 2.06522241e-01 3.62003744e-01 4.20061558e-01 4.95688587e-01 6.52819514e-01 7.26605594e-01 6.43975377e-01 6.43582225e-01 7.22468197e-01 7.45247602e-01 7.34084368e-01 7.26414204e-01 7.19521046e-01 7.08762765e-01 6.95924222e-01 6.80290759e-01 6.64634228e-01 6.55453026e-01 6.44588768e-01 6.28639758e-01 2.66906042e-02 5.01112044e-02 1.98810264e-01 2.66190439e-01 2.71193326e-01 2.60622978e-01 2.29666308e-01 1.46895587e-01 4.11218256e-02 1.53583353e-02 2.66778395e-02 1.36876181e-01 3.21979135e-01 3.84823799e-01 4.48782146e-01 6.27194703e-01 7.03332782e-01 4.81931210e-01 4.01066929e-01 5.26972651e-01 6.13770068e-01 6.29862607e-01 6.47871792e-01 6.63050354e-01 6.67621017e-01 6.66497350e-01 6.61792874e-01 6.54474258e-01 6.48561716e-01 6.41948819e-01 6.30799890e-01 1.60481464e-02 4.55592293e-03 1.67254638e-02 2.63107847e-02 2.64644828e-02 2.57343743e-02 2.39139963e-02 1.85581241e-02 7.86345359e-03 3.74099961e-03 6.58027455e-03 3.49953100e-02 2.03727946e-01 2.79650927e-01 3.38227183e-01 5.14161050e-01 6.19286478e-01 2.10759550e-01 7.75756761e-02 7.27911219e-02 8.52374509e-02 1.12728752e-01 1.84055313e-01 2.66377300e-01 3.37689906e-01 4.12383854e-01 4.77952331e-01 5.21293700e-01 5.48909009e-01 5.65460205e-01 5.80211222e-01 1.80901811e-01 4.70108390e-02 2.11395212e-02 2.08608210e-02 2.42923126e-02 2.63136607e-02 2.71181408e-02 2.75636055e-02 2.78915782e-02 2.86326744e-02 1.85983032e-02 5.07177319e-03 1.99612360e-02 3.27208079e-02 5.70346452e-02 2.40451753e-01 5.08214891e-01 5.10293424e-01 1.32245108e-01 3.60647887e-02 1.92626622e-02 1.48600591e-02 1.98621769e-02 2.87025515e-02 4.44672741e-02 1.02155477e-01 2.38237664e-01 3.57087284e-01 4.19318378e-01 4.64251518e-01 5.04242301e-01 3.79525959e-01 2.56763518e-01 1.59941241e-01 1.67664975e-01 2.24593252e-01 2.61439294e-01 2.75785506e-01 2.84242690e-01 2.89903969e-01 2.83580005e-01 2.15141982e-01 5.33266589e-02 3.23860496e-02 1.99580751e-02 4.63325623e-03 2.16380302e-02 9.49308649e-02 5.97817719e-01 6.91050708e-01 2.12194338e-01 7.73310587e-02 4.63394150e-02 2.75338124e-02 1.29187834e-02 8.23840220e-03 1.40759125e-02 4.89678793e-02 1.80939779e-01 3.04534048e-01 3.72413933e-01 4.30803835e-01 4.10297066e-01 3.27477336e-01 2.37571269e-01 2.23792106e-01 2.91586518e-01 3.55236292e-01 3.81135583e-01 3.93080115e-01 4.01999712e-01 4.05959994e-01 3.92975062e-01 3.28801811e-01 2.94454306e-01 2.34869435e-01 5.62336259e-02 3.38234082e-02 2.43485812e-02 4.68619615e-02 1.47853479e-01 6.62434220e-01 5.48773646e-01 4.25614297e-01 3.01623791e-01 1.35659948e-01 5.51705845e-02 2.00784784e-02 1.05171883e-02 4.09675390e-02 1.71489462e-01 2.89929390e-01 3.57477814e-01 4.24206048e-01 3.59048903e-01 2.98187882e-01 2.78533280e-01 3.19822073e-01 3.76284033e-01 4.05461431e-01 4.18268859e-01 4.26645577e-01 4.32718635e-01 4.34550047e-01 4.31195289e-01 4.33791310e-01 4.28075135e-01 3.57798129e-01 3.12277824e-01 2.41401210e-01 5.85850962e-02 2.69394051e-02 1.04472391e-01 6.24930620e-01 7.54848540e-01 7.66282439e-01 7.09625900e-01 5.32263815e-01 2.27922827e-01 4.15071994e-02 1.11788483e-02 5.40664941e-02 2.16144741e-01 3.16108555e-01 4.63965923e-01 4.12591547e-01 3.75717252e-01 3.64694685e-01 3.85999024e-01 4.23721254e-01 4.48406518e-01 4.60645020e-01 4.68088239e-01 4.73173261e-01 4.75775808e-01 4.76021796e-01 4.76011246e-01 4.74723935e-01 4.68414098e-01 4.66067731e-01 4.50489730e-01 3.59307617e-01 2.32509449e-01 5.17188944e-02 6.44345582e-02 2.45005131e-01 4.56802934e-01 4.95416492e-01 5.87763727e-01 6.66616678e-01 3.27570468e-01 2.85816193e-02 1.70474593e-02 1.29440919e-01 2.94982731e-01 5.45830250e-01 5.13558209e-01 4.92580056e-01 4.86698925e-01 4.93013889e-01 5.07473350e-01 5.17672539e-01 5.22522330e-01 5.24874628e-01 5.25558174e-01 5.24544120e-01 5.22043467e-01 5.18826246e-01 5.15201867e-01 5.11258841e-01 5.08120000e-01 5.02996981e-01 4.89719003e-01 4.58127856e-01 3.05678040e-01 5.20136952e-02 2.16097683e-02 4.51173820e-02 7.59608224e-02 1.19538121e-01 3.49664956e-01 6.94076836e-01 1.40528738e-01 1.01356069e-02 4.68083583e-02 2.26724640e-01 6.40734911e-01 6.37828827e-01 6.29275978e-01 6.21675014e-01 6.14049017e-01 6.07054353e-01 5.99823654e-01 5.92993140e-01 5.86794615e-01 5.80672920e-01 5.74275851e-01 5.67685962e-01 5.61235070e-01 5.55108428e-01 5.49486339e-01 5.44646084e-01 5.40095985e-01 5.35214365e-01 5.27700901e-01 4.97999340e-01 3.32771987e-01 5.49743809e-02 1.14287827e-02 1.44032575e-02 3.31215858e-02 9.23621356e-02 4.70926285e-01 7.22394407e-01 5.83125949e-02 2.16182098e-02 1.17652208e-01 6.84700131e-01 7.05191791e-01 7.04792738e-01 6.96581244e-01 6.85186088e-01 6.71562254e-01 6.57411277e-01 6.44390702e-01 6.32724345e-01 6.21996164e-01 6.11975074e-01 6.02699280e-01 5.94295561e-01 5.86808264e-01 5.80306768e-01 5.74895680e-01 5.70538402e-01 5.67452848e-01 5.65834343e-01 5.64081311e-01 5.46647847e-01 3.88732225e-01 8.26806799e-02 2.80677471e-02 2.07447410e-02 3.89321931e-02 1.37091935e-01 7.16753423e-01 1.70778021e-01 9.07738693e-03 1.74332280e-02 6.44448340e-01 6.74386024e-01 6.82934999e-01 6.83131099e-01 6.81374788e-01 6.75775766e-01 6.67209208e-01 6.57319188e-01 6.47066057e-01 6.36901319e-01 6.27155483e-01 6.18131459e-01 6.10047102e-01 6.02993786e-01 5.97021282e-01 5.92162251e-01 5.88461757e-01 5.86268783e-01 5.86335957e-01 5.89931369e-01 6.00254297e-01 6.06272101e-01 4.90517020e-01 2.17165336e-01 7.24775717e-02 4.68584411e-02 5.77414669e-02 3.60726386e-01 6.99982941e-01 5.18581942e-02 8.30891449e-03 5.35827458e-01 5.47676444e-01 5.62550902e-01 5.80981433e-01 6.02938712e-01 6.19929433e-01 6.28997028e-01 6.31425023e-01 6.29408538e-01 6.24767661e-01 6.18854523e-01 6.12644851e-01 6.06781423e-01 6.01619959e-01 5.97314537e-01 5.93863070e-01 5.91188490e-01 5.89348435e-01 5.88728249e-01 5.90452790e-01 5.97902656e-01 6.16732836e-01 6.26333773e-01 5.37423670e-01 3.29249352e-01 1.81943759e-01 1.09310873e-01 3.12137455e-01 7.54074574e-01 8.46678689e-02 4.86423541e-03 4.24057454e-01 4.05574977e-01 4.14400131e-01 4.42795753e-01 4.84094292e-01 5.27055264e-01 5.60437024e-01 5.81188679e-01 5.91708720e-01 5.95377088e-01 5.94986916e-01 5.92552900e-01 5.89421868e-01 5.86416066e-01 5.83954096e-01 5.82118988e-01 5.80727398e-01 5.79426825e-01 5.77777922e-01 5.75490296e-01 5.73276699e-01 5.74657321e-01 5.81493676e-01 5.72309494e-01 5.10237396e-01 3.96562010e-01 3.15369844e-01 5.65371454e-01 7.93923736e-01 8.39615837e-02 2.16979347e-03 3.29921752e-01 2.90318191e-01 2.93010265e-01 3.27982068e-01 3.80201489e-01 4.40118045e-01 4.92684335e-01 5.29543102e-01 5.51576316e-01 5.62883735e-01 5.67359626e-01 5.67917049e-01 5.66575944e-01 5.64677119e-01 5.63036919e-01 5.62027216e-01 5.61624527e-01 5.61425090e-01 5.60589135e-01 5.57753742e-01 5.51135719e-01 5.39696574e-01 5.25992453e-01 5.16432285e-01 5.16024828e-01 5.07472634e-01 5.01181722e-01 7.19602585e-01 8.04588318e-01 8.16516802e-02 2.23319000e-03 2.46707007e-01 1.96569979e-01 1.95500821e-01 2.38080457e-01 3.05226326e-01 3.81153792e-01 4.46853727e-01 4.93275911e-01 5.22018611e-01 5.37915349e-01 5.45295954e-01 5.47355950e-01 5.46394229e-01 5.44092536e-01 5.41671693e-01 5.39947033e-01 5.39334536e-01 5.39814949e-01 5.40849388e-01 5.41262984e-01 5.39151847e-01 5.32126248e-01 5.18964350e-01 5.04031479e-01 5.02477229e-01 5.31322241e-01 5.97760975e-01 7.70786464e-01 7.76313365e-01 7.59545863e-02 2.51491135e-03 1.76206276e-01 1.27904892e-01 1.26329184e-01 1.73560753e-01 2.56739914e-01 3.50250274e-01 4.25613344e-01 4.75818038e-01 5.06466866e-01 5.23888350e-01 5.32429278e-01 5.34967482e-01 5.33592105e-01 5.30002296e-01 5.25675297e-01 5.21882474e-01 5.19606948e-01 5.19396067e-01 5.21225154e-01 5.24508595e-01 5.28389394e-01 5.32145560e-01 5.35205901e-01 5.37583888e-01 5.43252170e-01 5.74809015e-01 6.65041745e-01 7.93016851e-01 7.23484099e-01 6.93036243e-02 3.26378201e-03 1.19741052e-01 8.39223191e-02 8.53762031e-02 1.37058809e-01 2.35953256e-01 3.44025999e-01 4.23410922e-01 4.72573042e-01 5.02034366e-01 5.19202530e-01 5.28042257e-01 5.30831695e-01 5.29167950e-01 5.24463415e-01 5.18185794e-01 5.11903167e-01 5.07122636e-01 5.04951537e-01 5.05793929e-01 5.09457350e-01 5.15933514e-01 5.26221871e-01 5.41803300e-01 5.63962221e-01 5.93399107e-01 6.38272047e-01 7.24994361e-01 7.97562361e-01 6.38315022e-01 6.07323572e-02 3.97075806e-03 7.74367824e-02 5.70320114e-02 6.40914887e-02 1.24405518e-01 2.41768703e-01 3.57682854e-01 4.33218479e-01 4.77519423e-01 5.04342437e-01 5.20636320e-01 5.29594183e-01 5.32912731e-01 5.31690598e-01 5.26888907e-01 5.19662738e-01 5.11534929e-01 5.04245281e-01 4.99224097e-01 4.97155786e-01 4.98408586e-01 5.04479229e-01 5.18571079e-01 5.43270230e-01 5.80563962e-01 6.32354319e-01 6.97165132e-01 7.65684605e-01 7.58710921e-01 4.75808531e-01 4.84710485e-02 4.50358680e-03 4.95335795e-02 4.04265039e-02 5.43605089e-02 1.30564705e-01 2.69522578e-01 3.83915335e-01 4.48879659e-01 4.86241430e-01 5.09895861e-01 5.25118709e-01 5.34227490e-01 5.38479686e-01 5.38604021e-01 5.35108447e-01 5.28614342e-01 5.20143986e-01 5.11057198e-01 5.02483189e-01 4.95151281e-01 4.90917116e-01 4.95166689e-01 5.15498102e-01 5.54457307e-01 6.09986663e-01 6.77396476e-01 7.42840648e-01 7.69029498e-01 6.44191623e-01 2.06781134e-01 2.80132070e-02 5.13081858e-03 3.11907697e-02 3.00438460e-02 5.24847172e-02 1.54039025e-01 3.11753929e-01 4.14746344e-01 4.65924799e-01 4.95922297e-01 5.16160965e-01 5.30105531e-01 5.39368987e-01 5.44880748e-01 5.47120214e-01 5.46252310e-01 5.42311251e-01 5.35408318e-01 5.25731862e-01 5.13343990e-01 4.99150991e-01 4.88284647e-01 4.93129402e-01 5.26883662e-01 5.87358594e-01 6.61103129e-01 7.29801059e-01 7.64072180e-01 7.05294728e-01 4.25076514e-01 8.92431587e-02 1.67801064e-02 8.98444094e-03 1.97298490e-02 2.35986467e-02 5.84546588e-02 1.95888817e-01 3.60157758e-01 4.44002569e-01 4.81408507e-01 5.04453182e-01 5.21122098e-01 5.33607781e-01 5.43010414e-01 5.49952149e-01 5.54713845e-01 5.57243109e-01 5.57083309e-01 5.53306282e-01 5.44574261e-01 5.29949546e-01 5.11922777e-01 5.00928283e-01 5.16559601e-01 5.73423684e-01 6.53988719e-01 7.26877987e-01 7.62244940e-01 7.15790570e-01 5.09924352e-01 1.54384121e-01 3.79321724e-02 1.59594715e-02 1.63443759e-02 1.28224790e-02 2.03827247e-02 7.45333135e-02 2.53849387e-01 4.07128304e-01 4.68015283e-01 4.93336588e-01 5.10052800e-01 5.23217857e-01 5.34260929e-01 5.43811798e-01 5.52126944e-01 5.59266210e-01 5.65046966e-01 5.68791866e-01 5.69086790e-01 5.64146757e-01 5.54064214e-01 5.45443833e-01 5.53157330e-01 5.94560087e-01 6.69383168e-01 7.35111594e-01 7.51698792e-01 6.85052633e-01 4.94102061e-01 1.87217519e-01 5.35227582e-02 1.99924838e-02 2.19272375e-02 3.21494229e-02 8.95038527e-03 2.08397582e-02 1.05958872e-01 3.18534285e-01 4.46651012e-01 4.85116512e-01 5.00307262e-01 5.11388421e-01 5.21465838e-01 5.31333506e-01 5.41064918e-01 5.50483882e-01 5.59414327e-01 5.67693055e-01 5.75011373e-01 5.80861330e-01 5.85310578e-01 5.91723800e-01 6.10144675e-01 6.51925862e-01 7.07510054e-01 7.31592536e-01 6.95045710e-01 5.97665906e-01 3.18336517e-01 1.01438530e-01 3.91793400e-02 2.07477529e-02 2.35917605e-02 4.69250269e-02 8.41934681e-02 6.98742503e-03 2.41556354e-02 1.55664906e-01 3.80273938e-01 4.75657701e-01 4.94720578e-01 5.01364827e-01 5.07743299e-01 5.15507221e-01 5.24639726e-01 5.34594417e-01 5.44796109e-01 5.54898620e-01 5.64938307e-01 5.75499952e-01 5.87984502e-01 6.05127215e-01 6.31785989e-01 6.73838556e-01 7.28666008e-01 7.65955806e-01 6.92022741e-01 3.53122056e-01 1.43216357e-01 7.34862983e-02 3.63750346e-02 3.24930511e-02 5.78718930e-02 8.91959891e-02 1.62867472e-01 2.64655501e-01 5.92786912e-03 2.82054730e-02 2.12977916e-01 4.31735635e-01 4.93297964e-01 4.96446759e-01 4.96138036e-01 4.99182761e-01 5.05600572e-01 5.14410555e-01 5.24574876e-01 5.35316944e-01 5.46237767e-01 5.57543278e-01 5.70506513e-01 5.87925315e-01 6.13858283e-01 6.51748419e-01 7.00599492e-01 7.50182569e-01 7.77073622e-01 7.25399017e-01 4.66468185e-01 1.93196848e-01 1.18316256e-01 1.12408385e-01 1.66332617e-01 4.15358990e-01 5.69520056e-01 6.18487120e-01 6.13756537e-01 5.18589513e-03 3.18854377e-02 2.66609132e-01 4.68999982e-01 4.99418885e-01 4.90130335e-01 4.85225230e-01 4.86680120e-01 4.92579788e-01 5.01170933e-01 5.11316538e-01 5.22381902e-01 5.34061134e-01 5.46489179e-01 5.60759485e-01 5.79508603e-01 6.06488049e-01 6.43929005e-01 6.88693821e-01 7.31377840e-01 7.59458244e-01 7.57027328e-01 7.06148863e-01 6.58887386e-01 6.73363745e-01 7.14667499e-01 7.46336997e-01 7.85740256e-01 7.95762300e-01 7.82946110e-01 7.51676142e-01 4.54478990e-03 3.50775495e-02 3.13313156e-01 4.91030693e-01 4.94201690e-01 4.76959646e-01 4.70681638e-01 4.72122312e-01 4.77725625e-01 4.85605866e-01 4.95071113e-01 5.06009340e-01 5.18423140e-01 5.32283187e-01 5.47804117e-01 5.66020608e-01 5.88963389e-01 6.18324220e-01 6.52891636e-01 6.87811494e-01 7.17234731e-01 7.36873865e-01 7.47281551e-01 7.60881662e-01 7.76627243e-01 7.85746276e-01 7.85581589e-01 7.76601613e-01 7.54880667e-01 7.35411048e-01 7.12587297e-01 3.62580642e-03 3.77978384e-02 3.53419691e-01 4.97974306e-01 4.80615377e-01 4.61323082e-01 4.56261665e-01 4.57855850e-01 4.62203592e-01 4.68121171e-01 4.75760549e-01 4.85758394e-01 4.98680502e-01 5.14657497e-01 5.33241689e-01 5.53601205e-01 5.75012863e-01 5.97158670e-01 6.19652331e-01 6.41240060e-01 6.59703135e-01 6.72569096e-01 6.78714991e-01 6.78726315e-01 6.70194149e-01 6.55501306e-01 6.40424430e-01 6.28230810e-01 6.19373977e-01 6.19940937e-01 6.23418570e-01 4.15601907e-03 4.29880619e-02 4.02992457e-01 5.08929968e-01 4.79649603e-01 4.62441146e-01 4.58067089e-01 4.57864463e-01 4.59084988e-01 4.61537659e-01 4.66033757e-01 4.73729193e-01 4.85716730e-01 5.02622187e-01 5.24164259e-01 5.48810482e-01 5.73797405e-01 5.95689714e-01 6.11234367e-01 6.18027270e-01 6.15047812e-01 6.04033470e-01 5.90666533e-01 5.79583824e-01 5.69150150e-01 5.57793856e-01 5.46378374e-01 5.36496758e-01 5.30039370e-01 5.34530640e-01 5.52920461e-01 1.09857935e-02 4.44950275e-02 4.62584555e-01 5.52826762e-01 5.08885145e-01 4.93739218e-01 4.89334047e-01 4.87526923e-01 4.86687750e-01 4.86918539e-01 4.88975137e-01 4.93874103e-01 5.02623618e-01 5.15901506e-01 5.33655524e-01 5.54711699e-01 5.76570034e-01 5.95587850e-01 6.07607365e-01 6.08923733e-01 5.97790122e-01 5.77187061e-01 5.56690276e-01 5.45456707e-01 5.42679369e-01 5.41416943e-01 5.37242472e-01 5.30331969e-01 5.23702621e-01 5.23434162e-01 5.36337435e-01 
