# vtk DataFile Version 2.0
results_case1_non_linear/6_density.vtk, Created by Freefem++ 
ASCII
DATASET UNSTRUCTURED_GRID
POINTS 961 float
0 0 0
0.033333333 0 0
0.066666667 0 0
0.1 0 0
0.13333333 0 0
0.16666667 0 0
0.2 0 0
0.23333333 0 0
0.26666667 0 0
0.3 0 0
0.33333333 0 0
0.36666667 0 0
0.4 0 0
0.43333333 0 0
0.46666667 0 0
0.5 0 0
0.53333333 0 0
0.56666667 0 0
0.6 0 0
0.63333333 0 0
0.66666667 0 0
0.7 0 0
0.73333333 0 0
0.76666667 0 0
0.8 0 0
0.83333333 0 0
0.86666667 0 0
0.9 0 0
0.93333333 0 0
0.96666667 0 0
1 0 0
0 0.033333333 0
0.033333333 0.033333333 0
0.066666667 0.033333333 0
0.1 0.033333333 0
0.13333333 0.033333333 0
0.16666667 0.033333333 0
0.2 0.033333333 0
0.23333333 0.033333333 0
0.26666667 0.033333333 0
0.3 0.033333333 0
0.33333333 0.033333333 0
0.36666667 0.033333333 0
0.4 0.033333333 0
0.43333333 0.033333333 0
0.46666667 0.033333333 0
0.5 0.033333333 0
0.53333333 0.033333333 0
0.56666667 0.033333333 0
0.6 0.033333333 0
0.63333333 0.033333333 0
0.66666667 0.033333333 0
0.7 0.033333333 0
0.73333333 0.033333333 0
0.76666667 0.033333333 0
0.8 0.033333333 0
0.83333333 0.033333333 0
0.86666667 0.033333333 0
0.9 0.033333333 0
0.93333333 0.033333333 0
0.96666667 0.033333333 0
1 0.033333333 0
0 0.066666667 0
0.033333333 0.066666667 0
0.066666667 0.066666667 0
0.1 0.066666667 0
0.13333333 0.066666667 0
0.16666667 0.066666667 0
0.2 0.066666667 0
0.23333333 0.066666667 0
0.26666667 0.066666667 0
0.3 0.066666667 0
0.33333333 0.066666667 0
0.36666667 0.066666667 0
0.4 0.066666667 0
0.43333333 0.066666667 0
0.46666667 0.066666667 0
0.5 0.066666667 0
0.53333333 0.066666667 0
0.56666667 0.066666667 0
0.6 0.066666667 0
0.63333333 0.066666667 0
0.66666667 0.066666667 0
0.7 0.066666667 0
0.73333333 0.066666667 0
0.76666667 0.066666667 0
0.8 0.066666667 0
0.83333333 0.066666667 0
0.86666667 0.066666667 0
0.9 0.066666667 0
0.93333333 0.066666667 0
0.96666667 0.066666667 0
1 0.066666667 0
0 0.1 0
0.033333333 0.1 0
0.066666667 0.1 0
0.1 0.1 0
0.13333333 0.1 0
0.16666667 0.1 0
0.2 0.1 0
0.23333333 0.1 0
0.26666667 0.1 0
0.3 0.1 0
0.33333333 0.1 0
0.36666667 0.1 0
0.4 0.1 0
0.43333333 0.1 0
0.46666667 0.1 0
0.5 0.1 0
0.53333333 0.1 0
0.56666667 0.1 0
0.6 0.1 0
0.63333333 0.1 0
0.66666667 0.1 0
0.7 0.1 0
0.73333333 0.1 0
0.76666667 0.1 0
0.8 0.1 0
0.83333333 0.1 0
0.86666667 0.1 0
0.9 0.1 0
0.93333333 0.1 0
0.96666667 0.1 0
1 0.1 0
0 0.13333333 0
0.033333333 0.13333333 0
0.066666667 0.13333333 0
0.1 0.13333333 0
0.13333333 0.13333333 0
0.16666667 0.13333333 0
0.2 0.13333333 0
0.23333333 0.13333333 0
0.26666667 0.13333333 0
0.3 0.13333333 0
0.33333333 0.13333333 0
0.36666667 0.13333333 0
0.4 0.13333333 0
0.43333333 0.13333333 0
0.46666667 0.13333333 0
0.5 0.13333333 0
0.53333333 0.13333333 0
0.56666667 0.13333333 0
0.6 0.13333333 0
0.63333333 0.13333333 0
0.66666667 0.13333333 0
0.7 0.13333333 0
0.73333333 0.13333333 0
0.76666667 0.13333333 0
0.8 0.13333333 0
0.83333333 0.13333333 0
0.86666667 0.13333333 0
0.9 0.13333333 0
0.93333333 0.13333333 0
0.96666667 0.13333333 0
1 0.13333333 0
0 0.16666667 0
0.033333333 0.16666667 0
0.066666667 0.16666667 0
0.1 0.16666667 0
0.13333333 0.16666667 0
0.16666667 0.16666667 0
0.2 0.16666667 0
0.23333333 0.16666667 0
0.26666667 0.16666667 0
0.3 0.16666667 0
0.33333333 0.16666667 0
0.36666667 0.16666667 0
0.4 0.16666667 0
0.43333333 0.16666667 0
0.46666667 0.16666667 0
0.5 0.16666667 0
0.53333333 0.16666667 0
0.56666667 0.16666667 0
0.6 0.16666667 0
0.63333333 0.16666667 0
0.66666667 0.16666667 0
0.7 0.16666667 0
0.73333333 0.16666667 0
0.76666667 0.16666667 0
0.8 0.16666667 0
0.83333333 0.16666667 0
0.86666667 0.16666667 0
0.9 0.16666667 0
0.93333333 0.16666667 0
0.96666667 0.16666667 0
1 0.16666667 0
0 0.2 0
0.033333333 0.2 0
0.066666667 0.2 0
0.1 0.2 0
0.13333333 0.2 0
0.16666667 0.2 0
0.2 0.2 0
0.23333333 0.2 0
0.26666667 0.2 0
0.3 0.2 0
0.33333333 0.2 0
0.36666667 0.2 0
0.4 0.2 0
0.43333333 0.2 0
0.46666667 0.2 0
0.5 0.2 0
0.53333333 0.2 0
0.56666667 0.2 0
0.6 0.2 0
0.63333333 0.2 0
0.66666667 0.2 0
0.7 0.2 0
0.73333333 0.2 0
0.76666667 0.2 0
0.8 0.2 0
0.83333333 0.2 0
0.86666667 0.2 0
0.9 0.2 0
0.93333333 0.2 0
0.96666667 0.2 0
1 0.2 0
0 0.23333333 0
0.033333333 0.23333333 0
0.066666667 0.23333333 0
0.1 0.23333333 0
0.13333333 0.23333333 0
0.16666667 0.23333333 0
0.2 0.23333333 0
0.23333333 0.23333333 0
0.26666667 0.23333333 0
0.3 0.23333333 0
0.33333333 0.23333333 0
0.36666667 0.23333333 0
0.4 0.23333333 0
0.43333333 0.23333333 0
0.46666667 0.23333333 0
0.5 0.23333333 0
0.53333333 0.23333333 0
0.56666667 0.23333333 0
0.6 0.23333333 0
0.63333333 0.23333333 0
0.66666667 0.23333333 0
0.7 0.23333333 0
0.73333333 0.23333333 0
0.76666667 0.23333333 0
0.8 0.23333333 0
0.83333333 0.23333333 0
0.86666667 0.23333333 0
0.9 0.23333333 0
0.93333333 0.23333333 0
0.96666667 0.23333333 0
1 0.23333333 0
0 0.26666667 0
0.033333333 0.26666667 0
0.066666667 0.26666667 0
0.1 0.26666667 0
0.13333333 0.26666667 0
0.16666667 0.26666667 0
0.2 0.26666667 0
0.23333333 0.26666667 0
0.26666667 0.26666667 0
0.3 0.26666667 0
0.33333333 0.26666667 0
0.36666667 0.26666667 0
0.4 0.26666667 0
0.43333333 0.26666667 0
0.46666667 0.26666667 0
0.5 0.26666667 0
0.53333333 0.26666667 0
0.56666667 0.26666667 0
0.6 0.26666667 0
0.63333333 0.26666667 0
0.66666667 0.26666667 0
0.7 0.26666667 0
0.73333333 0.26666667 0
0.76666667 0.26666667 0
0.8 0.26666667 0
0.83333333 0.26666667 0
0.86666667 0.26666667 0
0.9 0.26666667 0
0.93333333 0.26666667 0
0.96666667 0.26666667 0
1 0.26666667 0
0 0.3 0
0.033333333 0.3 0
0.066666667 0.3 0
0.1 0.3 0
0.13333333 0.3 0
0.16666667 0.3 0
0.2 0.3 0
0.23333333 0.3 0
0.26666667 0.3 0
0.3 0.3 0
0.33333333 0.3 0
0.36666667 0.3 0
0.4 0.3 0
0.43333333 0.3 0
0.46666667 0.3 0
0.5 0.3 0
0.53333333 0.3 0
0.56666667 0.3 0
0.6 0.3 0
0.63333333 0.3 0
0.66666667 0.3 0
0.7 0.3 0
0.73333333 0.3 0
0.76666667 0.3 0
0.8 0.3 0
0.83333333 0.3 0
0.86666667 0.3 0
0.9 0.3 0
0.93333333 0.3 0
0.96666667 0.3 0
1 0.3 0
0 0.33333333 0
0.033333333 0.33333333 0
0.066666667 0.33333333 0
0.1 0.33333333 0
0.13333333 0.33333333 0
0.16666667 0.33333333 0
0.2 0.33333333 0
0.23333333 0.33333333 0
0.26666667 0.33333333 0
0.3 0.33333333 0
0.33333333 0.33333333 0
0.36666667 0.33333333 0
0.4 0.33333333 0
0.43333333 0.33333333 0
0.46666667 0.33333333 0
0.5 0.33333333 0
0.53333333 0.33333333 0
0.56666667 0.33333333 0
0.6 0.33333333 0
0.63333333 0.33333333 0
0.66666667 0.33333333 0
0.7 0.33333333 0
0.73333333 0.33333333 0
0.76666667 0.33333333 0
0.8 0.33333333 0
0.83333333 0.33333333 0
0.86666667 0.33333333 0
0.9 0.33333333 0
0.93333333 0.33333333 0
0.96666667 0.33333333 0
1 0.33333333 0
0 0.36666667 0
0.033333333 0.36666667 0
0.066666667 0.36666667 0
0.1 0.36666667 0
0.13333333 0.36666667 0
0.16666667 0.36666667 0
0.2 0.36666667 0
0.23333333 0.36666667 0
0.26666667 0.36666667 0
0.3 0.36666667 0
0.33333333 0.36666667 0
0.36666667 0.36666667 0
0.4 0.36666667 0
0.43333333 0.36666667 0
0.46666667 0.36666667 0
0.5 0.36666667 0
0.53333333 0.36666667 0
0.56666667 0.36666667 0
0.6 0.36666667 0
0.63333333 0.36666667 0
0.66666667 0.36666667 0
0.7 0.36666667 0
0.73333333 0.36666667 0
0.76666667 0.36666667 0
0.8 0.36666667 0
0.83333333 0.36666667 0
0.86666667 0.36666667 0
0.9 0.36666667 0
0.93333333 0.36666667 0
0.96666667 0.36666667 0
1 0.36666667 0
0 0.4 0
0.033333333 0.4 0
0.066666667 0.4 0
0.1 0.4 0
0.13333333 0.4 0
0.16666667 0.4 0
0.2 0.4 0
0.23333333 0.4 0
0.26666667 0.4 0
0.3 0.4 0
0.33333333 0.4 0
0.36666667 0.4 0
0.4 0.4 0
0.43333333 0.4 0
0.46666667 0.4 0
0.5 0.4 0
0.53333333 0.4 0
0.56666667 0.4 0
0.6 0.4 0
0.63333333 0.4 0
0.66666667 0.4 0
0.7 0.4 0
0.73333333 0.4 0
0.76666667 0.4 0
0.8 0.4 0
0.83333333 0.4 0
0.86666667 0.4 0
0.9 0.4 0
0.93333333 0.4 0
0.96666667 0.4 0
1 0.4 0
0 0.43333333 0
0.033333333 0.43333333 0
0.066666667 0.43333333 0
0.1 0.43333333 0
0.13333333 0.43333333 0
0.16666667 0.43333333 0
0.2 0.43333333 0
0.23333333 0.43333333 0
0.26666667 0.43333333 0
0.3 0.43333333 0
0.33333333 0.43333333 0
0.36666667 0.43333333 0
0.4 0.43333333 0
0.43333333 0.43333333 0
0.46666667 0.43333333 0
0.5 0.43333333 0
0.53333333 0.43333333 0
0.56666667 0.43333333 0
0.6 0.43333333 0
0.63333333 0.43333333 0
0.66666667 0.43333333 0
0.7 0.43333333 0
0.73333333 0.43333333 0
0.76666667 0.43333333 0
0.8 0.43333333 0
0.83333333 0.43333333 0
0.86666667 0.43333333 0
0.9 0.43333333 0
0.93333333 0.43333333 0
0.96666667 0.43333333 0
1 0.43333333 0
0 0.46666667 0
0.033333333 0.46666667 0
0.066666667 0.46666667 0
0.1 0.46666667 0
0.13333333 0.46666667 0
0.16666667 0.46666667 0
0.2 0.46666667 0
0.23333333 0.46666667 0
0.26666667 0.46666667 0
0.3 0.46666667 0
0.33333333 0.46666667 0
0.36666667 0.46666667 0
0.4 0.46666667 0
0.43333333 0.46666667 0
0.46666667 0.46666667 0
0.5 0.46666667 0
0.53333333 0.46666667 0
0.56666667 0.46666667 0
0.6 0.46666667 0
0.63333333 0.46666667 0
0.66666667 0.46666667 0
0.7 0.46666667 0
0.73333333 0.46666667 0
0.76666667 0.46666667 0
0.8 0.46666667 0
0.83333333 0.46666667 0
0.86666667 0.46666667 0
0.9 0.46666667 0
0.93333333 0.46666667 0
0.96666667 0.46666667 0
1 0.46666667 0
0 0.5 0
0.033333333 0.5 0
0.066666667 0.5 0
0.1 0.5 0
0.13333333 0.5 0
0.16666667 0.5 0
0.2 0.5 0
0.23333333 0.5 0
0.26666667 0.5 0
0.3 0.5 0
0.33333333 0.5 0
0.36666667 0.5 0
0.4 0.5 0
0.43333333 0.5 0
0.46666667 0.5 0
0.5 0.5 0
0.53333333 0.5 0
0.56666667 0.5 0
0.6 0.5 0
0.63333333 0.5 0
0.66666667 0.5 0
0.7 0.5 0
0.73333333 0.5 0
0.76666667 0.5 0
0.8 0.5 0
0.83333333 0.5 0
0.86666667 0.5 0
0.9 0.5 0
0.93333333 0.5 0
0.96666667 0.5 0
1 0.5 0
0 0.53333333 0
0.033333333 0.53333333 0
0.066666667 0.53333333 0
0.1 0.53333333 0
0.13333333 0.53333333 0
0.16666667 0.53333333 0
0.2 0.53333333 0
0.23333333 0.53333333 0
0.26666667 0.53333333 0
0.3 0.53333333 0
0.33333333 0.53333333 0
0.36666667 0.53333333 0
0.4 0.53333333 0
0.43333333 0.53333333 0
0.46666667 0.53333333 0
0.5 0.53333333 0
0.53333333 0.53333333 0
0.56666667 0.53333333 0
0.6 0.53333333 0
0.63333333 0.53333333 0
0.66666667 0.53333333 0
0.7 0.53333333 0
0.73333333 0.53333333 0
0.76666667 0.53333333 0
[...]
CELL_DATA 1920
Scalars  Label int 1
LOOKUP_TABLE FreeFempp_table
0
0
0
0
0
0
0
0
0
0
0
0
0
0
0
0
0
0
0
0
0
0
0
0
0
0
0
0
0
0
0
0
0
0
0
0
0
0
0
0
0
0
0
0
0
0
0
0
0
0
0
0
0
0
0
0
0
0
0
0
0
0
0
0
0
0
0
0
0
0
0
0
0
0
0
0
0
0
0
0
0
0
0
0
0
0
0
0
0
0
0
0
0
0
0
0
0
0
0
0
0
0
0
0
0
0
0
0
0
0
0
0
0
0
0
0
0
0
0
0
0
0
0
0
0
0
0
0
0
0
0
0
0
0
0
0
0
0
0
0
0
0
0
0
0
0
0
0
0
0
0
0
0
0
0
0
0
0
0
0
0
0
0
0
0
0
0
0
0
0
0
0
0
0
0
0
0
0
0
0
0
0
0
0
0
0
0
0
0
0
0
0
0
0
0
0
0
0
0
0
0
0
0
0
0
0
0
0
0
0
0
0
0
0
0
0
0
0
0
0
0
0
0
0
0
0
0
0
0
0
0
0
0
0
0
0
0
0
0
0
0
0
0
0
0
0
0
0
0
0
0
0
0
0
0
0
0
0
0
0
0
0
0
0
0
0
0
0
0
0
0
0
0
0
0
0
0
0
0
0
0
0
0
0
0
0
0
0
0
0
0
0
0
0
0
0
0
0
0
0
0
0
0
0
0
0
0
0
0
0
0
0
0
0
0
0
0
0
0
0
0
0
0
0
0
0
0
0
0
0
0
0
0
0
0
0
0
0
0
0
0
0
0
0
0
0
0
0
0
0
0
0
0
0
0
0
0
0
0
0
0
0
0
0
0
0
0
0
0
0
0
0
0
0
0
0
0
0
0
0
0
0
0
0
0
0
0
0
0
0
0
0
0
0
0
0
0
0
0
0
0
0
0
0
0
0
0
0
0
0
0
0
0
0
0
0
0
0
0
0
0
0
0
0
0
0
0
0
0
0
0
0
0
0
0
0
0
0
0
0
0
0
0
0
0
0
0
0
0
0
0
0
0
0
0
0
0
0
0
0
0
0
0
0
0
0
0
0
0
0
0
0
0
0
0
0
0
0
0
0
0
0
0
0
0
0
0
0
0
0
0
0
0
0
0
0
0
0
0
0
0
0
0
0
0
0
0
0
0
0
0
0
0
0
0
0
0
0
0
0
0
0
0
0
0
0
0
0
0
0
0
0
0
0
0
0
0
0
0
0
0
0
0
0
0
0
0
0
0
0
0
0
0
0
0
0
0
0
0
0
0
0
0
0
0
0
0
0
0
0
0
0
0
0
0
0
0
0
0
0
0
0
0
0
0
0
0
0
0
0
0
0
0
0
0
0
0
0
0
0
0
0
0
0
0
0
0
0
0
0
0
0
0
0
0
0
0
0
0
0
0
0
0
0
0
0
0
0
0
0
0
0
0
0
0
0
0
0
0
0
0
0
0
0
0
0
0
0
0
0
0
0
0
0
0
0
0
0
0
0
0
0
0
0
0
0
0
0
0
0
0
0
0
0
0
0
0
0
0
0
0
0
0
0
0
0
0
0
0
0
0
0
0
0
0
0
0
0
0
0
0
0
0
0
0
0
0
0
0
0
0
0
0
0
0
0
0
0
0
0
0
0
0
0
0
0
0
0
0
0
0
0
0
0
0
0
0
0
0
0
0
0
0
0
0
0
0
0
0
0
0
0
0
0
0
0
0
0
0
0
0
0
0
0
0
0
0
0
0
0
0
0
0
0
0
0
0
0
0
0
0
0
0
0
0
0
0
0
0
0
0
0
0
0
0
0
0
0
0
0
0
0
0
0
0
0
0
0
0
0
0
0
0
0
0
0
0
0
0
0
0
0
0
0
0
0
0
0
0
0
0
0
0
0
0
0
0
0
0
0
0
0
0
0
0
0
0
0
0
0
0
0
0
0
0
0
0
0
0
0
0
0
0
0
0
0
0
0
0
0
0
0
0
0
0
0
0
0
0
0
0
0
0
0
0
0
0
0
0
0
0
0
0
0
0
0
0
0
0
0
0
0
0
0
0
0
0
0
0
0
0
0
0
0
0
0
0
0
0
0
0
0
0
0
0
0
0
0
0
0
0
0
0
0
0
0
0
0
0
0
0
0
0
0
0
0
0
0
0
0
0
0
0
0
0
0
0
0
0
0
0
0
0
0
0
0
0
0
0
0
0
0
0
0
0
0
0
0
0
0
0
0
0
0
0
0
0
0
0
0
0
0
0
0
0
0
0
0
0
0
0
0
0
0
0
0
0
0
0
0
0
0
0
0
0
0
0
0
0
0
0
0
0
0
0
0
0
0
0
0
0
0
0
0
0
0
0
0
0
0
0
0
0
0
0
0
0
0
0
0
0
0
0
0
0
0
0
0
0
0
0
0
0
0
0
0
0
0
0
0
0
0
0
0
0
0
0
0
0
0
0
0
0
0
0
0
0
0
0
0
0
0
0
0
0
0
0
0
0
0
0
0
0
0
0
0
0
0
0
0
0
0
0
0
0
0
0
0
0
0
0
0
0
0
0
0
0
0
0
0
0
0
0
0
0
0
0
0
0
0
0
0
0
0
0
0
0
0
0
0
0
0
0
0
0
0
0
0
0
0
0
0
0
0
0
0
0
0
0
0
0
0
0
0
0
0
0
0
0
0
0
0
0
0
0
0
0
0
0
0
0
0
0
0
0
0
0
0
0
0
0
0
0
0
0
0
0
0
0
0
0
0
0
0
0
0
0
0
0
0
0
0
0
0
0
0
0
0
0
0
0
0
0
0
0
0
0
0
0
0
0
0
0
0
0
0
0
0
0
0
0
0
0
0
0
0
0
0
0
0
0
0
0
0
0
0
0
0
0
0
0
0
0
0
0
0
0
0
0
0
0
0
0
0
0
0
0
0
0
0
0
0
0
0
0
0
0
0
0
0
0
0
0
0
0
0
0
0
0
0
0
0
0
0
0
0
0
0
0
0
0
0
0
0
0
0
0
0
0
0
0
0
0
0
0
0
0
0
0
0
0
0
0
0
0
0
0
0
0
0
0
0
0
0
0
0
0
0
0
0
0
0
0
0
0
0
0
0
0
0
0
0
0
0
0
0
0
0
0
0
0
0
0
0
0
0
0
0
0
0
0
0
0
0
0
0
0
0
0
0
0
0
0
0
0
0
0
0
0
0
0
0
0
0
0
0
0
0
0
0
0
0
0
0
0
0
0
0
0
0
0
0
0
0
0
0
0
0
0
0
0
0
0
0
0
0
0
0
0
0
0
0
0
0
0
0
0
0
0
0
0
0
0
0
0
0
0
0
0
0
0
0
0
0
0
0
0
0
0
0
0
0
0
0
0
0
0
0
0
0
0
0
0
0
0
0
0
0
0
0
0
0
0
0
0
0
0
0
0
0
0
0
0
0
0
0
0
0
0
0
0
0
0
0
0
0
0
0
0
0
0
0
0
0
0
0
0
0
0
0
0
0
0
0
0
0
0
0
0
0
0
0
0
0
0
0
0
0
0
0
0
0
0
0
0
0
0
0
0
0
0
0
0
0
0
0
0
0
0
0
0
0
0
0
0
0
0
0
0
0
0
0
0
0
0
0
0
0
0
0
0
0
0
0
0
0
0
0
0
0
0
0
0
0
0
0
0
0
0
0
0
0
0
0
0
0
0
0
0
0
0
0
0
0
0
0
0
0
0
0
0
0
0
0
0
0
0
0
0
0
0
0
0
0
0
0
0
0
0
0
0
0
0
0
0
0
0
0
0
0
0
0
0
0
0
0
0
0
0
0
0
0
0
0
0
0
0
0
0
0
0
0
0
0
0
0
0
0
0
0
0
0
0
0
0
0
0
0
0
0
0
0
0
0
0
0
0
0
0
0
0
0
0
0
0
0
0
0
0
0
0
0
0
0
0
0
0
0
0
0
0
0
0
0
0
0
0
0
0
0
0
0
0
0
0
0
0
0
0
0
0
0
0
0
0
0
0
0
0
0
0
0
0
0
0
0
0
0
0
0
0
0
0
0
0
0
0
0
0
0
0
0
0
0
0
0
0
0
0
0
1
1
1
1
1
1
1
1
1
1
1
1
1
1
1
1
1
1
1
1
1
1
1
1
1
1
1
1
1
1
2
2
2
2
2
2
2
2
2
2
2
2
2
2
2
2
2
2
2
2
2
2
2
2
2
2
2
2
2
2
3
3
3
3
3
3
3
3
3
3
3
3
3
3
3
3
3
3
3
3
3
3
3
3
3
3
3
3
3
3
4
4
4
4
4
4
4
4
4
4
4
4
4
4
4
4
4
4
4
4
4
4
4
4
4
4
4
4
4
4

LOOKUP_TABLE FreeFempp_table 5
1.00000000 0.00000000 0.00000000 1.00000000
1.00000000 1.00000000 0.00000000 1.00000000
1.00000000 0.00000000 1.00000000 1.00000000
0.00000000 1.00000000 0.00000000 1.00000000
0.00000000 1.00000000 1.00000000 1.00000000

POINT_DATA 961
FIELD FieldData 1
Density 1 961 float
7.66628981e-01 6.84795797e-01 5.04425824e-01 3.94681782e-01 3.56194973e-01 3.52108300e-01 3.92240316e-01 5.47309220e-01 7.69029796e-01 8.15846503e-01 7.59766519e-01 5.25386393e-01 2.88478494e-01 8.31950307e-02 1.19175501e-02 5.98129397e-03 2.39196513e-02 1.86161652e-01 5.80215454e-01 7.75833726e-01 8.31223309e-01 9.30914819e-01 9.67896760e-01 7.54439890e-01 6.71306849e-02 1.31730726e-02 1.73164811e-02 6.24098666e-02 2.27462843e-01 4.93411034e-01 6.00197017e-01 7.29483187e-01 6.38330221e-01 3.73198986e-01 2.29328990e-01 1.88854039e-01 1.87986419e-01 2.26517096e-01 3.74636829e-01 6.54701233e-01 7.42307723e-01 6.42145336e-01 4.28111851e-01 1.88181028e-01 4.11897562e-02 4.10475070e-03 1.26317632e-03 5.08989301e-03 8.30480903e-02 5.22040308e-01 8.20896387e-01 8.72259796e-01 9.43270504e-01 9.86685276e-01 8.62673998e-01 2.93672122e-02 3.20150657e-03 3.63812270e-03 1.96453165e-02 1.25496849e-01 4.20558989e-01 5.88628054e-01 6.21931672e-01 4.23738807e-01 1.60261452e-01 7.51708150e-02 5.68150990e-02 5.79592958e-02 7.79050142e-02 1.60135090e-01 4.01325881e-01 5.86388826e-01 4.74813432e-01 2.88992763e-01 1.56209961e-01 3.66215408e-02 3.63511592e-03 6.87893131e-04 2.37597432e-03 6.11199103e-02 5.24478793e-01 8.38376522e-01 8.64705920e-01 8.80406022e-01 9.83920395e-01 9.17337358e-01 1.22642163e-02 1.22490269e-03 2.27577914e-03 1.78039297e-02 1.31166041e-01 4.51135516e-01 6.17557883e-01 6.44915402e-01 4.65758950e-01 1.58874854e-01 6.95504546e-02 5.08017242e-02 5.05390950e-02 6.44784123e-02 1.19097263e-01 2.87714988e-01 4.85041320e-01 4.33523893e-01 2.15213463e-01 9.70117524e-02 2.40889397e-02 3.47583322e-03 7.82470335e-04 1.89432118e-03 4.36717048e-02 4.87435043e-01 7.88063526e-01 7.96101630e-01 7.20510900e-01 9.56225812e-01 9.73728776e-01 1.18440753e-02 8.27514974e-04 3.46163008e-03 2.99565215e-02 1.81594953e-01 5.07762432e-01 6.50866747e-01 6.77768469e-01 5.37904799e-01 2.55035460e-01 1.38975859e-01 1.14965089e-01 1.18323423e-01 1.42262548e-01 2.11312726e-01 3.56398135e-01 4.83372301e-01 4.36313331e-01 2.50463605e-01 9.29045826e-02 1.97962634e-02 2.87623005e-03 6.64690160e-04 1.79879856e-03 2.92932317e-02 4.07000542e-01 7.16137707e-01 6.71905279e-01 5.61903358e-01 7.66653180e-01 9.82245445e-01 4.18548398e-02 9.64065723e-04 6.94812322e-03 4.96612601e-02 2.08671317e-01 5.07422626e-01 6.47271693e-01 6.91505492e-01 5.74216366e-01 3.04687560e-01 1.72972068e-01 1.42998308e-01 1.49713695e-01 1.81941837e-01 2.55246609e-01 3.76977563e-01 4.70263451e-01 4.29062515e-01 2.77272761e-01 1.37127429e-01 4.97786663e-02 1.17969988e-02 1.58844783e-03 1.33732287e-03 2.43811589e-02 3.07916909e-01 6.49319112e-01 5.78758895e-01 5.01406491e-01 6.56853557e-01 9.69460964e-01 9.08295453e-01 1.17529770e-02 2.39424384e-03 3.52495909e-02 1.79226071e-01 4.45817709e-01 6.05665386e-01 6.96706891e-01 5.90701342e-01 3.34580958e-01 1.94314346e-01 1.56057999e-01 1.63066670e-01 2.01919481e-01 2.81301528e-01 3.96297574e-01 4.80769277e-01 4.55918461e-01 3.25331241e-01 1.79247886e-01 8.28710273e-02 3.21557112e-02 7.88808241e-03 1.22872938e-03 3.28427227e-03 7.42328018e-02 4.36617732e-01 5.82324207e-01 5.89339733e-01 7.59261906e-01 9.77902591e-01 9.85199988e-01 4.37698781e-01 4.87790024e-03 3.33347870e-03 7.33565539e-02 3.64827484e-01 5.54067433e-01 7.02900708e-01 6.04368985e-01 3.60494405e-01 2.21076071e-01 1.80756584e-01 1.90575585e-01 2.37567171e-01 3.23638320e-01 4.33477640e-01 5.08468509e-01 4.90195155e-01 3.74782950e-01 2.23541275e-01 1.06728241e-01 4.31195833e-02 1.58476569e-02 4.83364705e-03 2.47103581e-03 1.01605579e-02 1.11714520e-01 5.37916243e-01 6.92358971e-01 8.19977939e-01 9.53433871e-01 9.57498848e-01 3.68247896e-01 3.34309004e-02 1.84402463e-03 4.26531583e-03 2.02445358e-01 5.54677010e-01 7.11422563e-01 6.20071471e-01 3.86751354e-01 2.50992298e-01 2.11284831e-01 2.23910972e-01 2.76460409e-01 3.64012659e-01 4.63896334e-01 5.26320457e-01 5.07854700e-01 4.01547283e-01 2.50914514e-01 1.24037638e-01 5.13106175e-02 2.14028936e-02 1.26449922e-02 1.48206800e-02 4.67961244e-02 1.70169070e-01 5.46457052e-01 7.99699426e-01 8.79067361e-01 9.53306794e-01 9.46227908e-01 5.11759043e-01 4.89442907e-02 4.72284621e-03 6.84698811e-04 1.02334553e-02 3.86573732e-01 7.20784545e-01 6.36288643e-01 4.11427915e-01 2.79757172e-01 2.41545632e-01 2.55183756e-01 3.08326423e-01 3.91171545e-01 4.77931321e-01 5.27087450e-01 5.04988074e-01 4.03982580e-01 2.57986486e-01 1.31006196e-01 5.74182831e-02 2.68734917e-02 1.95964724e-02 3.13685946e-02 1.08418763e-01 3.62164199e-01 6.93534911e-01 8.81284535e-01 9.26269054e-01 9.56170499e-01 9.41050410e-01 6.42258823e-01 6.51574209e-02 2.23493716e-03 3.25021188e-04 4.18365328e-03 1.33490741e-01 7.29790211e-01 6.51398301e-01 4.32813138e-01 3.04411322e-01 2.67794788e-01 2.80973971e-01 3.31007093e-01 4.05428916e-01 4.78407234e-01 5.15101910e-01 4.88273114e-01 3.91135693e-01 2.53066480e-01 1.32441729e-01 6.20668791e-02 3.25530469e-02 2.64292620e-02 4.27323319e-02 1.23935826e-01 3.62756670e-01 6.86645329e-01 8.77094686e-01 9.32053208e-01 9.48495507e-01 9.26990569e-01 7.12016523e-01 9.19438004e-02 1.71122479e-03 1.51528511e-04 6.60132524e-03 3.04567456e-01 7.38141716e-01 6.65129721e-01 4.50895071e-01 3.24246466e-01 2.88811624e-01 3.00806135e-01 3.46099705e-01 4.11005497e-01 4.71170425e-01 4.97056991e-01 4.66176033e-01 3.73509258e-01 2.45704547e-01 1.34168208e-01 6.80239275e-02 3.97590771e-02 3.51821147e-02 5.62083013e-02 1.43559664e-01 3.75033498e-01 6.81830525e-01 8.68654907e-01 9.28463221e-01 9.38941479e-01 9.08878982e-01 7.01289475e-01 1.12054624e-01 1.78604375e-03 4.55008150e-04 1.07410112e-02 4.22909200e-01 7.46076345e-01 6.77997231e-01 4.66567129e-01 3.39732707e-01 3.04728985e-01 3.15412402e-01 3.55866790e-01 4.11774099e-01 4.60814357e-01 4.77866352e-01 4.44396168e-01 3.57367188e-01 2.40883291e-01 1.38855696e-01 7.66825676e-02 4.95364517e-02 4.69690524e-02 7.41706192e-02 1.73160687e-01 4.10770029e-01 7.02003121e-01 8.69780421e-01 9.24575090e-01 9.27818477e-01 8.78331661e-01 5.82089067e-01 5.81098683e-02 1.48247799e-03 1.37942948e-03 5.84915467e-02 6.05885327e-01 7.53999949e-01 6.90575182e-01 4.80664223e-01 3.51388097e-01 3.15820605e-01 3.25418830e-01 3.61804485e-01 4.09998596e-01 4.49764401e-01 4.59855795e-01 4.25238997e-01 3.44661772e-01 2.39538848e-01 1.46646023e-01 8.81727263e-02 6.22170903e-02 6.21936470e-02 9.66468006e-02 2.08528623e-01 4.49960232e-01 7.20332801e-01 8.69594693e-01 9.18516636e-01 9.15345669e-01 8.39179814e-01 4.11805958e-01 1.70435831e-02 7.83127267e-04 1.81971246e-03 1.36941582e-01 7.57813215e-01 7.61977136e-01 7.02754140e-01 4.93027866e-01 3.58905047e-01 3.21721286e-01 3.30757380e-01 3.64367843e-01 4.06487256e-01 4.38790619e-01 4.43565816e-01 4.08961385e-01 3.35199356e-01 2.41006121e-01 1.56842202e-01 1.02166556e-01 7.78062195e-02 8.09349120e-02 1.23173051e-01 2.46480584e-01 4.85750914e-01 7.32836425e-01 8.65882158e-01 9.08775091e-01 8.96649003e-01 7.81209111e-01 2.76357412e-01 7.41077354e-03 4.28731611e-04 1.89486193e-03 1.58935875e-01 8.13456535e-01 7.69048870e-01 7.13147640e-01 5.01970172e-01 3.60940546e-01 3.21471691e-01 3.30954194e-01 3.63544166e-01 4.01433855e-01 4.28016275e-01 4.28927004e-01 3.95252347e-01 3.28398108e-01 2.44569644e-01 1.68858126e-01 1.18367508e-01 9.62506458e-02 1.03151806e-01 1.53132632e-01 2.84739345e-01 5.15573204e-01 7.38990366e-01 8.58142257e-01 8.94372106e-01 8.68331552e-01 6.99558616e-01 1.91770181e-01 6.63931714e-03 7.58282607e-04 2.36438285e-03 1.52197435e-01 8.21554184e-01 7.74059713e-01 7.20785737e-01 5.06781995e-01 3.57105792e-01 3.15055162e-01 3.26411426e-01 3.59995574e-01 3.95465523e-01 4.17865038e-01 4.16133314e-01 3.84077549e-01 3.24032605e-01 2.49939874e-01 1.82441682e-01 1.36610597e-01 1.17454834e-01 1.28607556e-01 1.85598761e-01 3.21387589e-01 5.38651884e-01 7.39208043e-01 8.46323550e-01 8.75157356e-01 8.30043554e-01 6.01528227e-01 1.36246145e-01 7.51464954e-03 1.54357939e-03 5.32230735e-03 1.77013814e-01 8.08225036e-01 7.77257621e-01 7.27550626e-01 5.10694146e-01 3.49894375e-01 3.04460168e-01 3.19081724e-01 3.55552584e-01 3.90025258e-01 4.09346342e-01 4.05830294e-01 3.75776976e-01 3.22221339e-01 2.57129192e-01 1.97524324e-01 1.56735778e-01 1.41138554e-01 1.56680867e-01 2.19165966e-01 3.54598343e-01 5.54647684e-01 7.33575761e-01 8.29808176e-01 8.50185037e-01 7.81302094e-01 4.98850584e-01 9.85097438e-02 7.11534778e-03 1.66760909e-03 6.66672783e-03 2.12624326e-01 7.84914732e-01 7.79517829e-01 7.34293401e-01 5.15321910e-01 3.41323107e-01 2.91989297e-01 3.11312318e-01 3.52335781e-01 3.86703372e-01 4.03518260e-01 3.98651928e-01 3.70655626e-01 3.23058426e-01 2.66128421e-01 2.13972822e-01 1.78414151e-01 1.66701958e-01 1.86287165e-01 2.52054721e-01 3.82744402e-01 5.63292980e-01 7.21652269e-01 8.07190180e-01 8.17371726e-01 7.21476376e-01 4.06011850e-01 7.85166249e-02 8.13646615e-03 2.50589801e-03 1.03524672e-02 2.46236995e-01 7.68005967e-01 7.83052504e-01 7.40665138e-01 5.21149635e-01 3.31584990e-01 2.79087126e-01 3.04847002e-01 3.51695985e-01 3.86303782e-01 4.00722295e-01 3.94613236e-01 3.68519396e-01 3.26261550e-01 2.76638716e-01 2.31398717e-01 2.01033756e-01 1.93191782e-01 2.15986386e-01 2.82449692e-01 4.04701501e-01 5.64623117e-01 7.03093529e-01 7.77112067e-01 7.74906874e-01 6.52758598e-01 3.34097981e-01 7.13987127e-02 1.18869310e-02 5.33597451e-03 1.93422046e-02 2.78354287e-01 7.51709461e-01 7.92761266e-01 7.48732507e-01 5.27937233e-01 3.21132153e-01 2.66906023e-01 3.00811887e-01 3.53849053e-01 3.88403237e-01 4.00244027e-01 3.92891020e-01 3.68543565e-01 3.31079900e-01 2.87993252e-01 2.49099776e-01 2.23686635e-01 2.19372988e-01 2.44197831e-01 3.08826923e-01 4.20008659e-01 5.59134066e-01 6.78068042e-01 7.38873184e-01 7.22414792e-01 5.81226289e-01 2.85939157e-01 7.33318329e-02 1.89675223e-02 1.17229866e-02 3.37887630e-02 3.03039491e-01 7.29894280e-01 8.11613381e-01 7.49881268e-01 5.23211479e-01 3.08615148e-01 2.56590098e-01 2.99491048e-01 3.57863247e-01 3.91535103e-01 4.00650144e-01 3.92203778e-01 3.69599819e-01 3.36532921e-01 2.99320787e-01 2.66183764e-01 2.45297551e-01 2.43907452e-01 2.69437343e-01 3.30100656e-01 4.28701133e-01 5.47533274e-01 6.47046328e-01 6.92618608e-01 6.61370635e-01 5.14091790e-01 2.57515818e-01 8.18521157e-02 2.98651960e-02 2.34885141e-02 5.52245677e-02 3.26891720e-01 7.07029700e-01 8.35609019e-01 7.36224830e-01 5.00496984e-01 2.96369910e-01 2.51055777e-01 3.01004261e-01 3.62392634e-01 3.94200832e-01 4.00757849e-01 3.91603917e-01 3.70845884e-01 3.41843426e-01 3.09884429e-01 2.81863272e-01 2.64915138e-01 2.65661001e-01 2.90582418e-01 3.45631033e-01 4.30888981e-01 5.30057371e-01 6.09995961e-01 6.39128864e-01 5.95614135e-01 4.57312912e-01 2.44883701e-01 9.59280655e-02 4.56227884e-02 3.96185257e-02 8.05714205e-02 3.45587015e-01 6.46740794e-01 8.36734653e-01 7.20829308e-01 4.75467682e-01 2.89236635e-01 2.53096968e-01 3.06051284e-01 3.66948932e-01 3.96064818e-01 4.00445491e-01 3.90976965e-01 3.72064888e-01 3.46717626e-01 3.19354445e-01 2.95745283e-01 2.82028496e-01 2.84031004e-01 3.07127476e-01 3.55285138e-01 4.26709652e-01 5.06569028e-01 5.66852033e-01 5.80188096e-01 5.30535698e-01 4.11280274e-01 2.41893992e-01 1.14271693e-01 6.57329038e-02 5.79735599e-02 1.03299215e-01 3.45473289e-01 5.98948181e-01 8.34028006e-01 7.07942367e-01 4.58084077e-01 2.87067384e-01 2.61903077e-01 3.15250844e-01 3.72062743e-01 3.97722572e-01 4.00242358e-01 3.90652180e-01 3.73399675e-01 3.51204604e-01 3.27763259e-01 3.07855099e-01 2.96638459e-01 2.99036413e-01 3.19265336e-01 3.59609604e-01 4.17012095e-01 4.78205651e-01 5.20061314e-01 5.20853221e-01 4.71667707e-01 3.72852355e-01 2.39600211e-01 1.32114425e-01 8.35619494e-02 7.16207325e-02 1.11288458e-01 3.33420038e-01 5.71429074e-01 8.28779638e-01 6.95118368e-01 4.43265915e-01 2.91367173e-01 2.76983082e-01 3.28953087e-01 3.78529429e-01 3.99659246e-01 4.00384545e-01 3.90686810e-01 3.74822736e-01 3.55286717e-01 3.35165620e-01 3.18336040e-01 3.08980286e-01 3.11057925e-01 3.27671349e-01 3.59780937e-01 4.03648049e-01 4.47834551e-01 4.74160194e-01 4.66784626e-01 4.21355307e-01 3.40257227e-01 2.36251846e-01 1.47493646e-01 1.00069344e-01 8.40244442e-02 1.18064992e-01 3.25329959e-01 5.56577682e-01 8.15847516e-01 6.78282738e-01 4.28138435e-01 3.06620568e-01 3.00668538e-01 3.47017646e-01 3.86582971e-01 4.01878029e-01 4.00529265e-01 3.90583903e-01 3.75824690e-01 3.58534813e-01 3.41264546e-01 3.27050209e-01 3.19107503e-01 3.20419282e-01 3.33091170e-01 3.57162952e-01 3.88769299e-01 4.18506503e-01 4.32799906e-01 4.20658439e-01 3.79953414e-01 3.14033061e-01 2.33202130e-01 1.62332028e-01 1.19133279e-01 1.00471586e-01 1.27710268e-01 3.15495342e-01 5.39317966e-01 7.89289951e-01 6.58729494e-01 4.29364234e-01 3.36850375e-01 3.34931135e-01 3.68404955e-01 3.95302981e-01 4.03676242e-01 3.99696112e-01 3.89229327e-01 3.75334233e-01 3.60009283e-01 3.45291913e-01 3.33435297e-01 3.26724559e-01 3.27193618e-01 3.36092561e-01 3.52898717e-01 3.74029934e-01 3.92096698e-01 3.97386611e-01 3.82597387e-01 3.46881360e-01 2.93892324e-01 2.31644288e-01 1.75865799e-01 1.38494164e-01 1.19259112e-01 1.38513029e-01 2.99138397e-01 5.13185918e-01 7.56907821e-01 6.47413909e-01 4.60279465e-01 3.83193523e-01 3.75241697e-01 3.88983220e-01 4.00914490e-01 4.01895106e-01 3.94950300e-01 3.83829713e-01 3.70734364e-01 3.57278019e-01 3.45030040e-01 3.35571468e-01 3.30355793e-01 3.30529511e-01 3.36563021e-01 3.47502291e-01 3.60102147e-01 3.68645787e-01 3.66427332e-01 3.49031121e-01 3.16819012e-01 2.73661047e-01 2.25914210e-01 1.83513239e-01 1.54456407e-01 1.40283942e-01 1.57214329e-01 2.87413329e-01 4.81010407e-01 7.57338941e-01 6.82713389e-01 5.39986908e-01 4.57967103e-01 4.30186123e-01 4.22924250e-01 4.21480238e-01 4.17181671e-01 4.08907413e-01 3.98222297e-01 3.86487663e-01 3.74974430e-01 3.64990085e-01 3.57761353e-01 3.54262888e-01 3.55068117e-01 3.60067725e-01 3.67881119e-01 3.75296116e-01 3.77529234e-01 3.69750291e-01 3.49393547e-01 3.17616403e-01 2.78467417e-01 2.37751141e-01 2.03135848e-01 1.81823999e-01 1.78650275e-01 2.07486644e-01 3.19027603e-01 4.70705271e-01 8.17461491e-01 7.47771442e-01 6.30220473e-01 5.44778347e-01 5.07985771e-01 4.94041502e-01 4.89270747e-01 4.85483289e-01 4.79575455e-01 4.71843094e-01 4.63115871e-01 4.54363078e-01 4.46681976e-01 4.41131771e-01 4.38566566e-01 4.39493835e-01 4.43808019e-01 4.50276405e-01 4.56122935e-01 4.57384080e-01 4.50205564e-01 4.32448953e-01 4.04609054e-01 3.69491756e-01 3.31811458e-01 2.98730522e-01 2.79036790e-01 2.81651974e-01 3.20615441e-01 4.19426471e-01 5.34516335e-01 
