# vtk DataFile Version 2.0
results_case1_non_linear/2_density.vtk, Created by Freefem++ 
ASCII
DATASET UNSTRUCTURED_GRID
POINTS 855 float
0.38542405 0 0
0.37061485 0.03290608 0
0.41284883 0 0
0.40408462 0.033479492 0
0.35060827 0 0
0.29113621 0 0
0 0 0
0.093312455 0 0
0.5794212 0 0
0.54466583 0 0
0.51742532 0 0
0.4846793 0 0
0.44577148 0 0
0.18590868 0 0
0.13635383 0 0
0.05017999 0 0
0.24386343 0 0
0.36312127 0.060630188 0
0.33898833 0.03751186 0
0.39743824 0.053682534 0
0.43581706 0.041817863 0
0.32061186 0 0
0.29123826 0.025109466 0
0 0.026277568 0
0.049861798 0.027034885 0
0.10502784 0.027945844 0
0.60989213 0 0
0.59773265 0.035337183 0
0.56709627 0.031616533 0
0.53907351 0.041824742 0
0.50844624 0.039105388 0
0.46993781 0.034413868 0
0.1691836 0.026080221 0
0.21404156 0.020807114 0
0.25578358 0.031309751 0
1 0 0
0.12812168 0.05260784 0
0.16357032 0.042945199 0
0.33504049 0.067977672 0
0.39651239 0.075347471 0
0.36614989 0.084122063 0
0.31555639 0.043009845 0
0.43192326 0.066582802 0
0.46756121 0.065613948 0
0.49238728 0.060256335 0
0.28544258 0.050466078 0
0 0.047393333 0
0.036958984 0.050084745 0
0.076779157 0.051557636 0
0.63587488 0 0
0.62745946 0.030335061 0
0.60666318 0.059005234 0
0.5680422 0.060157532 0
0.58793717 0.075761927 0
0.5341959 0.066240847 0
0.23021851 0.046172567 0
0.96446297 0.011541838 0
1 0.026154927 0
0.92441943 0 0
0.19636164 0.060571837 0
0.11951241 0.068159989 0
0 0.061625794 0
0.72097683 0 0
0.67040362 0 0
0.61530447 0.078949707 0
0.30350731 0.067529205 0
0.32090175 0.082448487 0
0.40741029 0.098187447 0
0.43661583 0.088110218 0
0.3698674 0.1000858 0
0.48075439 0.084501307 0
0.52531313 0.083677682 0
0.25896001 0.065752629 0
0.063442775 0.070890376 0
0.046690482 0.079107318 0
0.66542752 0.024539921 0
0.64125185 0.053588439 0
0.56139681 0.083322388 0
0.58392213 0.099426568 0
0.60285545 0.097471129 0
1 0.047597049 0
0.94587637 0.027423591 0
0.86144588 0 0
0.19511581 0.075374527 0
0.12099199 0.08281425 0
0.041068011 0.090225481 0
0 0.074634491 0
0.71326856 0.018028158 0
0.79037002 0 0
0.76824902 0.015395205 0
0.6445319 0.079615406 0
0.63082345 0.098919838 0
0.52401135 0.099138272 0
0.46833691 0.098872895 0
0.6214382 0.11594003 0
0.70738775 0.033702041 0
0.26724041 0.082995877 0
0.32923883 0.098279168 0
0.42685796 0.12019547 0
0.46137958 0.11835111 0
0.378115 0.11743988 0
0.51053328 0.11150488 0
0.56410405 0.10460308 0
0.088188723 0.092077509 0
0.071132526 0.1002902 0
0.68199839 0.04864839 0
0.67207828 0.070665149 0
0.60109204 0.12262833 0
1 0.070915001 0
0.94869321 0.047501723 0
0.8894399 0.020540154 0
0.18091 0.089851116 0
0.12444566 0.10264947 0
0.063871356 0.11525981 0
0.035646515 0.10072001 0
0 0.09371643 0
0.76619281 0.030809791 0
0.83306308 0.01717146 0
0.82710932 0.028118348 0
0.66846145 0.10150221 0
0.64831999 0.11672856 0
0.55098242 0.11889991 0
0.4979728 0.12309844 0
0.63311293 0.13759955 0
0.65490513 0.13818937 0
0.74961385 0.044575645 0
0.71904597 0.051329203 0
0.64733173 0.17089889 0
0.63240587 0.15122129 0
0.83111374 0.041619553 0
0.24135279 0.096398657 0
0.29572847 0.10314583 0
0.33498119 0.1187093 0
0.50011609 0.14997088 0
0.44483109 0.13916869 0
0.5269452 0.1450568 0
0.40664692 0.13658744 0
0.36699509 0.13268863 0
0.54432516 0.13559581 0
0.57734904 0.13174093 0
0.088370704 0.11834583 0
0.7121423 0.071202038 0
0.70400968 0.092917307 0
0.60347237 0.14956919 0
1 0.09879441 0
0.9326146 0.050776911 0
0.96228823 0.080542122 0
0.88883139 0.035772811 0
0.18830628 0.10791641 0
0.15327071 0.1182572 0
0.12052019 0.12292834 0
0.037975766 0.11833252 0
0.064801233 0.13621027 0
0 0.11498722 0
0.78753703 0.051315015 0
0.70358647 0.12154301 0
0.68309998 0.13439101 0
0.67704924 0.17223354 0
0.68768434 0.16120004 0
0.75355193 0.066381411 0
0.63354463 0.17625994 0
0.69086021 0.19422092 0
0.68136706 0.20327904 0
0.81628141 0.063812591 0
0.84907702 0.058752543 0
0.88142174 0.047313014 0
0.71624173 0.22221268 0
0.5596325 0.16767285 0
0.60816555 0.17206771 0
0.75390924 0.24672608 0
0.25267585 0.11796414 0
0.30094251 0.12613679 0
0.34351895 0.14372637 0
0.50488526 0.17159167 0
0.5629664 0.18738634 0
0.44340786 0.15837142 0
0.58263196 0.16453505 0
0.38861118 0.15185204 0
0.089711179 0.1548813 0
0.10280968 0.13929298 0
0.7569685 0.091113006 0
0.73929618 0.11601606 0
1 0.1287123 0
0.91724538 0.06213386 0
0.96225382 0.1031848 0
0.93198747 0.082270296 0
0.20354726 0.12789966 0
0.16708953 0.1398191 0
0.13156264 0.14575377 0
0.038005696 0.1422104 0
0.071788996 0.16801591 0
0 0.13691929 0
0.79386412 0.079998823 0
0.72791138 0.15510601 0
0.75226318 0.14906903 0
0.73068663 0.17894831 0
0.72400572 0.19906377 0
0.74789835 0.23036735 0
0.65923135 0.20644276 0
0.70269428 0.23512916 0
0.74201452 0.25342415 0
0.83519579 0.084848768 0
0.86444616 0.080857369 0
0.88217564 0.065115011 0
0.60079089 0.19625518 0
0.6364005 0.20376353 0
0.78478705 0.28096533 0
0.79416203 0.27279364 0
0.76164884 0.21672568 0
0.025824804 0.16166702 0
0.79729843 0.17278502 0
0.80949054 0.31004405 0
0.8211054 0.30047895 0
0.28124765 0.14505773 0
0.23436844 0.14386955 0
0.32167425 0.15160889 0
0.37602049 0.17031433 0
0.48398964 0.18284294 0
0.53105575 0.20188513 0
0.57410296 0.21140321 0
0.62758262 0.23029185 0
0.45383336 0.18206397 0
0.41270589 0.16731589 0
0.64370211 0.22189837 0
0.12187464 0.170881 0
0.10087807 0.19567067 0
0.83125909 0.10794455 0
0.7928549 0.11630827 0
0.80313913 0.14561397 0
1 0.16078476 0
0.96880078 0.13032555 0
0.89900521 0.085689588 0
0.93126589 0.10491237 0
0.19520712 0.16030587 0
0.15809347 0.16381721 0
0.053047695 0.17888257 0
0.077228302 0.20728593 0
0 0.17092282 0
0.77992333 0.19351026 0
0.79627989 0.22941605 0
0.78406647 0.2436874 0
0.80118734 0.2650965 0
0.70124249 0.25522705 0
0.74176815 0.27254455 0
0.77916976 0.29976022 0
0.87250812 0.10465173 0
0.83157615 0.2864516 0
0.029050259 0.19433572 0
0.84044246 0.17922105 0
0.82000917 0.20386933 0
0.82792731 0.34038343 0
0.84633817 0.33242142 0
0.80676904 0.33001411 0
0.85135705 0.31668797 0
0.85312724 0.30539855 0
0.93970972 0.13079065 0
0.28688203 0.17152034 0
0.33746849 0.17472754 0
0.24123934 0.16848432 0
0.43979863 0.19179624 0
0.40909805 0.19604353 0
0.50976027 0.21169927 0
0.57726837 0.236914 0
0.6195303 0.25058874 0
0.65706646 0.26749052 0
0.68812926 0.28013774 0
0.70974516 0.28266613 0
0.16146095 0.19968815 0
0.13312282 0.20508435 0
0.095446808 0.23507764 0
0.12930509 0.2314661 0
0.89075274 0.13636343 0
0.8521839 0.13671736 0
0.86763693 0.1649359 0
0.98078979 0.18321262 0
0.9685232 0.15643078 0
1 0.19922492 0
0.90751821 0.1182837 0
0.23156576 0.19644102 0
0.19359734 0.19745468 0
0.042193894 0.21856182 0
0.05725673 0.23716947 0
0 0.21249974 0
0.83081793 0.2372708 0
0.82971946 0.26314839 0
0.75966678 0.30703987 0
0.79950689 0.34240431 0
0.86914849 0.30309957 0
0.85653327 0.28234614 0
0.85099232 0.22178701 0
0.87061319 0.19681916 0
0.85112568 0.35899389 0
0.82998755 0.36264251 0
0.87948452 0.35195008 0
0.87701956 0.33501015 0
0.88342431 0.32507011 0
0.93837173 0.15155573 0
0.87176073 0.36928519 0
0.35739251 0.20138946 0
0.29014881 0.20930898 0
0.49396791 0.22310835 0
0.45917753 0.22701595 0
0.5619752 0.24959419 0
0.6181681 0.27777421 0
0.67439388 0.3002878 0
0.66041181 0.30365758 0
0.71880192 0.32446702 0
0.75818273 0.33875356 0
0.7857777 0.34705685 0
0.16739038 0.23689317 0
0.1996253 0.23450466 0
0.099952715 0.26568351 0
0.05642268 0.26104594 0
0.1318036 0.26330161 0
0.16301095 0.26361894 0
0.9267311 0.16463502 0
0.89425891 0.16019874 0
0.89760623 0.1964434 0
0.9549769 0.18032286 0
0.98355295 0.22943699 0
0.96698579 0.21121346 0
1 0.24734292 0
0.24394769 0.23035512 0
0 0.24449681 0
0.86718719 0.26210678 0
0.825719 0.37720841 0
0.88434097 0.30004313 0
0.90105553 0.33048704 0
0.882456 0.23057548 0
0.85719641 0.38607096 0
0.89826457 0.36667689 0
0.9030525 0.34962001 0
0.88214165 0.38550358 0
0.41431083 0.23370317 0
0.34534793 0.2352681 0
0.30186761 0.26166588 0
0.54494331 0.2644533 0
0.48909205 0.26460328 0
0.60857191 0.29225122 0
0.68399825 0.34591557 0
0.72897825 0.35779968 0
0.77615562 0.37230566 0
0.8178347 0.38781532 0
0.19956091 0.27403363 0
0.23921942 0.26306789 0
0.12998507 0.29185529 0
0.088605428 0.29013171 0
0 0.27226295 0
0.042069721 0.28581102 0
0.16589169 0.29321492 0
0.92054941 0.18778341 0
0.94718813 0.21298604 0
0.91087343 0.2501021 0
0.91915208 0.22525218 0
0.96667997 0.25426483 0
0.98137291 0.27994105 0
1 0.28901421 0
0.89646234 0.29456515 0
0.89908516 0.27099749 0
0.85471786 0.40652387 0
0.91498907 0.33175033 0
0.92192848 0.35901571 0
0.8830366 0.41116497 0
0.91681091 0.37421943 0
0.90165233 0.38961361 0
0 0.43413358 0
0.40221203 0.27135267 0
0.24702681 0.29547486 0
0.31724556 0.30253811 0
0.62763244 0.32492747 0
0.56621308 0.30454767 0
0.49560149 0.30002488 0
0.76304898 0.4041248 0
0.74039394 0.40344345 0
0.69411095 0.37716775 0
0.7877988 0.40071801 0
0.82876928 0.41468303 0
0.19053203 0.31145478 0
0.12465745 0.31501381 0
0.066946972 0.30989231 0
0 0.29536376 0
0.93876482 0.24799131 0
0.95237711 0.26375062 0
0.92720045 0.29999665 0
0.93903897 0.29080666 0
0.96459092 0.29712727 0
0.98220997 0.32065594 0
1 0.32477279 0
0.92617415 0.32593329 0
0.86050914 0.43231795 0
0.87909236 0.43142174 0
0.93792639 0.36897352 0
0.93016446 0.39294772 0
0.90512514 0.42158488 0
0.90228484 0.45804793 0
0.9192139 0.41208977 0
0.035018244 0.43481058 0
0 0.40501292 0
0.036172328 0.46376838 0
0 0.46631482 0
0 0.5044656 0
0 0.54785441 0
0.029951806 0.40137791 0
0.40794098 0.30987879 0
0.24187835 0.32674002 0
0.34039587 0.33759705 0
0.64048968 0.35920723 0
0.56648524 0.33933344 0
0.47708725 0.3361232 0
0.7772847 0.43736539 0
0.81163111 0.43109992 0
0.71125812 0.4066513 0
0.84543805 0.44870508 0
0.15461471 0.33250464 0
0.079851508 0.33228631 0
0 0.31573915 0
0.96520099 0.32617318 0
0.95221213 0.34740041 0
1 0.3572612 0
0.86558676 0.46554543 0
0.87913692 0.45923614 0
0.89186352 0.46736885 0
0.94349762 0.40793051 0
0.95700924 0.3807212 0
0.93201849 0.44028808 0
0.91900949 0.47121563 0
0.90232484 0.50429537 0
0.065406219 0.46550085 0
0.061987582 0.43285647 0
[...]
CELL_DATA 1708
Scalars  Label int 1
LOOKUP_TABLE FreeFempp_table
0
0
0
0
0
0
0
0
0
0
0
0
0
0
0
0
0
0
0
0
0
0
0
0
0
0
0
0
0
0
0
0
0
0
0
0
0
0
0
0
0
0
0
0
0
0
0
0
0
0
0
0
0
0
0
0
0
0
0
0
0
0
0
0
0
0
0
0
0
0
0
0
0
0
0
0
0
0
0
0
0
0
0
0
0
0
0
0
0
0
0
0
0
0
0
0
0
0
0
0
0
0
0
0
0
0
0
0
0
0
0
0
0
0
0
0
0
0
0
0
0
0
0
0
0
0
0
0
0
0
0
0
0
0
0
0
0
0
0
0
0
0
0
0
0
0
0
0
0
0
0
0
0
0
0
0
0
0
0
0
0
0
0
0
0
0
0
0
0
0
0
0
0
0
0
0
0
0
0
0
0
0
0
0
0
0
0
0
0
0
0
0
0
0
0
0
0
0
0
0
0
0
0
0
0
0
0
0
0
0
0
0
0
0
0
0
0
0
0
0
0
0
0
0
0
0
0
0
0
0
0
0
0
0
0
0
0
0
0
0
0
0
0
0
0
0
0
0
0
0
0
0
0
0
0
0
0
0
0
0
0
0
0
0
0
0
0
0
0
0
0
0
0
0
0
0
0
0
0
0
0
0
0
0
0
0
0
0
0
0
0
0
0
0
0
0
0
0
0
0
0
0
0
0
0
0
0
0
0
0
0
0
0
0
0
0
0
0
0
0
0
0
0
0
0
0
0
0
0
0
0
0
0
0
0
0
0
0
0
0
0
0
0
0
0
0
0
0
0
0
0
0
0
0
0
0
0
0
0
0
0
0
0
0
0
0
0
0
0
0
0
0
0
0
0
0
0
0
0
0
0
0
0
0
0
0
0
0
0
0
0
0
0
0
0
0
0
0
0
0
0
0
0
0
0
0
0
0
0
0
0
0
0
0
0
0
0
0
0
0
0
0
0
0
0
0
0
0
0
0
0
0
0
0
0
0
0
0
0
0
0
0
0
0
0
0
0
0
0
0
0
0
0
0
0
0
0
0
0
0
0
0
0
0
0
0
0
0
0
0
0
0
0
0
0
0
0
0
0
0
0
0
0
0
0
0
0
0
0
0
0
0
0
0
0
0
0
0
0
0
0
0
0
0
0
0
0
0
0
0
0
0
0
0
0
0
0
0
0
0
0
0
0
0
0
0
0
0
0
0
0
0
0
0
0
0
0
0
0
0
0
0
0
0
0
0
0
0
0
0
0
0
0
0
0
0
0
0
0
0
0
0
0
0
0
0
0
0
0
0
0
0
0
0
0
0
0
0
0
0
0
0
0
0
0
0
0
0
0
0
0
0
0
0
0
0
0
0
0
0
0
0
0
0
0
0
0
0
0
0
0
0
0
0
0
0
0
0
0
0
0
0
0
0
0
0
0
0
0
0
0
0
0
0
0
0
0
0
0
0
0
0
0
0
0
0
0
0
0
0
0
0
0
0
0
0
0
0
0
0
0
0
0
0
0
0
0
0
0
0
0
0
0
0
0
0
0
0
0
0
0
0
0
0
0
0
0
0
0
0
0
0
0
0
0
0
0
0
0
0
0
0
0
0
0
0
0
0
0
0
0
0
0
0
0
0
0
0
0
0
0
0
0
0
0
0
0
0
0
0
0
0
0
0
0
0
0
0
0
0
0
0
0
0
0
0
0
0
0
0
0
0
0
0
0
0
0
0
0
0
0
0
0
0
0
0
0
0
0
0
0
0
0
0
0
0
0
0
0
0
0
0
0
0
0
0
0
0
0
0
0
0
0
0
0
0
0
0
0
0
0
0
0
0
0
0
0
0
0
0
0
0
0
0
0
0
0
0
0
0
0
0
0
0
0
0
0
0
0
0
0
0
0
0
0
0
0
0
0
0
0
0
0
0
0
0
0
0
0
0
0
0
0
0
0
0
0
0
0
0
0
0
0
0
0
0
0
0
0
0
0
0
0
0
0
0
0
0
0
0
0
0
0
0
0
0
0
0
0
0
0
0
0
0
0
0
0
0
0
0
0
0
0
0
0
0
0
0
0
0
0
0
0
0
0
0
0
0
0
0
0
0
0
0
0
0
0
0
0
0
0
0
0
0
0
0
0
0
0
0
0
0
0
0
0
0
0
0
0
0
0
0
0
0
0
0
0
0
0
0
0
0
0
0
0
0
0
0
0
0
0
0
0
0
0
0
0
0
0
0
0
0
0
0
0
0
0
0
0
0
0
0
0
0
0
0
0
0
0
0
0
0
0
0
0
0
0
0
0
0
0
0
0
0
0
0
0
0
0
0
0
0
0
0
0
0
0
0
0
0
0
0
0
0
0
0
0
0
0
0
0
0
0
0
0
0
0
0
0
0
0
0
0
0
0
0
0
0
0
0
0
0
0
0
0
0
0
0
0
0
0
0
0
0
0
0
0
0
0
0
0
0
0
0
0
0
0
0
0
0
0
0
0
0
0
0
0
0
0
0
0
0
0
0
0
0
0
0
0
0
0
0
0
0
0
0
0
0
0
0
0
0
0
0
0
0
0
0
0
0
0
0
0
0
0
0
0
0
0
0
0
0
0
0
0
0
0
0
0
0
0
0
0
0
0
0
0
0
0
0
0
0
0
0
0
0
0
0
0
0
0
0
0
0
0
0
0
0
0
0
0
0
0
0
0
0
0
0
0
0
0
0
0
0
0
0
0
0
0
0
0
0
0
0
0
0
0
0
0
0
0
0
0
0
0
0
0
0
0
0
0
0
0
0
0
0
0
0
0
0
0
0
0
0
0
0
0
0
0
0
0
0
0
0
0
0
0
0
0
0
0
0
0
0
0
0
0
0
0
0
0
0
0
0
0
0
0
0
0
0
0
0
0
0
0
0
0
0
0
0
0
0
0
0
0
0
0
0
0
0
0
0
0
0
0
0
0
0
0
0
0
0
0
0
0
0
0
0
0
0
0
0
0
0
0
0
0
0
0
0
0
0
0
0
0
0
0
0
0
0
0
0
0
0
0
0
0
0
0
0
0
0
0
0
0
0
0
0
0
0
0
0
0
0
0
0
0
0
0
0
0
0
0
0
0
0
0
0
0
0
0
0
0
0
0
0
0
0
0
0
0
0
0
0
0
0
0
0
0
0
0
0
0
0
0
0
0
0
0
0
0
0
0
0
0
0
0
0
0
0
0
0
0
0
0
0
0
0
0
0
0
0
0
0
0
0
0
0
0
0
0
0
0
0
0
0
0
0
0
0
0
0
0
0
0
0
0
0
0
0
0
0
0
0
0
0
0
0
0
0
0
0
0
0
0
0
0
0
0
0
0
0
0
0
0
0
0
0
0
0
0
0
0
0
0
0
0
0
0
0
0
0
0
0
0
0
0
0
0
0
0
0
0
0
0
0
0
0
0
0
0
0
0
0
0
0
0
0
0
0
0
0
0
0
0
0
0
0
0
0
0
0
0
0
0
0
0
0
0
0
0
0
0
0
0
0
0
0
0
0
0
0
0
0
0
0
0
0
0
0
0
0
0
0
0
0
0
0
0
0
0
0
0
0
0
0
0
0
0
0
0
0
0
0
0
0
0
0
0
0
0
0
0
0
0
0
0
0
0
0
0
0
0
0
0
1
1
1
1
1
1
1
1
1
1
1
1
1
1
1
1
1
1
1
1
1
1
1
2
2
2
2
2
2
2
2
2
2
2
2
2
2
2
2
2
2
2
2
2
2
2
2
2
2
2
2
2
2
2
2
3
3
3
3
3
3
3
3
3
3
3
3
3
3
3
3
3
3
3
3
3
3
4
4
4
4
4
4
4
4
4
4
4
4
4
4
4
4
4
4
4
4
4
4
4
4
4
4

LOOKUP_TABLE FreeFempp_table 5
1.00000000 0.00000000 0.00000000 1.00000000
1.00000000 1.00000000 0.00000000 1.00000000
1.00000000 0.00000000 1.00000000 1.00000000
0.00000000 1.00000000 0.00000000 1.00000000
0.00000000 1.00000000 1.00000000 1.00000000

POINT_DATA 855
FIELD FieldData 1
Density 1 855 float
2.83373654e-01 2.12684155e-01 3.34500790e-01 3.00201505e-01 1.94837481e-01 1.35782063e-01 2.02953845e-01 2.69099027e-01 5.70906460e-01 4.72354710e-01 4.21024352e-01 3.88853580e-01 3.65600646e-01 2.37734973e-01 2.56421477e-01 2.42961168e-01 1.76531717e-01 1.36599809e-01 1.22713491e-01 2.62264848e-01 3.31244230e-01 1.43576995e-01 1.10024914e-01 1.27087533e-01 1.91691533e-01 2.22223982e-01 6.43079519e-01 6.07467473e-01 5.19515872e-01 4.32399094e-01 3.88863802e-01 3.59600991e-01 2.09343642e-01 1.85818821e-01 1.31778046e-01 5.52405000e-01 1.14962280e-01 1.54288352e-01 5.08699082e-02 1.83759212e-01 7.27170035e-02 8.20299909e-02 2.83330560e-01 3.23584914e-01 3.69241416e-01 6.65912703e-02 7.35084638e-02 9.52512547e-02 1.17925949e-01 6.57523930e-01 6.43518209e-01 5.55802703e-01 4.87725765e-01 5.02384782e-01 4.06801462e-01 1.07004568e-01 5.67826509e-01 5.52325666e-01 5.81968844e-01 6.93259686e-02 5.75351529e-02 6.91961423e-02 6.08746111e-01 6.24133170e-01 4.48058784e-01 3.43673490e-02 3.53347585e-02 8.36866125e-02 1.61384255e-01 4.35520858e-02 2.78016925e-01 3.68632853e-01 4.19199951e-02 4.65579703e-02 4.34968024e-02 5.99581599e-01 5.09938419e-01 4.27178741e-01 4.30355430e-01 4.42321241e-01 5.39764047e-01 5.67336738e-01 5.97226202e-01 4.52375077e-02 4.61593755e-02 6.86836764e-02 1.07428201e-01 5.71882963e-01 6.09804451e-01 5.80371082e-01 3.23506683e-01 3.05394232e-01 3.13108742e-01 1.44495651e-01 3.91306967e-01 4.94396091e-01 4.38093245e-02 5.70904836e-02 5.73214628e-02 5.32948077e-02 6.29472658e-02 2.01292261e-01 3.59030902e-01 4.00655046e-02 4.92888130e-02 4.23053265e-01 2.68231988e-01 3.85091394e-01 5.08263171e-01 5.38466334e-01 5.70486784e-01 5.92743643e-02 8.68174955e-02 1.02708675e-01 1.20346315e-01 2.14820579e-01 5.12533009e-01 5.77855289e-01 5.31744003e-01 1.33504212e-01 2.42182791e-01 2.27477774e-01 1.03902690e-01 4.26480740e-01 3.40144128e-01 3.98735970e-01 3.42139006e-01 4.23430026e-01 4.28505152e-01 4.37304586e-01 7.65996352e-02 9.68080908e-02 1.39149278e-01 5.69942109e-02 7.27343038e-02 6.36932403e-02 1.09206960e-01 1.26010984e-01 1.05943538e-01 2.25925505e-01 1.05041221e-01 1.92673579e-01 1.01756349e-01 2.68004030e-01 4.61576074e-01 5.14691770e-01 4.58298236e-01 5.27745962e-01 1.37840763e-01 2.01675966e-01 1.81802168e-01 2.06447348e-01 1.79267049e-01 3.35500419e-01 3.28566581e-01 7.42545947e-02 1.57220155e-01 4.74382728e-01 3.34387094e-01 1.90875962e-01 3.01495552e-01 4.95768189e-01 3.87568712e-01 2.23737717e-01 2.97598302e-01 4.53490585e-01 4.89020169e-01 4.95001115e-02 1.60814956e-01 5.56912899e-01 2.13817015e-01 2.52077997e-01 2.68004954e-01 1.29549533e-01 1.00283235e-01 1.87898278e-01 8.22370723e-02 2.30588824e-01 1.69851288e-01 1.85187235e-01 7.41177723e-02 5.01409546e-02 4.04598624e-01 4.38667923e-01 3.81336302e-01 3.72481674e-01 2.86403567e-01 3.25797379e-01 2.77277231e-01 2.96868384e-01 1.95616394e-01 3.95318121e-01 1.11261345e-01 1.24620773e-01 7.68871456e-02 2.55998164e-01 4.44844991e-01 5.45354486e-01 2.07998335e-01 2.52476692e-01 4.47899282e-01 1.01832435e-01 1.53563440e-01 3.18672448e-01 8.44050422e-02 1.16578773e-01 5.54369092e-01 6.09875679e-01 4.20953512e-01 3.58884692e-01 1.22465536e-01 4.84444529e-01 5.83940327e-01 3.60960156e-01 3.60375017e-01 3.45461398e-01 3.49721998e-01 2.36394808e-01 2.89735556e-01 2.11178064e-01 1.31552368e-01 3.08309227e-01 3.13234568e-01 8.87302756e-02 2.50672638e-01 1.97490335e-01 3.63974273e-02 3.57615687e-02 5.55709228e-02 3.30638200e-01 3.02944362e-01 2.14340955e-01 2.39731371e-01 3.82909030e-01 3.55885357e-01 2.62847930e-01 2.31352672e-01 3.99059474e-01 2.17427760e-01 3.88492674e-01 5.27108192e-01 5.92391968e-01 1.15257278e-01 2.49891311e-01 3.31031352e-01 6.00292385e-02 5.82929194e-01 3.42102349e-01 1.25213176e-01 2.26901546e-01 2.89974660e-01 4.08003867e-01 2.60891408e-01 5.16472459e-01 5.48385501e-01 1.50991261e-01 4.03246194e-01 3.90985250e-01 4.00538027e-01 3.74643385e-01 4.05509174e-01 3.77182186e-01 3.63804251e-01 2.96719998e-01 1.89257964e-01 1.01146325e-01 6.73927516e-02 3.52705002e-01 2.79108584e-01 2.79136300e-01 3.00024748e-01 3.06038298e-02 3.31774540e-02 6.25855252e-02 2.07467839e-01 1.97009429e-01 2.72799790e-01 8.11059698e-02 4.10417259e-01 3.94929409e-01 3.32605213e-01 3.40655833e-01 3.99390280e-01 3.54096651e-01 4.94405270e-01 1.25378266e-01 1.25855669e-01 5.21606624e-01 4.96067762e-01 2.57116705e-01 1.50848851e-01 1.84017628e-01 1.14199415e-01 3.03589344e-01 4.30958986e-01 4.82781976e-01 7.64073208e-02 1.53834105e-01 4.17539150e-01 4.26069170e-01 4.16209757e-01 4.34815973e-01 4.27851260e-01 4.18253541e-01 3.00148070e-01 3.90300095e-01 1.77839205e-01 8.29841495e-02 7.33295307e-02 3.87610316e-01 4.22820956e-01 4.08244461e-01 4.25977737e-01 4.06857282e-01 4.37668651e-01 3.03421896e-02 3.34126540e-02 8.64044279e-02 8.03646818e-02 2.00431615e-01 1.01451568e-01 2.65728116e-01 4.35189307e-01 4.45268124e-01 3.65539283e-01 7.20311850e-02 4.50109810e-01 4.57099587e-01 2.10960954e-01 6.84955269e-02 2.79831499e-01 4.02256340e-01 1.36703715e-01 4.45000976e-01 4.48399603e-01 4.76668030e-01 4.54976350e-01 4.63214964e-01 4.58678395e-01 4.66999441e-01 3.49494785e-01 1.57023534e-01 8.70944634e-02 4.86005783e-01 4.75192815e-01 5.19158304e-01 5.24015129e-01 5.14599025e-01 5.35275102e-01 5.26410937e-01 3.32491845e-02 4.49768677e-02 1.36137411e-01 7.23058507e-02 9.83649194e-02 1.64012015e-01 2.15932339e-01 3.53451610e-01 2.46912166e-01 6.80327341e-02 3.64618272e-01 4.06164199e-01 1.20174080e-01 3.84556621e-01 2.50085920e-01 2.98678428e-01 4.78847980e-01 5.27255118e-01 5.24022818e-01 4.84404653e-01 4.82127756e-01 4.90035862e-01 4.55295086e-01 5.12015343e-01 5.11531770e-01 2.95480639e-01 1.85831338e-01 5.65616131e-01 5.92030346e-01 6.00978255e-01 5.73799431e-01 4.91703674e-02 5.78308292e-02 1.40676752e-01 7.22182989e-02 6.82776868e-02 7.42582902e-02 1.03732072e-01 2.36063004e-01 1.39856935e-01 1.33804291e-01 3.44060779e-01 4.68762904e-01 2.80934542e-01 2.83224910e-01 4.26650286e-01 2.66610235e-01 3.90612960e-01 1.88077703e-01 2.19302759e-01 1.45674750e-01 8.35097581e-02 3.95653605e-01 5.14053881e-01 5.72745860e-01 5.52326620e-01 5.09525716e-01 5.07414877e-01 5.20774662e-01 5.22837043e-01 3.97170722e-01 5.29143989e-01 2.86949188e-01 6.14413321e-01 6.36506498e-01 6.04978740e-01 4.69568260e-02 1.26877651e-01 2.90131345e-02 2.28501335e-01 1.91196173e-01 2.30953649e-01 4.41532761e-01 2.11433515e-01 5.38370728e-01 4.64918107e-01 3.59103501e-01 1.84319958e-01 2.73687720e-01 5.00605822e-01 1.32222325e-01 8.93354043e-02 4.45638821e-02 4.22029942e-01 6.05636001e-01 5.12390509e-02 2.94081643e-02 5.71227968e-01 4.67628866e-01 5.92928052e-01 5.44372797e-01 5.65889120e-01 5.21870196e-01 5.27160704e-01 4.90141243e-01 5.26867509e-01 4.93738264e-01 4.55579609e-01 5.27357101e-01 3.27378243e-01 6.22971177e-01 6.20325506e-01 2.71654185e-02 7.21031353e-02 2.61461884e-01 4.40012962e-01 2.19125584e-01 5.60704410e-01 5.40849090e-01 3.53666902e-01 2.28083447e-01 2.94340640e-01 1.39703885e-01 5.48354208e-01 5.84268533e-02 9.92706791e-02 2.59531718e-02 4.41872507e-01 4.61724810e-02 8.81297886e-02 2.30559241e-02 6.16892338e-01 5.81588268e-01 4.66096848e-01 2.32818965e-02 6.30726814e-01 6.26273990e-01 4.33943361e-01 8.96827728e-02 5.97318411e-01 5.39311528e-01 5.49364865e-01 5.67576647e-01 5.29456973e-01 4.20356393e-01 4.18497533e-01 5.10281980e-01 4.68432695e-01 5.18721581e-01 5.29012501e-01 3.38299096e-01 3.62308532e-01 6.12271070e-01 6.11380160e-01 5.71316004e-01 3.33211161e-02 7.94726312e-02 2.16631591e-01 5.64466357e-01 4.45004880e-01 2.21314818e-01 3.45427424e-01 3.75606447e-01 1.55241579e-01 5.62960617e-02 3.67798358e-02 4.97861207e-01 9.26665664e-02 5.27810007e-02 1.42491430e-01 6.31010652e-01 6.60526395e-01 5.59950054e-01 5.12740433e-01 6.28157258e-01 5.78555346e-01 4.18798476e-01 2.31282473e-01 1.13343880e-01 1.73950940e-01 2.41111487e-01 5.72285056e-01 5.29993355e-01 5.39620936e-01 4.35571939e-01 5.03512323e-01 4.91464138e-01 5.15687227e-01 3.92545015e-01 4.63779896e-01 5.78595877e-01 5.56650817e-01 3.37085575e-02 9.14172679e-02 4.54614908e-01 5.52042067e-01 3.50565940e-01 2.56681442e-01 4.70009446e-01 4.44021493e-01 1.24774672e-01 8.76711234e-02 1.64221093e-01 1.31945550e-01 6.28552020e-01 6.62960887e-01 6.60433531e-01 3.32715899e-01 5.15314519e-01 3.71428281e-01 3.76214415e-01 5.92970550e-01 3.25198591e-01 2.07041726e-01 1.12859212e-01 2.01927006e-01 2.12215886e-01 2.76387334e-01 2.63808548e-01 3.52606475e-01 6.25703275e-01 4.84322339e-01 5.49354017e-01 5.33253908e-01 5.16151667e-01 5.05910397e-01 5.09034157e-01 4.92266119e-01 5.04955590e-01 5.08561492e-01 4.98334557e-01 5.30238569e-01 5.22522986e-01 5.88931590e-02 2.45141890e-02 1.70413762e-01 5.70882916e-01 4.03295964e-01 4.32725757e-01 3.42372209e-01 4.77545768e-01 2.32344270e-01 2.34158382e-01 2.47872829e-01 6.32329464e-01 6.57989264e-01 6.52258873e-01 1.76968515e-01 1.79809034e-01 2.77299732e-01 3.11741441e-01 1.16542876e-01 5.59049070e-01 3.05923223e-01 3.10611486e-01 3.42364013e-01 3.51695031e-01 4.15971458e-01 6.27061307e-01 4.34551716e-01 5.40141523e-01 5.20053625e-01 5.13492525e-01 5.01086473e-01 5.10021031e-01 4.89091188e-01 4.75396693e-01 4.86130446e-01 4.99495953e-01 5.06150246e-01 4.73569989e-01 5.09285033e-01 5.39718680e-02 1.65674035e-02 2.47296989e-02 5.52440643e-01 4.55816120e-01 4.42132413e-01 4.26242560e-01 3.89082402e-01 4.86756682e-01 3.66687596e-01 3.53687912e-01 6.40369296e-01 6.05414808e-01 6.48897707e-01 1.21798135e-01 7.72605911e-02 2.22722858e-01 4.05681789e-01 3.79206032e-01 3.88445288e-01 4.02200133e-01 4.54784691e-01 6.10719681e-01 5.52302241e-01 3.91923159e-01 5.09638846e-01 4.94561136e-01 4.99174982e-01 4.90461051e-01 4.70808864e-01 4.53892827e-01 4.50097769e-01 4.73440796e-01 4.83832181e-01 4.82750058e-01 4.54037964e-01 4.90034074e-01 4.58533913e-01 2.91733295e-02 3.01697236e-02 5.43781400e-01 4.83830363e-01 4.69065428e-01 4.62861538e-01 4.43581045e-01 4.25877213e-01 4.28544581e-01 4.26424176e-01 5.98833442e-01 5.83615959e-01 5.38783856e-02 9.59327593e-02 1.34837046e-01 2.31824547e-01 4.36757296e-01 4.75566804e-01 5.16334713e-01 3.85388255e-01 2.21841633e-01 3.25869709e-01 3.67600173e-01 4.94973421e-01 4.98535931e-01 5.05511522e-01 4.93631035e-01 4.57239896e-01 4.39459205e-01 4.79827881e-01 5.25779963e-01 4.58118379e-01 3.63359414e-02 5.99996932e-02 4.36963364e-02 5.01405895e-01 4.89331394e-01 4.60833222e-01 4.85327154e-01 4.49621201e-01 4.55354959e-01 5.78161597e-01 5.56655884e-01 7.93633908e-02 1.19821340e-01 4.57646996e-01 4.68678355e-01 1.89658359e-01 1.94659397e-01 5.20917058e-01 2.83409804e-01 1.02795549e-01 4.15502638e-01 1.56988651e-01 5.17017543e-01 5.16351044e-01 4.93074387e-01 4.64966804e-01 5.07009029e-01 6.00506902e-01 5.07911146e-01 6.04189076e-02 7.05241486e-02 5.10334074e-01 4.70752269e-01 4.59099442e-01 4.97462332e-01 4.58503425e-01 6.07077479e-01 8.34182650e-02 4.51732516e-01 4.55681682e-01 1.39794156e-01 2.16291785e-01 5.69153845e-01 3.65660489e-01 1.35148048e-01 2.34035403e-01 8.52428228e-02 4.87046093e-01 5.27927995e-01 5.25810480e-01 5.13026834e-01 5.35802603e-01 5.76371491e-01 6.51548386e-01 6.63280070e-01 5.49968362e-01 1.34379327e-01 5.15581429e-01 4.62240249e-01 4.53549892e-01 1.13028206e-01 4.43922013e-01 4.53360945e-01 2.51944184e-01 1.92844883e-01 3.43555957e-01 6.02821887e-01 4.82649982e-01 3.27941209e-01 2.41661772e-01 1.41447827e-01 4.75788146e-01 5.04897952e-01 2.83905655e-01 5.34126401e-01 5.24275184e-01 5.49501777e-01 5.72197020e-01 6.21061206e-01 6.96470857e-01 6.77112162e-01 2.86638588e-01 4.53287125e-01 4.44939017e-01 2.37681121e-01 4.52896088e-01 4.76303488e-01 3.81323129e-01 5.82230747e-01 6.41561449e-01 4.46508348e-01 4.39011753e-01 3.01843047e-01 4.79112715e-01 5.03751814e-01 4.86861259e-01 4.63211864e-01 4.21591222e-01 5.54522216e-01 5.17339468e-01 5.42647719e-01 5.98524988e-01 6.69269562e-01 6.85807407e-01 6.42482042e-01 5.59429586e-01 4.65512067e-01 4.52950418e-01 5.52994311e-01 6.17259204e-01 6.24070942e-01 5.46439946e-01 5.74052632e-01 6.36068821e-01 5.94234347e-01 4.90674824e-01 4.77286428e-01 5.31712592e-01 5.03099859e-01 5.75121582e-01 6.62109077e-01 6.67379081e-01 6.31940722e-01 6.32475257e-01 6.94286048e-01 4.82802510e-01 6.85472667e-01 6.86927021e-01 6.66907966e-01 6.80586576e-01 6.53745055e-01 4.96374309e-01 5.11121869e-01 5.59861660e-01 4.96678472e-01 6.48086846e-01 6.88479722e-01 5.77214181e-01 6.02980971e-01 5.48448324e-01 7.40593970e-01 7.20436037e-01 6.93510830e-01 4.96185482e-01 7.06447899e-01 5.20993054e-01 4.83596861e-01 6.14156127e-01 5.12866616e-01 4.63374019e-01 7.22755909e-01 6.84816778e-01 4.72428292e-01 6.80926621e-01 4.28110361e-01 5.29198229e-01 5.92368662e-01 4.56199378e-01 4.28600460e-01 6.53332472e-01 6.37430489e-01 4.26972657e-01 5.35651445e-01 4.91427273e-01 5.75343192e-01 4.54933494e-01 4.58373785e-01 4.88620996e-01 5.30002236e-01 4.78791565e-01 4.88451332e-01 5.01385391e-01 4.90288258e-01 
