# vtk DataFile Version 2.0
results_case1/1616747839/sol_toll1e-05_vf0.3_iter4.vtk, Created by Freefem++ 
ASCII
DATASET UNSTRUCTURED_GRID
POINTS 474 float
1 0 0
0.83424979 0.010934961 0
0.71125808 0 0
1 0.018362015 0
0.68467139 0.014998769 0
0.49402977 0 0
1 0.031085507 0
0.57087632 0.021947289 0
0.79513227 0.027322692 0
0.33093904 0 0
0.41161567 0.016892896 0
1 0.043604727 0
0.5170534 0.036940985 0
0.72678264 0.038644934 0
0.20570022 0 0
0.27217102 0.016916188 0
0.35636657 0.034933618 0
0 0.21957501 0
0.77232066 0.051703065 0
1 0.059460736 0
0.42161393 0.053188096 0
0.56232078 0.057878112 0
0.23535394 0.038319295 0
0 0.031085507 0
0 0 0
0 0.018362015 0
0.12802219 0 0
0.17259234 0.020329627 0
0.022482396 0 0
0.081700514 0 0
0.048493813 0 0
0.3002275 0.058905872 0
0 0.080007792 0
0 0.059460736 0
0 0.043604727 0
0 0.1018345 0
0 0.17945618 0
0 0.12368657 0
0 0.14782495 0
0 0.26733887 0
0 0.31706325 0
0.01095966 0.2439203 0
0 0.36210757 0
0.72258218 0.067806775 0
1 0.080007792 0
0.78981997 0.087811131 0
0.55360707 0.083233863 0
0.39285793 0.075459104 0
0.14943519 0.043401528 0
0.19783764 0.063760445 0
0.020450858 0.032864928 0
0.10573584 0.034959414 0
0.041165904 0.039669514 0
0.067248056 0.045142869 0
0.25541002 0.084137167 0
0 0.39312133 0
0 0.41144211 0
0.014792146 0.11814864 0
0.017611904 0.072169548 0
0.015595143 0.18402402 0
0.012956502 0.32702083 0
0.020757665 0.27940161 0
0.016602147 0.38326283 0
1 0.1018345 0
0.79378767 0.11751822 0
0.63196186 0.10941127 0
0.49134778 0.1139214 0
0.39849619 0.09980859 0
0.29093208 0.1015545 0
0.12678385 0.07011774 0
0.16982181 0.095961575 0
0.031463386 0.08083247 0
0.086458154 0.079065656 0
0.060827784 0.099494121 0
0.046441336 0.090521908 0
0.20642212 0.12071355 0
0 0.43566266 0
0 0.44401684 0
0 0.42899481 0
0.015370329 0.41663803 0
0 0.42186311 0
0 0.45592857 0
0 0.46728241 0
0.026785438 0.15126415 0
0.027156433 0.2535548 0
0.025843463 0.35333479 0
0.026244991 0.41398782 0
0 0.48106491 0
1 0.12368657 0
0.31269253 0.12656522 0
0.83912298 0.14547618 0
0.7319102 0.14836325 0
0.63649865 0.14127352 0
0.51515104 0.14606318 0
0.38610184 0.14453208 0
0.23075799 0.14850709 0
0.1129677 0.11426482 0
0.14660774 0.14229318 0
0.03758331 0.15235347 0
0.076665703 0.13919618 0
0.051950822 0.1679978 0
0.16761422 0.17463299 0
0 0.50229911 0
0 0.52297125 0
0 0.53656888 0
0 0.549135 0
0.017224657 0.45711793 0
0.020084754 0.44108207 0
0.016833936 0.47149937 0
0.034242052 0.25443671 0
0.032735951 0.34248297 0
0.033097148 0.40258814 0
0.031400829 0.44417603 0
0.019093917 0.48910504 0
0.40660844 0.1748756 0
1 0.14782495 0
0.87128466 0.17196033 0
0.27892583 0.17635199 0
0.7908222 0.18923114 0
0.68429413 0.17749703 0
0.57911199 0.18036507 0
0.46991041 0.18938693 0
0.32286985 0.20745039 0
0.19824267 0.21163385 0
0 0.58484462 0
0 0.56286947 0
0 0.57412597 0
0 0.60086219 0
0.10309255 0.17568851 0
0.12665223 0.20485049 0
0.042360501 0.2656482 0
0.072796267 0.21471613 0
0.055024863 0.26384086 0
0.15004654 0.24481177 0
0.019039351 0.51710574 0
0.018031387 0.54045461 0
0.016780948 0.55872792 0
0.02961333 0.47058704 0
0.038896702 0.46229739 0
0.040058595 0.3705101 0
0.038412648 0.42983278 0
0.030982399 0.5063857 0
0.3822633 0.22227029 0
0.51554432 0.20975502 0
1 0.17945618 0
0.88614684 0.21041261 0
0.23830372 0.24448407 0
0.27691382 0.26503562 0
0.65420637 0.21591492 0
0.84043526 0.25220597 0
0.74935491 0.22578108 0
0.58554874 0.23868737 0
0.44702447 0.24665477 0
0.32735067 0.28009459 0
0.18083185 0.30712203 0
0.016710326 0.59347128 0
0.018133729 0.57609601 0
0 0.62859059 0
0 0.67209167 0
0 0.7193939 0
0 0.77277196 0
0.017234818 0.6227178 0
0.092905412 0.26041453 0
0.11208872 0.28518717 0
0.051783366 0.3650107 0
0.071061803 0.32686303 0
0.13020247 0.34353361 0
0.032446865 0.54597779 0
0.029698457 0.56928396 0
0.04160274 0.48791145 0
0.048373891 0.44089281 0
0.041437813 0.53318844 0
0.38032762 0.26791038 0
0.50831914 0.25086464 0
1 0.21957501 0
0.91238454 0.25658391 0
0.28040126 0.32539896 0
0.23045837 0.33316651 0
0.4411788 0.29897527 0
0.38302564 0.32164515 0
0.66539744 0.26789876 0
0.73512999 0.27477626 0
0.90483889 0.31020411 0
0.81903563 0.29518678 0
0.6518059 0.31210428 0
0.5769356 0.29238759 0
0.51855382 0.30884235 0
0.33287387 0.360379 0
0.19790312 0.41244859 0
0.15706652 0.42274022 0
0.028421519 0.59559286 0
0.012205643 0.67358615 0
0 0.82553302 0
0.010398584 0.74780072 0
0 0.86504595 0
0.022922573 0.67213905 0
0.028948326 0.63611181 0
0.092900633 0.38579133 0
0.067900185 0.43958002 0
0.11752158 0.46435241 0
0.038883999 0.57796906 0
0.054960069 0.51067449 0
0.05036396 0.56682979 0
1 0.26733887 0
0.27741438 0.38952385 0
0.23705887 0.41735802 0
0.40955674 0.37003515 0
1 0.31706325 0
0.4890079 0.35640859 0
0.93341794 0.363732 0
0.79211827 0.33351862 0
0.72763006 0.33074834 0
0.85491224 0.35828083 0
0.70418069 0.37474135 0
0.62501599 0.35560805 0
0.57996949 0.37330728 0
0.33675204 0.4306747 0
0.41545645 0.41742772 0
0.23984035 0.49954903 0
0.19785201 0.51709051 0
0.15567182 0.5459123 0
0.036326871 0.61311884 0
0.020185493 0.74966605 0
0 0.89421986 0
0.01284356 0.83332172 0
0.02854943 0.72234856 0
0.033901374 0.66608148 0
0 0.91957987 0
0.072912227 0.53546101 0
0.092753268 0.53143043 0
0.12241532 0.58761094 0
0.046207635 0.61116399 0
0.063813431 0.60352998 0
0.28232968 0.4660589 0
0.50255636 0.4073375 0
1 0.36210757 0
1 0.39312133 0
0.59460517 0.4189031 0
0.3558589 0.49075744 0
0.30183931 0.54058421 0
0.88934748 0.395151 0
0.93613755 0.40427295 0
0.78581169 0.38317844 0
0.84339957 0.40442855 0
0.75457422 0.41776123 0
0.67550223 0.41615677 0
0.44770322 0.46697019 0
0.54247239 0.45083424 0
0.25213589 0.58362078 0
0.20690488 0.61388353 0
0.16511379 0.66835256 0
0.040196331 0.66159579 0
0.024569886 0.83179513 0
0.014765372 0.90444955 0
0.033527438 0.76353629 0
0 0.98229429 0
0 0.95743521 0
0 0.94098409 0
0 0.96940759 0
0.089566569 0.64519943 0
0.12029271 0.67846875 0
0.053175082 0.66661201 0
0.076494707 0.70169041 0
0.22054205 0.68941689 0
1 0.41144211 0
0.65985214 0.46059319 0
0.39960205 0.53008062 0
0.48540664 0.50509576 0
0.38940722 0.56632741 0
0.31321757 0.61533248 0
0.93236545 0.42428158 0
0.88001192 0.4245295 0
0.81814322 0.43144683 0
0.75781949 0.45391267 0
0.58615142 0.49267426 0
0.27301896 0.66758795 0
0.21555141 0.75736169 0
0.16201463 0.76213848 0
0.043091683 0.73063653 0
0.036995821 0.82652768 0
0.019701228 0.9510795 0
0.030168398 0.89882535 0
0.012492867 0.99535543 0
0 1 0
0.01444203 0.98347197 0
0.014500358 0.97006394 0
0.11612735 0.75755033 0
0.058561497 0.75286084 0
0.085168262 0.78754055 0
0.27477948 0.74364489 0
1 0.42186311 0
0.68586538 0.49853462 0
0.74379892 0.4841233 0
0.39986147 0.60399405 0
0.53600962 0.53607104 0
0.50644726 0.56964144 0
0.38384171 0.64505028 0
0.34374526 0.68255224 0
0.94474985 0.43474935 0
0.89997138 0.43932352 0
0.85939787 0.44688074 0
0.82543252 0.46461206 0
0.80016216 0.49065415 0
0.65783628 0.53127386 0
0.33013121 0.7335908 0
0.29448026 0.81396342 0
0.2267464 0.82351804 0
0.16863271 0.82657207 0
0.047363115 0.81994444 0
0.043081761 0.89333473 0
0.032225249 0.97283869 0
0.041329206 0.94645605 0
0.022482396 1 0
0.12035676 0.82958813 0
0.08958327 0.85642195 0
0.0640558 0.83867798 0
0.34289088 0.79385844 0
1 0.42899481 0
0.75490106 0.51910744 0
0.49247557 0.61452692 0
0.60535083 0.57208792 0
1 0.43566266 0
0.95602879 0.44196846 0
0.44474857 0.67603925 0
0.40087976 0.7313052 0
0.88155254 0.4556569 0
0.90475245 0.45578248 0
0.92643363 0.44703668 0
0.86262154 0.47545224 0
0.841972 0.49730777 0
0.82241973 0.5213871 0
0.7194592 0.5605932 0
0.39906854 0.78879602 0
0.32962445 0.86473339 0
0.40586036 0.84722946 0
0.15126753 0.8670812 0
0.24317101 0.86749526 0
0.20338603 0.87795731 0
0.057084417 0.89656796 0
0.057858515 0.9530265 0
0.048493813 1 0
0.11921013 0.89290831 0
0.07805251 0.90201821 0
0.33412508 0.89851673 0
0.79012017 0.54317097 0
0.56037588 0.62642147 0
0.66183716 0.59616007 0
1 0.44401684 0
0.96306119 0.45152513 0
0.53161309 0.67638184 0
0.48126621 0.72722978 0
0.46189596 0.77897926 0
0.84338864 0.55174453 0
0.88973796 0.47742 0
0.91345107 0.47531541 0
0.9329983 0.46296928 0
0.96038647 0.46139053 0
0.869319 0.50925085 0
0.8851935 0.50140055 0
0.86619556 0.53359825 0
0.79439609 0.57462371 0
0.72767516 0.60846886 0
0.51670285 0.87773596 0
0.47900461 0.83332087 0
0.45171976 0.89698684 0
0.18781199 0.9073643 0
0.27694453 0.90969807 0
0.078497544 0.94834554 0
0.081700514 1 0
0.18901561 0.94106403 0
0.13799009 0.92894119 0
0.10338132 0.93733351 0
0.41230233 0.92319237 0
0.6309178 0.64324393 0
1 0.46728241 0
1 0.45592857 0
0.94007693 0.48507006 0
0.5807332 0.70553513 0
0.54068265 0.76402655 0
0.53506068 0.81550954 0
0.67578111 0.66939622 0
0.89277906 0.56428681 0
0.86056067 0.57913447 0
0.9130231 0.49894922 0
1 0.48106491 0
0.96893718 0.47847091 0
0.62401079 0.90404236 0
0.90772095 0.52007497 0
0.89620252 0.53183619 0
0.90442291 0.55100281 0
0.81269155 0.61189798 0
0.75087527 0.64521522 0
0.6008137 0.86709795 0
0.5682539 0.92520434 0
0.2608671 0.93574068 0
0.36619656 0.93812477 0
0.12124292 0.97630157 0
0.12802219 1 0
0.23407545 0.96393894 0
0.15985281 0.96413717 0
0.53499027 0.94518777 0
0.97157228 0.49878227 0
0.94497172 0.50512049 0
0.94210345 0.56966736 0
0.63290369 0.73639927 0
0.61753496 0.83672962 0
0.61016888 0.79410524 0
0.72129178 0.70004871 0
0.88290554 0.60203421 0
0.93597094 0.59037565 0
0.93732509 0.52090653 0
1 0.50229911 0
0.79066523 0.92524071 0
0.76134909 0.90053517 0
0.92706366 0.53832169 0
0.94442851 0.55530205 0
0.8632289 0.64060249 0
0.80482131 0.66996151 0
0.70907099 0.86769718 0
0.74202443 0.94344014 0
0.32784228 0.96139191 0
0.43308227 0.95863112 0
0.31309856 0.98293674 0
0.20570022 1 0
0.22986228 0.98640058 0
0.7281925 0.95671216 0
0.55834669 0.96379913 0
0.97248042 0.51815685 0
1 0.57412597 0
1 0.94098409 0
1 0.58484462 0
1 0.60086219 0
0.68756019 0.76994719 0
0.70003776 0.82689378 0
0.76288775 0.72647805 0
0.9309366 0.62658605 0
1 0.62859059 0
0.96271124 0.53326824 0
1 0.52297125 0
1 0.91957987 0
0.85758995 0.89378461 0
1 0.56286947 0
[...]
CELL_DATA 946
Scalars  Label int 1
LOOKUP_TABLE FreeFempp_table
0
0
0
0
0
0
0
0
0
0
0
0
0
0
0
0
0
0
0
0
0
0
0
0
0
0
0
0
0
0
0
0
0
0
0
0
0
0
0
0
0
0
0
0
0
0
0
0
0
0
0
0
0
0
0
0
0
0
0
0
0
0
0
0
0
0
0
0
0
0
0
0
0
0
0
0
0
0
0
0
0
0
0
0
0
0
0
0
0
0
0
0
0
0
0
0
0
0
0
0
0
0
0
0
0
0
0
0
0
0
0
0
0
0
0
0
0
0
0
0
0
0
0
0
0
0
0
0
0
0
0
0
0
0
0
0
0
0
0
0
0
0
0
0
0
0
0
0
0
0
0
0
0
0
0
0
0
0
0
0
0
0
0
0
0
0
0
0
0
0
0
0
0
0
0
0
0
0
0
0
0
0
0
0
0
0
0
0
0
0
0
0
0
0
0
0
0
0
0
0
0
0
0
0
0
0
0
0
0
0
0
0
0
0
0
0
0
0
0
0
0
0
0
0
0
0
0
0
0
0
0
0
0
0
0
0
0
0
0
0
0
0
0
0
0
0
0
0
0
0
0
0
0
0
0
0
0
0
0
0
0
0
0
0
0
0
0
0
0
0
0
0
0
0
0
0
0
0
0
0
0
0
0
0
0
0
0
0
0
0
0
0
0
0
0
0
0
0
0
0
0
0
0
0
0
0
0
0
0
0
0
0
0
0
0
0
0
0
0
0
0
0
0
0
0
0
0
0
0
0
0
0
0
0
0
0
0
0
0
0
0
0
0
0
0
0
0
0
0
0
0
0
0
0
0
0
0
0
0
0
0
0
0
0
0
0
0
0
0
0
0
0
0
0
0
0
0
0
0
0
0
0
0
0
0
0
0
0
0
0
0
0
0
0
0
0
0
0
0
0
0
0
0
0
0
0
0
0
0
0
0
0
0
0
0
0
0
0
0
0
0
0
0
0
0
0
0
0
0
0
0
0
0
0
0
0
0
0
0
0
0
0
0
0
0
0
0
0
0
0
0
0
0
0
0
0
0
0
0
0
0
0
0
0
0
0
0
0
0
0
0
0
0
0
0
0
0
0
0
0
0
0
0
0
0
0
0
0
0
0
0
0
0
0
0
0
0
0
0
0
0
0
0
0
0
0
0
0
0
0
0
0
0
0
0
0
0
0
0
0
0
0
0
0
0
0
0
0
0
0
0
0
0
0
0
0
0
0
0
0
0
0
0
0
0
0
0
0
0
0
0
0
0
0
0
0
0
0
0
0
0
0
0
0
0
0
0
0
0
0
0
0
0
0
0
0
0
0
0
0
0
0
0
0
0
0
0
0
0
0
0
0
0
0
0
0
0
0
0
0
0
0
0
0
0
0
0
0
0
0
0
0
0
0
0
0
0
0
0
0
0
0
0
0
0
0
0
0
0
0
0
0
0
0
0
0
0
0
0
0
0
0
0
0
0
0
0
0
0
0
0
0
0
0
0
0
0
0
0
0
0
0
0
0
0
0
0
0
0
0
0
0
0
0
0
0
0
0
0
0
0
0
0
0
0
0
0
0
0
0
0
0
0
0
0
0
0
0
0
0
0
0
0
0
0
0
0
0
0
0
0
0
0
0
0
0
0
0
0
0
0
0
0
0
0
0
0
0
0
0
0
0
0
0
0
0
0
0
0
0
0
0
0
0
0
0
0
0
0
0
0
0
0
0
0
0
0
0
0
0
0
0
0
0
0
0
0
0
0
0
0
0
0
0
0
0
0
0
0
0
0
0
0
0
0
0
0
0
0
0
0
0
0
0
0
0
0
0
0
0
0
0
0
0
0
0
0
0
0
0
0
0
0
0
0
0
0
0
0
0
0
0
0
0
0
0
0
0
0
0
0
0
0
0
0
0
0
0
0
0
0
0
1
1
1
1
1
1
1
1
1
3
3
3
3
3
3
3
3
3
2
2
2
2
2
2
2
2
2
2
2
2
2
2
2
2
2
2
2
2
2
2
2
2
2
2
2
2
2
2
2
2
2
2
2
2
2
2
2
2
2
2
2
4
4
4
4
4
4
4
4
4
4
4
4
4
4
4
4
4
4
4
4
4
4
4
4
4
4
4
4
4
4
4
4
4
4
4
4
4
4
4
4
4
4
4

LOOKUP_TABLE FreeFempp_table 5
1.00000000 0.00000000 0.00000000 1.00000000
1.00000000 1.00000000 0.00000000 1.00000000
1.00000000 0.00000000 1.00000000 1.00000000
0.00000000 1.00000000 0.00000000 1.00000000
0.00000000 1.00000000 1.00000000 1.00000000

POINT_DATA 474
FIELD FieldData 1
Density 1 474 float
2.98675429e-02 7.22098649e-02 3.04961558e-02 1.04086295e-01 8.40506107e-02 3.11987549e-02 1.51776657e-01 1.00584164e-01 1.33365333e-01 3.08493357e-02 7.03032985e-02 1.75023586e-01 1.32901028e-01 1.58530429e-01 3.02029364e-02 4.71249968e-02 9.34803709e-02 4.01437312e-01 1.79792866e-01 1.91985607e-01 1.49426505e-01 1.76321805e-01 6.69403747e-02 1.51776657e-01 2.98675429e-02 1.04086295e-01 2.98962183e-02 3.37555297e-02 2.96544712e-02 2.98845731e-02 2.97992453e-02 1.32755920e-01 2.07735926e-01 1.91985607e-01 1.75023586e-01 2.23848954e-01 3.34159255e-01 2.49595433e-01 2.84473270e-01 4.82731491e-01 5.72636247e-01 3.07057887e-01 6.63756847e-01 1.96857914e-01 2.07735926e-01 2.08249345e-01 1.98392496e-01 1.81259647e-01 4.17026989e-02 9.88701731e-02 7.47037157e-02 2.86456328e-02 3.14939767e-02 2.85761710e-02 1.55547664e-01 7.29037166e-01 7.61054933e-01 1.36699706e-01 1.07356742e-01 1.89854309e-01 3.78868550e-01 2.14549810e-01 3.82654488e-01 2.23848954e-01 2.32076138e-01 2.14122385e-01 2.06419766e-01 1.94527030e-01 1.83054641e-01 6.27326220e-02 1.29897192e-01 3.93643118e-02 4.45774868e-02 3.62673551e-02 2.87507959e-02 1.67266637e-01 7.13590384e-01 5.96097112e-01 7.74511933e-01 4.43040043e-01 7.72370279e-01 4.13797349e-01 2.84079432e-01 7.52876326e-02 1.23032913e-01 1.91214785e-01 2.19291851e-01 2.32346237e-01 2.49595433e-01 1.96047038e-01 2.70087808e-01 2.60517657e-01 2.39674091e-01 2.25850493e-01 2.07238480e-01 1.90604389e-01 9.96296480e-02 1.51811182e-01 3.44415605e-02 7.79110938e-02 5.96237071e-02 1.79748997e-01 2.22258747e-01 2.42955789e-01 3.28442246e-01 4.92105961e-01 3.13987851e-01 3.43988359e-01 1.70883283e-01 6.94802105e-02 8.37264806e-02 9.11126137e-02 1.26860067e-01 1.42609313e-01 2.21293867e-01 2.84473270e-01 3.12063873e-01 2.02647537e-01 3.29440832e-01 2.91248530e-01 2.68925846e-01 2.45792061e-01 2.16098502e-01 1.97229937e-01 7.62135684e-01 6.80828810e-01 7.57591069e-01 7.38126874e-01 1.34733856e-01 1.71927780e-01 7.36154690e-02 1.15017682e-01 1.01405159e-01 1.90137327e-01 1.43404886e-01 1.50806725e-01 2.77032733e-01 1.32419407e-01 1.01368755e-01 8.99626613e-02 9.29346010e-02 9.94355828e-02 2.39406556e-01 2.76134044e-01 3.34159255e-01 3.76627892e-01 2.06976876e-01 2.19476908e-01 3.34348083e-01 4.38168287e-01 3.75872612e-01 3.37815523e-01 2.82523483e-01 2.47639686e-01 2.03493804e-01 4.19585496e-01 3.99695128e-01 6.83255494e-01 5.95855772e-01 5.07683754e-01 4.14743483e-01 3.83855700e-01 1.56977683e-01 1.77194729e-01 1.17443696e-01 1.47449076e-01 1.95077211e-01 9.77726802e-02 1.33330002e-01 1.04341730e-01 1.17538184e-01 1.02675237e-01 2.65106797e-01 3.16106051e-01 4.01437312e-01 4.56870198e-01 2.39015833e-01 2.18320101e-01 3.21093976e-01 2.99061269e-01 4.06418830e-01 4.42254543e-01 5.43589592e-01 4.99993801e-01 4.53801274e-01 3.93117458e-01 3.75942230e-01 2.83446044e-01 2.14152083e-01 2.03542709e-01 1.92971990e-01 4.03188974e-01 3.25986266e-01 3.35108966e-01 2.64412075e-01 2.33769476e-01 1.56879574e-01 1.79524153e-01 1.59151182e-01 1.95881516e-01 1.00331597e-01 1.35139734e-01 1.21739022e-01 4.82731491e-01 2.54219174e-01 2.34209418e-01 3.42758000e-01 5.72636247e-01 3.92581940e-01 6.55222654e-01 5.47636628e-01 5.13357639e-01 6.16546929e-01 5.52971542e-01 4.82813507e-01 4.68258530e-01 3.06782365e-01 3.66313875e-01 2.40929782e-01 2.18170837e-01 2.03930363e-01 9.92919281e-02 2.15986311e-01 2.29481757e-01 2.09900886e-01 1.21170990e-01 7.54780322e-02 2.07794964e-01 1.67750776e-01 1.84163973e-01 1.96082324e-01 1.06959648e-01 1.50781006e-01 2.69799143e-01 4.29802090e-01 6.63756847e-01 7.29037166e-01 5.08945167e-01 3.29452693e-01 2.83331037e-01 7.05448210e-01 7.41434634e-01 6.19181931e-01 6.94528103e-01 6.42730117e-01 5.73481679e-01 4.04609472e-01 4.79379803e-01 2.42742002e-01 2.15995044e-01 2.01869473e-01 8.46470967e-02 1.05360903e-01 1.33123368e-01 5.58320470e-02 1.01448812e-01 1.71817005e-01 1.90720871e-01 1.48188859e-01 1.74192026e-01 1.89934239e-01 1.13995582e-01 1.50655687e-01 2.11064398e-01 7.61054933e-01 5.87626159e-01 3.64937454e-01 4.39560741e-01 3.50085080e-01 2.78016061e-01 7.67559171e-01 7.48721421e-01 7.16669083e-01 6.81266665e-01 5.24004579e-01 2.37234116e-01 2.02911437e-01 1.94439173e-01 7.53864050e-02 3.97692695e-02 9.29235369e-02 4.44593430e-02 4.83806580e-02 2.98675429e-02 7.59124011e-02 9.97366980e-02 1.75806850e-01 9.99600440e-02 1.31080776e-01 2.17030376e-01 7.72370279e-01 6.21167421e-01 6.80537522e-01 3.46940696e-01 4.78831559e-01 4.44230765e-01 3.16109866e-01 2.72531271e-01 7.71172583e-01 7.70307720e-01 7.63999939e-01 7.55209148e-01 7.41616488e-01 5.85593998e-01 2.40802914e-01 2.05277964e-01 1.97287545e-01 1.82201445e-01 5.38036488e-02 2.79429536e-02 3.70396227e-02 2.95672715e-02 2.96544712e-02 1.49341434e-01 9.60349739e-02 7.11717308e-02 2.19031841e-01 7.74511933e-01 6.91531360e-01 4.11938310e-01 5.22284210e-01 7.13590384e-01 6.97514236e-01 3.40031743e-01 2.76644111e-01 7.75040984e-01 7.55113482e-01 6.99105561e-01 7.79087842e-01 7.76433587e-01 7.59004831e-01 6.29773974e-01 2.38012254e-01 1.99515477e-01 2.11318865e-01 1.50607392e-01 1.88733637e-01 1.70373201e-01 3.61711346e-02 2.69772355e-02 2.97992453e-02 9.72927436e-02 4.87397909e-02 1.88650697e-01 7.15693235e-01 4.55007046e-01 5.51997423e-01 5.96097112e-01 5.75392544e-01 3.95457566e-01 3.21741521e-01 2.68102527e-01 7.54406452e-01 7.49622226e-01 6.56532049e-01 6.08260930e-01 4.93393481e-01 7.84729540e-01 7.42895007e-01 7.82715738e-01 6.88227952e-01 5.89827836e-01 2.11491168e-01 2.30464846e-01 1.98956385e-01 1.32083252e-01 1.67703107e-01 2.45943554e-02 2.98845731e-02 8.25196579e-02 6.72136620e-02 3.83539498e-02 1.81084841e-01 4.87634271e-01 2.84079432e-01 4.13797349e-01 5.02074599e-01 3.96937817e-01 3.14466774e-01 2.60652781e-01 4.86957759e-01 7.73024440e-01 7.33410776e-01 6.09250844e-01 2.32346237e-01 4.07339573e-01 2.05240443e-01 6.98675394e-01 7.74882138e-01 7.73821235e-01 6.46907508e-01 5.57319105e-01 2.26515710e-01 1.92442387e-01 1.23030134e-01 1.58284649e-01 2.40497850e-02 2.98962183e-02 6.06552437e-02 3.57621647e-02 1.70160234e-01 3.87125194e-01 4.23996061e-01 7.78085172e-01 3.87576044e-01 2.57860720e-01 3.07261497e-01 4.71398056e-01 7.07632840e-01 7.48570025e-01 5.09054542e-01 2.22258747e-01 2.02248886e-01 2.13294491e-01 6.56657875e-01 7.18578517e-01 6.23260498e-01 5.48502803e-01 2.38837421e-01 1.82848185e-01 9.38995257e-02 1.26030371e-01 5.08607253e-02 3.02029364e-02 3.13740522e-02 1.65607527e-01 1.36426032e-01 3.85549068e-01 7.57591069e-01 1.90720871e-01 7.62135684e-01 7.38126874e-01 3.64054233e-01 2.88011879e-01 4.50848252e-01 6.75508976e-01 6.83255494e-01 4.55823958e-01 2.42955789e-01 2.07794964e-01 2.25613326e-01 6.80828810e-01 5.91328681e-01 4.56870884e-01 5.79145908e-01 5.24097860e-01 3.01012993e-01 2.54412115e-01 1.71817005e-01 7.55402520e-02 3.08493357e-02 1.50970966e-01 9.75499675e-02 3.57979625e-01 5.95855772e-01 3.28442246e-01 2.29481757e-01 4.92105961e-01 3.88031840e-01 5.07683754e-01 4.76753086e-01 2.98419505e-01 2.64412075e-01 1.48188859e-01 3.11987549e-02 6.47761449e-02 1.14091903e-01 3.74808490e-01 4.14743483e-01 3.25986266e-01 1.01448812e-01 3.04961558e-02 6.98000342e-02 2.98675429e-02 
