# vtk DataFile Version 2.0
results_case1/1616747839/sol_toll1e-05_vf0.3_iter0.vtk, Created by Freefem++ 
ASCII
DATASET UNSTRUCTURED_GRID
POINTS 665 float
1 0.50456536 0
1 0.51775156 0
1 0.49164111 0
1 0.53093776 0
1 0.5564915 0
1 0.5439115 0
1 0.56871684 0
1 0.58095541 0
0.96956962 0.4998401 0
0.96669397 0.51644125 0
1 0.47885559 0
0.96745096 0.48256039 0
0.94012674 0.48603568 0
0.96791854 0.55604564 0
0.96464319 0.53096471 0
0.96431185 0.54408639 0
0.96371212 0.56626894 0
1 0.59352632 0
0.96447702 0.57906999 0
0.93882928 0.5026563 0
0.93422731 0.51733476 0
1 0.46609943 0
0.96796478 0.46811745 0
0.91747463 0.49101392 0
0.93909681 0.46828121 0
0.91688097 0.47288445 0
1 0.70424294 0
1 0.66067992 0
0.9301765 0.73119609 0
1 0.60705866 0
1 0.62761329 0
1 0.76269953 0
0.91351169 0.787011 0
0.84017046 0.79172057 0
0.93328259 0.54863542 0
0.93177311 0.53261633 0
0.93125962 0.56506217 0
0.94711521 0.58575831 0
0.90788815 0.50252679 0
0.90718288 0.51838613 0
1 0.45487241 0
0.9464985 0.4543799 0
0.97456491 0.45542594 0
0.89495346 0.48246805 0
0.92296156 0.4506074 0
0.90164429 0.46065618 0
0.91809786 0.6687633 0
0.92501546 0.62692226 0
0.81402525 0.74323941 0
0.86790732 0.71085607 0
0.93078836 0.59783912 0
1 0.82276099 0
0.90218905 0.83502931 0
0.8196671 0.8360522 0
0.76069168 0.79579154 0
0.76184006 0.73476601 0
0.90278757 0.54944028 0
0.8980138 0.52959916 0
0.89869869 0.56718447 0
0.88347706 0.49719925 0
1 0.44542324 0
0.95962001 0.44330658 0
0.93282595 0.43451661 0
0.88253276 0.46352003 0
0.89942709 0.43835119 0
0.86077612 0.63733902 0
0.8786986 0.59961564 0
0.80436915 0.66508711 0
0.86690503 0.57355057 0
1 0.85670944 0
0.86773531 0.86180124 0
0.74578685 0.83467526 0
0.72168934 0.70150355 0
0.68856868 0.77709224 0
0.86824991 0.50461797 0
0.868098 0.53377984 0
0.84421388 0.54834138 0
0.8627361 0.47217374 0
1 0.43746799 0
0.9669747 0.43261097 0
0.95873179 0.42412894 0
0.92395653 0.42224846 0
0.89675326 0.41684202 0
0.86617797 0.44062326 0
0.81509454 0.60139739 0
0.74983656 0.63722687 0
0.80551516 0.56797114 0
0.67341383 0.66677971 0
1 0.87671097 0
0.8030932 0.87082567 0
0.67803798 0.83403179 0
0.62779332 0.73326298 0
0.61357767 0.7884433 0
1 1 0
1 0.99141035 0
0.81511397 0.99726896 0
1 0.98711553 0
1 0.99570518 0
0.84257609 0.49688248 0
0.792311 0.53870745 0
0.82742427 0.52073196 0
0.83152343 0.46568568 0
1 0.42400129 0
1 0.43066263 0
0.86253177 0.41614582 0
1 0.41721202 0
0.95713607 0.4153702 0
0.93931707 0.40947017 0
0.93289851 0.40156387 0
0.88483371 0.39639747 0
0.82195434 0.43346119 0
0.73251849 0.6009641 0
0.7407747 0.56502352 0
0.62849009 0.64266907 0
0.56540016 0.70341839 0
1 0.97852588 0
1 0.9828207 0
1 0.97423106 0
1 0.96993623 0
1 0.89288535 0
0.82974898 0.89312973 0
0.59594717 0.83066955 0
0.68667027 0.86983237 0
0.54023296 0.76889305 0
0.70435809 1 0
0.74058432 0.98598937 0
0.73872979 0.99270955 0
0.70957931 0.54961406 0
0.79894755 0.49451915 0
0.76203118 0.51898525 0
0.75644359 0.48330903 0
0.77446483 0.4621151 0
0.83305699 0.40194407 0
1 0.4102181 0
1 0.40320631 0
1 0.39542456 0
0.9312021 0.38986452 0
0.76550969 0.43177274 0
0.91390208 0.37026862 0
0.84967295 0.37051761 0
0.77840019 0.39349439 0
0.64299127 0.60003467 0
0.51118168 0.66761429 0
0.48045584 0.72477758 0
0.73573536 0.97981104 0
1 0.96107973 0
1 0.96561722 0
0.7168011 0.97308421 0
0.74480312 0.96709435 0
1 0.95625007 0
0.52911988 0.82832506 0
1 0.90648145 0
1 0.91750209 0
1 0.92637615 0
0.74579966 0.89874468 0
0.61077692 0.87222921 0
0.46233396 0.77900083 0
0.52700366 1 0
0.55206799 0.9882694 0
0.65708181 0.53079511 0
0.60230488 0.57203721 0
0.70446799 0.49886541 0
0.68279439 0.46727582 0
0.69448634 0.43121993 0
1 0.38207149 0
1 0.35863602 0
0.70575438 0.3915924 0
0.79371208 0.34044203 0
0.88707317 0.32738002 0
0.71751762 0.3423028 0
0.51076739 0.62269899 0
0.40790228 0.672554 0
0.40288433 0.73161055 0
0.53014178 0.9768499 0
0.732019 0.96065334 0
0.55245873 0.96654412 0
1 0.93352349 0
1 0.93973566 0
1 0.94560497 0
1 0.95109092 0
0.70545598 0.95309215 0
0.5361533 0.86973432 0
0.46976786 0.83542509 0
0.78963716 0.9283259 0
0.79356326 0.91608691 0
0.62604887 0.90011538 0
0.40413837 0.80213289 0
0.42504985 1 0
0.41090084 0.98134269 0
0.52152957 0.53126148 0
0.58918625 0.5008118 0
0.46445442 0.50424059 0
0.493687 0.56432098 0
0.45218777 0.60048649 0
0.56507275 0.47118537 0
0.5350769 0.43779344 0
0.61262494 0.42597984 0
0.57502016 0.37428247 0
0.62581492 0.36256598 0
0.50287315 0.40176093 0
1 0.32791533 0
0.64137894 0.31024239 0
0.56450435 0.2935695 0
1 0.29056075 0
0.74492981 0.29408429 0
0.80858323 0.27523942 0
0.87839389 0.27140313 0
0.6695388 0.2609593 0
0.36437639 0.63948445 0
0.32713901 0.69055986 0
0.33057944 0.75610234 0
0.42498381 0.96518501 0
0.50110658 0.95575112 0
0.68748853 0.9331552 0
0.72883562 0.94395227 0
0.50753125 0.94535304 0
0.50903815 0.88669672 0
0.43845046 0.86187756 0
0.52310477 0.90480121 0
0.62587842 0.91942874 0
0.3696906 0.86561294 0
0.35484156 0.82058516 0
0.34759751 1 0
0.33008359 0.96039723 0
0.29129156 0.9699115 0
0.38884279 0.53108144 0
0.37606507 0.56286237 0
0.35009551 0.50215254 0
0.41919116 0.4730783 0
0.32512975 0.60473164 0
0.41347549 0.43118044 0
0.4099495 0.38308053 0
0.47768544 0.35866046 0
0.50300575 0.30560854 0
0.4311454 0.2963126 0
0.58771571 0.23883452 0
0.50770579 0.24619166 0
0.33099488 0.43126384 0
0.92108055 0.23163939 0
1 0.23545435 0
0.73719038 0.22688425 0
0.83519184 0.20941484 0
0.6521 0.20339717 0
0 0.9828207 0
0 0.97852588 0
0 0.99570518 0
0 0.98711553 0
0 0.99141035 0
0.26798243 0.66322236 0
0.26420935 0.74488437 0
0.34626134 0.94457808 0
0.4972711 0.93244313 0
0.35598427 0.9333604 0
0.41425312 0.89316588 0
0.46363997 0.91647752 0
0.3030512 0.8700807 0
0.28484099 0.8211558 0
0.2556626 1 0
0.21625737 0.96818923 0
0.22925641 0.94027915 0
0.16349019 1 0
0.29574841 0.53643245 0
0.29481766 0.47159088 0
0.2461088 0.57788152 0
0.33059858 0.36245199 0
0.37688427 0.30516561 0
0.45067707 0.23250044 0
0.55104347 0.19955506 0
0.27496237 0.40592783 0
1 0.18845027 0
0.75417039 0.17605114 0
0.86661226 0.16608761 0
0.66559511 0.16281959 0
0.55975151 0.16682737 0
0.011489806 0.99141035 0
0 0.97423106 0
0.011512655 0.99362585 0
0 1 0
0.011489806 0.99785259 0
0.011489806 0.99570518 0
0.20887831 0.6299777 0
0.19926047 0.696615 0
0.21124782 0.76933157 0
0.29986996 0.91916589 0
0.30876097 0.89769567 0
0.18198711 0.91858241 0
0.23730902 0.86596448 0
0.22520389 0.82794697 0
0.15190375 0.96994404 0
0.14121921 0.93661381 0
0.095179841 1 0
0.10682411 0.97178482 0
0.26904968 0.34215888 0
0.23637825 0.4221216 0
0.23749139 0.49295751 0
0.19819606 0.51369967 0
0.30775254 0.27533698 0
0.37129812 0.22611311 0
0.46110541 0.17249864 0
1 0.16194975 0
1 0.14429863 0
0.81361727 0.14421598 0
0.74216491 0.1346314 0
0.59636714 0.13218646 0
0 0.96993623 0
0 0.95625007 0
0 0.96107973 0
0 0.96561722 0
0.014235026 0.98948828 0
0.022979614 1 0
0.16850232 0.7674451 0
0.16628847 0.55885065 0
0.16151582 0.67131606 0
0.20369975 0.89802356 0
0.20710151 0.87583845 0
0.13481496 0.90306363 0
0.17346236 0.83008684 0
0.10355264 0.93638165 0
0.05055152 1 0
0.082073068 0.94529205 0
0.071634173 0.97404484 0
0.24235871 0.31100013 0
0.20166643 0.38572017 0
0.16406301 0.42163056 0
0.38570324 0.16704494 0
0.2986502 0.20853839 0
0.48033138 0.12968396 0
1 0.13142319 0
1 0.12013934 0
0.77666226 0.1138801 0
0.61978697 0.10600675 0
0.50388819 0.1030536 0
0 0.93973566 0
0 0.94560497 0
0 0.95109092 0
0.018373382 0.96986035 0
0 0.92637615 0
0 0.93352349 0
0 0.90648145 0
0 0.91750209 0
0 0.87671097 0
0 0.89288535 0
0 0.85670944 0
0.032609219 0.96699989 0
0.1393685 0.76050658 0
0.13451051 0.66591143 0
0.13682549 0.52180008 0
0.14433238 0.86357053 0
0.10336273 0.89547623 0
0.12877548 0.79900696 0
0.042670526 0.94672495 0
0.077878523 0.90495681 0
0.054487668 0.94275024 0
0.064843063 0.92310411 0
0.13843618 0.3445017 0
0.22183815 0.2469809 0
0.17242593 0.29627121 0
0.24842189 0.1757395 0
0.35403632 0.13696451 0
0.11544808 0.44172156 0
1 0.10885548 0
1 0.097673055 0
0.78349092 0.097615784 0
0.70827428 0.086831339 0
0.36864593 0.10652511 0
0.49725249 0.084788305 0
0 0.82276099 0
0.017500494 0.93237067 0
0.012518036 0.90039102 0
0.012017828 0.84352234 0
0.0093499795 0.79754188 0
0.031179473 0.90100465 0
0.11540447 0.69559879 0
0.11505256 0.57696555 0
0.10439698 0.83598918 0
0.081108688 0.85457842 0
0.10166646 0.76124276 0
0.038090736 0.84608831 0
0.044224388 0.89031529 0
0.065486614 0.86287182 0
0.055011233 0.87503289 0
0.10097543 0.5221998 0
0.12198663 0.29878913 0
0.17288172 0.21311675 0
0.24680403 0.13959768 0
0.099689006 0.40721885 0
0.10110427 0.29183384 0
1 0.087978364 0
1 0.079902843 0
0.74037928 0.074305203 0
0.28585404 0.10130665 0
0.55976754 0.067635931 0
0.39939838 0.074113739 0
0 0.76269953 0
0.0086702493 0.73717184 0
0 0.70424294 0
0.022455575 0.84087097 0
0.017999522 0.74712929 0
0.032684945 0.80261417 0
0.099779454 0.65330509 0
0.083226252 0.78336236 0
0.069420043 0.78757165 0
0.086955493 0.70243246 0
0.042318432 0.77634541 0
0.04858068 0.8140337 0
0.058390804 0.78520925 0
0.065932284 0.70995352 0
0.013804834 0.67395423 0
0.01995175 0.66824694 0
0.091322725 0.56497045 0
0.089527066 0.48495371 0
0.13111515 0.20638206 0
0.16948223 0.14069368 0
0.087392405 0.37913204 0
0.085193752 0.28090297 0
0.099298913 0.21719966 0
1 0.073187934 0
1 0.067599708 0
0.75534675 0.065956068 0
0.25166177 0.084686078 0
0.74768197 0.058939939 0
0.32236057 0.066465841 0
0.17309957 0.098659598 0
0.53744582 0.05719762 0
0.42537887 0.053069948 0
0 0.60705866 0
0 0.62761329 0
0 0.66067992 0
0.0066073165 0.66936395 0
0.011342672 0.6245587 0
0 0.59352632 0
0.026677683 0.74751188 0
0.026014689 0.67438118 0
0.034247862 0.72316559 0
0.041491479 0.71437659 0
0.085222628 0.62406232 0
0.075260607 0.68248877 0
0.050795253 0.72074709 0
0.059274107 0.68127769 0
0.066949463 0.63684638 0
0.017563758 0.6221178 0
0.023981473 0.62241375 0
0.08117394 0.54497271 0
0.080965994 0.46995876 0
0.079040139 0.40636344 0
0.11113883 0.15925984 0
0.11700622 0.10819332 0
0.075445132 0.31905328 0
[...]
CELL_DATA 1328
Scalars  Label int 1
LOOKUP_TABLE FreeFempp_table
0
0
0
0
0
0
0
0
0
0
0
0
0
0
0
0
0
0
0
0
0
0
0
0
0
0
0
0
0
0
0
0
0
0
0
0
0
0
0
0
0
0
0
0
0
0
0
0
0
0
0
0
0
0
0
0
0
0
0
0
0
0
0
0
0
0
0
0
0
0
0
0
0
0
0
0
0
0
0
0
0
0
0
0
0
0
0
0
0
0
0
0
0
0
0
0
0
0
0
0
0
0
0
0
0
0
0
0
0
0
0
0
0
0
0
0
0
0
0
0
0
0
0
0
0
0
0
0
0
0
0
0
0
0
0
0
0
0
0
0
0
0
0
0
0
0
0
0
0
0
0
0
0
0
0
0
0
0
0
0
0
0
0
0
0
0
0
0
0
0
0
0
0
0
0
0
0
0
0
0
0
0
0
0
0
0
0
0
0
0
0
0
0
0
0
0
0
0
0
0
0
0
0
0
0
0
0
0
0
0
0
0
0
0
0
0
0
0
0
0
0
0
0
0
0
0
0
0
0
0
0
0
0
0
0
0
0
0
0
0
0
0
0
0
0
0
0
0
0
0
0
0
0
0
0
0
0
0
0
0
0
0
0
0
0
0
0
0
0
0
0
0
0
0
0
0
0
0
0
0
0
0
0
0
0
0
0
0
0
0
0
0
0
0
0
0
0
0
0
0
0
0
0
0
0
0
0
0
0
0
0
0
0
0
0
0
0
0
0
0
0
0
0
0
0
0
0
0
0
0
0
0
0
0
0
0
0
0
0
0
0
0
0
0
0
0
0
0
0
0
0
0
0
0
0
0
0
0
0
0
0
0
0
0
0
0
0
0
0
0
0
0
0
0
0
0
0
0
0
0
0
0
0
0
0
0
0
0
0
0
0
0
0
0
0
0
0
0
0
0
0
0
0
0
0
0
0
0
0
0
0
0
0
0
0
0
0
0
0
0
0
0
0
0
0
0
0
0
0
0
0
0
0
0
0
0
0
0
0
0
0
0
0
0
0
0
0
0
0
0
0
0
0
0
0
0
0
0
0
0
0
0
0
0
0
0
0
0
0
0
0
0
0
0
0
0
0
0
0
0
0
0
0
0
0
0
0
0
0
0
0
0
0
0
0
0
0
0
0
0
0
0
0
0
0
0
0
0
0
0
0
0
0
0
0
0
0
0
0
0
0
0
0
0
0
0
0
0
0
0
0
0
0
0
0
0
0
0
0
0
0
0
0
0
0
0
0
0
0
0
0
0
0
0
0
0
0
0
0
0
0
0
0
0
0
0
0
0
0
0
0
0
0
0
0
0
0
0
0
0
0
0
0
0
0
0
0
0
0
0
0
0
0
0
0
0
0
0
0
0
0
0
0
0
0
0
0
0
0
0
0
0
0
0
0
0
0
0
0
0
0
0
0
0
0
0
0
0
0
0
0
0
0
0
0
0
0
0
0
0
0
0
0
0
0
0
0
0
0
0
0
0
0
0
0
0
0
0
0
0
0
0
0
0
0
0
0
0
0
0
0
0
0
0
0
0
0
0
0
0
0
0
0
0
0
0
0
0
0
0
0
0
0
0
0
0
0
0
0
0
0
0
0
0
0
0
0
0
0
0
0
0
0
0
0
0
0
0
0
0
0
0
0
0
0
0
0
0
0
0
0
0
0
0
0
0
0
0
0
0
0
0
0
0
0
0
0
0
0
0
0
0
0
0
0
0
0
0
0
0
0
0
0
0
0
0
0
0
0
0
0
0
0
0
0
0
0
0
0
0
0
0
0
0
0
0
0
0
0
0
0
0
0
0
0
0
0
0
0
0
0
0
0
0
0
0
0
0
0
0
0
0
0
0
0
0
0
0
0
0
0
0
0
0
0
0
0
0
0
0
0
0
0
0
0
0
0
0
0
0
0
0
0
0
0
0
0
0
0
0
0
0
0
0
0
0
0
0
0
0
0
0
0
0
0
0
0
0
0
0
0
0
0
0
0
0
0
0
0
0
0
0
0
0
0
0
0
0
0
0
0
0
0
0
0
0
0
0
0
0
0
0
0
0
0
0
0
0
0
0
0
0
0
0
0
0
0
0
0
0
0
0
0
0
0
0
0
0
0
0
0
0
0
0
0
0
0
0
0
0
0
0
0
0
0
0
0
0
0
0
0
0
0
0
0
0
0
0
0
0
0
0
0
0
0
0
0
0
0
0
0
0
0
0
0
0
0
0
0
0
0
0
0
0
0
0
0
0
0
0
0
0
0
0
0
0
0
0
0
0
0
0
0
0
0
0
0
0
0
0
0
0
0
0
0
0
0
0
0
0
0
0
0
0
0
0
0
0
0
0
0
0
0
0
0
0
0
0
0
0
0
0
0
0
0
0
0
0
0
0
0
0
0
0
0
0
0
0
0
0
0
0
0
0
0
0
0
0
0
0
0
0
0
0
0
0
0
0
0
0
0
0
0
0
0
0
0
0
0
0
0
0
0
0
0
0
0
0
0
0
0
0
0
0
0
0
0
0
0
0
0
0
0
0
0
0
0
0
0
0
0
0
0
0
0
0
0
0
0
0
0
0
0
0
0
0
0
0
0
0
0
0
0
0
0
0
0
0
0
0
1
1
1
1
1
1
1
1
1
1
3
3
3
3
3
3
3
3
3
3
2
2
2
2
2
2
2
2
2
2
2
2
2
2
2
2
2
2
2
2
2
2
2
2
2
2
2
2
2
2
2
2
2
2
2
2
2
2
2
2
2
2
2
2
2
2
2
2
2
2
2
2
2
2
2
2
2
2
2
2
2
2
2
2
2
2
2
2
2
2
2
2
2
2
2
2
2
2
2
4
4
4
4
4
4
4
4
4
4
4
4
4
4
4
4
4
4
4
4
4
4
4
4
4
4
4
4
4
4
4
4
4
4
4
4
4
4
4
4
4
4
4
4
4
4
4
4
4
4
4
4
4
4
4
4
4
4
4
4
4
4
4
4
4
4
4
4
4
4
4
4
4
4
4
4
4
4
4

LOOKUP_TABLE FreeFempp_table 5
1.00000000 0.00000000 0.00000000 1.00000000
1.00000000 1.00000000 0.00000000 1.00000000
1.00000000 0.00000000 1.00000000 1.00000000
0.00000000 1.00000000 0.00000000 1.00000000
0.00000000 1.00000000 1.00000000 1.00000000

POINT_DATA 665
FIELD FieldData 1
Density 1 665 float
2.23208204e-01 2.22258911e-01 2.22175255e-01 2.21309617e-01 6.14224851e-01 4.00691390e-01 7.84516573e-01 7.70058036e-01 4.06058073e-01 4.21751648e-01 2.20092595e-01 4.16763097e-01 4.93154556e-01 6.70832634e-01 4.20436502e-01 5.51023006e-01 7.85548687e-01 7.55206823e-01 7.71481395e-01 4.22044277e-01 5.05564690e-01 2.27786660e-01 4.12005931e-01 5.73241711e-01 5.61610460e-01 6.51683688e-01 5.29924095e-01 6.13438964e-01 4.79893237e-01 7.31798291e-01 6.85904026e-01 4.31180835e-01 3.85694891e-01 3.68781269e-01 6.81039989e-01 5.98294020e-01 7.85453081e-01 7.60565341e-01 6.39613807e-01 6.98366284e-01 4.19368297e-01 5.95201433e-01 4.96117264e-01 7.37510800e-01 6.82006359e-01 7.68307269e-01 5.86604834e-01 6.74205959e-01 4.39998657e-01 5.03333449e-01 7.38178372e-01 3.29283118e-01 3.05027813e-01 2.95204490e-01 3.46891016e-01 4.38647896e-01 7.77924478e-01 7.73751915e-01 7.74906099e-01 7.38328815e-01 5.80612123e-01 6.77382112e-01 7.78918684e-01 7.79468596e-01 7.76336312e-01 6.28530145e-01 7.11094737e-01 5.55542588e-01 7.47330844e-01 2.74617523e-01 2.61937350e-01 2.86066920e-01 4.69786435e-01 3.54793727e-01 7.86916971e-01 7.85613000e-01 7.59664714e-01 7.83910215e-01 7.16363370e-01 7.87084222e-01 7.73905218e-01 7.65457690e-01 7.47813880e-01 7.64130294e-01 6.65465355e-01 5.67513645e-01 7.06728518e-01 4.88927007e-01 2.46915728e-01 2.45099381e-01 2.74076104e-01 3.89598191e-01 3.14917475e-01 2.90455781e-02 6.40502200e-02 3.97668034e-02 8.15525353e-02 4.65478972e-02 7.78370738e-01 7.22393513e-01 7.64755309e-01 7.63652742e-01 7.75914788e-01 7.83769369e-01 7.27549672e-01 7.67909408e-01 7.61906803e-01 7.50350118e-01 7.37873614e-01 7.06825197e-01 7.23528862e-01 6.01678908e-01 6.47482276e-01 4.86580640e-01 3.91533881e-01 1.16557181e-01 9.90548581e-02 1.34059504e-01 1.51561812e-01 2.27490261e-01 2.23049685e-01 2.59749323e-01 2.34067231e-01 3.09980094e-01 2.90751979e-02 8.21285397e-02 5.66793978e-02 6.26769483e-01 7.43703127e-01 6.99360251e-01 6.94085062e-01 7.04664707e-01 6.84422851e-01 7.59662628e-01 7.51394808e-01 7.37399578e-01 7.13073075e-01 6.68805003e-01 6.65169418e-01 6.37926102e-01 6.30426824e-01 5.33399105e-01 3.90974641e-01 3.23939174e-01 1.05526470e-01 1.70808598e-01 1.65998489e-01 1.29607826e-01 1.54476672e-01 1.75928429e-01 2.45814651e-01 2.15304881e-01 2.09114522e-01 2.04129919e-01 2.13432565e-01 2.23085493e-01 2.68328220e-01 2.91187596e-02 6.48809671e-02 5.85095406e-01 5.19086063e-01 6.39746487e-01 6.10304534e-01 6.00457847e-01 7.07588911e-01 6.55666053e-01 5.72692215e-01 5.59600532e-01 5.72649479e-01 5.23639858e-01 4.21545565e-01 3.18214864e-01 2.77291507e-01 9.91153792e-02 1.63063675e-01 1.34152204e-01 2.00020447e-01 1.93435043e-01 1.87213093e-01 1.81397542e-01 1.71448737e-01 2.15728253e-01 2.26781979e-01 2.01273531e-01 2.06925660e-01 2.06517830e-01 2.31483266e-01 2.91451998e-02 6.97231889e-02 4.67238694e-01 5.27367175e-01 4.22189236e-01 4.36244100e-01 3.89581114e-01 5.03519297e-01 4.69999582e-01 5.26660681e-01 4.65626717e-01 4.90129113e-01 4.29796040e-01 5.90153933e-01 4.46615160e-01 3.88018459e-01 5.21090090e-01 4.73230034e-01 4.67352659e-01 4.76990253e-01 3.99825454e-01 3.05273831e-01 2.58246601e-01 2.31049135e-01 1.11368418e-01 1.46352649e-01 1.97731048e-01 1.84620768e-01 1.68099135e-01 2.06298143e-01 2.08867669e-01 2.00719684e-01 2.00486302e-01 2.02050254e-01 2.11657822e-01 2.91429292e-02 9.69917849e-02 6.50829226e-02 3.56343776e-01 3.40131193e-01 3.25270742e-01 3.82348746e-01 2.88982481e-01 3.69667381e-01 3.49330336e-01 3.86585593e-01 3.63851756e-01 3.12993497e-01 3.38781863e-01 3.11478913e-01 3.02402943e-01 4.17733938e-01 4.28132206e-01 3.75302255e-01 3.69953990e-01 3.17157596e-01 9.90548581e-02 1.16557181e-01 4.65478972e-02 8.15525353e-02 6.40502200e-02 2.35793740e-01 2.13700011e-01 1.40512466e-01 1.90560743e-01 1.69845954e-01 1.99366987e-01 1.93823531e-01 1.97255194e-01 2.02556983e-01 2.91041248e-02 4.32814993e-02 1.07424282e-01 2.90618781e-02 2.79208541e-01 2.79103965e-01 2.39839822e-01 2.82420665e-01 2.85957724e-01 2.73153335e-01 2.80125529e-01 2.56130427e-01 3.48343849e-01 3.03564548e-01 3.03770840e-01 2.68038660e-01 2.48690277e-01 6.40505850e-02 1.34059504e-01 5.50219752e-02 2.90455781e-02 3.77971046e-02 4.65482660e-02 2.15521351e-01 2.05517814e-01 2.01103061e-01 1.68423891e-01 1.89943656e-01 1.16942987e-01 1.90790594e-01 1.96840882e-01 2.53054816e-02 6.24680519e-02 2.90601347e-02 2.05773208e-02 2.37870172e-01 2.34210104e-01 2.39338934e-01 2.18072399e-01 2.35656440e-01 2.37460569e-01 2.30693877e-01 3.03941250e-01 2.76215225e-01 2.66416371e-01 2.45119661e-01 2.24433050e-01 1.51561812e-01 1.75928429e-01 1.70808598e-01 1.65998489e-01 7.18835294e-02 2.90463082e-02 1.96469337e-01 2.05954105e-01 2.00972036e-01 1.58466101e-01 1.77203968e-01 1.03884868e-01 1.85917825e-01 3.79207022e-02 2.90524550e-02 2.21226867e-02 2.76293643e-02 2.19523385e-01 2.14136094e-01 2.05037579e-01 2.12605372e-01 2.10475147e-01 2.09874541e-01 2.56696761e-01 2.43143022e-01 2.27868855e-01 2.10408181e-01 2.02751368e-01 1.93435043e-01 1.87213093e-01 1.81397542e-01 9.00063813e-02 2.04129919e-01 2.00020447e-01 2.15304881e-01 2.09114522e-01 2.46915728e-01 2.27490261e-01 2.74617523e-01 3.19874138e-02 1.90116525e-01 1.97469518e-01 2.00830773e-01 1.51315659e-01 8.15783218e-02 1.75534159e-01 2.74970606e-02 4.54599634e-02 2.50542685e-02 2.53597237e-02 1.98425502e-01 2.04357862e-01 2.01042578e-01 1.99426398e-01 2.01773107e-01 1.95814595e-01 2.29589283e-01 2.17645198e-01 2.12905228e-01 2.05690086e-01 1.96846634e-01 1.96111202e-01 3.29283118e-01 1.09982729e-01 1.43953472e-01 2.06847504e-01 2.78910488e-01 3.21656726e-02 1.88613102e-01 1.95472017e-01 1.33961380e-01 8.82213190e-02 1.67765290e-01 3.04098018e-02 2.59093642e-02 6.15726225e-02 4.13092412e-02 1.93174541e-01 1.90529853e-01 1.94398046e-01 1.92952484e-01 1.90991133e-01 1.80394858e-01 2.12198943e-01 2.07662314e-01 2.01792613e-01 1.85480550e-01 1.94195688e-01 1.82966411e-01 4.31180835e-01 3.68122488e-01 5.29924095e-01 1.18393205e-01 2.46027723e-01 4.14746478e-02 1.87057555e-01 1.34139627e-01 1.11658610e-01 1.65289760e-01 5.97371720e-02 5.78195155e-02 9.05667841e-02 1.36324197e-01 3.78139317e-01 2.80962735e-01 1.84632510e-01 1.84059441e-01 1.78741932e-01 1.70267880e-01 1.77049994e-01 1.58143833e-01 1.57193094e-01 2.03890041e-01 2.00750709e-01 1.97796866e-01 1.55642226e-01 1.88619941e-01 1.60416856e-01 1.36342064e-01 1.75242931e-01 1.51726604e-01 7.31798291e-01 6.85904026e-01 6.13438964e-01 4.94162589e-01 4.88421857e-01 7.55206823e-01 1.34706527e-01 1.82778612e-01 5.74658327e-02 7.63840675e-02 1.75352871e-01 1.55863583e-01 9.66334939e-02 1.27558887e-01 1.55042753e-01 3.81818682e-01 2.62263983e-01 1.76567659e-01 1.76649764e-01 1.71590999e-01 1.36739761e-01 9.91586149e-02 1.55508727e-01 1.23247281e-01 1.96043119e-01 1.91043198e-01 1.15332633e-01 1.86198384e-01 1.77540049e-01 1.19761109e-01 6.78535178e-02 1.52732804e-01 1.10428408e-01 6.19429767e-01 4.86932665e-01 7.84516573e-01 7.70058036e-01 6.14224851e-01 6.83946386e-02 1.25299379e-01 8.63032937e-02 1.02509812e-01 1.67029619e-01 1.20092854e-01 1.39455900e-01 1.58950657e-01 2.20439881e-01 3.66830379e-01 9.98571143e-02 1.69416800e-01 1.70940399e-01 1.67114660e-01 8.26554820e-02 4.22815457e-02 1.51095659e-01 6.83033317e-02 1.16659991e-01 1.55915424e-01 8.01288635e-02 1.81499064e-01 1.76941469e-01 1.68365046e-01 7.51905441e-02 2.78438050e-02 4.29795794e-02 1.27524883e-01 1.54544100e-01 6.49918243e-02 9.07655060e-02 5.72786570e-01 4.00691390e-01 8.78137648e-02 1.05570048e-01 1.61727130e-01 1.21955045e-01 1.41272992e-01 8.89513493e-02 3.03291112e-01 1.51762411e-01 1.63440078e-01 1.64571509e-01 1.49415478e-01 3.02650612e-02 2.71178223e-02 4.56918702e-02 1.24108650e-01 7.92757869e-02 1.31161690e-01 1.68235153e-01 1.72521576e-01 1.61663190e-01 2.90601347e-02 2.36609485e-02 5.00760004e-02 3.33974138e-02 2.91429292e-02 2.90524550e-02 1.46080792e-01 1.12787262e-01 1.29585326e-01 2.91451998e-02 6.09381869e-02 8.54547024e-02 2.21309617e-01 2.73900062e-01 9.97936502e-02 1.38713211e-01 1.21269733e-01 1.03963107e-01 8.98121297e-02 1.27500221e-01 1.40599728e-01 1.45715088e-01 1.32075354e-01 1.28177688e-01 2.74368338e-02 2.44593844e-02 2.87244990e-02 5.07059544e-02 9.22131538e-02 1.08832665e-01 2.90618781e-02 2.91041248e-02 2.90463082e-02 1.00420691e-01 1.30514100e-01 1.06283501e-01 2.91187596e-02 5.37770987e-02 8.57873932e-02 7.28044063e-02 2.22258911e-01 1.75180465e-01 1.49361506e-01 2.23208204e-01 7.33926669e-02 8.55163932e-02 1.19993620e-01 9.99915898e-02 1.16864845e-01 9.94292274e-02 1.24061063e-01 1.13893315e-01 1.11053839e-01 1.03418641e-01 2.09630020e-02 3.43804322e-02 3.50032188e-02 7.62766004e-02 2.90455781e-02 1.15467399e-01 8.57873932e-02 1.00420691e-01 4.30208594e-02 1.15467399e-01 1.30514100e-01 5.69961369e-02 1.46080792e-01 7.12763965e-02 1.61663190e-01 2.90751979e-02 5.28151914e-02 7.12763965e-02 1.86492115e-01 1.48367047e-01 2.22175255e-01 1.17025197e-01 8.37775990e-02 1.02781408e-01 1.17122516e-01 1.03543162e-01 9.50399265e-02 8.57036039e-02 8.56069550e-02 7.56394863e-02 4.30208594e-02 3.77847366e-02 1.68235153e-01 1.86198384e-01 1.91043198e-01 2.90455781e-02 1.96043119e-01 1.72521576e-01 5.69961369e-02 1.76941469e-01 1.81499064e-01 2.00750709e-01 1.68308869e-01 2.20092595e-01 1.48465484e-01 8.22980776e-02 1.22544609e-01 8.15512687e-02 7.77096525e-02 7.87885934e-02 1.56890839e-01 1.66306615e-01 2.03890041e-01 2.07662314e-01 2.12198943e-01 2.17645198e-01 1.66907355e-01 4.19368297e-01 2.27786660e-01 2.27481559e-01 1.95979148e-01 3.36434990e-01 2.05835044e-01 1.84853166e-01 2.46771410e-01 2.29589283e-01 2.43143022e-01 2.76215225e-01 2.56696761e-01 3.03941250e-01 7.16363370e-01 5.80612123e-01 4.19611454e-01 7.83769369e-01 7.75914788e-01 3.15051317e-01 3.38994890e-01 3.72586071e-01 3.06718349e-01 3.48343849e-01 7.67909408e-01 5.83704650e-01 7.59662628e-01 7.51394808e-01 4.17271793e-01 4.24407244e-01 4.75798458e-01 4.28132206e-01 6.15429759e-01 7.37399578e-01 5.21090090e-01 5.23521781e-01 6.55666053e-01 7.07588911e-01 5.90153933e-01 
