# vtk DataFile Version 2.0
results_case1/1616747839/sol_toll1e-05_vf0.3_iter5.vtk, Created by Freefem++ 
ASCII
DATASET UNSTRUCTURED_GRID
POINTS 461 float
1 1 0
0.67748023 1 0
0.79053817 0.98900334 0
1 0.98162691 0
0 0.98162691 0
0.4583916 1 0
0.57476371 0.98339735 0
0.75618085 0.97510218 0
1 0.96779905 0
0.29054438 1 0
0 1 0
0.012530842 0.99081346 0
0 0.96779905 0
0.43278574 0.97882059 0
0.32573981 0.98490361 0
0.57589875 0.96557378 0
1 0.95398627 0
0.75054191 0.95945963 0
1 0.93569417 0
0.16948887 1 0
0.21865544 0.98595569 0
0.097386197 1 0
0 0.74591183 0
0 0.85850535 0
0 0.81490596 0
0.025061684 1 0
0.017615954 0.97769311 0
0 0.95398627 0
0.054882417 1 0
0 0.88668716 0
0 0.9119336 0
0 0.93569417 0
0.44039464 0.95761351 0
0.32934778 0.96060284 0
0.23375011 0.96439629 0
0.53910967 0.94511025 0
0.74392761 0.94275504 0
1 0.9119336 0
0.79387544 0.92342595 0
0.11592183 0.97499109 0
0.15516327 0.96511865 0
0.061691674 0.95597516 0
0.079128343 0.94971768 0
0.010168827 0.74678923 0
0 0.68988816 0
0.020159283 0.74832427 0
0.012862798 0.83200345 0
0.033140817 0.97101366 0
0.018496248 0.94773344 0
0.042790101 0.94983393 0
0.014686724 0.90182177 0
0.18349434 0.9423972 0
0.36429496 0.93715087 0
0.25860837 0.93541006 0
0.41209827 0.9224127 0
0.57023137 0.92472069 0
1 0.88668716 0
0.8486477 0.8901688 0
0.62167465 0.90317072 0
0.75867936 0.89902471 0
0.10212601 0.93724974 0
0.13612414 0.92902682 0
0.043615927 0.89407542 0
0.056995256 0.89832461 0
0.0783123 0.90261779 0
0 0.54219203 0
0 0.57157395 0
0 0.58431851 0
0 0.55819455 0
0.01243309 0.6728204 0
0 0.604331 0
0 0.63921449 0
0.023036957 0.67173067 0
0.028769761 0.71898081 0
0.024694687 0.82906855 0
0.030256439 0.89813258 0
0.1896878 0.90814417 0
0.27638924 0.90855131 0
0.33535312 0.89779457 0
0.45188965 0.89581378 0
0.51580049 0.87591979 0
1 0.85850535 0
0.82271679 0.86139168 0
0.70458507 0.86687813 0
0.59942434 0.86655332 0
0.12016037 0.89319212 0
0.090933112 0.85728897 0
0.037058842 0.82925242 0
0.047462083 0.82017085 0
0.064564674 0.83996868 0
0 0.52878842 0
0.017224933 0.5588534 0
0.016597979 0.59472332 0
0.017927753 0.57640648 0
0.017090496 0.62344857 0
0.029147104 0.63524791 0
0.034170326 0.66452414 0
0.03368404 0.76220568 0
0 0.51308769 0
0 0.4390763 0
0 0.45076462 0
0 0.46368261 0
0.15332296 0.86779208 0
0.20450527 0.87753927 0
0.2442851 0.866918 0
0.33042608 0.86312737 0
0.40630633 0.84577673 0
0.47942689 0.83172303 0
0.88490717 0.83510104 0
0.78695556 0.82670167 0
1 0.81490596 0
0.6165626 0.83741669 0
0.69743437 0.82624992 0
0.5358334 0.81520026 0
0.34322651 0.79255097 0
0.39918734 0.78747371 0
0.12200603 0.82991238 0
0.086477963 0.78844319 0
0.043365796 0.73281228 0
0.059081517 0.75405108 0
0.019389313 0.5417155 0
0.030103244 0.56970945 0
0.028774406 0.59571986 0
0.036665893 0.61249543 0
0.040678044 0.66192755 0
0 0.41438713 0
0 0.4244928 0
0 0.43148074 0
0 0.47573947 0
0 0.49149868 0
0.016848552 0.51430461 0
0.017987352 0.47218019 0
0.016367018 0.45747708 0
0.16943021 0.82629494 0
0.22761886 0.82194193 0
0.29517238 0.81184337 0
0.9210084 0.78862381 0
0.46226023 0.77802403 0
0.75631046 0.78648367 0
0.84528718 0.77874989 0
1 0.74591183 0
0.60895955 0.79472397 0
0.68728109 0.77003219 0
0.5407368 0.76341637 0
0.27532601 0.74255044 0
0.33034993 0.73226017 0
0.40106516 0.73058945 0
0.11677625 0.75665646 0
0.077754675 0.70494547 0
0.053734842 0.66970428 0
0.031853828 0.54437807 0
0.039488952 0.57607667 0
0.046784578 0.61059352 0
0 0.39644395 0
0 0.31842743 0
0 0.36436922 0
0.014434353 0.41782789 0
0.019588898 0.44181289 0
0.020442331 0.4884813 0
0.030614182 0.50934223 0
0.029159002 0.46868021 0
0.16294423 0.76183691 0
0.21587738 0.75553656 0
0.1235063 0.69036693 0
0.91351878 0.73149453 0
0.48152286 0.7266539 0
0.76297933 0.72601189 0
0.81706649 0.73178937 0
0.22066868 0.68851269 0
1 0.68988816 0
0.86338357 0.69644578 0
0.92249578 0.67532259 0
0.63263298 0.73681245 0
0.72074947 0.70023842 0
0.58151906 0.70526317 0
0.27315798 0.6671497 0
0.34411992 0.68184027 0
0.44526367 0.6756061 0
0.091230245 0.63978672 0
0.065332483 0.61175803 0
0.04118544 0.53065357 0
0.052546665 0.5602605 0
0 0.26583242 0
0.015839007 0.38367414 0
0.012915636 0.32751756 0
0.025933471 0.4139392 0
0.031159254 0.44453751 0
0.039818728 0.48661835 0
0.038765368 0.46176792 0
0.16525828 0.66504164 0
0.12059813 0.58988686 0
0.53262355 0.67611743 0
0.38459913 0.64459295 0
0.80398775 0.66915925 0
0.20724551 0.6131983 0
0.25203645 0.58374187 0
1 0.63921449 0
0.93691631 0.62790486 0
0.86403765 0.63867548 0
0.67558827 0.66955557 0
0.74997246 0.6453222 0
0.63154504 0.64305018 0
0.31287916 0.61527343 0
0.56037595 0.62644721 0
0.49257595 0.61418721 0
0.092682578 0.52798275 0
0.072938664 0.52846535 0
0.054636197 0.50132918 0
0 0.088631008 0
0 0.11438492 0
0 0.19674668 0
0.010821607 0.24574301 0
0 0.145134 0
0.025802546 0.35218868 0
0.02084416 0.27819527 0
0.038470631 0.42949206 0
0.03313417 0.40270408 0
0.0480323 0.44069915 0
0.15646403 0.5429005 0
0.11865778 0.46314249 0
0.39900515 0.60396334 0
0.81217176 0.61173702 0
0.19788814 0.51668395 0
0.23944785 0.50006468 0
0.30182078 0.54075649 0
1 0.604331 0
0.9388508 0.58918898 0
0.88576284 0.59894174 0
0.72736876 0.60861013 0
0.66188255 0.59624775 0
0.50733138 0.56955647 0
0.3900943 0.5662302 0
0.60584856 0.57213192 0
0.091351001 0.39846121 0
0.06601906 0.43497543 0
0 0.064460193 0
0.032847068 0.34156874 0
0.014822575 0.11812084 0
0.015184208 0.18348511 0
0.027176715 0.25165336 0
0.051975125 0.36724386 0
0.040241215 0.37152009 0
0.15776556 0.42029036 0
0.13085542 0.34268107 0
0.11114115 0.2914678 0
0.39920058 0.52977404 0
0.85429888 0.5788126 0
0.79292985 0.57497409 0
0.19761472 0.41252384 0
0.23610187 0.41786871 0
0.28136168 0.46620173 0
0.35604966 0.49048693 0
1 0.58431851 0
0.94159311 0.56922475 0
0.89183396 0.56629711 0
0.71968754 0.56081032 0
0.53658004 0.53611475 0
0.65817048 0.53133595 0
0.091788613 0.26637664 0
0.070929612 0.33083381 0
0 0.019232461 0
0 0.045995807 0
0 0.032530805 0
0.017267918 0.072617664 0
0.034496669 0.25528086 0
0.026882712 0.15184818 0
0.05540148 0.26673308 0
0.042719197 0.26798847 0
0.18215919 0.30593061 0
0.15042505 0.24400885 0
0.12508508 0.20707783 0
0.48610932 0.50513046 0
0.84328001 0.55133159 0
0.79125075 0.54358174 0
0.23079964 0.33289992 0
0.33746066 0.43090239 0
0.27675762 0.39002921 0
0.44961901 0.4670547 0
1 0.57157395 0
0.94556837 0.55602698 0
0.9058631 0.55102163 0
0.86680496 0.53415243 0
0.75487591 0.51909896 0
0.68764497 0.49863237 0
0.58777149 0.49299816 0
0.2408029 0.24422224 0
0.10168311 0.17760173 0
0.072528461 0.21660416 0
0 0 0
0.020147966 0.03336277 0
0.031385996 0.081452349 0
0.037765279 0.15387998 0
0.052006901 0.16750325 0
0.20071993 0.21139933 0
0.14535585 0.14341033 0
0.16815717 0.17431759 0
0.8230739 0.52059559 0
0.28019069 0.32547875 0
0.27872051 0.26461999 0
0.41682689 0.41737653 0
0.33220239 0.36062619 0
0.54487404 0.45147385 0
1 0.55819455 0
0.9586408 0.5470298 0
0.92355272 0.53816247 0
0.89287721 0.52993785 0
0.86833832 0.50733303 0
0.84227694 0.49620116 0
0.74395011 0.48356201 0
0.79955652 0.48971455 0
0.66106055 0.46043093 0
0.32621052 0.20765935 0
0.28289373 0.17626371 0
0.11191075 0.1143737 0
0.075774183 0.13785732 0
0.025061684 0 0
0.0418463 0.039269606 0
0.060318868 0.096538503 0
0.046335239 0.090560525 0
0.23213921 0.14880043 0
0.16953614 0.096307688 0
0.20664957 0.12098981 0
0.32734053 0.28025546 0
0.40847696 0.36908703 0
0.50275974 0.40769636 0
0.38244467 0.32153641 0
0.59457142 0.41856999 0
0.31582619 0.12681111 0
1 0.54219203 0
0.95914875 0.53415442 0
0.90698769 0.5184815 0
0.93584039 0.52056807 0
0.88466437 0.49986938 0
0.86238931 0.47399732 0
0.67623646 0.4161133 0
0.82455841 0.46401905 0
0.75772134 0.45365134 0
0.38415728 0.22294303 0
0.41071103 0.175516 0
0.38910608 0.14507339 0
0.19847105 0.06363392 0
0.12634754 0.070085906 0
0.085997233 0.077178293 0
0.054882417 0 0
0.068365915 0.043917341 0
0.1495154 0.043741935 0
0.2921038 0.10191451 0
0.25588792 0.084425146 0
0.37995178 0.26792057 0
0.48928545 0.35658117 0
0.44127466 0.29949761 0
0.58056725 0.37327477 0
0.44762307 0.24757981 0
0.62649268 0.3562125 0
0.40174507 0.10033646 0
1 0.52878842 0
0.9704023 0.51932532 0
0.94534505 0.50504222 0
0.91265311 0.49785195 0
0.88921534 0.47626436 0
0.85861095 0.44720139 0
0.88163667 0.45540621 0
0.75379073 0.41735902 0
0.70607488 0.37605524 0
0.81642211 0.43165926 0
0.4939153 0.11485467 0
0.47100475 0.19071185 0
0.51867271 0.14779877 0
0.30098473 0.05871237 0
0.23717897 0.037994772 0
0.10968503 0.03394731 0
0.097386197 0 0
0.17619152 0.021040835 0
0.39369729 0.075790569 0
0.42195542 0.053275161 0
0.51953036 0.30938827 0
0.51669295 0.21120428 0
0.57796769 0.29305637 0
0.50850597 0.25114268 0
0.65335152 0.31397374 0
0.55693205 0.083573352 0
0.72786213 0.3320393 0
1 0.51308769 0
0.97208085 0.49831501 0
0.9389155 0.48461213 0
0.91156248 0.47509642 0
0.87951974 0.42471322 0
0.90412813 0.45569487 0
0.89853991 0.44003123 0
0.78661054 0.38427934 0
0.84263538 0.40401388 0
0.63148525 0.11035842 0
0.5796513 0.18198114 0
0.6385388 0.14247933 0
0.35695769 0.034586246 0
0.26596721 0.016368527 0
0.16948887 0 0
0.56091241 0.058323902 0
0.51843983 0.037114634 0
0.58652716 0.2401875 0
0.66645153 0.26956162 0
0.75985901 0.050501369 0
0.74543106 0.065947884 0
0.93275159 0.4254363 0
0.77816715 0.087210235 0
0.65451233 0.2175986 0
0.73644426 0.27523347 0
0.79070506 0.33518326 0
1 0.49149868 0
0.96474725 0.4763108 0
0.93025673 0.46222231 0
0.88908015 0.394337 0
0.93669788 0.40546589 0
0.92555869 0.44709921 0
0.94036063 0.43563135 0
0.85425364 0.35740298 0
0.79807056 0.11548892 0
0.68296435 0.17926356 0
0.73222076 0.14778231 0
0.40561798 0.016438273 0
0.29054438 0 0
0.56822119 0.022243372 0
0.72733147 0.038883204 0
1 0.045995807 0
1 0.064460193 0
1 0.41438713 0
1 0.4244928 0
1 0.088631008 0
0.7512874 0.22736022 0
0.81966373 0.29471108 0
0.9600335 0.45103759 0
1 0.47573947 0
0.95644016 0.45984407 0
0.93465594 0.3644784 0
1 0.39644395 0
1 0.43148074 0
0.95960026 0.44234465 0
0.90551427 0.31066777 0
1 0.11438492 0
[...]
CELL_DATA 920
Scalars  Label int 1
LOOKUP_TABLE FreeFempp_table
0
0
0
0
0
0
0
0
0
0
0
0
0
0
0
0
0
0
0
0
0
0
0
0
0
0
0
0
0
0
0
0
0
0
0
0
0
0
0
0
0
0
0
0
0
0
0
0
0
0
0
0
0
0
0
0
0
0
0
0
0
0
0
0
0
0
0
0
0
0
0
0
0
0
0
0
0
0
0
0
0
0
0
0
0
0
0
0
0
0
0
0
0
0
0
0
0
0
0
0
0
0
0
0
0
0
0
0
0
0
0
0
0
0
0
0
0
0
0
0
0
0
0
0
0
0
0
0
0
0
0
0
0
0
0
0
0
0
0
0
0
0
0
0
0
0
0
0
0
0
0
0
0
0
0
0
0
0
0
0
0
0
0
0
0
0
0
0
0
0
0
0
0
0
0
0
0
0
0
0
0
0
0
0
0
0
0
0
0
0
0
0
0
0
0
0
0
0
0
0
0
0
0
0
0
0
0
0
0
0
0
0
0
0
0
0
0
0
0
0
0
0
0
0
0
0
0
0
0
0
0
0
0
0
0
0
0
0
0
0
0
0
0
0
0
0
0
0
0
0
0
0
0
0
0
0
0
0
0
0
0
0
0
0
0
0
0
0
0
0
0
0
0
0
0
0
0
0
0
0
0
0
0
0
0
0
0
0
0
0
0
0
0
0
0
0
0
0
0
0
0
0
0
0
0
0
0
0
0
0
0
0
0
0
0
0
0
0
0
0
0
0
0
0
0
0
0
0
0
0
0
0
0
0
0
0
0
0
0
0
0
0
0
0
0
0
0
0
0
0
0
0
0
0
0
0
0
0
0
0
0
0
0
0
0
0
0
0
0
0
0
0
0
0
0
0
0
0
0
0
0
0
0
0
0
0
0
0
0
0
0
0
0
0
0
0
0
0
0
0
0
0
0
0
0
0
0
0
0
0
0
0
0
0
0
0
0
0
0
0
0
0
0
0
0
0
0
0
0
0
0
0
0
0
0
0
0
0
0
0
0
0
0
0
0
0
0
0
0
0
0
0
0
0
0
0
0
0
0
0
0
0
0
0
0
0
0
0
0
0
0
0
0
0
0
0
0
0
0
0
0
0
0
0
0
0
0
0
0
0
0
0
0
0
0
0
0
0
0
0
0
0
0
0
0
0
0
0
0
0
0
0
0
0
0
0
0
0
0
0
0
0
0
0
0
0
0
0
0
0
0
0
0
0
0
0
0
0
0
0
0
0
0
0
0
0
0
0
0
0
0
0
0
0
0
0
0
0
0
0
0
0
0
0
0
0
0
0
0
0
0
0
0
0
0
0
0
0
0
0
0
0
0
0
0
0
0
0
0
0
0
0
0
0
0
0
0
0
0
0
0
0
0
0
0
0
0
0
0
0
0
0
0
0
0
0
0
0
0
0
0
0
0
0
0
0
0
0
0
0
0
0
0
0
0
0
0
0
0
0
0
0
0
0
0
0
0
0
0
0
0
0
0
0
0
0
0
0
0
0
0
0
0
0
0
0
0
0
0
0
0
0
0
0
0
0
0
0
0
0
0
0
0
0
0
0
0
0
0
0
0
0
0
0
0
0
0
0
0
0
0
0
0
0
0
0
0
0
0
0
0
0
0
0
0
0
0
0
0
0
0
0
0
0
0
0
0
0
0
0
0
0
0
0
0
0
0
0
0
0
0
0
0
0
0
0
0
0
0
0
0
0
0
0
0
0
0
0
0
0
0
0
0
0
0
0
0
0
0
0
0
0
0
0
0
0
0
0
0
0
0
0
0
0
0
0
0
0
0
0
0
0
0
0
0
0
0
0
0
0
0
0
0
0
0
0
0
0
0
0
0
0
0
0
0
0
0
0
0
0
0
0
0
0
0
0
1
1
1
1
1
1
1
1
3
3
3
3
3
3
3
3
2
2
2
2
2
2
2
2
2
2
2
2
2
2
2
2
2
2
2
2
2
2
2
2
2
2
2
2
2
2
2
2
2
2
2
2
2
2
2
4
4
4
4
4
4
4
4
4
4
4
4
4
4
4
4
4
4
4
4
4
4
4
4
4
4
4
4
4
4
4
4
4
4
4
4
4
4
4

LOOKUP_TABLE FreeFempp_table 5
1.00000000 0.00000000 0.00000000 1.00000000
1.00000000 1.00000000 0.00000000 1.00000000
1.00000000 0.00000000 1.00000000 1.00000000
0.00000000 1.00000000 0.00000000 1.00000000
0.00000000 1.00000000 1.00000000 1.00000000

POINT_DATA 461
FIELD FieldData 1
Density 1 461 float
3.74501542e-05 3.89709494e-05 1.42454344e-04 3.17486178e-04 3.17486178e-04 4.01913312e-05 1.93528045e-04 4.76078480e-04 8.91263713e-04 3.91457579e-05 3.74501542e-05 1.07285960e-04 8.91263713e-04 1.85454541e-04 8.01696369e-05 6.12513511e-04 1.47984619e-03 1.11551443e-03 2.19036895e-03 3.78400800e-05 4.05649116e-05 3.75001109e-05 3.16492110e-01 1.08576920e-02 4.21373174e-02 3.70229754e-05 1.72208544e-04 1.47984619e-03 3.73552102e-05 5.28092915e-03 3.24627990e-03 2.19036895e-03 5.57553896e-04 2.65433948e-04 1.05525171e-04 1.32603256e-03 1.73651916e-03 3.24627990e-03 2.58698245e-03 2.88114570e-05 4.55359841e-05 3.27232810e-05 2.92748209e-05 3.86758856e-02 7.77933359e-01 3.45850317e-03 3.04406858e-03 4.87510006e-05 2.89378513e-04 3.66075219e-05 6.43779640e-04 1.68762635e-04 1.04195531e-03 4.80746530e-04 1.66462641e-03 2.09522876e-03 5.28092915e-03 4.33019223e-03 2.71790475e-03 3.25267832e-03 5.18838533e-05 1.24968588e-04 3.45791341e-05 4.77655303e-05 7.45742582e-05 1.22746542e-01 9.91910696e-01 9.94762063e-01 9.11508381e-01 1.20171882e-01 9.90336299e-01 9.62282181e-01 4.65150317e-03 4.53189947e-04 3.29390168e-04 6.51460650e-05 5.87877003e-04 1.26994879e-03 1.94033841e-03 2.39635911e-03 3.11735761e-03 1.08576920e-02 7.83233531e-03 5.34341251e-03 4.16612625e-03 2.74932827e-04 2.68986973e-04 5.49989199e-05 8.82285822e-05 1.42780991e-04 1.19734425e-02 1.00505352e-02 1.69860229e-01 1.27174795e-01 9.17881355e-02 9.72464273e-04 1.64250610e-04 9.50149042e-05 4.73484863e-03 9.64862764e-01 4.64194626e-01 2.93912552e-02 8.86483293e-04 1.33967993e-03 1.94076286e-03 2.42326036e-03 3.10113677e-03 4.61825216e-03 1.94220990e-02 1.94654558e-02 4.21373174e-02 7.65116885e-03 1.42153185e-02 8.31745751e-03 3.61612090e-03 5.32481493e-03 8.70668213e-04 5.91413409e-04 1.59596442e-04 2.92763609e-04 8.06085474e-04 5.90413401e-04 1.95290113e-03 2.87505827e-04 2.07389152e-04 9.95002449e-01 9.95821834e-01 9.93585467e-01 6.96731079e-03 4.22454486e-03 9.12086165e-04 1.22176227e-03 2.39633061e-02 1.69764063e-03 2.30960874e-03 2.73529626e-03 8.75021517e-02 9.72889271e-03 5.68585619e-02 9.86638591e-02 3.16492110e-01 2.02589165e-02 6.15847223e-02 2.41435859e-02 3.46246292e-03 5.61168371e-03 1.14338268e-02 1.49357587e-03 8.83935834e-04 4.01147438e-04 2.88737792e-04 2.99967185e-04 3.52354895e-04 9.91001129e-01 8.18757951e-01 9.66801524e-01 3.23690444e-01 4.67830859e-02 6.98944728e-04 2.97331630e-04 7.48052611e-04 2.17569317e-03 2.58932356e-03 1.95772294e-03 3.87415856e-01 2.78065186e-02 2.75032073e-01 3.01413149e-01 3.04953894e-03 7.77933359e-01 6.29395306e-01 8.16349745e-01 9.43611190e-02 3.58525395e-01 1.14302859e-01 5.16691990e-03 1.05309905e-02 3.96195240e-02 1.47366861e-03 8.90775700e-04 3.08794639e-04 5.31746366e-04 4.02080476e-01 1.16034806e-01 8.35318044e-02 4.07265592e-03 5.78837236e-04 3.43821564e-04 3.02286993e-04 2.53030867e-03 2.19468842e-03 1.11649185e-01 2.49862187e-02 7.28343904e-01 3.37182917e-03 5.73958131e-03 9.62282181e-01 9.70078349e-01 9.27424192e-01 4.33713585e-01 7.56563246e-01 4.41514999e-01 1.15628215e-02 2.88928360e-01 1.47176713e-01 1.75203918e-03 1.24672509e-03 6.16827107e-04 3.23120621e-03 5.29514812e-03 6.07892610e-02 2.23100223e-02 1.22260768e-02 2.02642218e-03 3.13388905e-03 2.46786251e-04 2.35825995e-04 4.24075988e-04 2.64232070e-03 2.24285317e-03 4.41469029e-02 9.49591935e-01 3.50706046e-03 5.51734678e-03 1.28947794e-02 9.90336299e-01 9.93414998e-01 9.86292422e-01 8.56853724e-01 7.38657951e-01 2.49546438e-01 4.79878560e-02 6.11436009e-01 1.56757410e-03 9.56191856e-04 2.22985959e-03 1.96612265e-04 6.50805421e-04 2.10566306e-03 4.75021370e-04 4.36825270e-04 2.32899562e-04 2.61132978e-03 2.19979440e-03 1.53277011e-03 6.24669790e-02 9.89886582e-01 9.76588249e-01 3.22872424e-03 4.80074342e-03 9.73140541e-03 3.19880694e-02 9.94762063e-01 9.96155739e-01 9.95475829e-01 9.30597782e-01 3.97885472e-01 8.47856939e-01 1.00212661e-03 8.27732554e-04 3.43530352e-04 1.53572066e-03 9.51067312e-04 3.58264864e-04 1.38039715e-04 1.58497729e-04 3.09823663e-04 1.58523559e-04 2.61239149e-03 1.98361138e-03 1.34382490e-03 2.31915906e-01 9.93934572e-01 9.86990154e-01 3.52316000e-03 2.07503270e-02 7.18661398e-03 1.32800341e-01 9.91910696e-01 9.88090932e-01 9.95641410e-01 9.96540308e-01 9.78792191e-01 9.21293497e-01 6.24889135e-01 2.82285875e-03 6.14849792e-04 4.09272732e-04 3.74501542e-05 1.63869583e-04 5.55716397e-05 4.65745761e-05 1.04038634e-04 2.30843946e-03 8.92193406e-04 1.60738523e-03 9.94511545e-01 5.32682752e-03 3.64635140e-03 6.57620803e-02 1.28379017e-02 4.09175456e-01 9.11508381e-01 8.97758007e-01 9.68433499e-01 9.96053696e-01 9.96659577e-01 9.96067822e-01 9.73669171e-01 9.91970062e-01 8.55023801e-01 3.43109109e-03 2.58573191e-03 2.80580949e-04 1.62493059e-04 3.70229754e-05 3.99447927e-05 4.71706589e-05 3.56558703e-05 2.01494968e-03 5.65440219e-04 1.24734465e-03 6.34778896e-03 4.02683690e-02 1.98122278e-01 1.74708944e-02 5.43380618e-01 2.25495477e-03 1.22746542e-01 4.00055945e-01 9.80986893e-01 5.88025630e-01 9.92531061e-01 9.96231616e-01 8.14749241e-01 9.93839383e-01 9.73913789e-01 5.51061286e-03 3.84065486e-03 2.84707057e-03 2.82903173e-04 1.13101662e-04 6.37413323e-05 3.73552102e-05 3.53646865e-05 6.03841181e-05 1.72844238e-03 9.81384772e-04 8.95744283e-03 1.05007812e-01 2.73512732e-02 3.48091215e-01 1.29839601e-02 4.22363549e-01 2.19078641e-03 1.19734425e-02 1.09788716e-01 1.77905500e-01 9.05619621e-01 9.93490219e-01 9.94947255e-01 9.95966971e-01 9.44436014e-01 7.53800929e-01 9.86716747e-01 2.80501926e-03 6.28076680e-03 4.28150920e-03 5.97357925e-04 1.28124157e-04 3.58802827e-05 3.75001109e-05 4.68022408e-05 1.66441407e-03 8.59212305e-04 7.86831006e-02 1.16532668e-02 1.07796215e-01 2.47845184e-02 2.96240807e-01 2.36274372e-03 5.75117946e-01 4.73484863e-03 8.99486020e-02 5.44479668e-01 9.64584529e-01 9.93165851e-01 9.94068146e-01 9.95578289e-01 9.19034362e-01 9.79519963e-01 3.27593787e-03 1.00958180e-02 5.60138142e-03 2.46371055e-04 6.91052628e-05 3.78400800e-05 1.50597130e-03 6.08638162e-04 3.91115025e-02 1.39294446e-01 1.52848219e-03 2.19988241e-03 9.95356381e-01 2.83144647e-03 3.66826244e-02 2.43596405e-01 7.28970647e-01 4.22454486e-03 2.03475952e-01 9.20899808e-01 9.83301163e-01 9.92369413e-01 9.82546210e-01 9.95374322e-01 9.08643305e-01 4.49991599e-03 1.57046709e-02 8.09725188e-03 1.35240596e-04 3.91457579e-05 2.98861210e-04 1.04344182e-03 1.53572066e-03 2.22985959e-03 9.95002449e-01 9.95821834e-01 3.23120621e-03 8.12787116e-02 4.96958673e-01 8.50549221e-01 6.96731079e-03 5.83365142e-01 9.58557963e-01 9.91001129e-01 9.93585467e-01 9.76777494e-01 7.09369659e-01 5.29514812e-03 9.18143429e-03 2.91690025e-02 4.01913312e-05 1.95576475e-04 6.16461388e-04 9.51067312e-04 2.19381198e-01 4.64194626e-01 2.93912552e-02 8.18757951e-01 9.66801524e-01 9.64862764e-01 2.10723151e-02 4.02080476e-01 3.08949769e-01 1.22260768e-02 7.48661309e-02 3.89709494e-05 1.46618622e-04 3.43530352e-04 6.07892610e-02 3.74501542e-05 
