# vtk DataFile Version 2.0
results_case1/1616747839/sol_toll1e-05_vf0.3_iter6.vtk, Created by Freefem++ 
ASCII
DATASET UNSTRUCTURED_GRID
POINTS 726 float
0 0.57728948 0
0 0.58679423 0
0 0.5651357 0
0 0.57069565 0
0.0059607623 0.58793019 0
0 0.30584453 0
0 0.31944411 0
0 0.29223874 0
0 0.598877 0
0.0049073907 0.6224376 0
0.011043638 0.61179634 0
0 0.54875341 0
0 0.55464348 0
0 0.55987665 0
0.0091086837 0.5744854 0
0 0.40002911 0
0 0.34597423 0
0 0.35869288 0
0 0.33289353 0
0 0.37133359 0
0 0.38498488 0
0 0.41758345 0
0 0.43047313 0
0.0058842309 0.34889281 0
0 0.27863295 0
0 0.26504909 0
0 0.66020803 0
0 0.61259706 0
0 0.62549281 0
0 0.63735679 0
0 0.64878148 0
0 0.67187289 0
0.0051696523 0.6676718 0
0.0089910196 0.65465764 0
0 0.22650131 0
0 0.25181392 0
0 0.23891912 0
0 0.21445372 0
0 0.45506293 0
0 0.53450685 0
0 0.5420712 0
0 0.52586013 0
0.015734101 0.59045156 0
0.016882136 0.61873708 0
0.0099996646 0.5581052 0
0.016758758 0.57215749 0
0 0.51473666 0
0 0.44679129 0
0 0.43887004 0
0.0057304192 0.39339013 0
0.0072334299 0.42696809 0
0.010821878 0.38636439 0
0.0079882735 0.32522509 0
0 0.69569443 0
0 0.70807727 0
0 0.68368386 0
0 0.72087151 0
0.0061830218 0.71264912 0
0.012578024 0.67658802 0
0.019519582 0.64426069 0
0 0.17972821 0
0 0.19145597 0
0.0076066246 0.27622475 0
0 0.20283703 0
0 0.46393135 0
0.0082143923 0.45611873 0
0 0.47397202 0
0.011418345 0.54616366 0
0.0096469478 0.53334465 0
0.022220834 0.58967423 0
0.019739289 0.56192827 0
0.0077840385 0.51807944 0
0 0.50090471 0
0.010847576 0.44357914 0
0.013827658 0.42053658 0
0.015097004 0.31155895 0
0.01543687 0.38262872 0
0.013452985 0.33522651 0
0 0.73409374 0
0 0.74770855 0
0 0.7613846 0
0.0062070951 0.75073295 0
0.0086379852 0.76080007 0
0.028994357 0.59330773 0
0.024730456 0.61770902 0
0.015982015 0.71690908 0
0.022759256 0.67680504 0
0 0.15466145 0
0 0.16744594 0
0.0094385792 0.24319418 0
0 0.14131788 0
0.016303648 0.45555565 0
0.0098263839 0.46566144 0
0.013190038 0.47340402 0
0 0.48621089 0
0.0090302072 0.49820438 0
0.020055639 0.54360242 0
0.028631437 0.56974977 0
0.017854271 0.51789319 0
0.020266366 0.41494214 0
0.020417458 0.43893372 0
0.02425198 0.45163819 0
0.018544899 0.30106716 0
0.020618684 0.37210278 0
0 0.81361434 0
0 0.77478231 0
0 0.82670401 0
0 0.78795221 0
0 0.80090382 0
0 0.84110384 0
0.010337291 0.79935214 0
0.035372948 0.60604185 0
0.029368879 0.63714745 0
0.027178313 0.70793801 0
0.019650306 0.76077309 0
0 0.11014422 0
0 0.08939496 0
0.011871769 0.21471321 0
0 0.12661606 0
0.023709023 0.46187078 0
0.016860397 0.47958376 0
0.028219954 0.46898949 0
0.018817765 0.48930509 0
0.027760615 0.50441279 0
0.037574985 0.52584399 0
0.039872229 0.57269016 0
0.031686674 0.54543417 0
0.026351966 0.41240799 0
0.030996229 0.44230809 0
0.021812478 0.27439446 0
0.026220916 0.35987605 0
0 0.85699079 0
0 0.87510649 0
0.046147007 0.61084175 0
0.013676067 0.83882517 0
0 0.89755404 0
0.036906725 0.67911675 0
0.026636136 0.80981719 0
0 0 0
0 0.057465673 0
0.014763423 0.16833512 0
0.026942644 0.2395727 0
0.0212344 0 0
0.062120617 0.61063401 0
0.038047629 0.43081 0
0.039172526 0.46056294 0
0.035142929 0.47627167 0
0.0402192 0.48917848 0
0.047589422 0.44494787 0
0.053838721 0.50835719 0
0.053868226 0.55458556 0
0.035377018 0.39960862 0
0.033312288 0.3407841 0
0.053971105 0.67767016 0
0.013395824 0.91834965 0
0 0.93425696 0
0.0212344 1 0
0.040276146 0.80604983 0
0.026522444 0.12618856 0
0.039711101 0.27798278 0
0.050919186 0 0
0.086035255 0.66016267 0
0.081651293 0.57172837 0
0.052306275 0.41125809 0
0.070839876 0.4386844 0
0.061946789 0.4739222 0
0.084495127 0.51980936 0
0.051300313 0.35895618 0
0.062781413 0.77370339 0
0 1 0
0.050919186 1 0
0.10143229 0.82228269 0
0.12736265 0.70851904 0
0.055072625 0.22861804 0
0.077673467 0.15815681 0
0.094155256 0 0
0.1291496 0.58257542 0
0.084262523 0.39683465 0
0.11118495 0.46637834 0
0.076954789 0.33512912 0
0.094155256 1 0
0.16446501 1 0
0.19180984 0.84059907 0
0.19056956 0.7096593 0
0.20071444 0.61289182 0
0.10165966 0.27225934 0
0.13533295 0.16409929 0
0.16446501 0 0
0.17839175 0.49547829 0
0.14335836 0.36566988 0
0.28245945 1 0
0.31485242 0.89502295 0
0.31698164 0.81333827 0
0.27764365 0.73216739 0
0.24452691 0.50723062 0
0.28036895 0.66204906 0
0.25380982 0.57969965 0
1 0 0
0.73747091 0 0
0.19069435 0.26005955 0
0.23511936 0.14216285 0
0.28245945 0 0
0.47418744 0 0
0.22463407 0.4161009 0
0.24377615 0.31929273 0
0.47418744 1 0
0.47253124 0.90831894 0
0.5258962 0.87415689 0
0.27658668 0.46448423 0
0.41327518 0.7925525 0
0.34265103 0.72771293 0
0.29276751 0.53179444 0
0.34583978 0.68127401 0
0.30198135 0.57856246 0
0.3096423 0.62670634 0
1 0.057465673 0
0.77496088 0.070535891 0
1 0.08939496 0
0.54613918 0.082512421 0
0.32942976 0.20917292 0
0.37640498 0.11056031 0
0.63848992 0.11384877 0
0.39486782 0.22672324 0
0.29503701 0.33734589 0
0.3302283 0.28658886 0
0.38643474 0.27242044 0
0.28520806 0.39583942 0
0.73747091 1 0
0.51185881 0.82265686 0
0.61177835 0.86515806 0
0.75975534 0.92268524 0
0.31185289 0.44067356 0
0.30990855 0.48749186 0
0.48921741 0.78602699 0
0.40835209 0.73578293 0
0.33123331 0.51378576 0
0.33210697 0.55622901 0
0.39111192 0.68705175 0
0.35325292 0.64171324 0
0.33996967 0.59998915 0
1 0.11014422 0
0.81290714 0.11228624 0
1 0.14131788 0
1 0.12661606 0
0.74277825 0.14194981 0
0.46547259 0.19795928 0
0.48842957 0.15289205 0
0.63628246 0.14330534 0
0.65846485 0.16369308 0
0.50950296 0.21538132 0
0.45170263 0.24588921 0
0.41584808 0.28797492 0
0.3335867 0.35209571 0
0.3736015 0.31953826 0
0.33385243 0.39747091 0
0.34257388 0.42909796 0
1 1 0
0.61080155 0.83612106 0
1 0.93425696 0
0.77805859 0.88241211 0
0.34384422 0.46391452 0
0.35521958 0.49445072 0
0.42840062 0.69518525 0
0.60127262 0.81058734 0
0.50917964 0.76972884 0
0.44606841 0.72848803 0
0.36126022 0.53705364 0
0.36585139 0.57928257 0
0.38636125 0.64846169 0
0.41296951 0.66415647 0
0.37815006 0.61742417 0
0.84445406 0.14059469 0
1 0.15466145 0
0.88652291 0.15431615 0
0.74356236 0.16340416 0
0.57318485 0.18016527 0
0.56563841 0.20539329 0
0.53276235 0.23216058 0
0.66699586 0.1809596 0
0.4919472 0.26079816 0
0.44226175 0.29575751 0
0.40123971 0.33742013 0
0.37008655 0.37214438 0
0.39048812 0.39897436 0
0.36871115 0.42303138 0
0.70798845 0.84791033 0
0.37782402 0.50624142 0
1 0.89755404 0
0.82936873 0.86227026 0
0.47733392 0.72584352 0
0.37813529 0.46582806 0
0.46307429 0.70075396 0
0.44307892 0.67167454 0
0.7189465 0.82858122 0
0.61215474 0.79466316 0
0.53047993 0.75786923 0
0.39449033 0.53031958 0
0.38933116 0.56518632 0
0.40157671 0.60223043 0
0.41912765 0.63702979 0
0.54527474 0.25086885 0
1 0.16744594 0
1 0.17972821 0
0.80688298 0.16818052 0
0.88265516 0.17103207 0
0.73473033 0.18412 0
0.61987703 0.19976402 0
0.58739715 0.22339582 0
0.67447554 0.19921351 0
0.59153581 0.24167029 0
0.43633847 0.33358081 0
0.51659659 0.27943501 0
0.47760475 0.30280094 0
0.44325463 0.36362845 0
0.4124007 0.37366901 0
0.41468928 0.41202964 0
0.3977371 0.43883793 0
0.40239104 0.49301553 0
1 0.87510649 0
0.85627329 0.84665771 0
0.51920691 0.72876213 0
0.41448855 0.46497952 0
0.48123556 0.6894959 0
0.45732299 0.65239337 0
0.79119984 0.82606774 0
0.69442623 0.80346103 0
0.59743645 0.77040389 0
0.41460007 0.55345924 0
0.4223335 0.51921846 0
0.42344791 0.58449792 0
0.43932335 0.61694851 0
0.56062749 0.27184356 0
1 0.19145597 0
0.88880857 0.18367479 0
0.91060921 0.19433446 0
0.79921341 0.18800899 0
0.72092202 0.20375396 0
0.64685984 0.2203597 0
0.61711399 0.24821149 0
1 0.20283703 0
1 0.21445372 0
0.47251029 0.336244 0
0.51776762 0.30875933 0
0.46655546 0.37554005 0
0.44179585 0.40153299 0
0.4312854 0.43758189 0
0.43477966 0.49152411 0
1 0.85699079 0
0.89348303 0.83663223 0
0.58276831 0.7474768 0
0.53081859 0.71317472 0
0.44795952 0.46464828 0
0.49373838 0.67397039 0
0.47755774 0.63715973 0
0.8615492 0.82155892 0
0.77379281 0.8081998 0
0.71742058 0.79085365 0
0.65194132 0.77338072 0
0.44535603 0.57014879 0
0.4400681 0.54234699 0
0.45778544 0.52011301 0
0.46230558 0.59709201 0
0.60078473 0.27035117 0
0.56864304 0.29618862 0
0.8962512 0.20734131 0
0.76947914 0.20866515 0
0.83475099 0.20038434 0
0.70620116 0.22304034 0
0.64947197 0.25648573 0
0.66353084 0.23587628 0
0.88642418 0.22084782 0
1 0.22650131 0
0.92794565 0.22684185 0
1 0.23891912 0
1 0.25181392 0
0.49648328 0.34867033 0
0.53466207 0.32722425 0
0.49213502 0.38133026 0
0.47458373 0.41023052 0
0.46187946 0.43621682 0
0.46465582 0.48761246 0
1 0.84110384 0
0.60315864 0.73738319 0
0.54249733 0.70088013 0
0.48067471 0.46564769 0
0.48594464 0.50454998 0
0.52299394 0.67114386 0
0.51068435 0.64381422 0
0.49205765 0.61642448 0
0.91290621 0.81438404 0
0.826742 0.80401484 0
0.75881343 0.78750725 0
0.69040772 0.76632242 0
0.49014216 0.53744912 0
0.47240725 0.55980633 0
0.49732543 0.59271981 0
0.54932818 0.34104123 0
0.5834968 0.3153781 0
0.62019897 0.2846093 0
0.66610147 0.26870156 0
0.75326357 0.22762041 0
0.81537723 0.21868242 0
0.70180139 0.24678197 0
0.74854854 0.2419971 0
0.85924435 0.23592508 0
0.91979053 0.24045901 0
0.92433162 0.25497192 0
1 0.26504909 0
0.52016964 0.36546844 0
0.50589162 0.40451639 0
0.49845625 0.44095184 0
1 0.82670401 0
0.64190789 0.73975558 0
0.58118228 0.70385539 0
0.50987824 0.48119066 0
0.51195292 0.51824067 0
0.51891256 0.54921187 0
0.54953255 0.66428123 0
0.52827709 0.62667655 0
1 0.81361434 0
0.92215429 0.8011144 0
0.86371091 0.7951902 0
0.80694375 0.78678058 0
0.76530341 0.77130938 0
0.7043301 0.7492791 0
0.51125992 0.57051759 0
0.53334974 0.60024941 0
0.55012133 0.366838 0
0.57813936 0.34453575 0
0.62465036 0.3049574 0
0.61499759 0.32619922 0
0.66062741 0.28914419 0
0.70115573 0.27106902 0
0.80122133 0.23951105 0
0.74586462 0.25677079 0
0.8475934 0.25039166 0
0.84713913 0.26367393 0
0.89865651 0.26950064 0
1 0.27863295 0
0.93636765 0.27774656 0
1 0.29223874 0
0.53740835 0.39243117 0
0.52542358 0.4245851 0
0.53631166 0.45122886 0
0.645937 0.72535258 0
0.6008442 0.69251566 0
0.53930426 0.48079078 0
0.55795263 0.62660789 0
0.53828166 0.53442149 0
0.53793746 0.508794 0
[...]
CELL_DATA 1450
Scalars  Label int 1
LOOKUP_TABLE FreeFempp_table
0
0
0
0
0
0
0
0
0
0
0
0
0
0
0
0
0
0
0
0
0
0
0
0
0
0
0
0
0
0
0
0
0
0
0
0
0
0
0
0
0
0
0
0
0
0
0
0
0
0
0
0
0
0
0
0
0
0
0
0
0
0
0
0
0
0
0
0
0
0
0
0
0
0
0
0
0
0
0
0
0
0
0
0
0
0
0
0
0
0
0
0
0
0
0
0
0
0
0
0
0
0
0
0
0
0
0
0
0
0
0
0
0
0
0
0
0
0
0
0
0
0
0
0
0
0
0
0
0
0
0
0
0
0
0
0
0
0
0
0
0
0
0
0
0
0
0
0
0
0
0
0
0
0
0
0
0
0
0
0
0
0
0
0
0
0
0
0
0
0
0
0
0
0
0
0
0
0
0
0
0
0
0
0
0
0
0
0
0
0
0
0
0
0
0
0
0
0
0
0
0
0
0
0
0
0
0
0
0
0
0
0
0
0
0
0
0
0
0
0
0
0
0
0
0
0
0
0
0
0
0
0
0
0
0
0
0
0
0
0
0
0
0
0
0
0
0
0
0
0
0
0
0
0
0
0
0
0
0
0
0
0
0
0
0
0
0
0
0
0
0
0
0
0
0
0
0
0
0
0
0
0
0
0
0
0
0
0
0
0
0
0
0
0
0
0
0
0
0
0
0
0
0
0
0
0
0
0
0
0
0
0
0
0
0
0
0
0
0
0
0
0
0
0
0
0
0
0
0
0
0
0
0
0
0
0
0
0
0
0
0
0
0
0
0
0
0
0
0
0
0
0
0
0
0
0
0
0
0
0
0
0
0
0
0
0
0
0
0
0
0
0
0
0
0
0
0
0
0
0
0
0
0
0
0
0
0
0
0
0
0
0
0
0
0
0
0
0
0
0
0
0
0
0
0
0
0
0
0
0
0
0
0
0
0
0
0
0
0
0
0
0
0
0
0
0
0
0
0
0
0
0
0
0
0
0
0
0
0
0
0
0
0
0
0
0
0
0
0
0
0
0
0
0
0
0
0
0
0
0
0
0
0
0
0
0
0
0
0
0
0
0
0
0
0
0
0
0
0
0
0
0
0
0
0
0
0
0
0
0
0
0
0
0
0
0
0
0
0
0
0
0
0
0
0
0
0
0
0
0
0
0
0
0
0
0
0
0
0
0
0
0
0
0
0
0
0
0
0
0
0
0
0
0
0
0
0
0
0
0
0
0
0
0
0
0
0
0
0
0
0
0
0
0
0
0
0
0
0
0
0
0
0
0
0
0
0
0
0
0
0
0
0
0
0
0
0
0
0
0
0
0
0
0
0
0
0
0
0
0
0
0
0
0
0
0
0
0
0
0
0
0
0
0
0
0
0
0
0
0
0
0
0
0
0
0
0
0
0
0
0
0
0
0
0
0
0
0
0
0
0
0
0
0
0
0
0
0
0
0
0
0
0
0
0
0
0
0
0
0
0
0
0
0
0
0
0
0
0
0
0
0
0
0
0
0
0
0
0
0
0
0
0
0
0
0
0
0
0
0
0
0
0
0
0
0
0
0
0
0
0
0
0
0
0
0
0
0
0
0
0
0
0
0
0
0
0
0
0
0
0
0
0
0
0
0
0
0
0
0
0
0
0
0
0
0
0
0
0
0
0
0
0
0
0
0
0
0
0
0
0
0
0
0
0
0
0
0
0
0
0
0
0
0
0
0
0
0
0
0
0
0
0
0
0
0
0
0
0
0
0
0
0
0
0
0
0
0
0
0
0
0
0
0
0
0
0
0
0
0
0
0
0
0
0
0
0
0
0
0
0
0
0
0
0
0
0
0
0
0
0
0
0
0
0
0
0
0
0
0
0
0
0
0
0
0
0
0
0
0
0
0
0
0
0
0
0
0
0
0
0
0
0
0
0
0
0
0
0
0
0
0
0
0
0
0
0
0
0
0
0
0
0
0
0
0
0
0
0
0
0
0
0
0
0
0
0
0
0
0
0
0
0
0
0
0
0
0
0
0
0
0
0
0
0
0
0
0
0
0
0
0
0
0
0
0
0
0
0
0
0
0
0
0
0
0
0
0
0
0
0
0
0
0
0
0
0
0
0
0
0
0
0
0
0
0
0
0
0
0
0
0
0
0
0
0
0
0
0
0
0
0
0
0
0
0
0
0
0
0
0
0
0
0
0
0
0
0
0
0
0
0
0
0
0
0
0
0
0
0
0
0
0
0
0
0
0
0
0
0
0
0
0
0
0
0
0
0
0
0
0
0
0
0
0
0
0
0
0
0
0
0
0
0
0
0
0
0
0
0
0
0
0
0
0
0
0
0
0
0
0
0
0
0
0
0
0
0
0
0
0
0
0
0
0
0
0
0
0
0
0
0
0
0
0
0
0
0
0
0
0
0
0
0
0
0
0
0
0
0
0
0
0
0
0
0
0
0
0
0
0
0
0
0
0
0
0
0
0
0
0
0
0
0
0
0
0
0
0
0
0
0
0
0
0
0
0
0
0
0
0
0
0
0
0
0
0
0
0
0
0
0
0
0
0
0
0
0
0
0
0
0
0
0
0
0
0
0
0
0
0
0
0
0
0
0
0
0
0
0
0
0
0
0
0
0
0
0
0
0
0
0
0
0
0
0
0
0
0
0
0
0
0
0
0
0
0
0
0
0
0
0
0
0
0
0
0
0
0
0
0
0
0
0
0
0
0
0
0
0
0
0
0
0
0
0
0
0
0
0
0
0
0
0
0
0
0
0
0
0
0
0
0
0
0
0
0
0
0
0
0
0
0
0
0
0
0
0
0
0
0
0
0
0
0
0
0
0
0
0
0
0
0
0
0
0
0
0
0
0
0
0
0
0
0
0
0
0
0
0
0
0
0
0
0
0
0
0
0
0
0
0
0
0
0
0
0
0
0
0
0
0
0
0
1
1
1
1
1
1
1
1
3
3
3
3
3
3
3
3
2
2
2
2
2
2
2
2
2
2
2
2
2
2
2
2
2
2
2
2
2
2
2
2
2
2
2
2
2
2
2
2
2
2
2
2
2
2
2
2
2
2
2
2
2
2
2
2
2
2
2
2
2
2
2
2
2
2
2
2
2
2
2
2
2
2
2
2
2
2
4
4
4
4
4
4
4
4
4
4
4
4
4
4
4
4
4
4
4
4
4
4
4
4
4
4
4
4
4
4
4
4
4
4
4
4
4
4
4
4
4
4
4
4
4
4
4
4
4
4
4
4
4
4
4
4
4
4
4
4
4
4
4
4
4
4
4
4
4
4

LOOKUP_TABLE FreeFempp_table 5
1.00000000 0.00000000 0.00000000 1.00000000
1.00000000 1.00000000 0.00000000 1.00000000
1.00000000 0.00000000 1.00000000 1.00000000
0.00000000 1.00000000 0.00000000 1.00000000
0.00000000 1.00000000 1.00000000 1.00000000

POINT_DATA 726
FIELD FieldData 1
Density 1 726 float
9.99989569e-01 9.99989569e-01 9.99926865e-01 9.99983490e-01 9.80354428e-01 9.87688303e-01 9.98451889e-01 9.02551293e-01 9.99989569e-01 9.88364637e-01 1.63902447e-01 2.54073858e-01 9.91286814e-01 9.99826312e-01 7.36753583e-01 9.99989569e-01 9.99756455e-01 9.99917984e-01 9.99374628e-01 9.99965370e-01 9.99979615e-01 9.99989569e-01 9.99989569e-01 7.99276173e-01 5.17440915e-01 1.15469605e-01 9.99600291e-01 9.99981761e-01 9.99967456e-01 9.99951482e-01 9.99851465e-01 9.99006391e-01 7.66480327e-01 1.07785605e-01 2.84468522e-03 3.40779312e-02 9.74149536e-03 8.35484301e-04 2.63286736e-02 1.03594968e-04 4.72951680e-04 1.22516667e-05 3.42707220e-03 3.73034563e-04 6.31102324e-02 8.93965596e-04 1.07834503e-05 9.36301887e-01 9.99954760e-01 9.73320663e-01 9.50123370e-01 1.03005268e-01 6.63563237e-02 9.90112126e-01 9.28429663e-01 9.97596145e-01 6.11769378e-01 5.96001484e-02 4.10558714e-04 9.98467876e-05 6.60787773e-05 9.34504933e-05 1.41919730e-03 2.34368970e-04 3.58927864e-05 1.50245335e-03 1.37850375e-05 1.12919224e-05 1.13550313e-05 2.22204661e-04 1.84351593e-05 1.05690078e-05 1.05690024e-05 1.24009363e-01 4.56906669e-02 1.09708628e-04 6.38717087e-04 2.13269945e-04 1.51414469e-01 2.15639975e-02 7.34535698e-03 5.64779795e-04 5.22543778e-05 1.05690169e-05 5.44732866e-05 1.01383062e-04 1.15905350e-05 2.43224185e-05 4.31779117e-05 6.78906144e-05 1.26327413e-05 6.96747884e-05 2.42409969e-05 1.05690160e-05 1.05690024e-05 1.05690069e-05 1.05690160e-05 2.13619496e-05 1.05690124e-05 1.07259478e-03 6.08936534e-05 3.72617214e-05 4.67627506e-05 1.22796031e-04 7.16620925e-05 2.51429947e-03 4.39097639e-05 8.54445563e-04 2.76123290e-04 2.73599053e-05 2.86657541e-05 1.05690269e-05 1.05690187e-05 1.05690160e-05 1.05689705e-05 1.05688614e-05 1.05688760e-05 2.26862412e-05 1.14968780e-05 2.12100931e-05 1.05690151e-05 1.05690233e-05 1.05690106e-05 1.05690160e-05 1.05690151e-05 1.05690297e-05 1.05690224e-05 1.05690115e-05 1.05690260e-05 1.05689987e-05 1.05690042e-05 1.26351570e-05 1.09079219e-05 1.05690278e-05 1.05689705e-05 1.05688950e-05 1.05690060e-05 1.05689642e-05 1.05687741e-05 1.05688778e-05 1.05689651e-05 1.05689778e-05 1.05689323e-05 1.05689878e-05 1.05690324e-05 1.05690369e-05 1.05690233e-05 1.05690187e-05 1.05690197e-05 1.05689996e-05 1.05690033e-05 1.05690242e-05 1.05690206e-05 1.05689878e-05 1.05690015e-05 1.05688969e-05 1.05689323e-05 1.05689551e-05 1.05689851e-05 1.05689796e-05 1.05686895e-05 1.05689096e-05 1.05689151e-05 1.05690042e-05 1.05689496e-05 1.05689796e-05 1.05689123e-05 1.05689942e-05 1.05689896e-05 1.05687741e-05 1.05686895e-05 1.05690051e-05 1.05689160e-05 1.05689805e-05 1.05690060e-05 1.05685385e-05 1.05687850e-05 1.05688796e-05 1.05688059e-05 1.05689278e-05 1.05685385e-05 1.05684549e-05 1.05690197e-05 1.05688550e-05 1.05687586e-05 1.05689396e-05 1.05690142e-05 1.05684549e-05 1.05687177e-05 1.05687823e-05 1.05683757e-05 1.05690197e-05 1.05689560e-05 1.05688960e-05 1.07858323e-05 1.07623509e-05 1.06978514e-05 1.05687741e-05 1.05685594e-05 1.05688769e-05 1.05690315e-05 1.05683757e-05 1.05683985e-05 1.05688359e-05 1.05688450e-05 1.05683985e-05 1.05688960e-05 1.05688860e-05 1.05687923e-05 1.05688496e-05 1.08373752e-05 1.31268334e-05 1.16358169e-05 1.27013773e-05 1.18851322e-05 1.05688778e-05 1.05687832e-05 1.05688760e-05 1.05688177e-05 1.05689251e-05 1.05689660e-05 1.05688105e-05 1.10770052e-05 1.14324084e-05 1.11186100e-05 1.27888916e-05 1.22227048e-05 1.05685594e-05 1.05688287e-05 1.05688241e-05 1.05687905e-05 1.74013985e-05 1.98933194e-05 1.21957473e-05 1.20009490e-05 2.72462221e-05 2.88805477e-05 2.49453387e-05 1.97959034e-05 2.82983492e-05 1.05688614e-05 1.05687768e-05 1.26327413e-05 1.14968780e-05 1.05688532e-05 1.09086923e-05 1.05688578e-05 1.05688405e-05 1.38474143e-05 1.26020986e-05 1.39062358e-05 2.31828944e-05 1.35487808e-05 1.79403796e-05 1.85211138e-05 2.76206101e-05 1.05687741e-05 1.05688732e-05 1.05688969e-05 1.05688732e-05 3.11575313e-05 4.14533097e-05 3.64344014e-05 1.71540687e-05 2.04917524e-05 2.33997180e-05 6.07494767e-05 4.95496242e-05 2.99469684e-05 3.99442761e-05 4.17594783e-05 1.05687668e-05 2.43224185e-05 1.66257960e-05 1.81165633e-05 1.05687732e-05 2.06707045e-05 2.73365222e-05 1.69423911e-05 3.94977724e-05 3.21791194e-05 4.31452536e-05 3.75333111e-05 7.57266971e-05 5.25217765e-05 1.26715149e-05 8.22671864e-05 1.05688950e-05 1.05708286e-05 3.32373602e-05 1.00900965e-04 4.40448966e-05 6.04991474e-05 1.58823295e-05 2.40996942e-05 2.89890959e-05 1.05732397e-04 7.31508771e-05 7.69592370e-05 1.10677145e-04 5.22684786e-05 4.31779117e-05 6.60787773e-05 2.43595405e-05 2.64143655e-05 2.86454197e-05 2.76788305e-05 3.94488998e-05 3.59671794e-05 6.58672652e-05 9.52250193e-05 8.57160121e-05 8.00671478e-05 1.32163579e-04 7.24330530e-05 1.13462811e-04 1.42361998e-04 2.89294287e-04 1.09079219e-05 1.65764450e-05 7.61080519e-05 2.67353433e-04 9.98276737e-05 1.60487747e-04 2.39023575e-05 4.37677409e-05 5.96178288e-05 3.24937137e-04 3.79050063e-04 2.67565600e-04 2.18122426e-04 1.48254054e-04 9.34504933e-05 5.75409285e-05 9.38730154e-05 4.47512539e-05 7.64594151e-05 5.06344222e-05 1.44662714e-04 2.34368970e-04 8.35484301e-04 1.68859828e-04 1.68188912e-04 3.70297988e-04 2.96278246e-04 2.65633949e-04 7.49150815e-04 1.26351570e-05 2.11757870e-05 1.08851789e-04 1.51892134e-04 5.59810433e-04 2.06047553e-04 3.86528263e-04 4.94812120e-05 5.00285823e-05 7.26994476e-05 8.44746901e-05 7.28665967e-04 1.17289857e-03 1.86583737e-03 6.94266171e-04 4.30910412e-04 3.26553767e-04 1.49983811e-04 9.88879328e-05 1.15257571e-04 1.09461675e-04 3.28719325e-04 1.76677131e-04 4.94519423e-04 2.84468522e-03 1.32423476e-03 9.74149536e-03 3.40779312e-02 3.29022907e-04 8.57703504e-04 8.00730893e-04 9.53214825e-04 1.72053871e-03 1.60796649e-03 2.73599053e-05 1.88791164e-04 2.48204364e-04 4.43596952e-03 4.62320168e-03 4.44773323e-04 1.67512160e-03 7.92886014e-04 7.57254675e-05 1.01192432e-04 9.54278003e-05 1.70928193e-04 1.34116793e-02 3.26308003e-03 2.12110719e-03 3.04472446e-03 2.47313897e-03 1.63110974e-03 6.64810825e-04 1.96878085e-04 4.73585271e-04 7.33849185e-04 6.25930843e-04 1.26040366e-03 4.35632374e-03 1.63660515e-02 1.15469605e-01 2.39082077e-03 2.79074186e-03 1.30214095e-02 4.39097639e-05 2.78874562e-04 4.40752076e-04 4.27894518e-02 2.60801408e-02 3.13981511e-02 1.64804386e-03 3.72034824e-03 7.16620925e-05 1.33372319e-04 1.61726988e-04 1.58200142e-04 4.34973801e-04 9.28276626e-04 8.63023102e-03 2.18119267e-02 9.01669171e-03 1.35376798e-02 3.85026494e-03 1.45324944e-02 2.88523873e-03 1.93450705e-03 9.53473849e-04 1.93130085e-03 3.63971223e-03 2.29396001e-02 9.65931267e-02 5.17440915e-01 3.46461773e-01 9.02551293e-01 2.26361286e-02 1.89033747e-02 9.13817436e-02 1.05778000e-03 2.41000857e-03 2.55077004e-01 1.30286645e-02 1.31528258e-01 1.80938035e-01 1.19720854e-01 9.20998957e-03 3.83908185e-03 1.26411661e-03 2.76123290e-04 2.18190748e-04 2.80021020e-04 1.13169989e-03 3.30670201e-03 1.24968715e-01 1.01130389e-01 5.09032793e-02 5.55692501e-02 1.74388550e-02 7.47846216e-02 2.62568314e-02 7.33787334e-03 1.97700895e-02 9.95327085e-02 5.14756620e-01 8.59825790e-01 9.87688303e-01 1.26534104e-01 3.81627113e-01 5.74349642e-01 1.02218622e-02 6.56359434e-01 5.22056557e-02 5.33025026e-01 5.39578080e-01 5.72485998e-02 1.36891855e-02 4.76371981e-02 3.17523777e-02 4.65479493e-03 8.54445563e-04 8.79972475e-04 1.26643002e-03 8.05926975e-03 1.40579995e-02 4.81791794e-01 5.94523787e-01 2.76338220e-01 3.68692666e-01 1.95184126e-01 5.75519502e-01 1.87161043e-01 9.83350098e-01 1.04508825e-01 4.80204791e-01 8.91937256e-01 9.95233238e-01 9.98451889e-01 7.29990065e-01 8.80121827e-01 9.48995113e-01 9.12015080e-01 2.22948998e-01 9.10525203e-01 9.19799387e-01 9.55116451e-01 3.82587254e-01 6.49138540e-02 1.86695501e-01 1.66013557e-02 2.51429947e-03 4.57976339e-03 3.16858999e-02 6.90373540e-01 1.73485249e-01 9.72220063e-01 9.31570113e-01 8.36807907e-01 7.22807109e-01 9.95766640e-01 9.40994322e-01 9.50792611e-01 8.04526806e-01 9.80707586e-01 8.33047092e-01 9.98397470e-01 9.99374628e-01 9.78331029e-01 9.92072284e-01 9.91710544e-01 9.90685463e-01 9.94265318e-01 9.11275506e-01 4.38302785e-01 6.44614100e-01 2.13427514e-01 7.34535698e-03 1.79867763e-02 9.95737374e-01 1.22711129e-01 9.37248170e-01 9.49019730e-01 6.10369027e-01 8.23854804e-01 9.90943491e-01 9.94997144e-01 9.77912486e-01 9.98762786e-01 9.94411588e-01 9.97921348e-01 9.85169470e-01 9.91014838e-01 9.99459624e-01 9.99756455e-01 9.97563601e-01 9.98555660e-01 9.98351038e-01 9.99275744e-01 9.99216259e-01 9.22915220e-01 4.77067947e-01 2.15639975e-02 1.51414469e-01 9.99447525e-01 9.99418080e-01 9.98969853e-01 6.11769378e-01 9.18822646e-01 7.31893480e-01 9.93622243e-01 9.71158266e-01 9.90992844e-01 9.98943627e-01 9.98212874e-01 9.99733150e-01 9.98721778e-01 9.98619676e-01 9.99869823e-01 9.99917984e-01 9.99455690e-01 9.99753237e-01 9.99809742e-01 9.99739885e-01 9.99685407e-01 9.99632001e-01 9.99850929e-01 9.28429663e-01 9.89064395e-01 9.66676474e-01 9.98164713e-01 9.98034477e-01 9.94827151e-01 9.99628901e-01 9.99661446e-01 9.99870420e-01 9.99813378e-01 9.99950051e-01 9.99965370e-01 9.99904335e-01 9.99887228e-01 9.99898970e-01 9.99915302e-01 9.99929130e-01 9.99823749e-01 9.99926627e-01 9.90112126e-01 9.98012125e-01 9.99360323e-01 9.99726713e-01 9.99412835e-01 9.99918997e-01 9.99979615e-01 9.99903142e-01 9.99934494e-01 9.99973238e-01 9.99970496e-01 9.99954522e-01 9.99969661e-01 9.99970853e-01 9.99973297e-01 9.99950290e-01 9.99006391e-01 9.97596145e-01 9.99866962e-01 9.99600291e-01 9.99732912e-01 9.99968648e-01 9.99948978e-01 9.99989569e-01 9.99987006e-01 9.99978423e-01 9.99980271e-01 9.99986291e-01 9.99982119e-01 9.99986589e-01 9.99988914e-01 9.99911785e-01 9.99851465e-01 9.99951482e-01 9.99967456e-01 9.99980927e-01 9.99989510e-01 9.99988616e-01 9.99989569e-01 9.99989569e-01 9.99988317e-01 9.99989569e-01 9.99989331e-01 9.99988556e-01 9.99989390e-01 9.99989569e-01 9.99981761e-01 9.99989569e-01 9.99989569e-01 9.99989569e-01 9.99989569e-01 9.99989569e-01 9.99954760e-01 9.99989569e-01 9.99989569e-01 9.99989569e-01 9.99989569e-01 9.99985814e-01 9.99989569e-01 9.99988496e-01 9.99989569e-01 9.99989569e-01 9.99987721e-01 9.99971390e-01 9.99973834e-01 9.95766222e-01 9.99962211e-01 9.36301887e-01 9.99976456e-01 9.99986172e-01 9.99988973e-01 9.99961197e-01 9.99988377e-01 9.99983490e-01 9.99907017e-01 9.99926865e-01 9.99758005e-01 9.83363152e-01 9.99785364e-01 9.96745825e-01 2.63286736e-02 9.99903560e-01 9.92475986e-01 9.99950767e-01 9.99733031e-01 9.91286814e-01 9.95390534e-01 9.99826312e-01 2.54073858e-01 9.39020962e-02 8.87573242e-01 9.92742479e-01 3.58927864e-05 2.70123780e-02 9.79260802e-01 4.25588012e-01 9.82930541e-01 5.70955873e-01 4.72951680e-04 6.74012769e-03 7.24976975e-03 3.10458183e-01 1.37850375e-05 4.30498214e-04 7.53702130e-04 2.08849367e-03 1.03594968e-04 7.86127115e-04 2.77915783e-03 1.05690024e-05 1.22516667e-05 2.82318244e-04 1.65062957e-04 9.30931783e-05 1.05690024e-05 1.07834503e-05 
