# vtk DataFile Version 2.0
results_case1/1616747839/sol_toll1e-05_vf0.3_iter1.vtk, Created by Freefem++ 
ASCII
DATASET UNSTRUCTURED_GRID
POINTS 481 float
1 0.49049613 0
0.97281553 0.50002666 0
0.97100217 0.48025068 0
1 0.47449418 0
1 0.51381877 0
1 0.43826111 0
1 0.46281014 0
1 0.44996983 0
0.94424441 0.4857765 0
0.97054938 0.51822299 0
0.94357169 0.50440556 0
0.96502258 0.4650848 0
0.93815072 0.46653995 0
1 0.53071432 0
1 0.43113573 0
0.96288552 0.44207858 0
0.96348314 0.4534129 0
0.91850024 0.49063598 0
0.91660442 0.47039882 0
0.936862 0.51917415 0
0.96511943 0.53154328 0
0.91035818 0.50353652 0
0.92850702 0.45008778 0
1 0.54278761 0
1 0.42530683 0
0.94120452 0.43449777 0
0.89498159 0.48091117 0
0.90281663 0.45581491 0
1 0.41742893 0
1 0.28643308 0
1 0.4033301 0
1 0.33772295 0
1 0.37840307 0
0.94729855 0.35136454 0
0.9167139 0.37318275 0
0.90745176 0.5192646 0
0.92984283 0.53395604 0
0.9610538 0.54389377 0
0.88366721 0.49675978 0
0.9014258 0.43900821 0
1 0.55506522 0
0.9362337 0.42226267 0
0.88183069 0.46192448 0
0.92924954 0.30188793 0
0.91958955 0.23831842 0
1 0.22794454 0
0.93905408 0.40117557 0
0.87314698 0.32824474 0
0.84815257 0.37165114 0
0.88645072 0.39789221 0
1 0.1690913 0
1 0 0
0.86005145 0.0095594518 0
1 0.016565749 0
0.79864952 0.34032443 0
0.89792287 0.53002918 0
0.92913769 0.54904063 0
0.9633424 0.55528623 0
0.86107408 0.47277999 0
0.87049021 0.50826109 0
0.86431436 0.44321623 0
0.88389912 0.42116647 0
1 0.56645408 0
0.84970213 0.25947751 0
0.84403911 0.19697441 0
0.91428559 0.16949032 0
0.81032579 0.28928343 0
0.78136188 0.38837142 0
0.83913897 0.40564833 0
1 0.12907328 0
0.69205489 0 0
0.72744784 0.015193728 0
1 0.029510107 0
0.74798078 0.2914229 0
0.72501942 0.33669802 0
0.9026886 0.55036581 0
0.86984672 0.53433716 0
0.95357769 0.56325733 0
0.82926447 0.46201295 0
0.84444452 0.49721479 0
0.82070175 0.43121153 0
1 0.57568139 0
0.76456035 0.18735005 0
0.73617749 0.22937033 0
0.81115056 0.14781228 0
0.88775457 0.12327049 0
0.70313132 0.38189411 0
0.75848729 0.42408671 0
1 0.098707835 0
0.46901162 0 0
0.58257958 0.022986412 0
0.78687656 0.026721008 0
0.79748861 0.036444017 0
1 0.042019904 0
0.67546092 0.26426422 0
0.64801622 0.31165408 0
1 0.059088545 0
1 0.075151173 0
0.57252478 0.29314588 0
0.62324636 0.35806973 0
0.89601761 0.56625245 0
0.93630239 0.56903601 0
0.82590355 0.52128619 0
0.8471448 0.55071067 0
0.7648354 0.45676559 0
0.80751183 0.49057463 0
1 0.58644048 0
0.66295713 0.16935606 0
0.7143462 0.14107575 0
0.63739014 0.20456091 0
0.7704227 0.11252568 0
0.67873979 0.42120358 0
0.76231192 0.085635542 0
0.32887198 0 0
0.40072556 0.017657913 0
0.51172882 0.035360724 0
0.64073753 0.040495837 0
0.75725278 0.052833133 0
0.58409202 0.23518397 0
0.74961702 0.067578231 0
0.51370869 0.30826164 0
0.51041484 0.24640928 0
0.57644672 0.37351652 0
0.39814622 0.033239155 0
0.50854248 0.20318205 0
0.75240126 0.48506026 0
0.44097635 0.29867219 0
0.93169258 0.58966326 0
0.86168633 0.57761587 0
0.75920492 0.51959249 0
0.79335474 0.5420593 0
0.79722263 0.57123835 0
0.66101556 0.46263065 0
1 0.60401215 0
0.61279805 0.13453591 0
0.56011277 0.17244104 0
0.61536071 0.10420736 0
0.59496003 0.42023421 0
0.5579354 0.076822261 0
0.2129262 0 0
0.26692092 0.019807545 0
0.31250079 0.038188144 0
0.54111738 0.055852311 0
0.41367578 0.05119541 0
0.4882362 0.36345594 0
0.44843108 0.23976467 0
0.45742306 0.18279317 0
0.69028897 0.50025847 0
0.38833222 0.2640336 0
0.38393457 0.32061476 0
0.42486721 0.3798705 0
0.2234574 0.044851276 0
0.88135285 0.60047 0
0.9316559 0.62277534 0
0.81308628 0.60878779 0
0.71825283 0.5614354 0
0.65746691 0.53196246 0
0.72582605 0.6070121 0
0.58058995 0.49042613 0
0.52209611 0.43491637 0
1 0.63375353 0
0.49112917 0.13934135 0
0.47893442 0.10495855 0
0.39545813 0.096462416 0
0.39984247 0.073531815 0
0.13470784 0 0
0.17457799 0.021797728 0
0.30321403 0.064139131 0
0.37539692 0.22099655 0
0.38845823 0.17248955 0
0.32503926 0.27932742 0
0.33879378 0.36190813 0
0.4156834 0.42179401 0
0.20312704 0.067949529 0
0.15917362 0.044224239 0
0 0.016565749 0
0 0 0
0 0.22794454 0
0 0.12907328 0
0 0.029510107 0
0 0.28643308 0
0.050313282 0 0
0 0.1690913 0
0.084440779 0 0
0.023842497 0 0
0.24914938 0.084264243 0
0.86412271 0.64156745 0
0.92976707 0.67346334 0
0.75190013 0.64347902 0
0.80426124 0.67254661 0
0.59604057 0.57333261 0
0.65387945 0.59740781 0
0.54356548 0.53394008 0
0.6753439 0.66728174 0
0.62767966 0.64528116 0
0.47809786 0.50469205 0
0.43135512 0.46930248 0
1 0.68088018 0
0.36515673 0.14210416 0
0.29924733 0.096077755 0
0.30943247 0.1237923 0
0.11101659 0.038762439 0
0.30635512 0.20826736 0
0.27008732 0.26603017 0
0.28354252 0.32859785 0
0.27706793 0.39249015 0
0.3393788 0.42837793 0
0.13617239 0.069872043 0
0.17190284 0.097053065 0
0.020422073 0.030173606 0
0.0098037017 0.23964254 0
0 0.098707835 0
0.010218011 0.1603815 0
0 0.042019904 0
0 0.33772295 0
0.010105945 0.32104846 0
0.071821905 0.043935907 0
0.042760265 0.038356479 0
0.21601478 0.11454833 0
0 0.4033301 0
0 0.075151173 0
0 0.37840307 0
0 0.059088545 0
0.86920011 0.70357375 0
1 0.74041629 0
0.92973969 0.75121168 0
0.72116035 0.70000014 0
0.76254495 0.73086715 0
0.81462832 0.74797758 0
0.57739043 0.62486142 0
0.50384966 0.61983714 0
0.48332877 0.57049781 0
0.40611544 0.53481292 0
0.57209589 0.70410562 0
0.63054522 0.73223198 0
0.51980673 0.67073628 0
0.3528454 0.50106615 0
0.2998072 0.46780989 0
0.26009677 0.17862638 0
0.23463354 0.14309156 0
0.091042692 0.080955239 0
0.22403318 0.24765889 0
0.23336764 0.32795438 0
0.23882982 0.41955558 0
0.11701858 0.11199585 0
0.15684574 0.14016678 0
0.031525595 0.073098225 0
0.016852379 0.06643142 0
0.019438415 0.19671006 0
0.019157426 0.29570206 0
0.013399767 0.10970077 0
0.014037041 0.36588664 0
0.047954006 0.089411713 0
0.063175357 0.097414406 0
0.17562549 0.16872959 0
0.013325169 0.4066923 0
0 0.41742893 0
0 0.42530683 0
0.021912819 0.39875809 0
0.86247562 0.7811299 0
1 0.81685134 0
0.90150698 0.83142368 0
0.68887956 0.76970649 0
0.75094489 0.79679467 0
0.79979026 0.82662195 0
0.42766643 0.67388379 0
0.42105895 0.61030987 0
0.36698552 0.57291454 0
0.29692293 0.53885429 0
0.54330076 0.76833816 0
0.47760876 0.72407938 0
0.6170993 0.78865135 0
0.23964359 0.49306994 0
0.17638486 0.2198575 0
0.075750057 0.14799362 0
0.17517596 0.30147422 0
0.20074322 0.39706374 0
0.10918388 0.16216702 0
0.12942144 0.2077004 0
0.036290868 0.14402429 0
0.025523347 0.14102031 0
0.026577658 0.26995438 0
0.026007153 0.36283637 0
0.049904595 0.16879602 0
0.01744318 0.43002102 0
0 0.43113573 0
0.027861833 0.41848285 0
0 0.43826111 0
0 0.46281014 0
0 0.44996983 0
1 0.86872489 0
0.82941657 0.87314216 0
0.69961549 0.83042311 0
0.3996907 0.73227009 0
0.3374527 0.68516362 0
0.36862132 0.6443964 0
0.31591888 0.61173 0
0.25037339 0.5815293 0
0.60131899 0.8292464 0
0.46331932 0.77904978 0
0.52934383 0.82192036 0
0.20005928 0.51449694 0
0.11963014 0.28245902 0
0.065742165 0.22532174 0
0.092178184 0.22505362 0
0.1608945 0.42410541 0
0.13029001 0.35226213 0
0.032622404 0.24296679 0
0.041056176 0.25528765 0
0.032373572 0.34041222 0
0.03350693 0.39937519 0
0.05349464 0.26972475 0
0.026774932 0.45049684 0
0.015289244 0.45204561 0
0.033339211 0.44234409 0
0.013867574 0.46868079 0
0 0.47449418 0
1 0.90190318 0
0.69303832 0.86935384 0
0.73847857 0.89987633 0
0.86089977 0.91054208 0
0.3306666 0.74169149 0
0.39981655 0.79144547 0
0.27483708 0.66653399 0
0.20809358 0.61844595 0
0.5962725 0.87103972 0
0.48444567 0.83903637 0
0.15834661 0.55050825 0
0.090849543 0.37441448 0
0.075199581 0.31055164 0
0.11612983 0.46105083 0
0.039383646 0.36266679 0
0.050989524 0.35202429 0
0.038684108 0.4396639 0
0.033382291 0.47253581 0
0.024628774 0.47237481 0
0.01472159 0.48600229 0
0 0.49049613 0
1 0.92471684 0
0.64367267 0.90501482 0
0.75645238 0.92951353 0
0.34423502 0.80752635 0
0.27453938 0.74836052 0
0.42506279 0.84759761 0
0.2262362 0.69208195 0
0.1626062 0.67480287 0
0.51302103 0.88833703 0
0.12159377 0.58831945 0
0.082590532 0.46453629 0
0.063528381 0.41817259 0
0.092014713 0.55648842 0
0.047330446 0.4390034 0
0.042052861 0.49067936 0
0.033793771 0.505339 0
0.0254395 0.49475133 0
0.013929039 0.50996973 0
0 0.51381877 0
0 0.56645408 0
0 0.58644048 0
0 0.54278761 0
0 0.57568139 0
0 0.53071432 0
0 0.55506522 0
1 0.94089948 0
0.59880645 0.92181948 0
0.66219033 0.94438972 0
0.85379777 0.95270854 0
0.39063847 0.87112983 0
0.28893428 0.82074916 0
0.21145778 0.75846257 0
0.11020853 0.67668312 0
0.15151714 0.75942474 0
0.47370625 0.91335064 0
0.069738777 0.52813496 0
0.054550415 0.51996059 0
0.081695581 0.62594647 0
0.042929092 0.54164334 0
0.03452995 0.54499521 0
0.025702798 0.52707135 0
0.01936151 0.54365494 0
0.018140229 0.57112266 0
0.013975771 0.5921909 0
0 0.60401215 0
0.015075352 0.55429548 0
1 0.95742029 0
0.62456915 0.95913291 0
0.5028524 0.94330303 0
0.76163801 0.96601071 0
1 0.96984026 0
0.31989454 0.87554872 0
0.22174273 0.82570168 0
0.10800321 0.76030981 0
0.075414895 0.69537252 0
0.16319297 0.82976 0
0.33683484 0.9062039 0
0.42008189 0.92468525 0
0.063730922 0.61307392 0
0.050992449 0.59144841 0
0.041147904 0.58957681 0
0.030762281 0.56871583 0
0.026105268 0.59434402 0
0.016410685 0.62339206 0
0 0.63375353 0
0.51984734 0.96185163 0
0.56562073 0.9743754 0
0.36602948 0.93621987 0
0.42545133 0.96074342 0
0.75916819 0.98084737 0
1 0.98402221 0
0.23776186 0.87318687 0
0.075021307 0.77864069 0
0.10975066 0.82846087 0
0.055438775 0.73520625 0
0.051070294 0.65571672 0
0.19887373 0.88751625 0
0.14858195 0.87091425 0
0.2683018 0.91162384 0
0.040179305 0.64344073 0
0.034925989 0.60820636 0
0.02896496 0.62686444 0
0.012820185 0.66949448 0
0.02456203 0.6706862 0
0 0.68088018 0
0 0.74041629 0
0.4110031 0.98232998 0
0.55706588 0.98833209 0
0.27607221 0.9354695 0
0.32021774 0.96045254 0
0.82217472 0.99185098 0
0.69205489 1 0
1 1 0
0.080676919 0.85370882 0
0.060339972 0.83115809 0
0.11469663 0.89595112 0
0.041365723 0.72449274 0
0.047024243 0.80913745 0
0.18631905 0.91552686 0
0.033607888 0.67767203 0
0.019068094 0.74998577 0
0.0092257997 0.73944931 0
[...]
CELL_DATA 960
Scalars  Label int 1
LOOKUP_TABLE FreeFempp_table
0
0
0
0
0
0
0
0
0
0
0
0
0
0
0
0
0
0
0
0
0
0
0
0
0
0
0
0
0
0
0
0
0
0
0
0
0
0
0
0
0
0
0
0
0
0
0
0
0
0
0
0
0
0
0
0
0
0
0
0
0
0
0
0
0
0
0
0
0
0
0
0
0
0
0
0
0
0
0
0
0
0
0
0
0
0
0
0
0
0
0
0
0
0
0
0
0
0
0
0
0
0
0
0
0
0
0
0
0
0
0
0
0
0
0
0
0
0
0
0
0
0
0
0
0
0
0
0
0
0
0
0
0
0
0
0
0
0
0
0
0
0
0
0
0
0
0
0
0
0
0
0
0
0
0
0
0
0
0
0
0
0
0
0
0
0
0
0
0
0
0
0
0
0
0
0
0
0
0
0
0
0
0
0
0
0
0
0
0
0
0
0
0
0
0
0
0
0
0
0
0
0
0
0
0
0
0
0
0
0
0
0
0
0
0
0
0
0
0
0
0
0
0
0
0
0
0
0
0
0
0
0
0
0
0
0
0
0
0
0
0
0
0
0
0
0
0
0
0
0
0
0
0
0
0
0
0
0
0
0
0
0
0
0
0
0
0
0
0
0
0
0
0
0
0
0
0
0
0
0
0
0
0
0
0
0
0
0
0
0
0
0
0
0
0
0
0
0
0
0
0
0
0
0
0
0
0
0
0
0
0
0
0
0
0
0
0
0
0
0
0
0
0
0
0
0
0
0
0
0
0
0
0
0
0
0
0
0
0
0
0
0
0
0
0
0
0
0
0
0
0
0
0
0
0
0
0
0
0
0
0
0
0
0
0
0
0
0
0
0
0
0
0
0
0
0
0
0
0
0
0
0
0
0
0
0
0
0
0
0
0
0
0
0
0
0
0
0
0
0
0
0
0
0
0
0
0
0
0
0
0
0
0
0
0
0
0
0
0
0
0
0
0
0
0
0
0
0
0
0
0
0
0
0
0
0
0
0
0
0
0
0
0
0
0
0
0
0
0
0
0
0
0
0
0
0
0
0
0
0
0
0
0
0
0
0
0
0
0
0
0
0
0
0
0
0
0
0
0
0
0
0
0
0
0
0
0
0
0
0
0
0
0
0
0
0
0
0
0
0
0
0
0
0
0
0
0
0
0
0
0
0
0
0
0
0
0
0
0
0
0
0
0
0
0
0
0
0
0
0
0
0
0
0
0
0
0
0
0
0
0
0
0
0
0
0
0
0
0
0
0
0
0
0
0
0
0
0
0
0
0
0
0
0
0
0
0
0
0
0
0
0
0
0
0
0
0
0
0
0
0
0
0
0
0
0
0
0
0
0
0
0
0
0
0
0
0
0
0
0
0
0
0
0
0
0
0
0
0
0
0
0
0
0
0
0
0
0
0
0
0
0
0
0
0
0
0
0
0
0
0
0
0
0
0
0
0
0
0
0
0
0
0
0
0
0
0
0
0
0
0
0
0
0
0
0
0
0
0
0
0
0
0
0
0
0
0
0
0
0
0
0
0
0
0
0
0
0
0
0
0
0
0
0
0
0
0
0
0
0
0
0
0
0
0
0
0
0
0
0
0
0
0
0
0
0
0
0
0
0
0
0
0
0
0
0
0
0
0
0
0
0
0
0
0
0
0
0
0
0
0
0
0
0
0
0
0
0
0
0
0
0
0
0
0
0
0
0
0
0
0
0
0
0
0
0
0
0
0
0
0
0
0
0
0
0
0
0
0
0
0
0
0
0
0
0
0
0
0
0
0
0
0
0
0
0
0
0
0
0
0
0
0
0
0
0
0
0
0
0
0
0
0
0
0
0
0
0
0
0
0
0
0
0
0
0
0
0
0
0
0
0
0
0
0
0
0
0
0
0
0
0
0
0
0
0
0
0
0
0
0
0
0
0
0
0
0
0
0
0
0
0
0
0
0
0
0
0
0
0
1
1
1
1
1
1
1
1
1
3
3
3
3
3
3
3
3
3
2
2
2
2
2
2
2
2
2
2
2
2
2
2
2
2
2
2
2
2
2
2
2
2
2
2
2
2
2
2
2
2
2
2
2
2
2
2
2
2
2
4
4
4
4
4
4
4
4
4
4
4
4
4
4
4
4
4
4
4
4
4
4
4
4
4
4
4
4
4
4
4
4
4
4
4
4
4
4
4
4
4

LOOKUP_TABLE FreeFempp_table 5
1.00000000 0.00000000 0.00000000 1.00000000
1.00000000 1.00000000 0.00000000 1.00000000
1.00000000 0.00000000 1.00000000 1.00000000
0.00000000 1.00000000 0.00000000 1.00000000
0.00000000 1.00000000 1.00000000 1.00000000

POINT_DATA 481
FIELD FieldData 1
Density 1 481 float
2.22000629e-01 3.86531800e-01 3.95089746e-01 2.22735360e-01 2.22554073e-01 7.02820897e-01 2.83925265e-01 5.03027081e-01 4.81570154e-01 3.98460090e-01 4.21477377e-01 4.46661621e-01 5.71511507e-01 2.21337825e-01 7.79070079e-01 6.88577592e-01 5.53019822e-01 5.70250392e-01 6.60200775e-01 5.01642287e-01 4.24151927e-01 6.25718713e-01 6.75504148e-01 3.85155290e-01 7.77441084e-01 7.76199162e-01 7.40072906e-01 7.63374567e-01 7.68152654e-01 5.14119506e-01 7.51529455e-01 6.11061871e-01 6.99451685e-01 6.31928742e-01 6.72325611e-01 6.98929608e-01 6.16945624e-01 5.60995638e-01 7.38534093e-01 7.70778775e-01 5.90011597e-01 7.67557442e-01 7.78557897e-01 5.33492565e-01 4.28302467e-01 4.15383697e-01 7.38133550e-01 5.69069505e-01 6.38946652e-01 7.10153639e-01 3.15910339e-01 2.92312745e-02 6.69899285e-02 9.66058522e-02 5.61345756e-01 7.73897409e-01 6.95969999e-01 6.74414754e-01 7.83064961e-01 7.85828590e-01 7.64940083e-01 7.46658742e-01 7.52985537e-01 4.51817185e-01 3.50918978e-01 3.12010795e-01 4.88937259e-01 6.24451756e-01 6.94473863e-01 2.53881305e-01 2.93572992e-02 8.52485150e-02 1.49346530e-01 4.70445514e-01 5.19947886e-01 7.77789414e-01 7.85141051e-01 7.68833518e-01 7.57927358e-01 7.78968871e-01 7.19180703e-01 7.76275396e-01 3.22473317e-01 3.78462195e-01 2.71150738e-01 2.41138861e-01 5.60371637e-01 6.53767228e-01 2.18760103e-01 2.94726975e-02 1.04588240e-01 1.32665753e-01 1.61313251e-01 1.74141720e-01 4.06483710e-01 4.51618135e-01 1.92215383e-01 2.05005452e-01 3.91704440e-01 4.84245539e-01 7.74145305e-01 7.80915439e-01 7.62992263e-01 7.59011924e-01 6.90639019e-01 7.49639034e-01 7.63565660e-01 2.75804549e-01 2.47904837e-01 3.13820779e-01 2.26191491e-01 5.80379844e-01 2.06109434e-01 2.94877272e-02 7.00710639e-02 1.29936308e-01 1.56001464e-01 1.80943266e-01 3.33231777e-01 1.98518559e-01 3.72622848e-01 3.12909514e-01 4.65963811e-01 1.01050861e-01 2.66094267e-01 6.89966261e-01 3.20734888e-01 7.50544906e-01 7.36937106e-01 6.96089983e-01 7.20137537e-01 6.95288956e-01 5.89421213e-01 7.37057328e-01 2.28497684e-01 2.54492402e-01 2.09289163e-01 5.10028481e-01 1.96286172e-01 2.93160062e-02 4.88332696e-02 8.83853361e-02 1.73137173e-01 1.44726768e-01 3.97215188e-01 2.77666181e-01 2.37241223e-01 6.25599265e-01 2.66493052e-01 2.98874050e-01 3.58747512e-01 7.25342035e-02 7.10468829e-01 6.84339643e-01 6.52231753e-01 6.28071308e-01 5.85007548e-01 5.90479255e-01 5.18877923e-01 4.58490878e-01 6.72438860e-01 2.16294467e-01 2.01899961e-01 1.93292409e-01 1.82076782e-01 2.92529669e-02 3.33201550e-02 1.46244958e-01 2.35887364e-01 2.15736628e-01 2.46216387e-01 2.87952036e-01 3.68022770e-01 1.09477662e-01 4.38590311e-02 9.66058522e-02 2.92312745e-02 4.15383697e-01 2.53881305e-01 1.49346530e-01 5.14119506e-01 2.92351600e-02 3.15910339e-01 2.92408504e-02 2.91889552e-02 1.53923526e-01 6.21945143e-01 5.79199731e-01 5.60184956e-01 5.44223130e-01 5.13610780e-01 5.44695854e-01 4.85821158e-01 4.89293903e-01 4.83575046e-01 4.33599383e-01 3.91759336e-01 5.74706316e-01 2.04080686e-01 1.82702646e-01 1.95206061e-01 2.79190093e-02 2.12301016e-01 2.16820776e-01 2.41392344e-01 2.54458576e-01 3.08414578e-01 6.84610754e-02 1.33191735e-01 7.19119757e-02 3.15581918e-01 2.18760103e-01 2.12392047e-01 1.74141720e-01 6.11061871e-01 4.15923774e-01 2.79620178e-02 2.76956167e-02 1.67602375e-01 7.51529455e-01 2.05005452e-01 6.99451685e-01 1.92215383e-01 5.16151071e-01 4.68817025e-01 4.46418434e-01 4.71433401e-01 4.44499522e-01 4.32653129e-01 4.68557417e-01 4.17894602e-01 4.25719410e-01 3.70131135e-01 3.94187748e-01 3.92058939e-01 3.93424660e-01 3.27544361e-01 2.82607198e-01 2.01081440e-01 1.90452456e-01 4.71446887e-02 2.04856977e-01 2.18398526e-01 2.35257447e-01 1.02364816e-01 1.59236401e-01 3.70578952e-02 1.10011734e-01 1.68650255e-01 2.47107223e-01 1.39854535e-01 4.15178925e-01 2.74071358e-02 3.55271511e-02 1.81058154e-01 4.79873329e-01 7.68152654e-01 7.77441084e-01 2.90978998e-01 3.88761014e-01 3.39309901e-01 3.10893476e-01 3.64857167e-01 3.42798561e-01 3.06392252e-01 3.30685556e-01 3.61328274e-01 3.30428421e-01 2.79660285e-01 3.11897069e-01 3.23069841e-01 3.15783232e-01 2.40821287e-01 1.95466548e-01 8.25648755e-02 2.01976642e-01 2.14307696e-01 1.35989189e-01 1.77825570e-01 2.97126565e-02 7.84341916e-02 1.36325270e-01 1.94087893e-01 5.69222271e-02 4.13364232e-01 7.79070079e-01 1.90111920e-01 7.02820897e-01 2.83925265e-01 5.03027081e-01 2.57982969e-01 2.43507996e-01 2.83167601e-01 2.75425673e-01 2.67304450e-01 3.05765390e-01 2.80950129e-01 2.41986901e-01 2.62681335e-01 2.68674850e-01 2.52336353e-01 2.18993127e-01 1.86756015e-01 1.11784041e-01 1.49067968e-01 2.04403818e-01 1.96111545e-01 6.72984272e-02 6.77381828e-02 8.38205516e-02 8.11696947e-02 1.00667506e-01 2.17188239e-01 3.87968242e-01 9.00410190e-02 1.78966194e-01 2.22735360e-01 2.19416693e-01 2.35283539e-01 2.12472886e-01 2.10706517e-01 2.37437069e-01 2.36699179e-01 2.38321260e-01 2.15921164e-01 2.22187251e-01 2.27384478e-01 2.04513893e-01 1.79686025e-01 1.52462453e-01 1.95951357e-01 8.70191976e-02 1.13822363e-01 9.37030986e-02 8.28143433e-02 1.20031573e-01 1.59286588e-01 2.22000629e-01 2.05073878e-01 2.05562070e-01 2.00244009e-01 2.13684425e-01 2.15655416e-01 2.13162884e-01 2.11841360e-01 2.00903937e-01 2.05911577e-01 1.96525306e-01 1.77654788e-01 1.53511465e-01 1.85322046e-01 1.14835016e-01 1.03963502e-01 8.47742483e-02 1.15140952e-01 1.64374530e-01 2.22554073e-01 7.52985537e-01 7.63565660e-01 3.85155290e-01 7.76275396e-01 2.21337825e-01 5.90011597e-01 1.92213833e-01 1.98509261e-01 1.79633364e-01 1.75809786e-01 2.02556625e-01 2.03159556e-01 2.02157438e-01 1.88392386e-01 1.93135485e-01 1.95392430e-01 1.66575834e-01 1.34562701e-01 1.71281636e-01 1.05244778e-01 8.92584696e-02 1.14362553e-01 1.40600443e-01 4.01850939e-01 4.75538701e-01 7.37057328e-01 2.62147814e-01 1.74703851e-01 1.54053509e-01 1.71265960e-01 1.56626523e-01 1.51889592e-01 1.97030127e-01 1.96561769e-01 1.71542943e-01 1.51793346e-01 1.80015862e-01 1.85836151e-01 1.83229983e-01 1.50568679e-01 1.21646702e-01 9.72803384e-02 1.11988738e-01 2.29322419e-01 4.00469214e-01 6.72438860e-01 1.37391180e-01 1.10499360e-01 1.64674938e-01 1.21025838e-01 1.02044955e-01 9.41934809e-02 1.86594874e-01 1.23230405e-01 1.42769694e-01 1.01394914e-01 1.12255082e-01 1.63748026e-01 1.46831185e-01 1.65697977e-01 8.78790691e-02 1.00367278e-01 1.59053966e-01 3.99670184e-01 2.08394453e-01 5.74706316e-01 4.68817025e-01 6.78264946e-02 6.51224256e-02 1.31988183e-01 9.38495994e-02 6.10052086e-02 2.93572992e-02 2.92312745e-02 8.81745219e-02 7.04057142e-02 9.18525979e-02 7.34822676e-02 5.69389462e-02 1.23630658e-01 6.59055859e-02 2.30216354e-01 3.58587354e-01 1.26041606e-01 3.39309901e-01 2.94877272e-02 2.94726975e-02 5.07041514e-02 9.39414874e-02 4.21547554e-02 4.61251251e-02 3.76072712e-02 6.37264177e-02 3.74390595e-02 4.99826521e-02 3.62924635e-02 2.62235291e-02 1.10715128e-01 2.18649104e-01 2.57982969e-01 2.19416693e-01 2.93160062e-02 2.55099591e-02 2.40328312e-02 2.58742310e-02 2.10660603e-02 3.21816243e-02 2.80883368e-02 9.91146564e-02 1.44471839e-01 2.05073878e-01 2.92529669e-02 2.92408504e-02 2.92351600e-02 3.44735458e-02 9.63285789e-02 1.92213833e-01 2.91889552e-02 7.76669681e-02 1.74703851e-01 2.92312745e-02 6.16628155e-02 1.51889592e-01 9.41934809e-02 
