# vtk DataFile Version 2.0
results_case1/1616747839/sol_toll1e-05_vf0.3_iter3.vtk, Created by Freefem++ 
ASCII
DATASET UNSTRUCTURED_GRID
POINTS 470 float
1 1 0
0.84816522 0.99147244 0
0 0.98093311 0
0.69602756 1 0
1 0.98093311 0
0.76876761 0.97985912 0
0 1 0
0.013084325 0.99486242 0
0 0.96734131 0
0.5619871 0.98847618 0
0.4628374 1 0
0.58633715 0.97466914 0
1 0.96734131 0
0.75078788 0.96751261 0
0.30172964 1 0
0 0.7510721 0
0.015879351 0.97910906 0
0.023193541 1 0
0 0.82178756 0
0 0.8643567 0
0 0.89219274 0
0 0.91593473 0
0 0.93605058 0
0 0.95413221 0
1 0.95413221 0
0.32450667 0.98425542 0
0.42988329 0.9795298 0
0.55156695 0.96246981 0
0.7456084 0.95708328 0
0.12844877 1 0
0.22782533 0.9852262 0
0.19468243 1 0
0.049976601 1 0
0.083731999 1 0
1 0.93605058 0
0 0.69204095 0
0.010181535 0.7451293 0
0.033227868 0.97316985 0
0.021194611 0.96146291 0
0.012836215 0.830133 0
0.013150116 0.89667196 0
0.017503302 0.92811881 0
0.020128236 0.75046236 0
0.73127133 0.94221935 0
0.2351789 0.96269414 0
0.42106761 0.9590771 0
0.32188214 0.96162998 0
0.53013178 0.9451458 0
0.11790907 0.97408207 0
0.16094708 0.96460064 0
0.042108272 0.95014898 0
0.059060169 0.95334146 0
0.078483598 0.94679858 0
1 0.91593473 0
0.79337308 0.92493867 0
0 0.59169781 0
0 0.64242716 0
0.013196668 0.67248526 0
0 0.61060395 0
0 0.5419585 0
0 0.56788541 0
0 0.5783883 0
0 0.55619314 0
0.031048596 0.90168254 0
0.024312127 0.83866601 0
0.023136463 0.67242627 0
0.028277364 0.72634701 0
0.57552421 0.92548388 0
0.19915504 0.93745847 0
0.27164517 0.93665305 0
0.36444811 0.93860412 0
0.41707929 0.92445312 0
0.10517371 0.93679381 0
0.1411796 0.92926363 0
0.043572543 0.89225916 0
0.078120164 0.90021136 0
0.056711026 0.89252315 0
1 0.89219274 0
0.85508656 0.89322746 0
0.76252557 0.90095275 0
0.63235788 0.90443524 0
0 0.52927699 0
0.037378264 0.82049525 0
0.01482231 0.59321129 0
0.016865353 0.62364161 0
0.016846604 0.55775327 0
0.017204768 0.57459851 0
0.033368691 0.76609751 0
0.028597226 0.63631759 0
0.033556044 0.66872909 0
0 0.51330832 0
0 0.43754243 0
0 0.44943864 0
0 0.46236907 0
0.45888398 0.89994268 0
0.33399928 0.89965514 0
0.18294468 0.9061322 0
0.2738345 0.91167253 0
0.11831806 0.89283633 0
0.047348904 0.81388805 0
0.0882822 0.85491015 0
0.063288679 0.83487214 0
0.51831893 0.88042945 0
1 0.8643567 0
0.70313744 0.86792096 0
0.82327804 0.86432968 0
0.60002049 0.86744537 0
0 0.40551635 0
0 0.42866396 0
0 0.41955102 0
0.019783828 0.54217383 0
0.043019539 0.72643952 0
0.027558707 0.5949243 0
0.029576575 0.5690107 0
0.039979087 0.65882573 0
0.035661862 0.61303853 0
0 0.49021049 0
0 0.4740103 0
0.017858623 0.51485494 0
0.016034933 0.45630288 0
0.018761839 0.47158712 0
0.40550257 0.84943156 0
0.32751293 0.8657397 0
0.15059695 0.86754435 0
0.24149909 0.86934292 0
0.20256953 0.87964088 0
0.11890907 0.83043718 0
0.057769813 0.74741367 0
0.083765904 0.78673323 0
0.47901463 0.8352455 0
0.78651878 0.82758103 0
0.88296868 0.83920122 0
1 0.82178756 0
0.34210138 0.79522945 0
0.61416395 0.83488105 0
0.69851768 0.82695268 0
0.53373153 0.81659283 0
0.3997132 0.79017715 0
0 0.3810296 0
0 0.34262453 0
0.015359672 0.41381891 0
0.020146137 0.44137925 0
0.032588171 0.5463416 0
0.052855311 0.66419869 0
0.038419348 0.57859934 0
0.045861647 0.61075933 0
0.021435274 0.48826942 0
0.031580951 0.5110006 0
0.029605214 0.46810554 0
0.29307749 0.81578322 0
0.22403395 0.82372972 0
0.16706762 0.82732159 0
0.1145105 0.75733395 0
0.075679275 0.70046151 0
0.92156164 0.79490864 0
0.46279685 0.77986909 0
0.75594616 0.7887312 0
0.84838683 0.78176426 0
1 0.7510721 0
0.32993134 0.73525859 0
0.27429555 0.74522328 0
0.68842426 0.76993114 0
0.61121919 0.79295532 0
0.54098254 0.76560086 0
0.40094084 0.73211907 0
0.016435009 0.38043584 0
0 0.2377085 0
0.013135259 0.32790339 0
0 0.2946745 0
0.026165652 0.4139373 0
0.031319466 0.44454739 0
0.041656931 0.53491955 0
0.063709834 0.60219209 0
0.050028501 0.56933615 0
0.040443327 0.48923478 0
0.039739879 0.46421744 0
0.21474864 0.7577396 0
0.16074468 0.76249634 0
0.12143252 0.69031798 0
0.089811655 0.64140203 0
0.91879978 0.73446233 0
0.48126307 0.72825157 0
1 0.69204095 0
0.7629727 0.72750389 0
0.81666467 0.73559428 0
0.86652315 0.70086231 0
0.22056956 0.69051934 0
0.93058592 0.67620796 0
0.3424995 0.68364766 0
0.27295585 0.66797435 0
0.72189452 0.69985588 0
0.63306138 0.73547315 0
0.57918849 0.70571994 0
0.44358137 0.67623138 0
0.025838236 0.35579378 0
0 0.1771472 0
0.020509427 0.28284184 0
0.010289694 0.24287136 0
0 0.13311369 0
0 0.081943036 0
0 0.10531163 0
0.033014198 0.4027624 0
0.038344297 0.4292889 0
0.054521965 0.51209867 0
0.072202107 0.53329021 0
0.048375328 0.44171105 0
0.16505875 0.66897135 0
0.12153632 0.59486493 0
0.093525339 0.54907863 0
0.084685416 0.46304963 0
0.52929379 0.67664039 0
0.38210217 0.64540235 0
1 0.64242716 0
0.80517199 0.67110011 0
0.864771 0.64269379 0
0.20717069 0.61470784 0
0.25229695 0.58346249 0
0.93238511 0.62545065 0
0.31395722 0.61488856 0
0.75123758 0.64524145 0
0.67579223 0.66906012 0
0.63027962 0.64340453 0
0.49286052 0.61501315 0
0.56125777 0.62600943 0
0.032593238 0.34318786 0
0.026965558 0.25696093 0
0.015687002 0.18527797 0
0 0.061390893 0
0.014029373 0.11610873 0
0.039709533 0.3690442 0
0.065476156 0.43160525 0
0.05127468 0.35966672 0
0.15661307 0.54680251 0
0.116334 0.46733353 0
0.093443261 0.37218402 0
0.40259732 0.60398902 0
1 0.61060395 0
0.8817465 0.60275062 0
0.81237791 0.61205301 0
0.19935914 0.51720856 0
0.24075194 0.49841261 0
0.30187789 0.5403952 0
0.93116738 0.5888348 0
0.38778181 0.56686174 0
0.50442333 0.56992131 0
0.72741863 0.60843422 0
0.66207975 0.59581045 0
0.60434848 0.57192132 0
0.033983775 0.25350767 0
0 0.044739591 0
0 0.018424752 0
0 0.031482254 0
0.026520481 0.14911719 0
0.016998335 0.070142306 0
0.041855242 0.26317079 0
0.070940199 0.32217099 0
0.054593445 0.26008995 0
0.093940881 0.25433281 0
0.11301945 0.28381627 0
0.15719732 0.42471919 0
0.1300631 0.34659788 0
0.40066575 0.53084231 0
1 0.59169781 0
0.86007234 0.57901325 0
0.7945082 0.57448587 0
0.19839261 0.4106228 0
0.2384416 0.41724292 0
0.28455014 0.46636451 0
0.35604266 0.49160084 0
0.94549495 0.56953214 0
0.89296321 0.564566 0
0.53549008 0.53591827 0
0.71910345 0.56053326 0
0.65689693 0.53119827 0
0 0 0
0.037439611 0.14977999 0
0.019903207 0.03238245 0
0.031456375 0.07858714 0
0.051652521 0.16662969 0
0.072561245 0.21305847 0
0.10579588 0.17296801 0
0.12941946 0.20334751 0
0.15002586 0.24587306 0
0.1786843 0.3090421 0
0.48467411 0.50483132 0
1 0.5783883 0
0.84439514 0.55188336 0
0.79101153 0.54334418 0
0.22965669 0.33227712 0
0.44604588 0.46681825 0
0.2788066 0.38941291 0
0.33710716 0.43102619 0
1 0.56788541 0
0.90275095 0.55180188 0
0.93516698 0.55216414 0
0.86713704 0.53387057 0
0.58392398 0.49214287 0
0.68423404 0.49885758 0
0.75561414 0.51929809 0
0.023193541 0 0
0.047111224 0.089925427 0
0.04203268 0.039083408 0
0.061989612 0.10101053 0
0.077909441 0.14161439 0
0.11465125 0.11394762 0
0.14812226 0.1407354 0
0.16927617 0.17329174 0
0.23262032 0.24543403 0
0.19495292 0.21190031 0
0.82411151 0.52141892 0
0.27460844 0.26530083 0
0.28072714 0.32572123 0
0.53695514 0.44903176 0
0.41368658 0.41718681 0
0.33445183 0.36027501 0
1 0.55619314 0
0.96456436 0.54828503 0
0.92857592 0.5366816 0
0.89730877 0.53186534 0
0.87026488 0.50938374 0
0.84359735 0.49747391 0
0.65776951 0.46090292 0
0.74427052 0.48458601 0
0.80182292 0.49068059 0
0.049976601 0 0
0.068644882 0.045656076 0
0.087870534 0.080014663 0
0.12859272 0.070213169 0
0.17010816 0.095499139 0
0.20708139 0.11951653 0
0.22884203 0.14829246 0
0.31964325 0.20735042 0
0.27107766 0.17794151 0
0.32714077 0.27975999 0
0.59422138 0.41948997 0
0.50409545 0.40636821 0
0.38428565 0.32260175 0
0.41415766 0.37294515 0
0.90762782 0.52066982 0
1 0.5419585 0
0.9636608 0.53390782 0
0.93769446 0.52082945 0
0.88449314 0.50096976 0
0.86326199 0.47538608 0
0.67446372 0.41711583 0
0.82626741 0.46431095 0
0.75757221 0.45457381 0
0.083731999 0 0
0.19760214 0.064341655 0
0.1084903 0.035308384 0
0.15124649 0.043448527 0
0.3793935 0.22168955 0
0.25510687 0.083947276 0
0.28990581 0.10107108 0
0.30930999 0.12632158 0
0.4018428 0.17423943 0
0.38103854 0.1435482 0
0.38133594 0.26752814 0
0.44088644 0.2987097 0
0.5791472 0.373646 0
0.48891873 0.35643011 0
0.91054054 0.50284762 0
0.44633823 0.24576063 0
0.62412257 0.35528007 0
1 0.52927699 0
0.97083507 0.51945345 0
0.9442991 0.50456432 0
0.89154465 0.47849094 0
0.88185378 0.45651134 0
0.85982513 0.44624576 0
0.75368814 0.41939628 0
0.70197638 0.37548008 0
0.81781073 0.43156307 0
0.29908191 0.059549243 0
0.12844877 0 0
0.2342437 0.03960555 0
0.17560145 0.020442337 0
0.42080416 0.053173852 0
0.46711772 0.18799157 0
0.39169057 0.074888507 0
0.39596915 0.099020269 0
0.50974397 0.14349592 0
0.48824695 0.1119412 0
0.51747163 0.30845859 0
0.91779852 0.4891489 0
0.50839752 0.25059212 0
0.5140294 0.20829922 0
0.5758083 0.29201486 0
0.65033677 0.30997585 0
0.88066497 0.42402113 0
1 0.51330832 0
0.97392737 0.50013457 0
0.91461459 0.47118423 0
0.94418965 0.48409454 0
0.90506285 0.45511368 0
0.90026883 0.43891749 0
0.72770283 0.3317706 0
0.84138004 0.40597571 0
0.78311343 0.38405449 0
0.35210673 0.035626424 0
0.19468243 0 0
0.26644666 0.017669184 0
0.51189627 0.036573518 0
0.56370392 0.057239441 0
0.57761941 0.1779498 0
0.55349259 0.08197845 0
0.63314755 0.13882704 0
0.62839687 0.10746737 0
0.58389882 0.23716144 0
0.66608322 0.26542605 0
0.72662865 0.067768928 0
0.93321516 0.42301111 0
0.77410125 0.052036024 0
0.6519488 0.21333378 0
0.73528952 0.27684122 0
0.88860286 0.39735737 0
0.93691769 0.40228726 0
0.94647247 0.43428129 0
1 0.49021049 0
0.96935047 0.47769492 0
0.93449925 0.46305127 0
0.92739254 0.44718314 0
0.80223718 0.33471799 0
0.85400109 0.36650086 0
0.40048542 0.016637781 0
0.30172964 0 0
0.56173709 0.021819384 0
0.72332121 0.038640762 0
0.73204207 0.14595074 0
0.68965463 0.17626664 0
0.79087702 0.08774042 0
0.7870237 0.11541095 0
1 0.061390893 0
1 0.40551635 0
1 0.41955102 0
1 0.044739591 0
1 0.081943036 0
1 0.42866396 0
0.75047282 0.22463294 0
[...]
CELL_DATA 938
Scalars  Label int 1
LOOKUP_TABLE FreeFempp_table
0
0
0
0
0
0
0
0
0
0
0
0
0
0
0
0
0
0
0
0
0
0
0
0
0
0
0
0
0
0
0
0
0
0
0
0
0
0
0
0
0
0
0
0
0
0
0
0
0
0
0
0
0
0
0
0
0
0
0
0
0
0
0
0
0
0
0
0
0
0
0
0
0
0
0
0
0
0
0
0
0
0
0
0
0
0
0
0
0
0
0
0
0
0
0
0
0
0
0
0
0
0
0
0
0
0
0
0
0
0
0
0
0
0
0
0
0
0
0
0
0
0
0
0
0
0
0
0
0
0
0
0
0
0
0
0
0
0
0
0
0
0
0
0
0
0
0
0
0
0
0
0
0
0
0
0
0
0
0
0
0
0
0
0
0
0
0
0
0
0
0
0
0
0
0
0
0
0
0
0
0
0
0
0
0
0
0
0
0
0
0
0
0
0
0
0
0
0
0
0
0
0
0
0
0
0
0
0
0
0
0
0
0
0
0
0
0
0
0
0
0
0
0
0
0
0
0
0
0
0
0
0
0
0
0
0
0
0
0
0
0
0
0
0
0
0
0
0
0
0
0
0
0
0
0
0
0
0
0
0
0
0
0
0
0
0
0
0
0
0
0
0
0
0
0
0
0
0
0
0
0
0
0
0
0
0
0
0
0
0
0
0
0
0
0
0
0
0
0
0
0
0
0
0
0
0
0
0
0
0
0
0
0
0
0
0
0
0
0
0
0
0
0
0
0
0
0
0
0
0
0
0
0
0
0
0
0
0
0
0
0
0
0
0
0
0
0
0
0
0
0
0
0
0
0
0
0
0
0
0
0
0
0
0
0
0
0
0
0
0
0
0
0
0
0
0
0
0
0
0
0
0
0
0
0
0
0
0
0
0
0
0
0
0
0
0
0
0
0
0
0
0
0
0
0
0
0
0
0
0
0
0
0
0
0
0
0
0
0
0
0
0
0
0
0
0
0
0
0
0
0
0
0
0
0
0
0
0
0
0
0
0
0
0
0
0
0
0
0
0
0
0
0
0
0
0
0
0
0
0
0
0
0
0
0
0
0
0
0
0
0
0
0
0
0
0
0
0
0
0
0
0
0
0
0
0
0
0
0
0
0
0
0
0
0
0
0
0
0
0
0
0
0
0
0
0
0
0
0
0
0
0
0
0
0
0
0
0
0
0
0
0
0
0
0
0
0
0
0
0
0
0
0
0
0
0
0
0
0
0
0
0
0
0
0
0
0
0
0
0
0
0
0
0
0
0
0
0
0
0
0
0
0
0
0
0
0
0
0
0
0
0
0
0
0
0
0
0
0
0
0
0
0
0
0
0
0
0
0
0
0
0
0
0
0
0
0
0
0
0
0
0
0
0
0
0
0
0
0
0
0
0
0
0
0
0
0
0
0
0
0
0
0
0
0
0
0
0
0
0
0
0
0
0
0
0
0
0
0
0
0
0
0
0
0
0
0
0
0
0
0
0
0
0
0
0
0
0
0
0
0
0
0
0
0
0
0
0
0
0
0
0
0
0
0
0
0
0
0
0
0
0
0
0
0
0
0
0
0
0
0
0
0
0
0
0
0
0
0
0
0
0
0
0
0
0
0
0
0
0
0
0
0
0
0
0
0
0
0
0
0
0
0
0
0
0
0
0
0
0
0
0
0
0
0
0
0
0
0
0
0
0
0
0
0
0
0
0
0
0
0
0
0
0
0
0
0
0
0
0
0
0
0
0
0
0
0
0
0
0
0
0
0
0
0
0
0
0
0
0
0
0
0
0
0
0
0
0
0
0
0
0
0
0
0
0
0
0
0
0
0
0
0
0
0
0
0
0
0
0
0
0
0
0
0
0
0
0
0
0
0
0
0
0
0
0
0
0
0
0
0
0
0
0
0
0
0
0
0
0
1
1
1
1
1
1
1
1
1
3
3
3
3
3
3
3
3
3
2
2
2
2
2
2
2
2
2
2
2
2
2
2
2
2
2
2
2
2
2
2
2
2
2
2
2
2
2
2
2
2
2
2
2
2
2
2
2
2
4
4
4
4
4
4
4
4
4
4
4
4
4
4
4
4
4
4
4
4
4
4
4
4
4
4
4
4
4
4
4
4
4
4
4
4
4
4
4
4

LOOKUP_TABLE FreeFempp_table 5
1.00000000 0.00000000 0.00000000 1.00000000
1.00000000 1.00000000 0.00000000 1.00000000
1.00000000 0.00000000 1.00000000 1.00000000
0.00000000 1.00000000 0.00000000 1.00000000
0.00000000 1.00000000 1.00000000 1.00000000

POINT_DATA 470
FIELD FieldData 1
Density 1 470 float
2.96600889e-02 6.22348748e-02 1.06878795e-01 3.01313791e-02 1.06878795e-01 1.05623186e-01 2.96600889e-02 5.02760783e-02 1.55563265e-01 6.56537488e-02 3.06358859e-02 1.11147575e-01 1.55563265e-01 1.50087148e-01 3.03074289e-02 4.51450288e-01 8.32231566e-02 2.95031723e-02 3.31846118e-01 2.65249640e-01 2.31250390e-01 2.10444823e-01 1.95775315e-01 1.77217335e-01 1.77217335e-01 5.08503579e-02 7.84847885e-02 1.39073759e-01 1.66432261e-01 2.97088828e-02 3.11740991e-02 2.98697278e-02 2.96100788e-02 2.96636466e-02 1.95775315e-01 5.56250572e-01 3.40706319e-01 3.35890166e-02 8.32051858e-02 2.13114768e-01 1.44783080e-01 1.09512001e-01 2.16191694e-01 1.84017345e-01 6.25256449e-02 1.22995205e-01 9.17753279e-02 1.69948474e-01 2.32706442e-02 3.55677716e-02 2.87793186e-02 2.66410448e-02 2.42333096e-02 2.10444823e-01 2.02643335e-01 7.54908085e-01 6.54766679e-01 3.89970303e-01 7.20313311e-01 3.81580681e-01 7.40962029e-01 7.68969417e-01 6.00809038e-01 3.78308631e-02 1.04312375e-01 2.29962841e-01 1.23185568e-01 1.92853987e-01 9.31664631e-02 1.26358867e-01 1.57481104e-01 1.80797875e-01 3.91735397e-02 6.86471835e-02 2.73670591e-02 4.97112349e-02 3.67555544e-02 2.31250390e-01 2.26047561e-01 2.13026986e-01 2.05493852e-01 2.56534517e-01 3.98481265e-02 4.57296520e-01 3.90366137e-01 2.66378433e-01 4.19413418e-01 5.49764037e-02 1.60774305e-01 7.39539787e-02 2.22120404e-01 6.96423709e-01 5.12089312e-01 3.16248953e-01 1.98585764e-01 1.88244000e-01 1.31615326e-01 1.65548414e-01 9.66520086e-02 5.56544103e-02 9.58582535e-02 7.25165606e-02 2.10296586e-01 2.65249640e-01 2.37976462e-01 2.54238576e-01 2.26088181e-01 7.54081726e-01 7.77548373e-01 7.70627975e-01 1.41867876e-01 7.64197558e-02 2.02909052e-01 1.33457363e-01 8.46153125e-02 9.88163650e-02 2.22384021e-01 2.40009695e-01 1.47456050e-01 3.30323815e-01 1.60487309e-01 2.10219711e-01 1.99106306e-01 1.49980307e-01 1.88076586e-01 1.69258863e-01 1.47999749e-01 1.00861073e-01 1.29921585e-01 2.28963569e-01 3.02667081e-01 2.97243536e-01 3.31846118e-01 2.18220189e-01 2.59241104e-01 2.87650526e-01 2.59118050e-01 2.37422496e-01 7.04628885e-01 6.21694088e-01 4.43107665e-01 3.42692256e-01 9.72516686e-02 1.13932483e-01 9.94135067e-02 1.06095500e-01 1.32799402e-01 9.37742367e-02 1.34171993e-01 2.04617977e-01 1.96992755e-01 1.81620568e-01 1.75128862e-01 1.50106058e-01 3.72605622e-01 2.67824411e-01 3.56169224e-01 3.85273159e-01 4.51450288e-01 2.39923283e-01 2.16419265e-01 3.64377022e-01 3.08941126e-01 3.12977076e-01 2.76164055e-01 3.82865936e-01 4.31852192e-01 3.77320856e-01 5.29684424e-01 2.20760852e-01 1.27366245e-01 1.02806054e-01 1.50852948e-01 1.20811634e-01 1.01736978e-01 9.84166712e-02 2.02697769e-01 1.94206983e-01 1.89820677e-01 1.75153852e-01 4.72891450e-01 3.20915818e-01 5.56250572e-01 4.49431151e-01 4.52055037e-01 5.20118833e-01 2.10915014e-01 5.74600816e-01 2.71227628e-01 2.37110734e-01 4.71913069e-01 3.88805091e-01 3.95950317e-01 3.39139193e-01 1.92563906e-01 3.30285430e-01 2.20248699e-01 3.14735204e-01 2.61482567e-01 2.09156781e-01 2.26408854e-01 9.10571516e-02 9.26651135e-02 1.34238392e-01 1.67233184e-01 1.17549174e-01 2.01826587e-01 1.95814580e-01 1.85263589e-01 1.76808596e-01 3.93810630e-01 3.14665228e-01 6.54766679e-01 5.46876907e-01 6.20253742e-01 2.16040164e-01 2.42855921e-01 6.78321600e-01 2.78655648e-01 5.57492018e-01 4.87372398e-01 4.87048775e-01 4.12005842e-01 4.55922425e-01 8.37472454e-02 1.26199812e-01 1.90274790e-01 1.93935350e-01 1.40610367e-01 8.88144076e-02 1.56365871e-01 1.15601592e-01 2.04135403e-01 1.95688874e-01 1.79437667e-01 3.49021763e-01 7.20313311e-01 7.05979884e-01 6.46455944e-01 2.18695343e-01 2.41476372e-01 2.83400685e-01 7.50751853e-01 3.48632127e-01 4.42533582e-01 5.89700341e-01 5.52493334e-01 5.21564424e-01 6.91667348e-02 1.77048206e-01 1.04280531e-01 1.53243124e-01 7.57927746e-02 1.10061973e-01 7.17384964e-02 1.46581143e-01 9.96112004e-02 1.56816438e-01 1.77644089e-01 2.03641012e-01 1.95454344e-01 3.65809262e-01 7.54908085e-01 7.33389556e-01 6.88524425e-01 2.14213073e-01 2.34900132e-01 2.71439821e-01 3.29708755e-01 7.79085100e-01 7.72943974e-01 4.78467375e-01 6.29502058e-01 5.84699929e-01 2.96600889e-02 3.33448984e-02 7.58846402e-02 3.87174301e-02 5.84420785e-02 1.14119902e-01 1.36863559e-01 1.74260795e-01 1.90357178e-01 2.03292847e-01 4.38985437e-01 7.68969417e-01 7.55170465e-01 7.16563582e-01 2.17724398e-01 4.03226733e-01 2.55037665e-01 3.07138056e-01 7.40962029e-01 7.77922750e-01 7.10390806e-01 7.83223808e-01 5.21943092e-01 6.19501114e-01 6.92273617e-01 2.95031723e-02 2.81617921e-02 2.97935158e-02 3.69739309e-02 8.08790550e-02 1.01250194e-01 1.52094930e-01 1.79949701e-01 2.06046820e-01 1.96830973e-01 7.60719597e-01 2.18569279e-01 2.39261568e-01 4.74150300e-01 3.64845842e-01 2.84484774e-01 6.00809038e-01 5.99782467e-01 6.36692047e-01 7.74567485e-01 7.85010993e-01 7.77789176e-01 5.85754216e-01 6.81209505e-01 7.43430972e-01 2.96100788e-02 2.83043329e-02 4.53913957e-02 6.38430044e-02 1.29695252e-01 1.66887254e-01 1.90300047e-01 2.15214998e-01 2.02126980e-01 2.47381687e-01 5.09005070e-01 4.30597752e-01 3.00241560e-01 3.47533524e-01 7.01235712e-01 3.81580681e-01 4.54321891e-01 5.06307065e-01 7.44809270e-01 7.79409111e-01 5.73634803e-01 7.55929947e-01 6.81680262e-01 2.96636466e-02 9.98306721e-02 2.84468159e-02 4.18969579e-02 2.37899140e-01 1.55255541e-01 1.82715252e-01 1.95708469e-01 2.19790205e-01 2.06243858e-01 2.65348196e-01 3.20724517e-01 4.68014389e-01 3.92548889e-01 6.24182582e-01 2.81394869e-01 4.81923550e-01 2.56534517e-01 3.95236731e-01 4.24053192e-01 7.46816278e-01 7.75626540e-01 7.63923824e-01 6.44231915e-01 5.52402079e-01 7.16622531e-01 1.33890674e-01 2.97088828e-02 6.82590008e-02 3.38489786e-02 1.49265423e-01 2.43863687e-01 1.80848569e-01 1.94086671e-01 2.22593710e-01 2.05205873e-01 3.74957055e-01 5.80422640e-01 3.15888882e-01 2.73931473e-01 3.92137319e-01 4.50635284e-01 7.48499453e-01 2.22120404e-01 3.78370762e-01 6.67688370e-01 4.88306403e-01 7.55711854e-01 7.70313144e-01 5.14742255e-01 6.96114421e-01 6.19032919e-01 9.37893242e-02 2.98697278e-02 4.69230711e-02 1.31620124e-01 1.75813034e-01 2.65693158e-01 1.97903663e-01 2.36179188e-01 2.12429136e-01 3.35298121e-01 4.03729588e-01 1.97107717e-01 7.67126679e-01 1.80357739e-01 3.30106944e-01 4.45278287e-01 7.09789276e-01 7.38906682e-01 7.73328960e-01 2.22384021e-01 4.06363666e-01 6.01299107e-01 6.96520865e-01 5.54046452e-01 6.31635845e-01 6.81561306e-02 3.03074289e-02 9.93447080e-02 1.58412844e-01 2.57174969e-01 2.90959924e-01 2.08253622e-01 2.29110762e-01 1.93935350e-01 7.54081726e-01 7.70627975e-01 1.77048206e-01 2.09156781e-01 7.77548373e-01 3.74548972e-01 4.90255475e-01 6.58141613e-01 7.04628885e-01 6.88922226e-01 6.96423709e-01 5.81639886e-01 2.40009695e-01 4.95519966e-01 5.51469147e-01 1.53243124e-01 3.06358859e-02 8.27903897e-02 1.33379161e-01 2.71816492e-01 3.36317033e-01 2.26408854e-01 2.50732452e-01 4.43764478e-01 6.21694088e-01 5.12089312e-01 3.16248953e-01 5.29684424e-01 4.37884003e-01 1.04280531e-01 3.01313791e-02 7.23812953e-02 3.21982652e-01 2.61482567e-01 4.31852192e-01 2.96600889e-02 3.30285430e-01 
