# vtk DataFile Version 2.0
results_case1/1616747839/sol_toll1e-05_vf0.3_iter8.vtk, Created by Freefem++ 
ASCII
DATASET UNSTRUCTURED_GRID
POINTS 565 float
1 0.4823773 0
1 0.4689989 0
0.9773758 0.49600037 0
0.97344033 0.48430379 0
1 0.50369015 0
1 0.46087327 0
0.97923106 0.47074484 0
1 0.52363299 0
0.95674337 0.49147062 0
0.96824956 0.50615313 0
0.96235708 0.47646974 0
0.97986384 0.46259 0
1 0.45429016 0
0.9787825 0.52295439 0
1 0.53521326 0
0.94966209 0.47495483 0
0.96457471 0.51946978 0
0.96378878 0.46534685 0
0.94332337 0.48837033 0
0.94774629 0.50274224 0
0.95282969 0.51319091 0
0.9755601 0.45591166 0
1 0.44793566 0
0.97265584 0.53043117 0
1 0.54181856 0
0.93752763 0.47523486 0
0.95195738 0.46316092 0
0.95469619 0.524928 0
0.97588882 0.53632507 0
0.93590018 0.50184413 0
0.92815393 0.49240924 0
0.93995936 0.51612002 0
0.95275352 0.45562763 0
0.97678431 0.45026424 0
1 0.44407506 0
0.96367595 0.53516285 0
1 0.54610372 0
0.92535762 0.47779718 0
0.93357929 0.46406649 0
0.94265943 0.52698251 0
0.92868672 0.51050962 0
1 0.44013115 0
0.92005964 0.50929107 0
0.91507802 0.49541282 0
0.92736358 0.52170953 0
0.96484604 0.44788183 0
0.93363472 0.4528826 0
0.94146788 0.53298169 0
0.96771024 0.54132663 0
1 0.5504508 0
0.91334766 0.47786819 0
0.91531492 0.46507143 0
1 0.4348909 0
0.9111714 0.51422576 0
0.90194015 0.49656289 0
0.92131773 0.52831163 0
0.95392259 0.44293476 0
0.90706235 0.45741384 0
0.96218181 0.54389031 0
0.94004488 0.54003336 0
1 0.55480773 0
0.89253844 0.47738262 0
1 0.42729107 0
0.89560963 0.51527033 0
0.88460262 0.49888799 0
0.90548459 0.52747446 0
0.91447268 0.53639738 0
0.92768176 0.43811789 0
0.87998319 0.45949781 0
0.96976188 0.55144794 0
1 0.55954616 0
0.92792975 0.54590841 0
0.94920061 0.54745475 0
0.86396445 0.48162453 0
1 0.41361783 0
0.88398602 0.52604993 0
0.86573368 0.50771755 0
0.89160079 0.54232063 0
0.89429459 0.41679141 0
0.86557095 0.44438292 0
0.83033199 0.4659194 0
1 0.56772808 0
0.96260561 0.55798123 0
0.93671267 0.55907315 0
0.83202485 0.49143032 0
1 0.38901896 0
1 0.35349263 0
0.84080333 0.5192216 0
0.85269001 0.54518938 0
0.91976931 0.57016172 0
0.79274821 0.44604142 0
0.83021553 0.39587516 0
0.79080672 0.49118418 0
1 0.58202763 0
0.87405969 0.3516337 0
1 0.32695688 0
0.78394718 0.53515191 0
0.87863788 0.58624218 0
1 0.6062921 0
0.71896986 0.44225925 0
0.72879691 0.48546747 0
0.77704742 0.37380819 0
0.72423028 0.40521137 0
0.8068052 0.34921699 0
0.90318212 0.32654138 0
1 0.31121424 0
1 0.29274814 0
1 0.30079514 0
0.72134079 0.53625011 0
0.6778633 0.41073151 0
0.66760137 0.44492805 0
0.77866983 0.58769318 0
1 0.63934622 0
0.88182997 0.62188895 0
0.67180689 0.49349126 0
0.725074 0.37668104 0
0.75939101 0.35220505 0
0.83891611 0.32986555 0
0.92090029 0.3103817 0
0.92903585 0.2985469 0
1 0.28557346 0
0.68991939 0.5492676 0
0.6734159 0.39645691 0
0.64076846 0.43488831 0
0.6367577 0.47605794 0
0.94683013 0.28329905 0
1 0.275372 0
0.72809197 0.59795714 0
0.8339944 0.63472013 0
1 0.66413001 0
0.64204076 0.52274271 0
0.70310675 0.36977863 0
0.73477453 0.35024835 0
0.78494654 0.33423131 0
0.84668938 0.31958518 0
0.87562129 0.30839671 0
0.86188543 0.3038238 0
0.90588872 0.29124886 0
0.66914512 0.56680254 0
0.63710376 0.41610652 0
0.66879074 0.38443163 0
0.61308538 0.44629787 0
0.6162062 0.46603698 0
0.61417098 0.49970941 0
0.91440785 0.27752014 0
1 0.26600525 0
0.6389457 0.39982069 0
0.85884594 0.28822548 0
0.90598122 0.26991382 0
0.66015735 0.37564881 0
0.73856688 0.62192102 0
0.68717573 0.59791278 0
0.77223577 0.64350009 0
0.88351554 0.65899986 0
1 0.67900881 0
0.64581288 0.56554989 0
0.61973465 0.53856237 0
0.70722689 0.3539815 0
0.76035065 0.33086907 0
0.81337145 0.31735005 0
0.83799999 0.30200437 0
0.61165453 0.42340733 0
0.59597237 0.45609107 0
0.5968352 0.48676716 0
0.59963654 0.52103884 0
0.84829569 0.27828334 0
1 0.25952789 0
0.62632387 0.39794135 0
0.81370568 0.28702769 0
0.81369107 0.29802812 0
0.90382206 0.26383101 0
0.83609939 0.27197627 0
0.63130302 0.37991921 0
0.69244088 0.35118595 0
0.6589248 0.36336651 0
0.58014998 0.4794343 0
0.67824091 0.60647722 0
0.71424701 0.63447587 0
0.86838004 0.66743716 0
0.75240031 0.65575468 0
0.8126252 0.66729837 0
1 0.68868602 0
0.63566413 0.57980837 0
0.60814749 0.55581219 0
0.72718448 0.33175359 0
0.77939829 0.31353136 0
0.59444785 0.421889 0
0.60807287 0.40212426 0
0.58476989 0.44768307 0
0.57894406 0.50906066 0
0.58783411 0.54097382 0
0.78571319 0.28547877 0
1 0.25155433 0
0.776295 0.29932951 0
0.87724036 0.25969735 0
0.79379049 0.27464623 0
0.64655471 0.3572817 0
0.6104792 0.38164105 0
0.68304173 0.34302215 0
0.562774 0.46606167 0
0.56292865 0.48907408 0
0.55394151 0.50454926 0
0.67950862 0.62490061 0
0.64361197 0.60644522 0
0.71832513 0.65123938 0
0.89267334 0.68232228 0
0.76627201 0.67171783 0
0.79692174 0.67475352 0
0.85248426 0.68531233 0
1 0.69629601 0
0.61825697 0.58390768 0
0.59754699 0.57359372 0
0.73625764 0.31419695 0
0.7006172 0.32668506 0
0.58474441 0.4075356 0
0.57137628 0.43606637 0
0.56012815 0.52878541 0
0.56943407 0.54840567 0
0.57693129 0.56472229 0
0.73799884 0.30229183 0
0.73421475 0.29520397 0
1 0.24235386 0
0.79987782 0.26281482 0
0.88314432 0.24931948 0
0.74040812 0.28406347 0
0.62576629 0.35886661 0
0.66456483 0.33688809 0
0.58650419 0.38691244 0
0.55133673 0.45147468 0
0.54310062 0.47892033 0
0.53856163 0.50757474 0
0.67228763 0.63332253 0
0.63481684 0.62152211 0
0.60842808 0.59902411 0
0.7008173 0.65482262 0
0.74313808 0.67153045 0
0.91827192 0.69424118 0
0.81957534 0.68709183 0
0.79309408 0.68803631 0
0.87341825 0.69746721 0
1 0.70386281 0
0.57837155 0.58445241 0
0.69112164 0.31632225 0
0.56035535 0.42099984 0
0.55217416 0.55450027 0
0.54022511 0.53469957 0
0.55962763 0.57176316 0
0.69038847 0.30287182 0
1 0.2284938 0
0.7210019 0.27975947 0
0.77433927 0.25519228 0
0.86977307 0.23655726 0
0.64474899 0.33643546 0
0.60778779 0.36011595 0
0.57995796 0.37356815 0
0.56035827 0.40058351 0
0.5368693 0.45130142 0
0.526037 0.47979032 0
0.52480902 0.51191501 0
0.58040154 0.59833545 0
0.66180325 0.64149417 0
0.60750011 0.61867316 0
0.63670447 0.64148479 0
0.67765736 0.65851643 0
0.71340714 0.66992159 0
0.76658092 0.68593687 0
0.74092092 0.68510689 0
0.9329039 0.70252287 0
0.83866613 0.69921037 0
0.8176938 0.70400245 0
0.78388499 0.69907542 0
0.92561125 0.70879132 0
0.87679779 0.70902217 0
1 0.71152553 0
0.55300709 0.57978413 0
0.65016881 0.32152708 0
0.53846734 0.42382792 0
0.5332039 0.55005797 0
0.65927875 0.302395 0
1 0.20476067 0
0.6967952 0.27246847 0
0.81360403 0.22942591 0
0.61178769 0.34386669 0
0.57400757 0.36233214 0
0.54972197 0.39224583 0
0.51809957 0.45087863 0
0.51033005 0.48444819 0
0.51283109 0.52158297 0
0.57733501 0.60910204 0
0.60834443 0.63609423 0
0.66949584 0.66584324 0
0.64419942 0.66060731 0
0.70769885 0.6793181 0
0.74773195 0.69733408 0
0.84711054 0.7134126 0
0.80411828 0.71237455 0
0.92529831 0.71711042 0
1 0.71938517 0
0.88411951 0.7220285 0
0.54587277 0.59187029 0
0.5256725 0.56326107 0
0.60415613 0.3311315 0
0.52740774 0.40625741 0
0.61402683 0.30633437 0
1 0.16522575 0
0.67155567 0.26300162 0
0.78844757 0.21213184 0
0.55191279 0.36491109 0
0.50124277 0.43863651 0
0.49654873 0.4812445 0
0.5014182 0.52940126 0
0.57572853 0.62313782 0
1 0 0
1 0.098886121 0
0.61694962 0.65931808 0
0.69896855 0.68625115 0
0.66167665 0.67945021 0
0.75299673 0.70696819 0
0.85477263 0.72535677 0
0.81251013 0.72367549 0
0.93039509 0.72463492 0
1 0.72802644 0
0.91731558 0.73492033 0
0.92819341 0.73062234 0
0.51209189 0.57439868 0
0.53775191 0.60427441 0
0.54916476 0.34349824 0
0.5100229 0.38967966 0
0.5585762 0.30897414 0
0.80046811 0.17295557 0
0.64213764 0.24463756 0
0.4794448 0.42574484 0
0.47819565 0.48157902 0
0.48558626 0.53644394 0
0.57561296 0.63980704 0
0.78805584 0.1116028 0
0.83193963 0 0
0.66139377 0.69217947 0
0.58271345 0.66028171 0
0.70464006 0.69966098 0
0.75926382 0.71756678 0
0.87576481 0.7370906 0
0.82161056 0.73512081 0
1 0.73462236 0
1 0.74071435 0
0.93719591 0.74470224 0
1 0.74870585 0
0.4878449 0.58015529 0
0.52966496 0.6204329 0
0.48094587 0.37018268 0
0.52500402 0.28801566 0
0.63332651 0.20015114 0
0.44815683 0.44854641 0
0.45695873 0.51874524 0
0.62009393 0.1214793 0
0.68056227 0 0
0 0.25952789 0
0 0.31121424 0
0 0.30079514 0
0 0.25155433 0
0 0.29274814 0
0 0.275372 0
0 0.26600525 0
0.56249464 0 0
0 0.28557346 0
0.70952575 0.72465488 0
0.62954631 0.69276158 0
0.73746508 0.72034272 0
0.56567553 0.672809 0
0.49972715 0.63068311 0
0.90572675 0.75124811 0
0.82670392 0.7469079 0
1 0.7598156 0
0.45116765 0.57197434 0
0.43152876 0.33368042 0
0.4074043 0.42093855 0
0.49941814 0.22933221 0
0.4149636 0.50159939 0
0.48002529 0.13261184 0
0.0054214446 0.31898884 0
0.0049201602 0.34596729 0
0 0.32695688 0
0 0.24235386 0
0.46121618 0 0
0 0.41361783 0
0 0.20476067 0
0 0.35349263 0
0 0.2284938 0
0 0.38901896 0
0 0.16522575 0
0.37395571 0 0
0.63120036 0.71370176 0
0.72410992 0.74944806 0
0.8381246 0.76436362 0
0.53727481 0.68555911 0
0.40782187 0.58110257 0
0.44978878 0.6446236 0
1 0.77722748 0
0.32816997 0.39784523 0
0.36640193 0.27985021 0
0.35761211 0.50336921 0
0.34922514 0.17711782 0
0.0083208042 0.32204562 0
0.0094819895 0.37069511 0
0.0042102295 0.37813081 0
0.0083589507 0.39236144 0
0 0.42729107 0
0.0037280185 0.4065425 0
0.0082672363 0.28566139 0
0.010891322 0.25597728 0
0 0.098886121 0
0.27006178 0.19077748 0
0.30005974 0 0
0 0.4348909 0
0 0 0
0.62644446 0.74262264 0
0.82680592 0.79189981 0
1 0.80250168 0
0.46377309 0.69082 0
0.33713506 0.59986358 0
0.27834002 0.48207636 0
0.23963928 0.35310365 0
0.013500241 0.3384632 0
0.012555673 0.37959322 0
0.012410161 0.41347605 0
0.0078842726 0.41655865 0
0.0047669383 0.42845629 0
0.017991599 0.32074584 0
0.018995305 0.25145559 0
0.20295286 0.21601831 0
0.2313645 0 0
0 0.44013115 0
0.022318834 0.1621897 0
0.019618143 0 0
0 0.44407506 0
0.16345767 0 0
0 0.44793566 0
0.049576221 0 0
0.77195941 0.82334903 0
0.56895065 0.76468966 0
1 0.8428647 0
0.42517277 0.73013056 0
0.27065197 0.66245743 0
0.19987093 0.5074969 0
0.14873021 0.37932137 0
0.015863005 0.39429854 0
[...]
CELL_DATA 1128
Scalars  Label int 1
LOOKUP_TABLE FreeFempp_table
0
0
0
0
0
0
0
0
0
0
0
0
0
0
0
0
0
0
0
0
0
0
0
0
0
0
0
0
0
0
0
0
0
0
0
0
0
0
0
0
0
0
0
0
0
0
0
0
0
0
0
0
0
0
0
0
0
0
0
0
0
0
0
0
0
0
0
0
0
0
0
0
0
0
0
0
0
0
0
0
0
0
0
0
0
0
0
0
0
0
0
0
0
0
0
0
0
0
0
0
0
0
0
0
0
0
0
0
0
0
0
0
0
0
0
0
0
0
0
0
0
0
0
0
0
0
0
0
0
0
0
0
0
0
0
0
0
0
0
0
0
0
0
0
0
0
0
0
0
0
0
0
0
0
0
0
0
0
0
0
0
0
0
0
0
0
0
0
0
0
0
0
0
0
0
0
0
0
0
0
0
0
0
0
0
0
0
0
0
0
0
0
0
0
0
0
0
0
0
0
0
0
0
0
0
0
0
0
0
0
0
0
0
0
0
0
0
0
0
0
0
0
0
0
0
0
0
0
0
0
0
0
0
0
0
0
0
0
0
0
0
0
0
0
0
0
0
0
0
0
0
0
0
0
0
0
0
0
0
0
0
0
0
0
0
0
0
0
0
0
0
0
0
0
0
0
0
0
0
0
0
0
0
0
0
0
0
0
0
0
0
0
0
0
0
0
0
0
0
0
0
0
0
0
0
0
0
0
0
0
0
0
0
0
0
0
0
0
0
0
0
0
0
0
0
0
0
0
0
0
0
0
0
0
0
0
0
0
0
0
0
0
0
0
0
0
0
0
0
0
0
0
0
0
0
0
0
0
0
0
0
0
0
0
0
0
0
0
0
0
0
0
0
0
0
0
0
0
0
0
0
0
0
0
0
0
0
0
0
0
0
0
0
0
0
0
0
0
0
0
0
0
0
0
0
0
0
0
0
0
0
0
0
0
0
0
0
0
0
0
0
0
0
0
0
0
0
0
0
0
0
0
0
0
0
0
0
0
0
0
0
0
0
0
0
0
0
0
0
0
0
0
0
0
0
0
0
0
0
0
0
0
0
0
0
0
0
0
0
0
0
0
0
0
0
0
0
0
0
0
0
0
0
0
0
0
0
0
0
0
0
0
0
0
0
0
0
0
0
0
0
0
0
0
0
0
0
0
0
0
0
0
0
0
0
0
0
0
0
0
0
0
0
0
0
0
0
0
0
0
0
0
0
0
0
0
0
0
0
0
0
0
0
0
0
0
0
0
0
0
0
0
0
0
0
0
0
0
0
0
0
0
0
0
0
0
0
0
0
0
0
0
0
0
0
0
0
0
0
0
0
0
0
0
0
0
0
0
0
0
0
0
0
0
0
0
0
0
0
0
0
0
0
0
0
0
0
0
0
0
0
0
0
0
0
0
0
0
0
0
0
0
0
0
0
0
0
0
0
0
0
0
0
0
0
0
0
0
0
0
0
0
0
0
0
0
0
0
0
0
0
0
0
0
0
0
0
0
0
0
0
0
0
0
0
0
0
0
0
0
0
0
0
0
0
0
0
0
0
0
0
0
0
0
0
0
0
0
0
0
0
0
0
0
0
0
0
0
0
0
0
0
0
0
0
0
0
0
0
0
0
0
0
0
0
0
0
0
0
0
0
0
0
0
0
0
0
0
0
0
0
0
0
0
0
0
0
0
0
0
0
0
0
0
0
0
0
0
0
0
0
0
0
0
0
0
0
0
0
0
0
0
0
0
0
0
0
0
0
0
0
0
0
0
0
0
0
0
0
0
0
0
0
0
0
0
0
0
0
0
0
0
0
0
0
0
0
0
0
0
0
0
0
0
0
0
0
0
0
0
0
0
0
0
0
0
0
0
0
0
0
0
0
0
0
0
0
0
0
0
0
0
0
0
0
0
0
0
0
0
0
0
0
0
0
0
0
0
0
0
0
0
0
0
0
0
0
0
0
0
0
0
0
0
0
0
0
0
0
0
0
0
0
0
0
0
0
0
0
0
0
0
0
0
0
0
0
0
0
0
0
0
0
0
0
0
0
0
0
0
0
0
0
0
0
0
0
0
0
0
0
0
0
0
0
0
0
0
0
0
0
0
0
0
0
0
0
0
0
0
0
0
0
0
0
0
0
0
0
0
0
0
0
0
0
0
0
0
0
0
0
0
0
0
0
0
0
0
0
0
0
0
0
0
0
0
0
0
0
0
0
0
0
0
0
0
0
0
0
0
0
0
0
0
0
0
0
0
0
0
0
0
0
0
1
1
1
1
1
1
1
1
1
1
1
1
3
3
3
3
3
3
3
3
3
3
3
3
2
2
2
2
2
2
2
2
2
2
2
2
2
2
2
2
2
2
2
2
2
2
2
2
2
2
2
2
2
2
2
2
2
2
2
2
2
2
2
2
2
2
2
2
2
2
2
2
2
2
2
2
2
2
2
4
4
4
4
4
4
4
4
4
4
4
4
4
4
4
4
4
4
4
4
4
4
4
4
4
4
4
4
4
4
4
4
4
4
4
4
4
4
4
4
4
4
4
4
4
4
4
4
4
4
4
4
4
4
4

LOOKUP_TABLE FreeFempp_table 5
1.00000000 0.00000000 0.00000000 1.00000000
1.00000000 1.00000000 0.00000000 1.00000000
1.00000000 0.00000000 1.00000000 1.00000000
0.00000000 1.00000000 0.00000000 1.00000000
0.00000000 1.00000000 1.00000000 1.00000000

POINT_DATA 565
FIELD FieldData 1
Density 1 565 float
2.22152509e-02 2.22036354e-02 2.23001894e-02 2.86485963e-02 2.22055223e-02 2.50154696e-02 2.61344612e-02 2.22138688e-02 1.09199584e-01 2.23498717e-02 3.80177051e-02 6.24215230e-02 2.25566164e-01 2.40367297e-02 2.21248344e-02 4.73534524e-01 5.15562817e-02 3.82191539e-01 3.72310996e-01 4.72467244e-02 8.73594433e-02 4.93236095e-01 8.04045498e-01 2.26025581e-02 5.45213595e-02 8.22854340e-01 8.48019540e-01 2.59775639e-01 8.10195580e-02 5.19287527e-01 9.36567187e-01 5.02621353e-01 9.43632364e-01 9.42082584e-01 9.51554477e-01 1.70430645e-01 1.62113860e-01 9.76472437e-01 9.66265202e-01 5.91133535e-01 8.76576841e-01 9.72040355e-01 9.62861121e-01 9.77279067e-01 9.07255888e-01 9.77644205e-01 9.77888525e-01 8.65692198e-01 5.92193663e-01 4.66045022e-01 9.77832913e-01 9.77618217e-01 9.77888525e-01 9.77724910e-01 9.77888525e-01 9.76414740e-01 9.77888465e-01 9.77888465e-01 9.53840435e-01 9.77354467e-01 9.77888525e-01 9.77888405e-01 9.77888465e-01 9.77888465e-01 9.77888465e-01 9.77888525e-01 9.77888525e-01 9.77888346e-01 9.77888346e-01 9.77860153e-01 9.77888525e-01 9.77888465e-01 9.77888525e-01 9.77888405e-01 9.77888405e-01 9.77888465e-01 9.77888405e-01 9.77888286e-01 9.77887988e-01 9.77888227e-01 9.77888286e-01 9.77888525e-01 9.77888465e-01 9.77888286e-01 9.77888346e-01 9.77888167e-01 9.77888167e-01 9.77888286e-01 9.77888048e-01 9.77887988e-01 9.77888048e-01 9.77888048e-01 9.77888227e-01 9.77888346e-01 9.77888167e-01 9.77888405e-01 9.77888107e-01 9.77887750e-01 9.77888167e-01 9.77888048e-01 9.77887988e-01 9.77888167e-01 9.77888167e-01 9.77888286e-01 9.77888286e-01 9.77741241e-01 8.80740583e-01 9.52633500e-01 9.77887869e-01 9.77874935e-01 9.77888227e-01 9.77887928e-01 9.77887928e-01 9.77887750e-01 9.77888167e-01 9.77867901e-01 9.76516902e-01 9.75469828e-01 9.76007938e-01 8.97157311e-01 7.13548899e-01 9.77888048e-01 9.72945571e-01 9.76048768e-01 9.77878749e-01 5.54372072e-01 4.20832127e-01 9.77888167e-01 9.77888048e-01 9.77888107e-01 9.77888346e-01 9.64521527e-01 9.54946816e-01 9.58513021e-01 9.57788646e-01 9.31841254e-01 8.86703730e-01 7.05449045e-01 9.77888286e-01 9.58221734e-01 9.50631499e-01 9.48558033e-01 9.61088479e-01 9.69266117e-01 3.26631844e-01 1.57802373e-01 8.95167530e-01 4.93297905e-01 1.19318925e-01 8.42950463e-01 9.77888286e-01 9.77742791e-01 9.77888346e-01 9.77888107e-01 9.77888346e-01 9.76673305e-01 9.62270379e-01 9.30261791e-01 9.16247845e-01 8.98351490e-01 7.49835134e-01 8.44160259e-01 8.82674813e-01 9.34387147e-01 9.27111745e-01 1.79555967e-01 8.31193253e-02 8.35354805e-01 2.56449938e-01 5.35863221e-01 6.39184937e-02 7.24912360e-02 6.29149735e-01 7.85976768e-01 7.05757439e-01 7.55725086e-01 9.71795082e-01 9.66252267e-01 9.77865398e-01 9.55717623e-01 9.77510870e-01 9.77888405e-01 9.62475002e-01 9.17755723e-01 7.72444606e-01 7.33350873e-01 7.11100996e-01 6.43224239e-01 6.90763175e-01 7.78213680e-01 7.78744221e-01 1.02866575e-01 4.20689769e-02 3.42937499e-01 2.68200561e-02 6.60894662e-02 4.40809935e-01 3.74563664e-01 5.96212208e-01 4.96144474e-01 5.85050106e-01 4.52210128e-01 9.42183852e-01 8.99899364e-01 9.36988890e-01 9.77829933e-01 9.19172347e-01 9.24713135e-01 9.65588093e-01 9.70148385e-01 8.37362587e-01 7.48077214e-01 4.13669229e-01 4.24281210e-01 3.82348388e-01 4.23545718e-01 4.66206789e-01 5.21257401e-01 5.54363549e-01 2.08725497e-01 6.92583844e-02 2.51985379e-02 2.78284065e-02 2.24404689e-02 4.04536538e-02 2.08118707e-01 2.97117084e-01 1.97006509e-01 2.64677584e-01 2.90473312e-01 2.01601639e-01 8.24370146e-01 6.41230464e-01 6.41172945e-01 7.59118557e-01 7.85590947e-01 9.60439205e-01 8.89028430e-01 8.09348226e-01 9.19579327e-01 9.46400642e-01 4.31583315e-01 1.67158753e-01 2.00590149e-01 2.47883871e-01 1.58249050e-01 2.73104310e-01 6.83500171e-02 2.21619941e-02 2.25216374e-02 2.33360138e-02 2.19210163e-02 9.85940173e-02 1.15911968e-01 5.29028252e-02 9.52438936e-02 9.98106375e-02 1.50088266e-01 1.01677351e-01 3.00093532e-01 6.29233479e-01 3.73764336e-01 3.27447206e-01 4.59931582e-01 6.06645644e-01 6.48794472e-01 4.66393083e-01 8.66629899e-01 7.19412625e-01 5.25449991e-01 4.27890539e-01 7.65224695e-01 6.38040185e-01 8.38656843e-01 1.45434842e-01 4.48535457e-02 7.07709119e-02 9.00756493e-02 2.41453461e-02 2.25622449e-02 2.24974975e-02 2.24454850e-02 5.25123738e-02 3.45902927e-02 4.57390845e-02 5.49502745e-02 4.53649871e-02 3.56956013e-02 1.48650572e-01 1.55781403e-01 2.08685771e-01 1.48474932e-01 2.95847714e-01 2.47914344e-01 4.28862363e-01 2.06417322e-01 5.30126035e-01 6.48364544e-01 3.19192111e-01 8.27117562e-02 6.02777675e-02 2.42241453e-02 2.65023373e-02 2.23161634e-02 2.21778117e-02 2.28667371e-02 2.26031840e-02 2.22722758e-02 2.31497232e-02 3.18118036e-02 2.72048004e-02 6.53647855e-02 2.44935360e-02 2.31425781e-02 5.33246994e-02 1.23331942e-01 8.46139565e-02 9.08596739e-02 2.09441617e-01 9.79626179e-02 3.08875442e-01 3.62858295e-01 9.27806422e-02 1.24887854e-01 2.29235012e-02 3.19358334e-02 2.26287339e-02 2.24535931e-02 2.30134130e-02 2.30382681e-02 2.31982451e-02 2.25957613e-02 2.22580992e-02 2.25424618e-02 3.11828051e-02 2.50546243e-02 2.73845699e-02 3.19300443e-02 2.22220104e-02 4.98976000e-02 4.44883965e-02 6.40787855e-02 2.44437233e-02 1.70973405e-01 8.98368284e-02 4.69010584e-02 3.13054398e-02 2.23616678e-02 2.28402503e-02 2.35731322e-02 2.42072921e-02 2.48119663e-02 2.28590053e-02 2.22774111e-02 2.74511185e-02 3.06137279e-02 8.31193253e-02 9.77741241e-01 9.52633500e-01 4.20689769e-02 8.80740583e-01 4.20832127e-01 1.57802373e-01 3.40534374e-02 7.13548899e-01 2.29652468e-02 2.23028343e-02 2.59367432e-02 2.24490147e-02 2.25151721e-02 2.79665831e-02 2.25490723e-02 2.28172019e-02 2.23621652e-02 2.47778352e-02 2.32561454e-02 2.62091756e-02 2.23708581e-02 2.85677835e-02 2.72075117e-01 8.28446627e-01 9.77888405e-01 2.51985379e-02 3.59898731e-02 9.77888405e-01 2.25622449e-02 9.77888167e-01 2.21619941e-02 9.77888167e-01 2.21778117e-02 3.63941044e-02 2.26208717e-02 2.26430576e-02 2.19454523e-02 2.30269339e-02 2.23109648e-02 2.30081305e-02 2.18171198e-02 2.42611915e-02 2.69876439e-02 2.27948483e-02 3.21117975e-02 6.00634143e-02 2.30794504e-01 9.59061742e-01 5.66139817e-01 9.77888465e-01 9.62362707e-01 2.58617233e-02 2.25398857e-02 2.31425781e-02 3.16488855e-02 3.63216177e-02 9.77888525e-01 2.44935360e-02 2.30192505e-02 2.23100781e-02 2.21507810e-02 2.40888130e-02 2.37912834e-02 2.37882175e-02 2.70448904e-02 2.44236924e-02 6.28274977e-02 1.73823282e-01 7.99399078e-01 9.28475678e-01 2.24903058e-02 2.26740781e-02 3.05209085e-02 3.40748280e-02 9.72040355e-01 2.27695946e-02 2.33362522e-02 9.51554477e-01 3.16319354e-02 8.04045498e-01 2.54657157e-02 2.34350804e-02 2.45372858e-02 2.21974272e-02 2.62100920e-02 2.84338128e-02 2.40785386e-02 2.59486344e-02 3.07170171e-02 2.25209240e-02 1.65226161e-01 6.34869710e-02 5.08605897e-01 2.25937665e-02 2.28532460e-02 2.81892195e-02 2.39425432e-02 2.83892546e-02 2.25566164e-01 2.50154696e-02 2.30462197e-02 2.44746432e-02 2.60939617e-02 2.79987771e-02 3.06342803e-02 2.63470840e-02 3.29951085e-02 3.43815684e-02 2.33393740e-02 2.44893599e-02 2.68203672e-02 2.24203654e-02 2.22450718e-02 4.12415899e-02 2.25572661e-02 2.27466878e-02 2.22036354e-02 2.44935360e-02 2.73845699e-02 3.06137279e-02 3.40534374e-02 2.29007676e-02 2.35927086e-02 2.85573415e-02 3.17997597e-02 3.63941044e-02 3.63216177e-02 3.59898731e-02 2.23743692e-02 2.22397167e-02 2.22152509e-02 2.24157106e-02 2.25105546e-02 2.25657765e-02 2.58716624e-02 2.32364498e-02 2.83208638e-02 3.16319354e-02 3.40748280e-02 2.23866887e-02 2.22477578e-02 2.22055223e-02 2.23747063e-02 2.24415902e-02 2.42880285e-02 2.54657157e-02 2.26926226e-02 2.83892546e-02 2.22633835e-02 2.22138688e-02 2.31348705e-02 2.23859586e-02 2.24941261e-02 2.24334374e-02 2.31444016e-02 2.33362522e-02 2.29649376e-02 2.22518779e-02 2.21248344e-02 5.45213595e-02 4.66045022e-01 1.62113860e-01 3.23389992e-02 1.22547396e-01 1.33837223e-01 2.26290189e-02 2.24109143e-02 2.32949387e-02 2.29339506e-02 2.44935360e-02 2.30462197e-02 9.77888525e-01 9.77888525e-01 6.05037212e-02 7.43627489e-01 3.92835647e-01 2.27815919e-02 2.49457806e-02 1.00442015e-01 6.45106807e-02 2.21974272e-02 9.77888525e-01 9.77888346e-01 2.03135908e-01 6.55905843e-01 9.75364983e-01 2.21507810e-02 6.44795820e-02 2.18171198e-02 1.76363960e-01 9.77888167e-01 9.77888107e-01 9.77887928e-01 5.61347306e-01 9.67991710e-01 3.13054398e-02 4.81293052e-01 2.28172019e-02 8.98368284e-02 9.77888346e-01 8.31063330e-01 9.77888405e-01 6.48364544e-01 1.70973405e-01 3.62858295e-01 8.38656843e-01 9.46400642e-01 9.70148385e-01 
