# vtk DataFile Version 2.0
results_case1/1616747839/sol_toll1e-05_vf0.3_iter9.vtk, Created by Freefem++ 
ASCII
DATASET UNSTRUCTURED_GRID
POINTS 579 float
0 0.69399182 0
0 0.70239883 0
0 0.29088067 0
0 0.295525 0
0 0.30059656 0
0 0.30727968 0
0 0.66155376 0
0 0.68213664 0
0 0.70979466 0
0 0.71710989 0
0.0034485458 0.66988765 0
0 0.72536015 0
0 0.27055326 0
0 0.28536 0
0 0.27843442 0
0 0.40088309 0
0 0.31795005 0
0 0.33651824 0
0 0.36769952 0
0 0.42192988 0
0 0.4336466 0
0.0053259924 0.35027902 0
0 0.59741758 0
0 0.62961968 0
0.0035020644 0.63185367 0
0.0068587152 0.63778437 0
0 0.74122247 0
0.0042325132 0.6942433 0
0 0.75961589 0
0 0.7494691 0
0 0.73391732 0
0 0.26405878 0
0 0.25813079 0
0 0.25143216 0
0.0054268075 0.32089072 0
0.0034116455 0.40392462 0
0.0041860281 0.37536979 0
0 0.44470019 0
0 0.44948565 0
0.0043420201 0.42774412 0
0 0.44039407 0
0.0095363806 0.37077221 0
0.00836299 0.39229321 0
0 0.57685465 0
0.0036505304 0.59457691 0
0 0.55835951 0
0 0.56506342 0
0.0074944483 0.59882844 0
0.008608251 0.65678526 0
0.010951383 0.60849007 0
0 0.77404581 0
0 0.7963223 0
0.0054044323 0.71686529 0
0 0.24302676 0
0.0035361379 0.28139596 0
0 0.23099616 0
0.0081867994 0.32017307 0
0.0079008258 0.41557923 0
0 0.46336597 0
0 0.45607619 0
0.0063909718 0.44048315 0
0.01257951 0.37841728 0
0.012272262 0.41242684 0
0 0.55365018 0
0.006353268 0.5719926 0
0 0.54836255 0
0.011400861 0.58178928 0
0 0.5423324 0
0 0.53231682 0
0.012999367 0.61904264 0
0.010843464 0.66324097 0
0.015256234 0.59075068 0
0 0.82890195 0
0 0.87185432 0
0.0068313543 0.75247208 0
0.012447153 0.67912955 0
0.0033051617 0.25270397 0
0 0.21174422 0
0 0.18235339 0
0.007712953 0.2802171 0
0.013598231 0.34172617 0
0 0.47412715 0
0.011350871 0.4383031 0
0.0079177666 0.45640988 0
0.015548137 0.4363762 0
0.016292156 0.4019827 0
0.0096218625 0.55900246 0
0.014529984 0.57133504 0
0.010893213 0.54488426 0
0 0.49213263 0
0 0.51501024 0
0.016557019 0.6186426 0
0.020053423 0.5873114 0
0.01878288 0.64266578 0
0 1 0
0 0.93026262 0
0.0084300448 0.8105231 0
0.015591025 0.7122073 0
0.020429141 0.38970175 0
0.018616804 0.33123261 0
0.0044512536 0.21013628 0
0 0.13954467 0
0.011143331 0.25673456 0
0 0.07757216 0
0.012887689 0.4673828 0
0.01996404 0.44022576 0
0.020632864 0.56433427 0
0.018060115 0.53477805 0
0.014261091 0.50089686 0
0.024339233 0.61265403 0
0.028480634 0.58796432 0
0.025199014 0.66156277 0
0.018490192 1 0
0.01463789 0.8731526 0
0.022147668 0.75210255 0
0.026431014 0.42247024 0
0.027518834 0.35693178 0
0.020190604 0.26032801 0
0.0089140336 0.15657657 0
0 0 0
0.026379603 0.47287327 0
0.23282187 1 0
0.1193183 1 0
0.16972383 1 0
0.034910628 0.56973838 0
0.031213449 0.52217358 0
0.036260771 0.6282321 0
0.035024882 0.69842353 0
0.079158031 1 0
0.045788076 1 0
0.037304993 0.82365114 0
0.036740706 0.41413576 0
0.036565771 0.2991452 0
0.022418779 0.15678731 0
0.018490192 0 0
0.045788076 0 0
0.079158031 0 0
0.044301405 0.48253726 0
0.43609151 1 0
0.36469852 1 0
0.29931871 1 0
0.51567619 1 0
0.18020256 0.86031851 0
0.11548552 0.86313122 0
0.053397115 0.61825791 0
0.054248887 0.55573161 0
0.055240689 0.69752253 0
0.074252574 0.80612141 0
0.055422257 0.38267187 0
0.051285565 0.20333796 0
0.1193183 0 0
0.08686303 0.16135481 0
0.16972383 0 0
0.074132347 0.49413394 0
0.68472114 1 0
0.59801808 1 0
0.33103627 0.88000685 0
0.24421815 0.85621346 0
0.38998311 0.85776394 0
0.13775549 0.7412835 0
0.087985173 0.64199886 0
0.090744149 0.33528199 0
0.14234418 0.1839511 0
0.23282187 0 0
0.29931871 0 0
0.12118113 0.46076918 0
0.11756057 0.55539634 0
0.77866562 1 0
0.88436506 1 0
1 1 0
0.66035495 0.91640565 0
0.50944938 0.87193775 0
0.22980854 0.74909259 0
0.33015875 0.75640472 0
0.16455008 0.62878718 0
0.36469852 0 0
0.15116569 0.34368307 0
0.20959377 0.20232142 0
0.28227503 0.17487867 0
0.43609151 0 0
0.51567619 0 0
0.68472114 0 0
0.59801808 0 0
1 0 0
0.88436506 0 0
0.77866562 0 0
0.18000689 0.43737908 0
0.22451314 0.59184939 0
0.20669346 0.5293462 0
0.79860709 0.90914383 0
1 0.93026262 0
0.68002807 0.825999 0
0.61205924 0.8457095 0
0.46873191 0.79016316 0
0.40027794 0.72192016 0
0.28098475 0.66632957 0
0.36956716 0.15694391 0
0.29581973 0.26100839 0
0.2485151 0.41354215 0
0.23934853 0.33399376 0
0.49013118 0.12145654 0
1 0.07757216 0
0.62428668 0.11387634 0
0.79460966 0.098710684 0
1 0.87185432 0
0.28021352 0.47369368 0
0.34038322 0.52617213 0
0.3366946 0.60024712 0
0.79810971 0.83323868 0
0.57090574 0.76632942 0
0.45276957 0.69016844 0
0.41978466 0.22313452 0
0.35269019 0.29785909 0
0.33572434 0.39231698 0
0.51039456 0.22235382 0
1 0.13954467 0
0.80585994 0.16507874 0
0.63932864 0.19461612 0
1 0.82890195 0
0.82575318 0.79752829 0
0.37812758 0.46353406 0
0.41407086 0.51095671 0
0.41022263 0.57643808 0
0.45016993 0.64097045 0
0.64747556 0.75022717 0
0.53981567 0.69106195 0
0.71809703 0.74712863 0
0.41608985 0.40767299 0
0.43316208 0.32586437 0
1 0.18235339 0
0.53328442 0.28661691 0
0.80752556 0.2081767 0
0.65855067 0.24069252 0
1 0.7963223 0
0.835736 0.76873019 0
0.44449836 0.45156293 0
0.45196587 0.5692104 0
0.45605633 0.5140609 0
0.50820252 0.63250449 0
0.60576173 0.69878695 0
0.65295302 0.70279635 0
0.72863033 0.72915221 0
0.47844869 0.42772794 0
1 0.21174422 0
0.48485579 0.3695266 0
0.8220258 0.22972473 0
0.56869438 0.30676734 0
0.68309526 0.26124281 0
1 0.23099616 0
0.7311129 0.71720881 0
1 0.77404581 0
0.8946085 0.76506739 0
0.80646687 0.74207228 0
0.5097366 0.3899504 0
0.47653893 0.4817573 0
0.48603743 0.53595621 0
0.48858312 0.5761844 0
0.53112039 0.62029268 0
0.58709215 0.66273094 0
0.66136586 0.69200968 0
0.5664441 0.63173509 0
0.49852162 0.43996705 0
0.49633616 0.48237907 0
0.86151073 0.23960658 0
0.54956811 0.36726734 0
0.54774631 0.34564542 0
0.75982782 0.25722581 0
0.61154289 0.30708766 0
0.68890852 0.27508477 0
0.8771569 0.25052259 0
1 0.24302676 0
0.70252507 0.69894413 0
0.76176532 0.71778694 0
0.81959013 0.73458941 0
1 0.75961589 0
0.90133346 0.75104627 0
1 0.7494691 0
0.57418134 0.36131976 0
0.52393109 0.40937385 0
0.54802576 0.39276585 0
0.50047055 0.52930523 0
0.52123644 0.58332353 0
0.65856244 0.67851363 0
0.61545117 0.6590299 0
0.5745986 0.62330546 0
0.51681153 0.45171908 0
0.51065687 0.48453714 0
0.51350532 0.52256736 0
0.79536286 0.26393897 0
0.61154134 0.34291487 0
0.60201857 0.33144696 0
0.71832307 0.28016511 0
0.65683535 0.30300458 0
0.74178838 0.28346012 0
1 0.25143216 0
0.87441612 0.26034824 0
0.69824921 0.68643358 0
0.75338969 0.70717709 0
0.81340221 0.72394594 0
0.87306188 0.73678285 0
0.93512945 0.74386633 0
1 0.74122247 0
0.57870046 0.37414403 0
0.60697974 0.36003392 0
0.56039722 0.40123198 0
0.53759699 0.42452227 0
0.54503044 0.59182759 0
0.5252602 0.56284862 0
0.66898971 0.6657446 0
0.64455497 0.66121703 0
0.6089566 0.63734041 0
0.57619472 0.60900126 0
0.53658876 0.45123866 0
0.52526105 0.51221623 0
0.52606761 0.47962295 0
0.53438462 0.55038405 0
0.7930228 0.2752192 0
0.64476892 0.33536634 0
0.65005448 0.32078201 0
0.69258197 0.30188062 0
0.73544332 0.29497586 0
1 0.26405878 0
0.9002975 0.2642274 0
1 0.25813079 0
0.83754725 0.27245694 0
0.70866078 0.68020724 0
0.74654931 0.69706378 0
0.8028056 0.71202645 0
0.85638265 0.72572857 0
0.92175218 0.73343056 0
1 0.73391732 0
0.93389 0.72646425 0
0.67830531 0.65881533 0
0.71370414 0.67028299 0
0.58686288 0.38705779 0
0.62519791 0.35898896 0
0.56019257 0.4213224 0
0.55336711 0.57960452 0
0.63692635 0.64136432 0
0.60725755 0.61836647 0
0.58173728 0.59792577 0
0.55132853 0.45192247 0
0.54302029 0.47801833 0
0.54260203 0.53526928 0
0.53934286 0.5046709 0
0.55557946 0.55933102 0
0.66394975 0.33680095 0
0.64636909 0.35763216 0
0.78744492 0.28581785 0
0.69174921 0.31629105 0
0.73962491 0.30243006 0
1 0.27055326 0
0.91219573 0.27027912 0
0.85134496 0.27828086 0
0.81644668 0.28682623 0
0.74490721 0.68469553 0
0.77853512 0.6977379 0
0.81519164 0.70332568 0
0.84573602 0.71337751 0
0.88398487 0.72156544 0
0.92507132 0.71714611 0
1 0.72536015 0
0.66111366 0.64102449 0
0.7008513 0.65446729 0
0.74238327 0.67085682 0
0.58458441 0.40745662 0
0.61108194 0.38197907 0
0.57172739 0.43527056 0
0.57684853 0.58045421 0
0.63473067 0.62114935 0
0.60820492 0.59767225 0
0.57491325 0.55982308 0
0.56427392 0.46514805 0
0.56272405 0.48795975 0
0.55497672 0.50306421 0
0.56182584 0.53063257 0
0.63294669 0.38003006 0
0.66405768 0.3611805 0
0.69800852 0.32702352 0
0.68293345 0.34286832 0
0.77787144 0.29954042 0
0.73284039 0.31512051 0
1 0.27843442 0
0.91437191 0.27919154 0
1 0.28536 0
0.86123784 0.28774271 0
0.81640379 0.29880099 0
0.78683452 0.68760763 0
0.8384132 0.69887401 0
0.87583036 0.70887305 0
0.92422118 0.70829539 0
1 0.71710989 0
0.67232672 0.63276265 0
0.71808704 0.65019084 0
0.76691412 0.6715849 0
0.62664106 0.39802043 0
0.59382794 0.4223916 0
0.60672802 0.40304222 0
0.58576926 0.44704467 0
0.59661932 0.57182172 0
0.618733 0.5837858 0
0.64114529 0.60696593 0
0.58653652 0.54074739 0
0.5814061 0.4782442 0
0.57899532 0.50814942 0
0.66239381 0.37461309 0
0.70056035 0.3488277 0
0.72585886 0.33050027 0
0.77088597 0.31443081 0
0.92255206 0.28958092 0
1 0.29088067 0
0.80918463 0.31149289 0
0.86150193 0.29797702 0
0.82144676 0.6875303 0
0.8872763 0.6989156 0
1 0.70979466 0
0.6740364 0.61942532 0
0.71061917 0.6352117 0
0.75766496 0.65646153 0
0.79916364 0.67512374 0
0.63822554 0.40089657 0
0.59723786 0.45477521 0
0.61187932 0.42352232 0
0.60987445 0.55748304 0
0.6391738 0.58353219 0
0.59984476 0.52125288 0
0.59803225 0.4855719 0
0.70472841 0.35681153 0
0.67043397 0.38312072 0
0.7567885 0.33134762 0
0.81993774 0.31729801 0
0.91510062 0.29840048 0
1 0.295525 0
0.85740246 0.30531254 0
0.85611848 0.68600596 0
0.92442934 0.69530643 0
1 0.70239883 0
0.67450642 0.60438096 0
0.72656871 0.63082389 0
0.78241795 0.6515823 0
0.81980509 0.66980295 0
0.63786144 0.41639809 0
0.61376188 0.44688028 0
0.62228651 0.54292525 0
0.64726948 0.56707457 0
0.61672276 0.46780509 0
0.61578821 0.50387546 0
0.73826466 0.3473693 0
0.70817267 0.36832812 0
0.67307092 0.39704099 0
0.78808931 0.33246089 0
1 0.30059656 0
0.84672588 0.31868874 0
0.89607428 0.30691468 0
[...]
CELL_DATA 1156
Scalars  Label int 1
LOOKUP_TABLE FreeFempp_table
0
0
0
0
0
0
0
0
0
0
0
0
0
0
0
0
0
0
0
0
0
0
0
0
0
0
0
0
0
0
0
0
0
0
0
0
0
0
0
0
0
0
0
0
0
0
0
0
0
0
0
0
0
0
0
0
0
0
0
0
0
0
0
0
0
0
0
0
0
0
0
0
0
0
0
0
0
0
0
0
0
0
0
0
0
0
0
0
0
0
0
0
0
0
0
0
0
0
0
0
0
0
0
0
0
0
0
0
0
0
0
0
0
0
0
0
0
0
0
0
0
0
0
0
0
0
0
0
0
0
0
0
0
0
0
0
0
0
0
0
0
0
0
0
0
0
0
0
0
0
0
0
0
0
0
0
0
0
0
0
0
0
0
0
0
0
0
0
0
0
0
0
0
0
0
0
0
0
0
0
0
0
0
0
0
0
0
0
0
0
0
0
0
0
0
0
0
0
0
0
0
0
0
0
0
0
0
0
0
0
0
0
0
0
0
0
0
0
0
0
0
0
0
0
0
0
0
0
0
0
0
0
0
0
0
0
0
0
0
0
0
0
0
0
0
0
0
0
0
0
0
0
0
0
0
0
0
0
0
0
0
0
0
0
0
0
0
0
0
0
0
0
0
0
0
0
0
0
0
0
0
0
0
0
0
0
0
0
0
0
0
0
0
0
0
0
0
0
0
0
0
0
0
0
0
0
0
0
0
0
0
0
0
0
0
0
0
0
0
0
0
0
0
0
0
0
0
0
0
0
0
0
0
0
0
0
0
0
0
0
0
0
0
0
0
0
0
0
0
0
0
0
0
0
0
0
0
0
0
0
0
0
0
0
0
0
0
0
0
0
0
0
0
0
0
0
0
0
0
0
0
0
0
0
0
0
0
0
0
0
0
0
0
0
0
0
0
0
0
0
0
0
0
0
0
0
0
0
0
0
0
0
0
0
0
0
0
0
0
0
0
0
0
0
0
0
0
0
0
0
0
0
0
0
0
0
0
0
0
0
0
0
0
0
0
0
0
0
0
0
0
0
0
0
0
0
0
0
0
0
0
0
0
0
0
0
0
0
0
0
0
0
0
0
0
0
0
0
0
0
0
0
0
0
0
0
0
0
0
0
0
0
0
0
0
0
0
0
0
0
0
0
0
0
0
0
0
0
0
0
0
0
0
0
0
0
0
0
0
0
0
0
0
0
0
0
0
0
0
0
0
0
0
0
0
0
0
0
0
0
0
0
0
0
0
0
0
0
0
0
0
0
0
0
0
0
0
0
0
0
0
0
0
0
0
0
0
0
0
0
0
0
0
0
0
0
0
0
0
0
0
0
0
0
0
0
0
0
0
0
0
0
0
0
0
0
0
0
0
0
0
0
0
0
0
0
0
0
0
0
0
0
0
0
0
0
0
0
0
0
0
0
0
0
0
0
0
0
0
0
0
0
0
0
0
0
0
0
0
0
0
0
0
0
0
0
0
0
0
0
0
0
0
0
0
0
0
0
0
0
0
0
0
0
0
0
0
0
0
0
0
0
0
0
0
0
0
0
0
0
0
0
0
0
0
0
0
0
0
0
0
0
0
0
0
0
0
0
0
0
0
0
0
0
0
0
0
0
0
0
0
0
0
0
0
0
0
0
0
0
0
0
0
0
0
0
0
0
0
0
0
0
0
0
0
0
0
0
0
0
0
0
0
0
0
0
0
0
0
0
0
0
0
0
0
0
0
0
0
0
0
0
0
0
0
0
0
0
0
0
0
0
0
0
0
0
0
0
0
0
0
0
0
0
0
0
0
0
0
0
0
0
0
0
0
0
0
0
0
0
0
0
0
0
0
0
0
0
0
0
0
0
0
0
0
0
0
0
0
0
0
0
0
0
0
0
0
0
0
0
0
0
0
0
0
0
0
0
0
0
0
0
0
0
0
0
0
0
0
0
0
0
0
0
0
0
0
0
0
0
0
0
0
0
0
0
0
0
0
0
0
0
0
0
0
0
0
0
0
0
0
0
0
0
0
0
0
0
0
0
0
0
0
0
0
0
0
0
0
0
0
0
0
0
0
0
0
0
0
0
0
0
0
0
0
0
0
0
0
0
0
0
0
0
0
0
0
0
0
0
0
0
0
0
0
0
0
0
0
0
0
0
0
0
0
0
0
0
0
0
0
0
0
0
0
0
0
0
0
0
0
0
0
0
0
0
0
0
0
0
0
0
0
0
0
0
0
0
0
0
0
0
0
0
0
0
0
0
0
0
0
0
0
0
0
0
0
0
0
0
0
0
0
0
0
0
0
0
0
0
0
0
0
0
1
1
1
1
1
1
1
1
1
1
1
1
1
1
1
3
3
3
3
3
3
3
3
3
3
3
3
3
3
3
2
2
2
2
2
2
2
2
2
2
2
2
2
2
2
2
2
2
2
2
2
2
2
2
2
2
2
2
2
2
2
2
2
2
2
2
2
2
2
2
2
2
2
2
2
2
2
2
2
2
2
2
2
2
2
2
4
4
4
4
4
4
4
4
4
4
4
4
4
4
4
4
4
4
4
4
4
4
4
4
4
4
4
4
4
4
4
4
4
4
4
4
4
4
4
4
4
4
4
4
4
4
4
4
4
4
4
4
4
4
4
4

LOOKUP_TABLE FreeFempp_table 5
1.00000000 0.00000000 0.00000000 1.00000000
1.00000000 1.00000000 0.00000000 1.00000000
1.00000000 0.00000000 1.00000000 1.00000000
0.00000000 1.00000000 0.00000000 1.00000000
0.00000000 1.00000000 1.00000000 1.00000000

POINT_DATA 579
FIELD FieldData 1
Density 1 579 float
9.71292853e-01 9.50302064e-01 8.37019384e-01 9.05151010e-01 9.50189292e-01 9.67100501e-01 9.76428807e-01 9.76429224e-01 8.62725139e-01 7.03369856e-01 8.49230886e-01 4.50966567e-01 2.85618305e-01 7.07353413e-01 5.08697927e-01 9.76428926e-01 9.76350367e-01 9.76428926e-01 9.76428688e-01 9.76429343e-01 9.76429462e-01 7.89459229e-01 9.76428986e-01 9.76428568e-01 9.67519164e-01 5.79976737e-01 8.65080655e-02 5.06752551e-01 2.44322419e-02 3.18084508e-02 1.91631660e-01 1.35597020e-01 7.63743371e-02 4.26479466e-02 3.02404642e-01 9.62720811e-01 9.50700283e-01 9.27090049e-01 6.62869096e-01 9.32991803e-01 9.69548702e-01 2.27519438e-01 5.64995348e-01 9.76429284e-01 9.74203289e-01 9.76429522e-01 9.76429462e-01 6.96811020e-01 1.76774248e-01 2.19304517e-01 2.55376920e-02 2.72731092e-02 8.59537721e-02 2.83539426e-02 8.81727859e-02 2.61111427e-02 5.98067902e-02 7.90150940e-01 2.55546272e-02 1.71600625e-01 5.46200335e-01 6.23027720e-02 1.84607908e-01 8.40832353e-01 7.76235521e-01 3.20130348e-01 4.40881550e-01 6.79630041e-02 2.37230249e-02 1.04716554e-01 6.71136156e-02 9.39864293e-02 2.88633332e-02 2.98869796e-02 2.68542655e-02 2.80971080e-02 2.79333368e-02 2.67566033e-02 2.90834494e-02 2.78978162e-02 2.70975605e-02 2.38353070e-02 1.56029418e-01 4.02444527e-02 5.96305430e-02 3.35388891e-02 1.33215651e-01 1.63921073e-01 2.39891447e-02 2.40105074e-02 2.40299590e-02 2.66332794e-02 4.10235673e-02 2.45219655e-02 3.45005654e-02 3.13185863e-02 2.87447236e-02 2.76191719e-02 2.53630597e-02 2.55582668e-02 2.89543010e-02 3.11926473e-02 2.64675021e-02 3.26675177e-02 2.46068016e-02 2.87044849e-02 2.52674334e-02 2.47926675e-02 2.43142303e-02 2.48390865e-02 2.48695072e-02 2.67858393e-02 3.12512703e-02 2.93510668e-02 3.12442258e-02 2.58181524e-02 2.69363970e-02 3.01045850e-02 3.16021666e-02 3.45005654e-02 2.56357435e-02 4.43134122e-02 4.32494245e-02 4.28273864e-02 2.71948129e-02 2.57150885e-02 2.78163999e-02 3.02698724e-02 4.08638790e-02 3.61343101e-02 3.67611386e-02 2.85250843e-02 3.24719809e-02 3.07028890e-02 3.12512703e-02 3.61343101e-02 4.08638790e-02 2.85220873e-02 4.82298881e-02 4.96892743e-02 4.90632802e-02 4.80083078e-02 4.42785174e-02 4.13265415e-02 2.93568410e-02 2.90722419e-02 3.35215963e-02 4.03078087e-02 3.60977128e-02 4.07818258e-02 4.32494245e-02 4.40649092e-02 4.28273864e-02 3.59299555e-02 4.36708443e-02 4.70349789e-02 4.86907996e-02 4.86551151e-02 4.68437187e-02 4.49575149e-02 3.89713384e-02 4.42679971e-02 4.40920703e-02 4.43134122e-02 4.90632802e-02 3.41057405e-02 3.86007428e-02 3.68943401e-02 3.35035399e-02 3.45005654e-02 4.09408063e-02 4.25967835e-02 4.76651751e-02 4.38925736e-02 4.19500172e-02 4.96892743e-02 3.91617864e-02 4.30594794e-02 4.21245582e-02 4.82298881e-02 4.80083078e-02 4.36708443e-02 4.70349789e-02 3.45005654e-02 3.35035399e-02 3.68943401e-02 3.52389142e-02 3.76945697e-02 3.34576741e-02 3.53241526e-02 3.13185863e-02 3.94509397e-02 4.04506512e-02 4.33495417e-02 4.44815084e-02 4.18912582e-02 4.72624116e-02 4.31616604e-02 3.40744033e-02 3.93811613e-02 4.84309867e-02 3.26675177e-02 4.30004820e-02 3.67067233e-02 2.98869796e-02 2.73217857e-02 2.77729463e-02 3.27523910e-02 3.77201326e-02 4.30650152e-02 3.83163542e-02 4.60215360e-02 4.23151813e-02 3.23996618e-02 4.76797074e-02 3.11926473e-02 3.58785614e-02 4.08646241e-02 2.88633332e-02 3.40419561e-02 2.78829150e-02 2.59522367e-02 2.78411992e-02 3.08091678e-02 4.00000587e-02 3.48813608e-02 2.98716500e-02 3.16445418e-02 4.07689400e-02 2.90834494e-02 3.96080799e-02 3.22060809e-02 3.59391235e-02 2.72731092e-02 3.04168947e-02 2.78200395e-02 2.66948212e-02 2.63667423e-02 3.07790469e-02 2.91738454e-02 2.69728918e-02 2.88052075e-02 2.73829270e-02 2.67566033e-02 3.54876332e-02 3.09373867e-02 3.30346785e-02 3.24057862e-02 2.61111427e-02 3.03422771e-02 2.55376920e-02 2.77424511e-02 2.73940489e-02 2.77909413e-02 2.64908094e-02 2.57967915e-02 2.67392173e-02 2.66957562e-02 2.58008577e-02 3.43004428e-02 3.24074365e-02 2.66643837e-02 3.33423205e-02 2.68126279e-02 2.54805144e-02 2.88451537e-02 2.79173292e-02 2.84967236e-02 2.84615103e-02 2.56938264e-02 2.83539426e-02 5.11628315e-02 4.81224433e-02 2.70078182e-02 2.44322419e-02 2.99036112e-02 3.18084508e-02 3.48539650e-02 2.82121301e-02 4.46235053e-02 2.90272739e-02 3.19720358e-02 8.09770450e-02 5.28976731e-02 6.34247437e-02 5.39850630e-02 4.80492041e-02 3.84390876e-02 3.03441212e-02 5.14820069e-02 2.72578653e-02 2.53540892e-02 2.70115044e-02 4.08153832e-02 4.26479466e-02 3.05362884e-02 1.20829776e-01 9.07286406e-02 9.72353220e-02 6.41465411e-02 5.13291694e-02 8.65080655e-02 5.29994592e-02 1.11975253e-01 9.91608202e-02 7.00681135e-02 8.08016360e-02 6.01624511e-02 2.07537964e-01 1.45807743e-01 1.51051491e-01 1.43662661e-01 9.93848443e-02 1.04371220e-01 1.49907514e-01 1.00011632e-01 6.80319294e-02 9.42029580e-02 4.45723496e-02 6.71840459e-02 7.05812499e-02 1.35597020e-01 6.47216141e-02 7.63743371e-02 8.16444159e-02 2.87086427e-01 2.45015398e-01 2.07468554e-01 2.05004528e-01 1.04485400e-01 1.91631660e-01 2.62377888e-01 4.60239977e-01 5.99753141e-01 2.01990545e-01 2.05952048e-01 2.00635329e-01 1.51098847e-01 3.32199782e-01 3.74764889e-01 3.21404755e-01 2.66918600e-01 2.85719931e-01 1.89980134e-01 2.15928629e-01 2.73935080e-01 2.89664149e-01 4.44398314e-01 1.17584407e-01 1.70720652e-01 2.19274491e-01 2.85618305e-01 1.38072133e-01 1.87429026e-01 2.63586313e-01 5.06737471e-01 4.24184024e-01 5.27167439e-01 4.21828151e-01 3.30857277e-01 5.28694391e-01 4.50966567e-01 6.28816068e-01 7.63880670e-01 7.90892303e-01 3.79502416e-01 3.87665272e-01 4.22176510e-01 4.40075129e-01 6.44613206e-01 6.49700105e-01 5.47321498e-01 5.10700583e-01 5.78175604e-01 4.67248112e-01 4.81823266e-01 6.46259308e-01 7.13337719e-01 4.08257544e-01 5.92006207e-01 3.58067483e-01 4.09514427e-01 5.08697927e-01 3.74688357e-01 7.07353413e-01 4.85495389e-01 5.67503631e-01 7.69472957e-01 7.25335777e-01 6.37801647e-01 7.72265851e-01 7.03369856e-01 8.29468966e-01 9.38298941e-01 9.19422269e-01 8.36776495e-01 7.03920722e-01 6.36181712e-01 6.98221147e-01 7.45155752e-01 8.40642929e-01 8.69558871e-01 7.62893438e-01 7.66619921e-01 7.77554929e-01 8.46831441e-01 8.12233150e-01 7.30204403e-01 6.88992500e-01 6.88117385e-01 8.37019384e-01 7.98118174e-01 7.27339923e-01 8.88152480e-01 9.02661324e-01 8.62725139e-01 9.39790726e-01 9.59314704e-01 9.57104325e-01 9.26139414e-01 8.95571828e-01 8.84807467e-01 8.45733404e-01 9.19327796e-01 9.57869411e-01 9.27010417e-01 9.35560703e-01 9.33266640e-01 9.49051797e-01 9.04770136e-01 9.06790376e-01 8.69113028e-01 9.05151010e-01 8.88882577e-01 9.63424623e-01 9.53871250e-01 9.50302064e-01 9.69139040e-01 9.69862163e-01 9.74459708e-01 9.74830449e-01 9.58279967e-01 9.48968232e-01 9.62193906e-01 9.75189209e-01 9.61080372e-01 9.67990696e-01 9.48096752e-01 9.64724958e-01 9.71825600e-01 9.51696813e-01 9.50189292e-01 9.51825380e-01 9.34231460e-01 9.76379931e-01 9.71292853e-01 9.76429045e-01 9.76313770e-01 9.76428926e-01 9.76414084e-01 9.67100501e-01 9.74822521e-01 9.76383328e-01 9.76345599e-01 9.76416767e-01 9.73716557e-01 9.76410925e-01 9.73741114e-01 9.74715054e-01 9.76429224e-01 9.76428866e-01 9.76428688e-01 9.76428747e-01 9.76428449e-01 9.76350367e-01 9.76428747e-01 9.76428628e-01 9.76426244e-01 9.76428986e-01 9.76428568e-01 9.76428986e-01 9.76428807e-01 9.76428330e-01 9.76428449e-01 9.76428092e-01 9.76428926e-01 9.76428449e-01 9.76428390e-01 9.76428330e-01 9.76428449e-01 9.76428568e-01 9.76427972e-01 9.76428807e-01 9.76428330e-01 9.76428688e-01 9.76428330e-01 9.76427972e-01 9.76428986e-01 9.76428688e-01 9.76428688e-01 9.76429045e-01 9.76428986e-01 9.76428926e-01 9.76428509e-01 9.76429343e-01 9.76429164e-01 9.76429224e-01 9.76429045e-01 9.76429284e-01 9.76429224e-01 9.76429105e-01 9.76429224e-01 9.76429343e-01 9.76429462e-01 9.76429045e-01 9.76429343e-01 9.76429343e-01 9.76429403e-01 9.76420701e-01 9.76429462e-01 9.76429403e-01 9.76394773e-01 9.76414859e-01 9.69548702e-01 9.76211786e-01 9.76427972e-01 9.75596011e-01 9.76414800e-01 9.76360142e-01 9.75778401e-01 9.76429522e-01 9.74996448e-01 9.75091815e-01 9.42397118e-01 9.27090049e-01 9.38052654e-01 9.46936846e-01 9.02456522e-01 9.65924323e-01 9.57459271e-01 9.74049926e-01 8.69799316e-01 9.73422647e-01 8.40832353e-01 8.69088829e-01 5.89255989e-01 5.83898544e-01 6.62869096e-01 8.51715684e-01 4.99612957e-01 5.07029414e-01 4.87789631e-01 8.19888771e-01 9.17938054e-01 3.20130348e-01 1.75679386e-01 2.37884045e-01 2.27129906e-01 1.71600625e-01 4.86594200e-01 5.97416945e-02 3.85668993e-01 6.66891932e-02 3.62220019e-01 6.79630041e-02 5.84007539e-02 2.67196018e-02 2.55546272e-02 2.74658483e-02 3.63548025e-02 3.91100422e-02 1.10430606e-01 2.37230249e-02 2.50974335e-02 2.38353070e-02 2.39485875e-02 2.90826224e-02 2.40299590e-02 2.40105074e-02 
