# vtk DataFile Version 2.0
results_case1/1616747839/sol_toll1e-05_vf0.3_iter2.vtk, Created by Freefem++ 
ASCII
DATASET UNSTRUCTURED_GRID
POINTS 472 float
1 0.8243282 0
1 0.86308195 0
1 0.98229746 0
1 1 0
1 0.77224186 0
0.89822254 0.83120236 0
0.92517465 0.7946765 0
1 0.89020757 0
0.87871397 0.85912708 0
0.79596075 0.8282633 0
0 0.98229746 0
0 0.97047423 0
0.66836298 1 0
1 0.9608031 0
1 0.97047423 0
0.77698141 0.98194636 0
0.55554951 0.98812927 0
1 0.72002847 0
0.92213157 0.74068985 0
0.85089913 0.78120107 0
0.75526494 0.79115646 0
1 0.67284138 0
1 0.93393523 0
1 0.91367913 0
0.84894283 0.89210896 0
0.80631614 0.86660334 0
0.69973614 0.82857038 0
0.014711026 0.99547775 0
0 1 0
0 0.9608031 0
0.016851883 0.9829033 0
0 0.95003699 0
0.44069696 1 0
1 0.95003699 0
0.58144822 0.97441776 0
0.71918191 0.95535261 0
0.74505841 0.96698978 0
0.42229944 0.9795926 0
0.92215209 0.67733613 0
0.81473994 0.73936207 0
0.86674834 0.70405175 0
0.76232037 0.72844702 0
0.68866331 0.76968902 0
0.92894952 0.62817776 0
1 0.62885743 0
0 0.77224186 0
0.79962943 0.92760453 0
0.75699887 0.90114583 0
0.69810353 0.86820112 0
0.60676803 0.82968823 0
0.61801374 0.79040275 0
0 0.91367913 0
0 0.8243282 0
0 0.86308195 0
0 0.89020757 0
0.025649259 1 0
0 0.93393523 0
0.016507656 0.96318502 0
0.055802304 1 0
0.098412984 1 0
0.16813003 1 0
0.32206515 0.98506387 0
0.28014176 1 0
0.6764475 0.94104265 0
0.59629782 0.92435549 0
0.51233783 0.94496947 0
0.40620139 0.96046354 0
0.51904967 0.96069174 0
0.31753954 0.96109207 0
0.86227461 0.64321105 0
0.80527151 0.67259261 0
0.72179152 0.69962838 0
0.632247 0.73352317 0
1 0.59788385 0
0.8803042 0.60255129 0
0.93101942 0.59069621 0
0.010138048 0.74301917 0
0 0.72002847 0
0 0.67284138 0
0.63746273 0.90584829 0
0.59900735 0.87003677 0
0.53127532 0.8205678 0
0.54573935 0.77004078 0
0.013114947 0.90048239 0
0.012684848 0.82978032 0
0.032920398 0.96925674 0
0.020554598 0.92972241 0
0.01972829 0.74884758 0
0.042916998 0.9544852 0
0.061781392 0.953737 0
0.11205339 0.97307525 0
0.078117782 0.94652063 0
0.16602617 0.97229228 0
0.22709344 0.9711607 0
0.23461526 0.95501797 0
0.20194187 0.9361196 0
0.47426778 0.90874345 0
0.26871867 0.93319884 0
0.43662926 0.92552443 0
0.36953681 0.93926848 0
0.75173616 0.64508053 0
0.81188378 0.61176498 0
0.67537157 0.66824992 0
0.57550694 0.70560563 0
1 0.58038479 0
0.94207275 0.56933118 0
0.85958643 0.57886768 0
0.89179196 0.56372561 0
0 0.54710619 0
0.012715113 0.67149501 0
0 0.62885743 0
0 0.59788385 0
0 0.56989075 0
0 0.58038479 0
0 0.55976432 0
0.51578279 0.88298045 0
0.48156555 0.83875332 0
0.46468669 0.77941346 0
0.48049917 0.72749552 0
0.023947252 0.84266759 0
0.031992771 0.90024178 0
0.024299197 0.67154088 0
0.027993164 0.73706219 0
0.043878018 0.89043945 0
0.055793008 0.89068213 0
0.10643938 0.93725357 0
0.07748437 0.90004326 0
0.15555241 0.9401585 0
0.18645431 0.91072654 0
0.41147042 0.88469603 0
0.33514296 0.9005271 0
0.27784576 0.91073025 0
0.72660723 0.60816105 0
0.79480859 0.57383211 0
0.62929845 0.64346558 0
0.52368129 0.67567066 0
1 0.56989075 0
0.66206863 0.59533006 0
0.95478446 0.55792886 0
0.92619748 0.54906603 0
0.90081801 0.55024909 0
0.84490748 0.55072005 0
0.79265818 0.54273488 0
0.86862565 0.53325361 0
0 0.53514579 0
0.016327817 0.55694258 0
0.016964254 0.62228501 0
0.015596132 0.59239676 0
0.018225624 0.57419665 0
0 0.52116509 0
0.40711509 0.8477382 0
0.40026931 0.79070287 0
0.43962088 0.67569617 0
0.40017354 0.73228841 0
0.028762627 0.62932356 0
0.032659636 0.78129994 0
0.037469351 0.82078944 0
0.03350105 0.67591197 0
0.046866277 0.80623933 0
0.061574081 0.83183484 0
0.086397744 0.85524237 0
0.1199302 0.8963025 0
0.14961047 0.86890247 0
0.19945727 0.88165542 0
0.31572278 0.8653635 0
0.24023099 0.87158912 0
0.71824884 0.56069582 0
0.56483632 0.62523548 0
1 0.55976432 0
0.49430039 0.61569221 0
0.34312134 0.799558 0
0.6019722 0.57204929 0
0.92918661 0.53530166 0
0.96286272 0.54500415 0
0.89773086 0.5310996 0
0.87148419 0.51016979 0
0.82529149 0.5203212 0
0.75719131 0.51943241 0
0.84499261 0.49818525 0
0.018345679 0.53987652 0
0.029364431 0.56802032 0
0.027294469 0.59314131 0
0 0.46578144 0
0 0.47907406 0
0 0.49966135 0
0 0.44108263 0
0 0.45420325 0
0.021686825 0.51967685 0
0 0.43055238 0
0 0.42059935 0
0 0.40419982 0
0.37900006 0.6454877 0
0.296312 0.82002293 0
0.32983935 0.73795269 0
0.34016033 0.68463845 0
0.035373058 0.61238665 0
0.04180031 0.72002306 0
0.040193047 0.64819205 0
0.056541625 0.7386399 0
0.081131335 0.78542791 0
0.11636309 0.83169192 0
0.16508245 0.82798211 0
0.22365694 0.82475519 0
0.6556991 0.5312382 0
1 0.54710619 0
0.4097519 0.60474395 0
0.4995451 0.57100631 0
0.27453071 0.74775072 0
0.5350371 0.53570803 0
0.90777179 0.52020491 0
0.93717942 0.5203022 0
1 0.53514579 0
0.9655371 0.53161517 0
0.88473585 0.50049172 0
0.86280503 0.47442317 0
0.68515458 0.4994684 0
0.74709378 0.48517262 0
0.80425558 0.4902962 0
0.82689909 0.4633482 0
0.033030474 0.54813663 0
0.038430915 0.58062536 0
0.02126351 0.4734876 0
0.014854145 0.46397582 0
0.020823795 0.49170455 0
0.016817874 0.45457064 0
0.033347946 0.50897187 0
0 0.37621241 0
0.016539533 0.42693538 0
0.021351097 0.44472608 0
0.014721582 0.40732076 0
0 0.29420124 0
0 0.33879623 0
0.31501517 0.61397653 0
0.21483202 0.7598104 0
0.27308443 0.6682331 0
0.04563099 0.61311799 0
0.052582084 0.66263985 0
0.074881154 0.69876907 0
0.11207978 0.7551502 0
0.15851175 0.760723 0
0.57934267 0.4905035 0
0.38489507 0.56846775 0
0.22064161 0.69191284 0
0.48322022 0.50446207 0
0.40278561 0.53149969 0
0.91143025 0.50348483 0
0.96977921 0.51928512 0
0.94485474 0.50503452 0
1 0.52116509 0
0.86105472 0.44426244 0
0.8928573 0.47949304 0
0.88209995 0.4582026 0
0.8175634 0.43171659 0
0.6572781 0.46143222 0
0.75834797 0.45545268 0
0.050090618 0.57916896 0
0.042018492 0.5397118 0
0.031565493 0.47051127 0
0.031932411 0.44299846 0
0.041739721 0.48862708 0
0.016486257 0.37829618 0
0.026196281 0.41589217 0
0 0.24033158 0
0.012437493 0.3242724 0
0 0.18778759 0
0.30141777 0.54004038 0
0.25166631 0.58211608 0
0.16417209 0.67107062 0
0.2062539 0.61520087 0
0.063401398 0.60573824 0
0.087415296 0.64261877 0
0.11758526 0.67941216 0
0.12315944 0.59299519 0
0.44354609 0.4669081 0
0.5255078 0.4420907 0
0.35611227 0.49408361 0
0.91932024 0.48994689 0
0.91537939 0.47097326 0
0.94556019 0.4851167 0
0.97458597 0.50187218 0
1 0.49966135 0
0.88203103 0.42309156 0
0.90062193 0.43912108 0
0.90482533 0.45540171 0
0.28890447 0.467733 0
0.83849828 0.40654451 0
0.51025634 0.40312339 0
0.59376596 0.41997254 0
0.78037782 0.38613259 0
0.75399785 0.42118605 0
0.67476964 0.41846231 0
0.054664224 0.52094483 0
0.038228904 0.43954767 0
0.03315793 0.40193621 0
0.047945925 0.44139346 0
0.0258863 0.3603715 0
0 0.12378665 0
0.010533525 0.23722179 0
0.020290245 0.28976419 0
0 0.14969249 0
0 0.10107107 0
0 0.079181065 0
0.24177693 0.49675388 0
0.19889333 0.51531465 0
0.15670244 0.54913555 0
0.073610365 0.52453242 0
0.093948782 0.54297833 0
0.11707647 0.46923001 0
0.34011847 0.43241397 0
0.4103866 0.41817716 0
0.42496803 0.37968798 0
0.93604647 0.4645357 0
0.97211445 0.48007412 0
0.93512495 0.42254713 0
1 0.47907406 0
0.88706342 0.39814254 0
0.93842975 0.40143557 0
0.94255633 0.43473733 0
0.92884389 0.44839451 0
0.24005535 0.41940552 0
0.27983744 0.39096889 0
0.84932407 0.36942237 0
0.79914385 0.33835266 0
0.57889218 0.37471454 0
0.48782652 0.35669314 0
0.72491868 0.33441607 0
0.70115237 0.37774642 0
0.6234992 0.35623869 0
0.065083393 0.42520873 0
0.03251608 0.34390424 0
0.039410724 0.36600042 0
0.051374428 0.35547712 0
0.026947359 0.26289721 0
0.016321219 0.1854064 0
0.014231457 0.11503767 0
0 0.058945217 0
0.19868065 0.40604724 0
0.15725725 0.42503014 0
0.093266538 0.38231146 0
0.13041893 0.34827732 0
0.337193 0.36041112 0
0.38522782 0.32275505 0
0.96461969 0.4639468 0
1 0.40419982 0
1 0.42059935 0
0.28161046 0.32664718 0
0.96259626 0.45296215 0
1 0.46578144 0
0.92207411 0.36768553 0
1 0.37621241 0
1 0.43055238 0
0.962824 0.44255903 0
0.23004808 0.33121985 0
0.88990253 0.32036472 0
0.74627626 0.28862113 0
0.8114913 0.28904212 0
0.51651862 0.30876465 0
0.4416341 0.29951642 0
0.67275804 0.26157925 0
0.64916042 0.30911146 0
0.57422204 0.29248841 0
0.38337523 0.26596605 0
0.072174481 0.31400943 0
0.094828661 0.24134843 0
0.033333709 0.24731693 0
0.041376629 0.25715595 0
0.05396809 0.26175869 0
0 0.030720016 0
0 0.018310231 0
0 0.042882224 0
0.026288568 0.14663569 0
0.017522394 0.06936366 0
0.17498396 0.30685244 0
0.12938137 0.27311972 0
0.32669415 0.27910269 0
0.13231096 0.20381446 0
0.27273733 0.26560959 0
1 0.45420325 0
1 0.33879623 0
1 0.44108263 0
0.50906969 0.24973858 0
0.22865503 0.24542242 0
1 0.29420124 0
0.92301758 0.24834697 0
0.84982549 0.25599077 0
0.73950168 0.2266626 0
0.44609387 0.24461696 0
0.63725156 0.20621012 0
0.58318108 0.23698973 0
0.37640218 0.22106573 0
0 0 0
0.068048313 0.21549528 0
0.10938619 0.16825808 0
0.037102536 0.14672143 0
0.051123399 0.16605016 0
0.0207103 0.030862569 0
0.031635361 0.076089987 0
0.1829603 0.21602937 0
0.31435877 0.20736745 0
0.17257268 0.1686244 0
0.15209066 0.1394375 0
0.50971932 0.20679945 0
0.26482398 0.17812327 0
0.88199593 0.20421627 0
1 0.24033158 0
0.81873089 0.18709592 0
0.69042005 0.17212277 0
0.46135017 0.18550764 0
0.56855394 0.17530033 0
0.39610265 0.17319907 0
0.025649259 0 0
0.11608252 0.11338037 0
0.078867923 0.15044963 0
0.047503964 0.089639194 0
0.062834893 0.10076362 0
0.04308265 0.038567744 0
0.22934512 0.14792024 0
0.37821991 0.14176679 0
0.20892726 0.11825865 0
0.17056796 0.096028362 0
0.30886025 0.12461249 0
1 0.18778759 0
1 0.14969249 0
0.82354471 0.14652258 0
0.71561847 0.13915074 0
0.62376331 0.13634192 0
0.50342086 0.14062534 0
0.055802304 0 0
0.13073686 0.070348125 0
0.089423381 0.081534405 0
0.070934557 0.045316907 0
0.19816554 0.066020246 0
0.48981854 0.10873698 0
0.29042037 0.10042118 0
0.39612261 0.097630466 0
0.25347179 0.084483535 0
1 0.12378665 0
0.79502984 0.11456508 0
0.62445814 0.10541877 0
0.29657657 0.061141024 0
0.098412984 0 0
0.15386375 0.044274096 0
0.11312178 0.036011988 0
[...]
CELL_DATA 942
Scalars  Label int 1
LOOKUP_TABLE FreeFempp_table
0
0
0
0
0
0
0
0
0
0
0
0
0
0
0
0
0
0
0
0
0
0
0
0
0
0
0
0
0
0
0
0
0
0
0
0
0
0
0
0
0
0
0
0
0
0
0
0
0
0
0
0
0
0
0
0
0
0
0
0
0
0
0
0
0
0
0
0
0
0
0
0
0
0
0
0
0
0
0
0
0
0
0
0
0
0
0
0
0
0
0
0
0
0
0
0
0
0
0
0
0
0
0
0
0
0
0
0
0
0
0
0
0
0
0
0
0
0
0
0
0
0
0
0
0
0
0
0
0
0
0
0
0
0
0
0
0
0
0
0
0
0
0
0
0
0
0
0
0
0
0
0
0
0
0
0
0
0
0
0
0
0
0
0
0
0
0
0
0
0
0
0
0
0
0
0
0
0
0
0
0
0
0
0
0
0
0
0
0
0
0
0
0
0
0
0
0
0
0
0
0
0
0
0
0
0
0
0
0
0
0
0
0
0
0
0
0
0
0
0
0
0
0
0
0
0
0
0
0
0
0
0
0
0
0
0
0
0
0
0
0
0
0
0
0
0
0
0
0
0
0
0
0
0
0
0
0
0
0
0
0
0
0
0
0
0
0
0
0
0
0
0
0
0
0
0
0
0
0
0
0
0
0
0
0
0
0
0
0
0
0
0
0
0
0
0
0
0
0
0
0
0
0
0
0
0
0
0
0
0
0
0
0
0
0
0
0
0
0
0
0
0
0
0
0
0
0
0
0
0
0
0
0
0
0
0
0
0
0
0
0
0
0
0
0
0
0
0
0
0
0
0
0
0
0
0
0
0
0
0
0
0
0
0
0
0
0
0
0
0
0
0
0
0
0
0
0
0
0
0
0
0
0
0
0
0
0
0
0
0
0
0
0
0
0
0
0
0
0
0
0
0
0
0
0
0
0
0
0
0
0
0
0
0
0
0
0
0
0
0
0
0
0
0
0
0
0
0
0
0
0
0
0
0
0
0
0
0
0
0
0
0
0
0
0
0
0
0
0
0
0
0
0
0
0
0
0
0
0
0
0
0
0
0
0
0
0
0
0
0
0
0
0
0
0
0
0
0
0
0
0
0
0
0
0
0
0
0
0
0
0
0
0
0
0
0
0
0
0
0
0
0
0
0
0
0
0
0
0
0
0
0
0
0
0
0
0
0
0
0
0
0
0
0
0
0
0
0
0
0
0
0
0
0
0
0
0
0
0
0
0
0
0
0
0
0
0
0
0
0
0
0
0
0
0
0
0
0
0
0
0
0
0
0
0
0
0
0
0
0
0
0
0
0
0
0
0
0
0
0
0
0
0
0
0
0
0
0
0
0
0
0
0
0
0
0
0
0
0
0
0
0
0
0
0
0
0
0
0
0
0
0
0
0
0
0
0
0
0
0
0
0
0
0
0
0
0
0
0
0
0
0
0
0
0
0
0
0
0
0
0
0
0
0
0
0
0
0
0
0
0
0
0
0
0
0
0
0
0
0
0
0
0
0
0
0
0
0
0
0
0
0
0
0
0
0
0
0
0
0
0
0
0
0
0
0
0
0
0
0
0
0
0
0
0
0
0
0
0
0
0
0
0
0
0
0
0
0
0
0
0
0
0
0
0
0
0
0
0
0
0
0
0
0
0
0
0
0
0
0
0
0
0
0
0
0
0
0
0
0
0
0
0
0
0
0
0
0
0
0
0
0
0
0
0
0
0
0
0
0
0
0
0
0
0
0
0
0
0
0
0
0
0
0
0
0
0
0
0
0
0
0
0
0
0
0
0
0
0
0
0
0
0
0
0
0
0
0
0
0
0
0
0
0
0
0
0
0
0
0
0
0
0
0
0
0
0
0
0
0
0
0
0
0
0
0
0
0
0
0
0
0
0
0
0
0
0
0
0
0
0
0
1
1
1
1
1
1
1
1
3
3
3
3
3
3
3
3
2
2
2
2
2
2
2
2
2
2
2
2
2
2
2
2
2
2
2
2
2
2
2
2
2
2
2
2
2
2
2
2
2
2
2
2
2
2
2
2
2
2
4
4
4
4
4
4
4
4
4
4
4
4
4
4
4
4
4
4
4
4
4
4
4
4
4
4
4
4
4
4
4
4
4
4
4
4
4
4
4
4
4
4

LOOKUP_TABLE FreeFempp_table 5
1.00000000 0.00000000 0.00000000 1.00000000
1.00000000 1.00000000 0.00000000 1.00000000
1.00000000 0.00000000 1.00000000 1.00000000
0.00000000 1.00000000 0.00000000 1.00000000
0.00000000 1.00000000 1.00000000 1.00000000

POINT_DATA 472
FIELD FieldData 1
Density 1 472 float
3.27586323e-01 2.66832232e-01 1.01280741e-01 2.94425059e-02 4.14889604e-01 3.10850203e-01 3.73408794e-01 2.33017698e-01 2.67270625e-01 3.03310394e-01 1.01280741e-01 1.49330378e-01 2.97499727e-02 1.68506905e-01 1.49330378e-01 9.82662961e-02 6.60843104e-02 5.05072594e-01 4.62914944e-01 3.86646271e-01 3.52371901e-01 5.91370463e-01 1.97759375e-01 2.12022319e-01 2.26900846e-01 2.49269217e-01 2.85768241e-01 4.76812124e-02 2.94425059e-02 1.68506905e-01 7.44474679e-02 1.82543844e-01 3.00168544e-02 1.82543844e-01 1.11638516e-01 1.68193027e-01 1.51746124e-01 7.69753680e-02 5.71110368e-01 4.45768356e-01 5.14693618e-01 4.47834581e-01 3.64797294e-01 6.72243059e-01 6.83065712e-01 4.14889604e-01 2.01629117e-01 2.12531433e-01 2.37161279e-01 2.63366044e-01 3.13845128e-01 2.12022319e-01 3.27586323e-01 2.66832232e-01 2.33017698e-01 2.93405633e-02 1.97759375e-01 1.01627491e-01 2.94334423e-02 2.94546839e-02 2.95148343e-02 4.84928600e-02 2.97995247e-02 1.83859885e-01 1.95425108e-01 1.69105366e-01 1.16645575e-01 1.39566034e-01 9.18027461e-02 6.18338704e-01 5.44533372e-01 4.72194344e-01 3.91004860e-01 7.46289730e-01 7.05864012e-01 7.48218536e-01 3.43683869e-01 5.05072594e-01 5.91370463e-01 2.05066666e-01 2.23468021e-01 2.54234195e-01 3.10815692e-01 1.41301304e-01 2.14743793e-01 3.40585038e-02 9.32172537e-02 2.22469985e-01 2.83338353e-02 2.61499211e-02 2.23716293e-02 2.40647420e-02 2.83677690e-02 4.22773995e-02 7.81474933e-02 9.72828940e-02 1.96858153e-01 1.32319331e-01 1.83303356e-01 1.58242136e-01 5.57969034e-01 6.46708667e-01 4.88150805e-01 3.94214660e-01 7.70705819e-01 7.80042291e-01 7.33404577e-01 7.73779809e-01 4.57213193e-01 3.98530960e-01 6.83065712e-01 7.46289730e-01 7.61647403e-01 7.70705819e-01 6.57248497e-01 2.08794057e-01 2.27037802e-01 2.68856287e-01 3.21275562e-01 1.05780460e-01 3.22736688e-02 2.11945519e-01 1.22066513e-01 2.70403754e-02 3.69120538e-02 3.92677411e-02 4.91746664e-02 6.39090836e-02 1.29107356e-01 1.99905097e-01 1.88052922e-01 1.68620616e-01 5.89490414e-01 6.89713895e-01 4.86353606e-01 3.91332716e-01 7.61647403e-01 5.52915871e-01 7.17851639e-01 7.04945982e-01 7.77980149e-01 7.57023394e-01 7.18785346e-01 7.84671426e-01 2.81475633e-01 2.68218219e-01 3.90433997e-01 4.42689866e-01 3.98599476e-01 2.22037524e-01 2.10868344e-01 2.37348139e-01 3.37031126e-01 2.75650740e-01 1.61157131e-01 5.13708591e-02 3.95386145e-02 6.86074942e-02 5.76937869e-02 7.19446167e-02 9.35014859e-02 9.54641923e-02 1.48641989e-01 1.67072520e-01 1.98285311e-01 1.87348843e-01 6.28521800e-01 4.59024310e-01 6.57248497e-01 4.12775576e-01 2.16709524e-01 5.19429743e-01 6.27270401e-01 5.68495035e-01 7.74246812e-01 7.85340607e-01 7.62523711e-01 6.93947554e-01 7.79048860e-01 1.44992635e-01 1.32531494e-01 2.07369477e-01 2.68373579e-01 2.22537458e-01 2.22230434e-01 6.54669046e-01 4.30791825e-01 1.31438911e-01 7.78893352e-01 7.71877527e-01 7.52542436e-01 3.12410921e-01 2.04290003e-01 2.38638803e-01 2.69280672e-01 9.88205522e-02 7.56994635e-02 8.70362744e-02 1.02264166e-01 1.27594650e-01 1.45696700e-01 1.80944517e-01 1.96840703e-01 5.83470285e-01 4.57213193e-01 3.54240000e-01 4.38303739e-01 2.15816677e-01 4.78186190e-01 6.99469268e-01 5.06091833e-01 2.81475633e-01 4.22834963e-01 7.43516684e-01 7.79853225e-01 6.20521367e-01 6.84300125e-01 7.46097565e-01 7.56169558e-01 9.59529653e-02 9.92784202e-02 1.36490151e-01 2.37431929e-01 1.34235814e-01 3.48918021e-01 8.68844390e-02 6.94680810e-01 4.29683715e-01 3.15022558e-01 4.50860918e-01 5.28795063e-01 6.13385916e-01 2.79632062e-01 2.02492356e-01 2.37138927e-01 1.05091065e-01 1.13694273e-01 1.49703175e-01 1.74541011e-01 1.94051832e-01 5.17818630e-01 3.45925421e-01 2.10744441e-01 4.37825024e-01 3.67554098e-01 6.19088113e-01 4.01537091e-01 4.20369506e-01 2.22037524e-01 7.63539553e-01 7.44502842e-01 7.76648521e-01 7.16684878e-01 5.85619509e-01 6.83207393e-01 1.20283373e-01 1.03401557e-01 1.00245833e-01 1.17118672e-01 1.03197314e-01 3.79229844e-01 2.21331522e-01 4.36289459e-01 3.85115832e-01 3.47510874e-01 2.83104688e-01 2.42746577e-01 2.01492429e-01 2.15530753e-01 1.50189340e-01 1.73470393e-01 1.89985409e-01 1.96615249e-01 4.01208371e-01 4.62877512e-01 3.30048472e-01 5.69586694e-01 6.64770722e-01 4.78647172e-01 3.75770360e-01 2.22230434e-01 7.48136938e-01 7.70649791e-01 7.56382108e-01 2.74710685e-01 6.95333242e-01 4.33805108e-01 5.08934796e-01 6.20624661e-01 6.46732926e-01 5.75112820e-01 1.34819612e-01 9.34027806e-02 8.81614313e-02 1.16463967e-01 1.94347665e-01 2.47771904e-01 3.05088520e-01 2.28686765e-01 2.85845459e-01 2.21498057e-01 2.07366049e-01 2.42109478e-01 2.18580872e-01 2.04167083e-01 1.69887498e-01 1.86032385e-01 1.96120724e-01 3.09731513e-01 3.62651676e-01 3.58723521e-01 5.88590682e-01 3.88479471e-01 7.67401814e-01 2.22537458e-01 7.10811198e-01 7.38265514e-01 7.73065805e-01 6.87116861e-01 2.36003935e-01 2.55915463e-01 6.35303199e-01 5.58553755e-01 4.68726575e-01 3.92010182e-01 5.16943395e-01 5.54596364e-01 4.82550442e-01 1.55698493e-01 8.37859958e-02 8.76016095e-02 1.15292318e-01 1.29311010e-01 1.84678018e-01 1.38317287e-01 1.92075074e-01 2.14107886e-01 2.03663200e-01 1.81238726e-01 1.95764363e-01 2.86376804e-01 3.00896227e-01 4.57706779e-01 7.52542436e-01 7.71877527e-01 2.39938319e-01 5.60459495e-01 2.68373579e-01 6.61695123e-01 6.94680810e-01 7.78893352e-01 6.83030069e-01 2.17751652e-01 5.58419168e-01 4.65873152e-01 4.88863438e-01 3.74719322e-01 3.21752310e-01 4.01925594e-01 4.49048430e-01 3.91850233e-01 2.65349925e-01 1.47300974e-01 1.55105099e-01 6.80428892e-02 6.90860301e-02 9.89472717e-02 1.51760429e-01 1.03771679e-01 1.75069630e-01 7.61686638e-02 1.07142560e-01 2.02210158e-01 1.88386694e-01 2.46844903e-01 1.77375481e-01 2.17859343e-01 4.30791825e-01 6.13385916e-01 6.54669046e-01 3.15408409e-01 2.05278009e-01 5.28795063e-01 4.45048571e-01 4.46242392e-01 3.75216335e-01 2.80333608e-01 3.15917850e-01 3.34801286e-01 2.36312374e-01 2.94425059e-02 1.09579682e-01 1.39118031e-01 3.18378173e-02 5.72379604e-02 7.12090880e-02 3.72745916e-02 1.95810780e-01 2.13886023e-01 1.79623023e-01 1.54583842e-01 2.70458639e-01 2.01472268e-01 3.67039233e-01 4.36289459e-01 3.31602335e-01 2.85527736e-01 2.40317449e-01 2.60152072e-01 2.17840433e-01 2.93405633e-02 1.02436729e-01 8.82417336e-02 2.77841762e-02 3.70531455e-02 2.78637018e-02 1.90327421e-01 2.05329642e-01 1.66952386e-01 1.30782604e-01 1.95321739e-01 3.47510874e-01 2.85845459e-01 2.70276397e-01 2.46127263e-01 2.31906801e-01 2.19067410e-01 2.94334423e-02 6.52920604e-02 4.64726314e-02 2.81327348e-02 1.03264809e-01 2.04023436e-01 1.82536170e-01 1.93682671e-01 1.55482858e-01 2.47771904e-01 2.29100838e-01 2.10744366e-01 1.36853769e-01 2.94546839e-02 4.29394655e-02 2.82238740e-02 7.08334818e-02 1.97234988e-01 1.47073701e-01 1.80379316e-01 2.21498057e-01 2.08354503e-01 1.98538974e-01 9.41432267e-02 5.04756942e-02 2.95148343e-02 3.52066532e-02 1.29675373e-01 1.74750432e-01 2.07366049e-01 1.92075074e-01 1.79838002e-01 6.83971867e-02 2.97995247e-02 9.96956974e-02 1.58257455e-01 1.75069630e-01 3.00168544e-02 8.27724040e-02 1.34417966e-01 1.51760429e-01 2.97499727e-02 7.18315989e-02 1.03771679e-01 2.94425059e-02 
