# vtk DataFile Version 2.0
results_case1/1616747839/sol_toll1e-05_vf0.3_iter7.vtk, Created by Freefem++ 
ASCII
DATASET UNSTRUCTURED_GRID
POINTS 671 float
1 0.46568822 0
0.98182319 0.46749226 0
0.98050914 0.47669896 0
1 0.4737929 0
1 0.45877684 0
1 0.48579003 0
1 0.52383937 0
1 0.50509995 0
0.96304575 0.47583605 0
0.97935796 0.46166505 0
0.98063805 0.49263674 0
0.96648696 0.48789322 0
1 0.45255389 0
0.98266201 0.52479897 0
0.97732938 0.51049004 0
1 0.53592449 0
0.96301989 0.46509122 0
0.94524577 0.48912728 0
0.95329712 0.49058504 0
0.9479972 0.47495846 0
0.97561893 0.45569746 0
0.96470832 0.50438165 0
0.95575604 0.49997839 0
1 0.44802348 0
0.96667681 0.51968363 0
0.97052121 0.52946493 0
0.98316479 0.53547557 0
1 0.54347044 0
0.95327357 0.46266495 0
0.93625069 0.48833619 0
0.93572652 0.50344224 0
0.9452789 0.50519552 0
0.93600136 0.47472447 0
0.97929054 0.45005081 0
0.96335275 0.4529554 0
0.95388429 0.51370074 0
1 0.44465197 0
0.95465216 0.52449439 0
0.96212442 0.53385247 0
0.97980229 0.54105628 0
1 0.54883143 0
0.94263873 0.4624357 0
0.9280083 0.49148265 0
0.92743677 0.50927128 0
0.94049386 0.51734889 0
0.92572907 0.47565964 0
0.96107394 0.44881617 0
1 0.44149194 0
0.93327211 0.46135047 0
0.94130024 0.52635743 0
0.94822007 0.53339343 0
0.96676697 0.54087544 0
1 0.55250404 0
0.91998265 0.49384154 0
1 0.55470939 0
1 0.55637891 0
0.91754902 0.51032646 0
0.92612066 0.52093958 0
0.91314803 0.47850455 0
0.93151973 0.45368972 0
1 0.43844937 0
0.96130572 0.44323702 0
0.91334592 0.46595154 0
0.93587076 0.53111703 0
0.96132198 0.54233755 0
0.91192924 0.49716342 0
0.95666262 0.5433361 0
1 0.55795586 0
1 0.55944086 0
1 0.56109416 0
0.90441722 0.50825213 0
0.91105099 0.51775663 0
0.91600013 0.52532791 0
0.89103658 0.47867906 0
0.90073629 0.493079 0
0.90704869 0.45860094 0
0.93711233 0.44428775 0
1 0.43477323 0
1 0.42965931 0
0.92981466 0.53346545 0
0.94075543 0.54006658 0
0.94902265 0.54465667 0
0.94613526 0.54651316 0
1 0.56396755 0
0.88695039 0.50186319 0
0.8951799 0.5166809 0
0.90482093 0.52697965 0
0.86745264 0.49491796 0
0.86329728 0.4770591 0
0.88446911 0.45775848 0
1 0.42143458 0
0.9296212 0.4367343 0
0.91827272 0.53551925 0
0.91328847 0.53754187 0
0.93766541 0.54963285 0
1 0.56909501 0
0.86432107 0.5099451 0
0.88489107 0.525099 0
0.82948906 0.48652036 0
0.83127784 0.46403943 0
0.87017728 0.44388056 0
1 0.40708299 0
0.93173578 0.42035499 0
0.88479894 0.5319596 0
0.89269345 0.54372419 0
1 0.5782048 0
0.83727887 0.51626477 0
0.79743081 0.49366503 0
0.77426007 0.46740141 0
0.80528745 0.44093767 0
0.88391116 0.41715649 0
1 0.38213356 0
0.83201848 0.53419568 0
0.90851995 0.56719065 0
1 0.59432437 0
1 0.33515685 0
0.85826564 0.57333744 0
0.76917725 0.50610042 0
0.72918397 0.48237921 0
0.74116399 0.44283993 0
0.83843389 0.4054423 0
0.79040905 0.40536282 0
0.91812422 0.37742071 0
1 0.35404319 0
0.77697745 0.53153705 0
1 0.62272879 0
0.91616324 0.3471241 0
1 0.3225877 0
0.93022421 0.33078442 0
0.88649034 0.61647963 0
0.79134354 0.56980936 0
0.73263951 0.53812156 0
0.69136073 0.50173141 0
0.69699671 0.44767279 0
0.75359031 0.40081912 0
0.84946026 0.37049169 0
1 0.65692459 0
0.85546594 0.34723882 0
0.90002442 0.32629685 0
1 0.31308409 0
0.78960748 0.59998024 0
0.87190384 0.63861811 0
1 0.30618649 0
1 0.6791526 0
0.66545479 0.44711016 0
0.66077622 0.49362938 0
0.7419489 0.59405667 0
0.68990302 0.54991169 0
0.71322174 0.40226049 0
0.77665113 0.37097367 0
0.9046281 0.66229426 0
0.80487901 0.34847925 0
0.83263788 0.33191331 0
0.90762802 0.31657318 0
0.81517455 0.63741399 0
0.91598285 0.30941931 0
1 0.30056088 0
1 0.69270911 0
0.92278818 0.67941829 0
0.64073079 0.44860501 0
0.64014164 0.47746679 0
0.67536967 0.41268453 0
0.65791399 0.53357079 0
0.63940168 0.5158584 0
1 0.70091606 0
1 0.7075544 0
1 0.29513292 0
0.71316733 0.59744021 0
0.76278697 0.35115992 0
0.77108526 0.63480499 0
0.66834288 0.56711309 0
0.72612842 0.37391387 0
0.84799601 0.66484677 0
0.78559163 0.33619263 0
0.85038612 0.32015845 0
0.88901856 0.30783813 0
0.92310979 0.69493345 0
0.88779237 0.68319455 0
0.62428431 0.48240575 0
0.61948448 0.46101908 0
0.63960941 0.43038415 0
0.67349009 0.39782713 0
0.62309192 0.51450412 0
0.63915021 0.5506146 0
0.92875247 0.70295382 0
1 0.71350696 0
1 0.289853 0
0.91872902 0.2987814 0
0.71156144 0.61313397 0
0.73373058 0.35382248 0
0.79137273 0.65495199 0
1 0.27928601 0
1 0.2845695 0
0.85034338 0.68538729 0
0.7477242 0.64294732 0
0.6649747 0.58587851 0
0.69734416 0.37109344 0
0.81165169 0.66894549 0
0.75253097 0.33793166 0
0.80982213 0.32295346 0
0.82239316 0.31396959 0
0.85648243 0.30405398 0
0.8740258 0.69759769 0
0.60977387 0.49664643 0
0.60398257 0.46989842 0
0.61458886 0.44183313 0
0.63596001 0.4172484 0
0.66434203 0.39109241 0
0.61916296 0.53570023 0
0.63600125 0.56854015 0
0.92404512 0.70911958 0
1 0.71945529 0
0.90691905 0.2944018 0
0.6994322 0.61945161 0
0.71174134 0.35323787 0
0.92126237 0.28129452 0
0.91272106 0.28858487 0
1 0.27403927 0
0.82105833 0.68738413 0
0.79669644 0.67456258 0
1 0.26898967 0
0.64184271 0.39789558 0
0.60426692 0.52289123 0
0.75371724 0.65700729 0
0.70675274 0.63323155 0
0.66332046 0.59946803 0
0.67869454 0.3693168 0
0.76468328 0.32673487 0
0.71676755 0.34365899 0
0.79530411 0.31284129 0
0.84095127 0.29888114 0
0.83851215 0.6983376 0
0.87410746 0.70711762 0
0.59340891 0.49198378 0
0.59411806 0.45883797 0
0.61050758 0.42618496 0
0.61746785 0.55843256 0
0.63297125 0.58241049 0
0.92707437 0.71629651 0
1 0.72531121 0
0.90613142 0.2761482 0
0.86701898 0.28763365 0
0.76503908 0.67161342 0
0.79284861 0.68760229 0
1 0.26413472 0
0.65757335 0.37465798 0
0.62682202 0.39691658 0
0.59269012 0.51899509 0
0.60512456 0.5516138 0
0.61039607 0.40099624 0
1 0.25929815 0
0.84129122 0.28458162 0
0.71965312 0.65223919 0
0.65741981 0.6073686 0
0.68444497 0.63006217 0
0.68685365 0.35189435 0
0.73107479 0.33032909 0
0.77495494 0.31088896 0
0.80895039 0.29688587 0
0.82620122 0.70351835 0
0.87454675 0.71461666 0
0.57994021 0.5061854 0
0.57928341 0.47975023 0
0.58439916 0.44701116 0
0.59547657 0.42219491 0
0.62202727 0.58485011 0
0.92766611 0.72302473 0
1 0.73087833 0
0.83551788 0.27857754 0
0.89862288 0.26985616 0
0.74166409 0.67101506 0
0.7694161 0.68766323 0
0.6524252 0.36699181 0
0.62586135 0.3804801 0
0.58941139 0.5383513 0
0.60300731 0.56716363 0
0.59319033 0.40710189 0
0.90057376 0.26380446 0
1 0.25446159 0
0.78958988 0.29274121 0
1 0.7361756 0
0.57387558 0.52454522 0
0.7251964 0.32405276 0
0.56828058 0.46842762 0
0.70281534 0.65512925 0
0.6738067 0.63463917 0
0.64633532 0.61204686 0
0.68239462 0.34263817 0
0.74769336 0.30922708 0
0.83584437 0.71434988 0
0.78840045 0.70142289 0
0.87969606 0.72261151 0
0.56441008 0.49778297 0
0.57122316 0.4363254 0
0.62002542 0.59961248 0
0.59935038 0.57979675 0
0.92646983 0.73033569 0
0.83648536 0.2715395 0
0.78365644 0.28573104 0
0.71370885 0.66919699 0
0.74395996 0.68703516 0
0.64619793 0.35701342 0
0.60934366 0.38092406 0
0.58487923 0.55454488 0
0.58073104 0.40591005 0
0.87915641 0.26013675 0
1 0.24947497 0
0.73800716 0.30261277 0
1 0.74146853 0
0.56536312 0.53338408 0
0.70050995 0.32600487 0
0.55560978 0.47253538 0
0.6697863 0.64402024 0
0.63526971 0.62001799 0
0.66271918 0.3384187 0
0.69529095 0.31962458 0
0.85664622 0.72614073 0
0.79723141 0.71188077 0
0.7456161 0.69637498 0
0.55046967 0.5031789 0
0.55976475 0.41947884 0
0.55196657 0.44876521 0
0.60012527 0.59636833 0
0.57635951 0.56584148 0
0.91440979 0.73572961 0
0.79431081 0.27413875 0
0.73767311 0.29379348 0
0.67388676 0.65782417 0
0.70760612 0.6783256 0
0.6244154 0.35943566 0
0.58558347 0.38672473 0
0.83579451 0.25966092 0
0.89623412 0.25011849 0
1 0.2433808 0
0.68978598 0.31352675 0
1 0.74687643 0
0.55399249 0.53930742 0
0.54015979 0.47740674 0
0.64223275 0.63687983 0
0.5804178 0.58536627 0
0.7420775 0.28381129 0
0.61158981 0.61893461 0
0.6456996 0.33660074 0
0.88607996 0.73859147 0
0.81143524 0.72325741 0
0.74730854 0.70533426 0
0.69816183 0.68563853 0
0.5368562 0.50563924 0
0.53704635 0.44979079 0
0.54054279 0.42230854 0
0.56036431 0.39936012 0
0.58608076 0.6025913 0
0.56518746 0.57874289 0
0.78628732 0.26561865 0
0.69278562 0.30355301 0
0.67080605 0.66688838 0
0.6317374 0.64242208 0
0.60710335 0.36111746 0
0.58014488 0.37394085 0
0.86073801 0.24719796 0
1 0.23561922 0
0.64852195 0.32478756 0
1 0.75316299 0
0.55073501 0.55874154 0
0.53874159 0.53852241 0
0.52501932 0.47915261 0
0.73259685 0.27644984 0
0.69624952 0.29348196 0
0.58123346 0.61119562 0
0.60980959 0.34616664 0
0.82265486 0.73462331 0
0.89481683 0.74856138 0
0.75655209 0.7170536 0
0.70430688 0.69925904 0
0.66437025 0.68039869 0
0.64447378 0.66210193 0
0.5231411 0.50890134 0
0.51837637 0.45299482 0
0.52679328 0.42105886 0
0.55263891 0.39046946 0
0.54913543 0.5775949 0
0.77533787 0.25597757 0
0.64897078 0.31576656 0
0.61074766 0.63804717 0
0.57381605 0.36290139 0
0.8644064 0.23464223 0
1 0.22412591 0
1 0.76228764 0
0.5299763 0.54772411 0
0.51032015 0.48536252 0
0.66445429 0.29792536 0
0.70328894 0.27163943 0
0.54719733 0.59226842 0
0.5660517 0.61733738 0
0.59739296 0.63857748 0
0.60425037 0.33261302 0
0.82637851 0.74788724 0
0.76642467 0.72910871 0
0.90090523 0.76102172 0
0.70530468 0.71287764 0
0.66346428 0.69077502 0
0.62283454 0.66237393 0
0.51071302 0.51759314 0
0.50449182 0.43549415 0
0.49830815 0.4744184 0
0.53403882 0.39483354 0
0.52586937 0.56585625 0
0.7749375 0.23872647 0
0.55504316 0.36283462 0
1 0.20485844 0
1 0.77723623 0
0.62414605 0.30603068 0
0.66984503 0.2631491 0
0.60011519 0.30086408 0
1 0.17050296 0
1 0.10919965 0
0.5053514 0.54043608 0
0.61631158 0.66997494 0
0.53835778 0.60257067 0
0.5766273 0.63962531 0
0.54880968 0.34568201 0
0.84203135 0.76864558 0
0.74281361 0.73899928 0
0.63068733 0.69029572 0
0.67334177 0.71665729 0
0.48770556 0.50617676 0
0.48127908 0.42536649 0
0.47658794 0.47252887 0
0.51151931 0.39228996 0
0.51229886 0.57621312 0
0.77918183 0.21282054 0
1 0.8024372 0
0.63928596 0.2436565 0
0.56017505 0.30285466 0
0.80308407 0.16982406 0
1 0 0
0.79004329 0.10624304 0
0.48863606 0.54255504 0
0.57653125 0.65627842 0
0 0.2845695 0
[...]
CELL_DATA 1340
Scalars  Label int 1
LOOKUP_TABLE FreeFempp_table
0
0
0
0
0
0
0
0
0
0
0
0
0
0
0
0
0
0
0
0
0
0
0
0
0
0
0
0
0
0
0
0
0
0
0
0
0
0
0
0
0
0
0
0
0
0
0
0
0
0
0
0
0
0
0
0
0
0
0
0
0
0
0
0
0
0
0
0
0
0
0
0
0
0
0
0
0
0
0
0
0
0
0
0
0
0
0
0
0
0
0
0
0
0
0
0
0
0
0
0
0
0
0
0
0
0
0
0
0
0
0
0
0
0
0
0
0
0
0
0
0
0
0
0
0
0
0
0
0
0
0
0
0
0
0
0
0
0
0
0
0
0
0
0
0
0
0
0
0
0
0
0
0
0
0
0
0
0
0
0
0
0
0
0
0
0
0
0
0
0
0
0
0
0
0
0
0
0
0
0
0
0
0
0
0
0
0
0
0
0
0
0
0
0
0
0
0
0
0
0
0
0
0
0
0
0
0
0
0
0
0
0
0
0
0
0
0
0
0
0
0
0
0
0
0
0
0
0
0
0
0
0
0
0
0
0
0
0
0
0
0
0
0
0
0
0
0
0
0
0
0
0
0
0
0
0
0
0
0
0
0
0
0
0
0
0
0
0
0
0
0
0
0
0
0
0
0
0
0
0
0
0
0
0
0
0
0
0
0
0
0
0
0
0
0
0
0
0
0
0
0
0
0
0
0
0
0
0
0
0
0
0
0
0
0
0
0
0
0
0
0
0
0
0
0
0
0
0
0
0
0
0
0
0
0
0
0
0
0
0
0
0
0
0
0
0
0
0
0
0
0
0
0
0
0
0
0
0
0
0
0
0
0
0
0
0
0
0
0
0
0
0
0
0
0
0
0
0
0
0
0
0
0
0
0
0
0
0
0
0
0
0
0
0
0
0
0
0
0
0
0
0
0
0
0
0
0
0
0
0
0
0
0
0
0
0
0
0
0
0
0
0
0
0
0
0
0
0
0
0
0
0
0
0
0
0
0
0
0
0
0
0
0
0
0
0
0
0
0
0
0
0
0
0
0
0
0
0
0
0
0
0
0
0
0
0
0
0
0
0
0
0
0
0
0
0
0
0
0
0
0
0
0
0
0
0
0
0
0
0
0
0
0
0
0
0
0
0
0
0
0
0
0
0
0
0
0
0
0
0
0
0
0
0
0
0
0
0
0
0
0
0
0
0
0
0
0
0
0
0
0
0
0
0
0
0
0
0
0
0
0
0
0
0
0
0
0
0
0
0
0
0
0
0
0
0
0
0
0
0
0
0
0
0
0
0
0
0
0
0
0
0
0
0
0
0
0
0
0
0
0
0
0
0
0
0
0
0
0
0
0
0
0
0
0
0
0
0
0
0
0
0
0
0
0
0
0
0
0
0
0
0
0
0
0
0
0
0
0
0
0
0
0
0
0
0
0
0
0
0
0
0
0
0
0
0
0
0
0
0
0
0
0
0
0
0
0
0
0
0
0
0
0
0
0
0
0
0
0
0
0
0
0
0
0
0
0
0
0
0
0
0
0
0
0
0
0
0
0
0
0
0
0
0
0
0
0
0
0
0
0
0
0
0
0
0
0
0
0
0
0
0
0
0
0
0
0
0
0
0
0
0
0
0
0
0
0
0
0
0
0
0
0
0
0
0
0
0
0
0
0
0
0
0
0
0
0
0
0
0
0
0
0
0
0
0
0
0
0
0
0
0
0
0
0
0
0
0
0
0
0
0
0
0
0
0
0
0
0
0
0
0
0
0
0
0
0
0
0
0
0
0
0
0
0
0
0
0
0
0
0
0
0
0
0
0
0
0
0
0
0
0
0
0
0
0
0
0
0
0
0
0
0
0
0
0
0
0
0
0
0
0
0
0
0
0
0
0
0
0
0
0
0
0
0
0
0
0
0
0
0
0
0
0
0
0
0
0
0
0
0
0
0
0
0
0
0
0
0
0
0
0
0
0
0
0
0
0
0
0
0
0
0
0
0
0
0
0
0
0
0
0
0
0
0
0
0
0
0
0
0
0
0
0
0
0
0
0
0
0
0
0
0
0
0
0
0
0
0
0
0
0
0
0
0
0
0
0
0
0
0
0
0
0
0
0
0
0
0
0
0
0
0
0
0
0
0
0
0
0
0
0
0
0
0
0
0
0
0
0
0
0
0
0
0
0
0
0
0
0
0
0
0
0
0
0
0
0
0
0
0
0
0
0
0
0
0
0
0
0
0
0
0
0
0
0
0
0
0
0
0
0
0
0
0
0
0
0
0
0
0
0
0
0
0
0
0
0
0
0
0
0
0
0
0
0
0
0
0
0
0
0
0
0
0
0
0
0
0
0
0
0
0
0
0
0
0
0
0
0
0
0
0
0
0
0
0
0
0
0
0
0
0
0
0
0
0
0
0
0
0
0
0
0
0
0
0
0
0
0
0
0
0
0
0
0
0
0
0
0
0
0
0
0
0
0
0
0
0
0
0
0
0
0
0
0
0
0
0
0
0
0
0
0
0
0
0
0
0
0
0
0
0
0
0
0
0
0
0
0
0
0
0
0
0
0
0
0
0
0
0
0
0
0
0
0
0
0
0
0
0
0
0
0
0
0
0
0
0
0
0
0
0
0
0
0
0
0
0
0
0
0
0
0
0
0
0
0
0
0
0
0
0
0
0
0
0
0
0
0
0
0
1
1
1
1
1
1
1
1
3
3
3
3
3
3
3
3
2
2
2
2
2
2
2
2
2
2
2
2
2
2
2
2
2
2
2
2
2
2
2
2
2
2
2
2
2
2
2
2
2
2
2
2
2
2
2
2
2
2
2
2
2
2
2
2
2
2
2
2
2
2
2
2
2
2
2
2
2
2
2
2
2
2
2
2
2
2
2
4
4
4
4
4
4
4
4
4
4
4
4
4
4
4
4
4
4
4
4
4
4
4
4
4
4
4
4
4
4
4
4
4
4
4
4
4
4
4
4
4
4
4
4
4
4
4
4
4
4
4
4
4
4
4
4
4
4
4
4
4
4
4
4
4
4
4
4
4
4
4

LOOKUP_TABLE FreeFempp_table 5
1.00000000 0.00000000 0.00000000 1.00000000
1.00000000 1.00000000 0.00000000 1.00000000
1.00000000 0.00000000 1.00000000 1.00000000
0.00000000 1.00000000 0.00000000 1.00000000
0.00000000 1.00000000 1.00000000 1.00000000

POINT_DATA 671
FIELD FieldData 1
Density 1 671 float
1.06905019e-02 2.11475771e-02 1.06904944e-02 1.06904982e-02 1.99162867e-02 1.06904870e-02 1.06904963e-02 1.06904954e-02 2.29194928e-02 6.75962195e-02 1.06904898e-02 3.05057857e-02 3.02485853e-01 1.06904916e-02 1.06904907e-02 1.06904991e-02 4.13179487e-01 2.77180821e-01 1.59753114e-01 5.24880826e-01 5.02598464e-01 1.06904898e-02 1.06904907e-02 8.00701082e-01 2.50719897e-02 1.24146305e-02 1.53203588e-02 6.16579242e-02 8.42355728e-01 6.52289808e-01 5.08961916e-01 3.03653553e-02 8.75951767e-01 9.44208980e-01 9.24813271e-01 7.54891634e-02 9.50575650e-01 2.58539617e-01 1.04638852e-01 1.56332225e-01 2.63830811e-01 9.33064759e-01 9.49623764e-01 9.19849694e-01 4.97001737e-01 9.89159644e-01 9.89409447e-01 9.71799731e-01 9.78401899e-01 6.20949566e-01 5.81518173e-01 5.74538827e-01 7.22321570e-01 9.84244466e-01 9.89409447e-01 9.89409447e-01 9.86061454e-01 9.24309731e-01 9.89138842e-01 9.89409447e-01 9.89409447e-01 9.89409447e-01 9.89409447e-01 9.20823455e-01 9.28659797e-01 9.89409447e-01 9.84979033e-01 9.89409447e-01 9.89409506e-01 9.89409447e-01 9.89409447e-01 9.89273965e-01 9.89409447e-01 9.89409447e-01 9.89409447e-01 9.89409447e-01 9.89409447e-01 9.89409447e-01 9.89409447e-01 9.89179015e-01 9.86476183e-01 9.88583028e-01 9.89409447e-01 9.89409447e-01 9.89409447e-01 9.89409447e-01 9.89409447e-01 9.89409447e-01 9.89409387e-01 9.89409447e-01 9.89409447e-01 9.89409447e-01 9.89409447e-01 9.89409447e-01 9.89409447e-01 9.89409447e-01 9.89409447e-01 9.89409447e-01 9.89409387e-01 9.89409387e-01 9.89409387e-01 9.89409447e-01 9.89409387e-01 9.89409447e-01 9.89409387e-01 9.89409447e-01 9.89409387e-01 9.89409387e-01 9.89409387e-01 9.89409387e-01 9.89409387e-01 9.89409447e-01 9.89409387e-01 9.89409387e-01 9.89409447e-01 9.89409447e-01 9.89409328e-01 9.89409387e-01 9.89409387e-01 9.89409387e-01 9.89409387e-01 9.89409387e-01 9.89409387e-01 9.89409447e-01 9.89409387e-01 9.89409447e-01 9.89409387e-01 9.89409447e-01 9.89409387e-01 9.89409328e-01 9.89409387e-01 9.89409387e-01 9.89409387e-01 9.89409447e-01 9.89409387e-01 9.89409387e-01 9.89409447e-01 9.89409387e-01 9.89409447e-01 9.88376439e-01 9.89409387e-01 9.89409387e-01 9.87256110e-01 9.89409447e-01 9.89409387e-01 9.89409387e-01 9.89409387e-01 9.89409447e-01 9.89409387e-01 9.89409387e-01 9.89409387e-01 9.89409387e-01 9.84269679e-01 9.86392558e-01 9.89409387e-01 9.82901692e-01 9.54304874e-01 9.89409447e-01 9.88155127e-01 9.89398897e-01 9.89409387e-01 9.89172220e-01 9.89409387e-01 9.89409387e-01 9.63660061e-01 9.30924416e-01 9.20510709e-01 9.89409387e-01 9.86147225e-01 9.89409387e-01 9.89409387e-01 9.88856196e-01 9.89409387e-01 9.79571104e-01 9.70934033e-01 9.49783146e-01 9.63443458e-01 9.88605917e-01 9.88639295e-01 9.71652210e-01 9.82418716e-01 9.81816828e-01 9.86742973e-01 9.89409387e-01 8.52417648e-01 7.93992758e-01 8.34973812e-01 8.92872632e-01 9.89409387e-01 9.71611500e-01 9.89409387e-01 5.35922050e-01 6.85447931e-01 9.69054699e-01 9.89409387e-01 9.87346828e-01 9.66632247e-01 9.86835897e-01 9.26644087e-01 9.26969767e-01 8.88371110e-01 8.84978712e-01 9.21376467e-01 9.69488084e-01 9.28488672e-01 9.54888165e-01 9.62003231e-01 9.59263206e-01 9.66940582e-01 9.79850352e-01 7.58972585e-01 6.46806300e-01 7.99398243e-01 9.88096654e-01 9.48696077e-01 4.34569389e-01 6.55061245e-01 3.81521493e-01 8.90606523e-01 9.27005589e-01 2.32113123e-01 9.03385997e-01 9.38798666e-01 9.57233489e-01 9.66458917e-01 9.70226288e-01 9.39920664e-01 9.12407041e-01 8.75576913e-01 8.38074744e-01 6.83417261e-01 7.36158311e-01 6.81735396e-01 9.36825395e-01 8.83034289e-01 8.48729670e-01 9.46574807e-01 9.61029053e-01 5.59580028e-01 4.57201421e-01 2.77340055e-01 5.14270663e-01 9.20424581e-01 8.21363688e-01 1.09904729e-01 8.12351763e-01 8.35223675e-01 9.13448095e-01 9.24085677e-01 6.61370516e-01 8.02098587e-02 3.28129590e-01 9.38560128e-01 9.50371206e-01 9.40438092e-01 7.51120865e-01 7.82316923e-01 6.34114981e-01 4.88517135e-01 5.95421135e-01 4.88126159e-01 7.99191177e-01 7.46464074e-01 6.82407916e-01 7.36186564e-01 8.58097613e-01 3.52283299e-01 2.63389796e-01 1.52441338e-01 1.05925128e-01 7.85876870e-01 6.32762849e-01 7.09149182e-01 5.65484762e-01 8.08526456e-01 8.76618683e-01 4.97607231e-01 5.98651506e-02 5.05149886e-02 2.81169266e-01 1.31632626e-01 6.71790302e-01 5.78886628e-01 5.86945593e-01 7.71010399e-01 8.19679141e-01 9.01868522e-01 5.85952580e-01 3.82749707e-01 3.70619297e-01 3.98110628e-01 2.98788041e-01 6.32030070e-01 4.23388928e-01 7.56789386e-01 7.32001483e-01 1.25151411e-01 6.62371218e-02 9.88509282e-02 6.30146325e-01 4.44436610e-01 4.30936188e-01 3.49079192e-01 6.91066802e-01 3.12632263e-01 2.10082922e-02 2.99841538e-02 2.13715240e-01 8.12491626e-02 5.29591382e-01 4.09865856e-01 4.38713610e-01 6.80072248e-01 6.70311868e-01 3.12871784e-01 2.15469152e-01 2.01035798e-01 1.71836570e-01 2.57371575e-01 4.04361188e-01 1.83914855e-01 2.58178532e-01 5.85829973e-01 5.43135643e-01 8.49721655e-02 6.26403317e-02 6.20672591e-02 4.33094382e-01 3.11806232e-01 2.00666472e-01 1.86525211e-01 1.88033618e-02 1.32557461e-02 1.88454054e-02 1.36314884e-01 2.97712237e-02 3.40514660e-01 2.52388984e-01 4.79895115e-01 4.49061334e-01 3.76409292e-02 4.24634099e-01 1.00721769e-01 6.18528612e-02 9.88003463e-02 8.88664499e-02 1.24829978e-01 1.80449620e-01 9.25059393e-02 7.32346922e-02 8.78857449e-02 3.30325186e-01 3.17089498e-01 2.33484600e-02 7.74258375e-02 2.01693639e-01 2.52315938e-01 1.17892362e-01 5.10363504e-02 1.06904358e-02 1.06904609e-02 4.80127484e-02 1.73993502e-02 2.08763480e-01 1.27260998e-01 1.43306091e-01 1.15229674e-02 2.56580543e-02 1.56315595e-01 5.31179383e-02 1.74009055e-02 2.42421981e-02 4.03442346e-02 4.78711277e-02 8.63376483e-02 1.36064231e-01 9.69434977e-02 5.55685870e-02 1.98422782e-02 4.60246317e-02 1.18637167e-01 1.44982003e-02 2.03150921e-02 1.56881571e-01 3.09454650e-02 1.06904469e-02 1.06904656e-02 1.06904637e-02 7.82526657e-02 4.22438383e-02 1.53923845e-02 1.08802505e-02 8.54732916e-02 5.82413562e-02 6.01453558e-02 1.69650819e-02 1.13920821e-02 1.35182915e-02 1.06904320e-02 1.73085816e-02 3.01752873e-02 5.38332313e-02 2.55723819e-02 1.45261390e-02 2.98561882e-02 2.16415692e-02 5.77416047e-02 1.06904507e-02 1.12698041e-02 1.06904563e-02 1.06904693e-02 1.09048374e-02 1.06904553e-02 1.06904255e-02 1.06904488e-02 1.06903436e-02 2.31241491e-02 2.94765402e-02 2.84141582e-02 2.70310305e-02 1.06904563e-02 1.06904600e-02 1.06904376e-02 1.08897937e-02 1.14970645e-02 1.17633464e-02 1.17040901e-02 1.06904479e-02 1.12121524e-02 1.19815934e-02 1.06904358e-02 1.06904693e-02 1.06904525e-02 1.06904292e-02 1.06903967e-02 1.06894551e-02 1.06898686e-02 1.32215247e-02 1.08431038e-02 6.85447931e-01 3.81521493e-01 2.32113123e-01 1.06904609e-02 1.09904729e-01 9.89409447e-01 9.88376439e-01 8.02098587e-02 1.06904656e-02 9.87256110e-01 9.54304874e-01 5.05149886e-02 9.20510709e-01 8.34973812e-01 2.99841538e-02 1.06904488e-02 5.35922050e-01 1.88454054e-02 1.06904190e-02 1.38365049e-02 1.06904469e-02 1.06904358e-02 1.06904218e-02 1.06904386e-02 1.06904190e-02 1.09327370e-02 1.06904451e-02 1.06904265e-02 1.06904255e-02 1.06904376e-02 1.06888032e-02 1.06900819e-02 8.24297607e-01 7.75211826e-02 1.06904758e-02 9.89409447e-01 9.80870843e-01 9.89409447e-01 1.06904563e-02 1.06904535e-02 1.06903436e-02 1.06902411e-02 1.06903389e-02 9.89409447e-01 9.89409447e-01 1.06894551e-02 9.89409447e-01 9.89409447e-01 9.89409447e-01 9.89409447e-01 5.64056486e-02 1.06904553e-02 1.06904460e-02 1.06904246e-02 1.06903920e-02 1.06904153e-02 1.06904339e-02 1.06904516e-02 1.06904320e-02 1.06904069e-02 1.06892688e-02 1.06899627e-02 9.48877633e-01 5.14131546e-01 2.26417661e-01 1.06904842e-02 1.06904870e-02 9.79103446e-01 1.06903510e-02 1.06898583e-02 1.06894551e-02 9.68140423e-01 9.71799731e-01 1.06902029e-02 6.08206242e-02 1.06904972e-02 1.15454132e-02 8.00701082e-01 9.50575650e-01 1.06904469e-02 1.06903650e-02 1.06904246e-02 1.06903845e-02 1.06902756e-02 1.06904106e-02 1.06904311e-02 1.06894718e-02 1.06897438e-02 8.46449792e-01 8.27874839e-02 1.06904693e-02 1.06904907e-02 1.06902989e-02 1.06888032e-02 5.06256223e-01 1.06900241e-02 1.06904926e-02 1.74174234e-02 3.02485853e-01 1.06896507e-02 1.06900223e-02 1.06904339e-02 1.06903976e-02 1.06903408e-02 1.06902542e-02 1.06899524e-02 1.06897503e-02 1.06897317e-02 1.51052386e-01 6.45390823e-02 1.06904740e-02 1.06902337e-02 1.06892688e-02 1.16648898e-02 1.06901657e-02 1.06904963e-02 1.06905000e-02 1.99162867e-02 1.06899440e-02 1.06903976e-02 1.06901415e-02 1.06898062e-02 1.06898751e-02 1.06898081e-02 1.06905047e-02 1.06904898e-02 1.06902672e-02 1.06894718e-02 1.06905019e-02 1.06905084e-02 1.06904488e-02 1.06898146e-02 1.06899301e-02 1.06901117e-02 1.06903687e-02 1.06905038e-02 1.06904982e-02 1.06904740e-02 1.06905028e-02 1.06896507e-02 1.06899664e-02 1.06903650e-02 1.06902150e-02 1.06904134e-02 1.06904944e-02 1.06904870e-02 1.06904842e-02 1.06900223e-02 1.06901797e-02 1.06904488e-02 1.06904348e-02 1.06903762e-02 1.06904833e-02 1.06904889e-02 1.06904954e-02 1.06900241e-02 1.06903519e-02 1.06904758e-02 1.06904833e-02 1.06904302e-02 1.06904963e-02 1.06904972e-02 1.06905047e-02 1.06904963e-02 1.06902029e-02 1.06894551e-02 1.06904758e-02 1.06904432e-02 1.06905019e-02 1.06905000e-02 1.06904879e-02 1.06905028e-02 1.06905038e-02 1.06904991e-02 1.06902411e-02 9.89409447e-01 9.89409447e-01 1.06904190e-02 9.89409447e-01 9.89409447e-01 9.89409506e-01 7.22321570e-01 6.16579242e-02 2.63830811e-01 1.06904656e-02 1.06904833e-02 1.06904991e-02 1.06904954e-02 6.13993704e-02 1.03128940e-01 4.99393761e-01 1.06904693e-02 9.89409447e-01 9.89409447e-01 9.89409447e-01 9.89409447e-01 1.06904916e-02 1.06904814e-02 1.44572258e-02 1.06905010e-02 6.66671455e-01 3.56136978e-01 8.72058272e-01 1.06904693e-02 9.85210478e-01 9.89409447e-01 1.73993502e-02 1.06904637e-02 2.97712237e-02 5.41482083e-02 5.85304089e-02 8.95068049e-02 1.71620041e-01 9.80791688e-01 5.91745317e-01 9.88594115e-01 9.89409447e-01 8.12491626e-02 4.57201421e-01 1.31632626e-01 2.63389796e-01 6.46806300e-01 1.79935127e-01 4.42130297e-01 5.44578552e-01 9.66781139e-01 9.89409447e-01 7.93992758e-01 8.13193381e-01 9.30924416e-01 9.89409447e-01 9.63660061e-01 
