# vtk DataFile Version 2.0
results_case1_non_linear/iter1.vtk, Created by Freefem++ 
ASCII
DATASET UNSTRUCTURED_GRID
POINTS 961 float
0 0 0
0.033333333 0 0
0.066666667 0 0
0.1 0 0
0.13333333 0 0
0.16666667 0 0
0.2 0 0
0.23333333 0 0
0.26666667 0 0
0.3 0 0
0.33333333 0 0
0.36666667 0 0
0.4 0 0
0.43333333 0 0
0.46666667 0 0
0.5 0 0
0.53333333 0 0
0.56666667 0 0
0.6 0 0
0.63333333 0 0
0.66666667 0 0
0.7 0 0
0.73333333 0 0
0.76666667 0 0
0.8 0 0
0.83333333 0 0
0.86666667 0 0
0.9 0 0
0.93333333 0 0
0.96666667 0 0
1 0 0
0 0.033333333 0
0.033333333 0.033333333 0
0.066666667 0.033333333 0
0.1 0.033333333 0
0.13333333 0.033333333 0
0.16666667 0.033333333 0
0.2 0.033333333 0
0.23333333 0.033333333 0
0.26666667 0.033333333 0
0.3 0.033333333 0
0.33333333 0.033333333 0
0.36666667 0.033333333 0
0.4 0.033333333 0
0.43333333 0.033333333 0
0.46666667 0.033333333 0
0.5 0.033333333 0
0.53333333 0.033333333 0
0.56666667 0.033333333 0
0.6 0.033333333 0
0.63333333 0.033333333 0
0.66666667 0.033333333 0
0.7 0.033333333 0
0.73333333 0.033333333 0
0.76666667 0.033333333 0
0.8 0.033333333 0
0.83333333 0.033333333 0
0.86666667 0.033333333 0
0.9 0.033333333 0
0.93333333 0.033333333 0
0.96666667 0.033333333 0
1 0.033333333 0
0 0.066666667 0
0.033333333 0.066666667 0
0.066666667 0.066666667 0
0.1 0.066666667 0
0.13333333 0.066666667 0
0.16666667 0.066666667 0
0.2 0.066666667 0
0.23333333 0.066666667 0
0.26666667 0.066666667 0
0.3 0.066666667 0
0.33333333 0.066666667 0
0.36666667 0.066666667 0
0.4 0.066666667 0
0.43333333 0.066666667 0
0.46666667 0.066666667 0
0.5 0.066666667 0
0.53333333 0.066666667 0
0.56666667 0.066666667 0
0.6 0.066666667 0
0.63333333 0.066666667 0
0.66666667 0.066666667 0
0.7 0.066666667 0
0.73333333 0.066666667 0
0.76666667 0.066666667 0
0.8 0.066666667 0
0.83333333 0.066666667 0
0.86666667 0.066666667 0
0.9 0.066666667 0
0.93333333 0.066666667 0
0.96666667 0.066666667 0
1 0.066666667 0
0 0.1 0
0.033333333 0.1 0
0.066666667 0.1 0
0.1 0.1 0
0.13333333 0.1 0
0.16666667 0.1 0
0.2 0.1 0
0.23333333 0.1 0
0.26666667 0.1 0
0.3 0.1 0
0.33333333 0.1 0
0.36666667 0.1 0
0.4 0.1 0
0.43333333 0.1 0
0.46666667 0.1 0
0.5 0.1 0
0.53333333 0.1 0
0.56666667 0.1 0
0.6 0.1 0
0.63333333 0.1 0
0.66666667 0.1 0
0.7 0.1 0
0.73333333 0.1 0
0.76666667 0.1 0
0.8 0.1 0
0.83333333 0.1 0
0.86666667 0.1 0
0.9 0.1 0
0.93333333 0.1 0
0.96666667 0.1 0
1 0.1 0
0 0.13333333 0
0.033333333 0.13333333 0
0.066666667 0.13333333 0
0.1 0.13333333 0
0.13333333 0.13333333 0
0.16666667 0.13333333 0
0.2 0.13333333 0
0.23333333 0.13333333 0
0.26666667 0.13333333 0
0.3 0.13333333 0
0.33333333 0.13333333 0
0.36666667 0.13333333 0
0.4 0.13333333 0
0.43333333 0.13333333 0
0.46666667 0.13333333 0
0.5 0.13333333 0
0.53333333 0.13333333 0
0.56666667 0.13333333 0
0.6 0.13333333 0
0.63333333 0.13333333 0
0.66666667 0.13333333 0
0.7 0.13333333 0
0.73333333 0.13333333 0
0.76666667 0.13333333 0
0.8 0.13333333 0
0.83333333 0.13333333 0
0.86666667 0.13333333 0
0.9 0.13333333 0
0.93333333 0.13333333 0
0.96666667 0.13333333 0
1 0.13333333 0
0 0.16666667 0
0.033333333 0.16666667 0
0.066666667 0.16666667 0
0.1 0.16666667 0
0.13333333 0.16666667 0
0.16666667 0.16666667 0
0.2 0.16666667 0
0.23333333 0.16666667 0
0.26666667 0.16666667 0
0.3 0.16666667 0
0.33333333 0.16666667 0
0.36666667 0.16666667 0
0.4 0.16666667 0
0.43333333 0.16666667 0
0.46666667 0.16666667 0
0.5 0.16666667 0
0.53333333 0.16666667 0
0.56666667 0.16666667 0
0.6 0.16666667 0
0.63333333 0.16666667 0
0.66666667 0.16666667 0
0.7 0.16666667 0
0.73333333 0.16666667 0
0.76666667 0.16666667 0
0.8 0.16666667 0
0.83333333 0.16666667 0
0.86666667 0.16666667 0
0.9 0.16666667 0
0.93333333 0.16666667 0
0.96666667 0.16666667 0
1 0.16666667 0
0 0.2 0
0.033333333 0.2 0
0.066666667 0.2 0
0.1 0.2 0
0.13333333 0.2 0
0.16666667 0.2 0
0.2 0.2 0
0.23333333 0.2 0
0.26666667 0.2 0
0.3 0.2 0
0.33333333 0.2 0
0.36666667 0.2 0
0.4 0.2 0
0.43333333 0.2 0
0.46666667 0.2 0
0.5 0.2 0
0.53333333 0.2 0
0.56666667 0.2 0
0.6 0.2 0
0.63333333 0.2 0
0.66666667 0.2 0
0.7 0.2 0
0.73333333 0.2 0
0.76666667 0.2 0
0.8 0.2 0
0.83333333 0.2 0
0.86666667 0.2 0
0.9 0.2 0
0.93333333 0.2 0
0.96666667 0.2 0
1 0.2 0
0 0.23333333 0
0.033333333 0.23333333 0
0.066666667 0.23333333 0
0.1 0.23333333 0
0.13333333 0.23333333 0
0.16666667 0.23333333 0
0.2 0.23333333 0
0.23333333 0.23333333 0
0.26666667 0.23333333 0
0.3 0.23333333 0
0.33333333 0.23333333 0
0.36666667 0.23333333 0
0.4 0.23333333 0
0.43333333 0.23333333 0
0.46666667 0.23333333 0
0.5 0.23333333 0
0.53333333 0.23333333 0
0.56666667 0.23333333 0
0.6 0.23333333 0
0.63333333 0.23333333 0
0.66666667 0.23333333 0
0.7 0.23333333 0
0.73333333 0.23333333 0
0.76666667 0.23333333 0
0.8 0.23333333 0
0.83333333 0.23333333 0
0.86666667 0.23333333 0
0.9 0.23333333 0
0.93333333 0.23333333 0
0.96666667 0.23333333 0
1 0.23333333 0
0 0.26666667 0
0.033333333 0.26666667 0
0.066666667 0.26666667 0
0.1 0.26666667 0
0.13333333 0.26666667 0
0.16666667 0.26666667 0
0.2 0.26666667 0
0.23333333 0.26666667 0
0.26666667 0.26666667 0
0.3 0.26666667 0
0.33333333 0.26666667 0
0.36666667 0.26666667 0
0.4 0.26666667 0
0.43333333 0.26666667 0
0.46666667 0.26666667 0
0.5 0.26666667 0
0.53333333 0.26666667 0
0.56666667 0.26666667 0
0.6 0.26666667 0
0.63333333 0.26666667 0
0.66666667 0.26666667 0
0.7 0.26666667 0
0.73333333 0.26666667 0
0.76666667 0.26666667 0
0.8 0.26666667 0
0.83333333 0.26666667 0
0.86666667 0.26666667 0
0.9 0.26666667 0
0.93333333 0.26666667 0
0.96666667 0.26666667 0
1 0.26666667 0
0 0.3 0
0.033333333 0.3 0
0.066666667 0.3 0
0.1 0.3 0
0.13333333 0.3 0
0.16666667 0.3 0
0.2 0.3 0
0.23333333 0.3 0
0.26666667 0.3 0
0.3 0.3 0
0.33333333 0.3 0
0.36666667 0.3 0
0.4 0.3 0
0.43333333 0.3 0
0.46666667 0.3 0
0.5 0.3 0
0.53333333 0.3 0
0.56666667 0.3 0
0.6 0.3 0
0.63333333 0.3 0
0.66666667 0.3 0
0.7 0.3 0
0.73333333 0.3 0
0.76666667 0.3 0
0.8 0.3 0
0.83333333 0.3 0
0.86666667 0.3 0
0.9 0.3 0
0.93333333 0.3 0
0.96666667 0.3 0
1 0.3 0
0 0.33333333 0
0.033333333 0.33333333 0
0.066666667 0.33333333 0
0.1 0.33333333 0
0.13333333 0.33333333 0
0.16666667 0.33333333 0
0.2 0.33333333 0
0.23333333 0.33333333 0
0.26666667 0.33333333 0
0.3 0.33333333 0
0.33333333 0.33333333 0
0.36666667 0.33333333 0
0.4 0.33333333 0
0.43333333 0.33333333 0
0.46666667 0.33333333 0
0.5 0.33333333 0
0.53333333 0.33333333 0
0.56666667 0.33333333 0
0.6 0.33333333 0
0.63333333 0.33333333 0
0.66666667 0.33333333 0
0.7 0.33333333 0
0.73333333 0.33333333 0
0.76666667 0.33333333 0
0.8 0.33333333 0
0.83333333 0.33333333 0
0.86666667 0.33333333 0
0.9 0.33333333 0
0.93333333 0.33333333 0
0.96666667 0.33333333 0
1 0.33333333 0
0 0.36666667 0
0.033333333 0.36666667 0
0.066666667 0.36666667 0
0.1 0.36666667 0
0.13333333 0.36666667 0
0.16666667 0.36666667 0
0.2 0.36666667 0
0.23333333 0.36666667 0
0.26666667 0.36666667 0
0.3 0.36666667 0
0.33333333 0.36666667 0
0.36666667 0.36666667 0
0.4 0.36666667 0
0.43333333 0.36666667 0
0.46666667 0.36666667 0
0.5 0.36666667 0
0.53333333 0.36666667 0
0.56666667 0.36666667 0
0.6 0.36666667 0
0.63333333 0.36666667 0
0.66666667 0.36666667 0
0.7 0.36666667 0
0.73333333 0.36666667 0
0.76666667 0.36666667 0
0.8 0.36666667 0
0.83333333 0.36666667 0
0.86666667 0.36666667 0
0.9 0.36666667 0
0.93333333 0.36666667 0
0.96666667 0.36666667 0
1 0.36666667 0
0 0.4 0
0.033333333 0.4 0
0.066666667 0.4 0
0.1 0.4 0
0.13333333 0.4 0
0.16666667 0.4 0
0.2 0.4 0
0.23333333 0.4 0
0.26666667 0.4 0
0.3 0.4 0
0.33333333 0.4 0
0.36666667 0.4 0
0.4 0.4 0
0.43333333 0.4 0
0.46666667 0.4 0
0.5 0.4 0
0.53333333 0.4 0
0.56666667 0.4 0
0.6 0.4 0
0.63333333 0.4 0
0.66666667 0.4 0
0.7 0.4 0
0.73333333 0.4 0
0.76666667 0.4 0
0.8 0.4 0
0.83333333 0.4 0
0.86666667 0.4 0
0.9 0.4 0
0.93333333 0.4 0
0.96666667 0.4 0
1 0.4 0
0 0.43333333 0
0.033333333 0.43333333 0
0.066666667 0.43333333 0
0.1 0.43333333 0
0.13333333 0.43333333 0
0.16666667 0.43333333 0
0.2 0.43333333 0
0.23333333 0.43333333 0
0.26666667 0.43333333 0
0.3 0.43333333 0
0.33333333 0.43333333 0
0.36666667 0.43333333 0
0.4 0.43333333 0
0.43333333 0.43333333 0
0.46666667 0.43333333 0
0.5 0.43333333 0
0.53333333 0.43333333 0
0.56666667 0.43333333 0
0.6 0.43333333 0
0.63333333 0.43333333 0
0.66666667 0.43333333 0
0.7 0.43333333 0
0.73333333 0.43333333 0
0.76666667 0.43333333 0
0.8 0.43333333 0
0.83333333 0.43333333 0
0.86666667 0.43333333 0
0.9 0.43333333 0
0.93333333 0.43333333 0
0.96666667 0.43333333 0
1 0.43333333 0
0 0.46666667 0
0.033333333 0.46666667 0
0.066666667 0.46666667 0
0.1 0.46666667 0
0.13333333 0.46666667 0
0.16666667 0.46666667 0
0.2 0.46666667 0
0.23333333 0.46666667 0
0.26666667 0.46666667 0
0.3 0.46666667 0
0.33333333 0.46666667 0
0.36666667 0.46666667 0
0.4 0.46666667 0
0.43333333 0.46666667 0
0.46666667 0.46666667 0
0.5 0.46666667 0
0.53333333 0.46666667 0
0.56666667 0.46666667 0
0.6 0.46666667 0
0.63333333 0.46666667 0
0.66666667 0.46666667 0
0.7 0.46666667 0
0.73333333 0.46666667 0
0.76666667 0.46666667 0
0.8 0.46666667 0
0.83333333 0.46666667 0
0.86666667 0.46666667 0
0.9 0.46666667 0
0.93333333 0.46666667 0
0.96666667 0.46666667 0
1 0.46666667 0
0 0.5 0
0.033333333 0.5 0
0.066666667 0.5 0
0.1 0.5 0
0.13333333 0.5 0
0.16666667 0.5 0
0.2 0.5 0
0.23333333 0.5 0
0.26666667 0.5 0
0.3 0.5 0
0.33333333 0.5 0
0.36666667 0.5 0
0.4 0.5 0
0.43333333 0.5 0
0.46666667 0.5 0
0.5 0.5 0
0.53333333 0.5 0
0.56666667 0.5 0
0.6 0.5 0
0.63333333 0.5 0
0.66666667 0.5 0
0.7 0.5 0
0.73333333 0.5 0
0.76666667 0.5 0
0.8 0.5 0
0.83333333 0.5 0
0.86666667 0.5 0
0.9 0.5 0
0.93333333 0.5 0
0.96666667 0.5 0
1 0.5 0
0 0.53333333 0
0.033333333 0.53333333 0
0.066666667 0.53333333 0
0.1 0.53333333 0
0.13333333 0.53333333 0
0.16666667 0.53333333 0
0.2 0.53333333 0
0.23333333 0.53333333 0
0.26666667 0.53333333 0
0.3 0.53333333 0
0.33333333 0.53333333 0
0.36666667 0.53333333 0
0.4 0.53333333 0
0.43333333 0.53333333 0
0.46666667 0.53333333 0
0.5 0.53333333 0
0.53333333 0.53333333 0
0.56666667 0.53333333 0
0.6 0.53333333 0
0.63333333 0.53333333 0
0.66666667 0.53333333 0
0.7 0.53333333 0
0.73333333 0.53333333 0
0.76666667 0.53333333 0
[...]
CELL_DATA 1920
Scalars  Label int 1
LOOKUP_TABLE FreeFempp_table
0
0
0
0
0
0
0
0
0
0
0
0
0
0
0
0
0
0
0
0
0
0
0
0
0
0
0
0
0
0
0
0
0
0
0
0
0
0
0
0
0
0
0
0
0
0
0
0
0
0
0
0
0
0
0
0
0
0
0
0
0
0
0
0
0
0
0
0
0
0
0
0
0
0
0
0
0
0
0
0
0
0
0
0
0
0
0
0
0
0
0
0
0
0
0
0
0
0
0
0
0
0
0
0
0
0
0
0
0
0
0
0
0
0
0
0
0
0
0
0
0
0
0
0
0
0
0
0
0
0
0
0
0
0
0
0
0
0
0
0
0
0
0
0
0
0
0
0
0
0
0
0
0
0
0
0
0
0
0
0
0
0
0
0
0
0
0
0
0
0
0
0
0
0
0
0
0
0
0
0
0
0
0
0
0
0
0
0
0
0
0
0
0
0
0
0
0
0
0
0
0
0
0
0
0
0
0
0
0
0
0
0
0
0
0
0
0
0
0
0
0
0
0
0
0
0
0
0
0
0
0
0
0
0
0
0
0
0
0
0
0
0
0
0
0
0
0
0
0
0
0
0
0
0
0
0
0
0
0
0
0
0
0
0
0
0
0
0
0
0
0
0
0
0
0
0
0
0
0
0
0
0
0
0
0
0
0
0
0
0
0
0
0
0
0
0
0
0
0
0
0
0
0
0
0
0
0
0
0
0
0
0
0
0
0
0
0
0
0
0
0
0
0
0
0
0
0
0
0
0
0
0
0
0
0
0
0
0
0
0
0
0
0
0
0
0
0
0
0
0
0
0
0
0
0
0
0
0
0
0
0
0
0
0
0
0
0
0
0
0
0
0
0
0
0
0
0
0
0
0
0
0
0
0
0
0
0
0
0
0
0
0
0
0
0
0
0
0
0
0
0
0
0
0
0
0
0
0
0
0
0
0
0
0
0
0
0
0
0
0
0
0
0
0
0
0
0
0
0
0
0
0
0
0
0
0
0
0
0
0
0
0
0
0
0
0
0
0
0
0
0
0
0
0
0
0
0
0
0
0
0
0
0
0
0
0
0
0
0
0
0
0
0
0
0
0
0
0
0
0
0
0
0
0
0
0
0
0
0
0
0
0
0
0
0
0
0
0
0
0
0
0
0
0
0
0
0
0
0
0
0
0
0
0
0
0
0
0
0
0
0
0
0
0
0
0
0
0
0
0
0
0
0
0
0
0
0
0
0
0
0
0
0
0
0
0
0
0
0
0
0
0
0
0
0
0
0
0
0
0
0
0
0
0
0
0
0
0
0
0
0
0
0
0
0
0
0
0
0
0
0
0
0
0
0
0
0
0
0
0
0
0
0
0
0
0
0
0
0
0
0
0
0
0
0
0
0
0
0
0
0
0
0
0
0
0
0
0
0
0
0
0
0
0
0
0
0
0
0
0
0
0
0
0
0
0
0
0
0
0
0
0
0
0
0
0
0
0
0
0
0
0
0
0
0
0
0
0
0
0
0
0
0
0
0
0
0
0
0
0
0
0
0
0
0
0
0
0
0
0
0
0
0
0
0
0
0
0
0
0
0
0
0
0
0
0
0
0
0
0
0
0
0
0
0
0
0
0
0
0
0
0
0
0
0
0
0
0
0
0
0
0
0
0
0
0
0
0
0
0
0
0
0
0
0
0
0
0
0
0
0
0
0
0
0
0
0
0
0
0
0
0
0
0
0
0
0
0
0
0
0
0
0
0
0
0
0
0
0
0
0
0
0
0
0
0
0
0
0
0
0
0
0
0
0
0
0
0
0
0
0
0
0
0
0
0
0
0
0
0
0
0
0
0
0
0
0
0
0
0
0
0
0
0
0
0
0
0
0
0
0
0
0
0
0
0
0
0
0
0
0
0
0
0
0
0
0
0
0
0
0
0
0
0
0
0
0
0
0
0
0
0
0
0
0
0
0
0
0
0
0
0
0
0
0
0
0
0
0
0
0
0
0
0
0
0
0
0
0
0
0
0
0
0
0
0
0
0
0
0
0
0
0
0
0
0
0
0
0
0
0
0
0
0
0
0
0
0
0
0
0
0
0
0
0
0
0
0
0
0
0
0
0
0
0
0
0
0
0
0
0
0
0
0
0
0
0
0
0
0
0
0
0
0
0
0
0
0
0
0
0
0
0
0
0
0
0
0
0
0
0
0
0
0
0
0
0
0
0
0
0
0
0
0
0
0
0
0
0
0
0
0
0
0
0
0
0
0
0
0
0
0
0
0
0
0
0
0
0
0
0
0
0
0
0
0
0
0
0
0
0
0
0
0
0
0
0
0
0
0
0
0
0
0
0
0
0
0
0
0
0
0
0
0
0
0
0
0
0
0
0
0
0
0
0
0
0
0
0
0
0
0
0
0
0
0
0
0
0
0
0
0
0
0
0
0
0
0
0
0
0
0
0
0
0
0
0
0
0
0
0
0
0
0
0
0
0
0
0
0
0
0
0
0
0
0
0
0
0
0
0
0
0
0
0
0
0
0
0
0
0
0
0
0
0
0
0
0
0
0
0
0
0
0
0
0
0
0
0
0
0
0
0
0
0
0
0
0
0
0
0
0
0
0
0
0
0
0
0
0
0
0
0
0
0
0
0
0
0
0
0
0
0
0
0
0
0
0
0
0
0
0
0
0
0
0
0
0
0
0
0
0
0
0
0
0
0
0
0
0
0
0
0
0
0
0
0
0
0
0
0
0
0
0
0
0
0
0
0
0
0
0
0
0
0
0
0
0
0
0
0
0
0
0
0
0
0
0
0
0
0
0
0
0
0
0
0
0
0
0
0
0
0
0
0
0
0
0
0
0
0
0
0
0
0
0
0
0
0
0
0
0
0
0
0
0
0
0
0
0
0
0
0
0
0
0
0
0
0
0
0
0
0
0
0
0
0
0
0
0
0
0
0
0
0
0
0
0
0
0
0
0
0
0
0
0
0
0
0
0
0
0
0
0
0
0
0
0
0
0
0
0
0
0
0
0
0
0
0
0
0
0
0
0
0
0
0
0
0
0
0
0
0
0
0
0
0
0
0
0
0
0
0
0
0
0
0
0
0
0
0
0
0
0
0
0
0
0
0
0
0
0
0
0
0
0
0
0
0
0
0
0
0
0
0
0
0
0
0
0
0
0
0
0
0
0
0
0
0
0
0
0
0
0
0
0
0
0
0
0
0
0
0
0
0
0
0
0
0
0
0
0
0
0
0
0
0
0
0
0
0
0
0
0
0
0
0
0
0
0
0
0
0
0
0
0
0
0
0
0
0
0
0
0
0
0
0
0
0
0
0
0
0
0
0
0
0
0
0
0
0
0
0
0
0
0
0
0
0
0
0
0
0
0
0
0
0
0
0
0
0
0
0
0
0
0
0
0
0
0
0
0
0
0
0
0
0
0
0
0
0
0
0
0
0
0
0
0
0
0
0
0
0
0
0
0
0
0
0
0
0
0
0
0
0
0
0
0
0
0
0
0
0
0
0
0
0
0
0
0
0
0
0
0
0
0
0
0
0
0
0
0
0
0
0
0
0
0
0
0
0
0
0
0
0
0
0
0
0
0
0
0
0
0
0
0
0
0
0
0
0
0
0
0
0
0
0
0
0
0
0
0
0
0
0
0
0
0
0
0
0
0
0
0
0
0
0
0
0
0
0
0
0
0
0
0
0
0
0
0
0
0
0
0
0
0
0
0
0
0
0
0
0
0
0
0
0
0
0
0
0
0
0
0
0
0
0
0
0
0
0
0
0
0
0
0
0
0
0
0
0
0
0
0
0
0
0
0
0
0
0
0
0
0
0
0
0
0
0
0
0
0
0
0
0
0
0
0
0
0
0
0
0
0
0
0
0
0
0
0
0
0
0
0
0
0
0
0
0
0
0
0
0
0
0
0
0
0
0
0
0
0
0
0
0
0
0
0
0
0
0
0
0
0
0
0
0
0
0
0
0
0
0
0
0
0
0
0
0
0
0
0
0
0
0
0
0
0
0
0
0
0
0
0
0
0
0
0
0
0
0
0
0
0
0
0
0
0
0
0
0
0
0
0
0
0
0
0
0
0
1
1
1
1
1
1
1
1
1
1
1
1
1
1
1
1
1
1
1
1
1
1
1
1
1
1
1
1
1
1
2
2
2
2
2
2
2
2
2
2
2
2
2
2
2
2
2
2
2
2
2
2
2
2
2
2
2
2
2
2
3
3
3
3
3
3
3
3
3
3
3
3
3
3
3
3
3
3
3
3
3
3
3
3
3
3
3
3
3
3
4
4
4
4
4
4
4
4
4
4
4
4
4
4
4
4
4
4
4
4
4
4
4
4
4
4
4
4
4
4

LOOKUP_TABLE FreeFempp_table 5
1.00000000 0.00000000 0.00000000 1.00000000
1.00000000 1.00000000 0.00000000 1.00000000
1.00000000 0.00000000 1.00000000 1.00000000
0.00000000 1.00000000 0.00000000 1.00000000
0.00000000 1.00000000 1.00000000 1.00000000

POINT_DATA 961
FIELD FieldData 1
Density 1 961 float
6.55689657e-01 1.86854377e-02 2.84193195e-02 7.06579149e-01 8.75099003e-01 8.45080972e-01 7.52492070e-01 6.33849502e-01 5.44516325e-01 4.92816836e-01 4.65960234e-01 4.59169567e-01 4.69802648e-01 4.94115531e-01 5.26328027e-01 5.59717178e-01 5.89279115e-01 6.13736928e-01 6.34376526e-01 6.48496389e-01 6.49876773e-01 6.47837520e-01 6.48181617e-01 6.46544337e-01 6.40998185e-01 6.37512922e-01 6.38815403e-01 6.37086272e-01 6.06876373e-01 5.96063495e-01 6.52308464e-01 6.86765373e-01 1.54791242e-02 1.37742823e-02 5.38272440e-01 9.29539204e-01 9.19724107e-01 8.38049471e-01 6.60582006e-01 4.55830544e-01 3.40575278e-01 2.90706933e-01 2.74960339e-01 2.79667735e-01 3.05292219e-01 3.44353199e-01 3.96265000e-01 4.49678689e-01 4.94552583e-01 5.27458370e-01 5.47383487e-01 5.52489936e-01 5.63216209e-01 5.78778565e-01 5.87622225e-01 5.85596621e-01 5.81929326e-01 5.85222781e-01 5.78005493e-01 5.40157020e-01 5.25858462e-01 5.90408504e-01 6.81189060e-01 1.68274436e-02 1.45739252e-02 2.23422900e-01 9.37990427e-01 9.15504217e-01 8.17492962e-01 6.37075603e-01 4.45190519e-01 3.34264457e-01 2.77905732e-01 2.53094047e-01 2.48053253e-01 2.57125705e-01 2.78789937e-01 3.22278500e-01 3.72789145e-01 4.16182280e-01 4.31585938e-01 4.52588439e-01 4.71077949e-01 4.90987360e-01 5.18604994e-01 5.43810964e-01 5.50269425e-01 5.56302309e-01 5.66384017e-01 5.66676497e-01 5.38959682e-01 5.16729236e-01 5.76592028e-01 6.77654862e-01 1.87956188e-02 1.53320190e-02 7.71226585e-02 9.40475464e-01 9.19922829e-01 8.16128492e-01 6.23917282e-01 4.32534158e-01 3.26492488e-01 2.75961906e-01 2.55906910e-01 2.51549274e-01 2.56592482e-01 2.77497202e-01 3.10301095e-01 3.52496535e-01 3.85863781e-01 4.12860572e-01 4.40108895e-01 4.58985031e-01 4.73847955e-01 4.93388027e-01 5.22193968e-01 5.39147258e-01 5.45445800e-01 5.56875229e-01 5.69292486e-01 5.49620926e-01 5.24608910e-01 5.77005327e-01 6.74930215e-01 1.68034546e-02 1.62772834e-02 6.03999346e-02 9.40270722e-01 9.21139717e-01 8.15976918e-01 6.20267272e-01 4.29661632e-01 3.26990455e-01 2.81871259e-01 2.67601341e-01 2.72769690e-01 2.92540491e-01 3.24829847e-01 3.64755481e-01 4.16121721e-01 4.57422912e-01 4.84694630e-01 5.11444092e-01 5.33248544e-01 5.43781042e-01 5.43444812e-01 5.53506553e-01 5.65757334e-01 5.67374051e-01 5.70168853e-01 5.79323053e-01 5.73339045e-01 5.47024846e-01 5.88349879e-01 6.72810853e-01 1.44583415e-02 1.53579116e-02 9.14356858e-02 9.39199030e-01 9.19925213e-01 8.16472828e-01 6.25087440e-01 4.41968173e-01 3.44582289e-01 3.04896355e-01 2.96807319e-01 3.12105596e-01 3.49811137e-01 4.06363606e-01 4.71567363e-01 5.34819782e-01 5.86575866e-01 6.23178601e-01 6.49472415e-01 6.58189118e-01 6.51298463e-01 6.41140640e-01 6.29731417e-01 6.17887020e-01 6.08867586e-01 6.04260743e-01 6.00808322e-01 5.99420726e-01 5.82113385e-01 6.12479925e-01 6.78374112e-01 1.34984460e-02 1.40670370e-02 2.43285775e-01 9.36362863e-01 9.17086422e-01 8.16917658e-01 6.35761499e-01 4.66559440e-01 3.80852282e-01 3.54339004e-01 3.61328691e-01 3.92709345e-01 4.44549799e-01 5.05223334e-01 5.66485524e-01 6.19687080e-01 6.55961215e-01 6.63559139e-01 6.53687418e-01 6.39046252e-01 6.28946364e-01 6.31110847e-01 6.33950233e-01 6.29624665e-01 6.20909154e-01 6.14700496e-01 6.11521244e-01 6.15378261e-01 6.15477681e-01 6.40986621e-01 6.85349286e-01 1.32509200e-02 1.34619009e-02 5.32821655e-01 9.27373946e-01 9.12872434e-01 8.17439079e-01 6.45527601e-01 4.93474811e-01 4.25674051e-01 4.19387549e-01 4.48367774e-01 4.97133344e-01 5.52382052e-01 5.87142825e-01 6.19449377e-01 6.62531197e-01 6.83255315e-01 6.70329690e-01 6.28167152e-01 5.97534776e-01 5.97121298e-01 6.06149793e-01 6.16097152e-01 6.18691504e-01 6.17890596e-01 6.16156578e-01 6.12706840e-01 6.22991085e-01 6.42329693e-01 6.64304554e-01 6.81279063e-01 1.31151201e-02 1.32397069e-02 6.72746241e-01 9.13763404e-01 9.08509433e-01 8.17411780e-01 6.46802545e-01 5.02193809e-01 4.47292894e-01 4.47998226e-01 4.67314959e-01 4.86149043e-01 5.00742972e-01 4.91831511e-01 5.17260253e-01 6.43115878e-01 7.22754955e-01 6.90250456e-01 6.21619940e-01 5.78339100e-01 5.87517560e-01 6.14853501e-01 6.29735589e-01 6.28734171e-01 6.25254095e-01 6.21357441e-01 6.18411124e-01 6.38719380e-01 6.68530226e-01 6.83080494e-01 6.66934848e-01 1.31732253e-02 1.31947407e-02 6.51793599e-01 9.02897537e-01 9.06071723e-01 8.16402555e-01 6.25380516e-01 4.59927559e-01 3.95459741e-01 3.70495111e-01 3.29898000e-01 2.64440209e-01 2.04957232e-01 1.67375714e-01 1.69902861e-01 2.55747497e-01 5.58372021e-01 6.48964643e-01 5.12608945e-01 4.64959949e-01 5.34156799e-01 6.24528885e-01 6.50364637e-01 6.49965525e-01 6.37768388e-01 6.26164317e-01 6.26415491e-01 6.53535187e-01 6.79761231e-01 6.92458510e-01 6.11656427e-01 1.35416202e-02 1.33504877e-02 4.69614446e-01 9.03133690e-01 9.10330236e-01 8.12746525e-01 5.61060846e-01 3.41992885e-01 2.59707958e-01 2.12738514e-01 1.50583550e-01 9.22946036e-02 4.55297120e-02 2.85530034e-02 1.73324607e-02 1.16822170e-02 1.00273788e-02 1.03324791e-02 1.45864291e-02 3.56150642e-02 1.18868798e-01 4.07404959e-01 5.60400128e-01 6.03383780e-01 6.08932078e-01 5.98208547e-01 6.09322190e-01 6.13524973e-01 5.66124082e-01 6.37314320e-01 5.77768385e-01 1.39985085e-02 1.36686843e-02 2.95774490e-01 8.90614986e-01 9.19584453e-01 8.09568167e-01 4.59655225e-01 1.91936255e-01 1.26323849e-01 8.87685493e-02 5.20427227e-02 3.21987607e-02 1.90329757e-02 1.50833791e-02 1.22646252e-02 1.02474298e-02 8.92452151e-03 7.68959615e-03 6.46483945e-03 5.24015538e-03 4.22306731e-03 4.13206173e-03 5.40542183e-03 2.23965421e-02 3.96524221e-01 4.85556573e-01 4.99889165e-01 4.86513406e-01 4.81861115e-01 5.31835318e-01 6.24128282e-01 1.40276961e-02 1.38526633e-02 2.39406541e-01 8.34922552e-01 9.28570092e-01 8.21705580e-01 3.72849137e-01 9.92680043e-02 6.43703640e-02 4.26220521e-02 2.49038022e-02 2.06636898e-02 1.63604561e-02 1.70435905e-02 1.43395150e-02 1.64095350e-02 1.97914541e-02 2.04593427e-02 1.41815133e-02 8.14959779e-03 5.13116084e-03 4.26525436e-03 3.63317365e-03 3.80849745e-03 3.87734431e-03 3.97459697e-03 4.11770446e-03 4.72193118e-03 5.53536080e-02 6.51727140e-01 6.99624658e-01 1.43593429e-02 1.38941603e-02 2.05144167e-01 7.64655769e-01 9.28191125e-01 8.47152293e-01 3.61283004e-01 6.91675991e-02 4.77387980e-02 3.36118266e-02 2.19009239e-02 2.06945278e-02 2.16676109e-02 2.78862976e-02 3.68089452e-02 5.98506890e-02 1.15531459e-01 2.22186416e-01 3.56750071e-01 4.03701067e-01 3.93396586e-01 4.60104644e-01 5.00338137e-01 8.45466834e-03 4.42159036e-03 4.11508838e-03 4.06478439e-03 2.95536569e-03 2.37562484e-03 5.61733311e-03 5.96977890e-01 1.47547284e-02 1.41113363e-02 2.16218755e-01 7.18262255e-01 9.13640440e-01 8.68108034e-01 4.40873057e-01 7.32509494e-02 4.47640382e-02 3.79951224e-02 3.13640758e-02 3.14003713e-02 4.39097993e-02 6.21580407e-02 9.24247727e-02 1.46208122e-01 2.28370786e-01 3.45964879e-01 4.68659192e-01 5.33412576e-01 5.78024566e-01 6.29176736e-01 5.78639805e-01 4.62097764e-01 3.00690204e-01 1.45784587e-01 1.16805665e-01 6.15689531e-02 4.27542534e-03 3.57131078e-03 5.71336389e-01 1.55844791e-02 1.41819660e-02 2.36712083e-01 7.06059039e-01 8.91423285e-01 8.78306448e-01 5.80834925e-01 1.21308029e-01 5.11971153e-02 5.39222620e-02 5.72007783e-02 6.57469481e-02 9.42241549e-02 1.36606961e-01 1.92839250e-01 2.69570321e-01 3.48179132e-01 4.38759118e-01 5.20283639e-01 5.70669711e-01 6.36140347e-01 7.15853274e-01 6.56160653e-01 4.06953275e-01 2.25490272e-01 1.66554272e-01 5.86490989e-01 3.22099775e-01 5.02405688e-02 8.03461149e-02 5.61871946e-01 1.79180540e-02 1.49470409e-02 2.15340868e-01 6.80226207e-01 8.64641547e-01 8.79733086e-01 7.15244591e-01 2.79585481e-01 9.47719365e-02 8.35522711e-02 1.04485743e-01 1.35128632e-01 1.81195885e-01 2.44854033e-01 3.24672997e-01 4.07973230e-01 4.59663779e-01 4.98060048e-01 5.42520225e-01 6.00009739e-01 6.93951368e-01 8.23315501e-01 8.46940696e-01 7.96767890e-01 4.93861943e-01 3.76931340e-01 9.51178908e-01 9.60795939e-01 8.30497503e-01 2.43453488e-01 5.48831940e-01 2.45930329e-02 1.57581754e-02 1.14269949e-01 6.11614764e-01 8.31114531e-01 8.74045789e-01 8.00190508e-01 5.49262226e-01 2.76402801e-01 1.84596434e-01 1.90726951e-01 2.34981477e-01 2.99450994e-01 3.84360254e-01 4.79021430e-01 5.56919038e-01 5.96595287e-01 6.22095346e-01 6.72266781e-01 7.62075007e-01 8.77545774e-01 9.55365539e-01 9.78451431e-01 9.81652379e-01 9.76651609e-01 9.84784842e-01 9.87006783e-01 9.84396458e-01 9.78131294e-01 9.24989164e-01 5.13772428e-01 5.54732382e-02 1.91374086e-02 4.45118845e-02 4.65142310e-01 7.80031502e-01 8.59251261e-01 8.40345919e-01 7.45985985e-01 5.89701235e-01 4.53510016e-01 3.97772759e-01 4.15639043e-01 4.84204143e-01 5.79699039e-01 6.77763522e-01 7.55528152e-01 8.07431519e-01 8.47357392e-01 8.90434742e-01 9.31770444e-01 9.61877406e-01 9.80909109e-01 9.87893105e-01 9.82999742e-01 9.63988960e-01 9.53838885e-01 8.28587174e-01 1.38679817e-01 3.70090604e-01 8.07681441e-01 4.79958594e-01 1.43773198e-01 3.06556821e-02 3.40141803e-02 2.61043042e-01 6.98550999e-01 8.40374351e-01 8.60422671e-01 8.39360416e-01 7.92300642e-01 7.31229842e-01 6.83589518e-01 6.79543257e-01 7.24332035e-01 7.93092251e-01 8.55653942e-01 8.98703396e-01 9.24090266e-01 9.38222289e-01 9.46831942e-01 9.53246176e-01 9.58467782e-01 9.63089168e-01 9.61988091e-01 9.38772500e-01 8.60703588e-01 7.15616822e-01 3.48143101e-01 3.17617990e-02 7.16328472e-02 6.77422702e-01 4.78490531e-01 2.25119039e-01 6.78286329e-02 4.19454873e-02 1.32160395e-01 5.66534102e-01 8.33466530e-01 8.84688616e-01 8.91978085e-01 8.83348107e-01 8.66653800e-01 8.51374567e-01 8.49768460e-01 8.66648316e-01 8.92983735e-01 9.16324794e-01 9.31441784e-01 9.39080119e-01 9.41380084e-01 9.39758122e-01 9.34121788e-01 9.22228932e-01 8.98931861e-01 8.55715036e-01 7.85870731e-01 7.10533917e-01 6.41995430e-01 7.63337195e-01 1.99024882e-02 3.02029531e-02 7.88216233e-01 6.26234651e-01 3.76585305e-01 1.94254875e-01 9.76008698e-02 1.86717063e-01 6.54073715e-01 8.86905968e-01 9.24474835e-01 9.30080652e-01 9.26705599e-01 9.19680655e-01 9.12710786e-01 9.09317970e-01 9.10977006e-01 9.15661156e-01 9.19704318e-01 9.20552194e-01 9.17263865e-01 9.09447789e-01 8.95818174e-01 8.72212827e-01 8.30836117e-01 7.68023133e-01 6.99627399e-01 6.57246411e-01 6.58934355e-01 6.77213132e-01 6.27793670e-01 7.17209931e-03 2.02179309e-02 7.66404033e-01 8.97319734e-01 9.11123276e-01 8.85012090e-01 8.33193898e-01 8.73648524e-01 9.36231315e-01 9.52170193e-01 9.53831911e-01 9.50304508e-01 9.44190323e-01 9.36727464e-01 9.28865910e-01 9.21234608e-01 9.13797617e-01 9.05601859e-01 8.95005703e-01 8.80289316e-01 8.60138834e-01 8.33512902e-01 7.98493743e-01 7.51374781e-01 6.91576898e-01 6.31470323e-01 5.92685640e-01 5.95701277e-01 6.69923782e-01 7.45472848e-01 5.50269425e-01 1.56336930e-02 1.72487739e-02 7.57098734e-01 9.35040772e-01 9.78171647e-01 9.75020528e-01 9.73843336e-01 9.72129941e-01 9.68781590e-01 9.64095294e-01 9.58429396e-01 9.51341808e-01 9.42630529e-01 9.32420313e-01 9.20663834e-01 9.06826973e-01 8.89823616e-01 8.68170321e-01 8.40402603e-01 8.05779457e-01 7.64921367e-01 7.19526827e-01 6.71189845e-01 6.21686637e-01 5.76361418e-01 5.45724750e-01 5.40551424e-01 5.76796770e-01 6.77530050e-01 7.92091191e-01 1.94264855e-02 1.38692521e-02 1.40071604e-02 7.69795716e-01 6.98922098e-01 9.12478685e-01 8.97341251e-01 9.14507270e-01 9.34336126e-01 9.41428900e-01 9.41468954e-01 9.37238812e-01 9.29251790e-01 9.17814255e-01 9.03089762e-01 8.84749413e-01 8.61822844e-01 8.32915664e-01 7.96854556e-01 7.53675163e-01 7.05445766e-01 6.55991852e-01 6.09221101e-01 5.67658246e-01 5.33192456e-01 5.09148061e-01 5.01365781e-01 5.17103553e-01 5.72075129e-01 6.80567265e-01 7.44141579e-01 1.16521828e-02 1.27413440e-02 2.31324658e-02 7.77355611e-01 2.24868253e-01 1.29451662e-01 1.59657136e-01 2.30901614e-01 4.73725200e-01 7.11650550e-01 8.15322995e-01 8.48892927e-01 8.54083836e-01 8.45463395e-01 8.28205645e-01 8.04172933e-01 7.73909509e-01 7.37686455e-01 6.96359456e-01 6.51934564e-01 6.07465386e-01 5.66182673e-01 5.30448437e-01 5.01629174e-01 4.81348842e-01 4.72798377e-01 4.80368555e-01 5.09311378e-01 5.66236079e-01 6.75895989e-01 7.07774997e-01 9.92173608e-03 1.13805002e-02 3.94063532e-01 7.32114315e-01 1.49299771e-01 6.40338734e-02 7.50406981e-02 8.86646733e-02 1.47014439e-01 3.12404305e-01 5.11125803e-01 6.32423997e-01 6.84593916e-01 6.99027359e-01 6.93233788e-01 6.75698578e-01 6.50957227e-01 6.21976316e-01 5.91164947e-01 5.60609937e-01 5.31903684e-01 5.06041527e-01 4.83747452e-01 4.66260791e-01 4.56159323e-01 4.57412153e-01 4.74002481e-01 5.09143531e-01 5.57771921e-01 6.57210946e-01 6.38620496e-01 8.24998599e-03 9.20488406e-03 5.64171016e-01 6.43146992e-01 1.36796266e-01 5.30070290e-02 5.42697497e-02 7.88858086e-02 1.24069288e-01 2.06508771e-01 3.19273591e-01 4.23663855e-01 4.93257284e-01 5.29395163e-01 5.42235672e-01 5.40546358e-01 5.30491889e-01 5.16403437e-01 5.01390994e-01 4.87473518e-01 4.75456625e-01 4.65145916e-01 4.56317365e-01 4.50114816e-01 4.49768007e-01 4.59474981e-01 4.81868267e-01 5.16255736e-01 5.49582005e-01 6.18841410e-01 5.94837189e-01 7.26443902e-03 7.94155989e-03 5.57739973e-01 6.22819304e-01 1.50909796e-01 5.76072857e-02 4.33519110e-02 5.38337193e-02 9.77401212e-02 1.66479871e-01 2.44215831e-01 3.16190600e-01 3.72323722e-01 4.09542263e-01 4.30096567e-01 4.38315779e-01 4.38706487e-01 4.35228378e-01 4.31053698e-01 4.28387851e-01 4.28224295e-01 4.30348307e-01 4.34118629e-01 4.39923584e-01 4.50142115e-01 4.68291759e-01 4.95940328e-01 5.27911186e-01 5.51917374e-01 5.73402166e-01 5.67294180e-01 6.38401648e-03 6.99554803e-03 5.54109991e-01 6.17088795e-01 1.62173361e-01 6.53004274e-02 4.47316431e-02 3.65190655e-02 4.96925637e-02 9.90466252e-02 1.65686667e-01 2.27397308e-01 2.77703762e-01 3.14580142e-01 3.38428915e-01 3.51676255e-01 3.57935935e-01 3.60989839e-01 3.64040017e-01 3.69394332e-01 3.78395617e-01 3.91376078e-01 4.07767445e-01 4.26680267e-01 4.47689980e-01 4.70897853e-01 4.96658891e-01 5.25106430e-01 5.50271153e-01 5.57541728e-01 5.80069840e-01 5.10346005e-03 6.12832978e-03 5.57242513e-01 6.12644613e-01 3.60410452e-01 1.25599340e-01 9.72838253e-02 6.69027865e-02 6.02260306e-02 9.13589671e-02 1.76579103e-01 2.71457464e-01 3.44586819e-01 3.94689500e-01 4.26290423e-01 4.44485366e-01 4.54117566e-01 4.59436119e-01 4.63806093e-01 4.69593674e-01 4.78266001e-01 4.90506619e-01 5.06137133e-01 5.23980319e-01 5.42147875e-01 5.59089541e-01 5.75399220e-01 5.92458546e-01 6.10129774e-01 6.20516658e-01 6.30147278e-01 9.79415327e-03 6.64097909e-03 6.86868787e-01 6.41375840e-01 
