# vtk DataFile Version 2.0
results/iter1.vtk, Created by Freefem++ 
ASCII
DATASET UNSTRUCTURED_GRID
POINTS 961 float
0 0 0
0.033333333 0 0
0.066666667 0 0
0.1 0 0
0.13333333 0 0
0.16666667 0 0
0.2 0 0
0.23333333 0 0
0.26666667 0 0
0.3 0 0
0.33333333 0 0
0.36666667 0 0
0.4 0 0
0.43333333 0 0
0.46666667 0 0
0.5 0 0
0.53333333 0 0
0.56666667 0 0
0.6 0 0
0.63333333 0 0
0.66666667 0 0
0.7 0 0
0.73333333 0 0
0.76666667 0 0
0.8 0 0
0.83333333 0 0
0.86666667 0 0
0.9 0 0
0.93333333 0 0
0.96666667 0 0
1 0 0
0 0.033333333 0
0.033333333 0.033333333 0
0.066666667 0.033333333 0
0.1 0.033333333 0
0.13333333 0.033333333 0
0.16666667 0.033333333 0
0.2 0.033333333 0
0.23333333 0.033333333 0
0.26666667 0.033333333 0
0.3 0.033333333 0
0.33333333 0.033333333 0
0.36666667 0.033333333 0
0.4 0.033333333 0
0.43333333 0.033333333 0
0.46666667 0.033333333 0
0.5 0.033333333 0
0.53333333 0.033333333 0
0.56666667 0.033333333 0
0.6 0.033333333 0
0.63333333 0.033333333 0
0.66666667 0.033333333 0
0.7 0.033333333 0
0.73333333 0.033333333 0
0.76666667 0.033333333 0
0.8 0.033333333 0
0.83333333 0.033333333 0
0.86666667 0.033333333 0
0.9 0.033333333 0
0.93333333 0.033333333 0
0.96666667 0.033333333 0
1 0.033333333 0
0 0.066666667 0
0.033333333 0.066666667 0
0.066666667 0.066666667 0
0.1 0.066666667 0
0.13333333 0.066666667 0
0.16666667 0.066666667 0
0.2 0.066666667 0
0.23333333 0.066666667 0
0.26666667 0.066666667 0
0.3 0.066666667 0
0.33333333 0.066666667 0
0.36666667 0.066666667 0
0.4 0.066666667 0
0.43333333 0.066666667 0
0.46666667 0.066666667 0
0.5 0.066666667 0
0.53333333 0.066666667 0
0.56666667 0.066666667 0
0.6 0.066666667 0
0.63333333 0.066666667 0
0.66666667 0.066666667 0
0.7 0.066666667 0
0.73333333 0.066666667 0
0.76666667 0.066666667 0
0.8 0.066666667 0
0.83333333 0.066666667 0
0.86666667 0.066666667 0
0.9 0.066666667 0
0.93333333 0.066666667 0
0.96666667 0.066666667 0
1 0.066666667 0
0 0.1 0
0.033333333 0.1 0
0.066666667 0.1 0
0.1 0.1 0
0.13333333 0.1 0
0.16666667 0.1 0
0.2 0.1 0
0.23333333 0.1 0
0.26666667 0.1 0
0.3 0.1 0
0.33333333 0.1 0
0.36666667 0.1 0
0.4 0.1 0
0.43333333 0.1 0
0.46666667 0.1 0
0.5 0.1 0
0.53333333 0.1 0
0.56666667 0.1 0
0.6 0.1 0
0.63333333 0.1 0
0.66666667 0.1 0
0.7 0.1 0
0.73333333 0.1 0
0.76666667 0.1 0
0.8 0.1 0
0.83333333 0.1 0
0.86666667 0.1 0
0.9 0.1 0
0.93333333 0.1 0
0.96666667 0.1 0
1 0.1 0
0 0.13333333 0
0.033333333 0.13333333 0
0.066666667 0.13333333 0
0.1 0.13333333 0
0.13333333 0.13333333 0
0.16666667 0.13333333 0
0.2 0.13333333 0
0.23333333 0.13333333 0
0.26666667 0.13333333 0
0.3 0.13333333 0
0.33333333 0.13333333 0
0.36666667 0.13333333 0
0.4 0.13333333 0
0.43333333 0.13333333 0
0.46666667 0.13333333 0
0.5 0.13333333 0
0.53333333 0.13333333 0
0.56666667 0.13333333 0
0.6 0.13333333 0
0.63333333 0.13333333 0
0.66666667 0.13333333 0
0.7 0.13333333 0
0.73333333 0.13333333 0
0.76666667 0.13333333 0
0.8 0.13333333 0
0.83333333 0.13333333 0
0.86666667 0.13333333 0
0.9 0.13333333 0
0.93333333 0.13333333 0
0.96666667 0.13333333 0
1 0.13333333 0
0 0.16666667 0
0.033333333 0.16666667 0
0.066666667 0.16666667 0
0.1 0.16666667 0
0.13333333 0.16666667 0
0.16666667 0.16666667 0
0.2 0.16666667 0
0.23333333 0.16666667 0
0.26666667 0.16666667 0
0.3 0.16666667 0
0.33333333 0.16666667 0
0.36666667 0.16666667 0
0.4 0.16666667 0
0.43333333 0.16666667 0
0.46666667 0.16666667 0
0.5 0.16666667 0
0.53333333 0.16666667 0
0.56666667 0.16666667 0
0.6 0.16666667 0
0.63333333 0.16666667 0
0.66666667 0.16666667 0
0.7 0.16666667 0
0.73333333 0.16666667 0
0.76666667 0.16666667 0
0.8 0.16666667 0
0.83333333 0.16666667 0
0.86666667 0.16666667 0
0.9 0.16666667 0
0.93333333 0.16666667 0
0.96666667 0.16666667 0
1 0.16666667 0
0 0.2 0
0.033333333 0.2 0
0.066666667 0.2 0
0.1 0.2 0
0.13333333 0.2 0
0.16666667 0.2 0
0.2 0.2 0
0.23333333 0.2 0
0.26666667 0.2 0
0.3 0.2 0
0.33333333 0.2 0
0.36666667 0.2 0
0.4 0.2 0
0.43333333 0.2 0
0.46666667 0.2 0
0.5 0.2 0
0.53333333 0.2 0
0.56666667 0.2 0
0.6 0.2 0
0.63333333 0.2 0
0.66666667 0.2 0
0.7 0.2 0
0.73333333 0.2 0
0.76666667 0.2 0
0.8 0.2 0
0.83333333 0.2 0
0.86666667 0.2 0
0.9 0.2 0
0.93333333 0.2 0
0.96666667 0.2 0
1 0.2 0
0 0.23333333 0
0.033333333 0.23333333 0
0.066666667 0.23333333 0
0.1 0.23333333 0
0.13333333 0.23333333 0
0.16666667 0.23333333 0
0.2 0.23333333 0
0.23333333 0.23333333 0
0.26666667 0.23333333 0
0.3 0.23333333 0
0.33333333 0.23333333 0
0.36666667 0.23333333 0
0.4 0.23333333 0
0.43333333 0.23333333 0
0.46666667 0.23333333 0
0.5 0.23333333 0
0.53333333 0.23333333 0
0.56666667 0.23333333 0
0.6 0.23333333 0
0.63333333 0.23333333 0
0.66666667 0.23333333 0
0.7 0.23333333 0
0.73333333 0.23333333 0
0.76666667 0.23333333 0
0.8 0.23333333 0
0.83333333 0.23333333 0
0.86666667 0.23333333 0
0.9 0.23333333 0
0.93333333 0.23333333 0
0.96666667 0.23333333 0
1 0.23333333 0
0 0.26666667 0
0.033333333 0.26666667 0
0.066666667 0.26666667 0
0.1 0.26666667 0
0.13333333 0.26666667 0
0.16666667 0.26666667 0
0.2 0.26666667 0
0.23333333 0.26666667 0
0.26666667 0.26666667 0
0.3 0.26666667 0
0.33333333 0.26666667 0
0.36666667 0.26666667 0
0.4 0.26666667 0
0.43333333 0.26666667 0
0.46666667 0.26666667 0
0.5 0.26666667 0
0.53333333 0.26666667 0
0.56666667 0.26666667 0
0.6 0.26666667 0
0.63333333 0.26666667 0
0.66666667 0.26666667 0
0.7 0.26666667 0
0.73333333 0.26666667 0
0.76666667 0.26666667 0
0.8 0.26666667 0
0.83333333 0.26666667 0
0.86666667 0.26666667 0
0.9 0.26666667 0
0.93333333 0.26666667 0
0.96666667 0.26666667 0
1 0.26666667 0
0 0.3 0
0.033333333 0.3 0
0.066666667 0.3 0
0.1 0.3 0
0.13333333 0.3 0
0.16666667 0.3 0
0.2 0.3 0
0.23333333 0.3 0
0.26666667 0.3 0
0.3 0.3 0
0.33333333 0.3 0
0.36666667 0.3 0
0.4 0.3 0
0.43333333 0.3 0
0.46666667 0.3 0
0.5 0.3 0
0.53333333 0.3 0
0.56666667 0.3 0
0.6 0.3 0
0.63333333 0.3 0
0.66666667 0.3 0
0.7 0.3 0
0.73333333 0.3 0
0.76666667 0.3 0
0.8 0.3 0
0.83333333 0.3 0
0.86666667 0.3 0
0.9 0.3 0
0.93333333 0.3 0
0.96666667 0.3 0
1 0.3 0
0 0.33333333 0
0.033333333 0.33333333 0
0.066666667 0.33333333 0
0.1 0.33333333 0
0.13333333 0.33333333 0
0.16666667 0.33333333 0
0.2 0.33333333 0
0.23333333 0.33333333 0
0.26666667 0.33333333 0
0.3 0.33333333 0
0.33333333 0.33333333 0
0.36666667 0.33333333 0
0.4 0.33333333 0
0.43333333 0.33333333 0
0.46666667 0.33333333 0
0.5 0.33333333 0
0.53333333 0.33333333 0
0.56666667 0.33333333 0
0.6 0.33333333 0
0.63333333 0.33333333 0
0.66666667 0.33333333 0
0.7 0.33333333 0
0.73333333 0.33333333 0
0.76666667 0.33333333 0
0.8 0.33333333 0
0.83333333 0.33333333 0
0.86666667 0.33333333 0
0.9 0.33333333 0
0.93333333 0.33333333 0
0.96666667 0.33333333 0
1 0.33333333 0
0 0.36666667 0
0.033333333 0.36666667 0
0.066666667 0.36666667 0
0.1 0.36666667 0
0.13333333 0.36666667 0
0.16666667 0.36666667 0
0.2 0.36666667 0
0.23333333 0.36666667 0
0.26666667 0.36666667 0
0.3 0.36666667 0
0.33333333 0.36666667 0
0.36666667 0.36666667 0
0.4 0.36666667 0
0.43333333 0.36666667 0
0.46666667 0.36666667 0
0.5 0.36666667 0
0.53333333 0.36666667 0
0.56666667 0.36666667 0
0.6 0.36666667 0
0.63333333 0.36666667 0
0.66666667 0.36666667 0
0.7 0.36666667 0
0.73333333 0.36666667 0
0.76666667 0.36666667 0
0.8 0.36666667 0
0.83333333 0.36666667 0
0.86666667 0.36666667 0
0.9 0.36666667 0
0.93333333 0.36666667 0
0.96666667 0.36666667 0
1 0.36666667 0
0 0.4 0
0.033333333 0.4 0
0.066666667 0.4 0
0.1 0.4 0
0.13333333 0.4 0
0.16666667 0.4 0
0.2 0.4 0
0.23333333 0.4 0
0.26666667 0.4 0
0.3 0.4 0
0.33333333 0.4 0
0.36666667 0.4 0
0.4 0.4 0
0.43333333 0.4 0
0.46666667 0.4 0
0.5 0.4 0
0.53333333 0.4 0
0.56666667 0.4 0
0.6 0.4 0
0.63333333 0.4 0
0.66666667 0.4 0
0.7 0.4 0
0.73333333 0.4 0
0.76666667 0.4 0
0.8 0.4 0
0.83333333 0.4 0
0.86666667 0.4 0
0.9 0.4 0
0.93333333 0.4 0
0.96666667 0.4 0
1 0.4 0
0 0.43333333 0
0.033333333 0.43333333 0
0.066666667 0.43333333 0
0.1 0.43333333 0
0.13333333 0.43333333 0
0.16666667 0.43333333 0
0.2 0.43333333 0
0.23333333 0.43333333 0
0.26666667 0.43333333 0
0.3 0.43333333 0
0.33333333 0.43333333 0
0.36666667 0.43333333 0
0.4 0.43333333 0
0.43333333 0.43333333 0
0.46666667 0.43333333 0
0.5 0.43333333 0
0.53333333 0.43333333 0
0.56666667 0.43333333 0
0.6 0.43333333 0
0.63333333 0.43333333 0
0.66666667 0.43333333 0
0.7 0.43333333 0
0.73333333 0.43333333 0
0.76666667 0.43333333 0
0.8 0.43333333 0
0.83333333 0.43333333 0
0.86666667 0.43333333 0
0.9 0.43333333 0
0.93333333 0.43333333 0
0.96666667 0.43333333 0
1 0.43333333 0
0 0.46666667 0
0.033333333 0.46666667 0
0.066666667 0.46666667 0
0.1 0.46666667 0
0.13333333 0.46666667 0
0.16666667 0.46666667 0
0.2 0.46666667 0
0.23333333 0.46666667 0
0.26666667 0.46666667 0
0.3 0.46666667 0
0.33333333 0.46666667 0
0.36666667 0.46666667 0
0.4 0.46666667 0
0.43333333 0.46666667 0
0.46666667 0.46666667 0
0.5 0.46666667 0
0.53333333 0.46666667 0
0.56666667 0.46666667 0
0.6 0.46666667 0
0.63333333 0.46666667 0
0.66666667 0.46666667 0
0.7 0.46666667 0
0.73333333 0.46666667 0
0.76666667 0.46666667 0
0.8 0.46666667 0
0.83333333 0.46666667 0
0.86666667 0.46666667 0
0.9 0.46666667 0
0.93333333 0.46666667 0
0.96666667 0.46666667 0
1 0.46666667 0
0 0.5 0
0.033333333 0.5 0
0.066666667 0.5 0
0.1 0.5 0
0.13333333 0.5 0
0.16666667 0.5 0
0.2 0.5 0
0.23333333 0.5 0
0.26666667 0.5 0
0.3 0.5 0
0.33333333 0.5 0
0.36666667 0.5 0
0.4 0.5 0
0.43333333 0.5 0
0.46666667 0.5 0
0.5 0.5 0
0.53333333 0.5 0
0.56666667 0.5 0
0.6 0.5 0
0.63333333 0.5 0
0.66666667 0.5 0
0.7 0.5 0
0.73333333 0.5 0
0.76666667 0.5 0
0.8 0.5 0
0.83333333 0.5 0
0.86666667 0.5 0
0.9 0.5 0
0.93333333 0.5 0
0.96666667 0.5 0
1 0.5 0
0 0.53333333 0
0.033333333 0.53333333 0
0.066666667 0.53333333 0
0.1 0.53333333 0
0.13333333 0.53333333 0
0.16666667 0.53333333 0
0.2 0.53333333 0
0.23333333 0.53333333 0
0.26666667 0.53333333 0
0.3 0.53333333 0
0.33333333 0.53333333 0
0.36666667 0.53333333 0
0.4 0.53333333 0
0.43333333 0.53333333 0
0.46666667 0.53333333 0
0.5 0.53333333 0
0.53333333 0.53333333 0
0.56666667 0.53333333 0
0.6 0.53333333 0
0.63333333 0.53333333 0
0.66666667 0.53333333 0
0.7 0.53333333 0
0.73333333 0.53333333 0
0.76666667 0.53333333 0
0.8 0.53333333 0
[...]
CELL_DATA 1920
Scalars  Label int 1
LOOKUP_TABLE FreeFempp_table
0
0
0
0
0
0
0
0
0
0
0
0
0
0
0
0
0
0
0
0
0
0
0
0
0
0
0
0
0
0
0
0
0
0
0
0
0
0
0
0
0
0
0
0
0
0
0
0
0
0
0
0
0
0
0
0
0
0
0
0
0
0
0
0
0
0
0
0
0
0
0
0
0
0
0
0
0
0
0
0
0
0
0
0
0
0
0
0
0
0
0
0
0
0
0
0
0
0
0
0
0
0
0
0
0
0
0
0
0
0
0
0
0
0
0
0
0
0
0
0
0
0
0
0
0
0
0
0
0
0
0
0
0
0
0
0
0
0
0
0
0
0
0
0
0
0
0
0
0
0
0
0
0
0
0
0
0
0
0
0
0
0
0
0
0
0
0
0
0
0
0
0
0
0
0
0
0
0
0
0
0
0
0
0
0
0
0
0
0
0
0
0
0
0
0
0
0
0
0
0
0
0
0
0
0
0
0
0
0
0
0
0
0
0
0
0
0
0
0
0
0
0
0
0
0
0
0
0
0
0
0
0
0
0
0
0
0
0
0
0
0
0
0
0
0
0
0
0
0
0
0
0
0
0
0
0
0
0
0
0
0
0
0
0
0
0
0
0
0
0
0
0
0
0
0
0
0
0
0
0
0
0
0
0
0
0
0
0
0
0
0
0
0
0
0
0
0
0
0
0
0
0
0
0
0
0
0
0
0
0
0
0
0
0
0
0
0
0
0
0
0
0
0
0
0
0
0
0
0
0
0
0
0
0
0
0
0
0
0
0
0
0
0
0
0
0
0
0
0
0
0
0
0
0
0
0
0
0
0
0
0
0
0
0
0
0
0
0
0
0
0
0
0
0
0
0
0
0
0
0
0
0
0
0
0
0
0
0
0
0
0
0
0
0
0
0
0
0
0
0
0
0
0
0
0
0
0
0
0
0
0
0
0
0
0
0
0
0
0
0
0
0
0
0
0
0
0
0
0
0
0
0
0
0
0
0
0
0
0
0
0
0
0
0
0
0
0
0
0
0
0
0
0
0
0
0
0
0
0
0
0
0
0
0
0
0
0
0
0
0
0
0
0
0
0
0
0
0
0
0
0
0
0
0
0
0
0
0
0
0
0
0
0
0
0
0
0
0
0
0
0
0
0
0
0
0
0
0
0
0
0
0
0
0
0
0
0
0
0
0
0
0
0
0
0
0
0
0
0
0
0
0
0
0
0
0
0
0
0
0
0
0
0
0
0
0
0
0
0
0
0
0
0
0
0
0
0
0
0
0
0
0
0
0
0
0
0
0
0
0
0
0
0
0
0
0
0
0
0
0
0
0
0
0
0
0
0
0
0
0
0
0
0
0
0
0
0
0
0
0
0
0
0
0
0
0
0
0
0
0
0
0
0
0
0
0
0
0
0
0
0
0
0
0
0
0
0
0
0
0
0
0
0
0
0
0
0
0
0
0
0
0
0
0
0
0
0
0
0
0
0
0
0
0
0
0
0
0
0
0
0
0
0
0
0
0
0
0
0
0
0
0
0
0
0
0
0
0
0
0
0
0
0
0
0
0
0
0
0
0
0
0
0
0
0
0
0
0
0
0
0
0
0
0
0
0
0
0
0
0
0
0
0
0
0
0
0
0
0
0
0
0
0
0
0
0
0
0
0
0
0
0
0
0
0
0
0
0
0
0
0
0
0
0
0
0
0
0
0
0
0
0
0
0
0
0
0
0
0
0
0
0
0
0
0
0
0
0
0
0
0
0
0
0
0
0
0
0
0
0
0
0
0
0
0
0
0
0
0
0
0
0
0
0
0
0
0
0
0
0
0
0
0
0
0
0
0
0
0
0
0
0
0
0
0
0
0
0
0
0
0
0
0
0
0
0
0
0
0
0
0
0
0
0
0
0
0
0
0
0
0
0
0
0
0
0
0
0
0
0
0
0
0
0
0
0
0
0
0
0
0
0
0
0
0
0
0
0
0
0
0
0
0
0
0
0
0
0
0
0
0
0
0
0
0
0
0
0
0
0
0
0
0
0
0
0
0
0
0
0
0
0
0
0
0
0
0
0
0
0
0
0
0
0
0
0
0
0
0
0
0
0
0
0
0
0
0
0
0
0
0
0
0
0
0
0
0
0
0
0
0
0
0
0
0
0
0
0
0
0
0
0
0
0
0
0
0
0
0
0
0
0
0
0
0
0
0
0
0
0
0
0
0
0
0
0
0
0
0
0
0
0
0
0
0
0
0
0
0
0
0
0
0
0
0
0
0
0
0
0
0
0
0
0
0
0
0
0
0
0
0
0
0
0
0
0
0
0
0
0
0
0
0
0
0
0
0
0
0
0
0
0
0
0
0
0
0
0
0
0
0
0
0
0
0
0
0
0
0
0
0
0
0
0
0
0
0
0
0
0
0
0
0
0
0
0
0
0
0
0
0
0
0
0
0
0
0
0
0
0
0
0
0
0
0
0
0
0
0
0
0
0
0
0
0
0
0
0
0
0
0
0
0
0
0
0
0
0
0
0
0
0
0
0
0
0
0
0
0
0
0
0
0
0
0
0
0
0
0
0
0
0
0
0
0
0
0
0
0
0
0
0
0
0
0
0
0
0
0
0
0
0
0
0
0
0
0
0
0
0
0
0
0
0
0
0
0
0
0
0
0
0
0
0
0
0
0
0
0
0
0
0
0
0
0
0
0
0
0
0
0
0
0
0
0
0
0
0
0
0
0
0
0
0
0
0
0
0
0
0
0
0
0
0
0
0
0
0
0
0
0
0
0
0
0
0
0
0
0
0
0
0
0
0
0
0
0
0
0
0
0
0
0
0
0
0
0
0
0
0
0
0
0
0
0
0
0
0
0
0
0
0
0
0
0
0
0
0
0
0
0
0
0
0
0
0
0
0
0
0
0
0
0
0
0
0
0
0
0
0
0
0
0
0
0
0
0
0
0
0
0
0
0
0
0
0
0
0
0
0
0
0
0
0
0
0
0
0
0
0
0
0
0
0
0
0
0
0
0
0
0
0
0
0
0
0
0
0
0
0
0
0
0
0
0
0
0
0
0
0
0
0
0
0
0
0
0
0
0
0
0
0
0
0
0
0
0
0
0
0
0
0
0
0
0
0
0
0
0
0
0
0
0
0
0
0
0
0
0
0
0
0
0
0
0
0
0
0
0
0
0
0
0
0
0
0
0
0
0
0
0
0
0
0
0
0
0
0
0
0
0
0
0
0
0
0
0
0
0
0
0
0
0
0
0
0
0
0
0
0
0
0
0
0
0
0
0
0
0
0
0
0
0
0
0
0
0
0
0
0
0
0
0
0
0
0
0
0
0
0
0
0
0
0
0
0
0
0
0
0
0
0
0
0
0
0
0
0
0
0
0
0
0
0
0
0
0
0
0
0
0
0
0
0
0
0
0
0
0
0
0
0
0
0
0
0
0
0
0
0
0
0
0
0
0
0
0
0
0
0
0
0
0
0
0
0
0
0
0
0
0
0
0
0
0
0
0
0
0
0
0
0
0
0
0
0
0
0
0
0
0
0
0
0
0
0
0
0
0
0
0
0
0
0
0
0
0
0
0
0
0
0
0
0
0
0
0
0
0
0
0
0
0
0
0
0
0
0
0
0
0
0
0
0
0
0
0
0
0
0
0
0
0
0
0
0
0
0
0
0
0
0
0
0
0
0
0
0
0
0
0
0
0
0
0
0
0
0
0
0
0
0
0
0
0
0
0
0
0
0
0
0
0
0
0
0
0
0
0
0
0
0
0
0
0
0
0
0
0
0
0
0
0
0
0
0
0
0
0
0
0
0
0
0
0
0
0
0
0
0
0
0
0
0
0
0
0
0
0
0
0
0
0
0
0
0
0
0
0
0
0
0
0
0
0
0
0
0
0
0
0
0
0
0
0
0
0
0
0
0
0
0
0
0
0
0
0
0
0
0
0
0
0
0
0
0
0
0
0
0
0
0
0
0
0
0
0
0
0
0
0
0
0
0
0
0
0
0
0
0
0
0
0
0
0
0
0
0
0
0
0
0
0
0
0
0
0
0
0
0
0
0
0
0
0
0
0
0
0
0
1
1
1
1
1
1
1
1
1
1
1
1
1
1
1
1
1
1
1
1
1
1
1
1
1
1
1
1
1
1
2
2
2
2
2
2
2
2
2
2
2
2
2
2
2
2
2
2
2
2
2
2
2
2
2
2
2
2
2
2
3
3
3
3
3
3
3
3
3
3
3
3
3
3
3
3
3
3
3
3
3
3
3
3
3
3
3
3
3
3
4
4
4
4
4
4
4
4
4
4
4
4
4
4
4
4
4
4
4
4
4
4
4
4
4
4
4
4
4
4

LOOKUP_TABLE FreeFempp_table 5
1.00000000 0.00000000 0.00000000 1.00000000
1.00000000 1.00000000 0.00000000 1.00000000
1.00000000 0.00000000 1.00000000 1.00000000
0.00000000 1.00000000 0.00000000 1.00000000
0.00000000 1.00000000 1.00000000 1.00000000

POINT_DATA 961
FIELD FieldData 1
Density 1 961 float
7.76235899e-03 6.80074189e-03 7.12289661e-03 7.37616001e-03 8.13456904e-03 8.95328913e-03 9.33273789e-03 9.21452977e-03 8.95316899e-03 9.26882122e-03 1.13410279e-02 4.21685189e-01 4.85260427e-01 2.98526019e-01 2.25513160e-01 2.46555224e-01 2.79753983e-01 2.28337333e-01 1.84441850e-01 3.22070092e-01 4.38786894e-01 3.31432611e-01 2.72009581e-01 2.85800993e-01 3.26565117e-01 2.84996718e-01 7.06696033e-01 9.79196370e-01 1.51133137e-02 1.81835629e-02 4.96118635e-01 1.17218914e-02 6.04080269e-03 7.11611239e-03 7.16646248e-03 7.68087199e-03 8.50115158e-03 9.10278317e-03 9.15511604e-03 8.92608892e-03 8.86839721e-03 6.78147981e-03 7.83245824e-03 1.24793341e-02 1.22804195e-02 1.69431251e-02 6.02955036e-02 1.81661531e-01 1.72867030e-01 1.55876324e-01 1.91644832e-01 1.29032001e-01 6.84132501e-02 4.32016216e-02 3.21157202e-02 7.65478387e-02 1.65127218e-01 3.27324659e-01 9.83969092e-01 1.76245216e-02 7.92301539e-03 5.27601205e-02 8.71789873e-01 7.79670477e-01 2.74172604e-01 1.46136105e-01 1.79524332e-01 2.42174044e-01 2.92667061e-01 3.20776880e-01 3.26302499e-01 2.86529958e-01 1.59416795e-01 1.20439855e-02 9.49895568e-03 1.08856838e-02 9.00572352e-03 1.00474544e-02 1.82310864e-02 3.86979759e-01 5.37629902e-01 4.52742189e-01 9.49135795e-02 4.38087583e-02 3.33429798e-02 3.18933316e-02 3.97627577e-02 1.21240944e-01 3.16875875e-01 9.71152782e-01 7.01828301e-01 8.82973988e-03 1.32460985e-02 8.59084964e-01 7.91859865e-01 3.72814000e-01 2.57680088e-01 2.90702432e-01 3.78243923e-01 4.67756480e-01 5.34622431e-01 5.65780520e-01 5.47887623e-01 5.00982463e-01 4.71376479e-01 7.48457313e-01 9.28551629e-02 2.77087372e-02 1.75549369e-02 1.09283701e-02 1.19924778e-02 6.91866577e-02 3.29279639e-02 2.35313829e-02 3.66441719e-02 6.77309409e-02 1.31113052e-01 1.79853588e-01 2.21117616e-01 3.87866080e-01 9.55141366e-01 7.87258208e-01 1.14546372e-02 1.12401042e-02 7.85710037e-01 8.10761452e-01 5.26748240e-01 5.16593874e-01 5.37302673e-01 5.76884270e-01 6.32098794e-01 6.80602193e-01 7.07435668e-01 7.11514711e-01 6.93729877e-01 6.73447430e-01 6.89294577e-01 7.56814420e-01 6.46987855e-01 3.70605350e-01 1.28877208e-01 1.62307508e-02 1.42352590e-02 2.36504301e-02 2.45056376e-02 2.77365670e-02 7.25907460e-02 4.33053672e-01 5.19486070e-01 4.88368064e-01 6.44621730e-01 9.35805261e-01 8.16423118e-01 1.20281186e-02 1.16458964e-02 6.24733627e-01 7.23895073e-01 6.17371023e-01 6.67043626e-01 6.97365046e-01 7.08025753e-01 7.25517690e-01 7.44570017e-01 7.52993286e-01 7.45362639e-01 7.21677780e-01 6.86006188e-01 6.43926203e-01 6.44121468e-01 7.14810669e-01 7.62135029e-01 7.21024334e-01 4.13013697e-01 2.72323582e-02 2.24928949e-02 2.36467607e-02 1.51304185e-01 4.45277065e-01 6.11565053e-01 6.94900870e-01 7.20908642e-01 7.78067410e-01 9.14284408e-01 8.72838616e-01 1.30684758e-02 1.26353977e-02 6.36777282e-01 6.18402302e-01 6.98507905e-01 7.30037987e-01 7.39130855e-01 7.47735143e-01 7.50485539e-01 7.52255499e-01 7.45796978e-01 7.24213243e-01 6.84578955e-01 6.31881654e-01 5.79193950e-01 5.42757034e-01 5.48643172e-01 6.07657135e-01 6.63667083e-01 7.14674592e-01 7.38822520e-01 6.54747725e-01 5.23516357e-01 5.24285734e-01 5.44131458e-01 6.20355010e-01 6.96072996e-01 7.56613970e-01 8.07079315e-01 8.97218049e-01 9.19045448e-01 1.41382534e-02 1.36352014e-02 7.29468882e-01 5.60988247e-01 7.85801291e-01 7.65849471e-01 7.56213605e-01 7.58084536e-01 7.55015850e-01 7.48857081e-01 7.34525502e-01 7.06445098e-01 6.62622809e-01 6.08657241e-01 5.57334661e-01 5.19557118e-01 4.97471541e-01 4.85583991e-01 4.67755288e-01 4.50873643e-01 4.73722309e-01 5.25305271e-01 5.43654025e-01 5.13811469e-01 4.98559952e-01 5.45110524e-01 6.25372231e-01 7.15047717e-01 7.89414108e-01 8.83748114e-01 9.39367473e-01 1.51248015e-02 1.44999623e-02 5.64042449e-01 6.31091058e-01 7.12617755e-01 7.24474132e-01 7.49202907e-01 7.52768338e-01 7.55499780e-01 7.50915945e-01 7.36267090e-01 7.08446383e-01 6.67212367e-01 6.17933571e-01 5.70144475e-01 5.29758394e-01 4.93643850e-01 4.53052670e-01 4.03193593e-01 3.57483059e-01 3.40063989e-01 3.69684041e-01 4.14195806e-01 4.21001285e-01 4.25860226e-01 4.60441500e-01 5.29481709e-01 6.24093592e-01 7.24435449e-01 8.66541088e-01 9.45496738e-01 1.53487697e-02 1.51093202e-02 2.24854544e-01 2.03264147e-01 3.36075127e-01 4.50202495e-01 5.95145762e-01 6.74671710e-01 7.19709456e-01 7.35875607e-01 7.31427550e-01 7.09725797e-01 6.74098134e-01 6.30830169e-01 5.87682068e-01 5.48158169e-01 5.09324193e-01 4.66576606e-01 4.20528233e-01 3.82048368e-01 3.67672950e-01 3.85958850e-01 4.09781188e-01 4.09755975e-01 4.11377162e-01 4.31135297e-01 4.76208717e-01 5.44560075e-01 6.24061346e-01 8.32861781e-01 9.42691922e-01 1.55610265e-02 1.52243171e-02 3.23128611e-01 1.72873318e-01 2.24312514e-01 2.87608802e-01 3.90381902e-01 5.22651494e-01 6.27592862e-01 6.83073580e-01 7.00727701e-01 6.92530215e-01 6.67227089e-01 6.33352399e-01 5.98357141e-01 5.65066934e-01 5.32379925e-01 4.99351591e-01 4.69317019e-01 4.50573027e-01 4.49952632e-01 4.60844249e-01 4.60084438e-01 4.43320334e-01 4.39828396e-01 4.57490325e-01 4.90250111e-01 5.34753144e-01 5.75895011e-01 7.72512317e-01 9.32456732e-01 1.65746547e-02 1.57631095e-02 5.99479675e-01 5.01261711e-01 5.79215229e-01 5.19955516e-01 4.81410474e-01 5.09892583e-01 5.77799618e-01 6.35308027e-01 6.63846910e-01 6.67671084e-01 6.54785693e-01 6.33458674e-01 6.10278368e-01 5.87454259e-01 5.65015852e-01 5.43816090e-01 5.28388798e-01 5.24584472e-01 5.31757414e-01 5.36160827e-01 5.19447267e-01 4.89557475e-01 4.81187463e-01 5.04998386e-01 5.46422422e-01 5.87836504e-01 6.32540524e-01 7.59082675e-01 9.22612965e-01 1.82975475e-02 1.69608388e-02 4.51552629e-01 4.40985829e-01 5.71137965e-01 7.18802035e-01 7.30690479e-01 6.89831555e-01 6.64099813e-01 6.61702096e-01 6.63817704e-01 6.61957443e-01 6.54963315e-01 6.44883573e-01 6.34725392e-01 6.25045836e-01 6.15145266e-01 6.04058564e-01 5.94937146e-01 5.92452168e-01 5.96131265e-01 5.96666992e-01 5.80496788e-01 5.51087677e-01 5.36115944e-01 5.54136038e-01 6.03590846e-01 6.69717252e-01 7.58140504e-01 8.42504144e-01 8.90790761e-01 2.08630320e-02 1.87876970e-02 1.66166693e-01 1.72792181e-01 2.15139389e-01 5.53721905e-01 7.15704441e-01 7.53635824e-01 7.37210274e-01 7.10389435e-01 6.88783884e-01 6.75178289e-01 6.68827295e-01 6.67228460e-01 6.68864429e-01 6.71931803e-01 6.73980057e-01 6.70981705e-01 6.62531137e-01 6.53574467e-01 6.47704244e-01 6.44126713e-01 6.37215376e-01 6.25915766e-01 6.20251060e-01 6.27872109e-01 6.55121446e-01 7.27723956e-01 8.54947031e-01 9.16701972e-01 7.73161650e-01 2.48274561e-02 2.15858873e-02 8.18864256e-02 8.38149190e-02 1.43895447e-01 4.12092924e-01 5.76274991e-01 6.66566908e-01 7.04772830e-01 7.04798400e-01 6.90902650e-01 6.79369807e-01 6.77249372e-01 6.83969378e-01 6.95460021e-01 7.07499862e-01 7.16709316e-01 7.19941616e-01 7.14054227e-01 7.02447116e-01 6.89492345e-01 6.80696368e-01 6.78811193e-01 6.86379969e-01 7.06181765e-01 7.30622232e-01 7.44064391e-01 7.65366971e-01 8.64106596e-01 9.28315401e-01 5.54199755e-01 3.26797292e-02 2.61832066e-02 5.05248606e-02 5.76407425e-02 1.82402268e-01 4.27467287e-01 4.94069159e-01 5.61262012e-01 6.23828113e-01 6.54386640e-01 6.61332786e-01 6.61821246e-01 6.67465746e-01 6.81664228e-01 7.01490760e-01 7.20820725e-01 7.34940886e-01 7.41846442e-01 7.40114450e-01 7.31985390e-01 7.19804764e-01 7.08458781e-01 7.04615891e-01 7.15384245e-01 7.46362329e-01 7.90502667e-01 8.28595519e-01 8.41134608e-01 8.59237731e-01 8.82738411e-01 3.50796640e-01 4.83563952e-02 3.72943319e-02 3.55683006e-02 4.24610972e-02 3.40913832e-01 4.64500934e-01 4.69187915e-01 5.06492019e-01 5.60868502e-01 6.00733757e-01 6.21531904e-01 6.32894516e-01 6.44966841e-01 6.63260341e-01 6.87211812e-01 7.11915910e-01 7.30934024e-01 7.41865695e-01 7.44337797e-01 7.41873682e-01 7.36023962e-01 7.28806317e-01 7.24005640e-01 7.27601171e-01 7.47585118e-01 7.86630630e-01 8.39647293e-01 8.85513306e-01 9.04818535e-01 9.08398271e-01 6.27097964e-01 5.48404865e-02 4.55153957e-02 2.79357843e-02 3.22591551e-02 4.60029632e-01 4.80220884e-01 4.58119631e-01 4.82540786e-01 5.25160491e-01 5.63071311e-01 5.88661253e-01 6.05694115e-01 6.20795727e-01 6.39239728e-01 6.62556767e-01 6.87710047e-01 7.09671319e-01 7.24802315e-01 7.32581377e-01 7.36070514e-01 7.38060296e-01 7.39457965e-01 7.40830719e-01 7.42511153e-01 7.47288704e-01 7.59873390e-01 7.85544813e-01 8.23442876e-01 8.14364612e-01 7.57602036e-01 6.03842020e-01 2.38669634e-01 9.03048739e-02 2.34669186e-02 2.62455773e-02 5.02022803e-01 4.96488273e-01 4.53401774e-01 4.68576282e-01 5.03065526e-01 5.37734270e-01 5.64670324e-01 5.84406018e-01 6.00766480e-01 6.17798865e-01 6.37861967e-01 6.60171807e-01 6.81147516e-01 6.97932601e-01 7.09902048e-01 7.19210684e-01 7.28377640e-01 7.38358736e-01 7.48891830e-01 7.57736385e-01 7.62527466e-01 7.63248265e-01 7.60444343e-01 7.41381645e-01 5.89713752e-01 1.55121654e-01 6.72479272e-02 4.73735966e-02 7.65568092e-02 2.04572249e-02 2.23786477e-02 5.09104371e-01 5.13304949e-01 4.54759479e-01 4.59570855e-01 4.86975908e-01 5.18211186e-01 5.45397758e-01 5.67029655e-01 5.84763408e-01 6.01219952e-01 6.18542850e-01 6.37250066e-01 6.55856729e-01 6.72321916e-01 6.86293006e-01 6.99293196e-01 7.12978005e-01 7.28286684e-01 7.45264292e-01 7.62383342e-01 7.77280152e-01 7.88624287e-01 7.97563374e-01 7.94259012e-01 7.41525888e-01 4.65465873e-01 1.11829117e-01 7.41124600e-02 6.54855072e-02 1.82093140e-02 1.96321812e-02 5.07225454e-01 5.27240098e-01 4.59498405e-01 4.54857081e-01 4.74536687e-01 5.01171350e-01 5.27446985e-01 5.50533295e-01 5.70179522e-01 5.87487102e-01 6.03861928e-01 6.20156169e-01 6.36259794e-01 6.51559711e-01 6.65999830e-01 6.80577159e-01 6.96394086e-01 7.14140713e-01 7.34090626e-01 7.55729675e-01 7.78248966e-01 8.01457822e-01 8.26633334e-01 8.53823245e-01 8.65363777e-01 8.63661289e-01 8.27254295e-01 7.73961008e-01 6.83057308e-01 1.64374001e-02 1.75415855e-02 5.05943596e-01 5.37981093e-01 4.66263324e-01 4.54373389e-01 4.65419441e-01 4.85788018e-01 5.09585917e-01 5.33176363e-01 5.54619074e-01 5.73450446e-01 5.90108633e-01 6.05277061e-01 6.19479001e-01 6.33128703e-01 6.46819592e-01 6.61387384e-01 6.77585244e-01 6.95958376e-01 7.16827333e-01 7.40040779e-01 7.65287161e-01 7.92886019e-01 8.24276865e-01 8.62023890e-01 8.90213788e-01 9.19426918e-01 9.38721836e-01 8.83816719e-01 9.09431100e-01 1.50292432e-02 1.59176439e-02 5.08470237e-01 5.45996606e-01 4.74708498e-01 4.57884282e-01 4.59577799e-01 4.72246706e-01 4.92046446e-01 5.14756441e-01 5.37004590e-01 5.56920886e-01 5.73996007e-01 5.88566303e-01 6.01348221e-01 6.13241315e-01 6.25238121e-01 6.38218999e-01 6.52781904e-01 6.69405043e-01 6.88534498e-01 7.10224271e-01 7.33937860e-01 7.58998036e-01 7.85782337e-01 8.16972256e-01 8.37096095e-01 8.52966726e-01 8.37286770e-01 7.66870737e-01 7.42800713e-01 1.38756838e-02 1.46717411e-02 5.17860353e-01 5.52666843e-01 4.84778374e-01 4.63647932e-01 4.55554307e-01 4.60210264e-01 4.75302547e-01 4.95867550e-01 5.17452776e-01 5.37223935e-01 5.53997457e-01 5.67779779e-01 5.79225302e-01 5.89268565e-01 5.98854840e-01 6.08659089e-01 6.19001448e-01 6.30157232e-01 6.42587245e-01 6.56476498e-01 6.70814097e-01 6.83006942e-01 6.91023946e-01 6.96714401e-01 6.83474064e-01 6.72108710e-01 5.71949482e-01 5.21744907e-01 5.84539354e-01 1.28609426e-02 1.36945993e-02 5.41147768e-01 5.58901191e-01 4.94943768e-01 4.67327774e-01 4.50166732e-01 4.48492855e-01 4.59472746e-01 4.77190405e-01 4.96703327e-01 5.14868140e-01 5.30228794e-01 5.42548835e-01 5.52253664e-01 5.59993505e-01 5.66310883e-01 5.71366429e-01 5.74915588e-01 5.76707721e-01 5.76913059e-01 5.75802147e-01 5.72248638e-01 5.61662495e-01 5.38267672e-01 5.03952622e-01 4.61551577e-01 4.59341735e-01 4.23337132e-01 4.67956901e-01 5.63543797e-01 1.19806426e-02 1.29370680e-02 5.98941028e-01 5.63434601e-01 4.99780893e-01 4.63139892e-01 4.40824568e-01 4.36662406e-01 4.45079923e-01 4.59695697e-01 4.75981861e-01 4.91166562e-01 5.03869712e-01 5.13676405e-01 5.20676136e-01 5.25078177e-01 5.26911795e-01 5.25803268e-01 5.20983815e-01 5.11700034e-01 4.97817487e-01 4.79961365e-01 4.58318949e-01 4.28743720e-01 3.81182313e-01 3.17304343e-01 2.76939660e-01 3.10168326e-01 3.76646310e-01 4.99630183e-01 6.51092589e-01 7.37882871e-03 1.35053331e-02 7.51365960e-01 5.71044981e-01 4.92588133e-01 4.49532509e-01 4.29860860e-01 4.27707911e-01 4.34745133e-01 4.45667505e-01 4.57396358e-01 4.68033254e-01 4.76474613e-01 4.82180744e-01 4.84912366e-01 4.84489769e-01 4.80610192e-01 4.72733796e-01 4.60126638e-01 4.42178518e-01 4.18922424e-01 3.91433567e-01 3.61725926e-01 3.29504669e-01 2.82110810e-01 2.08071232e-01 1.65815964e-01 2.23615870e-01 3.81212503e-01 4.74792600e-01 6.79237127e-01 5.03755221e-03 3.63030983e-03 9.40933466e-01 6.13810360e-01 4.81307745e-01 4.38003421e-01 4.28277075e-01 4.29868609e-01 4.34204847e-01 4.39120024e-01 4.43764865e-01 4.47316915e-01 4.49034840e-01 4.48368460e-01 4.44926769e-01 4.38408554e-01 4.28563237e-01 4.15180117e-01 3.98100972e-01 3.77274692e-01 3.52881581e-01 3.25613737e-01 2.97545493e-01 2.72840410e-01 2.45745286e-01 1.80915892e-01 1.14345774e-01 1.50645912e-01 3.72099400e-01 4.63158518e-01 6.17688000e-01 1.70751184e-01 4.00339579e-03 6.49248157e-03 6.43761635e-01 5.09627819e-01 4.63751733e-01 4.57975119e-01 4.56257194e-01 4.50998962e-01 4.44160938e-01 4.37060624e-01 4.29704547e-01 4.21639919e-01 4.12412852e-01 4.01692152e-01 3.89286548e-01 3.75147015e-01 3.59343261e-01 3.41975719e-01 3.23026806e-01 3.02265733e-01 2.79504120e-01 2.55804330e-01 2.36824408e-01 2.32471183e-01 2.19741166e-01 1.25759125e-01 9.13607851e-02 1.75622463e-01 4.67914104e-01 6.21205747e-01 5.82797348e-01 9.32159554e-03 9.33792349e-03 8.98857772e-01 8.17063570e-01 6.36494398e-01 5.55113256e-01 5.19542217e-01 4.89017993e-01 4.62234706e-01 4.39423770e-01 4.19742495e-01 4.02200878e-01 3.85977000e-01 3.70395333e-01 3.54862779e-01 3.38833183e-01 3.21783543e-01 3.03185254e-01 2.82500327e-01 2.59293765e-01 2.33632490e-01 2.07025543e-01 1.84641346e-01 1.80688083e-01 2.14584529e-01 2.37290829e-01 1.06193781e-01 6.64329529e-02 1.28369719e-01 6.83490038e-01 2.70849496e-01 2.70215962e-02 1.46357110e-02 8.97548556e-01 8.51214230e-01 8.34023714e-01 7.03677475e-01 6.45825982e-01 6.15505755e-01 5.94782114e-01 5.79227090e-01 5.66865265e-01 5.56612551e-01 5.47724664e-01 5.39488852e-01 5.31071365e-01 5.21475673e-01 5.09559691e-01 4.94090617e-01 4.73866522e-01 4.47987318e-01 4.16368097e-01 3.80574673e-01 3.45185101e-01 3.22189987e-01 3.43994051e-01 4.46850687e-01 4.89498794e-01 1.73012853e-01 1.46586210e-01 3.55217665e-01 
