# vtk DataFile Version 2.0
results/1_density.vtk, Created by Freefem++ 
ASCII
DATASET UNSTRUCTURED_GRID
POINTS 961 float
0 0 0
0.033333333 0 0
0.066666667 0 0
0.1 0 0
0.13333333 0 0
0.16666667 0 0
0.2 0 0
0.23333333 0 0
0.26666667 0 0
0.3 0 0
0.33333333 0 0
0.36666667 0 0
0.4 0 0
0.43333333 0 0
0.46666667 0 0
0.5 0 0
0.53333333 0 0
0.56666667 0 0
0.6 0 0
0.63333333 0 0
0.66666667 0 0
0.7 0 0
0.73333333 0 0
0.76666667 0 0
0.8 0 0
0.83333333 0 0
0.86666667 0 0
0.9 0 0
0.93333333 0 0
0.96666667 0 0
1 0 0
0 0.033333333 0
0.033333333 0.033333333 0
0.066666667 0.033333333 0
0.1 0.033333333 0
0.13333333 0.033333333 0
0.16666667 0.033333333 0
0.2 0.033333333 0
0.23333333 0.033333333 0
0.26666667 0.033333333 0
0.3 0.033333333 0
0.33333333 0.033333333 0
0.36666667 0.033333333 0
0.4 0.033333333 0
0.43333333 0.033333333 0
0.46666667 0.033333333 0
0.5 0.033333333 0
0.53333333 0.033333333 0
0.56666667 0.033333333 0
0.6 0.033333333 0
0.63333333 0.033333333 0
0.66666667 0.033333333 0
0.7 0.033333333 0
0.73333333 0.033333333 0
0.76666667 0.033333333 0
0.8 0.033333333 0
0.83333333 0.033333333 0
0.86666667 0.033333333 0
0.9 0.033333333 0
0.93333333 0.033333333 0
0.96666667 0.033333333 0
1 0.033333333 0
0 0.066666667 0
0.033333333 0.066666667 0
0.066666667 0.066666667 0
0.1 0.066666667 0
0.13333333 0.066666667 0
0.16666667 0.066666667 0
0.2 0.066666667 0
0.23333333 0.066666667 0
0.26666667 0.066666667 0
0.3 0.066666667 0
0.33333333 0.066666667 0
0.36666667 0.066666667 0
0.4 0.066666667 0
0.43333333 0.066666667 0
0.46666667 0.066666667 0
0.5 0.066666667 0
0.53333333 0.066666667 0
0.56666667 0.066666667 0
0.6 0.066666667 0
0.63333333 0.066666667 0
0.66666667 0.066666667 0
0.7 0.066666667 0
0.73333333 0.066666667 0
0.76666667 0.066666667 0
0.8 0.066666667 0
0.83333333 0.066666667 0
0.86666667 0.066666667 0
0.9 0.066666667 0
0.93333333 0.066666667 0
0.96666667 0.066666667 0
1 0.066666667 0
0 0.1 0
0.033333333 0.1 0
0.066666667 0.1 0
0.1 0.1 0
0.13333333 0.1 0
0.16666667 0.1 0
0.2 0.1 0
0.23333333 0.1 0
0.26666667 0.1 0
0.3 0.1 0
0.33333333 0.1 0
0.36666667 0.1 0
0.4 0.1 0
0.43333333 0.1 0
0.46666667 0.1 0
0.5 0.1 0
0.53333333 0.1 0
0.56666667 0.1 0
0.6 0.1 0
0.63333333 0.1 0
0.66666667 0.1 0
0.7 0.1 0
0.73333333 0.1 0
0.76666667 0.1 0
0.8 0.1 0
0.83333333 0.1 0
0.86666667 0.1 0
0.9 0.1 0
0.93333333 0.1 0
0.96666667 0.1 0
1 0.1 0
0 0.13333333 0
0.033333333 0.13333333 0
0.066666667 0.13333333 0
0.1 0.13333333 0
0.13333333 0.13333333 0
0.16666667 0.13333333 0
0.2 0.13333333 0
0.23333333 0.13333333 0
0.26666667 0.13333333 0
0.3 0.13333333 0
0.33333333 0.13333333 0
0.36666667 0.13333333 0
0.4 0.13333333 0
0.43333333 0.13333333 0
0.46666667 0.13333333 0
0.5 0.13333333 0
0.53333333 0.13333333 0
0.56666667 0.13333333 0
0.6 0.13333333 0
0.63333333 0.13333333 0
0.66666667 0.13333333 0
0.7 0.13333333 0
0.73333333 0.13333333 0
0.76666667 0.13333333 0
0.8 0.13333333 0
0.83333333 0.13333333 0
0.86666667 0.13333333 0
0.9 0.13333333 0
0.93333333 0.13333333 0
0.96666667 0.13333333 0
1 0.13333333 0
0 0.16666667 0
0.033333333 0.16666667 0
0.066666667 0.16666667 0
0.1 0.16666667 0
0.13333333 0.16666667 0
0.16666667 0.16666667 0
0.2 0.16666667 0
0.23333333 0.16666667 0
0.26666667 0.16666667 0
0.3 0.16666667 0
0.33333333 0.16666667 0
0.36666667 0.16666667 0
0.4 0.16666667 0
0.43333333 0.16666667 0
0.46666667 0.16666667 0
0.5 0.16666667 0
0.53333333 0.16666667 0
0.56666667 0.16666667 0
0.6 0.16666667 0
0.63333333 0.16666667 0
0.66666667 0.16666667 0
0.7 0.16666667 0
0.73333333 0.16666667 0
0.76666667 0.16666667 0
0.8 0.16666667 0
0.83333333 0.16666667 0
0.86666667 0.16666667 0
0.9 0.16666667 0
0.93333333 0.16666667 0
0.96666667 0.16666667 0
1 0.16666667 0
0 0.2 0
0.033333333 0.2 0
0.066666667 0.2 0
0.1 0.2 0
0.13333333 0.2 0
0.16666667 0.2 0
0.2 0.2 0
0.23333333 0.2 0
0.26666667 0.2 0
0.3 0.2 0
0.33333333 0.2 0
0.36666667 0.2 0
0.4 0.2 0
0.43333333 0.2 0
0.46666667 0.2 0
0.5 0.2 0
0.53333333 0.2 0
0.56666667 0.2 0
0.6 0.2 0
0.63333333 0.2 0
0.66666667 0.2 0
0.7 0.2 0
0.73333333 0.2 0
0.76666667 0.2 0
0.8 0.2 0
0.83333333 0.2 0
0.86666667 0.2 0
0.9 0.2 0
0.93333333 0.2 0
0.96666667 0.2 0
1 0.2 0
0 0.23333333 0
0.033333333 0.23333333 0
0.066666667 0.23333333 0
0.1 0.23333333 0
0.13333333 0.23333333 0
0.16666667 0.23333333 0
0.2 0.23333333 0
0.23333333 0.23333333 0
0.26666667 0.23333333 0
0.3 0.23333333 0
0.33333333 0.23333333 0
0.36666667 0.23333333 0
0.4 0.23333333 0
0.43333333 0.23333333 0
0.46666667 0.23333333 0
0.5 0.23333333 0
0.53333333 0.23333333 0
0.56666667 0.23333333 0
0.6 0.23333333 0
0.63333333 0.23333333 0
0.66666667 0.23333333 0
0.7 0.23333333 0
0.73333333 0.23333333 0
0.76666667 0.23333333 0
0.8 0.23333333 0
0.83333333 0.23333333 0
0.86666667 0.23333333 0
0.9 0.23333333 0
0.93333333 0.23333333 0
0.96666667 0.23333333 0
1 0.23333333 0
0 0.26666667 0
0.033333333 0.26666667 0
0.066666667 0.26666667 0
0.1 0.26666667 0
0.13333333 0.26666667 0
0.16666667 0.26666667 0
0.2 0.26666667 0
0.23333333 0.26666667 0
0.26666667 0.26666667 0
0.3 0.26666667 0
0.33333333 0.26666667 0
0.36666667 0.26666667 0
0.4 0.26666667 0
0.43333333 0.26666667 0
0.46666667 0.26666667 0
0.5 0.26666667 0
0.53333333 0.26666667 0
0.56666667 0.26666667 0
0.6 0.26666667 0
0.63333333 0.26666667 0
0.66666667 0.26666667 0
0.7 0.26666667 0
0.73333333 0.26666667 0
0.76666667 0.26666667 0
0.8 0.26666667 0
0.83333333 0.26666667 0
0.86666667 0.26666667 0
0.9 0.26666667 0
0.93333333 0.26666667 0
0.96666667 0.26666667 0
1 0.26666667 0
0 0.3 0
0.033333333 0.3 0
0.066666667 0.3 0
0.1 0.3 0
0.13333333 0.3 0
0.16666667 0.3 0
0.2 0.3 0
0.23333333 0.3 0
0.26666667 0.3 0
0.3 0.3 0
0.33333333 0.3 0
0.36666667 0.3 0
0.4 0.3 0
0.43333333 0.3 0
0.46666667 0.3 0
0.5 0.3 0
0.53333333 0.3 0
0.56666667 0.3 0
0.6 0.3 0
0.63333333 0.3 0
0.66666667 0.3 0
0.7 0.3 0
0.73333333 0.3 0
0.76666667 0.3 0
0.8 0.3 0
0.83333333 0.3 0
0.86666667 0.3 0
0.9 0.3 0
0.93333333 0.3 0
0.96666667 0.3 0
1 0.3 0
0 0.33333333 0
0.033333333 0.33333333 0
0.066666667 0.33333333 0
0.1 0.33333333 0
0.13333333 0.33333333 0
0.16666667 0.33333333 0
0.2 0.33333333 0
0.23333333 0.33333333 0
0.26666667 0.33333333 0
0.3 0.33333333 0
0.33333333 0.33333333 0
0.36666667 0.33333333 0
0.4 0.33333333 0
0.43333333 0.33333333 0
0.46666667 0.33333333 0
0.5 0.33333333 0
0.53333333 0.33333333 0
0.56666667 0.33333333 0
0.6 0.33333333 0
0.63333333 0.33333333 0
0.66666667 0.33333333 0
0.7 0.33333333 0
0.73333333 0.33333333 0
0.76666667 0.33333333 0
0.8 0.33333333 0
0.83333333 0.33333333 0
0.86666667 0.33333333 0
0.9 0.33333333 0
0.93333333 0.33333333 0
0.96666667 0.33333333 0
1 0.33333333 0
0 0.36666667 0
0.033333333 0.36666667 0
0.066666667 0.36666667 0
0.1 0.36666667 0
0.13333333 0.36666667 0
0.16666667 0.36666667 0
0.2 0.36666667 0
0.23333333 0.36666667 0
0.26666667 0.36666667 0
0.3 0.36666667 0
0.33333333 0.36666667 0
0.36666667 0.36666667 0
0.4 0.36666667 0
0.43333333 0.36666667 0
0.46666667 0.36666667 0
0.5 0.36666667 0
0.53333333 0.36666667 0
0.56666667 0.36666667 0
0.6 0.36666667 0
0.63333333 0.36666667 0
0.66666667 0.36666667 0
0.7 0.36666667 0
0.73333333 0.36666667 0
0.76666667 0.36666667 0
0.8 0.36666667 0
0.83333333 0.36666667 0
0.86666667 0.36666667 0
0.9 0.36666667 0
0.93333333 0.36666667 0
0.96666667 0.36666667 0
1 0.36666667 0
0 0.4 0
0.033333333 0.4 0
0.066666667 0.4 0
0.1 0.4 0
0.13333333 0.4 0
0.16666667 0.4 0
0.2 0.4 0
0.23333333 0.4 0
0.26666667 0.4 0
0.3 0.4 0
0.33333333 0.4 0
0.36666667 0.4 0
0.4 0.4 0
0.43333333 0.4 0
0.46666667 0.4 0
0.5 0.4 0
0.53333333 0.4 0
0.56666667 0.4 0
0.6 0.4 0
0.63333333 0.4 0
0.66666667 0.4 0
0.7 0.4 0
0.73333333 0.4 0
0.76666667 0.4 0
0.8 0.4 0
0.83333333 0.4 0
0.86666667 0.4 0
0.9 0.4 0
0.93333333 0.4 0
0.96666667 0.4 0
1 0.4 0
0 0.43333333 0
0.033333333 0.43333333 0
0.066666667 0.43333333 0
0.1 0.43333333 0
0.13333333 0.43333333 0
0.16666667 0.43333333 0
0.2 0.43333333 0
0.23333333 0.43333333 0
0.26666667 0.43333333 0
0.3 0.43333333 0
0.33333333 0.43333333 0
0.36666667 0.43333333 0
0.4 0.43333333 0
0.43333333 0.43333333 0
0.46666667 0.43333333 0
0.5 0.43333333 0
0.53333333 0.43333333 0
0.56666667 0.43333333 0
0.6 0.43333333 0
0.63333333 0.43333333 0
0.66666667 0.43333333 0
0.7 0.43333333 0
0.73333333 0.43333333 0
0.76666667 0.43333333 0
0.8 0.43333333 0
0.83333333 0.43333333 0
0.86666667 0.43333333 0
0.9 0.43333333 0
0.93333333 0.43333333 0
0.96666667 0.43333333 0
1 0.43333333 0
0 0.46666667 0
0.033333333 0.46666667 0
0.066666667 0.46666667 0
0.1 0.46666667 0
0.13333333 0.46666667 0
0.16666667 0.46666667 0
0.2 0.46666667 0
0.23333333 0.46666667 0
0.26666667 0.46666667 0
0.3 0.46666667 0
0.33333333 0.46666667 0
0.36666667 0.46666667 0
0.4 0.46666667 0
0.43333333 0.46666667 0
0.46666667 0.46666667 0
0.5 0.46666667 0
0.53333333 0.46666667 0
0.56666667 0.46666667 0
0.6 0.46666667 0
0.63333333 0.46666667 0
0.66666667 0.46666667 0
0.7 0.46666667 0
0.73333333 0.46666667 0
0.76666667 0.46666667 0
0.8 0.46666667 0
0.83333333 0.46666667 0
0.86666667 0.46666667 0
0.9 0.46666667 0
0.93333333 0.46666667 0
0.96666667 0.46666667 0
1 0.46666667 0
0 0.5 0
0.033333333 0.5 0
0.066666667 0.5 0
0.1 0.5 0
0.13333333 0.5 0
0.16666667 0.5 0
0.2 0.5 0
0.23333333 0.5 0
0.26666667 0.5 0
0.3 0.5 0
0.33333333 0.5 0
0.36666667 0.5 0
0.4 0.5 0
0.43333333 0.5 0
0.46666667 0.5 0
0.5 0.5 0
0.53333333 0.5 0
0.56666667 0.5 0
0.6 0.5 0
0.63333333 0.5 0
0.66666667 0.5 0
0.7 0.5 0
0.73333333 0.5 0
0.76666667 0.5 0
0.8 0.5 0
0.83333333 0.5 0
0.86666667 0.5 0
0.9 0.5 0
0.93333333 0.5 0
0.96666667 0.5 0
1 0.5 0
0 0.53333333 0
0.033333333 0.53333333 0
0.066666667 0.53333333 0
0.1 0.53333333 0
0.13333333 0.53333333 0
0.16666667 0.53333333 0
0.2 0.53333333 0
0.23333333 0.53333333 0
0.26666667 0.53333333 0
0.3 0.53333333 0
0.33333333 0.53333333 0
0.36666667 0.53333333 0
0.4 0.53333333 0
0.43333333 0.53333333 0
0.46666667 0.53333333 0
0.5 0.53333333 0
0.53333333 0.53333333 0
0.56666667 0.53333333 0
0.6 0.53333333 0
0.63333333 0.53333333 0
0.66666667 0.53333333 0
0.7 0.53333333 0
0.73333333 0.53333333 0
0.76666667 0.53333333 0
0.8 0.53333333 0
[...]
CELL_DATA 1920
Scalars  Label int 1
LOOKUP_TABLE FreeFempp_table
0
0
0
0
0
0
0
0
0
0
0
0
0
0
0
0
0
0
0
0
0
0
0
0
0
0
0
0
0
0
0
0
0
0
0
0
0
0
0
0
0
0
0
0
0
0
0
0
0
0
0
0
0
0
0
0
0
0
0
0
0
0
0
0
0
0
0
0
0
0
0
0
0
0
0
0
0
0
0
0
0
0
0
0
0
0
0
0
0
0
0
0
0
0
0
0
0
0
0
0
0
0
0
0
0
0
0
0
0
0
0
0
0
0
0
0
0
0
0
0
0
0
0
0
0
0
0
0
0
0
0
0
0
0
0
0
0
0
0
0
0
0
0
0
0
0
0
0
0
0
0
0
0
0
0
0
0
0
0
0
0
0
0
0
0
0
0
0
0
0
0
0
0
0
0
0
0
0
0
0
0
0
0
0
0
0
0
0
0
0
0
0
0
0
0
0
0
0
0
0
0
0
0
0
0
0
0
0
0
0
0
0
0
0
0
0
0
0
0
0
0
0
0
0
0
0
0
0
0
0
0
0
0
0
0
0
0
0
0
0
0
0
0
0
0
0
0
0
0
0
0
0
0
0
0
0
0
0
0
0
0
0
0
0
0
0
0
0
0
0
0
0
0
0
0
0
0
0
0
0
0
0
0
0
0
0
0
0
0
0
0
0
0
0
0
0
0
0
0
0
0
0
0
0
0
0
0
0
0
0
0
0
0
0
0
0
0
0
0
0
0
0
0
0
0
0
0
0
0
0
0
0
0
0
0
0
0
0
0
0
0
0
0
0
0
0
0
0
0
0
0
0
0
0
0
0
0
0
0
0
0
0
0
0
0
0
0
0
0
0
0
0
0
0
0
0
0
0
0
0
0
0
0
0
0
0
0
0
0
0
0
0
0
0
0
0
0
0
0
0
0
0
0
0
0
0
0
0
0
0
0
0
0
0
0
0
0
0
0
0
0
0
0
0
0
0
0
0
0
0
0
0
0
0
0
0
0
0
0
0
0
0
0
0
0
0
0
0
0
0
0
0
0
0
0
0
0
0
0
0
0
0
0
0
0
0
0
0
0
0
0
0
0
0
0
0
0
0
0
0
0
0
0
0
0
0
0
0
0
0
0
0
0
0
0
0
0
0
0
0
0
0
0
0
0
0
0
0
0
0
0
0
0
0
0
0
0
0
0
0
0
0
0
0
0
0
0
0
0
0
0
0
0
0
0
0
0
0
0
0
0
0
0
0
0
0
0
0
0
0
0
0
0
0
0
0
0
0
0
0
0
0
0
0
0
0
0
0
0
0
0
0
0
0
0
0
0
0
0
0
0
0
0
0
0
0
0
0
0
0
0
0
0
0
0
0
0
0
0
0
0
0
0
0
0
0
0
0
0
0
0
0
0
0
0
0
0
0
0
0
0
0
0
0
0
0
0
0
0
0
0
0
0
0
0
0
0
0
0
0
0
0
0
0
0
0
0
0
0
0
0
0
0
0
0
0
0
0
0
0
0
0
0
0
0
0
0
0
0
0
0
0
0
0
0
0
0
0
0
0
0
0
0
0
0
0
0
0
0
0
0
0
0
0
0
0
0
0
0
0
0
0
0
0
0
0
0
0
0
0
0
0
0
0
0
0
0
0
0
0
0
0
0
0
0
0
0
0
0
0
0
0
0
0
0
0
0
0
0
0
0
0
0
0
0
0
0
0
0
0
0
0
0
0
0
0
0
0
0
0
0
0
0
0
0
0
0
0
0
0
0
0
0
0
0
0
0
0
0
0
0
0
0
0
0
0
0
0
0
0
0
0
0
0
0
0
0
0
0
0
0
0
0
0
0
0
0
0
0
0
0
0
0
0
0
0
0
0
0
0
0
0
0
0
0
0
0
0
0
0
0
0
0
0
0
0
0
0
0
0
0
0
0
0
0
0
0
0
0
0
0
0
0
0
0
0
0
0
0
0
0
0
0
0
0
0
0
0
0
0
0
0
0
0
0
0
0
0
0
0
0
0
0
0
0
0
0
0
0
0
0
0
0
0
0
0
0
0
0
0
0
0
0
0
0
0
0
0
0
0
0
0
0
0
0
0
0
0
0
0
0
0
0
0
0
0
0
0
0
0
0
0
0
0
0
0
0
0
0
0
0
0
0
0
0
0
0
0
0
0
0
0
0
0
0
0
0
0
0
0
0
0
0
0
0
0
0
0
0
0
0
0
0
0
0
0
0
0
0
0
0
0
0
0
0
0
0
0
0
0
0
0
0
0
0
0
0
0
0
0
0
0
0
0
0
0
0
0
0
0
0
0
0
0
0
0
0
0
0
0
0
0
0
0
0
0
0
0
0
0
0
0
0
0
0
0
0
0
0
0
0
0
0
0
0
0
0
0
0
0
0
0
0
0
0
0
0
0
0
0
0
0
0
0
0
0
0
0
0
0
0
0
0
0
0
0
0
0
0
0
0
0
0
0
0
0
0
0
0
0
0
0
0
0
0
0
0
0
0
0
0
0
0
0
0
0
0
0
0
0
0
0
0
0
0
0
0
0
0
0
0
0
0
0
0
0
0
0
0
0
0
0
0
0
0
0
0
0
0
0
0
0
0
0
0
0
0
0
0
0
0
0
0
0
0
0
0
0
0
0
0
0
0
0
0
0
0
0
0
0
0
0
0
0
0
0
0
0
0
0
0
0
0
0
0
0
0
0
0
0
0
0
0
0
0
0
0
0
0
0
0
0
0
0
0
0
0
0
0
0
0
0
0
0
0
0
0
0
0
0
0
0
0
0
0
0
0
0
0
0
0
0
0
0
0
0
0
0
0
0
0
0
0
0
0
0
0
0
0
0
0
0
0
0
0
0
0
0
0
0
0
0
0
0
0
0
0
0
0
0
0
0
0
0
0
0
0
0
0
0
0
0
0
0
0
0
0
0
0
0
0
0
0
0
0
0
0
0
0
0
0
0
0
0
0
0
0
0
0
0
0
0
0
0
0
0
0
0
0
0
0
0
0
0
0
0
0
0
0
0
0
0
0
0
0
0
0
0
0
0
0
0
0
0
0
0
0
0
0
0
0
0
0
0
0
0
0
0
0
0
0
0
0
0
0
0
0
0
0
0
0
0
0
0
0
0
0
0
0
0
0
0
0
0
0
0
0
0
0
0
0
0
0
0
0
0
0
0
0
0
0
0
0
0
0
0
0
0
0
0
0
0
0
0
0
0
0
0
0
0
0
0
0
0
0
0
0
0
0
0
0
0
0
0
0
0
0
0
0
0
0
0
0
0
0
0
0
0
0
0
0
0
0
0
0
0
0
0
0
0
0
0
0
0
0
0
0
0
0
0
0
0
0
0
0
0
0
0
0
0
0
0
0
0
0
0
0
0
0
0
0
0
0
0
0
0
0
0
0
0
0
0
0
0
0
0
0
0
0
0
0
0
0
0
0
0
0
0
0
0
0
0
0
0
0
0
0
0
0
0
0
0
0
0
0
0
0
0
0
0
0
0
0
0
0
0
0
0
0
0
0
0
0
0
0
0
0
0
0
0
0
0
0
0
0
0
0
0
0
0
0
0
0
0
0
0
0
0
0
0
0
0
0
0
0
0
0
0
0
0
0
0
0
0
0
0
0
0
0
0
0
0
0
0
0
0
0
0
0
0
0
0
0
0
0
0
0
0
0
0
0
0
0
0
0
0
0
0
0
0
0
0
0
0
0
0
0
0
0
0
0
0
0
0
0
0
0
0
0
0
0
0
0
0
0
0
0
0
0
0
0
0
0
0
0
0
0
0
0
0
0
0
0
0
0
0
0
0
0
0
0
0
0
0
0
0
0
0
0
0
0
0
0
0
0
0
0
0
0
0
0
0
0
0
0
0
0
0
0
0
0
0
0
0
0
0
0
0
0
0
0
0
0
0
0
0
0
0
0
0
0
0
0
0
0
0
0
0
0
0
0
0
0
0
0
0
0
0
0
0
0
0
0
0
0
0
0
0
0
0
0
0
0
0
0
0
0
0
0
0
0
0
0
0
0
0
0
0
0
0
0
0
0
0
0
0
0
0
0
0
0
0
0
0
0
0
0
0
0
0
1
1
1
1
1
1
1
1
1
1
1
1
1
1
1
1
1
1
1
1
1
1
1
1
1
1
1
1
1
1
2
2
2
2
2
2
2
2
2
2
2
2
2
2
2
2
2
2
2
2
2
2
2
2
2
2
2
2
2
2
3
3
3
3
3
3
3
3
3
3
3
3
3
3
3
3
3
3
3
3
3
3
3
3
3
3
3
3
3
3
4
4
4
4
4
4
4
4
4
4
4
4
4
4
4
4
4
4
4
4
4
4
4
4
4
4
4
4
4
4

LOOKUP_TABLE FreeFempp_table 5
1.00000000 0.00000000 0.00000000 1.00000000
1.00000000 1.00000000 0.00000000 1.00000000
1.00000000 0.00000000 1.00000000 1.00000000
0.00000000 1.00000000 0.00000000 1.00000000
0.00000000 1.00000000 1.00000000 1.00000000

POINT_DATA 961
FIELD FieldData 1
Density 1 961 float
4.07757849e-01 4.68755394e-01 4.87768263e-01 4.89859968e-01 4.67148095e-01 4.64759976e-01 4.87984151e-01 4.89208490e-01 4.70222265e-01 4.52866763e-01 4.43229496e-01 4.38763857e-01 4.29668218e-01 4.11855251e-01 3.89584154e-01 3.74132723e-01 3.71204823e-01 3.78286749e-01 3.87967855e-01 3.96845728e-01 4.03832883e-01 3.98551136e-01 4.14578676e-01 5.49492478e-01 7.37230659e-01 7.28139639e-01 4.53460425e-01 1.22245140e-01 5.69369942e-02 1.55160755e-01 3.50429803e-01 1.15353003e-01 2.75888473e-01 3.31802547e-01 3.41949880e-01 3.00893962e-01 2.84111500e-01 3.37933540e-01 3.51619035e-01 3.09078097e-01 2.69836843e-01 2.50944793e-01 2.53166914e-01 2.61991560e-01 2.69293934e-01 2.69837469e-01 2.70945668e-01 2.81425416e-01 2.98847139e-01 3.15825284e-01 3.32578868e-01 3.56100053e-01 3.71172607e-01 3.84198189e-01 5.15015244e-01 7.57955432e-01 7.80648410e-01 4.64527965e-01 9.10125077e-02 3.24165374e-02 1.04050882e-01 3.25382918e-01 2.25671865e-02 2.79808287e-02 4.31167074e-02 4.37816568e-02 3.91493589e-02 3.46391834e-02 4.12833914e-02 4.72926162e-02 4.31228727e-02 3.67827229e-02 3.55111696e-02 4.15822566e-02 5.60756214e-02 7.70881474e-02 9.67117101e-02 1.13809161e-01 1.36916369e-01 1.70742288e-01 2.08690405e-01 2.49693766e-01 2.97713727e-01 3.37153316e-01 3.62334102e-01 4.74058807e-01 7.21543789e-01 7.90466189e-01 5.03366172e-01 8.55105743e-02 1.82872508e-02 8.24150741e-02 3.08737814e-01 1.69289976e-01 6.49931803e-02 4.37065512e-02 4.23390083e-02 4.17814702e-02 4.24686000e-02 4.48857993e-02 4.10491601e-02 2.43593045e-02 7.88243487e-03 4.34801495e-03 5.55828214e-03 7.94823281e-03 1.22063421e-02 1.86690725e-02 2.76951902e-02 4.22549658e-02 6.60561845e-02 9.98229310e-02 1.43011987e-01 1.95991322e-01 2.46910498e-01 2.92832971e-01 3.95545959e-01 6.45023525e-01 8.05141687e-01 6.31968081e-01 1.28787145e-01 1.53540270e-02 6.76719621e-02 3.09009492e-01 4.16158199e-01 3.44006628e-01 3.17196280e-01 3.25011671e-01 3.23891759e-01 3.23912382e-01 3.31655234e-01 3.16293806e-01 2.23235652e-01 1.03108160e-01 6.02934323e-02 4.06678878e-02 2.06996612e-02 9.50710103e-03 7.30221253e-03 8.02825391e-03 1.13531593e-02 1.90205351e-02 3.41409221e-02 6.10498264e-02 1.02550328e-01 1.50355145e-01 2.01571137e-01 2.89052904e-01 5.20516157e-01 8.08251083e-01 7.86153495e-01 3.29613715e-01 3.36026140e-02 6.16083853e-02 3.01517785e-01 5.47737122e-01 5.14737189e-01 4.92853820e-01 4.88767862e-01 4.80880111e-01 4.72908586e-01 4.69450235e-01 4.64139134e-01 4.40468311e-01 4.00127828e-01 3.61827284e-01 2.96546966e-01 1.71188787e-01 7.79953822e-02 3.75726521e-02 1.79911554e-02 1.03727058e-02 9.03026015e-03 1.19868368e-02 2.13678740e-02 4.25874963e-02 7.85393342e-02 1.25666454e-01 1.96323365e-01 3.77973914e-01 7.65667140e-01 8.65184128e-01 6.19476974e-01 7.23150894e-02 5.87873496e-02 2.88107008e-01 6.40434742e-01 6.50429070e-01 6.36911869e-01 6.23184204e-01 6.04998946e-01 5.83790541e-01 5.64693451e-01 5.49127877e-01 5.36385238e-01 5.28076351e-01 5.19451499e-01 4.97213572e-01 4.44978237e-01 3.61439019e-01 2.35433564e-01 1.15831457e-01 4.96331230e-02 2.14807466e-02 1.19245118e-02 1.10417819e-02 1.73671264e-02 3.52966860e-02 6.96255118e-02 1.26879543e-01 2.48440787e-01 6.22181952e-01 8.73775303e-01 7.13905215e-01 9.35628042e-02 4.69835289e-02 2.43700802e-01 6.49958134e-01 6.88964963e-01 6.94487453e-01 6.91144049e-01 6.80408537e-01 6.61130428e-01 6.39854550e-01 6.20651066e-01 6.05376422e-01 5.94735324e-01 5.86813986e-01 5.78735828e-01 5.68210185e-01 5.48687637e-01 4.96295094e-01 3.87035251e-01 2.27998093e-01 1.00179888e-01 3.94296832e-02 1.77427270e-02 1.29961967e-02 1.78900454e-02 3.50726359e-02 7.28570372e-02 1.41866073e-01 3.69368523e-01 8.44905555e-01 7.59722471e-01 1.00261919e-01 2.69076563e-02 1.34318128e-01 5.56725800e-01 5.88753343e-01 6.15779102e-01 6.41007066e-01 6.59215331e-01 6.63699746e-01 6.59597337e-01 6.51250362e-01 6.41899884e-01 6.33781970e-01 6.27847672e-01 6.24917150e-01 6.25997961e-01 6.28810167e-01 6.22915983e-01 5.86671770e-01 4.82184619e-01 3.01768243e-01 1.40167981e-01 5.53164147e-02 2.38534566e-02 1.66292675e-02 2.10252535e-02 3.84392925e-02 7.20747486e-02 1.95494890e-01 7.84488916e-01 7.91886032e-01 1.08294636e-01 1.39885684e-02 5.46929613e-02 4.06520784e-01 3.86097610e-01 4.12207365e-01 4.69404042e-01 5.33749521e-01 5.85943818e-01 6.19620442e-01 6.36726558e-01 6.42712772e-01 6.42982125e-01 6.41510844e-01 6.41700149e-01 6.46900833e-01 6.58291936e-01 6.71183884e-01 6.72547758e-01 6.36824965e-01 5.24754941e-01 3.32049817e-01 1.56238422e-01 6.34828210e-02 2.90982798e-02 2.03676540e-02 2.35792212e-02 3.77256982e-02 1.19145088e-01 6.97278023e-01 8.07411492e-01 1.16954595e-01 1.00862952e-02 2.68234853e-02 2.80383497e-01 2.21793279e-01 2.23220393e-01 2.76831627e-01 3.62130970e-01 4.58402097e-01 5.37750363e-01 5.88748038e-01 6.15858018e-01 6.28025949e-01 6.32659078e-01 6.35455906e-01 6.41344368e-01 6.53713286e-01 6.71874821e-01 6.88863695e-01 6.90049827e-01 6.49628818e-01 5.30710280e-01 3.30924183e-01 1.55661851e-01 6.70211837e-02 3.29015553e-02 2.58139949e-02 3.04693673e-02 8.94352421e-02 6.16213202e-01 8.12632799e-01 1.25790551e-01 9.68956668e-03 1.83056332e-02 1.96549162e-01 1.35795489e-01 1.26723468e-01 1.66093126e-01 2.41484389e-01 3.47512960e-01 4.53340679e-01 5.31242073e-01 5.77315092e-01 6.00700915e-01 6.11118495e-01 6.15934134e-01 6.20985985e-01 6.30762756e-01 6.47131979e-01 6.67502105e-01 6.83698893e-01 6.80646658e-01 6.31624222e-01 4.97189134e-01 2.94956267e-01 1.45909429e-01 7.04226717e-02 4.53511402e-02 4.21784185e-02 8.68012384e-02 5.78841925e-01 8.16238344e-01 1.33886665e-01 1.01830810e-02 1.51918856e-02 1.37676090e-01 8.82230774e-02 8.10425580e-02 1.17897369e-01 1.87379405e-01 2.88487494e-01 3.98996830e-01 4.87455755e-01 5.43141305e-01 5.72981477e-01 5.86924195e-01 5.92700839e-01 5.96191585e-01 6.02001369e-01 6.13083780e-01 6.29599571e-01 6.47744060e-01 6.58677280e-01 6.45831406e-01 5.78400970e-01 4.26775366e-01 2.50498682e-01 1.33317798e-01 7.13740364e-02 3.95690128e-02 7.71330521e-02 5.91351151e-01 8.21922541e-01 1.40151784e-01 1.07946228e-02 1.38298674e-02 9.38722566e-02 5.90223707e-02 5.71767427e-02 9.85470340e-02 1.73841819e-01 2.74660587e-01 3.81328344e-01 4.66989577e-01 5.21851838e-01 5.52006602e-01 5.66397429e-01 5.71836531e-01 5.73378682e-01 5.75015604e-01 5.79671025e-01 5.88682890e-01 6.01046622e-01 6.12496734e-01 6.13836646e-01 5.86915553e-01 5.01640141e-01 3.48705143e-01 1.91301420e-01 8.64014998e-02 3.97229977e-02 1.05168827e-01 6.57036066e-01 8.31312716e-01 1.43970534e-01 1.14432992e-02 1.33026140e-02 6.24914318e-02 4.08976600e-02 4.49671485e-02 9.60337073e-02 1.85087308e-01 2.91386217e-01 3.91416490e-01 4.66476411e-01 5.13350606e-01 5.39157152e-01 5.51480949e-01 5.55533886e-01 5.55044830e-01 5.53040564e-01 5.51919222e-01 5.53273082e-01 5.57614565e-01 5.63893855e-01 5.68293989e-01 5.61518669e-01 5.24320602e-01 4.31499839e-01 2.86543518e-01 1.49677634e-01 9.84654650e-02 2.77636230e-01 7.62101412e-01 8.40333104e-01 1.44880459e-01 1.21522835e-02 1.33707915e-02 4.27045338e-02 2.99718082e-02 3.99427451e-02 1.07284576e-01 2.15216935e-01 3.26534748e-01 4.16215390e-01 4.76944804e-01 5.12983322e-01 5.32467127e-01 5.41548073e-01 5.43824553e-01 5.41696906e-01 5.37208736e-01 5.32170296e-01 5.28154254e-01 5.26477098e-01 5.28124452e-01 5.32899916e-01 5.37198126e-01 5.30709326e-01 4.97170478e-01 4.28171396e-01 3.50470841e-01 3.49951684e-01 5.62897682e-01 8.48409414e-01 8.38491082e-01 1.42842576e-01 1.30191511e-02 1.39863882e-02 3.10643315e-02 2.34262235e-02 3.95394526e-02 1.31197527e-01 2.60114312e-01 3.68899792e-01 4.43861127e-01 4.89980072e-01 5.15864432e-01 5.29383242e-01 5.35358667e-01 5.36193490e-01 5.33314824e-01 5.28002143e-01 5.21576822e-01 5.15520096e-01 5.11588991e-01 5.11948884e-01 5.18737257e-01 5.32072425e-01 5.47060490e-01 5.54611027e-01 5.51527917e-01 5.55273116e-01 6.11000240e-01 7.51949310e-01 8.84069145e-01 8.18008304e-01 1.38282806e-01 1.41855450e-02 1.51472157e-02 2.40126215e-02 1.93098560e-02 4.23451029e-02 1.66191772e-01 3.12198520e-01 4.08694118e-01 4.66903776e-01 5.00744462e-01 5.18961728e-01 5.28093517e-01 5.31923950e-01 5.32181025e-01 5.29753923e-01 5.25456309e-01 5.20263314e-01 5.15501618e-01 5.13033926e-01 5.15490055e-01 5.26148438e-01 5.47221720e-01 5.76608241e-01 6.07582867e-01 6.37180090e-01 6.75409555e-01 7.38685787e-01 8.24037611e-01 8.83971274e-01 7.74473369e-01 1.30949378e-01 1.57104619e-02 1.68607440e-02 1.92904919e-02 1.65657476e-02 4.75650169e-02 2.10970491e-01 3.62002581e-01 4.40134525e-01 4.82999593e-01 5.07800341e-01 5.20981133e-01 5.27510285e-01 5.30448437e-01 5.31220376e-01 5.30498624e-01 5.28877079e-01 5.27121007e-01 5.26351631e-01 5.28230190e-01 5.35126448e-01 5.50165474e-01 5.76037288e-01 6.12011254e-01 6.52413964e-01 6.92783535e-01 7.37267137e-01 7.91202128e-01 8.45951557e-01 8.62281501e-01 6.96122825e-01 1.18932091e-01 1.75663885e-02 1.91728175e-02 1.56903975e-02 1.46136656e-02 5.39244823e-02 2.60040641e-01 4.03531879e-01 4.62105811e-01 4.92879659e-01 5.11308610e-01 5.21402717e-01 5.26825070e-01 5.30080378e-01 5.32427251e-01 5.34472883e-01 5.36738455e-01 5.39889097e-01 5.44829071e-01 5.52783012e-01 5.65302789e-01 5.84292352e-01 6.11516297e-01 6.46839976e-01 6.86550796e-01 7.26597250e-01 7.68166661e-01 8.12141895e-01 8.46638501e-01 8.20542812e-01 5.71583450e-01 1.01061240e-01 1.98317617e-02 2.22721118e-02 1.26022398e-02 1.30983954e-02 6.03066310e-02 3.04120332e-01 4.35088485e-01 4.76231605e-01 4.97891575e-01 5.11597037e-01 5.19848883e-01 5.25297701e-01 5.29884994e-01 5.34660995e-01 5.40179729e-01 5.46946526e-01 5.55584073e-01 5.66805363e-01 5.81324220e-01 5.99678040e-01 6.22142792e-01 6.48753464e-01 6.79016054e-01 7.11434662e-01 7.44889200e-01 7.80953467e-01 8.17588210e-01 8.34065497e-01 7.55891562e-01 4.15596753e-01 7.97176287e-02 2.28173118e-02 2.67921742e-02 9.78948455e-03 1.19465804e-02 6.71704710e-02 3.39191198e-01 4.57834691e-01 4.84576523e-01 4.98900652e-01 5.08806944e-01 5.16036868e-01 5.22345662e-01 5.29007554e-01 5.36746919e-01 5.46004236e-01 5.57253480e-01 5.71086943e-01 5.88077068e-01 6.08534992e-01 6.32192969e-01 6.58016443e-01 6.84407294e-01 7.09701598e-01 7.33004153e-01 7.56318092e-01 7.84892440e-01 8.13418329e-01 8.03280294e-01 6.58193648e-01 2.68686205e-01 5.95174320e-02 2.72189733e-02 3.45854387e-02 7.27103511e-03 1.15594696e-02 7.67965317e-02 3.66893232e-01 4.73794490e-01 4.88398790e-01 4.96320158e-01 5.03110111e-01 5.09945929e-01 5.17667711e-01 5.26790738e-01 5.37619889e-01 5.50416291e-01 5.65569222e-01 5.83610296e-01 6.05035841e-01 6.29998922e-01 6.57909513e-01 6.87159598e-01 7.15322137e-01 7.39761710e-01 7.58385122e-01 7.71250367e-01 7.79235661e-01 7.67369270e-01 6.89690471e-01 4.59601611e-01 1.54672101e-01 4.48830463e-02 3.48975658e-02 5.02089337e-02 5.05802175e-03 1.29897110e-02 9.38787013e-02 3.90687376e-01 4.84189361e-01 4.88045037e-01 4.90427405e-01 4.94902402e-01 5.01867831e-01 5.11221886e-01 5.22741079e-01 5.36313474e-01 5.51999390e-01 5.70052862e-01 5.90885937e-01 6.14945948e-01 6.42472684e-01 6.73088610e-01 7.05382168e-01 7.36909628e-01 7.64618754e-01 7.84558594e-01 7.88303971e-01 7.47286379e-01 6.06172502e-01 3.49874139e-01 1.52140558e-01 6.28417805e-02 3.74182947e-02 5.13621829e-02 8.40458348e-02 3.13411956e-03 1.80031750e-02 1.27253920e-01 4.13990229e-01 4.89180535e-01 4.83489633e-01 4.81669933e-01 4.84850287e-01 4.92306381e-01 5.03091455e-01 5.16428828e-01 5.31913757e-01 5.49450517e-01 5.69137454e-01 5.91197848e-01 6.15964890e-01 6.43827736e-01 6.74949646e-01 7.08716094e-01 7.43274391e-01 7.75465310e-01 7.99996734e-01 8.02899301e-01 7.31388211e-01 4.56838518e-01 1.49893463e-01 6.31438866e-02 4.82695997e-02 6.71134889e-02 1.14412531e-01 1.72699168e-01 1.87305885e-03 2.79778205e-02 1.89057633e-01 4.39110667e-01 4.88387018e-01 4.75123912e-01 4.70982909e-01 4.73869622e-01 4.81825560e-01 4.93357360e-01 5.07457137e-01 5.23632169e-01 5.41726112e-01 5.61704457e-01 5.83551705e-01 6.07339919e-01 6.33391559e-01 6.62287474e-01 6.94444716e-01 7.29283333e-01 7.64394522e-01 7.94700861e-01 8.08886528e-01 7.72773027e-01 5.89323163e-01 2.78622001e-01 1.77690834e-01 2.01999232e-01 2.79454529e-01 3.99353504e-01 4.59205568e-01 1.57366518e-03 4.00595367e-02 2.74339348e-01 4.63383913e-01 4.81713712e-01 4.64385182e-01 4.59891468e-01 4.63001221e-01 4.70931947e-01 4.82097447e-01 4.95601475e-01 5.11062145e-01 5.28367698e-01 5.47417045e-01 5.67972779e-01 5.89724958e-01 6.12562478e-01 6.36882663e-01 6.63624883e-01 6.93726480e-01 7.26968586e-01 7.60655463e-01 7.88352966e-01 7.97090888e-01 7.65401065e-01 7.04479456e-01 7.29420185e-01 8.16364706e-01 8.50691378e-01 8.52442205e-01 8.20005178e-01 1.56241446e-03 4.78131920e-02 3.40747774e-01 4.76347297e-01 4.70571399e-01 4.53641117e-01 4.50111985e-01 4.53205615e-01 4.60127741e-01 4.69627202e-01 4.81145948e-01 4.94533151e-01 5.09812236e-01 5.26929796e-01 5.45561075e-01 5.65080404e-01 5.84765434e-01 6.04201674e-01 6.23722434e-01 6.44602001e-01 6.68626785e-01 6.96796656e-01 7.27528989e-01 7.55343258e-01 7.73273885e-01 7.87919343e-01 8.22183251e-01 8.62236381e-01 8.83938670e-01 8.85173500e-01 8.54080379e-01 -2.20830878e-03 4.86637205e-02 3.69693190e-01 4.72852796e-01 4.58097041e-01 4.45071548e-01 4.42777067e-01 4.45114017e-01 4.49987829e-01 4.56709176e-01 4.65123922e-01 4.75360841e-01 4.87669587e-01 5.02214313e-01 5.18845558e-01 5.36934316e-01 5.55364132e-01 5.72743833e-01 5.87838054e-01 6.00109875e-01 6.10126376e-01 6.19418621e-01 6.29572451e-01 6.41012132e-01 6.52139544e-01 6.62797987e-01 6.77661121e-01 6.93790495e-01 7.15086818e-01 7.18863547e-01 6.92449450e-01 -1.75454584e-03 7.38157108e-02 4.44584608e-01 4.74904448e-01 4.56586391e-01 4.48624849e-01 4.47290868e-01 4.48326439e-01 4.50632423e-01 4.54037577e-01 4.58706290e-01 4.65002179e-01 4.73402113e-01 4.84354883e-01 4.98071581e-01 5.14275372e-01 5.31968534e-01 5.49302161e-01 5.63628018e-01 5.71763396e-01 5.70432425e-01 5.56930900e-01 5.30575156e-01 4.96033818e-01 4.66237724e-01 4.56091106e-01 4.68718052e-01 4.88744408e-01 5.24724305e-01 5.60161769e-01 5.92805266e-01 1.44330310e-02 9.86267999e-02 6.95797682e-01 5.44056118e-01 4.78948146e-01 4.74188536e-01 4.73660082e-01 4.74072516e-01 4.75026309e-01 4.76503998e-01 4.78700489e-01 4.81962442e-01 4.86724734e-01 4.93416488e-01 5.02325177e-01 5.13413310e-01 5.26104152e-01 5.39074421e-01 5.50102234e-01 5.56021094e-01 5.52856147e-01 5.36391556e-01 5.03991306e-01 4.59104508e-01 4.16599691e-01 3.97815198e-01 4.12690550e-01 4.46702272e-01 4.90682930e-01 5.52509010e-01 5.44132292e-01 
