# vtk DataFile Version 2.0
results/3_density.vtk, Created by Freefem++ 
ASCII
DATASET UNSTRUCTURED_GRID
POINTS 961 float
0 0 0
0.033333333 0 0
0.066666667 0 0
0.1 0 0
0.13333333 0 0
0.16666667 0 0
0.2 0 0
0.23333333 0 0
0.26666667 0 0
0.3 0 0
0.33333333 0 0
0.36666667 0 0
0.4 0 0
0.43333333 0 0
0.46666667 0 0
0.5 0 0
0.53333333 0 0
0.56666667 0 0
0.6 0 0
0.63333333 0 0
0.66666667 0 0
0.7 0 0
0.73333333 0 0
0.76666667 0 0
0.8 0 0
0.83333333 0 0
0.86666667 0 0
0.9 0 0
0.93333333 0 0
0.96666667 0 0
1 0 0
0 0.033333333 0
0.033333333 0.033333333 0
0.066666667 0.033333333 0
0.1 0.033333333 0
0.13333333 0.033333333 0
0.16666667 0.033333333 0
0.2 0.033333333 0
0.23333333 0.033333333 0
0.26666667 0.033333333 0
0.3 0.033333333 0
0.33333333 0.033333333 0
0.36666667 0.033333333 0
0.4 0.033333333 0
0.43333333 0.033333333 0
0.46666667 0.033333333 0
0.5 0.033333333 0
0.53333333 0.033333333 0
0.56666667 0.033333333 0
0.6 0.033333333 0
0.63333333 0.033333333 0
0.66666667 0.033333333 0
0.7 0.033333333 0
0.73333333 0.033333333 0
0.76666667 0.033333333 0
0.8 0.033333333 0
0.83333333 0.033333333 0
0.86666667 0.033333333 0
0.9 0.033333333 0
0.93333333 0.033333333 0
0.96666667 0.033333333 0
1 0.033333333 0
0 0.066666667 0
0.033333333 0.066666667 0
0.066666667 0.066666667 0
0.1 0.066666667 0
0.13333333 0.066666667 0
0.16666667 0.066666667 0
0.2 0.066666667 0
0.23333333 0.066666667 0
0.26666667 0.066666667 0
0.3 0.066666667 0
0.33333333 0.066666667 0
0.36666667 0.066666667 0
0.4 0.066666667 0
0.43333333 0.066666667 0
0.46666667 0.066666667 0
0.5 0.066666667 0
0.53333333 0.066666667 0
0.56666667 0.066666667 0
0.6 0.066666667 0
0.63333333 0.066666667 0
0.66666667 0.066666667 0
0.7 0.066666667 0
0.73333333 0.066666667 0
0.76666667 0.066666667 0
0.8 0.066666667 0
0.83333333 0.066666667 0
0.86666667 0.066666667 0
0.9 0.066666667 0
0.93333333 0.066666667 0
0.96666667 0.066666667 0
1 0.066666667 0
0 0.1 0
0.033333333 0.1 0
0.066666667 0.1 0
0.1 0.1 0
0.13333333 0.1 0
0.16666667 0.1 0
0.2 0.1 0
0.23333333 0.1 0
0.26666667 0.1 0
0.3 0.1 0
0.33333333 0.1 0
0.36666667 0.1 0
0.4 0.1 0
0.43333333 0.1 0
0.46666667 0.1 0
0.5 0.1 0
0.53333333 0.1 0
0.56666667 0.1 0
0.6 0.1 0
0.63333333 0.1 0
0.66666667 0.1 0
0.7 0.1 0
0.73333333 0.1 0
0.76666667 0.1 0
0.8 0.1 0
0.83333333 0.1 0
0.86666667 0.1 0
0.9 0.1 0
0.93333333 0.1 0
0.96666667 0.1 0
1 0.1 0
0 0.13333333 0
0.033333333 0.13333333 0
0.066666667 0.13333333 0
0.1 0.13333333 0
0.13333333 0.13333333 0
0.16666667 0.13333333 0
0.2 0.13333333 0
0.23333333 0.13333333 0
0.26666667 0.13333333 0
0.3 0.13333333 0
0.33333333 0.13333333 0
0.36666667 0.13333333 0
0.4 0.13333333 0
0.43333333 0.13333333 0
0.46666667 0.13333333 0
0.5 0.13333333 0
0.53333333 0.13333333 0
0.56666667 0.13333333 0
0.6 0.13333333 0
0.63333333 0.13333333 0
0.66666667 0.13333333 0
0.7 0.13333333 0
0.73333333 0.13333333 0
0.76666667 0.13333333 0
0.8 0.13333333 0
0.83333333 0.13333333 0
0.86666667 0.13333333 0
0.9 0.13333333 0
0.93333333 0.13333333 0
0.96666667 0.13333333 0
1 0.13333333 0
0 0.16666667 0
0.033333333 0.16666667 0
0.066666667 0.16666667 0
0.1 0.16666667 0
0.13333333 0.16666667 0
0.16666667 0.16666667 0
0.2 0.16666667 0
0.23333333 0.16666667 0
0.26666667 0.16666667 0
0.3 0.16666667 0
0.33333333 0.16666667 0
0.36666667 0.16666667 0
0.4 0.16666667 0
0.43333333 0.16666667 0
0.46666667 0.16666667 0
0.5 0.16666667 0
0.53333333 0.16666667 0
0.56666667 0.16666667 0
0.6 0.16666667 0
0.63333333 0.16666667 0
0.66666667 0.16666667 0
0.7 0.16666667 0
0.73333333 0.16666667 0
0.76666667 0.16666667 0
0.8 0.16666667 0
0.83333333 0.16666667 0
0.86666667 0.16666667 0
0.9 0.16666667 0
0.93333333 0.16666667 0
0.96666667 0.16666667 0
1 0.16666667 0
0 0.2 0
0.033333333 0.2 0
0.066666667 0.2 0
0.1 0.2 0
0.13333333 0.2 0
0.16666667 0.2 0
0.2 0.2 0
0.23333333 0.2 0
0.26666667 0.2 0
0.3 0.2 0
0.33333333 0.2 0
0.36666667 0.2 0
0.4 0.2 0
0.43333333 0.2 0
0.46666667 0.2 0
0.5 0.2 0
0.53333333 0.2 0
0.56666667 0.2 0
0.6 0.2 0
0.63333333 0.2 0
0.66666667 0.2 0
0.7 0.2 0
0.73333333 0.2 0
0.76666667 0.2 0
0.8 0.2 0
0.83333333 0.2 0
0.86666667 0.2 0
0.9 0.2 0
0.93333333 0.2 0
0.96666667 0.2 0
1 0.2 0
0 0.23333333 0
0.033333333 0.23333333 0
0.066666667 0.23333333 0
0.1 0.23333333 0
0.13333333 0.23333333 0
0.16666667 0.23333333 0
0.2 0.23333333 0
0.23333333 0.23333333 0
0.26666667 0.23333333 0
0.3 0.23333333 0
0.33333333 0.23333333 0
0.36666667 0.23333333 0
0.4 0.23333333 0
0.43333333 0.23333333 0
0.46666667 0.23333333 0
0.5 0.23333333 0
0.53333333 0.23333333 0
0.56666667 0.23333333 0
0.6 0.23333333 0
0.63333333 0.23333333 0
0.66666667 0.23333333 0
0.7 0.23333333 0
0.73333333 0.23333333 0
0.76666667 0.23333333 0
0.8 0.23333333 0
0.83333333 0.23333333 0
0.86666667 0.23333333 0
0.9 0.23333333 0
0.93333333 0.23333333 0
0.96666667 0.23333333 0
1 0.23333333 0
0 0.26666667 0
0.033333333 0.26666667 0
0.066666667 0.26666667 0
0.1 0.26666667 0
0.13333333 0.26666667 0
0.16666667 0.26666667 0
0.2 0.26666667 0
0.23333333 0.26666667 0
0.26666667 0.26666667 0
0.3 0.26666667 0
0.33333333 0.26666667 0
0.36666667 0.26666667 0
0.4 0.26666667 0
0.43333333 0.26666667 0
0.46666667 0.26666667 0
0.5 0.26666667 0
0.53333333 0.26666667 0
0.56666667 0.26666667 0
0.6 0.26666667 0
0.63333333 0.26666667 0
0.66666667 0.26666667 0
0.7 0.26666667 0
0.73333333 0.26666667 0
0.76666667 0.26666667 0
0.8 0.26666667 0
0.83333333 0.26666667 0
0.86666667 0.26666667 0
0.9 0.26666667 0
0.93333333 0.26666667 0
0.96666667 0.26666667 0
1 0.26666667 0
0 0.3 0
0.033333333 0.3 0
0.066666667 0.3 0
0.1 0.3 0
0.13333333 0.3 0
0.16666667 0.3 0
0.2 0.3 0
0.23333333 0.3 0
0.26666667 0.3 0
0.3 0.3 0
0.33333333 0.3 0
0.36666667 0.3 0
0.4 0.3 0
0.43333333 0.3 0
0.46666667 0.3 0
0.5 0.3 0
0.53333333 0.3 0
0.56666667 0.3 0
0.6 0.3 0
0.63333333 0.3 0
0.66666667 0.3 0
0.7 0.3 0
0.73333333 0.3 0
0.76666667 0.3 0
0.8 0.3 0
0.83333333 0.3 0
0.86666667 0.3 0
0.9 0.3 0
0.93333333 0.3 0
0.96666667 0.3 0
1 0.3 0
0 0.33333333 0
0.033333333 0.33333333 0
0.066666667 0.33333333 0
0.1 0.33333333 0
0.13333333 0.33333333 0
0.16666667 0.33333333 0
0.2 0.33333333 0
0.23333333 0.33333333 0
0.26666667 0.33333333 0
0.3 0.33333333 0
0.33333333 0.33333333 0
0.36666667 0.33333333 0
0.4 0.33333333 0
0.43333333 0.33333333 0
0.46666667 0.33333333 0
0.5 0.33333333 0
0.53333333 0.33333333 0
0.56666667 0.33333333 0
0.6 0.33333333 0
0.63333333 0.33333333 0
0.66666667 0.33333333 0
0.7 0.33333333 0
0.73333333 0.33333333 0
0.76666667 0.33333333 0
0.8 0.33333333 0
0.83333333 0.33333333 0
0.86666667 0.33333333 0
0.9 0.33333333 0
0.93333333 0.33333333 0
0.96666667 0.33333333 0
1 0.33333333 0
0 0.36666667 0
0.033333333 0.36666667 0
0.066666667 0.36666667 0
0.1 0.36666667 0
0.13333333 0.36666667 0
0.16666667 0.36666667 0
0.2 0.36666667 0
0.23333333 0.36666667 0
0.26666667 0.36666667 0
0.3 0.36666667 0
0.33333333 0.36666667 0
0.36666667 0.36666667 0
0.4 0.36666667 0
0.43333333 0.36666667 0
0.46666667 0.36666667 0
0.5 0.36666667 0
0.53333333 0.36666667 0
0.56666667 0.36666667 0
0.6 0.36666667 0
0.63333333 0.36666667 0
0.66666667 0.36666667 0
0.7 0.36666667 0
0.73333333 0.36666667 0
0.76666667 0.36666667 0
0.8 0.36666667 0
0.83333333 0.36666667 0
0.86666667 0.36666667 0
0.9 0.36666667 0
0.93333333 0.36666667 0
0.96666667 0.36666667 0
1 0.36666667 0
0 0.4 0
0.033333333 0.4 0
0.066666667 0.4 0
0.1 0.4 0
0.13333333 0.4 0
0.16666667 0.4 0
0.2 0.4 0
0.23333333 0.4 0
0.26666667 0.4 0
0.3 0.4 0
0.33333333 0.4 0
0.36666667 0.4 0
0.4 0.4 0
0.43333333 0.4 0
0.46666667 0.4 0
0.5 0.4 0
0.53333333 0.4 0
0.56666667 0.4 0
0.6 0.4 0
0.63333333 0.4 0
0.66666667 0.4 0
0.7 0.4 0
0.73333333 0.4 0
0.76666667 0.4 0
0.8 0.4 0
0.83333333 0.4 0
0.86666667 0.4 0
0.9 0.4 0
0.93333333 0.4 0
0.96666667 0.4 0
1 0.4 0
0 0.43333333 0
0.033333333 0.43333333 0
0.066666667 0.43333333 0
0.1 0.43333333 0
0.13333333 0.43333333 0
0.16666667 0.43333333 0
0.2 0.43333333 0
0.23333333 0.43333333 0
0.26666667 0.43333333 0
0.3 0.43333333 0
0.33333333 0.43333333 0
0.36666667 0.43333333 0
0.4 0.43333333 0
0.43333333 0.43333333 0
0.46666667 0.43333333 0
0.5 0.43333333 0
0.53333333 0.43333333 0
0.56666667 0.43333333 0
0.6 0.43333333 0
0.63333333 0.43333333 0
0.66666667 0.43333333 0
0.7 0.43333333 0
0.73333333 0.43333333 0
0.76666667 0.43333333 0
0.8 0.43333333 0
0.83333333 0.43333333 0
0.86666667 0.43333333 0
0.9 0.43333333 0
0.93333333 0.43333333 0
0.96666667 0.43333333 0
1 0.43333333 0
0 0.46666667 0
0.033333333 0.46666667 0
0.066666667 0.46666667 0
0.1 0.46666667 0
0.13333333 0.46666667 0
0.16666667 0.46666667 0
0.2 0.46666667 0
0.23333333 0.46666667 0
0.26666667 0.46666667 0
0.3 0.46666667 0
0.33333333 0.46666667 0
0.36666667 0.46666667 0
0.4 0.46666667 0
0.43333333 0.46666667 0
0.46666667 0.46666667 0
0.5 0.46666667 0
0.53333333 0.46666667 0
0.56666667 0.46666667 0
0.6 0.46666667 0
0.63333333 0.46666667 0
0.66666667 0.46666667 0
0.7 0.46666667 0
0.73333333 0.46666667 0
0.76666667 0.46666667 0
0.8 0.46666667 0
0.83333333 0.46666667 0
0.86666667 0.46666667 0
0.9 0.46666667 0
0.93333333 0.46666667 0
0.96666667 0.46666667 0
1 0.46666667 0
0 0.5 0
0.033333333 0.5 0
0.066666667 0.5 0
0.1 0.5 0
0.13333333 0.5 0
0.16666667 0.5 0
0.2 0.5 0
0.23333333 0.5 0
0.26666667 0.5 0
0.3 0.5 0
0.33333333 0.5 0
0.36666667 0.5 0
0.4 0.5 0
0.43333333 0.5 0
0.46666667 0.5 0
0.5 0.5 0
0.53333333 0.5 0
0.56666667 0.5 0
0.6 0.5 0
0.63333333 0.5 0
0.66666667 0.5 0
0.7 0.5 0
0.73333333 0.5 0
0.76666667 0.5 0
0.8 0.5 0
0.83333333 0.5 0
0.86666667 0.5 0
0.9 0.5 0
0.93333333 0.5 0
0.96666667 0.5 0
1 0.5 0
0 0.53333333 0
0.033333333 0.53333333 0
0.066666667 0.53333333 0
0.1 0.53333333 0
0.13333333 0.53333333 0
0.16666667 0.53333333 0
0.2 0.53333333 0
0.23333333 0.53333333 0
0.26666667 0.53333333 0
0.3 0.53333333 0
0.33333333 0.53333333 0
0.36666667 0.53333333 0
0.4 0.53333333 0
0.43333333 0.53333333 0
0.46666667 0.53333333 0
0.5 0.53333333 0
0.53333333 0.53333333 0
0.56666667 0.53333333 0
0.6 0.53333333 0
0.63333333 0.53333333 0
0.66666667 0.53333333 0
0.7 0.53333333 0
0.73333333 0.53333333 0
0.76666667 0.53333333 0
0.8 0.53333333 0
[...]
CELL_DATA 1920
Scalars  Label int 1
LOOKUP_TABLE FreeFempp_table
0
0
0
0
0
0
0
0
0
0
0
0
0
0
0
0
0
0
0
0
0
0
0
0
0
0
0
0
0
0
0
0
0
0
0
0
0
0
0
0
0
0
0
0
0
0
0
0
0
0
0
0
0
0
0
0
0
0
0
0
0
0
0
0
0
0
0
0
0
0
0
0
0
0
0
0
0
0
0
0
0
0
0
0
0
0
0
0
0
0
0
0
0
0
0
0
0
0
0
0
0
0
0
0
0
0
0
0
0
0
0
0
0
0
0
0
0
0
0
0
0
0
0
0
0
0
0
0
0
0
0
0
0
0
0
0
0
0
0
0
0
0
0
0
0
0
0
0
0
0
0
0
0
0
0
0
0
0
0
0
0
0
0
0
0
0
0
0
0
0
0
0
0
0
0
0
0
0
0
0
0
0
0
0
0
0
0
0
0
0
0
0
0
0
0
0
0
0
0
0
0
0
0
0
0
0
0
0
0
0
0
0
0
0
0
0
0
0
0
0
0
0
0
0
0
0
0
0
0
0
0
0
0
0
0
0
0
0
0
0
0
0
0
0
0
0
0
0
0
0
0
0
0
0
0
0
0
0
0
0
0
0
0
0
0
0
0
0
0
0
0
0
0
0
0
0
0
0
0
0
0
0
0
0
0
0
0
0
0
0
0
0
0
0
0
0
0
0
0
0
0
0
0
0
0
0
0
0
0
0
0
0
0
0
0
0
0
0
0
0
0
0
0
0
0
0
0
0
0
0
0
0
0
0
0
0
0
0
0
0
0
0
0
0
0
0
0
0
0
0
0
0
0
0
0
0
0
0
0
0
0
0
0
0
0
0
0
0
0
0
0
0
0
0
0
0
0
0
0
0
0
0
0
0
0
0
0
0
0
0
0
0
0
0
0
0
0
0
0
0
0
0
0
0
0
0
0
0
0
0
0
0
0
0
0
0
0
0
0
0
0
0
0
0
0
0
0
0
0
0
0
0
0
0
0
0
0
0
0
0
0
0
0
0
0
0
0
0
0
0
0
0
0
0
0
0
0
0
0
0
0
0
0
0
0
0
0
0
0
0
0
0
0
0
0
0
0
0
0
0
0
0
0
0
0
0
0
0
0
0
0
0
0
0
0
0
0
0
0
0
0
0
0
0
0
0
0
0
0
0
0
0
0
0
0
0
0
0
0
0
0
0
0
0
0
0
0
0
0
0
0
0
0
0
0
0
0
0
0
0
0
0
0
0
0
0
0
0
0
0
0
0
0
0
0
0
0
0
0
0
0
0
0
0
0
0
0
0
0
0
0
0
0
0
0
0
0
0
0
0
0
0
0
0
0
0
0
0
0
0
0
0
0
0
0
0
0
0
0
0
0
0
0
0
0
0
0
0
0
0
0
0
0
0
0
0
0
0
0
0
0
0
0
0
0
0
0
0
0
0
0
0
0
0
0
0
0
0
0
0
0
0
0
0
0
0
0
0
0
0
0
0
0
0
0
0
0
0
0
0
0
0
0
0
0
0
0
0
0
0
0
0
0
0
0
0
0
0
0
0
0
0
0
0
0
0
0
0
0
0
0
0
0
0
0
0
0
0
0
0
0
0
0
0
0
0
0
0
0
0
0
0
0
0
0
0
0
0
0
0
0
0
0
0
0
0
0
0
0
0
0
0
0
0
0
0
0
0
0
0
0
0
0
0
0
0
0
0
0
0
0
0
0
0
0
0
0
0
0
0
0
0
0
0
0
0
0
0
0
0
0
0
0
0
0
0
0
0
0
0
0
0
0
0
0
0
0
0
0
0
0
0
0
0
0
0
0
0
0
0
0
0
0
0
0
0
0
0
0
0
0
0
0
0
0
0
0
0
0
0
0
0
0
0
0
0
0
0
0
0
0
0
0
0
0
0
0
0
0
0
0
0
0
0
0
0
0
0
0
0
0
0
0
0
0
0
0
0
0
0
0
0
0
0
0
0
0
0
0
0
0
0
0
0
0
0
0
0
0
0
0
0
0
0
0
0
0
0
0
0
0
0
0
0
0
0
0
0
0
0
0
0
0
0
0
0
0
0
0
0
0
0
0
0
0
0
0
0
0
0
0
0
0
0
0
0
0
0
0
0
0
0
0
0
0
0
0
0
0
0
0
0
0
0
0
0
0
0
0
0
0
0
0
0
0
0
0
0
0
0
0
0
0
0
0
0
0
0
0
0
0
0
0
0
0
0
0
0
0
0
0
0
0
0
0
0
0
0
0
0
0
0
0
0
0
0
0
0
0
0
0
0
0
0
0
0
0
0
0
0
0
0
0
0
0
0
0
0
0
0
0
0
0
0
0
0
0
0
0
0
0
0
0
0
0
0
0
0
0
0
0
0
0
0
0
0
0
0
0
0
0
0
0
0
0
0
0
0
0
0
0
0
0
0
0
0
0
0
0
0
0
0
0
0
0
0
0
0
0
0
0
0
0
0
0
0
0
0
0
0
0
0
0
0
0
0
0
0
0
0
0
0
0
0
0
0
0
0
0
0
0
0
0
0
0
0
0
0
0
0
0
0
0
0
0
0
0
0
0
0
0
0
0
0
0
0
0
0
0
0
0
0
0
0
0
0
0
0
0
0
0
0
0
0
0
0
0
0
0
0
0
0
0
0
0
0
0
0
0
0
0
0
0
0
0
0
0
0
0
0
0
0
0
0
0
0
0
0
0
0
0
0
0
0
0
0
0
0
0
0
0
0
0
0
0
0
0
0
0
0
0
0
0
0
0
0
0
0
0
0
0
0
0
0
0
0
0
0
0
0
0
0
0
0
0
0
0
0
0
0
0
0
0
0
0
0
0
0
0
0
0
0
0
0
0
0
0
0
0
0
0
0
0
0
0
0
0
0
0
0
0
0
0
0
0
0
0
0
0
0
0
0
0
0
0
0
0
0
0
0
0
0
0
0
0
0
0
0
0
0
0
0
0
0
0
0
0
0
0
0
0
0
0
0
0
0
0
0
0
0
0
0
0
0
0
0
0
0
0
0
0
0
0
0
0
0
0
0
0
0
0
0
0
0
0
0
0
0
0
0
0
0
0
0
0
0
0
0
0
0
0
0
0
0
0
0
0
0
0
0
0
0
0
0
0
0
0
0
0
0
0
0
0
0
0
0
0
0
0
0
0
0
0
0
0
0
0
0
0
0
0
0
0
0
0
0
0
0
0
0
0
0
0
0
0
0
0
0
0
0
0
0
0
0
0
0
0
0
0
0
0
0
0
0
0
0
0
0
0
0
0
0
0
0
0
0
0
0
0
0
0
0
0
0
0
0
0
0
0
0
0
0
0
0
0
0
0
0
0
0
0
0
0
0
0
0
0
0
0
0
0
0
0
0
0
0
0
0
0
0
0
0
0
0
0
0
0
0
0
0
0
0
0
0
0
0
0
0
0
0
0
0
0
0
0
0
0
0
0
0
0
0
0
0
0
0
0
0
0
0
0
0
0
0
0
0
0
0
0
0
0
0
0
0
0
0
0
0
0
0
0
0
0
0
0
0
0
0
0
0
0
0
0
0
0
0
0
0
0
0
0
0
0
0
0
0
0
0
0
0
0
0
0
0
0
0
0
0
0
0
0
0
0
0
0
0
0
0
0
0
0
0
0
0
0
0
0
0
0
0
0
0
0
0
0
0
0
0
0
0
0
0
0
0
0
0
0
0
0
0
0
0
0
0
0
0
0
0
0
0
0
0
0
0
0
0
0
0
0
0
0
0
0
0
0
0
0
0
0
0
0
0
0
0
0
0
0
0
0
0
0
0
0
0
0
0
0
0
0
0
0
0
0
0
0
0
0
0
0
0
0
0
0
0
0
0
0
0
0
0
0
0
0
0
0
0
0
0
0
0
0
0
0
0
0
0
0
0
0
0
0
0
0
0
0
0
0
0
0
0
0
0
0
0
0
0
0
0
0
0
0
0
0
0
0
0
0
0
0
0
0
0
0
0
0
0
0
0
0
0
0
0
0
0
0
0
0
0
0
0
0
0
0
0
0
0
0
0
0
0
0
0
0
0
0
0
0
0
0
0
0
0
0
0
0
0
0
0
0
0
1
1
1
1
1
1
1
1
1
1
1
1
1
1
1
1
1
1
1
1
1
1
1
1
1
1
1
1
1
1
2
2
2
2
2
2
2
2
2
2
2
2
2
2
2
2
2
2
2
2
2
2
2
2
2
2
2
2
2
2
3
3
3
3
3
3
3
3
3
3
3
3
3
3
3
3
3
3
3
3
3
3
3
3
3
3
3
3
3
3
4
4
4
4
4
4
4
4
4
4
4
4
4
4
4
4
4
4
4
4
4
4
4
4
4
4
4
4
4
4

LOOKUP_TABLE FreeFempp_table 5
1.00000000 0.00000000 0.00000000 1.00000000
1.00000000 1.00000000 0.00000000 1.00000000
1.00000000 0.00000000 1.00000000 1.00000000
0.00000000 1.00000000 0.00000000 1.00000000
0.00000000 1.00000000 1.00000000 1.00000000

POINT_DATA 961
FIELD FieldData 1
Density 1 961 float
5.34746230e-01 4.92570043e-01 4.86134827e-01 4.85389382e-01 4.85136449e-01 4.85194623e-01 4.86521065e-01 4.77924913e-01 2.79782474e-01 2.37433631e-02 1.79159157e-02 1.50956258e-01 4.16757047e-01 4.82655525e-01 5.30059695e-01 6.46204889e-01 7.42911518e-01 7.19870985e-01 6.65236533e-01 6.46503627e-01 6.33393466e-01 6.17086709e-01 6.01811767e-01 5.87847650e-01 5.77777207e-01 5.70070028e-01 5.64894080e-01 5.61683536e-01 5.58471203e-01 5.60663939e-01 5.71264446e-01 3.41478795e-01 3.19161355e-01 3.11761647e-01 3.11433673e-01 3.11309069e-01 3.11297536e-01 3.11288297e-01 3.03750783e-01 2.10331425e-01 2.26585809e-02 8.84897634e-03 7.64378831e-02 3.60633612e-01 4.41031009e-01 4.76469547e-01 6.30461454e-01 7.71161616e-01 7.22890198e-01 6.18655026e-01 6.13860726e-01 6.31755710e-01 6.24531925e-01 6.07723713e-01 5.86228430e-01 5.70339978e-01 5.56308627e-01 5.47338724e-01 5.41973114e-01 5.37954748e-01 5.40114641e-01 5.57520151e-01 1.78313218e-02 1.97805464e-02 1.89153031e-02 1.89076643e-02 1.88856535e-02 1.88834723e-02 1.88932773e-02 1.87446587e-02 1.65883973e-02 5.10968734e-03 2.19289726e-03 2.06315350e-02 2.16592476e-01 3.03718537e-01 3.51937562e-01 5.31856537e-01 7.34239995e-01 4.24140155e-01 1.87599719e-01 2.06074715e-01 3.49728048e-01 4.24962789e-01 4.65451956e-01 5.18457413e-01 5.56046188e-01 5.39880633e-01 5.29198885e-01 5.21997809e-01 5.17248929e-01 5.20847917e-01 5.43226480e-01 2.47947164e-02 1.93387866e-02 1.86954495e-02 1.87827107e-02 1.88743938e-02 1.89991686e-02 1.91338994e-02 1.92504190e-02 1.92396641e-02 1.88970882e-02 2.05755327e-02 1.47944987e-02 1.47001548e-02 2.18098871e-02 3.90743613e-02 2.52828002e-01 5.15533566e-01 6.62036657e-01 1.85944065e-01 4.18365672e-02 3.35980803e-02 3.67482789e-02 4.80534658e-02 1.20011345e-01 3.22036326e-01 4.20469582e-01 4.96485323e-01 4.98360515e-01 4.94418204e-01 5.00680804e-01 5.29755473e-01 3.51381123e-01 3.02172691e-01 2.94491172e-01 2.96910018e-01 3.00163507e-01 3.03650469e-01 3.07047933e-01 3.10087025e-01 3.12516302e-01 3.14096779e-01 3.12163323e-01 2.39612907e-01 3.99851091e-02 2.16629095e-02 1.38775241e-02 1.43789714e-02 2.87349243e-02 8.87756869e-02 6.62115991e-01 1.62502453e-01 3.77020836e-02 1.76737718e-02 8.36123340e-03 1.00731710e-02 2.15827711e-02 4.58640009e-02 3.03368926e-01 4.60836649e-01 4.69811738e-01 4.79549468e-01 5.14621258e-01 4.83395815e-01 4.46785629e-01 4.34298038e-01 4.37048376e-01 4.40791547e-01 4.44691271e-01 4.48400289e-01 4.51643139e-01 4.54210818e-01 4.55990225e-01 4.56499994e-01 4.47775036e-01 3.62451166e-01 3.14922303e-01 2.41388559e-01 4.12114710e-02 1.79161113e-02 9.83331911e-03 7.43378475e-02 6.24196708e-01 3.75507385e-01 1.84142426e-01 7.46622905e-02 4.59318571e-02 3.30017544e-02 1.47120859e-02 3.46799754e-02 2.95510232e-01 4.42892581e-01 4.63513076e-01 5.02596915e-01 5.07545292e-01 4.69881356e-01 4.58309472e-01 4.60361451e-01 4.62585121e-01 4.64895964e-01 4.67101216e-01 4.69059497e-01 4.70683992e-01 4.71929908e-01 4.72721070e-01 4.72462565e-01 4.68610466e-01 4.71903056e-01 4.63924140e-01 3.72046560e-01 2.76565254e-01 1.01396337e-01 2.72372290e-02 7.15921745e-02 6.00257754e-01 6.95424914e-01 7.25991905e-01 6.95113480e-01 6.34089768e-01 2.89669514e-01 5.25617674e-02 3.74663994e-02 2.90253103e-01 4.48023736e-01 4.95237023e-01 5.24435043e-01 4.93062139e-01 4.85138208e-01 4.86923784e-01 4.88163501e-01 4.89539891e-01 4.90980804e-01 4.92416531e-01 4.93777871e-01 4.94960040e-01 4.95813638e-01 4.96234894e-01 4.96369749e-01 4.97275829e-01 4.96535152e-01 4.91353601e-01 4.87399966e-01 4.26083893e-01 2.80537277e-01 3.70956138e-02 2.97754537e-02 7.91685507e-02 4.54694450e-01 6.17030621e-01 6.79184139e-01 6.88011348e-01 6.75149083e-01 7.31798783e-02 3.79057862e-02 3.03964615e-01 4.68120486e-01 5.39528072e-01 5.14588058e-01 5.09173095e-01 5.10722101e-01 5.11645854e-01 5.12824774e-01 5.14195859e-01 5.15687168e-01 5.17186522e-01 5.18531859e-01 5.19559383e-01 5.20271659e-01 5.21007121e-01 5.22210002e-01 5.23623586e-01 5.25148809e-01 5.27269900e-01 5.25027573e-01 5.10966301e-01 3.35525036e-01 4.94942628e-02 1.91130769e-02 2.15903204e-02 3.75648700e-02 4.84568402e-02 7.04263225e-02 1.76272660e-01 5.34134507e-01 7.49424398e-02 3.78238149e-02 2.19107643e-01 5.52170038e-01 5.32859266e-01 5.29167593e-01 5.30560672e-01 5.31507075e-01 5.32811880e-01 5.34350157e-01 5.36003232e-01 5.37614107e-01 5.39015412e-01 5.40107906e-01 5.41005135e-01 5.42105794e-01 5.43846786e-01 5.46360254e-01 5.49797893e-01 5.54507196e-01 5.60407817e-01 5.67555249e-01 5.67019343e-01 4.77730662e-01 3.26180309e-01 4.62586097e-02 1.03393085e-02 8.74329451e-03 1.36031043e-02 3.12877707e-02 2.14990094e-01 6.70026243e-01 3.32953557e-02 1.40265711e-02 5.60772419e-01 5.45760512e-01 5.43142498e-01 5.44378877e-01 5.45389235e-01 5.46787977e-01 5.48371136e-01 5.49963772e-01 5.51379740e-01 5.52474022e-01 5.53220212e-01 5.53802490e-01 5.54618895e-01 5.56088924e-01 5.58481693e-01 5.62082648e-01 5.67286849e-01 5.74507415e-01 5.84601760e-01 5.99673271e-01 6.17592454e-01 6.31514311e-01 4.99599844e-01 1.29482120e-01 7.16369748e-02 6.27850965e-02 7.72229657e-02 2.22064525e-01 7.12503791e-01 5.08765578e-02 2.88741500e-03 5.63442469e-01 5.50743937e-01 5.48704505e-01 5.49866140e-01 5.50945759e-01 5.52334189e-01 5.53759873e-01 5.55008113e-01 5.55878937e-01 5.56245506e-01 5.56119859e-01 5.55701017e-01 5.55340707e-01 5.55403590e-01 5.56173086e-01 5.57933450e-01 5.61014891e-01 5.65812111e-01 5.73069572e-01 5.84377229e-01 6.01822913e-01 6.26804531e-01 6.60926104e-01 6.53792083e-01 6.45150065e-01 6.10878766e-01 6.00760996e-01 7.06787467e-01 8.19124162e-01 5.32808900e-02 2.23005703e-03 5.58483779e-01 5.45415699e-01 5.43630183e-01 5.45096457e-01 5.46551883e-01 5.48142195e-01 5.49510598e-01 5.50421298e-01 5.50676048e-01 5.50149620e-01 5.48858345e-01 5.46984732e-01 5.44823110e-01 5.42671323e-01 5.40769100e-01 5.39329827e-01 5.38559556e-01 5.38684011e-01 5.40067554e-01 5.43263376e-01 5.48618913e-01 5.55720091e-01 5.65849543e-01 5.85841119e-01 6.22970760e-01 6.25708044e-01 6.41553700e-01 7.61373580e-01 8.05035889e-01 5.10327145e-02 2.39779195e-03 5.44752479e-01 5.27985573e-01 5.26120782e-01 5.28700888e-01 5.31428516e-01 5.34148693e-01 5.36290824e-01 5.37517726e-01 5.37630677e-01 5.36526382e-01 5.34241259e-01 5.30963898e-01 5.26968360e-01 5.22522926e-01 5.17847240e-01 5.13131440e-01 5.08560956e-01 5.04357398e-01 5.00844121e-01 4.98419851e-01 4.97345805e-01 4.97681290e-01 4.99861687e-01 5.05578995e-01 5.20349801e-01 5.45029879e-01 6.09105229e-01 7.51688182e-01 7.49009311e-01 4.61752154e-02 2.82119121e-03 5.21724284e-01 4.97392356e-01 4.94836211e-01 4.99946982e-01 5.05741119e-01 5.11469305e-01 5.16104400e-01 5.19063294e-01 5.20098627e-01 5.19189537e-01 5.16498268e-01 5.12316406e-01 5.06978750e-01 5.00789464e-01 4.94006783e-01 4.86878991e-01 4.79698092e-01 4.72868979e-01 4.66982394e-01 4.62825179e-01 4.61330205e-01 4.63707209e-01 4.71782446e-01 4.87803549e-01 5.15556633e-01 5.65006614e-01 6.55173242e-01 7.65602112e-01 6.76531851e-01 4.21699174e-02 3.53266881e-03 4.89539236e-01 4.53402460e-01 4.48842436e-01 4.58604395e-01 4.70515996e-01 4.82334316e-01 4.92009789e-01 4.98576730e-01 5.01833141e-01 5.02018213e-01 4.99618113e-01 4.95181471e-01 4.89200205e-01 4.82072026e-01 4.74131912e-01 4.65725154e-01 4.57296193e-01 4.49486941e-01 4.43229616e-01 4.39790726e-01 4.40766126e-01 4.48137701e-01 4.64422375e-01 4.92780596e-01 5.38030565e-01 6.07664347e-01 6.99642658e-01 7.54229069e-01 5.57341814e-01 3.65623794e-02 4.26477194e-03 4.48952973e-01 3.97185683e-01 3.88658911e-01 4.05693084e-01 4.28024054e-01 4.50069755e-01 4.67782706e-01 4.79697943e-01 4.86076802e-01 4.87872720e-01 4.86192405e-01 4.81992841e-01 4.75985825e-01 4.68681812e-01 4.60492343e-01 4.51850057e-01 4.43331629e-01 4.35783476e-01 4.30439115e-01 4.28993970e-01 4.33603734e-01 4.46817845e-01 4.71548259e-01 5.11404693e-01 5.71117699e-01 6.51337802e-01 7.25395620e-01 7.04173744e-01 3.85457218e-01 3.01857293e-02 5.31296944e-03 4.00665253e-01 3.32057953e-01 3.18390608e-01 3.45013112e-01 3.82539600e-01 4.19218242e-01 4.47494000e-01 4.65527356e-01 4.74921942e-01 4.78086650e-01 4.77073848e-01 4.73312080e-01 4.67707813e-01 4.60847318e-01 4.53186840e-01 4.45214510e-01 4.37598199e-01 4.31334227e-01 4.27892148e-01 4.29322869e-01 4.38261718e-01 4.57768500e-01 4.91143346e-01 5.42109013e-01 6.12968504e-01 6.91065073e-01 7.20929444e-01 5.83619654e-01 1.86478034e-01 2.24433523e-02 6.88477466e-03 3.44326645e-01 2.63771325e-01 2.47094110e-01 2.84255207e-01 3.40585738e-01 3.95202339e-01 4.34774220e-01 4.57865834e-01 4.68877524e-01 4.72436696e-01 4.71664071e-01 4.68338042e-01 4.63425189e-01 4.57502723e-01 4.51028913e-01 4.44524050e-01 4.38723236e-01 4.34737563e-01 4.34225142e-01 4.39531833e-01 4.53714162e-01 4.80320752e-01 5.22933006e-01 5.84057093e-01 6.58417404e-01 7.10563600e-01 6.56562746e-01 3.64129603e-01 8.24105665e-02 1.80670246e-02 1.03110354e-02 2.78877348e-01 1.99157208e-01 1.85184866e-01 2.32789516e-01 3.09682995e-01 3.83096009e-01 4.31662887e-01 4.56557333e-01 4.66807485e-01 4.69516248e-01 4.68532294e-01 4.65644240e-01 4.61674303e-01 4.57096517e-01 4.52343732e-01 4.47975159e-01 4.44811463e-01 4.44094449e-01 4.47680384e-01 4.58212048e-01 4.79138374e-01 5.14291525e-01 5.66395223e-01 6.32893384e-01 6.92448139e-01 6.83481336e-01 4.93606329e-01 1.66589037e-01 4.46585752e-02 2.01981459e-02 1.79521274e-02 2.05803514e-01 1.43686548e-01 1.38635546e-01 1.97301656e-01 2.96041816e-01 3.85797501e-01 4.37449068e-01 4.59367245e-01 4.66435343e-01 4.67430115e-01 4.66101944e-01 4.63810116e-01 4.61052358e-01 4.58142430e-01 4.55488712e-01 4.53725219e-01 4.53818440e-01 4.57217604e-01 4.66062754e-01 4.83360231e-01 5.12827814e-01 5.57625473e-01 6.16450787e-01 6.75518692e-01 6.93425298e-01 5.84186912e-01 2.82881409e-01 8.81809741e-02 3.53104919e-02 2.98092999e-02 3.64920646e-02 1.35826990e-01 1.00512616e-01 1.07905410e-01 1.80708528e-01 3.03145140e-01 4.02285397e-01 4.48347867e-01 4.62789029e-01 4.65326995e-01 4.64548141e-01 4.63158429e-01 4.61771488e-01 4.60490346e-01 4.59468961e-01 4.59111243e-01 4.60164636e-01 4.63809401e-01 4.71797287e-01 4.86637414e-01 5.11641502e-01 5.50191164e-01 6.02798581e-01 6.60657048e-01 6.96520865e-01 6.52504742e-01 4.34025407e-01 1.70929208e-01 6.78021535e-02 4.41107713e-02 5.55318743e-02 8.85178372e-02 8.27156007e-02 7.02157766e-02 9.10399631e-02 1.84651598e-01 3.30915481e-01 4.26776946e-01 4.58801866e-01 4.63591009e-01 4.61861759e-01 4.59971219e-01 4.59037393e-01 4.58888352e-01 4.59287733e-01 4.60269868e-01 4.62246925e-01 4.66082931e-01 4.73185450e-01 4.85622346e-01 5.06192148e-01 5.38097382e-01 5.83278179e-01 6.38056695e-01 6.86554790e-01 6.94191515e-01 5.95722616e-01 3.45406264e-01 1.49447665e-01 8.47675502e-02 7.89329410e-02 1.20085910e-01 2.11161762e-01 4.94318716e-02 5.06277382e-02 8.67110863e-02 2.11759254e-01 3.73680025e-01 4.50355172e-01 4.64013636e-01 4.60129142e-01 4.55614060e-01 4.53539044e-01 4.53528613e-01 4.54838514e-01 4.57027197e-01 4.60057437e-01 4.64328736e-01 4.70753789e-01 4.80867594e-01 4.96899813e-01 5.21628797e-01 5.57541430e-01 6.04419827e-01 6.54989004e-01 6.90638900e-01 6.78312361e-01 5.65837562e-01 3.52674097e-01 2.00673223e-01 1.56392142e-01 1.72536030e-01 2.45967165e-01 3.59385729e-01 3.06127500e-02 3.87295112e-02 9.59955528e-02 2.63785988e-01 4.19126004e-01 4.65098590e-01 4.61943299e-01 4.52557087e-01 4.47048664e-01 4.45519775e-01 4.46649373e-01 4.49450850e-01 4.53438133e-01 4.58544105e-01 4.65097278e-01 4.73910719e-01 4.86420333e-01 5.04712641e-01 5.31158745e-01 5.67192614e-01 6.10786855e-01 6.53225243e-01 6.77432477e-01 6.58261657e-01 5.68024695e-01 4.25772786e-01 3.28106046e-01 3.07346553e-01 3.35212559e-01 3.92503232e-01 4.66259241e-01 2.04708558e-02 3.28226537e-02 1.23861589e-01 3.33123505e-01 4.53579038e-01 4.67506826e-01 4.53428984e-01 4.42102700e-01 4.36960071e-01 4.36277956e-01 4.38443750e-01 4.42555368e-01 4.48242903e-01 4.55456525e-01 4.64390069e-01 4.75570351e-01 4.90030527e-01 5.09349823e-01 5.35211504e-01 5.68118632e-01 6.05272591e-01 6.38639987e-01 6.55000031e-01 6.38750792e-01 5.81147254e-01 5.04326046e-01 4.55948442e-01 4.47652966e-01 4.60385323e-01 4.85594720e-01 5.22938132e-01 1.51861524e-02 3.16385701e-02 1.77337125e-01 3.99157971e-01 4.69265342e-01 4.58986968e-01 4.40888137e-01 4.30279046e-01 4.26127136e-01 4.26118284e-01 4.28890616e-01 4.33897257e-01 4.41032320e-01 4.50334013e-01 4.61848378e-01 4.75681990e-01 4.92187858e-01 5.12087703e-01 5.36188960e-01 5.64396977e-01 5.94192207e-01 6.19561791e-01 6.31686330e-01 6.22154891e-01 5.90020776e-01 5.50379038e-01 5.24290800e-01 5.15785277e-01 5.17801166e-01 5.29473126e-01 5.50185680e-01 1.23658916e-02 3.25637385e-02 2.46808961e-01 4.42698121e-01 4.66159344e-01 4.44131643e-01 4.27322358e-01 4.18725103e-01 4.15371925e-01 4.15341765e-01 4.17920411e-01 4.23103154e-01 4.31155264e-01 4.42292184e-01 4.56494063e-01 4.73479539e-01 4.92836088e-01 5.14211833e-01 5.37339091e-01 5.61626911e-01 5.85341573e-01 6.04953051e-01 6.15535259e-01 6.12839758e-01 5.97124517e-01 5.75909436e-01 5.58718979e-01 5.49249291e-01 5.47032297e-01 5.53243518e-01 5.66115618e-01 1.02930525e-02 3.30881588e-02 3.03244948e-01 4.59394395e-01 4.51442510e-01 4.28710938e-01 4.15527493e-01 4.08343732e-01 4.04442787e-01 4.02999789e-01 4.04169053e-01 4.08531815e-01 4.16741908e-01 4.29267853e-01 4.46195722e-01 4.67109293e-01 4.91084665e-01 5.16816258e-01 5.42820215e-01 5.67574978e-01 5.89461684e-01 6.06555045e-01 6.16600454e-01 6.17671430e-01 6.09741271e-01 5.95990956e-01 5.81432283e-01 5.70114374e-01 5.64237416e-01 5.66411078e-01 5.75415075e-01 9.90788173e-03 3.57332714e-02 3.58217180e-01 4.78165537e-01 4.54132050e-01 4.35035288e-01 4.23956811e-01 4.15703773e-01 4.09176469e-01 4.04761702e-01 4.03291136e-01 4.05703425e-01 4.12872314e-01 4.25450861e-01 4.43698943e-01 4.67312098e-01 4.95295078e-01 5.25934994e-01 5.56925714e-01 5.85660160e-01 6.09622121e-01 6.26733243e-01 6.35561109e-01 6.35505021e-01 6.27197146e-01 6.12936616e-01 5.96376061e-01 5.81380010e-01 5.71010530e-01 5.69293439e-01 5.77697337e-01 1.59427803e-02 3.79883051e-02 4.35172319e-01 5.40255010e-01 4.98877466e-01 4.82365966e-01 4.72602844e-01 4.64056641e-01 4.56631571e-01 4.51053798e-01 4.48190451e-01 4.48903114e-01 4.53948438e-01 4.63851899e-01 4.78761584e-01 4.98323679e-01 5.21621108e-01 5.47193766e-01 5.73134363e-01 5.97254097e-01 6.17324293e-01 6.31384850e-01 6.38078988e-01 6.36985123e-01 6.28921747e-01 6.16025984e-01 6.01292849e-01 5.87721348e-01 5.77669561e-01 5.73761463e-01 5.79293430e-01 
