# vtk DataFile Version 2.0
results/4_density.vtk, Created by Freefem++ 
ASCII
DATASET UNSTRUCTURED_GRID
POINTS 961 float
0 0 0
0.033333333 0 0
0.066666667 0 0
0.1 0 0
0.13333333 0 0
0.16666667 0 0
0.2 0 0
0.23333333 0 0
0.26666667 0 0
0.3 0 0
0.33333333 0 0
0.36666667 0 0
0.4 0 0
0.43333333 0 0
0.46666667 0 0
0.5 0 0
0.53333333 0 0
0.56666667 0 0
0.6 0 0
0.63333333 0 0
0.66666667 0 0
0.7 0 0
0.73333333 0 0
0.76666667 0 0
0.8 0 0
0.83333333 0 0
0.86666667 0 0
0.9 0 0
0.93333333 0 0
0.96666667 0 0
1 0 0
0 0.033333333 0
0.033333333 0.033333333 0
0.066666667 0.033333333 0
0.1 0.033333333 0
0.13333333 0.033333333 0
0.16666667 0.033333333 0
0.2 0.033333333 0
0.23333333 0.033333333 0
0.26666667 0.033333333 0
0.3 0.033333333 0
0.33333333 0.033333333 0
0.36666667 0.033333333 0
0.4 0.033333333 0
0.43333333 0.033333333 0
0.46666667 0.033333333 0
0.5 0.033333333 0
0.53333333 0.033333333 0
0.56666667 0.033333333 0
0.6 0.033333333 0
0.63333333 0.033333333 0
0.66666667 0.033333333 0
0.7 0.033333333 0
0.73333333 0.033333333 0
0.76666667 0.033333333 0
0.8 0.033333333 0
0.83333333 0.033333333 0
0.86666667 0.033333333 0
0.9 0.033333333 0
0.93333333 0.033333333 0
0.96666667 0.033333333 0
1 0.033333333 0
0 0.066666667 0
0.033333333 0.066666667 0
0.066666667 0.066666667 0
0.1 0.066666667 0
0.13333333 0.066666667 0
0.16666667 0.066666667 0
0.2 0.066666667 0
0.23333333 0.066666667 0
0.26666667 0.066666667 0
0.3 0.066666667 0
0.33333333 0.066666667 0
0.36666667 0.066666667 0
0.4 0.066666667 0
0.43333333 0.066666667 0
0.46666667 0.066666667 0
0.5 0.066666667 0
0.53333333 0.066666667 0
0.56666667 0.066666667 0
0.6 0.066666667 0
0.63333333 0.066666667 0
0.66666667 0.066666667 0
0.7 0.066666667 0
0.73333333 0.066666667 0
0.76666667 0.066666667 0
0.8 0.066666667 0
0.83333333 0.066666667 0
0.86666667 0.066666667 0
0.9 0.066666667 0
0.93333333 0.066666667 0
0.96666667 0.066666667 0
1 0.066666667 0
0 0.1 0
0.033333333 0.1 0
0.066666667 0.1 0
0.1 0.1 0
0.13333333 0.1 0
0.16666667 0.1 0
0.2 0.1 0
0.23333333 0.1 0
0.26666667 0.1 0
0.3 0.1 0
0.33333333 0.1 0
0.36666667 0.1 0
0.4 0.1 0
0.43333333 0.1 0
0.46666667 0.1 0
0.5 0.1 0
0.53333333 0.1 0
0.56666667 0.1 0
0.6 0.1 0
0.63333333 0.1 0
0.66666667 0.1 0
0.7 0.1 0
0.73333333 0.1 0
0.76666667 0.1 0
0.8 0.1 0
0.83333333 0.1 0
0.86666667 0.1 0
0.9 0.1 0
0.93333333 0.1 0
0.96666667 0.1 0
1 0.1 0
0 0.13333333 0
0.033333333 0.13333333 0
0.066666667 0.13333333 0
0.1 0.13333333 0
0.13333333 0.13333333 0
0.16666667 0.13333333 0
0.2 0.13333333 0
0.23333333 0.13333333 0
0.26666667 0.13333333 0
0.3 0.13333333 0
0.33333333 0.13333333 0
0.36666667 0.13333333 0
0.4 0.13333333 0
0.43333333 0.13333333 0
0.46666667 0.13333333 0
0.5 0.13333333 0
0.53333333 0.13333333 0
0.56666667 0.13333333 0
0.6 0.13333333 0
0.63333333 0.13333333 0
0.66666667 0.13333333 0
0.7 0.13333333 0
0.73333333 0.13333333 0
0.76666667 0.13333333 0
0.8 0.13333333 0
0.83333333 0.13333333 0
0.86666667 0.13333333 0
0.9 0.13333333 0
0.93333333 0.13333333 0
0.96666667 0.13333333 0
1 0.13333333 0
0 0.16666667 0
0.033333333 0.16666667 0
0.066666667 0.16666667 0
0.1 0.16666667 0
0.13333333 0.16666667 0
0.16666667 0.16666667 0
0.2 0.16666667 0
0.23333333 0.16666667 0
0.26666667 0.16666667 0
0.3 0.16666667 0
0.33333333 0.16666667 0
0.36666667 0.16666667 0
0.4 0.16666667 0
0.43333333 0.16666667 0
0.46666667 0.16666667 0
0.5 0.16666667 0
0.53333333 0.16666667 0
0.56666667 0.16666667 0
0.6 0.16666667 0
0.63333333 0.16666667 0
0.66666667 0.16666667 0
0.7 0.16666667 0
0.73333333 0.16666667 0
0.76666667 0.16666667 0
0.8 0.16666667 0
0.83333333 0.16666667 0
0.86666667 0.16666667 0
0.9 0.16666667 0
0.93333333 0.16666667 0
0.96666667 0.16666667 0
1 0.16666667 0
0 0.2 0
0.033333333 0.2 0
0.066666667 0.2 0
0.1 0.2 0
0.13333333 0.2 0
0.16666667 0.2 0
0.2 0.2 0
0.23333333 0.2 0
0.26666667 0.2 0
0.3 0.2 0
0.33333333 0.2 0
0.36666667 0.2 0
0.4 0.2 0
0.43333333 0.2 0
0.46666667 0.2 0
0.5 0.2 0
0.53333333 0.2 0
0.56666667 0.2 0
0.6 0.2 0
0.63333333 0.2 0
0.66666667 0.2 0
0.7 0.2 0
0.73333333 0.2 0
0.76666667 0.2 0
0.8 0.2 0
0.83333333 0.2 0
0.86666667 0.2 0
0.9 0.2 0
0.93333333 0.2 0
0.96666667 0.2 0
1 0.2 0
0 0.23333333 0
0.033333333 0.23333333 0
0.066666667 0.23333333 0
0.1 0.23333333 0
0.13333333 0.23333333 0
0.16666667 0.23333333 0
0.2 0.23333333 0
0.23333333 0.23333333 0
0.26666667 0.23333333 0
0.3 0.23333333 0
0.33333333 0.23333333 0
0.36666667 0.23333333 0
0.4 0.23333333 0
0.43333333 0.23333333 0
0.46666667 0.23333333 0
0.5 0.23333333 0
0.53333333 0.23333333 0
0.56666667 0.23333333 0
0.6 0.23333333 0
0.63333333 0.23333333 0
0.66666667 0.23333333 0
0.7 0.23333333 0
0.73333333 0.23333333 0
0.76666667 0.23333333 0
0.8 0.23333333 0
0.83333333 0.23333333 0
0.86666667 0.23333333 0
0.9 0.23333333 0
0.93333333 0.23333333 0
0.96666667 0.23333333 0
1 0.23333333 0
0 0.26666667 0
0.033333333 0.26666667 0
0.066666667 0.26666667 0
0.1 0.26666667 0
0.13333333 0.26666667 0
0.16666667 0.26666667 0
0.2 0.26666667 0
0.23333333 0.26666667 0
0.26666667 0.26666667 0
0.3 0.26666667 0
0.33333333 0.26666667 0
0.36666667 0.26666667 0
0.4 0.26666667 0
0.43333333 0.26666667 0
0.46666667 0.26666667 0
0.5 0.26666667 0
0.53333333 0.26666667 0
0.56666667 0.26666667 0
0.6 0.26666667 0
0.63333333 0.26666667 0
0.66666667 0.26666667 0
0.7 0.26666667 0
0.73333333 0.26666667 0
0.76666667 0.26666667 0
0.8 0.26666667 0
0.83333333 0.26666667 0
0.86666667 0.26666667 0
0.9 0.26666667 0
0.93333333 0.26666667 0
0.96666667 0.26666667 0
1 0.26666667 0
0 0.3 0
0.033333333 0.3 0
0.066666667 0.3 0
0.1 0.3 0
0.13333333 0.3 0
0.16666667 0.3 0
0.2 0.3 0
0.23333333 0.3 0
0.26666667 0.3 0
0.3 0.3 0
0.33333333 0.3 0
0.36666667 0.3 0
0.4 0.3 0
0.43333333 0.3 0
0.46666667 0.3 0
0.5 0.3 0
0.53333333 0.3 0
0.56666667 0.3 0
0.6 0.3 0
0.63333333 0.3 0
0.66666667 0.3 0
0.7 0.3 0
0.73333333 0.3 0
0.76666667 0.3 0
0.8 0.3 0
0.83333333 0.3 0
0.86666667 0.3 0
0.9 0.3 0
0.93333333 0.3 0
0.96666667 0.3 0
1 0.3 0
0 0.33333333 0
0.033333333 0.33333333 0
0.066666667 0.33333333 0
0.1 0.33333333 0
0.13333333 0.33333333 0
0.16666667 0.33333333 0
0.2 0.33333333 0
0.23333333 0.33333333 0
0.26666667 0.33333333 0
0.3 0.33333333 0
0.33333333 0.33333333 0
0.36666667 0.33333333 0
0.4 0.33333333 0
0.43333333 0.33333333 0
0.46666667 0.33333333 0
0.5 0.33333333 0
0.53333333 0.33333333 0
0.56666667 0.33333333 0
0.6 0.33333333 0
0.63333333 0.33333333 0
0.66666667 0.33333333 0
0.7 0.33333333 0
0.73333333 0.33333333 0
0.76666667 0.33333333 0
0.8 0.33333333 0
0.83333333 0.33333333 0
0.86666667 0.33333333 0
0.9 0.33333333 0
0.93333333 0.33333333 0
0.96666667 0.33333333 0
1 0.33333333 0
0 0.36666667 0
0.033333333 0.36666667 0
0.066666667 0.36666667 0
0.1 0.36666667 0
0.13333333 0.36666667 0
0.16666667 0.36666667 0
0.2 0.36666667 0
0.23333333 0.36666667 0
0.26666667 0.36666667 0
0.3 0.36666667 0
0.33333333 0.36666667 0
0.36666667 0.36666667 0
0.4 0.36666667 0
0.43333333 0.36666667 0
0.46666667 0.36666667 0
0.5 0.36666667 0
0.53333333 0.36666667 0
0.56666667 0.36666667 0
0.6 0.36666667 0
0.63333333 0.36666667 0
0.66666667 0.36666667 0
0.7 0.36666667 0
0.73333333 0.36666667 0
0.76666667 0.36666667 0
0.8 0.36666667 0
0.83333333 0.36666667 0
0.86666667 0.36666667 0
0.9 0.36666667 0
0.93333333 0.36666667 0
0.96666667 0.36666667 0
1 0.36666667 0
0 0.4 0
0.033333333 0.4 0
0.066666667 0.4 0
0.1 0.4 0
0.13333333 0.4 0
0.16666667 0.4 0
0.2 0.4 0
0.23333333 0.4 0
0.26666667 0.4 0
0.3 0.4 0
0.33333333 0.4 0
0.36666667 0.4 0
0.4 0.4 0
0.43333333 0.4 0
0.46666667 0.4 0
0.5 0.4 0
0.53333333 0.4 0
0.56666667 0.4 0
0.6 0.4 0
0.63333333 0.4 0
0.66666667 0.4 0
0.7 0.4 0
0.73333333 0.4 0
0.76666667 0.4 0
0.8 0.4 0
0.83333333 0.4 0
0.86666667 0.4 0
0.9 0.4 0
0.93333333 0.4 0
0.96666667 0.4 0
1 0.4 0
0 0.43333333 0
0.033333333 0.43333333 0
0.066666667 0.43333333 0
0.1 0.43333333 0
0.13333333 0.43333333 0
0.16666667 0.43333333 0
0.2 0.43333333 0
0.23333333 0.43333333 0
0.26666667 0.43333333 0
0.3 0.43333333 0
0.33333333 0.43333333 0
0.36666667 0.43333333 0
0.4 0.43333333 0
0.43333333 0.43333333 0
0.46666667 0.43333333 0
0.5 0.43333333 0
0.53333333 0.43333333 0
0.56666667 0.43333333 0
0.6 0.43333333 0
0.63333333 0.43333333 0
0.66666667 0.43333333 0
0.7 0.43333333 0
0.73333333 0.43333333 0
0.76666667 0.43333333 0
0.8 0.43333333 0
0.83333333 0.43333333 0
0.86666667 0.43333333 0
0.9 0.43333333 0
0.93333333 0.43333333 0
0.96666667 0.43333333 0
1 0.43333333 0
0 0.46666667 0
0.033333333 0.46666667 0
0.066666667 0.46666667 0
0.1 0.46666667 0
0.13333333 0.46666667 0
0.16666667 0.46666667 0
0.2 0.46666667 0
0.23333333 0.46666667 0
0.26666667 0.46666667 0
0.3 0.46666667 0
0.33333333 0.46666667 0
0.36666667 0.46666667 0
0.4 0.46666667 0
0.43333333 0.46666667 0
0.46666667 0.46666667 0
0.5 0.46666667 0
0.53333333 0.46666667 0
0.56666667 0.46666667 0
0.6 0.46666667 0
0.63333333 0.46666667 0
0.66666667 0.46666667 0
0.7 0.46666667 0
0.73333333 0.46666667 0
0.76666667 0.46666667 0
0.8 0.46666667 0
0.83333333 0.46666667 0
0.86666667 0.46666667 0
0.9 0.46666667 0
0.93333333 0.46666667 0
0.96666667 0.46666667 0
1 0.46666667 0
0 0.5 0
0.033333333 0.5 0
0.066666667 0.5 0
0.1 0.5 0
0.13333333 0.5 0
0.16666667 0.5 0
0.2 0.5 0
0.23333333 0.5 0
0.26666667 0.5 0
0.3 0.5 0
0.33333333 0.5 0
0.36666667 0.5 0
0.4 0.5 0
0.43333333 0.5 0
0.46666667 0.5 0
0.5 0.5 0
0.53333333 0.5 0
0.56666667 0.5 0
0.6 0.5 0
0.63333333 0.5 0
0.66666667 0.5 0
0.7 0.5 0
0.73333333 0.5 0
0.76666667 0.5 0
0.8 0.5 0
0.83333333 0.5 0
0.86666667 0.5 0
0.9 0.5 0
0.93333333 0.5 0
0.96666667 0.5 0
1 0.5 0
0 0.53333333 0
0.033333333 0.53333333 0
0.066666667 0.53333333 0
0.1 0.53333333 0
0.13333333 0.53333333 0
0.16666667 0.53333333 0
0.2 0.53333333 0
0.23333333 0.53333333 0
0.26666667 0.53333333 0
0.3 0.53333333 0
0.33333333 0.53333333 0
0.36666667 0.53333333 0
0.4 0.53333333 0
0.43333333 0.53333333 0
0.46666667 0.53333333 0
0.5 0.53333333 0
0.53333333 0.53333333 0
0.56666667 0.53333333 0
0.6 0.53333333 0
0.63333333 0.53333333 0
0.66666667 0.53333333 0
0.7 0.53333333 0
0.73333333 0.53333333 0
0.76666667 0.53333333 0
0.8 0.53333333 0
[...]
CELL_DATA 1920
Scalars  Label int 1
LOOKUP_TABLE FreeFempp_table
0
0
0
0
0
0
0
0
0
0
0
0
0
0
0
0
0
0
0
0
0
0
0
0
0
0
0
0
0
0
0
0
0
0
0
0
0
0
0
0
0
0
0
0
0
0
0
0
0
0
0
0
0
0
0
0
0
0
0
0
0
0
0
0
0
0
0
0
0
0
0
0
0
0
0
0
0
0
0
0
0
0
0
0
0
0
0
0
0
0
0
0
0
0
0
0
0
0
0
0
0
0
0
0
0
0
0
0
0
0
0
0
0
0
0
0
0
0
0
0
0
0
0
0
0
0
0
0
0
0
0
0
0
0
0
0
0
0
0
0
0
0
0
0
0
0
0
0
0
0
0
0
0
0
0
0
0
0
0
0
0
0
0
0
0
0
0
0
0
0
0
0
0
0
0
0
0
0
0
0
0
0
0
0
0
0
0
0
0
0
0
0
0
0
0
0
0
0
0
0
0
0
0
0
0
0
0
0
0
0
0
0
0
0
0
0
0
0
0
0
0
0
0
0
0
0
0
0
0
0
0
0
0
0
0
0
0
0
0
0
0
0
0
0
0
0
0
0
0
0
0
0
0
0
0
0
0
0
0
0
0
0
0
0
0
0
0
0
0
0
0
0
0
0
0
0
0
0
0
0
0
0
0
0
0
0
0
0
0
0
0
0
0
0
0
0
0
0
0
0
0
0
0
0
0
0
0
0
0
0
0
0
0
0
0
0
0
0
0
0
0
0
0
0
0
0
0
0
0
0
0
0
0
0
0
0
0
0
0
0
0
0
0
0
0
0
0
0
0
0
0
0
0
0
0
0
0
0
0
0
0
0
0
0
0
0
0
0
0
0
0
0
0
0
0
0
0
0
0
0
0
0
0
0
0
0
0
0
0
0
0
0
0
0
0
0
0
0
0
0
0
0
0
0
0
0
0
0
0
0
0
0
0
0
0
0
0
0
0
0
0
0
0
0
0
0
0
0
0
0
0
0
0
0
0
0
0
0
0
0
0
0
0
0
0
0
0
0
0
0
0
0
0
0
0
0
0
0
0
0
0
0
0
0
0
0
0
0
0
0
0
0
0
0
0
0
0
0
0
0
0
0
0
0
0
0
0
0
0
0
0
0
0
0
0
0
0
0
0
0
0
0
0
0
0
0
0
0
0
0
0
0
0
0
0
0
0
0
0
0
0
0
0
0
0
0
0
0
0
0
0
0
0
0
0
0
0
0
0
0
0
0
0
0
0
0
0
0
0
0
0
0
0
0
0
0
0
0
0
0
0
0
0
0
0
0
0
0
0
0
0
0
0
0
0
0
0
0
0
0
0
0
0
0
0
0
0
0
0
0
0
0
0
0
0
0
0
0
0
0
0
0
0
0
0
0
0
0
0
0
0
0
0
0
0
0
0
0
0
0
0
0
0
0
0
0
0
0
0
0
0
0
0
0
0
0
0
0
0
0
0
0
0
0
0
0
0
0
0
0
0
0
0
0
0
0
0
0
0
0
0
0
0
0
0
0
0
0
0
0
0
0
0
0
0
0
0
0
0
0
0
0
0
0
0
0
0
0
0
0
0
0
0
0
0
0
0
0
0
0
0
0
0
0
0
0
0
0
0
0
0
0
0
0
0
0
0
0
0
0
0
0
0
0
0
0
0
0
0
0
0
0
0
0
0
0
0
0
0
0
0
0
0
0
0
0
0
0
0
0
0
0
0
0
0
0
0
0
0
0
0
0
0
0
0
0
0
0
0
0
0
0
0
0
0
0
0
0
0
0
0
0
0
0
0
0
0
0
0
0
0
0
0
0
0
0
0
0
0
0
0
0
0
0
0
0
0
0
0
0
0
0
0
0
0
0
0
0
0
0
0
0
0
0
0
0
0
0
0
0
0
0
0
0
0
0
0
0
0
0
0
0
0
0
0
0
0
0
0
0
0
0
0
0
0
0
0
0
0
0
0
0
0
0
0
0
0
0
0
0
0
0
0
0
0
0
0
0
0
0
0
0
0
0
0
0
0
0
0
0
0
0
0
0
0
0
0
0
0
0
0
0
0
0
0
0
0
0
0
0
0
0
0
0
0
0
0
0
0
0
0
0
0
0
0
0
0
0
0
0
0
0
0
0
0
0
0
0
0
0
0
0
0
0
0
0
0
0
0
0
0
0
0
0
0
0
0
0
0
0
0
0
0
0
0
0
0
0
0
0
0
0
0
0
0
0
0
0
0
0
0
0
0
0
0
0
0
0
0
0
0
0
0
0
0
0
0
0
0
0
0
0
0
0
0
0
0
0
0
0
0
0
0
0
0
0
0
0
0
0
0
0
0
0
0
0
0
0
0
0
0
0
0
0
0
0
0
0
0
0
0
0
0
0
0
0
0
0
0
0
0
0
0
0
0
0
0
0
0
0
0
0
0
0
0
0
0
0
0
0
0
0
0
0
0
0
0
0
0
0
0
0
0
0
0
0
0
0
0
0
0
0
0
0
0
0
0
0
0
0
0
0
0
0
0
0
0
0
0
0
0
0
0
0
0
0
0
0
0
0
0
0
0
0
0
0
0
0
0
0
0
0
0
0
0
0
0
0
0
0
0
0
0
0
0
0
0
0
0
0
0
0
0
0
0
0
0
0
0
0
0
0
0
0
0
0
0
0
0
0
0
0
0
0
0
0
0
0
0
0
0
0
0
0
0
0
0
0
0
0
0
0
0
0
0
0
0
0
0
0
0
0
0
0
0
0
0
0
0
0
0
0
0
0
0
0
0
0
0
0
0
0
0
0
0
0
0
0
0
0
0
0
0
0
0
0
0
0
0
0
0
0
0
0
0
0
0
0
0
0
0
0
0
0
0
0
0
0
0
0
0
0
0
0
0
0
0
0
0
0
0
0
0
0
0
0
0
0
0
0
0
0
0
0
0
0
0
0
0
0
0
0
0
0
0
0
0
0
0
0
0
0
0
0
0
0
0
0
0
0
0
0
0
0
0
0
0
0
0
0
0
0
0
0
0
0
0
0
0
0
0
0
0
0
0
0
0
0
0
0
0
0
0
0
0
0
0
0
0
0
0
0
0
0
0
0
0
0
0
0
0
0
0
0
0
0
0
0
0
0
0
0
0
0
0
0
0
0
0
0
0
0
0
0
0
0
0
0
0
0
0
0
0
0
0
0
0
0
0
0
0
0
0
0
0
0
0
0
0
0
0
0
0
0
0
0
0
0
0
0
0
0
0
0
0
0
0
0
0
0
0
0
0
0
0
0
0
0
0
0
0
0
0
0
0
0
0
0
0
0
0
0
0
0
0
0
0
0
0
0
0
0
0
0
0
0
0
0
0
0
0
0
0
0
0
0
0
0
0
0
0
0
0
0
0
0
0
0
0
0
0
0
0
0
0
0
0
0
0
0
0
0
0
0
0
0
0
0
0
0
0
0
0
0
0
0
0
0
0
0
0
0
0
0
0
0
0
0
0
0
0
0
0
0
0
0
0
0
0
0
0
0
0
0
0
0
0
0
0
0
0
0
0
0
0
0
0
0
0
0
0
0
0
0
0
0
0
0
0
0
0
0
0
0
0
0
0
0
0
0
0
0
0
0
0
0
0
0
0
0
0
0
0
0
0
0
0
0
0
0
0
0
0
0
0
0
0
0
0
0
0
0
0
0
0
0
0
0
0
0
0
0
0
0
0
0
0
0
0
0
0
0
0
0
0
0
0
0
0
0
0
0
0
0
0
0
0
0
0
0
0
0
0
0
0
0
0
0
0
0
0
0
0
0
0
0
0
0
0
0
0
0
0
0
0
0
0
0
0
0
0
0
0
0
0
0
0
0
0
0
0
0
0
0
0
0
0
0
0
0
0
0
0
0
0
0
0
0
0
0
0
0
0
0
0
0
0
0
0
0
0
0
0
0
0
0
0
0
0
0
0
0
0
0
0
0
0
0
0
0
0
0
0
0
0
0
0
0
0
0
0
0
0
0
0
0
0
0
0
0
0
0
0
0
0
0
0
0
0
0
0
0
0
0
0
0
0
0
0
0
0
0
0
0
0
0
0
0
0
0
0
0
0
0
0
0
0
0
0
0
1
1
1
1
1
1
1
1
1
1
1
1
1
1
1
1
1
1
1
1
1
1
1
1
1
1
1
1
1
1
2
2
2
2
2
2
2
2
2
2
2
2
2
2
2
2
2
2
2
2
2
2
2
2
2
2
2
2
2
2
3
3
3
3
3
3
3
3
3
3
3
3
3
3
3
3
3
3
3
3
3
3
3
3
3
3
3
3
3
3
4
4
4
4
4
4
4
4
4
4
4
4
4
4
4
4
4
4
4
4
4
4
4
4
4
4
4
4
4
4

LOOKUP_TABLE FreeFempp_table 5
1.00000000 0.00000000 0.00000000 1.00000000
1.00000000 1.00000000 0.00000000 1.00000000
1.00000000 0.00000000 1.00000000 1.00000000
0.00000000 1.00000000 0.00000000 1.00000000
0.00000000 1.00000000 1.00000000 1.00000000

POINT_DATA 961
FIELD FieldData 1
Density 1 961 float
5.32775521e-01 4.49322551e-01 4.25360709e-01 4.21748042e-01 4.21148866e-01 4.21859980e-01 4.21583921e-01 3.55384737e-01 1.07419595e-01 9.37069301e-03 6.10599993e-03 4.41839583e-02 2.83936054e-01 4.75898206e-01 6.26746476e-01 8.43739450e-01 9.21582758e-01 8.89764547e-01 8.30417871e-01 8.08034241e-01 7.99952328e-01 7.81019926e-01 7.55751073e-01 7.30867565e-01 7.12800086e-01 7.00036407e-01 6.94010019e-01 6.90957308e-01 6.87830627e-01 6.99720144e-01 7.19002843e-01 1.80051714e-01 1.64047346e-01 1.52974635e-01 1.51871413e-01 1.51850805e-01 1.51978955e-01 1.50836736e-01 1.32040218e-01 5.85767999e-02 7.68197048e-03 3.40478192e-03 2.05913391e-02 1.71046525e-01 3.59412879e-01 5.04133642e-01 8.00399363e-01 8.98445845e-01 7.72337019e-01 6.06622040e-01 6.21574283e-01 7.04087138e-01 7.20104396e-01 7.08616793e-01 6.93221390e-01 6.77975476e-01 6.58913851e-01 6.50068820e-01 6.46386385e-01 6.44053221e-01 6.58860683e-01 6.92348063e-01 6.95549324e-03 7.35968025e-03 6.87545585e-03 6.87044812e-03 6.88282726e-03 6.89320592e-03 6.88654697e-03 6.59222947e-03 4.74243984e-03 1.52016955e-03 8.64444592e-04 4.34126565e-03 3.43979076e-02 1.09614030e-01 2.01503590e-01 5.71956873e-01 8.54114354e-01 2.83705324e-01 4.54583690e-02 4.07751836e-02 1.56037956e-01 2.79331148e-01 3.58079702e-01 4.72381800e-01 5.71506262e-01 5.86935997e-01 5.93365848e-01 5.90932369e-01 5.88201344e-01 6.08663917e-01 6.52692139e-01 8.97620711e-03 6.78520231e-03 6.44362438e-03 6.51878398e-03 6.60746219e-03 6.70348760e-03 6.79711718e-03 6.86203595e-03 6.83808001e-03 6.82748249e-03 6.37065247e-03 3.59840575e-03 2.88437773e-03 6.11398416e-03 1.27296969e-02 9.51164216e-02 6.62497640e-01 8.13637555e-01 1.23381108e-01 1.55240549e-02 9.88561101e-03 1.33715495e-02 1.75866820e-02 4.67528403e-02 1.49508834e-01 2.89860576e-01 4.64412749e-01 5.21853924e-01 5.27644634e-01 5.56485415e-01 6.14412129e-01 1.84382915e-01 1.36631832e-01 1.24132447e-01 1.25223368e-01 1.28385976e-01 1.31933376e-01 1.35421962e-01 1.38459608e-01 1.40483826e-01 1.39768109e-01 1.23279601e-01 6.03369512e-02 1.25693567e-02 6.39283005e-03 3.23776552e-03 4.34434274e-03 2.17093378e-02 1.73141509e-01 8.39560032e-01 3.85668337e-01 4.23157699e-02 1.09139727e-02 3.70403589e-03 3.17004370e-03 7.52470549e-03 1.86684318e-02 1.54166043e-01 3.97210270e-01 4.63110983e-01 5.03193319e-01 5.72937131e-01 4.53223109e-01 3.82048041e-01 3.45300287e-01 3.47080827e-01 3.55184883e-01 3.63956273e-01 3.72363001e-01 3.79664183e-01 3.85148019e-01 3.87787819e-01 3.81401956e-01 3.26381475e-01 1.95300356e-01 1.23979002e-01 5.47570214e-02 1.21150110e-02 5.00507606e-03 5.35899587e-03 6.54226765e-02 8.53223920e-01 8.12062979e-01 3.22696537e-01 8.57377723e-02 3.19642760e-02 2.08437219e-02 9.10868961e-03 1.45350238e-02 1.65032059e-01 3.88011068e-01 4.68429089e-01 5.42133689e-01 5.41833937e-01 4.69568402e-01 4.30958897e-01 4.31726068e-01 4.38024640e-01 4.44591969e-01 4.50846732e-01 4.56345230e-01 4.60769475e-01 4.63942319e-01 4.65232044e-01 4.59655792e-01 4.34360951e-01 4.13575351e-01 3.50732714e-01 2.00291887e-01 8.41578469e-02 1.45183094e-02 6.40991190e-03 4.96081077e-02 6.95196748e-01 8.42376888e-01 8.88248563e-01 8.30283463e-01 7.31044948e-01 3.40628535e-01 3.46387811e-02 1.71815231e-02 1.78691432e-01 4.24105525e-01 5.23088872e-01 5.86997449e-01 5.21391094e-01 4.89140391e-01 4.90208805e-01 4.94365245e-01 4.98572946e-01 5.02830625e-01 5.06895900e-01 5.10568082e-01 5.13677776e-01 5.16039908e-01 5.17247677e-01 5.16875923e-01 5.18789232e-01 5.13249159e-01 4.80126947e-01 4.15971100e-01 2.46686101e-01 7.14040399e-02 1.29423384e-02 1.56347062e-02 4.45566848e-02 3.34429234e-01 6.21864498e-01 6.76628053e-01 6.79659247e-01 7.43441820e-01 5.29320128e-02 1.79080870e-02 1.77158490e-01 3.90179515e-01 6.22760952e-01 5.66930592e-01 5.41992962e-01 5.43772995e-01 5.47068477e-01 5.50545037e-01 5.54387152e-01 5.58351576e-01 5.62173188e-01 5.65557897e-01 5.68260372e-01 5.70305526e-01 5.72254598e-01 5.75116575e-01 5.77583969e-01 5.78097939e-01 5.77117860e-01 5.54596424e-01 4.59472150e-01 1.99656397e-01 2.07751151e-02 5.59192849e-03 8.15708935e-03 1.70898233e-02 2.32021194e-02 3.85605693e-02 2.77037561e-01 7.43858397e-01 5.12010008e-02 1.45059666e-02 7.24211335e-02 6.49619102e-01 6.01861179e-01 5.82430363e-01 5.84777832e-01 5.88141859e-01 5.91928184e-01 5.96163154e-01 6.00488663e-01 6.04551554e-01 6.08031094e-01 6.10775292e-01 6.13036275e-01 6.15595281e-01 6.19392037e-01 6.24793828e-01 6.32317543e-01 6.43118143e-01 6.55645072e-01 6.63126290e-01 6.16392732e-01 3.79851431e-01 1.13833912e-01 1.64208598e-02 3.52543010e-03 2.58330302e-03 3.96432821e-03 1.94740891e-02 4.70869035e-01 7.19798565e-01 1.68059748e-02 4.68516536e-03 6.64390743e-01 6.21368349e-01 6.05467319e-01 6.08424723e-01 6.12403870e-01 6.16938353e-01 6.21763587e-01 6.26371086e-01 6.30343497e-01 6.33406162e-01 6.35561347e-01 6.37247682e-01 6.39352918e-01 6.42903864e-01 6.48740411e-01 6.57814145e-01 6.71374857e-01 6.90189421e-01 7.14252412e-01 7.39908874e-01 7.48837948e-01 6.97991967e-01 4.02704924e-01 6.70548752e-02 3.19115743e-02 2.52736434e-02 2.85700243e-02 1.78585023e-01 8.15722108e-01 3.05114761e-02 1.18433882e-03 6.63379967e-01 6.20616198e-01 6.06284082e-01 6.10282004e-01 6.15591943e-01 6.21431410e-01 6.27173841e-01 6.32142961e-01 6.35866463e-01 6.38118327e-01 6.39020979e-01 6.39121830e-01 6.39332950e-01 6.40686333e-01 6.44142330e-01 6.50711358e-01 6.61509395e-01 6.77504480e-01 6.99630857e-01 7.29110718e-01 7.65147328e-01 8.00724626e-01 8.09723079e-01 7.46924758e-01 6.97814643e-01 6.39709592e-01 6.24018610e-01 8.12047541e-01 8.86014819e-01 3.33185010e-02 6.47541077e-04 6.42749429e-01 5.94625473e-01 5.79887390e-01 5.86168766e-01 5.94515383e-01 6.03281200e-01 6.11292422e-01 6.17618024e-01 6.21709466e-01 6.23372853e-01 6.22820616e-01 6.20674133e-01 6.17844582e-01 6.15317941e-01 6.14011228e-01 6.14804566e-01 6.18554711e-01 6.26025438e-01 6.37965798e-01 6.55067980e-01 6.76765800e-01 6.99317932e-01 7.19299614e-01 7.40288496e-01 7.72702456e-01 7.78051674e-01 8.19518149e-01 9.27096963e-01 8.99575174e-01 3.16161253e-02 5.91056712e-04 5.98730981e-01 5.38598955e-01 5.21128595e-01 5.31935096e-01 5.46719372e-01 5.62023938e-01 5.75608790e-01 5.85948467e-01 5.92324138e-01 5.94627440e-01 5.93256712e-01 5.89003623e-01 5.82863092e-01 5.75824201e-01 5.68756044e-01 5.62424183e-01 5.57530165e-01 5.54750443e-01 5.54788113e-01 5.58127701e-01 5.64117372e-01 5.70165455e-01 5.74142814e-01 5.81787765e-01 6.10425472e-01 6.70117259e-01 7.99416542e-01 9.24444258e-01 8.51286948e-01 2.73879040e-02 6.66730280e-04 5.28999031e-01 4.50725198e-01 4.27714914e-01 4.45666015e-01 4.71975774e-01 4.99724120e-01 5.24481416e-01 5.43368161e-01 5.55271745e-01 5.60356975e-01 5.59544563e-01 5.54101169e-01 5.45330942e-01 5.34381032e-01 5.22194445e-01 5.09588718e-01 4.97388512e-01 4.86585468e-01 4.78465170e-01 4.74476635e-01 4.75768268e-01 4.83054459e-01 4.97968912e-01 5.26495457e-01 5.84702492e-01 6.95542991e-01 8.45061004e-01 9.23534334e-01 7.57339776e-01 2.30002720e-02 7.87362864e-04 4.36260700e-01 3.38955611e-01 3.08603466e-01 3.34086984e-01 3.76192898e-01 4.23013061e-01 4.65735048e-01 4.98498797e-01 5.19431829e-01 5.29404342e-01 5.30481100e-01 5.24891615e-01 5.14547825e-01 5.00923872e-01 4.85150307e-01 4.68224496e-01 4.51269448e-01 4.35807824e-01 4.23978686e-01 4.18550491e-01 4.22727019e-01 4.40152019e-01 4.75789428e-01 5.38163900e-01 6.39970660e-01 7.77377248e-01 8.90467882e-01 9.05964434e-01 5.48601866e-01 1.72841530e-02 8.44968599e-04 3.31503153e-01 2.25286603e-01 1.90638289e-01 2.19046295e-01 2.75058419e-01 3.44014078e-01 4.09880280e-01 4.60460365e-01 4.92328554e-01 5.07850349e-01 5.11115134e-01 5.05826533e-01 4.94713098e-01 4.79632288e-01 4.61904705e-01 4.42703277e-01 4.23442274e-01 4.06147867e-01 3.93755019e-01 3.90243411e-01 4.00620967e-01 4.30973470e-01 4.88921463e-01 5.83601236e-01 7.15266347e-01 8.44306111e-01 9.07433927e-01 8.38710129e-01 2.44884983e-01 1.10670673e-02 1.08250778e-03 2.30749995e-01 1.34220123e-01 1.03206746e-01 1.28219411e-01 1.89449117e-01 2.77391613e-01 3.67525429e-01 4.36393201e-01 4.77951288e-01 4.97358412e-01 5.01698911e-01 4.96418327e-01 4.84997869e-01 4.69542295e-01 4.51446533e-01 4.31967944e-01 4.12721515e-01 3.96129876e-01 3.85808349e-01 3.86840284e-01 4.05944377e-01 4.51505452e-01 5.32782376e-01 6.53905272e-01 7.91428030e-01 8.85360420e-01 8.90322030e-01 6.39182270e-01 7.30506629e-02 6.32706098e-03 1.73161482e-03 1.46581963e-01 7.47320279e-02 5.31963930e-02 7.29219243e-02 1.32463008e-01 2.34480575e-01 3.46493304e-01 4.29576427e-01 4.75889474e-01 4.95459169e-01 4.98913795e-01 4.93119866e-01 4.81865913e-01 4.67193931e-01 4.50408846e-01 4.32772726e-01 4.16047454e-01 4.03000742e-01 3.97899568e-01 4.06955779e-01 4.38603878e-01 5.02834857e-01 6.06517971e-01 7.38393128e-01 8.51786017e-01 8.94350886e-01 7.98442066e-01 2.78306276e-01 2.62528136e-02 4.55271220e-03 2.95577501e-03 8.43607485e-02 4.05049920e-02 2.87752971e-02 4.54338230e-02 1.04264155e-01 2.20533073e-01 3.50163013e-01 4.38427269e-01 4.81703341e-01 4.97090399e-01 4.98025030e-01 4.91685241e-01 4.81432140e-01 4.68890786e-01 4.55166787e-01 4.41545635e-01 4.30009276e-01 4.23771888e-01 4.27891612e-01 4.49824899e-01 4.99227524e-01 5.84337413e-01 7.00291932e-01 8.15204263e-01 8.81388843e-01 8.51725519e-01 5.20538807e-01 7.99733475e-02 1.20718507e-02 4.99594584e-03 4.93629556e-03 4.42142338e-02 2.20304839e-02 1.75135024e-02 3.44276167e-02 1.00041702e-01 2.37101972e-01 3.76361758e-01 4.56367821e-01 4.88520443e-01 4.96766180e-01 4.94904220e-01 4.88847554e-01 4.80820596e-01 4.71807718e-01 4.62726861e-01 4.55018282e-01 4.51087654e-01 4.54842657e-01 4.72336709e-01 5.11981964e-01 5.82183063e-01 6.81978762e-01 7.88010895e-01 8.62359107e-01 8.68857384e-01 6.90994740e-01 1.84648514e-01 2.88772024e-02 8.33113305e-03 7.41538685e-03 1.01780007e-02 2.19314247e-02 1.26629733e-02 1.26314210e-02 3.36052254e-02 1.18549757e-01 2.83295780e-01 4.15845692e-01 4.73557115e-01 4.89739448e-01 4.90648419e-01 4.87265050e-01 4.82962132e-01 4.78486687e-01 4.74182427e-01 4.70886081e-01 4.70351696e-01 4.75613981e-01 4.91452008e-01 5.24723530e-01 5.83175004e-01 6.69159114e-01 7.67525733e-01 8.45852256e-01 8.74976873e-01 7.97728240e-01 3.88819069e-01 6.50244877e-02 1.60873216e-02 9.88516398e-03 1.42433560e-02 2.44472213e-02 1.07482318e-02 8.15524533e-03 1.13642458e-02 4.20758314e-02 1.64082989e-01 3.50620002e-01 4.53513741e-01 4.80972290e-01 4.81659263e-01 4.77613598e-01 4.74822760e-01 4.73777145e-01 4.73898560e-01 4.75064278e-01 4.78128165e-01 4.85203296e-01 4.99952555e-01 5.27822316e-01 5.75521410e-01 6.47566617e-01 7.37489402e-01 8.21483672e-01 8.71779144e-01 8.62638474e-01 6.81308210e-01 2.05009341e-01 3.99921611e-02 1.80147607e-02 1.94054637e-02 3.71906720e-02 7.05754757e-02 5.82686765e-03 6.04809681e-03 1.30649051e-02 6.38573766e-02 2.40077674e-01 4.19024944e-01 4.75402087e-01 4.74378377e-01 4.64417845e-01 4.58886951e-01 4.58582282e-01 4.61753637e-01 4.67000514e-01 4.73954976e-01 4.83475745e-01 4.97852534e-01 5.21031559e-01 5.58477223e-01 6.15543664e-01 6.92374825e-01 7.76396215e-01 8.43953431e-01 8.74593675e-01 8.40080678e-01 6.10981405e-01 1.89893737e-01 5.64874038e-02 4.19657975e-02 5.95998242e-02 1.18347712e-01 2.11891592e-01 3.70812812e-03 5.18072583e-03 1.86570752e-02 1.08177260e-01 3.34773391e-01 4.66458380e-01 4.75575745e-01 4.55141932e-01 4.40860927e-01 4.36719984e-01 4.39828336e-01 4.47364390e-01 4.57712591e-01 4.70445812e-01 4.86287743e-01 5.07289708e-01 5.37028253e-01 5.80165923e-01 6.40137374e-01 7.14002192e-01 7.87942827e-01 8.42324436e-01 8.61149848e-01 8.17909241e-01 6.24205649e-01 2.99024940e-01 1.56725153e-01 1.52432069e-01 2.13029951e-01 3.24977607e-01 4.44331586e-01 2.58472445e-03 5.24351466e-03 3.11669949e-02 1.84857830e-01 4.18744475e-01 4.82063830e-01 4.56598759e-01 4.28021908e-01 4.14515883e-01 4.13108736e-01 4.19397950e-01 4.30644721e-01 4.45566326e-01 4.63845104e-01 4.85903412e-01 5.13042450e-01 5.47678828e-01 5.92927754e-01 6.50448382e-01 7.16416121e-01 7.79152215e-01 8.23473513e-01 8.36145997e-01 7.98044801e-01 6.71505868e-01 4.80453819e-01 3.76131624e-01 3.85658413e-01 4.47625250e-01 5.29954195e-01 6.06651604e-01 1.93730206e-03 6.14676718e-03 5.55136204e-02 2.84107178e-01 4.66444433e-01 4.67987627e-01 4.25952554e-01 3.98465365e-01 3.88287514e-01 3.89311463e-01 3.97509784e-01 4.11073834e-01 4.29488510e-01 4.52762187e-01 4.80998218e-01 5.14398277e-01 5.53541660e-01 5.99345267e-01 6.51849926e-01 7.07790613e-01 7.59144306e-01 7.95272231e-01 8.05971444e-01 7.80009270e-01 7.07131267e-01 6.09606922e-01 5.50045133e-01 5.47452331e-01 5.73740125e-01 6.18611097e-01 6.69003904e-01 1.55672827e-03 7.54244579e-03 9.54202786e-02 3.69453579e-01 4.71625537e-01 4.34865147e-01 3.92579138e-01 3.71021509e-01 3.63929033e-01 3.65521401e-01 3.73361707e-01 3.87047201e-01 4.07113016e-01 4.34182376e-01 4.68337893e-01 5.08824646e-01 5.54186404e-01 6.02659166e-01 6.52255416e-01 7.00127721e-01 7.41805315e-01 7.71452606e-01 7.82896876e-01 7.70356297e-01 7.31764436e-01 6.79100752e-01 6.37421668e-01 6.19641840e-01 6.21860087e-01 6.48661733e-01 6.90455973e-01 1.16008765e-03 8.88068229e-03 1.44831479e-01 4.19239432e-01 4.52701300e-01 4.03514624e-01 3.69593024e-01 3.53024483e-01 3.45707983e-01 3.44362438e-01 3.48636121e-01 3.59570861e-01 3.78763616e-01 4.07690167e-01 4.46985751e-01 4.95709896e-01 5.50933838e-01 6.08129740e-01 6.62375808e-01 7.09588408e-01 7.46925771e-01 7.72335470e-01 7.83830822e-01 7.79225171e-01 7.57572055e-01 7.22935081e-01 6.85607791e-01 6.56321526e-01 6.42145395e-01 6.57247305e-01 6.97079241e-01 1.17670104e-03 1.13379620e-02 2.21790686e-01 4.87071514e-01 4.76472467e-01 4.28138435e-01 4.00361300e-01 3.83010745e-01 3.70538861e-01 3.62616360e-01 3.60607058e-01 3.66486847e-01 3.82430971e-01 4.10406083e-01 4.51507330e-01 5.04972816e-01 5.67254186e-01 6.32074416e-01 6.92145765e-01 7.41686523e-01 7.77819395e-01 8.00060093e-01 8.08837295e-01 8.04345846e-01 7.86586940e-01 7.56897688e-01 7.19856262e-01 6.83372438e-01 6.57238781e-01 6.59147620e-01 6.95692122e-01 2.96518370e-03 1.27480384e-02 3.22483659e-01 6.03074849e-01 5.59313357e-01 5.07723987e-01 4.82273400e-01 4.63375986e-01 4.47329372e-01 4.35370117e-01 4.29518580e-01 4.31968212e-01 4.44830507e-01 4.69750762e-01 5.07286787e-01 5.56115687e-01 6.12474680e-01 6.70516431e-01 7.23868489e-01 7.67595232e-01 7.99213111e-01 8.18286240e-01 8.25315356e-01 8.20880651e-01 8.05579126e-01 7.80796409e-01 7.49750853e-01 7.17924118e-01 6.92745209e-01 6.86111093e-01 7.09683239e-01 
