# vtk DataFile Version 2.0
results/5_density.vtk, Created by Freefem++ 
ASCII
DATASET UNSTRUCTURED_GRID
POINTS 961 float
0 0 0
0.033333333 0 0
0.066666667 0 0
0.1 0 0
0.13333333 0 0
0.16666667 0 0
0.2 0 0
0.23333333 0 0
0.26666667 0 0
0.3 0 0
0.33333333 0 0
0.36666667 0 0
0.4 0 0
0.43333333 0 0
0.46666667 0 0
0.5 0 0
0.53333333 0 0
0.56666667 0 0
0.6 0 0
0.63333333 0 0
0.66666667 0 0
0.7 0 0
0.73333333 0 0
0.76666667 0 0
0.8 0 0
0.83333333 0 0
0.86666667 0 0
0.9 0 0
0.93333333 0 0
0.96666667 0 0
1 0 0
0 0.033333333 0
0.033333333 0.033333333 0
0.066666667 0.033333333 0
0.1 0.033333333 0
0.13333333 0.033333333 0
0.16666667 0.033333333 0
0.2 0.033333333 0
0.23333333 0.033333333 0
0.26666667 0.033333333 0
0.3 0.033333333 0
0.33333333 0.033333333 0
0.36666667 0.033333333 0
0.4 0.033333333 0
0.43333333 0.033333333 0
0.46666667 0.033333333 0
0.5 0.033333333 0
0.53333333 0.033333333 0
0.56666667 0.033333333 0
0.6 0.033333333 0
0.63333333 0.033333333 0
0.66666667 0.033333333 0
0.7 0.033333333 0
0.73333333 0.033333333 0
0.76666667 0.033333333 0
0.8 0.033333333 0
0.83333333 0.033333333 0
0.86666667 0.033333333 0
0.9 0.033333333 0
0.93333333 0.033333333 0
0.96666667 0.033333333 0
1 0.033333333 0
0 0.066666667 0
0.033333333 0.066666667 0
0.066666667 0.066666667 0
0.1 0.066666667 0
0.13333333 0.066666667 0
0.16666667 0.066666667 0
0.2 0.066666667 0
0.23333333 0.066666667 0
0.26666667 0.066666667 0
0.3 0.066666667 0
0.33333333 0.066666667 0
0.36666667 0.066666667 0
0.4 0.066666667 0
0.43333333 0.066666667 0
0.46666667 0.066666667 0
0.5 0.066666667 0
0.53333333 0.066666667 0
0.56666667 0.066666667 0
0.6 0.066666667 0
0.63333333 0.066666667 0
0.66666667 0.066666667 0
0.7 0.066666667 0
0.73333333 0.066666667 0
0.76666667 0.066666667 0
0.8 0.066666667 0
0.83333333 0.066666667 0
0.86666667 0.066666667 0
0.9 0.066666667 0
0.93333333 0.066666667 0
0.96666667 0.066666667 0
1 0.066666667 0
0 0.1 0
0.033333333 0.1 0
0.066666667 0.1 0
0.1 0.1 0
0.13333333 0.1 0
0.16666667 0.1 0
0.2 0.1 0
0.23333333 0.1 0
0.26666667 0.1 0
0.3 0.1 0
0.33333333 0.1 0
0.36666667 0.1 0
0.4 0.1 0
0.43333333 0.1 0
0.46666667 0.1 0
0.5 0.1 0
0.53333333 0.1 0
0.56666667 0.1 0
0.6 0.1 0
0.63333333 0.1 0
0.66666667 0.1 0
0.7 0.1 0
0.73333333 0.1 0
0.76666667 0.1 0
0.8 0.1 0
0.83333333 0.1 0
0.86666667 0.1 0
0.9 0.1 0
0.93333333 0.1 0
0.96666667 0.1 0
1 0.1 0
0 0.13333333 0
0.033333333 0.13333333 0
0.066666667 0.13333333 0
0.1 0.13333333 0
0.13333333 0.13333333 0
0.16666667 0.13333333 0
0.2 0.13333333 0
0.23333333 0.13333333 0
0.26666667 0.13333333 0
0.3 0.13333333 0
0.33333333 0.13333333 0
0.36666667 0.13333333 0
0.4 0.13333333 0
0.43333333 0.13333333 0
0.46666667 0.13333333 0
0.5 0.13333333 0
0.53333333 0.13333333 0
0.56666667 0.13333333 0
0.6 0.13333333 0
0.63333333 0.13333333 0
0.66666667 0.13333333 0
0.7 0.13333333 0
0.73333333 0.13333333 0
0.76666667 0.13333333 0
0.8 0.13333333 0
0.83333333 0.13333333 0
0.86666667 0.13333333 0
0.9 0.13333333 0
0.93333333 0.13333333 0
0.96666667 0.13333333 0
1 0.13333333 0
0 0.16666667 0
0.033333333 0.16666667 0
0.066666667 0.16666667 0
0.1 0.16666667 0
0.13333333 0.16666667 0
0.16666667 0.16666667 0
0.2 0.16666667 0
0.23333333 0.16666667 0
0.26666667 0.16666667 0
0.3 0.16666667 0
0.33333333 0.16666667 0
0.36666667 0.16666667 0
0.4 0.16666667 0
0.43333333 0.16666667 0
0.46666667 0.16666667 0
0.5 0.16666667 0
0.53333333 0.16666667 0
0.56666667 0.16666667 0
0.6 0.16666667 0
0.63333333 0.16666667 0
0.66666667 0.16666667 0
0.7 0.16666667 0
0.73333333 0.16666667 0
0.76666667 0.16666667 0
0.8 0.16666667 0
0.83333333 0.16666667 0
0.86666667 0.16666667 0
0.9 0.16666667 0
0.93333333 0.16666667 0
0.96666667 0.16666667 0
1 0.16666667 0
0 0.2 0
0.033333333 0.2 0
0.066666667 0.2 0
0.1 0.2 0
0.13333333 0.2 0
0.16666667 0.2 0
0.2 0.2 0
0.23333333 0.2 0
0.26666667 0.2 0
0.3 0.2 0
0.33333333 0.2 0
0.36666667 0.2 0
0.4 0.2 0
0.43333333 0.2 0
0.46666667 0.2 0
0.5 0.2 0
0.53333333 0.2 0
0.56666667 0.2 0
0.6 0.2 0
0.63333333 0.2 0
0.66666667 0.2 0
0.7 0.2 0
0.73333333 0.2 0
0.76666667 0.2 0
0.8 0.2 0
0.83333333 0.2 0
0.86666667 0.2 0
0.9 0.2 0
0.93333333 0.2 0
0.96666667 0.2 0
1 0.2 0
0 0.23333333 0
0.033333333 0.23333333 0
0.066666667 0.23333333 0
0.1 0.23333333 0
0.13333333 0.23333333 0
0.16666667 0.23333333 0
0.2 0.23333333 0
0.23333333 0.23333333 0
0.26666667 0.23333333 0
0.3 0.23333333 0
0.33333333 0.23333333 0
0.36666667 0.23333333 0
0.4 0.23333333 0
0.43333333 0.23333333 0
0.46666667 0.23333333 0
0.5 0.23333333 0
0.53333333 0.23333333 0
0.56666667 0.23333333 0
0.6 0.23333333 0
0.63333333 0.23333333 0
0.66666667 0.23333333 0
0.7 0.23333333 0
0.73333333 0.23333333 0
0.76666667 0.23333333 0
0.8 0.23333333 0
0.83333333 0.23333333 0
0.86666667 0.23333333 0
0.9 0.23333333 0
0.93333333 0.23333333 0
0.96666667 0.23333333 0
1 0.23333333 0
0 0.26666667 0
0.033333333 0.26666667 0
0.066666667 0.26666667 0
0.1 0.26666667 0
0.13333333 0.26666667 0
0.16666667 0.26666667 0
0.2 0.26666667 0
0.23333333 0.26666667 0
0.26666667 0.26666667 0
0.3 0.26666667 0
0.33333333 0.26666667 0
0.36666667 0.26666667 0
0.4 0.26666667 0
0.43333333 0.26666667 0
0.46666667 0.26666667 0
0.5 0.26666667 0
0.53333333 0.26666667 0
0.56666667 0.26666667 0
0.6 0.26666667 0
0.63333333 0.26666667 0
0.66666667 0.26666667 0
0.7 0.26666667 0
0.73333333 0.26666667 0
0.76666667 0.26666667 0
0.8 0.26666667 0
0.83333333 0.26666667 0
0.86666667 0.26666667 0
0.9 0.26666667 0
0.93333333 0.26666667 0
0.96666667 0.26666667 0
1 0.26666667 0
0 0.3 0
0.033333333 0.3 0
0.066666667 0.3 0
0.1 0.3 0
0.13333333 0.3 0
0.16666667 0.3 0
0.2 0.3 0
0.23333333 0.3 0
0.26666667 0.3 0
0.3 0.3 0
0.33333333 0.3 0
0.36666667 0.3 0
0.4 0.3 0
0.43333333 0.3 0
0.46666667 0.3 0
0.5 0.3 0
0.53333333 0.3 0
0.56666667 0.3 0
0.6 0.3 0
0.63333333 0.3 0
0.66666667 0.3 0
0.7 0.3 0
0.73333333 0.3 0
0.76666667 0.3 0
0.8 0.3 0
0.83333333 0.3 0
0.86666667 0.3 0
0.9 0.3 0
0.93333333 0.3 0
0.96666667 0.3 0
1 0.3 0
0 0.33333333 0
0.033333333 0.33333333 0
0.066666667 0.33333333 0
0.1 0.33333333 0
0.13333333 0.33333333 0
0.16666667 0.33333333 0
0.2 0.33333333 0
0.23333333 0.33333333 0
0.26666667 0.33333333 0
0.3 0.33333333 0
0.33333333 0.33333333 0
0.36666667 0.33333333 0
0.4 0.33333333 0
0.43333333 0.33333333 0
0.46666667 0.33333333 0
0.5 0.33333333 0
0.53333333 0.33333333 0
0.56666667 0.33333333 0
0.6 0.33333333 0
0.63333333 0.33333333 0
0.66666667 0.33333333 0
0.7 0.33333333 0
0.73333333 0.33333333 0
0.76666667 0.33333333 0
0.8 0.33333333 0
0.83333333 0.33333333 0
0.86666667 0.33333333 0
0.9 0.33333333 0
0.93333333 0.33333333 0
0.96666667 0.33333333 0
1 0.33333333 0
0 0.36666667 0
0.033333333 0.36666667 0
0.066666667 0.36666667 0
0.1 0.36666667 0
0.13333333 0.36666667 0
0.16666667 0.36666667 0
0.2 0.36666667 0
0.23333333 0.36666667 0
0.26666667 0.36666667 0
0.3 0.36666667 0
0.33333333 0.36666667 0
0.36666667 0.36666667 0
0.4 0.36666667 0
0.43333333 0.36666667 0
0.46666667 0.36666667 0
0.5 0.36666667 0
0.53333333 0.36666667 0
0.56666667 0.36666667 0
0.6 0.36666667 0
0.63333333 0.36666667 0
0.66666667 0.36666667 0
0.7 0.36666667 0
0.73333333 0.36666667 0
0.76666667 0.36666667 0
0.8 0.36666667 0
0.83333333 0.36666667 0
0.86666667 0.36666667 0
0.9 0.36666667 0
0.93333333 0.36666667 0
0.96666667 0.36666667 0
1 0.36666667 0
0 0.4 0
0.033333333 0.4 0
0.066666667 0.4 0
0.1 0.4 0
0.13333333 0.4 0
0.16666667 0.4 0
0.2 0.4 0
0.23333333 0.4 0
0.26666667 0.4 0
0.3 0.4 0
0.33333333 0.4 0
0.36666667 0.4 0
0.4 0.4 0
0.43333333 0.4 0
0.46666667 0.4 0
0.5 0.4 0
0.53333333 0.4 0
0.56666667 0.4 0
0.6 0.4 0
0.63333333 0.4 0
0.66666667 0.4 0
0.7 0.4 0
0.73333333 0.4 0
0.76666667 0.4 0
0.8 0.4 0
0.83333333 0.4 0
0.86666667 0.4 0
0.9 0.4 0
0.93333333 0.4 0
0.96666667 0.4 0
1 0.4 0
0 0.43333333 0
0.033333333 0.43333333 0
0.066666667 0.43333333 0
0.1 0.43333333 0
0.13333333 0.43333333 0
0.16666667 0.43333333 0
0.2 0.43333333 0
0.23333333 0.43333333 0
0.26666667 0.43333333 0
0.3 0.43333333 0
0.33333333 0.43333333 0
0.36666667 0.43333333 0
0.4 0.43333333 0
0.43333333 0.43333333 0
0.46666667 0.43333333 0
0.5 0.43333333 0
0.53333333 0.43333333 0
0.56666667 0.43333333 0
0.6 0.43333333 0
0.63333333 0.43333333 0
0.66666667 0.43333333 0
0.7 0.43333333 0
0.73333333 0.43333333 0
0.76666667 0.43333333 0
0.8 0.43333333 0
0.83333333 0.43333333 0
0.86666667 0.43333333 0
0.9 0.43333333 0
0.93333333 0.43333333 0
0.96666667 0.43333333 0
1 0.43333333 0
0 0.46666667 0
0.033333333 0.46666667 0
0.066666667 0.46666667 0
0.1 0.46666667 0
0.13333333 0.46666667 0
0.16666667 0.46666667 0
0.2 0.46666667 0
0.23333333 0.46666667 0
0.26666667 0.46666667 0
0.3 0.46666667 0
0.33333333 0.46666667 0
0.36666667 0.46666667 0
0.4 0.46666667 0
0.43333333 0.46666667 0
0.46666667 0.46666667 0
0.5 0.46666667 0
0.53333333 0.46666667 0
0.56666667 0.46666667 0
0.6 0.46666667 0
0.63333333 0.46666667 0
0.66666667 0.46666667 0
0.7 0.46666667 0
0.73333333 0.46666667 0
0.76666667 0.46666667 0
0.8 0.46666667 0
0.83333333 0.46666667 0
0.86666667 0.46666667 0
0.9 0.46666667 0
0.93333333 0.46666667 0
0.96666667 0.46666667 0
1 0.46666667 0
0 0.5 0
0.033333333 0.5 0
0.066666667 0.5 0
0.1 0.5 0
0.13333333 0.5 0
0.16666667 0.5 0
0.2 0.5 0
0.23333333 0.5 0
0.26666667 0.5 0
0.3 0.5 0
0.33333333 0.5 0
0.36666667 0.5 0
0.4 0.5 0
0.43333333 0.5 0
0.46666667 0.5 0
0.5 0.5 0
0.53333333 0.5 0
0.56666667 0.5 0
0.6 0.5 0
0.63333333 0.5 0
0.66666667 0.5 0
0.7 0.5 0
0.73333333 0.5 0
0.76666667 0.5 0
0.8 0.5 0
0.83333333 0.5 0
0.86666667 0.5 0
0.9 0.5 0
0.93333333 0.5 0
0.96666667 0.5 0
1 0.5 0
0 0.53333333 0
0.033333333 0.53333333 0
0.066666667 0.53333333 0
0.1 0.53333333 0
0.13333333 0.53333333 0
0.16666667 0.53333333 0
0.2 0.53333333 0
0.23333333 0.53333333 0
0.26666667 0.53333333 0
0.3 0.53333333 0
0.33333333 0.53333333 0
0.36666667 0.53333333 0
0.4 0.53333333 0
0.43333333 0.53333333 0
0.46666667 0.53333333 0
0.5 0.53333333 0
0.53333333 0.53333333 0
0.56666667 0.53333333 0
0.6 0.53333333 0
0.63333333 0.53333333 0
0.66666667 0.53333333 0
0.7 0.53333333 0
0.73333333 0.53333333 0
0.76666667 0.53333333 0
0.8 0.53333333 0
[...]
CELL_DATA 1920
Scalars  Label int 1
LOOKUP_TABLE FreeFempp_table
0
0
0
0
0
0
0
0
0
0
0
0
0
0
0
0
0
0
0
0
0
0
0
0
0
0
0
0
0
0
0
0
0
0
0
0
0
0
0
0
0
0
0
0
0
0
0
0
0
0
0
0
0
0
0
0
0
0
0
0
0
0
0
0
0
0
0
0
0
0
0
0
0
0
0
0
0
0
0
0
0
0
0
0
0
0
0
0
0
0
0
0
0
0
0
0
0
0
0
0
0
0
0
0
0
0
0
0
0
0
0
0
0
0
0
0
0
0
0
0
0
0
0
0
0
0
0
0
0
0
0
0
0
0
0
0
0
0
0
0
0
0
0
0
0
0
0
0
0
0
0
0
0
0
0
0
0
0
0
0
0
0
0
0
0
0
0
0
0
0
0
0
0
0
0
0
0
0
0
0
0
0
0
0
0
0
0
0
0
0
0
0
0
0
0
0
0
0
0
0
0
0
0
0
0
0
0
0
0
0
0
0
0
0
0
0
0
0
0
0
0
0
0
0
0
0
0
0
0
0
0
0
0
0
0
0
0
0
0
0
0
0
0
0
0
0
0
0
0
0
0
0
0
0
0
0
0
0
0
0
0
0
0
0
0
0
0
0
0
0
0
0
0
0
0
0
0
0
0
0
0
0
0
0
0
0
0
0
0
0
0
0
0
0
0
0
0
0
0
0
0
0
0
0
0
0
0
0
0
0
0
0
0
0
0
0
0
0
0
0
0
0
0
0
0
0
0
0
0
0
0
0
0
0
0
0
0
0
0
0
0
0
0
0
0
0
0
0
0
0
0
0
0
0
0
0
0
0
0
0
0
0
0
0
0
0
0
0
0
0
0
0
0
0
0
0
0
0
0
0
0
0
0
0
0
0
0
0
0
0
0
0
0
0
0
0
0
0
0
0
0
0
0
0
0
0
0
0
0
0
0
0
0
0
0
0
0
0
0
0
0
0
0
0
0
0
0
0
0
0
0
0
0
0
0
0
0
0
0
0
0
0
0
0
0
0
0
0
0
0
0
0
0
0
0
0
0
0
0
0
0
0
0
0
0
0
0
0
0
0
0
0
0
0
0
0
0
0
0
0
0
0
0
0
0
0
0
0
0
0
0
0
0
0
0
0
0
0
0
0
0
0
0
0
0
0
0
0
0
0
0
0
0
0
0
0
0
0
0
0
0
0
0
0
0
0
0
0
0
0
0
0
0
0
0
0
0
0
0
0
0
0
0
0
0
0
0
0
0
0
0
0
0
0
0
0
0
0
0
0
0
0
0
0
0
0
0
0
0
0
0
0
0
0
0
0
0
0
0
0
0
0
0
0
0
0
0
0
0
0
0
0
0
0
0
0
0
0
0
0
0
0
0
0
0
0
0
0
0
0
0
0
0
0
0
0
0
0
0
0
0
0
0
0
0
0
0
0
0
0
0
0
0
0
0
0
0
0
0
0
0
0
0
0
0
0
0
0
0
0
0
0
0
0
0
0
0
0
0
0
0
0
0
0
0
0
0
0
0
0
0
0
0
0
0
0
0
0
0
0
0
0
0
0
0
0
0
0
0
0
0
0
0
0
0
0
0
0
0
0
0
0
0
0
0
0
0
0
0
0
0
0
0
0
0
0
0
0
0
0
0
0
0
0
0
0
0
0
0
0
0
0
0
0
0
0
0
0
0
0
0
0
0
0
0
0
0
0
0
0
0
0
0
0
0
0
0
0
0
0
0
0
0
0
0
0
0
0
0
0
0
0
0
0
0
0
0
0
0
0
0
0
0
0
0
0
0
0
0
0
0
0
0
0
0
0
0
0
0
0
0
0
0
0
0
0
0
0
0
0
0
0
0
0
0
0
0
0
0
0
0
0
0
0
0
0
0
0
0
0
0
0
0
0
0
0
0
0
0
0
0
0
0
0
0
0
0
0
0
0
0
0
0
0
0
0
0
0
0
0
0
0
0
0
0
0
0
0
0
0
0
0
0
0
0
0
0
0
0
0
0
0
0
0
0
0
0
0
0
0
0
0
0
0
0
0
0
0
0
0
0
0
0
0
0
0
0
0
0
0
0
0
0
0
0
0
0
0
0
0
0
0
0
0
0
0
0
0
0
0
0
0
0
0
0
0
0
0
0
0
0
0
0
0
0
0
0
0
0
0
0
0
0
0
0
0
0
0
0
0
0
0
0
0
0
0
0
0
0
0
0
0
0
0
0
0
0
0
0
0
0
0
0
0
0
0
0
0
0
0
0
0
0
0
0
0
0
0
0
0
0
0
0
0
0
0
0
0
0
0
0
0
0
0
0
0
0
0
0
0
0
0
0
0
0
0
0
0
0
0
0
0
0
0
0
0
0
0
0
0
0
0
0
0
0
0
0
0
0
0
0
0
0
0
0
0
0
0
0
0
0
0
0
0
0
0
0
0
0
0
0
0
0
0
0
0
0
0
0
0
0
0
0
0
0
0
0
0
0
0
0
0
0
0
0
0
0
0
0
0
0
0
0
0
0
0
0
0
0
0
0
0
0
0
0
0
0
0
0
0
0
0
0
0
0
0
0
0
0
0
0
0
0
0
0
0
0
0
0
0
0
0
0
0
0
0
0
0
0
0
0
0
0
0
0
0
0
0
0
0
0
0
0
0
0
0
0
0
0
0
0
0
0
0
0
0
0
0
0
0
0
0
0
0
0
0
0
0
0
0
0
0
0
0
0
0
0
0
0
0
0
0
0
0
0
0
0
0
0
0
0
0
0
0
0
0
0
0
0
0
0
0
0
0
0
0
0
0
0
0
0
0
0
0
0
0
0
0
0
0
0
0
0
0
0
0
0
0
0
0
0
0
0
0
0
0
0
0
0
0
0
0
0
0
0
0
0
0
0
0
0
0
0
0
0
0
0
0
0
0
0
0
0
0
0
0
0
0
0
0
0
0
0
0
0
0
0
0
0
0
0
0
0
0
0
0
0
0
0
0
0
0
0
0
0
0
0
0
0
0
0
0
0
0
0
0
0
0
0
0
0
0
0
0
0
0
0
0
0
0
0
0
0
0
0
0
0
0
0
0
0
0
0
0
0
0
0
0
0
0
0
0
0
0
0
0
0
0
0
0
0
0
0
0
0
0
0
0
0
0
0
0
0
0
0
0
0
0
0
0
0
0
0
0
0
0
0
0
0
0
0
0
0
0
0
0
0
0
0
0
0
0
0
0
0
0
0
0
0
0
0
0
0
0
0
0
0
0
0
0
0
0
0
0
0
0
0
0
0
0
0
0
0
0
0
0
0
0
0
0
0
0
0
0
0
0
0
0
0
0
0
0
0
0
0
0
0
0
0
0
0
0
0
0
0
0
0
0
0
0
0
0
0
0
0
0
0
0
0
0
0
0
0
0
0
0
0
0
0
0
0
0
0
0
0
0
0
0
0
0
0
0
0
0
0
0
0
0
0
0
0
0
0
0
0
0
0
0
0
0
0
0
0
0
0
0
0
0
0
0
0
0
0
0
0
0
0
0
0
0
0
0
0
0
0
0
0
0
0
0
0
0
0
0
0
0
0
0
0
0
0
0
0
0
0
0
0
0
0
0
0
0
0
0
0
0
0
0
0
0
0
0
0
0
0
0
0
0
0
0
0
0
0
0
0
0
0
0
0
0
0
0
0
0
0
0
0
0
0
0
0
0
0
0
0
0
0
0
0
0
0
0
0
0
0
0
0
0
0
0
0
0
0
0
0
0
0
0
0
0
0
0
0
0
0
0
0
0
0
0
0
0
0
0
0
0
0
0
0
0
0
0
0
0
0
0
0
0
0
0
0
0
0
0
0
0
0
0
0
0
0
0
0
0
0
0
0
0
0
0
0
0
0
0
0
0
0
0
0
0
0
0
0
0
0
0
0
0
0
0
0
0
0
0
0
0
0
0
0
0
0
0
0
0
0
0
0
0
0
0
0
0
0
0
0
0
0
0
0
0
0
0
0
0
0
0
0
0
0
0
0
0
0
0
0
0
0
0
0
0
0
0
0
0
0
0
0
0
0
0
0
0
0
0
0
0
0
0
0
0
0
0
0
0
0
0
0
0
0
0
1
1
1
1
1
1
1
1
1
1
1
1
1
1
1
1
1
1
1
1
1
1
1
1
1
1
1
1
1
1
2
2
2
2
2
2
2
2
2
2
2
2
2
2
2
2
2
2
2
2
2
2
2
2
2
2
2
2
2
2
3
3
3
3
3
3
3
3
3
3
3
3
3
3
3
3
3
3
3
3
3
3
3
3
3
3
3
3
3
3
4
4
4
4
4
4
4
4
4
4
4
4
4
4
4
4
4
4
4
4
4
4
4
4
4
4
4
4
4
4

LOOKUP_TABLE FreeFempp_table 5
1.00000000 0.00000000 0.00000000 1.00000000
1.00000000 1.00000000 0.00000000 1.00000000
1.00000000 0.00000000 1.00000000 1.00000000
0.00000000 1.00000000 0.00000000 1.00000000
0.00000000 1.00000000 1.00000000 1.00000000

POINT_DATA 961
FIELD FieldData 1
Density 1 961 float
5.52495122e-01 4.88506347e-01 4.76704031e-01 4.74772066e-01 4.73931313e-01 4.72398460e-01 4.65375662e-01 4.30082560e-01 2.46481091e-01 2.80466564e-02 3.47910449e-03 4.54499433e-03 5.09221554e-02 2.97896117e-01 4.94463295e-01 7.03036726e-01 8.58045101e-01 8.42816889e-01 7.31620193e-01 7.57365346e-01 8.00097227e-01 7.82428443e-01 7.48222888e-01 7.18639970e-01 6.91273987e-01 6.75239742e-01 6.66209102e-01 6.60791993e-01 6.57036245e-01 6.54397011e-01 6.51457369e-01 2.82027990e-01 2.52738744e-01 2.41845995e-01 2.40912050e-01 2.40267158e-01 2.38712057e-01 2.32359365e-01 2.06469089e-01 1.24950506e-01 2.35744081e-02 3.02815298e-03 2.35428335e-03 2.16600616e-02 2.10552812e-01 4.21103030e-01 6.56685889e-01 8.69156778e-01 8.27590466e-01 5.20916700e-01 5.44502437e-01 7.14358151e-01 7.72852361e-01 7.74501085e-01 7.51558661e-01 7.09266424e-01 6.83501482e-01 6.67663276e-01 6.58319056e-01 6.51896000e-01 6.49220526e-01 6.49631202e-01 4.96486109e-03 5.57497144e-03 5.28828800e-03 5.33040101e-03 5.34619531e-03 5.32308035e-03 5.25478134e-03 5.02559450e-03 4.24735574e-03 2.21438240e-03 7.75466091e-04 7.16166163e-04 4.35162894e-03 7.06029236e-02 2.42961749e-01 5.01429379e-01 8.03347170e-01 6.42839551e-01 5.49466237e-02 3.07860076e-02 8.57134759e-02 1.85527205e-01 3.88674349e-01 5.06861567e-01 5.67011774e-01 6.42335713e-01 6.32241786e-01 6.20825291e-01 6.12801194e-01 6.12611175e-01 6.26360536e-01 6.77484274e-03 4.98348102e-03 4.76629287e-03 4.85773664e-03 4.97964630e-03 5.06815268e-03 5.13928151e-03 5.18759619e-03 5.19127818e-03 5.09498222e-03 4.79174266e-03 2.78270850e-03 8.68891366e-04 3.16878431e-03 9.76114534e-03 8.76762420e-02 5.21583855e-01 8.30469728e-01 9.00867060e-02 8.09503812e-03 5.42942993e-03 6.43299473e-03 8.72874353e-03 1.17726056e-02 2.48037148e-02 3.03051949e-01 5.34444928e-01 5.52426219e-01 5.49393296e-01 5.55815220e-01 5.86744845e-01 2.62311250e-01 1.93349943e-01 1.81245580e-01 1.86137259e-01 1.93636477e-01 2.01848447e-01 2.10168362e-01 2.17443034e-01 2.21423224e-01 2.17307776e-01 1.87279746e-01 9.25120562e-02 1.24596450e-02 4.28822031e-03 1.06339413e-03 2.90619838e-03 2.20543332e-02 6.87399387e-01 8.16539526e-01 8.61043185e-02 7.41242757e-03 2.67960643e-03 1.58835901e-03 1.09976798e-03 1.40218239e-03 1.12017775e-02 2.30500624e-01 4.59571034e-01 4.86530215e-01 5.02485514e-01 5.48055470e-01 4.56528336e-01 3.83796126e-01 3.55171025e-01 3.60766143e-01 3.71126264e-01 3.82835686e-01 3.94985348e-01 4.06506449e-01 4.16107118e-01 4.22113538e-01 4.19256777e-01 3.86704892e-01 2.82573164e-01 1.59401000e-01 1.98201817e-02 7.07267411e-03 4.14048508e-03 9.88862570e-03 6.64659813e-02 7.87102759e-01 1.10768229e-01 2.02083644e-02 1.52445883e-02 1.48104401e-02 1.19264908e-02 6.15853956e-03 1.10040233e-02 2.05431387e-01 4.17782933e-01 4.64924037e-01 5.20991564e-01 5.27201355e-01 4.65192407e-01 4.40172762e-01 4.41948503e-01 4.46502507e-01 4.52340603e-01 4.58885700e-01 4.65585321e-01 4.71947998e-01 4.77459013e-01 4.81201202e-01 4.81287330e-01 4.75511342e-01 4.61561978e-01 3.55577081e-01 2.67052263e-01 1.26955032e-01 9.28995851e-03 1.95274502e-03 3.18705551e-02 7.05686510e-01 6.02555573e-01 6.07756138e-01 7.31380999e-01 6.75279915e-01 3.44657034e-01 1.83814168e-02 1.12975128e-02 1.88745722e-01 4.17632580e-01 5.00972092e-01 5.89518845e-01 5.53797781e-01 5.40253401e-01 5.39520919e-01 5.38662791e-01 5.39022744e-01 5.40623605e-01 5.43267131e-01 5.46579063e-01 5.49942672e-01 5.52581906e-01 5.53975463e-01 5.54097414e-01 5.52514911e-01 5.44882417e-01 5.40498853e-01 4.90842462e-01 2.37790912e-01 1.52675575e-02 5.98212192e-03 2.33689509e-02 5.09042799e-01 7.82685339e-01 8.19165826e-01 7.00408399e-01 4.80091661e-01 5.16941369e-01 2.71210521e-02 1.13918390e-02 2.00832665e-01 4.33847249e-01 6.42663360e-01 6.31386757e-01 6.25884295e-01 6.23226047e-01 6.19366586e-01 6.16485417e-01 6.15068614e-01 6.15206301e-01 6.16575062e-01 6.18506014e-01 6.20271087e-01 6.21560395e-01 6.22573972e-01 6.23359144e-01 6.23594403e-01 6.23795629e-01 6.18560731e-01 5.89943051e-01 4.30772334e-01 2.17523992e-01 1.34005817e-02 7.82843027e-03 1.83124337e-02 3.52907777e-02 2.74920929e-02 1.96046866e-02 5.77817038e-02 6.86387241e-01 3.17766033e-02 1.13849919e-02 1.21964306e-01 6.79400682e-01 6.85680628e-01 6.84593558e-01 6.80423260e-01 6.75284028e-01 6.70952857e-01 6.68010712e-01 6.66679621e-01 6.66694105e-01 6.67447507e-01 6.68356717e-01 6.69261456e-01 6.70480669e-01 6.72436297e-01 6.75447524e-01 6.79916799e-01 6.85921013e-01 6.92602813e-01 6.92114890e-01 6.65731072e-01 3.76170218e-01 1.49179697e-02 1.30425219e-03 1.51743065e-03 1.97987491e-03 2.88754958e-03 7.96158332e-03 2.32437506e-01 7.11938441e-01 9.16555431e-03 3.59564507e-03 6.94817066e-01 7.10632086e-01 7.11580813e-01 7.06318438e-01 7.00762630e-01 6.96007788e-01 6.92522824e-01 6.90488577e-01 6.89614594e-01 6.89317107e-01 6.89108670e-01 6.88938022e-01 6.89226747e-01 6.90641224e-01 6.93928480e-01 6.99916720e-01 7.09676147e-01 7.24705279e-01 7.45768070e-01 7.69506454e-01 7.76649833e-01 5.55627763e-01 3.05907167e-02 1.34095820e-02 1.06450841e-02 7.92158861e-03 7.90933333e-03 6.55968562e-02 8.86129320e-01 1.96442902e-02 7.34570902e-04 6.86067760e-01 7.03239143e-01 7.04609632e-01 6.98885798e-01 6.93863213e-01 6.89913929e-01 6.87197149e-01 6.85654938e-01 6.84799671e-01 6.83925569e-01 6.82522893e-01 6.80576861e-01 6.78568661e-01 6.77273870e-01 6.77590609e-01 6.80488944e-01 6.87147737e-01 6.99212909e-01 7.18574107e-01 7.46633947e-01 7.84367561e-01 8.30208063e-01 7.95643330e-01 7.59371161e-01 6.89735591e-01 4.06112164e-01 1.95874184e-01 3.02877754e-01 9.47918713e-01 2.52221823e-02 4.42369550e-04 6.51832163e-01 6.59710705e-01 6.58648789e-01 6.53516650e-01 6.51291013e-01 6.51136041e-01 6.52317524e-01 6.54116631e-01 6.55551672e-01 6.55623972e-01 6.53747916e-01 6.49969220e-01 6.44863248e-01 6.39267445e-01 6.34045124e-01 6.29973948e-01 6.27806902e-01 6.28435791e-01 6.32927835e-01 6.42732441e-01 6.60682082e-01 6.94515228e-01 7.48744607e-01 8.18636060e-01 8.54411423e-01 8.66944671e-01 8.86246085e-01 9.18537855e-01 9.54361796e-01 2.36652829e-02 2.76189909e-04 5.95091224e-01 5.77468157e-01 5.65772772e-01 5.62415481e-01 5.67825556e-01 5.77907860e-01 5.89581192e-01 6.00541472e-01 6.08805954e-01 6.12984002e-01 6.12603128e-01 6.08069658e-01 6.00328684e-01 5.90460479e-01 5.79390049e-01 5.67775130e-01 5.56087852e-01 5.44813633e-01 5.34619212e-01 5.26564360e-01 5.22280395e-01 5.23298681e-01 5.30116141e-01 5.45099318e-01 5.64521253e-01 6.35044456e-01 8.41932416e-01 9.62466598e-01 9.35213983e-01 1.92673653e-02 2.71823141e-04 5.27731359e-01 4.65177625e-01 4.26767468e-01 4.24610019e-01 4.43759561e-01 4.73016918e-01 5.04812121e-01 5.33507228e-01 5.55068314e-01 5.67655623e-01 5.71473062e-01 5.67970514e-01 5.59006631e-01 5.46267986e-01 5.31000257e-01 5.14019608e-01 4.95959342e-01 4.77650344e-01 4.60441351e-01 4.46266264e-01 4.37163830e-01 4.33893770e-01 4.34666246e-01 4.39425141e-01 4.66168284e-01 5.88836133e-01 8.60446870e-01 9.56934452e-01 7.39226401e-01 1.32507393e-02 3.69940390e-04 4.68564510e-01 3.48701537e-01 2.72003770e-01 2.67763853e-01 3.00159067e-01 3.51685613e-01 4.10477668e-01 4.64788884e-01 5.05716383e-01 5.30330718e-01 5.40312171e-01 5.39125443e-01 5.30183136e-01 5.16095161e-01 4.98570770e-01 4.78686303e-01 4.57381248e-01 4.36045051e-01 4.16924834e-01 4.03063595e-01 3.97745579e-01 4.03996050e-01 4.25504744e-01 4.71737027e-01 5.69848061e-01 7.55398214e-01 9.16013062e-01 9.03321505e-01 1.07399471e-01 4.62848274e-03 4.06596519e-04 4.31860268e-01 2.54411697e-01 1.49807438e-01 1.42634392e-01 1.77745417e-01 2.41485938e-01 3.24284643e-01 4.06731218e-01 4.69731450e-01 5.07303953e-01 5.23407757e-01 5.24527192e-01 5.16075790e-01 5.01636147e-01 4.83280540e-01 4.62234408e-01 4.39679742e-01 4.17569220e-01 3.99150908e-01 3.88942897e-01 3.92476708e-01 4.16850060e-01 4.72852945e-01 5.75451851e-01 7.27404296e-01 8.71715426e-01 9.18807685e-01 7.20883071e-01 2.53697187e-02 1.92459568e-03 1.08093990e-03 4.19293225e-01 1.88935742e-01 7.69485086e-02 6.97860122e-02 9.95833576e-02 1.63561568e-01 2.61710972e-01 3.69266421e-01 4.52226937e-01 4.99939531e-01 5.19823968e-01 5.22087276e-01 5.14068305e-01 4.99972850e-01 4.81920540e-01 4.61110353e-01 4.38956708e-01 4.18150812e-01 4.03354228e-01 4.01336551e-01 4.21018630e-01 4.73823994e-01 5.71118951e-01 7.07842827e-01 8.38086545e-01 9.01428044e-01 8.33451450e-01 1.88913181e-01 8.94033071e-03 2.00383831e-03 2.47212406e-03 4.23322678e-01 1.45191133e-01 3.96602713e-02 3.43408659e-02 5.77977449e-02 1.19162902e-01 2.29442030e-01 3.57944489e-01 4.54100043e-01 5.05520403e-01 5.25253832e-01 5.27113557e-01 5.19531310e-01 5.06616116e-01 4.90136623e-01 4.71188396e-01 4.51612383e-01 4.35247898e-01 4.28737342e-01 4.41699535e-01 4.86130893e-01 5.72125435e-01 6.93003476e-01 8.10929537e-01 8.79605055e-01 8.60688567e-01 5.19578934e-01 3.95891629e-02 4.00685659e-03 3.10778175e-03 6.49890583e-03 4.33679998e-01 1.15350984e-01 2.19886024e-02 1.84358153e-02 3.73810902e-02 1.00056566e-01 2.27922484e-01 3.73634309e-01 4.71869916e-01 5.18400490e-01 5.33917904e-01 5.34363866e-01 5.27775049e-01 5.17278135e-01 5.03975987e-01 4.88971531e-01 4.74900216e-01 4.67184246e-01 4.74656731e-01 5.08938789e-01 5.80387056e-01 6.85050905e-01 7.91026711e-01 8.58911455e-01 8.59214664e-01 6.67290151e-01 1.32232860e-01 1.38572371e-02 3.60092754e-03 6.55412581e-03 2.59901397e-02 4.42214042e-01 9.36778933e-02 1.37307514e-02 1.13866776e-02 2.83188187e-02 1.00209914e-01 2.56587088e-01 4.11832660e-01 4.97951716e-01 5.31687737e-01 5.40449619e-01 5.39661467e-01 5.35319567e-01 5.28810143e-01 5.20446718e-01 5.11585712e-01 5.05978048e-01 5.10657310e-01 5.35729468e-01 5.91333449e-01 6.78275645e-01 7.74671316e-01 8.44056785e-01 8.59766006e-01 7.55945861e-01 3.10535550e-01 3.90048921e-02 8.20545666e-03 5.37565676e-03 1.42495250e-02 8.60016495e-02 4.43420410e-01 7.56640360e-02 9.36833210e-03 7.99293257e-03 2.53486242e-02 1.18545651e-01 3.13178927e-01 4.61431295e-01 5.22598743e-01 5.39402485e-01 5.41410446e-01 5.40842593e-01 5.40425956e-01 5.39415002e-01 5.37410676e-01 5.36241174e-01 5.40771484e-01 5.58941305e-01 5.99958658e-01 6.68283045e-01 7.53173590e-01 8.26670647e-01 8.61738443e-01 8.25983644e-01 5.73590875e-01 1.26455948e-01 2.15231404e-02 9.29164048e-03 1.08398907e-02 3.44719961e-02 1.77337289e-01 4.37226176e-01 6.01135455e-02 6.67520566e-03 6.17616484e-03 2.64127795e-02 1.57974482e-01 3.88077527e-01 5.07582605e-01 5.37651062e-01 5.38233399e-01 5.35811126e-01 5.37673056e-01 5.42753935e-01 5.48233092e-01 5.53202450e-01 5.59991479e-01 5.74165523e-01 6.03399694e-01 6.54005051e-01 7.23877013e-01 7.96541750e-01 8.48187804e-01 8.58562291e-01 7.78688550e-01 4.37576532e-01 9.06351209e-02 2.51056217e-02 1.88717134e-02 3.07816789e-02 9.85526741e-02 3.00272852e-01 4.27082926e-01 4.80357967e-02 4.91866237e-03 5.25404233e-03 3.19963917e-02 2.21780598e-01 4.63411033e-01 5.38467646e-01 5.39063156e-01 5.27725458e-01 5.24417460e-01 5.30868828e-01 5.42437017e-01 5.54682195e-01 5.66409707e-01 5.80211103e-01 6.01673961e-01 6.37287438e-01 6.90130532e-01 7.54104733e-01 8.12999308e-01 8.48990381e-01 8.44688118e-01 7.47305870e-01 4.26128089e-01 1.27536818e-01 5.99379167e-02 6.38931617e-02 1.15984745e-01 2.59369731e-01 4.50946987e-01 4.16584671e-01 4.00961637e-02 3.79394600e-03 5.02608251e-03 4.52846289e-02 3.06554258e-01 5.21870792e-01 5.48762202e-01 5.26413441e-01 5.09082735e-01 5.08431852e-01 5.20892203e-01 5.39143503e-01 5.57889521e-01 5.75812280e-01 5.95260978e-01 6.21058524e-01 6.58174515e-01 7.07613885e-01 7.62499988e-01 8.09543550e-01 8.35530639e-01 8.25875282e-01 7.41549790e-01 5.11296749e-01 2.66581059e-01 1.96111783e-01 2.38466710e-01 3.51415068e-01 4.91699129e-01 5.85471809e-01 4.08719927e-01 3.60333249e-02 3.11060529e-03 5.37824212e-03 7.29582161e-02 3.98244739e-01 5.54100037e-01 5.38128972e-01 5.01469076e-01 4.84042466e-01 4.88526076e-01 5.07206500e-01 5.31533957e-01 5.56293190e-01 5.80139399e-01 6.04520798e-01 6.32627249e-01 6.67784750e-01 7.10368276e-01 7.55060196e-01 7.92279422e-01 8.12401235e-01 8.04631472e-01 7.47850895e-01 6.18982613e-01 4.81629431e-01 4.49406654e-01 5.11167467e-01 5.97859621e-01 6.60111010e-01 6.73835218e-01 4.06173259e-01 3.55193727e-02 2.74079503e-03 6.11106725e-03 1.22386031e-01 4.76130843e-01 5.57515800e-01 5.09481251e-01 4.67864633e-01 4.54685956e-01 4.64753717e-01 4.88334447e-01 5.17342091e-01 5.47518969e-01 5.77557921e-01 6.07470036e-01 6.38003647e-01 6.70382380e-01 7.04906344e-01 7.39022076e-01 7.67438710e-01 7.84106970e-01 7.82088220e-01 7.52026498e-01 6.91620171e-01 6.34508073e-01 6.28416598e-01 6.65254891e-01 7.08813608e-01 7.33469725e-01 7.17972815e-01 4.09708917e-01 3.88691314e-02 2.62168562e-03 6.92299008e-03 1.89997420e-01 5.21437109e-01 5.34122348e-01 4.69945282e-01 4.31850582e-01 4.24059540e-01 4.37346518e-01 4.62737292e-01 4.94053364e-01 5.28497696e-01 5.64869583e-01 6.01691544e-01 6.37039483e-01 6.69482648e-01 6.98506057e-01 7.23789215e-01 7.44364083e-01 7.58322358e-01 7.62355030e-01 7.52311409e-01 7.28972852e-01 7.06930697e-01 7.04243958e-01 7.19112873e-01 7.39206135e-01 7.50605345e-01 7.29694903e-01 4.16693181e-01 4.73097563e-02 2.68918439e-03 7.37549225e-03 2.51258492e-01 5.26659429e-01 4.93995458e-01 4.31516796e-01 4.00530308e-01 3.94356132e-01 4.05314088e-01 4.27735835e-01 4.58024502e-01 4.94742185e-01 5.36887407e-01 5.82084894e-01 6.26481295e-01 6.66179299e-01 6.98732495e-01 7.23585069e-01 7.41499543e-01 7.53416598e-01 7.59169638e-01 7.57241726e-01 7.47233033e-01 7.33665168e-01 7.24089205e-01 7.21718311e-01 7.25397050e-01 7.30309427e-01 7.15645611e-01 4.71792072e-01 7.12752268e-02 3.15843383e-03 7.98627362e-03 3.00144732e-01 5.29354990e-01 4.82663780e-01 4.30406302e-01 4.01248902e-01 3.88474494e-01 3.89947236e-01 4.04066205e-01 4.29124624e-01 4.64109659e-01 5.08051038e-01 5.58569908e-01 6.11389995e-01 6.61394536e-01 7.04188049e-01 7.37043262e-01 7.59025335e-01 7.70437121e-01 7.71974683e-01 7.64278471e-01 7.48467028e-01 7.27378726e-01 7.05663621e-01 6.87877715e-01 6.77140832e-01 6.77231252e-01 6.78030670e-01 4.83031571e-01 1.39145434e-01 5.04595554e-03 7.67049473e-03 3.73465061e-01 5.98698795e-01 5.39616883e-01 4.95375007e-01 4.66637760e-01 4.48267132e-01 4.42328781e-01 4.49360043e-01 4.67781544e-01 4.95605290e-01 5.31044424e-01 5.71908712e-01 6.15147233e-01 6.57209277e-01 6.94703043e-01 7.24805653e-01 7.45491564e-01 7.55635738e-01 7.54953146e-01 7.44088650e-01 7.25099027e-01 7.01735198e-01 6.78511798e-01 6.59116149e-01 6.45840406e-01 6.41634583e-01 6.45225763e-01 
