# vtk DataFile Version 2.0
results/6_density.vtk, Created by Freefem++ 
ASCII
DATASET UNSTRUCTURED_GRID
POINTS 961 float
0 0 0
0.033333333 0 0
0.066666667 0 0
0.1 0 0
0.13333333 0 0
0.16666667 0 0
0.2 0 0
0.23333333 0 0
0.26666667 0 0
0.3 0 0
0.33333333 0 0
0.36666667 0 0
0.4 0 0
0.43333333 0 0
0.46666667 0 0
0.5 0 0
0.53333333 0 0
0.56666667 0 0
0.6 0 0
0.63333333 0 0
0.66666667 0 0
0.7 0 0
0.73333333 0 0
0.76666667 0 0
0.8 0 0
0.83333333 0 0
0.86666667 0 0
0.9 0 0
0.93333333 0 0
0.96666667 0 0
1 0 0
0 0.033333333 0
0.033333333 0.033333333 0
0.066666667 0.033333333 0
0.1 0.033333333 0
0.13333333 0.033333333 0
0.16666667 0.033333333 0
0.2 0.033333333 0
0.23333333 0.033333333 0
0.26666667 0.033333333 0
0.3 0.033333333 0
0.33333333 0.033333333 0
0.36666667 0.033333333 0
0.4 0.033333333 0
0.43333333 0.033333333 0
0.46666667 0.033333333 0
0.5 0.033333333 0
0.53333333 0.033333333 0
0.56666667 0.033333333 0
0.6 0.033333333 0
0.63333333 0.033333333 0
0.66666667 0.033333333 0
0.7 0.033333333 0
0.73333333 0.033333333 0
0.76666667 0.033333333 0
0.8 0.033333333 0
0.83333333 0.033333333 0
0.86666667 0.033333333 0
0.9 0.033333333 0
0.93333333 0.033333333 0
0.96666667 0.033333333 0
1 0.033333333 0
0 0.066666667 0
0.033333333 0.066666667 0
0.066666667 0.066666667 0
0.1 0.066666667 0
0.13333333 0.066666667 0
0.16666667 0.066666667 0
0.2 0.066666667 0
0.23333333 0.066666667 0
0.26666667 0.066666667 0
0.3 0.066666667 0
0.33333333 0.066666667 0
0.36666667 0.066666667 0
0.4 0.066666667 0
0.43333333 0.066666667 0
0.46666667 0.066666667 0
0.5 0.066666667 0
0.53333333 0.066666667 0
0.56666667 0.066666667 0
0.6 0.066666667 0
0.63333333 0.066666667 0
0.66666667 0.066666667 0
0.7 0.066666667 0
0.73333333 0.066666667 0
0.76666667 0.066666667 0
0.8 0.066666667 0
0.83333333 0.066666667 0
0.86666667 0.066666667 0
0.9 0.066666667 0
0.93333333 0.066666667 0
0.96666667 0.066666667 0
1 0.066666667 0
0 0.1 0
0.033333333 0.1 0
0.066666667 0.1 0
0.1 0.1 0
0.13333333 0.1 0
0.16666667 0.1 0
0.2 0.1 0
0.23333333 0.1 0
0.26666667 0.1 0
0.3 0.1 0
0.33333333 0.1 0
0.36666667 0.1 0
0.4 0.1 0
0.43333333 0.1 0
0.46666667 0.1 0
0.5 0.1 0
0.53333333 0.1 0
0.56666667 0.1 0
0.6 0.1 0
0.63333333 0.1 0
0.66666667 0.1 0
0.7 0.1 0
0.73333333 0.1 0
0.76666667 0.1 0
0.8 0.1 0
0.83333333 0.1 0
0.86666667 0.1 0
0.9 0.1 0
0.93333333 0.1 0
0.96666667 0.1 0
1 0.1 0
0 0.13333333 0
0.033333333 0.13333333 0
0.066666667 0.13333333 0
0.1 0.13333333 0
0.13333333 0.13333333 0
0.16666667 0.13333333 0
0.2 0.13333333 0
0.23333333 0.13333333 0
0.26666667 0.13333333 0
0.3 0.13333333 0
0.33333333 0.13333333 0
0.36666667 0.13333333 0
0.4 0.13333333 0
0.43333333 0.13333333 0
0.46666667 0.13333333 0
0.5 0.13333333 0
0.53333333 0.13333333 0
0.56666667 0.13333333 0
0.6 0.13333333 0
0.63333333 0.13333333 0
0.66666667 0.13333333 0
0.7 0.13333333 0
0.73333333 0.13333333 0
0.76666667 0.13333333 0
0.8 0.13333333 0
0.83333333 0.13333333 0
0.86666667 0.13333333 0
0.9 0.13333333 0
0.93333333 0.13333333 0
0.96666667 0.13333333 0
1 0.13333333 0
0 0.16666667 0
0.033333333 0.16666667 0
0.066666667 0.16666667 0
0.1 0.16666667 0
0.13333333 0.16666667 0
0.16666667 0.16666667 0
0.2 0.16666667 0
0.23333333 0.16666667 0
0.26666667 0.16666667 0
0.3 0.16666667 0
0.33333333 0.16666667 0
0.36666667 0.16666667 0
0.4 0.16666667 0
0.43333333 0.16666667 0
0.46666667 0.16666667 0
0.5 0.16666667 0
0.53333333 0.16666667 0
0.56666667 0.16666667 0
0.6 0.16666667 0
0.63333333 0.16666667 0
0.66666667 0.16666667 0
0.7 0.16666667 0
0.73333333 0.16666667 0
0.76666667 0.16666667 0
0.8 0.16666667 0
0.83333333 0.16666667 0
0.86666667 0.16666667 0
0.9 0.16666667 0
0.93333333 0.16666667 0
0.96666667 0.16666667 0
1 0.16666667 0
0 0.2 0
0.033333333 0.2 0
0.066666667 0.2 0
0.1 0.2 0
0.13333333 0.2 0
0.16666667 0.2 0
0.2 0.2 0
0.23333333 0.2 0
0.26666667 0.2 0
0.3 0.2 0
0.33333333 0.2 0
0.36666667 0.2 0
0.4 0.2 0
0.43333333 0.2 0
0.46666667 0.2 0
0.5 0.2 0
0.53333333 0.2 0
0.56666667 0.2 0
0.6 0.2 0
0.63333333 0.2 0
0.66666667 0.2 0
0.7 0.2 0
0.73333333 0.2 0
0.76666667 0.2 0
0.8 0.2 0
0.83333333 0.2 0
0.86666667 0.2 0
0.9 0.2 0
0.93333333 0.2 0
0.96666667 0.2 0
1 0.2 0
0 0.23333333 0
0.033333333 0.23333333 0
0.066666667 0.23333333 0
0.1 0.23333333 0
0.13333333 0.23333333 0
0.16666667 0.23333333 0
0.2 0.23333333 0
0.23333333 0.23333333 0
0.26666667 0.23333333 0
0.3 0.23333333 0
0.33333333 0.23333333 0
0.36666667 0.23333333 0
0.4 0.23333333 0
0.43333333 0.23333333 0
0.46666667 0.23333333 0
0.5 0.23333333 0
0.53333333 0.23333333 0
0.56666667 0.23333333 0
0.6 0.23333333 0
0.63333333 0.23333333 0
0.66666667 0.23333333 0
0.7 0.23333333 0
0.73333333 0.23333333 0
0.76666667 0.23333333 0
0.8 0.23333333 0
0.83333333 0.23333333 0
0.86666667 0.23333333 0
0.9 0.23333333 0
0.93333333 0.23333333 0
0.96666667 0.23333333 0
1 0.23333333 0
0 0.26666667 0
0.033333333 0.26666667 0
0.066666667 0.26666667 0
0.1 0.26666667 0
0.13333333 0.26666667 0
0.16666667 0.26666667 0
0.2 0.26666667 0
0.23333333 0.26666667 0
0.26666667 0.26666667 0
0.3 0.26666667 0
0.33333333 0.26666667 0
0.36666667 0.26666667 0
0.4 0.26666667 0
0.43333333 0.26666667 0
0.46666667 0.26666667 0
0.5 0.26666667 0
0.53333333 0.26666667 0
0.56666667 0.26666667 0
0.6 0.26666667 0
0.63333333 0.26666667 0
0.66666667 0.26666667 0
0.7 0.26666667 0
0.73333333 0.26666667 0
0.76666667 0.26666667 0
0.8 0.26666667 0
0.83333333 0.26666667 0
0.86666667 0.26666667 0
0.9 0.26666667 0
0.93333333 0.26666667 0
0.96666667 0.26666667 0
1 0.26666667 0
0 0.3 0
0.033333333 0.3 0
0.066666667 0.3 0
0.1 0.3 0
0.13333333 0.3 0
0.16666667 0.3 0
0.2 0.3 0
0.23333333 0.3 0
0.26666667 0.3 0
0.3 0.3 0
0.33333333 0.3 0
0.36666667 0.3 0
0.4 0.3 0
0.43333333 0.3 0
0.46666667 0.3 0
0.5 0.3 0
0.53333333 0.3 0
0.56666667 0.3 0
0.6 0.3 0
0.63333333 0.3 0
0.66666667 0.3 0
0.7 0.3 0
0.73333333 0.3 0
0.76666667 0.3 0
0.8 0.3 0
0.83333333 0.3 0
0.86666667 0.3 0
0.9 0.3 0
0.93333333 0.3 0
0.96666667 0.3 0
1 0.3 0
0 0.33333333 0
0.033333333 0.33333333 0
0.066666667 0.33333333 0
0.1 0.33333333 0
0.13333333 0.33333333 0
0.16666667 0.33333333 0
0.2 0.33333333 0
0.23333333 0.33333333 0
0.26666667 0.33333333 0
0.3 0.33333333 0
0.33333333 0.33333333 0
0.36666667 0.33333333 0
0.4 0.33333333 0
0.43333333 0.33333333 0
0.46666667 0.33333333 0
0.5 0.33333333 0
0.53333333 0.33333333 0
0.56666667 0.33333333 0
0.6 0.33333333 0
0.63333333 0.33333333 0
0.66666667 0.33333333 0
0.7 0.33333333 0
0.73333333 0.33333333 0
0.76666667 0.33333333 0
0.8 0.33333333 0
0.83333333 0.33333333 0
0.86666667 0.33333333 0
0.9 0.33333333 0
0.93333333 0.33333333 0
0.96666667 0.33333333 0
1 0.33333333 0
0 0.36666667 0
0.033333333 0.36666667 0
0.066666667 0.36666667 0
0.1 0.36666667 0
0.13333333 0.36666667 0
0.16666667 0.36666667 0
0.2 0.36666667 0
0.23333333 0.36666667 0
0.26666667 0.36666667 0
0.3 0.36666667 0
0.33333333 0.36666667 0
0.36666667 0.36666667 0
0.4 0.36666667 0
0.43333333 0.36666667 0
0.46666667 0.36666667 0
0.5 0.36666667 0
0.53333333 0.36666667 0
0.56666667 0.36666667 0
0.6 0.36666667 0
0.63333333 0.36666667 0
0.66666667 0.36666667 0
0.7 0.36666667 0
0.73333333 0.36666667 0
0.76666667 0.36666667 0
0.8 0.36666667 0
0.83333333 0.36666667 0
0.86666667 0.36666667 0
0.9 0.36666667 0
0.93333333 0.36666667 0
0.96666667 0.36666667 0
1 0.36666667 0
0 0.4 0
0.033333333 0.4 0
0.066666667 0.4 0
0.1 0.4 0
0.13333333 0.4 0
0.16666667 0.4 0
0.2 0.4 0
0.23333333 0.4 0
0.26666667 0.4 0
0.3 0.4 0
0.33333333 0.4 0
0.36666667 0.4 0
0.4 0.4 0
0.43333333 0.4 0
0.46666667 0.4 0
0.5 0.4 0
0.53333333 0.4 0
0.56666667 0.4 0
0.6 0.4 0
0.63333333 0.4 0
0.66666667 0.4 0
0.7 0.4 0
0.73333333 0.4 0
0.76666667 0.4 0
0.8 0.4 0
0.83333333 0.4 0
0.86666667 0.4 0
0.9 0.4 0
0.93333333 0.4 0
0.96666667 0.4 0
1 0.4 0
0 0.43333333 0
0.033333333 0.43333333 0
0.066666667 0.43333333 0
0.1 0.43333333 0
0.13333333 0.43333333 0
0.16666667 0.43333333 0
0.2 0.43333333 0
0.23333333 0.43333333 0
0.26666667 0.43333333 0
0.3 0.43333333 0
0.33333333 0.43333333 0
0.36666667 0.43333333 0
0.4 0.43333333 0
0.43333333 0.43333333 0
0.46666667 0.43333333 0
0.5 0.43333333 0
0.53333333 0.43333333 0
0.56666667 0.43333333 0
0.6 0.43333333 0
0.63333333 0.43333333 0
0.66666667 0.43333333 0
0.7 0.43333333 0
0.73333333 0.43333333 0
0.76666667 0.43333333 0
0.8 0.43333333 0
0.83333333 0.43333333 0
0.86666667 0.43333333 0
0.9 0.43333333 0
0.93333333 0.43333333 0
0.96666667 0.43333333 0
1 0.43333333 0
0 0.46666667 0
0.033333333 0.46666667 0
0.066666667 0.46666667 0
0.1 0.46666667 0
0.13333333 0.46666667 0
0.16666667 0.46666667 0
0.2 0.46666667 0
0.23333333 0.46666667 0
0.26666667 0.46666667 0
0.3 0.46666667 0
0.33333333 0.46666667 0
0.36666667 0.46666667 0
0.4 0.46666667 0
0.43333333 0.46666667 0
0.46666667 0.46666667 0
0.5 0.46666667 0
0.53333333 0.46666667 0
0.56666667 0.46666667 0
0.6 0.46666667 0
0.63333333 0.46666667 0
0.66666667 0.46666667 0
0.7 0.46666667 0
0.73333333 0.46666667 0
0.76666667 0.46666667 0
0.8 0.46666667 0
0.83333333 0.46666667 0
0.86666667 0.46666667 0
0.9 0.46666667 0
0.93333333 0.46666667 0
0.96666667 0.46666667 0
1 0.46666667 0
0 0.5 0
0.033333333 0.5 0
0.066666667 0.5 0
0.1 0.5 0
0.13333333 0.5 0
0.16666667 0.5 0
0.2 0.5 0
0.23333333 0.5 0
0.26666667 0.5 0
0.3 0.5 0
0.33333333 0.5 0
0.36666667 0.5 0
0.4 0.5 0
0.43333333 0.5 0
0.46666667 0.5 0
0.5 0.5 0
0.53333333 0.5 0
0.56666667 0.5 0
0.6 0.5 0
0.63333333 0.5 0
0.66666667 0.5 0
0.7 0.5 0
0.73333333 0.5 0
0.76666667 0.5 0
0.8 0.5 0
0.83333333 0.5 0
0.86666667 0.5 0
0.9 0.5 0
0.93333333 0.5 0
0.96666667 0.5 0
1 0.5 0
0 0.53333333 0
0.033333333 0.53333333 0
0.066666667 0.53333333 0
0.1 0.53333333 0
0.13333333 0.53333333 0
0.16666667 0.53333333 0
0.2 0.53333333 0
0.23333333 0.53333333 0
0.26666667 0.53333333 0
0.3 0.53333333 0
0.33333333 0.53333333 0
0.36666667 0.53333333 0
0.4 0.53333333 0
0.43333333 0.53333333 0
0.46666667 0.53333333 0
0.5 0.53333333 0
0.53333333 0.53333333 0
0.56666667 0.53333333 0
0.6 0.53333333 0
0.63333333 0.53333333 0
0.66666667 0.53333333 0
0.7 0.53333333 0
0.73333333 0.53333333 0
0.76666667 0.53333333 0
0.8 0.53333333 0
[...]
CELL_DATA 1920
Scalars  Label int 1
LOOKUP_TABLE FreeFempp_table
0
0
0
0
0
0
0
0
0
0
0
0
0
0
0
0
0
0
0
0
0
0
0
0
0
0
0
0
0
0
0
0
0
0
0
0
0
0
0
0
0
0
0
0
0
0
0
0
0
0
0
0
0
0
0
0
0
0
0
0
0
0
0
0
0
0
0
0
0
0
0
0
0
0
0
0
0
0
0
0
0
0
0
0
0
0
0
0
0
0
0
0
0
0
0
0
0
0
0
0
0
0
0
0
0
0
0
0
0
0
0
0
0
0
0
0
0
0
0
0
0
0
0
0
0
0
0
0
0
0
0
0
0
0
0
0
0
0
0
0
0
0
0
0
0
0
0
0
0
0
0
0
0
0
0
0
0
0
0
0
0
0
0
0
0
0
0
0
0
0
0
0
0
0
0
0
0
0
0
0
0
0
0
0
0
0
0
0
0
0
0
0
0
0
0
0
0
0
0
0
0
0
0
0
0
0
0
0
0
0
0
0
0
0
0
0
0
0
0
0
0
0
0
0
0
0
0
0
0
0
0
0
0
0
0
0
0
0
0
0
0
0
0
0
0
0
0
0
0
0
0
0
0
0
0
0
0
0
0
0
0
0
0
0
0
0
0
0
0
0
0
0
0
0
0
0
0
0
0
0
0
0
0
0
0
0
0
0
0
0
0
0
0
0
0
0
0
0
0
0
0
0
0
0
0
0
0
0
0
0
0
0
0
0
0
0
0
0
0
0
0
0
0
0
0
0
0
0
0
0
0
0
0
0
0
0
0
0
0
0
0
0
0
0
0
0
0
0
0
0
0
0
0
0
0
0
0
0
0
0
0
0
0
0
0
0
0
0
0
0
0
0
0
0
0
0
0
0
0
0
0
0
0
0
0
0
0
0
0
0
0
0
0
0
0
0
0
0
0
0
0
0
0
0
0
0
0
0
0
0
0
0
0
0
0
0
0
0
0
0
0
0
0
0
0
0
0
0
0
0
0
0
0
0
0
0
0
0
0
0
0
0
0
0
0
0
0
0
0
0
0
0
0
0
0
0
0
0
0
0
0
0
0
0
0
0
0
0
0
0
0
0
0
0
0
0
0
0
0
0
0
0
0
0
0
0
0
0
0
0
0
0
0
0
0
0
0
0
0
0
0
0
0
0
0
0
0
0
0
0
0
0
0
0
0
0
0
0
0
0
0
0
0
0
0
0
0
0
0
0
0
0
0
0
0
0
0
0
0
0
0
0
0
0
0
0
0
0
0
0
0
0
0
0
0
0
0
0
0
0
0
0
0
0
0
0
0
0
0
0
0
0
0
0
0
0
0
0
0
0
0
0
0
0
0
0
0
0
0
0
0
0
0
0
0
0
0
0
0
0
0
0
0
0
0
0
0
0
0
0
0
0
0
0
0
0
0
0
0
0
0
0
0
0
0
0
0
0
0
0
0
0
0
0
0
0
0
0
0
0
0
0
0
0
0
0
0
0
0
0
0
0
0
0
0
0
0
0
0
0
0
0
0
0
0
0
0
0
0
0
0
0
0
0
0
0
0
0
0
0
0
0
0
0
0
0
0
0
0
0
0
0
0
0
0
0
0
0
0
0
0
0
0
0
0
0
0
0
0
0
0
0
0
0
0
0
0
0
0
0
0
0
0
0
0
0
0
0
0
0
0
0
0
0
0
0
0
0
0
0
0
0
0
0
0
0
0
0
0
0
0
0
0
0
0
0
0
0
0
0
0
0
0
0
0
0
0
0
0
0
0
0
0
0
0
0
0
0
0
0
0
0
0
0
0
0
0
0
0
0
0
0
0
0
0
0
0
0
0
0
0
0
0
0
0
0
0
0
0
0
0
0
0
0
0
0
0
0
0
0
0
0
0
0
0
0
0
0
0
0
0
0
0
0
0
0
0
0
0
0
0
0
0
0
0
0
0
0
0
0
0
0
0
0
0
0
0
0
0
0
0
0
0
0
0
0
0
0
0
0
0
0
0
0
0
0
0
0
0
0
0
0
0
0
0
0
0
0
0
0
0
0
0
0
0
0
0
0
0
0
0
0
0
0
0
0
0
0
0
0
0
0
0
0
0
0
0
0
0
0
0
0
0
0
0
0
0
0
0
0
0
0
0
0
0
0
0
0
0
0
0
0
0
0
0
0
0
0
0
0
0
0
0
0
0
0
0
0
0
0
0
0
0
0
0
0
0
0
0
0
0
0
0
0
0
0
0
0
0
0
0
0
0
0
0
0
0
0
0
0
0
0
0
0
0
0
0
0
0
0
0
0
0
0
0
0
0
0
0
0
0
0
0
0
0
0
0
0
0
0
0
0
0
0
0
0
0
0
0
0
0
0
0
0
0
0
0
0
0
0
0
0
0
0
0
0
0
0
0
0
0
0
0
0
0
0
0
0
0
0
0
0
0
0
0
0
0
0
0
0
0
0
0
0
0
0
0
0
0
0
0
0
0
0
0
0
0
0
0
0
0
0
0
0
0
0
0
0
0
0
0
0
0
0
0
0
0
0
0
0
0
0
0
0
0
0
0
0
0
0
0
0
0
0
0
0
0
0
0
0
0
0
0
0
0
0
0
0
0
0
0
0
0
0
0
0
0
0
0
0
0
0
0
0
0
0
0
0
0
0
0
0
0
0
0
0
0
0
0
0
0
0
0
0
0
0
0
0
0
0
0
0
0
0
0
0
0
0
0
0
0
0
0
0
0
0
0
0
0
0
0
0
0
0
0
0
0
0
0
0
0
0
0
0
0
0
0
0
0
0
0
0
0
0
0
0
0
0
0
0
0
0
0
0
0
0
0
0
0
0
0
0
0
0
0
0
0
0
0
0
0
0
0
0
0
0
0
0
0
0
0
0
0
0
0
0
0
0
0
0
0
0
0
0
0
0
0
0
0
0
0
0
0
0
0
0
0
0
0
0
0
0
0
0
0
0
0
0
0
0
0
0
0
0
0
0
0
0
0
0
0
0
0
0
0
0
0
0
0
0
0
0
0
0
0
0
0
0
0
0
0
0
0
0
0
0
0
0
0
0
0
0
0
0
0
0
0
0
0
0
0
0
0
0
0
0
0
0
0
0
0
0
0
0
0
0
0
0
0
0
0
0
0
0
0
0
0
0
0
0
0
0
0
0
0
0
0
0
0
0
0
0
0
0
0
0
0
0
0
0
0
0
0
0
0
0
0
0
0
0
0
0
0
0
0
0
0
0
0
0
0
0
0
0
0
0
0
0
0
0
0
0
0
0
0
0
0
0
0
0
0
0
0
0
0
0
0
0
0
0
0
0
0
0
0
0
0
0
0
0
0
0
0
0
0
0
0
0
0
0
0
0
0
0
0
0
0
0
0
0
0
0
0
0
0
0
0
0
0
0
0
0
0
0
0
0
0
0
0
0
0
0
0
0
0
0
0
0
0
0
0
0
0
0
0
0
0
0
0
0
0
0
0
0
0
0
0
0
0
0
0
0
0
0
0
0
0
0
0
0
0
0
0
0
0
0
0
0
0
0
0
0
0
0
0
0
0
0
0
0
0
0
0
0
0
0
0
0
0
0
0
0
0
0
0
0
0
0
0
0
0
0
0
0
0
0
0
0
0
0
0
0
0
0
0
0
0
0
0
0
0
0
0
0
0
0
0
0
0
0
0
0
0
0
0
0
0
0
0
0
0
0
0
0
0
0
0
0
0
0
0
0
0
0
0
0
0
0
0
0
0
0
0
0
0
0
0
0
0
0
0
0
0
0
0
0
0
0
0
0
0
0
0
0
0
0
0
0
0
0
0
0
0
0
0
0
0
0
0
0
0
0
0
0
0
0
0
0
0
0
0
0
0
0
0
0
0
0
0
0
0
0
0
0
0
0
0
0
0
0
0
0
0
0
0
0
0
0
0
0
0
0
0
0
0
0
0
0
0
0
0
0
0
0
0
0
0
0
0
0
0
0
0
0
0
0
0
0
0
0
0
0
0
0
0
0
0
0
0
0
0
0
0
0
0
0
0
0
0
0
0
0
0
0
0
0
0
0
0
0
0
0
0
0
0
0
0
0
0
0
0
0
0
0
0
0
0
0
0
0
1
1
1
1
1
1
1
1
1
1
1
1
1
1
1
1
1
1
1
1
1
1
1
1
1
1
1
1
1
1
2
2
2
2
2
2
2
2
2
2
2
2
2
2
2
2
2
2
2
2
2
2
2
2
2
2
2
2
2
2
3
3
3
3
3
3
3
3
3
3
3
3
3
3
3
3
3
3
3
3
3
3
3
3
3
3
3
3
3
3
4
4
4
4
4
4
4
4
4
4
4
4
4
4
4
4
4
4
4
4
4
4
4
4
4
4
4
4
4
4

LOOKUP_TABLE FreeFempp_table 5
1.00000000 0.00000000 0.00000000 1.00000000
1.00000000 1.00000000 0.00000000 1.00000000
1.00000000 0.00000000 1.00000000 1.00000000
0.00000000 1.00000000 0.00000000 1.00000000
0.00000000 1.00000000 1.00000000 1.00000000

POINT_DATA 961
FIELD FieldData 1
Density 1 961 float
5.62935889e-01 4.86561477e-01 4.72602844e-01 4.70831156e-01 4.70387012e-01 4.69913453e-01 4.66943979e-01 4.47173655e-01 3.43560219e-01 8.84112641e-02 3.05654923e-03 1.24907156e-03 1.27126258e-02 4.83153135e-01 8.78183186e-01 7.44943142e-01 7.52819479e-01 9.17510509e-01 9.31893110e-01 8.97316575e-01 8.74395847e-01 8.54250073e-01 8.29764128e-01 8.02237034e-01 7.75686979e-01 7.57159293e-01 7.44109035e-01 7.34881043e-01 7.28767037e-01 7.24112809e-01 7.17760026e-01 2.28158087e-01 2.03541428e-01 1.94472462e-01 1.93762422e-01 1.93344548e-01 1.93073198e-01 1.91281572e-01 1.80744231e-01 1.34254768e-01 4.21430469e-02 2.60685338e-03 7.68036814e-04 4.79185395e-03 2.29064524e-01 8.58688951e-01 4.81164634e-01 8.97168145e-02 3.17763060e-01 7.43391693e-01 7.71105349e-01 8.22744906e-01 8.57125342e-01 8.50399554e-01 8.29553783e-01 7.97452271e-01 7.69496202e-01 7.48564720e-01 7.34094143e-01 7.24389613e-01 7.20102072e-01 7.17306495e-01 2.48242845e-03 2.81786220e-03 2.69399444e-03 2.68295896e-03 2.65478995e-03 2.68172356e-03 2.69553345e-03 2.65150378e-03 2.43469165e-03 1.71159732e-03 5.26451564e-04 2.63207447e-04 8.53875186e-04 1.09615372e-02 4.97753739e-01 8.26337755e-01 4.38679233e-02 6.91846246e-03 9.36363544e-03 1.45458328e-02 6.20285459e-02 3.09322923e-01 4.67357427e-01 5.78627348e-01 6.85448706e-01 7.11761236e-01 6.94480896e-01 6.77593529e-01 6.67020559e-01 6.68216050e-01 6.84290886e-01 3.41488724e-03 2.50809221e-03 2.41798582e-03 2.44591990e-03 2.45124311e-03 2.50062742e-03 2.57308059e-03 2.61632353e-03 2.63046264e-03 2.61086156e-03 2.57698819e-03 2.41926918e-03 1.37095491e-03 9.54818388e-04 1.40542910e-02 8.48284423e-01 8.30358505e-01 4.25895154e-02 3.52021260e-03 1.19999459e-03 1.46426086e-03 3.32727912e-03 5.02898544e-03 9.01977625e-03 6.98839277e-02 3.26071858e-01 5.29544413e-01 5.60118198e-01 5.63502967e-01 5.79592764e-01 6.22851133e-01 2.12373987e-01 1.46224335e-01 1.35420263e-01 1.39085546e-01 1.44419178e-01 1.50864691e-01 1.58074722e-01 1.65113494e-01 1.70669749e-01 1.72394648e-01 1.66381702e-01 1.34562954e-01 4.99709062e-02 3.72525654e-03 8.12072714e-04 6.31374260e-03 4.43640687e-02 8.24747026e-01 1.72722772e-01 2.27650125e-02 1.24010518e-02 1.04042692e-02 4.39471053e-03 6.82915095e-04 1.59370969e-03 6.81878300e-03 1.43989712e-01 3.88617933e-01 4.53331411e-01 4.91185367e-01 5.59307694e-01 4.50285643e-01 3.63268077e-01 3.28673244e-01 3.33834618e-01 3.44239980e-01 3.56536686e-01 3.69774520e-01 3.82663667e-01 3.93753529e-01 4.01280791e-01 4.02522802e-01 3.87950003e-01 3.19219619e-01 1.30142286e-01 7.19625363e-03 1.91683043e-03 8.75168014e-04 2.14604773e-02 7.96732068e-01 8.53298843e-01 8.97077918e-01 9.04820442e-01 7.58245111e-01 3.35514247e-02 9.00023058e-03 3.36533110e-03 4.96280938e-03 1.20642759e-01 3.48452598e-01 4.28604335e-01 5.12659490e-01 5.48246562e-01 4.72253740e-01 4.38041627e-01 4.38542277e-01 4.43052024e-01 4.49262679e-01 4.56463724e-01 4.63870496e-01 4.70808297e-01 4.76787716e-01 4.81194586e-01 4.82050836e-01 4.73448545e-01 4.37691391e-01 2.67735988e-01 8.70187804e-02 6.91438187e-03 2.56616576e-03 5.50224539e-03 1.89954583e-02 2.40428627e-01 3.61483961e-01 7.65239537e-01 8.83859873e-01 8.82305086e-01 4.72490370e-01 1.06877033e-02 5.42503363e-03 1.34659812e-01 3.67678046e-01 4.79504704e-01 6.24212861e-01 5.78431606e-01 5.57307959e-01 5.54496586e-01 5.52563965e-01 5.52190900e-01 5.53365886e-01 5.55850208e-01 5.59372127e-01 5.63612819e-01 5.68089128e-01 5.72084904e-01 5.74731171e-01 5.74696600e-01 5.64683855e-01 5.27311742e-01 3.55335981e-01 1.29851550e-01 7.83558004e-03 2.01134919e-03 2.29469687e-03 4.15235106e-03 9.38644167e-03 3.36704738e-02 2.74597734e-01 8.68991792e-01 6.58255100e-01 1.14411796e-02 5.43939928e-03 1.46119580e-01 3.94421607e-01 6.80674195e-01 6.60798132e-01 6.50046825e-01 6.45387352e-01 6.40045583e-01 6.35885656e-01 6.33475065e-01 6.33006632e-01 6.34340405e-01 6.37011349e-01 6.40330493e-01 6.43687069e-01 6.46960080e-01 6.50874913e-01 6.57567203e-01 6.69834852e-01 6.76154733e-01 6.38647556e-01 3.98997366e-01 1.05206892e-01 5.17261727e-03 7.69243110e-04 9.21824772e-04 1.92525703e-03 6.15867181e-03 5.78965619e-02 7.89534569e-01 5.75827003e-01 8.17601942e-03 5.55444229e-03 9.09528956e-02 7.13530958e-01 7.09655702e-01 7.04709053e-01 6.99092627e-01 6.92684770e-01 6.87175393e-01 6.83241487e-01 6.81230307e-01 6.80980325e-01 6.81860983e-01 6.83043242e-01 6.83953464e-01 6.84700429e-01 6.86286509e-01 6.90733731e-01 7.00840354e-01 7.17794418e-01 7.37470150e-01 7.40723133e-01 6.72642410e-01 2.85738945e-01 9.80721880e-03 2.09006667e-03 1.73810113e-03 2.16467376e-03 5.48101170e-03 1.80205166e-01 8.16611528e-01 2.06651226e-01 2.38568429e-03 1.73081772e-03 7.22339869e-01 7.25092471e-01 7.22602248e-01 7.16515303e-01 7.10239172e-01 7.04948246e-01 7.01088965e-01 6.98871434e-01 6.97965324e-01 6.97560012e-01 6.96742535e-01 6.95011735e-01 6.92643046e-01 6.90750182e-01 6.91104412e-01 6.95681274e-01 7.06199527e-01 7.24779904e-01 7.52856791e-01 7.84331262e-01 7.89733827e-01 5.52815497e-01 6.52071014e-02 2.15172824e-02 9.10137687e-03 7.37229921e-03 4.89050299e-02 7.96334207e-01 5.53490222e-01 4.60823718e-03 4.02450329e-04 7.07948089e-01 7.08637059e-01 7.05737889e-01 6.99653387e-01 6.94822311e-01 6.91674769e-01 6.90041125e-01 6.89679265e-01 6.89902663e-01 6.89647734e-01 6.87929511e-01 6.84369266e-01 6.79456055e-01 6.74448788e-01 6.71029210e-01 6.70815349e-01 6.75085247e-01 6.85439348e-01 7.04706311e-01 7.36799717e-01 7.90518343e-01 8.58132839e-01 8.38714898e-01 6.02142751e-01 2.75459915e-01 1.38087153e-01 4.73842889e-01 9.13554609e-01 7.24270642e-01 5.82750188e-03 3.24231922e-04 6.71093524e-01 6.58917606e-01 6.50463820e-01 6.44813240e-01 6.44122899e-01 6.47002518e-01 6.51731253e-01 6.57034934e-01 6.61561608e-01 6.63891196e-01 6.63026869e-01 6.58864319e-01 6.52271032e-01 6.44788682e-01 6.38150156e-01 6.33781075e-01 6.32523656e-01 6.34828508e-01 6.41125798e-01 6.52320445e-01 6.73395932e-01 7.20112622e-01 7.78464437e-01 7.87734509e-01 7.35800862e-01 7.50083745e-01 9.22553778e-01 9.68140483e-01 6.92235172e-01 5.66712115e-03 2.91442528e-04 6.14692867e-01 5.74441016e-01 5.49014866e-01 5.43289006e-01 5.51586747e-01 5.67617655e-01 5.86122513e-01 6.03613734e-01 6.17483258e-01 6.25860155e-01 6.27995670e-01 6.24453902e-01 6.16833329e-01 6.07210755e-01 5.97560823e-01 5.89299202e-01 5.83053648e-01 5.78668475e-01 5.75210035e-01 5.70938945e-01 5.64155340e-01 5.56912243e-01 5.56044698e-01 5.75561762e-01 6.55053914e-01 8.27236652e-01 9.58102167e-01 9.64053690e-01 4.31771904e-01 4.28072130e-03 2.88514479e-04 5.48346519e-01 4.63612497e-01 4.04837459e-01 3.96204680e-01 4.17659014e-01 4.54543620e-01 4.96045470e-01 5.34359992e-01 5.64090371e-01 5.82574069e-01 5.89844763e-01 5.87887049e-01 5.79619169e-01 5.68018079e-01 5.55542231e-01 5.43845415e-01 5.33737183e-01 5.25284231e-01 5.17872155e-01 5.10253549e-01 5.01093268e-01 4.91252661e-01 4.89099443e-01 5.22968054e-01 6.54374242e-01 8.65909159e-01 9.63196993e-01 9.21987951e-01 9.10864174e-02 2.28783418e-03 3.18016188e-04 4.87979800e-01 3.49635154e-01 2.52156734e-01 2.38419235e-01 2.69170523e-01 3.25390667e-01 3.93482119e-01 4.59268510e-01 5.10724127e-01 5.42690575e-01 5.56481659e-01 5.56532919e-01 5.47802210e-01 5.34526825e-01 5.19834697e-01 5.05799711e-01 4.93713647e-01 4.84396607e-01 4.78401124e-01 4.76203144e-01 4.78921205e-01 4.90656316e-01 5.23813725e-01 6.07228875e-01 7.68855453e-01 9.21814561e-01 9.60783422e-01 7.62179852e-01 1.98368728e-02 1.20532175e-03 4.90714679e-04 4.46766883e-01 2.54643649e-01 1.33882329e-01 1.18493006e-01 1.48199305e-01 2.10677579e-01 2.98317462e-01 3.91963124e-01 4.67711300e-01 5.14239192e-01 5.34338236e-01 5.35996258e-01 5.26806533e-01 5.12413263e-01 4.96603221e-01 4.81881142e-01 4.70110893e-01 4.63023543e-01 4.62500453e-01 4.70819980e-01 4.91472811e-01 5.31341791e-01 6.03783846e-01 7.23606527e-01 8.66475403e-01 9.47205722e-01 9.28801656e-01 2.95844406e-01 7.08436593e-03 1.05903100e-03 8.83895613e-04 4.28296924e-01 1.85927793e-01 6.42412901e-02 5.21653630e-02 7.40243345e-02 1.30009964e-01 2.26623878e-01 3.44345868e-01 4.43072319e-01 5.01924098e-01 5.26067317e-01 5.28108835e-01 5.18423855e-01 5.03798783e-01 4.88398135e-01 4.74991769e-01 4.65950131e-01 4.63884622e-01 4.71954525e-01 4.94104654e-01 5.35560310e-01 6.03050470e-01 7.01587558e-01 8.20253432e-01 9.15612698e-01 9.44467723e-01 7.84991980e-01 4.73644622e-02 2.93705170e-03 1.26478320e-03 1.62020244e-03 4.28181797e-01 1.40381292e-01 3.09815370e-02 2.31469609e-02 3.74845229e-02 8.34527314e-02 1.83984697e-01 3.23245853e-01 4.40490633e-01 5.05790055e-01 5.29939294e-01 5.30838370e-01 5.20976484e-01 5.07511675e-01 4.94473100e-01 4.84639078e-01 4.80773628e-01 4.86289054e-01 5.05478442e-01 5.43422163e-01 6.04894876e-01 6.90406501e-01 7.89642930e-01 8.79350007e-01 9.29391026e-01 8.98115039e-01 3.68698210e-01 1.35318385e-02 1.84771768e-03 1.82496454e-03 3.51145468e-03 4.37852830e-01 1.10901020e-01 1.65454056e-02 1.15812365e-02 2.13074088e-02 6.09866045e-02 1.69439748e-01 3.31186652e-01 4.58579302e-01 5.21284282e-01 5.40857077e-01 5.39715350e-01 5.30792594e-01 5.20458281e-01 5.12018442e-01 5.08036733e-01 5.11581302e-01 5.26711702e-01 5.58332801e-01 6.10965848e-01 6.84957087e-01 7.70734549e-01 8.49946618e-01 9.04763877e-01 9.10817981e-01 7.14116335e-01 8.07278156e-02 5.95644256e-03 1.95415760e-03 3.40262940e-03 1.07927844e-02 4.47677910e-01 8.97684842e-02 1.00895958e-02 6.79986738e-03 1.42836263e-02 5.37063964e-02 1.82029888e-01 3.67064416e-01 4.90472466e-01 5.40639877e-01 5.52467644e-01 5.49864531e-01 5.43905973e-01 5.38971186e-01 5.37192047e-01 5.40819168e-01 5.53140163e-01 5.78475118e-01 6.21162474e-01 6.82687461e-01 7.56878555e-01 8.28581214e-01 8.82032037e-01 9.02430475e-01 8.29824150e-01 3.24336857e-01 2.25660317e-02 3.92829347e-03 2.70475284e-03 7.21361907e-03 3.91903557e-02 4.49142307e-01 7.08529726e-02 6.80745160e-03 4.59629437e-03 1.13218240e-02 5.78330345e-02 2.23792210e-01 4.23727036e-01 5.24997294e-01 5.55662155e-01 5.59538066e-01 5.57699502e-01 5.57222605e-01 5.59656084e-01 5.65799475e-01 5.77626169e-01 5.98508656e-01 6.32405818e-01 6.81802034e-01 7.44140327e-01 8.09254229e-01 8.62906277e-01 8.92403185e-01 8.70046616e-01 6.24203265e-01 9.73719135e-02 1.07172877e-02 4.04229388e-03 4.59804060e-03 1.62824951e-02 1.00604728e-01 4.37220305e-01 5.18269874e-02 4.82198363e-03 3.45711876e-03 1.04702283e-02 7.45824277e-02 2.95823753e-01 4.86182660e-01 5.50760925e-01 5.60659409e-01 5.59400737e-01 5.61530709e-01 5.68794727e-01 5.79679906e-01 5.93813956e-01 6.13010108e-01 6.40570581e-01 6.79612339e-01 7.30440736e-01 7.87815988e-01 8.41255009e-01 8.79152119e-01 8.87073100e-01 8.05249035e-01 3.72413725e-01 4.21961583e-02 8.84491950e-03 6.17975974e-03 1.03591783e-02 4.40573208e-02 2.00728327e-01 4.14276093e-01 3.51408385e-02 3.44834593e-03 2.83039082e-03 1.11991456e-02 1.09566838e-01 3.88345897e-01 5.36885440e-01 5.60427904e-01 5.53626776e-01 5.51839828e-01 5.61022162e-01 5.77366531e-01 5.96707880e-01 6.17870986e-01 6.42607272e-01 6.74050272e-01 7.14492857e-01 7.62851834e-01 8.13226104e-01 8.56477857e-01 8.82484198e-01 8.72223198e-01 7.34645605e-01 2.60830551e-01 3.80496942e-02 1.41714262e-02 1.52023388e-02 3.37924659e-02 1.29960358e-01 3.50625694e-01 3.90283346e-01 2.42675915e-02 2.48724548e-03 2.51224800e-03 1.38987359e-02 1.70660615e-01 4.78209317e-01 5.63991785e-01 5.51705301e-01 5.35438955e-01 5.37879765e-01 5.56089520e-01 5.81673443e-01 6.08725011e-01 6.35636687e-01 6.64015412e-01 6.96718931e-01 7.35607684e-01 7.79389381e-01 8.22868228e-01 8.58382821e-01 8.76318753e-01 8.55065763e-01 7.04803586e-01 2.93137759e-01 7.57170767e-02 4.62795831e-02 6.56027645e-02 1.43387601e-01 3.31970990e-01 5.24211466e-01 3.73595655e-01 1.91316810e-02 1.86683657e-03 2.44079297e-03 2.03521531e-02 2.60561585e-01 5.42663991e-01 5.63380957e-01 5.25970101e-01 5.08383036e-01 5.18466115e-01 5.45952797e-01 5.79877138e-01 6.13763928e-01 6.45740330e-01 6.76847398e-01 7.09312201e-01 7.44845808e-01 7.82910287e-01 8.19865346e-01 8.49536836e-01 8.62942696e-01 8.40732276e-01 7.23629594e-01 4.41416562e-01 2.29936019e-01 2.03998521e-01 2.85802007e-01 4.29550022e-01 5.82771897e-01 6.66015744e-01 3.66380215e-01 1.80277992e-02 1.50556839e-03 2.61445087e-03 3.57271433e-02 3.66177976e-01 5.70137799e-01 5.36224961e-01 4.87319261e-01 4.75290596e-01 4.93844777e-01 5.28815627e-01 5.69312632e-01 6.09457374e-01 6.47019684e-01 6.81743562e-01 7.14470208e-01 7.46451199e-01 7.78224409e-01 8.08393598e-01 8.32984388e-01 8.44778657e-01 8.30055773e-01 7.61249483e-01 6.21000588e-01 5.07234931e-01 5.14441252e-01 5.93254924e-01 6.72424436e-01 7.32914746e-01 7.48926282e-01 3.69556814e-01 2.08948627e-02 1.35685341e-03 3.01093562e-03 7.15216547e-02 4.58567888e-01 5.58638811e-01 4.89313811e-01 4.43107992e-01 4.39681321e-01 4.63850856e-01 5.02149165e-01 5.46348870e-01 5.92130721e-01 6.36795998e-01 6.78121626e-01 7.14658558e-01 7.46239901e-01 7.73693204e-01 7.97723830e-01 8.17482173e-01 8.29249024e-01 8.25480759e-01 7.95990944e-01 7.41977513e-01 7.02057183e-01 7.09509492e-01 7.38753676e-01 7.62904465e-01 7.84287453e-01 7.80643642e-01 4.00381327e-01 3.25747244e-02 1.43395574e-03 3.49479518e-03 1.39074266e-01 5.10636628e-01 5.18345892e-01 4.39378262e-01 4.04175162e-01 4.05590773e-01 4.28275734e-01 4.63544011e-01 5.07419050e-01 5.57756960e-01 6.11703396e-01 6.64971054e-01 7.13112473e-01 7.53285587e-01 7.84903288e-01 8.08930039e-01 8.26531708e-01 8.37658584e-01 8.40080619e-01 8.30202103e-01 8.08308661e-01 7.85479069e-01 7.73351431e-01 7.67749250e-01 7.63561964e-01 7.71448076e-01 7.70777404e-01 5.24190962e-01 8.56095850e-02 2.06669141e-03 4.39066254e-03 2.50658065e-01 5.54259121e-01 5.09095848e-01 4.38198596e-01 4.08424407e-01 4.03957039e-01 4.15884823e-01 4.41040725e-01 4.78664577e-01 5.28199971e-01 5.87283969e-01 6.50821686e-01 7.12058723e-01 7.65093386e-01 8.06772113e-01 8.36679518e-01 8.55872273e-01 8.65536273e-01 8.66098642e-01 8.56952906e-01 8.37296009e-01 8.08120012e-01 7.72780180e-01 7.36222565e-01 7.08502889e-01 7.09525764e-01 7.25113750e-01 5.79012275e-01 2.28941694e-01 3.88557953e-03 4.48576827e-03 4.03540820e-01 6.52729928e-01 5.77490211e-01 5.15276670e-01 4.86188650e-01 4.74294156e-01 4.76258993e-01 4.91177022e-01 5.18348336e-01 5.56688964e-01 6.03921235e-01 6.56135023e-01 7.08315134e-01 7.55676210e-01 7.94865847e-01 8.24277461e-01 8.43564630e-01 8.52890909e-01 8.52359712e-01 8.41851652e-01 8.21294725e-01 7.91033030e-01 7.52247810e-01 7.09619343e-01 6.76046193e-01 6.70257390e-01 6.86515987e-01 
