# vtk DataFile Version 2.0
results/8_density.vtk, Created by Freefem++ 
ASCII
DATASET UNSTRUCTURED_GRID
POINTS 961 float
0 0 0
0.033333333 0 0
0.066666667 0 0
0.1 0 0
0.13333333 0 0
0.16666667 0 0
0.2 0 0
0.23333333 0 0
0.26666667 0 0
0.3 0 0
0.33333333 0 0
0.36666667 0 0
0.4 0 0
0.43333333 0 0
0.46666667 0 0
0.5 0 0
0.53333333 0 0
0.56666667 0 0
0.6 0 0
0.63333333 0 0
0.66666667 0 0
0.7 0 0
0.73333333 0 0
0.76666667 0 0
0.8 0 0
0.83333333 0 0
0.86666667 0 0
0.9 0 0
0.93333333 0 0
0.96666667 0 0
1 0 0
0 0.033333333 0
0.033333333 0.033333333 0
0.066666667 0.033333333 0
0.1 0.033333333 0
0.13333333 0.033333333 0
0.16666667 0.033333333 0
0.2 0.033333333 0
0.23333333 0.033333333 0
0.26666667 0.033333333 0
0.3 0.033333333 0
0.33333333 0.033333333 0
0.36666667 0.033333333 0
0.4 0.033333333 0
0.43333333 0.033333333 0
0.46666667 0.033333333 0
0.5 0.033333333 0
0.53333333 0.033333333 0
0.56666667 0.033333333 0
0.6 0.033333333 0
0.63333333 0.033333333 0
0.66666667 0.033333333 0
0.7 0.033333333 0
0.73333333 0.033333333 0
0.76666667 0.033333333 0
0.8 0.033333333 0
0.83333333 0.033333333 0
0.86666667 0.033333333 0
0.9 0.033333333 0
0.93333333 0.033333333 0
0.96666667 0.033333333 0
1 0.033333333 0
0 0.066666667 0
0.033333333 0.066666667 0
0.066666667 0.066666667 0
0.1 0.066666667 0
0.13333333 0.066666667 0
0.16666667 0.066666667 0
0.2 0.066666667 0
0.23333333 0.066666667 0
0.26666667 0.066666667 0
0.3 0.066666667 0
0.33333333 0.066666667 0
0.36666667 0.066666667 0
0.4 0.066666667 0
0.43333333 0.066666667 0
0.46666667 0.066666667 0
0.5 0.066666667 0
0.53333333 0.066666667 0
0.56666667 0.066666667 0
0.6 0.066666667 0
0.63333333 0.066666667 0
0.66666667 0.066666667 0
0.7 0.066666667 0
0.73333333 0.066666667 0
0.76666667 0.066666667 0
0.8 0.066666667 0
0.83333333 0.066666667 0
0.86666667 0.066666667 0
0.9 0.066666667 0
0.93333333 0.066666667 0
0.96666667 0.066666667 0
1 0.066666667 0
0 0.1 0
0.033333333 0.1 0
0.066666667 0.1 0
0.1 0.1 0
0.13333333 0.1 0
0.16666667 0.1 0
0.2 0.1 0
0.23333333 0.1 0
0.26666667 0.1 0
0.3 0.1 0
0.33333333 0.1 0
0.36666667 0.1 0
0.4 0.1 0
0.43333333 0.1 0
0.46666667 0.1 0
0.5 0.1 0
0.53333333 0.1 0
0.56666667 0.1 0
0.6 0.1 0
0.63333333 0.1 0
0.66666667 0.1 0
0.7 0.1 0
0.73333333 0.1 0
0.76666667 0.1 0
0.8 0.1 0
0.83333333 0.1 0
0.86666667 0.1 0
0.9 0.1 0
0.93333333 0.1 0
0.96666667 0.1 0
1 0.1 0
0 0.13333333 0
0.033333333 0.13333333 0
0.066666667 0.13333333 0
0.1 0.13333333 0
0.13333333 0.13333333 0
0.16666667 0.13333333 0
0.2 0.13333333 0
0.23333333 0.13333333 0
0.26666667 0.13333333 0
0.3 0.13333333 0
0.33333333 0.13333333 0
0.36666667 0.13333333 0
0.4 0.13333333 0
0.43333333 0.13333333 0
0.46666667 0.13333333 0
0.5 0.13333333 0
0.53333333 0.13333333 0
0.56666667 0.13333333 0
0.6 0.13333333 0
0.63333333 0.13333333 0
0.66666667 0.13333333 0
0.7 0.13333333 0
0.73333333 0.13333333 0
0.76666667 0.13333333 0
0.8 0.13333333 0
0.83333333 0.13333333 0
0.86666667 0.13333333 0
0.9 0.13333333 0
0.93333333 0.13333333 0
0.96666667 0.13333333 0
1 0.13333333 0
0 0.16666667 0
0.033333333 0.16666667 0
0.066666667 0.16666667 0
0.1 0.16666667 0
0.13333333 0.16666667 0
0.16666667 0.16666667 0
0.2 0.16666667 0
0.23333333 0.16666667 0
0.26666667 0.16666667 0
0.3 0.16666667 0
0.33333333 0.16666667 0
0.36666667 0.16666667 0
0.4 0.16666667 0
0.43333333 0.16666667 0
0.46666667 0.16666667 0
0.5 0.16666667 0
0.53333333 0.16666667 0
0.56666667 0.16666667 0
0.6 0.16666667 0
0.63333333 0.16666667 0
0.66666667 0.16666667 0
0.7 0.16666667 0
0.73333333 0.16666667 0
0.76666667 0.16666667 0
0.8 0.16666667 0
0.83333333 0.16666667 0
0.86666667 0.16666667 0
0.9 0.16666667 0
0.93333333 0.16666667 0
0.96666667 0.16666667 0
1 0.16666667 0
0 0.2 0
0.033333333 0.2 0
0.066666667 0.2 0
0.1 0.2 0
0.13333333 0.2 0
0.16666667 0.2 0
0.2 0.2 0
0.23333333 0.2 0
0.26666667 0.2 0
0.3 0.2 0
0.33333333 0.2 0
0.36666667 0.2 0
0.4 0.2 0
0.43333333 0.2 0
0.46666667 0.2 0
0.5 0.2 0
0.53333333 0.2 0
0.56666667 0.2 0
0.6 0.2 0
0.63333333 0.2 0
0.66666667 0.2 0
0.7 0.2 0
0.73333333 0.2 0
0.76666667 0.2 0
0.8 0.2 0
0.83333333 0.2 0
0.86666667 0.2 0
0.9 0.2 0
0.93333333 0.2 0
0.96666667 0.2 0
1 0.2 0
0 0.23333333 0
0.033333333 0.23333333 0
0.066666667 0.23333333 0
0.1 0.23333333 0
0.13333333 0.23333333 0
0.16666667 0.23333333 0
0.2 0.23333333 0
0.23333333 0.23333333 0
0.26666667 0.23333333 0
0.3 0.23333333 0
0.33333333 0.23333333 0
0.36666667 0.23333333 0
0.4 0.23333333 0
0.43333333 0.23333333 0
0.46666667 0.23333333 0
0.5 0.23333333 0
0.53333333 0.23333333 0
0.56666667 0.23333333 0
0.6 0.23333333 0
0.63333333 0.23333333 0
0.66666667 0.23333333 0
0.7 0.23333333 0
0.73333333 0.23333333 0
0.76666667 0.23333333 0
0.8 0.23333333 0
0.83333333 0.23333333 0
0.86666667 0.23333333 0
0.9 0.23333333 0
0.93333333 0.23333333 0
0.96666667 0.23333333 0
1 0.23333333 0
0 0.26666667 0
0.033333333 0.26666667 0
0.066666667 0.26666667 0
0.1 0.26666667 0
0.13333333 0.26666667 0
0.16666667 0.26666667 0
0.2 0.26666667 0
0.23333333 0.26666667 0
0.26666667 0.26666667 0
0.3 0.26666667 0
0.33333333 0.26666667 0
0.36666667 0.26666667 0
0.4 0.26666667 0
0.43333333 0.26666667 0
0.46666667 0.26666667 0
0.5 0.26666667 0
0.53333333 0.26666667 0
0.56666667 0.26666667 0
0.6 0.26666667 0
0.63333333 0.26666667 0
0.66666667 0.26666667 0
0.7 0.26666667 0
0.73333333 0.26666667 0
0.76666667 0.26666667 0
0.8 0.26666667 0
0.83333333 0.26666667 0
0.86666667 0.26666667 0
0.9 0.26666667 0
0.93333333 0.26666667 0
0.96666667 0.26666667 0
1 0.26666667 0
0 0.3 0
0.033333333 0.3 0
0.066666667 0.3 0
0.1 0.3 0
0.13333333 0.3 0
0.16666667 0.3 0
0.2 0.3 0
0.23333333 0.3 0
0.26666667 0.3 0
0.3 0.3 0
0.33333333 0.3 0
0.36666667 0.3 0
0.4 0.3 0
0.43333333 0.3 0
0.46666667 0.3 0
0.5 0.3 0
0.53333333 0.3 0
0.56666667 0.3 0
0.6 0.3 0
0.63333333 0.3 0
0.66666667 0.3 0
0.7 0.3 0
0.73333333 0.3 0
0.76666667 0.3 0
0.8 0.3 0
0.83333333 0.3 0
0.86666667 0.3 0
0.9 0.3 0
0.93333333 0.3 0
0.96666667 0.3 0
1 0.3 0
0 0.33333333 0
0.033333333 0.33333333 0
0.066666667 0.33333333 0
0.1 0.33333333 0
0.13333333 0.33333333 0
0.16666667 0.33333333 0
0.2 0.33333333 0
0.23333333 0.33333333 0
0.26666667 0.33333333 0
0.3 0.33333333 0
0.33333333 0.33333333 0
0.36666667 0.33333333 0
0.4 0.33333333 0
0.43333333 0.33333333 0
0.46666667 0.33333333 0
0.5 0.33333333 0
0.53333333 0.33333333 0
0.56666667 0.33333333 0
0.6 0.33333333 0
0.63333333 0.33333333 0
0.66666667 0.33333333 0
0.7 0.33333333 0
0.73333333 0.33333333 0
0.76666667 0.33333333 0
0.8 0.33333333 0
0.83333333 0.33333333 0
0.86666667 0.33333333 0
0.9 0.33333333 0
0.93333333 0.33333333 0
0.96666667 0.33333333 0
1 0.33333333 0
0 0.36666667 0
0.033333333 0.36666667 0
0.066666667 0.36666667 0
0.1 0.36666667 0
0.13333333 0.36666667 0
0.16666667 0.36666667 0
0.2 0.36666667 0
0.23333333 0.36666667 0
0.26666667 0.36666667 0
0.3 0.36666667 0
0.33333333 0.36666667 0
0.36666667 0.36666667 0
0.4 0.36666667 0
0.43333333 0.36666667 0
0.46666667 0.36666667 0
0.5 0.36666667 0
0.53333333 0.36666667 0
0.56666667 0.36666667 0
0.6 0.36666667 0
0.63333333 0.36666667 0
0.66666667 0.36666667 0
0.7 0.36666667 0
0.73333333 0.36666667 0
0.76666667 0.36666667 0
0.8 0.36666667 0
0.83333333 0.36666667 0
0.86666667 0.36666667 0
0.9 0.36666667 0
0.93333333 0.36666667 0
0.96666667 0.36666667 0
1 0.36666667 0
0 0.4 0
0.033333333 0.4 0
0.066666667 0.4 0
0.1 0.4 0
0.13333333 0.4 0
0.16666667 0.4 0
0.2 0.4 0
0.23333333 0.4 0
0.26666667 0.4 0
0.3 0.4 0
0.33333333 0.4 0
0.36666667 0.4 0
0.4 0.4 0
0.43333333 0.4 0
0.46666667 0.4 0
0.5 0.4 0
0.53333333 0.4 0
0.56666667 0.4 0
0.6 0.4 0
0.63333333 0.4 0
0.66666667 0.4 0
0.7 0.4 0
0.73333333 0.4 0
0.76666667 0.4 0
0.8 0.4 0
0.83333333 0.4 0
0.86666667 0.4 0
0.9 0.4 0
0.93333333 0.4 0
0.96666667 0.4 0
1 0.4 0
0 0.43333333 0
0.033333333 0.43333333 0
0.066666667 0.43333333 0
0.1 0.43333333 0
0.13333333 0.43333333 0
0.16666667 0.43333333 0
0.2 0.43333333 0
0.23333333 0.43333333 0
0.26666667 0.43333333 0
0.3 0.43333333 0
0.33333333 0.43333333 0
0.36666667 0.43333333 0
0.4 0.43333333 0
0.43333333 0.43333333 0
0.46666667 0.43333333 0
0.5 0.43333333 0
0.53333333 0.43333333 0
0.56666667 0.43333333 0
0.6 0.43333333 0
0.63333333 0.43333333 0
0.66666667 0.43333333 0
0.7 0.43333333 0
0.73333333 0.43333333 0
0.76666667 0.43333333 0
0.8 0.43333333 0
0.83333333 0.43333333 0
0.86666667 0.43333333 0
0.9 0.43333333 0
0.93333333 0.43333333 0
0.96666667 0.43333333 0
1 0.43333333 0
0 0.46666667 0
0.033333333 0.46666667 0
0.066666667 0.46666667 0
0.1 0.46666667 0
0.13333333 0.46666667 0
0.16666667 0.46666667 0
0.2 0.46666667 0
0.23333333 0.46666667 0
0.26666667 0.46666667 0
0.3 0.46666667 0
0.33333333 0.46666667 0
0.36666667 0.46666667 0
0.4 0.46666667 0
0.43333333 0.46666667 0
0.46666667 0.46666667 0
0.5 0.46666667 0
0.53333333 0.46666667 0
0.56666667 0.46666667 0
0.6 0.46666667 0
0.63333333 0.46666667 0
0.66666667 0.46666667 0
0.7 0.46666667 0
0.73333333 0.46666667 0
0.76666667 0.46666667 0
0.8 0.46666667 0
0.83333333 0.46666667 0
0.86666667 0.46666667 0
0.9 0.46666667 0
0.93333333 0.46666667 0
0.96666667 0.46666667 0
1 0.46666667 0
0 0.5 0
0.033333333 0.5 0
0.066666667 0.5 0
0.1 0.5 0
0.13333333 0.5 0
0.16666667 0.5 0
0.2 0.5 0
0.23333333 0.5 0
0.26666667 0.5 0
0.3 0.5 0
0.33333333 0.5 0
0.36666667 0.5 0
0.4 0.5 0
0.43333333 0.5 0
0.46666667 0.5 0
0.5 0.5 0
0.53333333 0.5 0
0.56666667 0.5 0
0.6 0.5 0
0.63333333 0.5 0
0.66666667 0.5 0
0.7 0.5 0
0.73333333 0.5 0
0.76666667 0.5 0
0.8 0.5 0
0.83333333 0.5 0
0.86666667 0.5 0
0.9 0.5 0
0.93333333 0.5 0
0.96666667 0.5 0
1 0.5 0
0 0.53333333 0
0.033333333 0.53333333 0
0.066666667 0.53333333 0
0.1 0.53333333 0
0.13333333 0.53333333 0
0.16666667 0.53333333 0
0.2 0.53333333 0
0.23333333 0.53333333 0
0.26666667 0.53333333 0
0.3 0.53333333 0
0.33333333 0.53333333 0
0.36666667 0.53333333 0
0.4 0.53333333 0
0.43333333 0.53333333 0
0.46666667 0.53333333 0
0.5 0.53333333 0
0.53333333 0.53333333 0
0.56666667 0.53333333 0
0.6 0.53333333 0
0.63333333 0.53333333 0
0.66666667 0.53333333 0
0.7 0.53333333 0
0.73333333 0.53333333 0
0.76666667 0.53333333 0
0.8 0.53333333 0
[...]
CELL_DATA 1920
Scalars  Label int 1
LOOKUP_TABLE FreeFempp_table
0
0
0
0
0
0
0
0
0
0
0
0
0
0
0
0
0
0
0
0
0
0
0
0
0
0
0
0
0
0
0
0
0
0
0
0
0
0
0
0
0
0
0
0
0
0
0
0
0
0
0
0
0
0
0
0
0
0
0
0
0
0
0
0
0
0
0
0
0
0
0
0
0
0
0
0
0
0
0
0
0
0
0
0
0
0
0
0
0
0
0
0
0
0
0
0
0
0
0
0
0
0
0
0
0
0
0
0
0
0
0
0
0
0
0
0
0
0
0
0
0
0
0
0
0
0
0
0
0
0
0
0
0
0
0
0
0
0
0
0
0
0
0
0
0
0
0
0
0
0
0
0
0
0
0
0
0
0
0
0
0
0
0
0
0
0
0
0
0
0
0
0
0
0
0
0
0
0
0
0
0
0
0
0
0
0
0
0
0
0
0
0
0
0
0
0
0
0
0
0
0
0
0
0
0
0
0
0
0
0
0
0
0
0
0
0
0
0
0
0
0
0
0
0
0
0
0
0
0
0
0
0
0
0
0
0
0
0
0
0
0
0
0
0
0
0
0
0
0
0
0
0
0
0
0
0
0
0
0
0
0
0
0
0
0
0
0
0
0
0
0
0
0
0
0
0
0
0
0
0
0
0
0
0
0
0
0
0
0
0
0
0
0
0
0
0
0
0
0
0
0
0
0
0
0
0
0
0
0
0
0
0
0
0
0
0
0
0
0
0
0
0
0
0
0
0
0
0
0
0
0
0
0
0
0
0
0
0
0
0
0
0
0
0
0
0
0
0
0
0
0
0
0
0
0
0
0
0
0
0
0
0
0
0
0
0
0
0
0
0
0
0
0
0
0
0
0
0
0
0
0
0
0
0
0
0
0
0
0
0
0
0
0
0
0
0
0
0
0
0
0
0
0
0
0
0
0
0
0
0
0
0
0
0
0
0
0
0
0
0
0
0
0
0
0
0
0
0
0
0
0
0
0
0
0
0
0
0
0
0
0
0
0
0
0
0
0
0
0
0
0
0
0
0
0
0
0
0
0
0
0
0
0
0
0
0
0
0
0
0
0
0
0
0
0
0
0
0
0
0
0
0
0
0
0
0
0
0
0
0
0
0
0
0
0
0
0
0
0
0
0
0
0
0
0
0
0
0
0
0
0
0
0
0
0
0
0
0
0
0
0
0
0
0
0
0
0
0
0
0
0
0
0
0
0
0
0
0
0
0
0
0
0
0
0
0
0
0
0
0
0
0
0
0
0
0
0
0
0
0
0
0
0
0
0
0
0
0
0
0
0
0
0
0
0
0
0
0
0
0
0
0
0
0
0
0
0
0
0
0
0
0
0
0
0
0
0
0
0
0
0
0
0
0
0
0
0
0
0
0
0
0
0
0
0
0
0
0
0
0
0
0
0
0
0
0
0
0
0
0
0
0
0
0
0
0
0
0
0
0
0
0
0
0
0
0
0
0
0
0
0
0
0
0
0
0
0
0
0
0
0
0
0
0
0
0
0
0
0
0
0
0
0
0
0
0
0
0
0
0
0
0
0
0
0
0
0
0
0
0
0
0
0
0
0
0
0
0
0
0
0
0
0
0
0
0
0
0
0
0
0
0
0
0
0
0
0
0
0
0
0
0
0
0
0
0
0
0
0
0
0
0
0
0
0
0
0
0
0
0
0
0
0
0
0
0
0
0
0
0
0
0
0
0
0
0
0
0
0
0
0
0
0
0
0
0
0
0
0
0
0
0
0
0
0
0
0
0
0
0
0
0
0
0
0
0
0
0
0
0
0
0
0
0
0
0
0
0
0
0
0
0
0
0
0
0
0
0
0
0
0
0
0
0
0
0
0
0
0
0
0
0
0
0
0
0
0
0
0
0
0
0
0
0
0
0
0
0
0
0
0
0
0
0
0
0
0
0
0
0
0
0
0
0
0
0
0
0
0
0
0
0
0
0
0
0
0
0
0
0
0
0
0
0
0
0
0
0
0
0
0
0
0
0
0
0
0
0
0
0
0
0
0
0
0
0
0
0
0
0
0
0
0
0
0
0
0
0
0
0
0
0
0
0
0
0
0
0
0
0
0
0
0
0
0
0
0
0
0
0
0
0
0
0
0
0
0
0
0
0
0
0
0
0
0
0
0
0
0
0
0
0
0
0
0
0
0
0
0
0
0
0
0
0
0
0
0
0
0
0
0
0
0
0
0
0
0
0
0
0
0
0
0
0
0
0
0
0
0
0
0
0
0
0
0
0
0
0
0
0
0
0
0
0
0
0
0
0
0
0
0
0
0
0
0
0
0
0
0
0
0
0
0
0
0
0
0
0
0
0
0
0
0
0
0
0
0
0
0
0
0
0
0
0
0
0
0
0
0
0
0
0
0
0
0
0
0
0
0
0
0
0
0
0
0
0
0
0
0
0
0
0
0
0
0
0
0
0
0
0
0
0
0
0
0
0
0
0
0
0
0
0
0
0
0
0
0
0
0
0
0
0
0
0
0
0
0
0
0
0
0
0
0
0
0
0
0
0
0
0
0
0
0
0
0
0
0
0
0
0
0
0
0
0
0
0
0
0
0
0
0
0
0
0
0
0
0
0
0
0
0
0
0
0
0
0
0
0
0
0
0
0
0
0
0
0
0
0
0
0
0
0
0
0
0
0
0
0
0
0
0
0
0
0
0
0
0
0
0
0
0
0
0
0
0
0
0
0
0
0
0
0
0
0
0
0
0
0
0
0
0
0
0
0
0
0
0
0
0
0
0
0
0
0
0
0
0
0
0
0
0
0
0
0
0
0
0
0
0
0
0
0
0
0
0
0
0
0
0
0
0
0
0
0
0
0
0
0
0
0
0
0
0
0
0
0
0
0
0
0
0
0
0
0
0
0
0
0
0
0
0
0
0
0
0
0
0
0
0
0
0
0
0
0
0
0
0
0
0
0
0
0
0
0
0
0
0
0
0
0
0
0
0
0
0
0
0
0
0
0
0
0
0
0
0
0
0
0
0
0
0
0
0
0
0
0
0
0
0
0
0
0
0
0
0
0
0
0
0
0
0
0
0
0
0
0
0
0
0
0
0
0
0
0
0
0
0
0
0
0
0
0
0
0
0
0
0
0
0
0
0
0
0
0
0
0
0
0
0
0
0
0
0
0
0
0
0
0
0
0
0
0
0
0
0
0
0
0
0
0
0
0
0
0
0
0
0
0
0
0
0
0
0
0
0
0
0
0
0
0
0
0
0
0
0
0
0
0
0
0
0
0
0
0
0
0
0
0
0
0
0
0
0
0
0
0
0
0
0
0
0
0
0
0
0
0
0
0
0
0
0
0
0
0
0
0
0
0
0
0
0
0
0
0
0
0
0
0
0
0
0
0
0
0
0
0
0
0
0
0
0
0
0
0
0
0
0
0
0
0
0
0
0
0
0
0
0
0
0
0
0
0
0
0
0
0
0
0
0
0
0
0
0
0
0
0
0
0
0
0
0
0
0
0
0
0
0
0
0
0
0
0
0
0
0
0
0
0
0
0
0
0
0
0
0
0
0
0
0
0
0
0
0
0
0
0
0
0
0
0
0
0
0
0
0
0
0
0
0
0
0
0
0
0
0
0
0
0
0
0
0
0
0
0
0
0
0
0
0
0
0
0
0
0
0
0
0
0
0
0
0
0
0
0
0
0
0
0
0
0
0
0
0
0
0
0
0
0
0
0
0
0
0
0
0
0
0
0
0
0
0
0
0
0
0
0
0
0
0
0
0
0
0
0
0
0
0
0
0
0
0
0
0
0
0
0
0
0
0
0
0
0
0
0
0
0
0
0
0
0
0
0
0
0
0
0
0
0
0
0
0
0
0
0
0
0
0
0
0
0
0
0
0
0
0
0
0
0
0
0
0
0
0
0
0
0
0
0
0
0
0
0
0
0
0
0
0
0
0
0
0
0
0
0
0
0
0
0
0
0
0
0
0
0
0
0
0
0
0
0
0
0
0
0
0
0
0
0
0
0
0
0
0
0
0
0
0
0
0
0
0
0
0
0
0
0
0
0
0
0
0
0
0
0
0
0
0
0
0
0
1
1
1
1
1
1
1
1
1
1
1
1
1
1
1
1
1
1
1
1
1
1
1
1
1
1
1
1
1
1
2
2
2
2
2
2
2
2
2
2
2
2
2
2
2
2
2
2
2
2
2
2
2
2
2
2
2
2
2
2
3
3
3
3
3
3
3
3
3
3
3
3
3
3
3
3
3
3
3
3
3
3
3
3
3
3
3
3
3
3
4
4
4
4
4
4
4
4
4
4
4
4
4
4
4
4
4
4
4
4
4
4
4
4
4
4
4
4
4
4

LOOKUP_TABLE FreeFempp_table 5
1.00000000 0.00000000 0.00000000 1.00000000
1.00000000 1.00000000 0.00000000 1.00000000
1.00000000 0.00000000 1.00000000 1.00000000
0.00000000 1.00000000 0.00000000 1.00000000
0.00000000 1.00000000 1.00000000 1.00000000

POINT_DATA 961
FIELD FieldData 1
Density 1 961 float
5.51446438e-01 5.19706428e-01 5.10445237e-01 4.94915456e-01 4.80507612e-01 4.71426338e-01 4.69229639e-01 4.74759787e-01 4.89795178e-01 5.07451117e-01 2.76889324e-01 5.50210383e-03 7.95666943e-04 2.14436483e-02 3.66156876e-01 5.52467465e-01 5.84967554e-01 5.92276514e-01 5.93135536e-01 5.91817796e-01 5.89655519e-01 5.86884797e-01 5.83349824e-01 5.78348160e-01 5.71693182e-01 5.64763427e-01 5.58636963e-01 5.53990066e-01 5.51147759e-01 5.67985117e-01 6.00084424e-01 4.25805598e-01 3.77191782e-01 3.73933613e-01 3.70261878e-01 3.65964711e-01 3.65663022e-01 3.71103138e-01 3.83612663e-01 4.03664976e-01 4.21099633e-01 2.98782766e-01 1.84089337e-02 6.43105712e-04 4.62912815e-03 2.49008060e-01 5.05318284e-01 5.48427284e-01 5.60352325e-01 5.62836885e-01 5.61624110e-01 5.58794618e-01 5.54815650e-01 5.49661100e-01 5.42646527e-01 5.33333600e-01 5.23382306e-01 5.14443755e-01 5.07535160e-01 5.04384398e-01 5.22123039e-01 5.70020616e-01 3.46748769e-01 2.70842254e-01 2.61046946e-01 2.65785784e-01 2.74122775e-01 2.88904160e-01 3.09066564e-01 3.33774418e-01 3.62310141e-01 3.87932569e-01 3.44214201e-01 6.97723925e-02 1.55430078e-03 2.89456057e-03 1.97029859e-01 4.88535076e-01 5.34436464e-01 5.47802567e-01 5.51644385e-01 5.51401734e-01 5.49087465e-01 5.45122206e-01 5.39851665e-01 5.32883763e-01 5.23067951e-01 5.11704922e-01 5.01486719e-01 4.93583739e-01 4.90007132e-01 5.08123338e-01 5.57018638e-01 3.65079463e-01 2.73052573e-01 2.49220356e-01 2.43274838e-01 2.43008360e-01 2.55184650e-01 2.79262573e-01 3.11704457e-01 3.47615361e-01 3.79629761e-01 3.70733887e-01 1.25179231e-01 2.22185766e-03 2.61756475e-03 1.83179140e-01 4.91863787e-01 5.37448764e-01 5.46368003e-01 5.48380733e-01 5.48192263e-01 5.46469152e-01 5.43129265e-01 5.38445354e-01 5.32460213e-01 5.23392975e-01 5.11420012e-01 5.00788093e-01 4.92822170e-01 4.89440382e-01 5.08204579e-01 5.58548331e-01 4.30934697e-01 3.40016246e-01 3.07236820e-01 2.87946105e-01 2.69391865e-01 2.63952106e-01 2.75345773e-01 3.01849782e-01 3.37290347e-01 3.72215331e-01 3.79517287e-01 1.54872373e-01 2.47314246e-03 2.26969481e-03 1.47875056e-01 4.83906209e-01 5.41327357e-01 5.46570122e-01 5.45871198e-01 5.45341015e-01 5.44238508e-01 5.41414797e-01 5.36983609e-01 5.31218529e-01 5.22658169e-01 5.10419250e-01 4.99389917e-01 4.91470575e-01 4.88134414e-01 5.07516563e-01 5.58232486e-01 4.88535404e-01 4.10597682e-01 3.77931595e-01 3.53322774e-01 3.23803216e-01 3.02687913e-01 2.97609776e-01 3.10527444e-01 3.37436467e-01 3.69661957e-01 3.82529020e-01 1.67744979e-01 2.58668652e-03 1.91463018e-03 1.03254609e-01 4.65735257e-01 5.46769619e-01 5.47315538e-01 5.44282615e-01 5.43786526e-01 5.43591082e-01 5.41462600e-01 5.37271798e-01 5.31310201e-01 5.22856355e-01 5.10596931e-01 4.98812944e-01 4.90874738e-01 4.87136424e-01 5.06928861e-01 5.58012962e-01 5.25256693e-01 4.58264679e-01 4.25802559e-01 3.99046838e-01 3.66707474e-01 3.39399457e-01 3.25082123e-01 3.27774018e-01 3.45766187e-01 3.72749358e-01 3.82685781e-01 1.69470266e-01 2.62915483e-03 1.67448807e-03 7.54473805e-02 4.42484051e-01 5.52220583e-01 5.50203383e-01 5.45177639e-01 5.44554353e-01 5.44711947e-01 5.43021858e-01 5.39048791e-01 5.33040464e-01 5.24720013e-01 5.12898326e-01 5.00217080e-01 4.91603702e-01 4.87026334e-01 5.06665528e-01 5.57942510e-01 5.48695505e-01 4.88807261e-01 4.55291808e-01 4.26691890e-01 3.92442137e-01 3.61838758e-01 3.43153715e-01 3.40372860e-01 3.52236629e-01 3.74111146e-01 3.74637187e-01 1.57838181e-01 2.57279840e-03 1.49917195e-03 5.76104857e-02 4.10776556e-01 5.53038776e-01 5.54640651e-01 5.49760163e-01 5.48823893e-01 5.48638701e-01 5.46675801e-01 5.42349398e-01 5.35625279e-01 5.26652277e-01 5.14868438e-01 5.01352489e-01 4.91237998e-01 4.86676931e-01 5.06572902e-01 5.57951808e-01 5.61761498e-01 5.06329477e-01 4.72655147e-01 4.44781393e-01 4.09636766e-01 3.76456499e-01 3.55607539e-01 3.49300772e-01 3.54934305e-01 3.69304001e-01 3.54515582e-01 1.35274664e-01 2.41672690e-03 1.39049091e-03 4.73950170e-02 3.72181028e-01 5.47918618e-01 5.60486197e-01 5.57317793e-01 5.55983305e-01 5.54665983e-01 5.51907778e-01 5.46968281e-01 5.39499998e-01 5.29455960e-01 5.16643286e-01 5.02178431e-01 4.90374088e-01 4.85504478e-01 5.06143570e-01 5.57665229e-01 5.61832130e-01 5.06908059e-01 4.73152786e-01 4.48168278e-01 4.13141698e-01 3.79541278e-01 3.62265110e-01 3.57225776e-01 3.57181638e-01 3.60659897e-01 3.20913970e-01 1.08233765e-01 2.20971275e-03 1.33143552e-03 4.19242717e-02 3.34174693e-01 5.37753642e-01 5.66239774e-01 5.66310942e-01 5.64598262e-01 5.61746955e-01 5.57591438e-01 5.51693559e-01 5.43439329e-01 5.32374203e-01 5.17917097e-01 5.01849174e-01 4.89437908e-01 4.85214233e-01 5.07059216e-01 5.58537066e-01 5.51337421e-01 4.91174817e-01 4.52936172e-01 4.26335603e-01 3.84761691e-01 3.47679853e-01 3.41604322e-01 3.48779023e-01 3.49495739e-01 3.38812441e-01 2.53585637e-01 6.91028014e-02 1.88319641e-03 1.29295711e-03 3.88451740e-02 3.03089797e-01 5.24383247e-01 5.70094168e-01 5.74617207e-01 5.72780669e-01 5.68432868e-01 5.62466741e-01 5.55308878e-01 5.46228051e-01 5.34373224e-01 5.18127143e-01 4.99402732e-01 4.85946596e-01 4.83992636e-01 5.08935809e-01 5.61034620e-01 5.45516074e-01 4.78046894e-01 4.29880410e-01 3.92072439e-01 3.30013514e-01 2.74254978e-01 2.65426666e-01 2.71622300e-01 2.64932483e-01 2.35473856e-01 1.24723770e-01 2.43426915e-02 1.24268350e-03 1.25475798e-03 3.67500857e-02 2.81424701e-01 5.07909536e-01 5.69139957e-01 5.79482198e-01 5.77940822e-01 5.72159886e-01 5.64578891e-01 5.56263387e-01 5.46823800e-01 5.34600317e-01 5.16723990e-01 4.94493037e-01 4.78954136e-01 4.79875773e-01 5.09621859e-01 5.63189387e-01 5.59060514e-01 4.91951585e-01 4.39573497e-01 3.96914810e-01 3.20779115e-01 2.41408437e-01 1.97861388e-01 1.27034992e-01 6.58660829e-02 5.20594753e-02 2.02435870e-02 4.90930909e-03 5.75914164e-04 1.22371432e-03 3.30186337e-02 2.60504633e-01 4.83171046e-01 5.58712423e-01 5.77271998e-01 5.77084184e-01 5.70269287e-01 5.61588466e-01 5.52862287e-01 5.44025838e-01 5.32542586e-01 5.13531625e-01 4.87267733e-01 4.68505204e-01 4.72611427e-01 5.08858323e-01 5.64795732e-01 5.88050067e-01 5.32021105e-01 4.86584753e-01 4.56396252e-01 3.97199899e-01 3.21444571e-01 2.61652589e-01 9.91853625e-02 5.33596100e-03 1.69512210e-03 1.04088115e-03 5.25876647e-04 2.56886880e-04 8.63623107e-04 2.04243865e-02 2.15772718e-01 4.44143564e-01 5.36508262e-01 5.65785289e-01 5.67743063e-01 5.60471833e-01 5.51634133e-01 5.43699086e-01 5.36764264e-01 5.27491271e-01 5.08506536e-01 4.78036672e-01 4.55023050e-01 4.62689042e-01 5.07157862e-01 5.66465795e-01 6.20246232e-01 5.80285430e-01 5.45429409e-01 5.28442740e-01 4.90631223e-01 4.33270663e-01 4.21505809e-01 2.19895288e-01 1.03233131e-02 8.97440535e-04 1.66505214e-03 3.39738280e-03 3.16333934e-03 1.08125550e-03 2.72700354e-03 8.31353739e-02 3.74007493e-01 5.08976281e-01 5.47732294e-01 5.49490094e-01 5.41490793e-01 5.33808768e-01 5.28510988e-01 5.25352001e-01 5.20070970e-01 5.02644002e-01 4.68199372e-01 4.39565986e-01 4.50950801e-01 5.05200803e-01 5.68624675e-01 6.46253467e-01 6.21869206e-01 5.97199500e-01 5.87801814e-01 5.62319100e-01 5.01880050e-01 5.06534398e-01 3.55677664e-01 6.37980876e-03 1.22703542e-03 2.40104496e-02 2.46281460e-01 3.64496350e-01 2.61535272e-02 1.29095290e-03 4.56620846e-03 1.64526224e-01 4.74334508e-01 5.30435860e-01 5.23868740e-01 5.13253987e-01 5.08694530e-01 5.08646429e-01 5.11488497e-01 5.12102306e-01 4.97972578e-01 4.60262388e-01 4.24357146e-01 4.38474864e-01 5.03669739e-01 5.71632802e-01 6.56596661e-01 6.42687321e-01 6.26251876e-01 6.23233795e-01 6.17064536e-01 5.87278366e-01 5.86869597e-01 4.68807489e-01 5.74053125e-03 5.83431218e-04 9.28987935e-03 4.34877515e-01 6.94102287e-01 4.60128039e-01 8.62576626e-03 9.54115647e-04 1.28543172e-02 3.24419528e-01 5.14512897e-01 4.94061977e-01 4.77828354e-01 4.79969651e-01 4.88492131e-01 4.99062568e-01 5.06723344e-01 4.97336358e-01 4.57592309e-01 4.13115621e-01 4.27627653e-01 5.03594756e-01 5.76050818e-01 6.45273626e-01 6.32041991e-01 6.18369460e-01 6.17522776e-01 6.25102937e-01 6.36307955e-01 5.46377063e-01 3.36866677e-01 4.26271278e-03 2.10131472e-03 5.74340001e-02 5.80944896e-01 6.54915452e-01 6.80647492e-01 3.77793521e-01 7.05510983e-03 2.61419103e-03 8.16999674e-02 4.22821492e-01 4.61991817e-01 4.44373727e-01 4.57834154e-01 4.76977974e-01 4.94546533e-01 5.08306146e-01 5.03926039e-01 4.63588417e-01 4.10294443e-01 4.21420127e-01 5.05921602e-01 5.82242191e-01 6.18092418e-01 5.95609546e-01 5.80479205e-01 5.79760313e-01 5.89570522e-01 5.92808247e-01 3.13405246e-01 9.51969530e-03 7.93112034e-04 3.65501852e-03 3.55790764e-01 6.75761938e-01 6.04274094e-01 6.04550600e-01 7.15851963e-01 2.72921145e-01 4.57581226e-03 3.96833895e-03 1.01258107e-01 3.68726939e-01 4.26288575e-01 4.58532900e-01 4.85233784e-01 5.04752398e-01 5.20895123e-01 5.19879460e-01 4.79953557e-01 4.19000983e-01 4.22798008e-01 5.11047125e-01 5.89790106e-01 5.88915765e-01 5.52880466e-01 5.36348522e-01 5.41450143e-01 5.60479224e-01 5.66786647e-01 2.72311449e-01 3.09307664e-03 3.64801526e-04 7.55879283e-03 4.79738206e-01 6.76668942e-01 5.30361414e-01 4.89669025e-01 6.24034584e-01 6.45729125e-01 6.24088496e-02 2.16559367e-03 5.98542765e-03 1.80609822e-01 4.15687501e-01 4.86062318e-01 5.15840948e-01 5.31321168e-01 5.44971228e-01 5.43983519e-01 5.04929841e-01 4.40011173e-01 4.33881968e-01 5.18822789e-01 5.97351134e-01 5.67793906e-01 5.20166814e-01 5.03732860e-01 5.19026101e-01 5.51643670e-01 5.55241287e-01 2.48987317e-01 2.88908416e-03 1.95876509e-03 8.93557519e-02 6.36609077e-01 6.84947371e-01 4.83042836e-01 3.84609252e-01 4.25984144e-01 5.78564644e-01 4.19266552e-01 3.33774574e-02 1.48315355e-02 2.03043178e-01 4.92108375e-01 5.49473643e-01 5.64849913e-01 5.71141541e-01 5.77502370e-01 5.71606398e-01 5.32595694e-01 4.69663143e-01 4.54796195e-01 5.29047072e-01 6.03302360e-01 5.55700779e-01 5.00752926e-01 4.85093117e-01 5.09892702e-01 5.54040849e-01 5.48705637e-01 2.15323895e-01 2.75372271e-03 2.55931751e-03 2.05680639e-01 6.80947006e-01 6.58305526e-01 4.58577186e-01 3.08444589e-01 2.74237156e-01 3.69266152e-01 5.08086681e-01 3.93143266e-01 2.58056074e-01 4.91103470e-01 6.28777504e-01 6.28173769e-01 6.25849426e-01 6.20973766e-01 6.14524245e-01 5.98786175e-01 5.58776736e-01 5.02884328e-01 4.84027594e-01 5.42494595e-01 6.07498407e-01 5.47989905e-01 4.88665670e-01 4.72813129e-01 5.02636671e-01 5.53274989e-01 5.47142863e-01 1.97345108e-01 2.64968723e-03 2.35491688e-03 1.85139418e-01 6.60593867e-01 6.33319020e-01 4.45355833e-01 2.60465950e-01 1.87435046e-01 2.33921751e-01 3.88630182e-01 5.32120168e-01 5.86000323e-01 6.61543548e-01 6.92612231e-01 6.89860106e-01 6.84250891e-01 6.68860972e-01 6.48609102e-01 6.23118162e-01 5.83500087e-01 5.37020981e-01 5.18992960e-01 5.60486436e-01 6.11948133e-01 5.40385544e-01 4.77520257e-01 4.59556669e-01 4.88816828e-01 5.40818155e-01 5.45602739e-01 2.00552896e-01 2.66091526e-03 2.06214306e-03 1.32214040e-01 6.35095716e-01 6.34685636e-01 4.42507595e-01 2.26430938e-01 1.30969718e-01 1.55542135e-01 2.87236363e-01 4.67562824e-01 5.95953524e-01 6.73578382e-01 7.08636582e-01 7.20677733e-01 7.16703057e-01 6.97243214e-01 6.71441615e-01 6.42729998e-01 6.07163489e-01 5.70694745e-01 5.55694878e-01 5.82324386e-01 6.18891358e-01 5.32193363e-01 4.65954721e-01 4.44748014e-01 4.69376266e-01 5.18677950e-01 5.40833175e-01 2.20684797e-01 2.85716332e-03 1.71672332e-03 8.96556079e-02 5.98440588e-01 6.39722466e-01 4.51562166e-01 2.11910665e-01 9.42348242e-02 9.70458239e-02 2.02480927e-01 3.77919555e-01 5.20059407e-01 6.19880259e-01 6.83294535e-01 7.13941276e-01 7.17203498e-01 7.01907754e-01 6.79103673e-01 6.53874218e-01 6.25623584e-01 5.99070847e-01 5.87645888e-01 6.03561997e-01 6.27650499e-01 5.25233865e-01 4.56481040e-01 4.32446331e-01 4.50646222e-01 4.92458731e-01 5.23808062e-01 2.38330185e-01 3.12433322e-03 8.82467139e-04 3.49202268e-02 5.15035689e-01 6.29401207e-01 4.72675443e-01 2.31012404e-01 8.11612532e-02 5.86179197e-02 1.21240027e-01 2.81996727e-01 4.32162523e-01 5.41336000e-01 6.25200391e-01 6.73739076e-01 6.88891947e-01 6.83026791e-01 6.68280721e-01 6.50732815e-01 6.31714165e-01 6.14597976e-01 6.07103646e-01 6.17278636e-01 6.34199679e-01 5.21841824e-01 4.52252984e-01 4.26589429e-01 4.38055694e-01 4.68313098e-01 5.00036359e-01 3.01826715e-01 5.86140901e-03 2.55568157e-04 6.00923365e-03 3.71381491e-01 5.98160386e-01 4.96576786e-01 2.91234285e-01 9.72643644e-02 4.27902304e-02 6.20289557e-02 1.71417505e-01 3.39314789e-01 4.64158028e-01 5.55487335e-01 6.12261951e-01 6.36440933e-01 6.40961885e-01 6.36991560e-01 6.29941642e-01 6.21399462e-01 6.13479674e-01 6.10222936e-01 6.18537009e-01 6.34209454e-01 5.24719357e-01 4.56569850e-01 4.30281132e-01 4.34878290e-01 4.51717615e-01 4.82985049e-01 4.30631280e-01 6.39001876e-02 1.21330179e-03 3.38709145e-03 2.76180148e-01 5.49868643e-01 5.10417759e-01 3.86104017e-01 1.62630111e-01 4.89536226e-02 3.55186798e-02 7.90984035e-02 2.16684148e-01 3.80791515e-01 4.82712269e-01 5.37633955e-01 5.65467477e-01 5.80053985e-01 5.88687241e-01 5.93985081e-01 5.96637845e-01 5.97758889e-01 5.99247634e-01 6.08244717e-01 6.26884997e-01 5.36815226e-01 4.74449456e-01 4.49698448e-01 4.48650837e-01 4.51429009e-01 4.66873646e-01 4.72570211e-01 1.66386291e-01 2.36361800e-03 2.89926352e-03 2.31356323e-01 4.93013531e-01 5.04794955e-01 4.84778345e-01 2.98026353e-01 8.73509198e-02 2.96320133e-02 3.54352854e-02 1.02600604e-01 2.75001585e-01 4.10978884e-01 4.59417909e-01 4.88122135e-01 5.13630092e-01 5.35907447e-01 5.53798497e-01 5.67113161e-01 5.76569617e-01 5.83341599e-01 5.94291687e-01 6.16600633e-01 5.72504938e-01 5.20195246e-01 5.01666069e-01 5.01869082e-01 5.00464976e-01 4.99821126e-01 4.97256517e-01 2.30606839e-01 2.79340451e-03 3.08004627e-03 2.48576462e-01 5.03065646e-01 5.26379168e-01 5.60310662e-01 4.69350010e-01 2.00485557e-01 4.64541465e-02 2.27613263e-02 5.37869819e-02 2.17142090e-01 4.12512660e-01 4.45406973e-01 4.56205815e-01 4.83397365e-01 5.13241768e-01 5.38339794e-01 5.57500482e-01 5.71496546e-01 5.81707418e-01 5.92499852e-01 6.12969220e-01 6.10062182e-01 5.80770969e-01 5.67605972e-01 5.71981609e-01 5.74225545e-01 5.72243392e-01 5.48288882e-01 3.01748931e-01 3.77775822e-03 2.85920501e-03 3.58149737e-01 6.10822439e-01 6.00388288e-01 6.33398473e-01 5.99575579e-01 3.77047867e-01 1.22488312e-01 4.45178784e-02 6.25354648e-02 2.67488748e-01 5.28692901e-01 5.54256022e-01 5.25578558e-01 5.31474411e-01 5.51852643e-01 5.71163476e-01 5.86206853e-01 5.97272515e-01 6.05531633e-01 6.13043487e-01 6.26053214e-01 
