# vtk DataFile Version 2.0
results_case1_non_linear/iter2.vtk, Created by Freefem++ 
ASCII
DATASET UNSTRUCTURED_GRID
POINTS 961 float
0 0 0
0.033333333 0 0
0.066666667 0 0
0.1 0 0
0.13333333 0 0
0.16666667 0 0
0.2 0 0
0.23333333 0 0
0.26666667 0 0
0.3 0 0
0.33333333 0 0
0.36666667 0 0
0.4 0 0
0.43333333 0 0
0.46666667 0 0
0.5 0 0
0.53333333 0 0
0.56666667 0 0
0.6 0 0
0.63333333 0 0
0.66666667 0 0
0.7 0 0
0.73333333 0 0
0.76666667 0 0
0.8 0 0
0.83333333 0 0
0.86666667 0 0
0.9 0 0
0.93333333 0 0
0.96666667 0 0
1 0 0
0 0.033333333 0
0.033333333 0.033333333 0
0.066666667 0.033333333 0
0.1 0.033333333 0
0.13333333 0.033333333 0
0.16666667 0.033333333 0
0.2 0.033333333 0
0.23333333 0.033333333 0
0.26666667 0.033333333 0
0.3 0.033333333 0
0.33333333 0.033333333 0
0.36666667 0.033333333 0
0.4 0.033333333 0
0.43333333 0.033333333 0
0.46666667 0.033333333 0
0.5 0.033333333 0
0.53333333 0.033333333 0
0.56666667 0.033333333 0
0.6 0.033333333 0
0.63333333 0.033333333 0
0.66666667 0.033333333 0
0.7 0.033333333 0
0.73333333 0.033333333 0
0.76666667 0.033333333 0
0.8 0.033333333 0
0.83333333 0.033333333 0
0.86666667 0.033333333 0
0.9 0.033333333 0
0.93333333 0.033333333 0
0.96666667 0.033333333 0
1 0.033333333 0
0 0.066666667 0
0.033333333 0.066666667 0
0.066666667 0.066666667 0
0.1 0.066666667 0
0.13333333 0.066666667 0
0.16666667 0.066666667 0
0.2 0.066666667 0
0.23333333 0.066666667 0
0.26666667 0.066666667 0
0.3 0.066666667 0
0.33333333 0.066666667 0
0.36666667 0.066666667 0
0.4 0.066666667 0
0.43333333 0.066666667 0
0.46666667 0.066666667 0
0.5 0.066666667 0
0.53333333 0.066666667 0
0.56666667 0.066666667 0
0.6 0.066666667 0
0.63333333 0.066666667 0
0.66666667 0.066666667 0
0.7 0.066666667 0
0.73333333 0.066666667 0
0.76666667 0.066666667 0
0.8 0.066666667 0
0.83333333 0.066666667 0
0.86666667 0.066666667 0
0.9 0.066666667 0
0.93333333 0.066666667 0
0.96666667 0.066666667 0
1 0.066666667 0
0 0.1 0
0.033333333 0.1 0
0.066666667 0.1 0
0.1 0.1 0
0.13333333 0.1 0
0.16666667 0.1 0
0.2 0.1 0
0.23333333 0.1 0
0.26666667 0.1 0
0.3 0.1 0
0.33333333 0.1 0
0.36666667 0.1 0
0.4 0.1 0
0.43333333 0.1 0
0.46666667 0.1 0
0.5 0.1 0
0.53333333 0.1 0
0.56666667 0.1 0
0.6 0.1 0
0.63333333 0.1 0
0.66666667 0.1 0
0.7 0.1 0
0.73333333 0.1 0
0.76666667 0.1 0
0.8 0.1 0
0.83333333 0.1 0
0.86666667 0.1 0
0.9 0.1 0
0.93333333 0.1 0
0.96666667 0.1 0
1 0.1 0
0 0.13333333 0
0.033333333 0.13333333 0
0.066666667 0.13333333 0
0.1 0.13333333 0
0.13333333 0.13333333 0
0.16666667 0.13333333 0
0.2 0.13333333 0
0.23333333 0.13333333 0
0.26666667 0.13333333 0
0.3 0.13333333 0
0.33333333 0.13333333 0
0.36666667 0.13333333 0
0.4 0.13333333 0
0.43333333 0.13333333 0
0.46666667 0.13333333 0
0.5 0.13333333 0
0.53333333 0.13333333 0
0.56666667 0.13333333 0
0.6 0.13333333 0
0.63333333 0.13333333 0
0.66666667 0.13333333 0
0.7 0.13333333 0
0.73333333 0.13333333 0
0.76666667 0.13333333 0
0.8 0.13333333 0
0.83333333 0.13333333 0
0.86666667 0.13333333 0
0.9 0.13333333 0
0.93333333 0.13333333 0
0.96666667 0.13333333 0
1 0.13333333 0
0 0.16666667 0
0.033333333 0.16666667 0
0.066666667 0.16666667 0
0.1 0.16666667 0
0.13333333 0.16666667 0
0.16666667 0.16666667 0
0.2 0.16666667 0
0.23333333 0.16666667 0
0.26666667 0.16666667 0
0.3 0.16666667 0
0.33333333 0.16666667 0
0.36666667 0.16666667 0
0.4 0.16666667 0
0.43333333 0.16666667 0
0.46666667 0.16666667 0
0.5 0.16666667 0
0.53333333 0.16666667 0
0.56666667 0.16666667 0
0.6 0.16666667 0
0.63333333 0.16666667 0
0.66666667 0.16666667 0
0.7 0.16666667 0
0.73333333 0.16666667 0
0.76666667 0.16666667 0
0.8 0.16666667 0
0.83333333 0.16666667 0
0.86666667 0.16666667 0
0.9 0.16666667 0
0.93333333 0.16666667 0
0.96666667 0.16666667 0
1 0.16666667 0
0 0.2 0
0.033333333 0.2 0
0.066666667 0.2 0
0.1 0.2 0
0.13333333 0.2 0
0.16666667 0.2 0
0.2 0.2 0
0.23333333 0.2 0
0.26666667 0.2 0
0.3 0.2 0
0.33333333 0.2 0
0.36666667 0.2 0
0.4 0.2 0
0.43333333 0.2 0
0.46666667 0.2 0
0.5 0.2 0
0.53333333 0.2 0
0.56666667 0.2 0
0.6 0.2 0
0.63333333 0.2 0
0.66666667 0.2 0
0.7 0.2 0
0.73333333 0.2 0
0.76666667 0.2 0
0.8 0.2 0
0.83333333 0.2 0
0.86666667 0.2 0
0.9 0.2 0
0.93333333 0.2 0
0.96666667 0.2 0
1 0.2 0
0 0.23333333 0
0.033333333 0.23333333 0
0.066666667 0.23333333 0
0.1 0.23333333 0
0.13333333 0.23333333 0
0.16666667 0.23333333 0
0.2 0.23333333 0
0.23333333 0.23333333 0
0.26666667 0.23333333 0
0.3 0.23333333 0
0.33333333 0.23333333 0
0.36666667 0.23333333 0
0.4 0.23333333 0
0.43333333 0.23333333 0
0.46666667 0.23333333 0
0.5 0.23333333 0
0.53333333 0.23333333 0
0.56666667 0.23333333 0
0.6 0.23333333 0
0.63333333 0.23333333 0
0.66666667 0.23333333 0
0.7 0.23333333 0
0.73333333 0.23333333 0
0.76666667 0.23333333 0
0.8 0.23333333 0
0.83333333 0.23333333 0
0.86666667 0.23333333 0
0.9 0.23333333 0
0.93333333 0.23333333 0
0.96666667 0.23333333 0
1 0.23333333 0
0 0.26666667 0
0.033333333 0.26666667 0
0.066666667 0.26666667 0
0.1 0.26666667 0
0.13333333 0.26666667 0
0.16666667 0.26666667 0
0.2 0.26666667 0
0.23333333 0.26666667 0
0.26666667 0.26666667 0
0.3 0.26666667 0
0.33333333 0.26666667 0
0.36666667 0.26666667 0
0.4 0.26666667 0
0.43333333 0.26666667 0
0.46666667 0.26666667 0
0.5 0.26666667 0
0.53333333 0.26666667 0
0.56666667 0.26666667 0
0.6 0.26666667 0
0.63333333 0.26666667 0
0.66666667 0.26666667 0
0.7 0.26666667 0
0.73333333 0.26666667 0
0.76666667 0.26666667 0
0.8 0.26666667 0
0.83333333 0.26666667 0
0.86666667 0.26666667 0
0.9 0.26666667 0
0.93333333 0.26666667 0
0.96666667 0.26666667 0
1 0.26666667 0
0 0.3 0
0.033333333 0.3 0
0.066666667 0.3 0
0.1 0.3 0
0.13333333 0.3 0
0.16666667 0.3 0
0.2 0.3 0
0.23333333 0.3 0
0.26666667 0.3 0
0.3 0.3 0
0.33333333 0.3 0
0.36666667 0.3 0
0.4 0.3 0
0.43333333 0.3 0
0.46666667 0.3 0
0.5 0.3 0
0.53333333 0.3 0
0.56666667 0.3 0
0.6 0.3 0
0.63333333 0.3 0
0.66666667 0.3 0
0.7 0.3 0
0.73333333 0.3 0
0.76666667 0.3 0
0.8 0.3 0
0.83333333 0.3 0
0.86666667 0.3 0
0.9 0.3 0
0.93333333 0.3 0
0.96666667 0.3 0
1 0.3 0
0 0.33333333 0
0.033333333 0.33333333 0
0.066666667 0.33333333 0
0.1 0.33333333 0
0.13333333 0.33333333 0
0.16666667 0.33333333 0
0.2 0.33333333 0
0.23333333 0.33333333 0
0.26666667 0.33333333 0
0.3 0.33333333 0
0.33333333 0.33333333 0
0.36666667 0.33333333 0
0.4 0.33333333 0
0.43333333 0.33333333 0
0.46666667 0.33333333 0
0.5 0.33333333 0
0.53333333 0.33333333 0
0.56666667 0.33333333 0
0.6 0.33333333 0
0.63333333 0.33333333 0
0.66666667 0.33333333 0
0.7 0.33333333 0
0.73333333 0.33333333 0
0.76666667 0.33333333 0
0.8 0.33333333 0
0.83333333 0.33333333 0
0.86666667 0.33333333 0
0.9 0.33333333 0
0.93333333 0.33333333 0
0.96666667 0.33333333 0
1 0.33333333 0
0 0.36666667 0
0.033333333 0.36666667 0
0.066666667 0.36666667 0
0.1 0.36666667 0
0.13333333 0.36666667 0
0.16666667 0.36666667 0
0.2 0.36666667 0
0.23333333 0.36666667 0
0.26666667 0.36666667 0
0.3 0.36666667 0
0.33333333 0.36666667 0
0.36666667 0.36666667 0
0.4 0.36666667 0
0.43333333 0.36666667 0
0.46666667 0.36666667 0
0.5 0.36666667 0
0.53333333 0.36666667 0
0.56666667 0.36666667 0
0.6 0.36666667 0
0.63333333 0.36666667 0
0.66666667 0.36666667 0
0.7 0.36666667 0
0.73333333 0.36666667 0
0.76666667 0.36666667 0
0.8 0.36666667 0
0.83333333 0.36666667 0
0.86666667 0.36666667 0
0.9 0.36666667 0
0.93333333 0.36666667 0
0.96666667 0.36666667 0
1 0.36666667 0
0 0.4 0
0.033333333 0.4 0
0.066666667 0.4 0
0.1 0.4 0
0.13333333 0.4 0
0.16666667 0.4 0
0.2 0.4 0
0.23333333 0.4 0
0.26666667 0.4 0
0.3 0.4 0
0.33333333 0.4 0
0.36666667 0.4 0
0.4 0.4 0
0.43333333 0.4 0
0.46666667 0.4 0
0.5 0.4 0
0.53333333 0.4 0
0.56666667 0.4 0
0.6 0.4 0
0.63333333 0.4 0
0.66666667 0.4 0
0.7 0.4 0
0.73333333 0.4 0
0.76666667 0.4 0
0.8 0.4 0
0.83333333 0.4 0
0.86666667 0.4 0
0.9 0.4 0
0.93333333 0.4 0
0.96666667 0.4 0
1 0.4 0
0 0.43333333 0
0.033333333 0.43333333 0
0.066666667 0.43333333 0
0.1 0.43333333 0
0.13333333 0.43333333 0
0.16666667 0.43333333 0
0.2 0.43333333 0
0.23333333 0.43333333 0
0.26666667 0.43333333 0
0.3 0.43333333 0
0.33333333 0.43333333 0
0.36666667 0.43333333 0
0.4 0.43333333 0
0.43333333 0.43333333 0
0.46666667 0.43333333 0
0.5 0.43333333 0
0.53333333 0.43333333 0
0.56666667 0.43333333 0
0.6 0.43333333 0
0.63333333 0.43333333 0
0.66666667 0.43333333 0
0.7 0.43333333 0
0.73333333 0.43333333 0
0.76666667 0.43333333 0
0.8 0.43333333 0
0.83333333 0.43333333 0
0.86666667 0.43333333 0
0.9 0.43333333 0
0.93333333 0.43333333 0
0.96666667 0.43333333 0
1 0.43333333 0
0 0.46666667 0
0.033333333 0.46666667 0
0.066666667 0.46666667 0
0.1 0.46666667 0
0.13333333 0.46666667 0
0.16666667 0.46666667 0
0.2 0.46666667 0
0.23333333 0.46666667 0
0.26666667 0.46666667 0
0.3 0.46666667 0
0.33333333 0.46666667 0
0.36666667 0.46666667 0
0.4 0.46666667 0
0.43333333 0.46666667 0
0.46666667 0.46666667 0
0.5 0.46666667 0
0.53333333 0.46666667 0
0.56666667 0.46666667 0
0.6 0.46666667 0
0.63333333 0.46666667 0
0.66666667 0.46666667 0
0.7 0.46666667 0
0.73333333 0.46666667 0
0.76666667 0.46666667 0
0.8 0.46666667 0
0.83333333 0.46666667 0
0.86666667 0.46666667 0
0.9 0.46666667 0
0.93333333 0.46666667 0
0.96666667 0.46666667 0
1 0.46666667 0
0 0.5 0
0.033333333 0.5 0
0.066666667 0.5 0
0.1 0.5 0
0.13333333 0.5 0
0.16666667 0.5 0
0.2 0.5 0
0.23333333 0.5 0
0.26666667 0.5 0
0.3 0.5 0
0.33333333 0.5 0
0.36666667 0.5 0
0.4 0.5 0
0.43333333 0.5 0
0.46666667 0.5 0
0.5 0.5 0
0.53333333 0.5 0
0.56666667 0.5 0
0.6 0.5 0
0.63333333 0.5 0
0.66666667 0.5 0
0.7 0.5 0
0.73333333 0.5 0
0.76666667 0.5 0
0.8 0.5 0
0.83333333 0.5 0
0.86666667 0.5 0
0.9 0.5 0
0.93333333 0.5 0
0.96666667 0.5 0
1 0.5 0
0 0.53333333 0
0.033333333 0.53333333 0
0.066666667 0.53333333 0
0.1 0.53333333 0
0.13333333 0.53333333 0
0.16666667 0.53333333 0
0.2 0.53333333 0
0.23333333 0.53333333 0
0.26666667 0.53333333 0
0.3 0.53333333 0
0.33333333 0.53333333 0
0.36666667 0.53333333 0
0.4 0.53333333 0
0.43333333 0.53333333 0
0.46666667 0.53333333 0
0.5 0.53333333 0
0.53333333 0.53333333 0
0.56666667 0.53333333 0
0.6 0.53333333 0
0.63333333 0.53333333 0
0.66666667 0.53333333 0
0.7 0.53333333 0
0.73333333 0.53333333 0
0.76666667 0.53333333 0
[...]
CELL_DATA 1920
Scalars  Label int 1
LOOKUP_TABLE FreeFempp_table
0
0
0
0
0
0
0
0
0
0
0
0
0
0
0
0
0
0
0
0
0
0
0
0
0
0
0
0
0
0
0
0
0
0
0
0
0
0
0
0
0
0
0
0
0
0
0
0
0
0
0
0
0
0
0
0
0
0
0
0
0
0
0
0
0
0
0
0
0
0
0
0
0
0
0
0
0
0
0
0
0
0
0
0
0
0
0
0
0
0
0
0
0
0
0
0
0
0
0
0
0
0
0
0
0
0
0
0
0
0
0
0
0
0
0
0
0
0
0
0
0
0
0
0
0
0
0
0
0
0
0
0
0
0
0
0
0
0
0
0
0
0
0
0
0
0
0
0
0
0
0
0
0
0
0
0
0
0
0
0
0
0
0
0
0
0
0
0
0
0
0
0
0
0
0
0
0
0
0
0
0
0
0
0
0
0
0
0
0
0
0
0
0
0
0
0
0
0
0
0
0
0
0
0
0
0
0
0
0
0
0
0
0
0
0
0
0
0
0
0
0
0
0
0
0
0
0
0
0
0
0
0
0
0
0
0
0
0
0
0
0
0
0
0
0
0
0
0
0
0
0
0
0
0
0
0
0
0
0
0
0
0
0
0
0
0
0
0
0
0
0
0
0
0
0
0
0
0
0
0
0
0
0
0
0
0
0
0
0
0
0
0
0
0
0
0
0
0
0
0
0
0
0
0
0
0
0
0
0
0
0
0
0
0
0
0
0
0
0
0
0
0
0
0
0
0
0
0
0
0
0
0
0
0
0
0
0
0
0
0
0
0
0
0
0
0
0
0
0
0
0
0
0
0
0
0
0
0
0
0
0
0
0
0
0
0
0
0
0
0
0
0
0
0
0
0
0
0
0
0
0
0
0
0
0
0
0
0
0
0
0
0
0
0
0
0
0
0
0
0
0
0
0
0
0
0
0
0
0
0
0
0
0
0
0
0
0
0
0
0
0
0
0
0
0
0
0
0
0
0
0
0
0
0
0
0
0
0
0
0
0
0
0
0
0
0
0
0
0
0
0
0
0
0
0
0
0
0
0
0
0
0
0
0
0
0
0
0
0
0
0
0
0
0
0
0
0
0
0
0
0
0
0
0
0
0
0
0
0
0
0
0
0
0
0
0
0
0
0
0
0
0
0
0
0
0
0
0
0
0
0
0
0
0
0
0
0
0
0
0
0
0
0
0
0
0
0
0
0
0
0
0
0
0
0
0
0
0
0
0
0
0
0
0
0
0
0
0
0
0
0
0
0
0
0
0
0
0
0
0
0
0
0
0
0
0
0
0
0
0
0
0
0
0
0
0
0
0
0
0
0
0
0
0
0
0
0
0
0
0
0
0
0
0
0
0
0
0
0
0
0
0
0
0
0
0
0
0
0
0
0
0
0
0
0
0
0
0
0
0
0
0
0
0
0
0
0
0
0
0
0
0
0
0
0
0
0
0
0
0
0
0
0
0
0
0
0
0
0
0
0
0
0
0
0
0
0
0
0
0
0
0
0
0
0
0
0
0
0
0
0
0
0
0
0
0
0
0
0
0
0
0
0
0
0
0
0
0
0
0
0
0
0
0
0
0
0
0
0
0
0
0
0
0
0
0
0
0
0
0
0
0
0
0
0
0
0
0
0
0
0
0
0
0
0
0
0
0
0
0
0
0
0
0
0
0
0
0
0
0
0
0
0
0
0
0
0
0
0
0
0
0
0
0
0
0
0
0
0
0
0
0
0
0
0
0
0
0
0
0
0
0
0
0
0
0
0
0
0
0
0
0
0
0
0
0
0
0
0
0
0
0
0
0
0
0
0
0
0
0
0
0
0
0
0
0
0
0
0
0
0
0
0
0
0
0
0
0
0
0
0
0
0
0
0
0
0
0
0
0
0
0
0
0
0
0
0
0
0
0
0
0
0
0
0
0
0
0
0
0
0
0
0
0
0
0
0
0
0
0
0
0
0
0
0
0
0
0
0
0
0
0
0
0
0
0
0
0
0
0
0
0
0
0
0
0
0
0
0
0
0
0
0
0
0
0
0
0
0
0
0
0
0
0
0
0
0
0
0
0
0
0
0
0
0
0
0
0
0
0
0
0
0
0
0
0
0
0
0
0
0
0
0
0
0
0
0
0
0
0
0
0
0
0
0
0
0
0
0
0
0
0
0
0
0
0
0
0
0
0
0
0
0
0
0
0
0
0
0
0
0
0
0
0
0
0
0
0
0
0
0
0
0
0
0
0
0
0
0
0
0
0
0
0
0
0
0
0
0
0
0
0
0
0
0
0
0
0
0
0
0
0
0
0
0
0
0
0
0
0
0
0
0
0
0
0
0
0
0
0
0
0
0
0
0
0
0
0
0
0
0
0
0
0
0
0
0
0
0
0
0
0
0
0
0
0
0
0
0
0
0
0
0
0
0
0
0
0
0
0
0
0
0
0
0
0
0
0
0
0
0
0
0
0
0
0
0
0
0
0
0
0
0
0
0
0
0
0
0
0
0
0
0
0
0
0
0
0
0
0
0
0
0
0
0
0
0
0
0
0
0
0
0
0
0
0
0
0
0
0
0
0
0
0
0
0
0
0
0
0
0
0
0
0
0
0
0
0
0
0
0
0
0
0
0
0
0
0
0
0
0
0
0
0
0
0
0
0
0
0
0
0
0
0
0
0
0
0
0
0
0
0
0
0
0
0
0
0
0
0
0
0
0
0
0
0
0
0
0
0
0
0
0
0
0
0
0
0
0
0
0
0
0
0
0
0
0
0
0
0
0
0
0
0
0
0
0
0
0
0
0
0
0
0
0
0
0
0
0
0
0
0
0
0
0
0
0
0
0
0
0
0
0
0
0
0
0
0
0
0
0
0
0
0
0
0
0
0
0
0
0
0
0
0
0
0
0
0
0
0
0
0
0
0
0
0
0
0
0
0
0
0
0
0
0
0
0
0
0
0
0
0
0
0
0
0
0
0
0
0
0
0
0
0
0
0
0
0
0
0
0
0
0
0
0
0
0
0
0
0
0
0
0
0
0
0
0
0
0
0
0
0
0
0
0
0
0
0
0
0
0
0
0
0
0
0
0
0
0
0
0
0
0
0
0
0
0
0
0
0
0
0
0
0
0
0
0
0
0
0
0
0
0
0
0
0
0
0
0
0
0
0
0
0
0
0
0
0
0
0
0
0
0
0
0
0
0
0
0
0
0
0
0
0
0
0
0
0
0
0
0
0
0
0
0
0
0
0
0
0
0
0
0
0
0
0
0
0
0
0
0
0
0
0
0
0
0
0
0
0
0
0
0
0
0
0
0
0
0
0
0
0
0
0
0
0
0
0
0
0
0
0
0
0
0
0
0
0
0
0
0
0
0
0
0
0
0
0
0
0
0
0
0
0
0
0
0
0
0
0
0
0
0
0
0
0
0
0
0
0
0
0
0
0
0
0
0
0
0
0
0
0
0
0
0
0
0
0
0
0
0
0
0
0
0
0
0
0
0
0
0
0
0
0
0
0
0
0
0
0
0
0
0
0
0
0
0
0
0
0
0
0
0
0
0
0
0
0
0
0
0
0
0
0
0
0
0
0
0
0
0
0
0
0
0
0
0
0
0
0
0
0
0
0
0
0
0
0
0
0
0
0
0
0
0
0
0
0
0
0
0
0
0
0
0
0
0
0
0
0
0
0
0
0
0
0
0
0
0
0
0
0
0
0
0
0
0
0
0
0
0
0
0
0
0
0
0
0
0
0
0
0
0
0
0
0
0
0
0
0
0
0
0
0
0
0
0
0
0
0
0
0
0
0
0
0
0
0
0
0
0
0
0
0
0
0
0
0
0
0
0
0
0
0
0
0
0
0
0
0
0
0
0
0
0
0
0
0
0
0
0
0
0
0
0
0
0
0
0
0
0
0
0
0
0
0
0
0
0
0
0
0
0
0
0
0
0
0
0
0
0
0
0
0
0
0
0
0
0
0
0
0
0
0
0
0
0
0
0
0
0
0
0
0
0
0
0
0
0
0
0
0
0
0
0
0
0
0
0
0
0
0
0
0
0
0
0
0
0
0
0
0
0
0
0
0
0
0
0
0
1
1
1
1
1
1
1
1
1
1
1
1
1
1
1
1
1
1
1
1
1
1
1
1
1
1
1
1
1
1
2
2
2
2
2
2
2
2
2
2
2
2
2
2
2
2
2
2
2
2
2
2
2
2
2
2
2
2
2
2
3
3
3
3
3
3
3
3
3
3
3
3
3
3
3
3
3
3
3
3
3
3
3
3
3
3
3
3
3
3
4
4
4
4
4
4
4
4
4
4
4
4
4
4
4
4
4
4
4
4
4
4
4
4
4
4
4
4
4
4

LOOKUP_TABLE FreeFempp_table 5
1.00000000 0.00000000 0.00000000 1.00000000
1.00000000 1.00000000 0.00000000 1.00000000
1.00000000 0.00000000 1.00000000 1.00000000
0.00000000 1.00000000 0.00000000 1.00000000
0.00000000 1.00000000 1.00000000 1.00000000

POINT_DATA 961
FIELD FieldData 1
Density 1 961 float
6.55618077e-03 2.07724690e-04 2.39866273e-03 4.16117348e-03 4.85031726e-03 5.43603813e-03 5.82580129e-03 5.98386629e-03 6.00940501e-03 6.12527411e-03 6.97320746e-03 4.59617823e-01 5.54426610e-01 2.85217017e-01 1.96269363e-01 2.20473602e-01 2.61007726e-01 1.99363574e-01 1.52311474e-01 3.16913277e-01 4.85413224e-01 3.30186814e-01 2.51720905e-01 2.64682591e-01 3.41668576e-01 3.39816630e-01 8.83270681e-01 9.93162096e-01 8.13080370e-03 1.02718892e-02 6.43198848e-01 7.66488118e-03 6.04320969e-03 6.48356555e-03 6.57524634e-03 6.47163531e-03 6.34801015e-03 6.17935741e-03 5.97397005e-03 5.77428658e-03 5.70504786e-03 5.38341608e-03 5.38403168e-03 6.61350694e-03 6.58557238e-03 9.52197146e-03 3.74993384e-02 1.18202887e-01 1.11838646e-01 9.98007506e-02 1.25113651e-01 8.38140473e-02 4.70135249e-02 2.89506596e-02 2.11604722e-02 6.78999424e-02 1.75482333e-01 5.40212333e-01 9.91810322e-01 9.11805592e-03 5.45714423e-03 3.73065174e-02 9.58742380e-01 8.71394992e-01 2.50174314e-01 1.09090455e-01 1.40641361e-01 1.93599120e-01 2.37383798e-01 2.60552227e-01 2.61118621e-01 2.14931086e-01 1.02968238e-01 6.78657368e-03 5.51419798e-03 5.74228959e-03 5.29898936e-03 5.36533073e-03 9.83527116e-03 3.15169811e-01 5.17522514e-01 3.98455888e-01 6.35889173e-02 2.75581069e-02 2.08354071e-02 1.94610525e-02 2.59229895e-02 3.06628048e-01 7.53636539e-01 9.93367374e-01 5.97555995e-01 5.53005608e-03 7.67512433e-03 9.56841886e-01 9.06786799e-01 4.71133530e-01 3.25883418e-01 3.80682170e-01 4.61796731e-01 5.41833580e-01 6.00673437e-01 6.24066591e-01 5.88131070e-01 5.15180230e-01 4.58883166e-01 8.23577762e-01 5.83630316e-02 1.66326724e-02 9.56934225e-03 5.75990276e-03 6.46027271e-03 4.20212299e-02 1.98908690e-02 1.36388233e-02 2.16016490e-02 4.46384661e-02 8.52879584e-02 1.08081773e-01 2.47306451e-01 7.16350734e-01 9.88751411e-01 7.85256386e-01 6.30223285e-03 6.64341077e-03 9.21917856e-01 9.27362621e-01 7.07958281e-01 7.90514767e-01 7.95191884e-01 7.80828118e-01 7.86648214e-01 8.01638007e-01 8.10528219e-01 8.05507898e-01 7.81037986e-01 7.52757430e-01 7.61445403e-01 8.37652504e-01 7.00962305e-01 3.02906990e-01 8.13891888e-02 8.60017538e-03 7.56795099e-03 1.26789007e-02 1.36805214e-02 1.61603112e-02 4.68125194e-02 3.70988190e-01 4.98300076e-01 5.32614410e-01 8.01835418e-01 9.75411713e-01 8.18265021e-01 6.59091910e-03 6.76635280e-03 7.57848263e-01 8.33340287e-01 7.19713569e-01 8.08448613e-01 8.38614106e-01 8.45133305e-01 8.47886324e-01 8.49112332e-01 8.44823658e-01 8.29334617e-01 7.98800826e-01 7.52250314e-01 6.90908194e-01 6.86755657e-01 7.83101618e-01 8.36632490e-01 7.87071764e-01 3.50799888e-01 1.48879103e-02 1.23212002e-02 1.37944734e-02 9.12327841e-02 3.73892277e-01 6.22474194e-01 7.47907639e-01 7.98100710e-01 8.68662417e-01 9.53345656e-01 8.81747782e-01 7.18635693e-03 7.19337119e-03 6.98059499e-01 5.75187504e-01 7.23641634e-01 7.80166090e-01 8.04769516e-01 8.27134728e-01 8.34884822e-01 8.34524095e-01 8.23024929e-01 7.94393897e-01 7.41973281e-01 6.66897774e-01 5.85467458e-01 5.25810063e-01 5.31557024e-01 6.18197799e-01 6.98179603e-01 7.64767051e-01 7.89147377e-01 6.60326362e-01 4.51878369e-01 4.45254385e-01 5.00903308e-01 6.34900510e-01 7.49743283e-01 8.28709006e-01 8.79681051e-01 9.36693907e-01 9.37631428e-01 7.75729120e-03 7.60207558e-03 7.39481568e-01 3.35749984e-01 7.36765206e-01 7.59751856e-01 7.72955120e-01 7.98539639e-01 8.10829163e-01 8.11805010e-01 7.98000753e-01 7.64138579e-01 7.05810666e-01 6.27860725e-01 5.49306512e-01 4.89371210e-01 4.53885168e-01 4.36087728e-01 4.11842942e-01 3.89030099e-01 4.17653382e-01 4.84060168e-01 5.02497792e-01 4.57892954e-01 4.48361665e-01 5.29141009e-01 6.53676331e-01 7.77212918e-01 8.57386887e-01 9.24735665e-01 9.63106811e-01 8.22432898e-03 7.99920689e-03 5.09249449e-01 3.35012853e-01 5.41352391e-01 6.68727577e-01 7.36703753e-01 7.67793655e-01 7.90827274e-01 7.97660887e-01 7.86881387e-01 7.55606115e-01 7.02290714e-01 6.32808149e-01 5.61853826e-01 5.00785232e-01 4.47452664e-01 3.91782850e-01 3.29183698e-01 2.76264429e-01 2.57369548e-01 2.90023476e-01 3.41791004e-01 3.49608094e-01 3.59508723e-01 4.12118465e-01 5.15115738e-01 6.51984811e-01 7.80578852e-01 9.10655439e-01 9.70492601e-01 8.32988508e-03 8.40440672e-03 1.87981144e-01 1.22830756e-01 2.34560296e-01 3.61788929e-01 5.42133451e-01 6.61584795e-01 7.35526204e-01 7.66752839e-01 7.67952383e-01 7.44262278e-01 6.98770881e-01 6.38907969e-01 5.76441228e-01 5.18299997e-01 4.62148488e-01 4.03580338e-01 3.45222086e-01 3.00352484e-01 2.85209894e-01 3.07367206e-01 3.36079329e-01 3.35788727e-01 3.40017617e-01 3.70670944e-01 4.37185258e-01 5.33812881e-01 6.39325082e-01 8.81563783e-01 9.69331145e-01 8.44987482e-03 8.66727903e-03 2.69926071e-01 1.04363747e-01 1.56434521e-01 2.22358286e-01 3.18657726e-01 4.67024177e-01 6.08726084e-01 6.90257192e-01 7.18237042e-01 7.09936678e-01 6.76795900e-01 6.29822731e-01 5.79846621e-01 5.31700015e-01 4.84684348e-01 4.38663006e-01 3.99190009e-01 3.76784176e-01 3.78830463e-01 3.95907581e-01 3.96293372e-01 3.74674469e-01 3.71820450e-01 3.99719059e-01 4.50695634e-01 5.15278280e-01 5.65246880e-01 8.18791687e-01 9.61940646e-01 9.01501626e-03 9.05978587e-03 4.83048797e-01 2.27408573e-01 3.87222648e-01 4.51579422e-01 4.20248866e-01 4.50383216e-01 5.36606848e-01 6.18482530e-01 6.60868466e-01 6.67511046e-01 6.50049090e-01 6.20258451e-01 5.87704599e-01 5.55635631e-01 5.24060130e-01 4.94453400e-01 4.73775864e-01 4.70512152e-01 4.83748972e-01 4.93100166e-01 4.71059114e-01 4.30489719e-01 4.21092689e-01 4.58359897e-01 5.23862481e-01 5.87963700e-01 6.46839917e-01 8.04979801e-01 9.55404222e-01 9.97828413e-03 9.76474956e-03 3.57217193e-01 2.09988758e-01 3.58469665e-01 7.03154087e-01 7.31414020e-01 6.80997968e-01 6.49110734e-01 6.49627328e-01 6.55808151e-01 6.54834688e-01 6.45677805e-01 6.32100582e-01 6.18900836e-01 6.06862009e-01 5.94547808e-01 5.80146194e-01 5.68370700e-01 5.66433787e-01 5.73689163e-01 5.75838387e-01 5.52550495e-01 5.10586977e-01 4.91965383e-01 5.23189545e-01 6.02446258e-01 7.03144133e-01 8.15587163e-01 8.94544959e-01 9.32320476e-01 1.14065809e-02 1.08092502e-02 1.30310416e-01 1.03994973e-01 1.37513936e-01 5.49706697e-01 7.53196299e-01 7.85341501e-01 7.57681251e-01 7.20000029e-01 6.90648496e-01 6.72789514e-01 6.65226400e-01 6.64727628e-01 6.69389963e-01 6.76498055e-01 6.82088315e-01 6.79902911e-01 6.69148147e-01 6.57022595e-01 6.48819625e-01 6.43248856e-01 6.32162929e-01 6.15385413e-01 6.09767675e-01 6.26795828e-01 6.73589885e-01 7.78537095e-01 9.10173476e-01 9.54186201e-01 8.27474713e-01 1.35678807e-02 1.23608466e-02 5.62323779e-02 5.11645041e-02 9.41953287e-02 3.80929232e-01 5.91093421e-01 6.98173463e-01 7.35717833e-01 7.26206779e-01 7.01852441e-01 6.83876932e-01 6.81433797e-01 6.92897379e-01 7.11612999e-01 7.30862856e-01 7.45524347e-01 7.51246929e-01 7.43940294e-01 7.28117883e-01 7.09678411e-01 6.96310163e-01 6.92094505e-01 7.01651096e-01 7.30359137e-01 7.67033219e-01 7.89660573e-01 8.21298003e-01 9.17928159e-01 9.63401437e-01 5.26148200e-01 1.75121911e-02 1.46936476e-02 2.69817058e-02 3.11505608e-02 1.24169447e-01 3.95034909e-01 4.75587606e-01 5.60795546e-01 6.39607012e-01 6.71926200e-01 6.73227191e-01 6.68969750e-01 6.75414383e-01 6.96305871e-01 7.25744903e-01 7.53697217e-01 7.73424864e-01 7.82742441e-01 7.80321121e-01 7.69161105e-01 7.52253771e-01 7.35951245e-01 7.29231656e-01 7.42076874e-01 7.81879067e-01 8.35922420e-01 8.78303051e-01 8.94087315e-01 9.13755953e-01 9.31761801e-01 2.67972857e-01 2.66647357e-02 1.97833013e-02 1.88080911e-02 2.22323313e-02 2.63381183e-01 4.27785397e-01 4.33095336e-01 4.81753021e-01 5.54810703e-01 6.04878008e-01 6.27123654e-01 6.37607574e-01 6.51779473e-01 6.77206397e-01 7.11600184e-01 7.46229649e-01 7.71640182e-01 7.85297990e-01 7.87494540e-01 7.82999277e-01 7.73997545e-01 7.63154030e-01 7.55186379e-01 7.57686675e-01 7.81278431e-01 8.28198016e-01 8.86070728e-01 9.28905308e-01 9.46496010e-01 9.50324893e-01 6.42751992e-01 3.51099633e-02 2.93957330e-02 1.56133575e-02 1.75258461e-02 4.08579379e-01 4.41352516e-01 4.11371648e-01 4.44034249e-01 5.02399862e-01 5.53302705e-01 5.85375607e-01 6.05207920e-01 6.23540282e-01 6.48397803e-01 6.81381106e-01 7.16781557e-01 7.46504366e-01 7.65676439e-01 7.74267435e-01 7.76705742e-01 7.76858032e-01 7.76078880e-01 7.75009930e-01 7.73609698e-01 7.75222242e-01 7.87644029e-01 8.22972834e-01 8.83641124e-01 8.98638129e-01 8.51474166e-01 6.11757040e-01 1.73749804e-01 8.10414329e-02 1.34667037e-02 1.44985551e-02 4.65087622e-01 4.60796595e-01 4.01522100e-01 4.21353132e-01 4.68456000e-01 5.16312838e-01 5.52596033e-01 5.77986896e-01 5.98721206e-01 6.21290565e-01 6.49184406e-01 6.80649459e-01 7.09679544e-01 7.31811821e-01 7.46282876e-01 7.56248951e-01 7.65226126e-01 7.74467409e-01 7.83403873e-01 7.88723946e-01 7.86853552e-01 7.77857602e-01 7.68900454e-01 7.75393665e-01 7.39220083e-01 1.63711578e-01 5.58895431e-02 3.37465405e-02 7.16636926e-02 1.18764536e-02 1.24057103e-02 4.72996026e-01 4.82430398e-01 4.01812702e-01 4.07367110e-01 4.44213390e-01 4.87424731e-01 5.25126934e-01 5.54492652e-01 5.78006983e-01 5.99907875e-01 6.23611271e-01 6.49768114e-01 6.75749600e-01 6.98110700e-01 7.16072977e-01 7.31671333e-01 7.47119308e-01 7.63471961e-01 7.80296504e-01 7.94890046e-01 8.03445756e-01 8.03623676e-01 7.98676193e-01 7.95925915e-01 8.05066586e-01 6.26994610e-01 9.99336913e-02 5.24873659e-02 5.49581945e-02 1.06471935e-02 1.08701009e-02 4.68682140e-01 5.00485361e-01 4.07494545e-01 4.00547653e-01 4.26473051e-01 4.62883413e-01 4.99432355e-01 5.31484902e-01 5.58412790e-01 5.81935883e-01 6.04330778e-01 6.26927733e-01 6.49407566e-01 6.70545518e-01 6.89923704e-01 7.08715498e-01 7.28279948e-01 7.49298334e-01 7.71605372e-01 7.93627977e-01 8.13078403e-01 8.28091204e-01 8.38370681e-01 8.44171464e-01 8.44078720e-01 8.24084699e-01 4.15504038e-01 6.87945858e-02 5.18464923e-01 9.68539715e-03 9.68931615e-03 4.65920389e-01 5.14538229e-01 4.16276395e-01 4.00061309e-01 4.14280653e-01 4.41613585e-01 4.74317729e-01 5.07111788e-01 5.36957085e-01 5.63079596e-01 5.86161435e-01 6.07264102e-01 6.27129436e-01 6.46221519e-01 6.65190876e-01 6.85038686e-01 7.06680059e-01 7.30694950e-01 7.57129073e-01 7.84968793e-01 8.12427521e-01 8.37707996e-01 8.59263301e-01 8.75732660e-01 8.72185647e-01 8.70893657e-01 8.21261764e-01 6.19190559e-02 8.30147505e-01 8.96470994e-03 8.78103729e-03 4.69177991e-01 5.25413275e-01 4.27644372e-01 4.05169994e-01 4.07009721e-01 4.23595607e-01 4.50252861e-01 4.81451780e-01 5.12422800e-01 5.40329754e-01 5.64315557e-01 5.84824562e-01 6.02886140e-01 6.19779944e-01 6.36892617e-01 6.55451655e-01 6.76327884e-01 7.00266182e-01 7.27876663e-01 7.58897066e-01 7.91721761e-01 8.23619783e-01 8.51557136e-01 8.75566721e-01 8.82895172e-01 8.89823496e-01 8.90877664e-01 8.17710161e-01 8.40436995e-01 8.37085955e-03 8.11949372e-03 4.82732505e-01 5.35153389e-01 4.41603214e-01 4.13378954e-01 4.02274847e-01 4.07997459e-01 4.27816033e-01 4.55546826e-01 4.85283107e-01 5.12943983e-01 5.36643505e-01 5.56251645e-01 5.72660148e-01 5.87224364e-01 6.01353765e-01 6.16124034e-01 6.32221878e-01 6.50474250e-01 6.72205210e-01 6.98531270e-01 7.29139268e-01 7.61469960e-01 7.90544927e-01 8.14090312e-01 8.10483575e-01 8.13780069e-01 7.18828619e-01 6.99990511e-01 7.98849225e-01 8.99815839e-03 7.44153326e-03 5.17049372e-01 5.45012891e-01 4.56044018e-01 4.18700218e-01 3.95567805e-01 3.92941266e-01 4.07010585e-01 4.30423260e-01 4.56858963e-01 4.81984347e-01 5.03580570e-01 5.21146476e-01 5.35207510e-01 5.46695352e-01 5.56460857e-01 5.64903438e-01 5.72022319e-01 5.78134179e-01 5.84653080e-01 5.93838871e-01 6.07452631e-01 6.25894725e-01 6.48473501e-01 6.73601031e-01 6.64951384e-01 6.66155159e-01 5.94511330e-01 6.64169788e-01 7.88233936e-01 1.62650354e-03 8.17767903e-03 6.03361666e-01 5.52922845e-01 4.63138103e-01 4.13116485e-01 3.83413792e-01 3.77750874e-01 3.88397366e-01 4.07382399e-01 4.29029524e-01 4.49649632e-01 4.67240363e-01 4.81099248e-01 4.91281092e-01 4.98081833e-01 5.01621366e-01 5.01561821e-01 4.97208983e-01 4.88232672e-01 4.75624859e-01 4.61858988e-01 4.49611157e-01 4.40686435e-01 4.37204897e-01 4.45883751e-01 4.46175635e-01 4.55555290e-01 5.15558660e-01 6.71701670e-01 8.48949134e-01 1.17773272e-03 9.09756869e-03 8.11800241e-01 5.65278888e-01 4.53123301e-01 3.94721270e-01 3.69096577e-01 3.66324157e-01 3.75278980e-01 3.89333278e-01 4.04658735e-01 4.18796778e-01 4.30233628e-01 4.38187063e-01 4.42311436e-01 4.42397714e-01 4.38145906e-01 4.29055512e-01 4.14570838e-01 3.94600064e-01 3.70165199e-01 3.43526542e-01 3.17328721e-01 2.93425411e-01 2.73954570e-01 2.56197155e-01 2.73417681e-01 2.96776533e-01 4.55122501e-01 5.49729645e-01 8.47519040e-01 1.15820987e-03 1.17203651e-03 9.73190069e-01 6.28344297e-01 4.37334687e-01 3.79378557e-01 3.67010742e-01 3.69237304e-01 3.74909103e-01 3.81267279e-01 3.87272239e-01 3.91903430e-01 3.94224763e-01 3.93552274e-01 3.89439344e-01 3.81606519e-01 3.69911045e-01 3.54364872e-01 3.35196137e-01 3.12947303e-01 2.88552403e-01 2.63323486e-01 2.38833740e-01 2.16960967e-01 1.99730933e-01 1.84899107e-01 1.86657891e-01 2.56179363e-01 4.07002121e-01 4.62107182e-01 7.62205005e-01 1.35740817e-01 1.64051773e-03 1.90846447e-03 6.72037721e-01 4.77199674e-01 4.13779974e-01 4.06276047e-01 4.04194236e-01 3.97321939e-01 3.88354123e-01 3.79116684e-01 3.69683444e-01 3.59539449e-01 3.48196477e-01 3.35354507e-01 3.20915759e-01 3.04975808e-01 2.87790149e-01 2.69689351e-01 2.50962466e-01 2.31802836e-01 2.12467700e-01 1.93700433e-01 1.77251115e-01 1.68476582e-01 1.65734842e-01 1.53316483e-01 1.77151665e-01 2.01414466e-01 4.40040112e-01 7.49821782e-01 6.92059517e-01 2.68765818e-03 2.39873561e-03 9.44236457e-01 8.80588770e-01 6.62064731e-01 5.43634534e-01 4.92383212e-01 4.49451089e-01 4.12911266e-01 3.82818282e-01 3.57739598e-01 3.36174875e-01 3.16972226e-01 2.99265325e-01 2.82363921e-01 2.65688330e-01 2.48724505e-01 2.30986118e-01 2.12022975e-01 1.91567615e-01 1.69937059e-01 1.48745343e-01 1.31582603e-01 1.25666499e-01 1.44592911e-01 1.68693483e-01 1.22766681e-01 7.30637759e-02 9.58610624e-02 8.13027143e-01 2.99187869e-01 6.44707261e-03 3.56948905e-04 9.68297124e-01 9.46289480e-01 9.36789930e-01 8.35455298e-01 7.72819877e-01 7.36064017e-01 7.09660590e-01 6.89330876e-01 6.73000515e-01 6.59481645e-01 6.47945106e-01 6.37576759e-01 6.27399981e-01 6.16230130e-01 6.02691770e-01 5.85249186e-01 5.62270284e-01 5.32238960e-01 4.94395018e-01 4.50463742e-01 4.07889247e-01 3.79128456e-01 3.91929597e-01 5.07647157e-01 5.41806936e-01 3.00859064e-01 1.95199415e-01 4.77794439e-01 
