# vtk DataFile Version 2.0
results/iter8.vtk, Created by Freefem++ 
ASCII
DATASET UNSTRUCTURED_GRID
POINTS 961 float
0 0 0
0.033333333 0 0
0.066666667 0 0
0.1 0 0
0.13333333 0 0
0.16666667 0 0
0.2 0 0
0.23333333 0 0
0.26666667 0 0
0.3 0 0
0.33333333 0 0
0.36666667 0 0
0.4 0 0
0.43333333 0 0
0.46666667 0 0
0.5 0 0
0.53333333 0 0
0.56666667 0 0
0.6 0 0
0.63333333 0 0
0.66666667 0 0
0.7 0 0
0.73333333 0 0
0.76666667 0 0
0.8 0 0
0.83333333 0 0
0.86666667 0 0
0.9 0 0
0.93333333 0 0
0.96666667 0 0
1 0 0
0 0.033333333 0
0.033333333 0.033333333 0
0.066666667 0.033333333 0
0.1 0.033333333 0
0.13333333 0.033333333 0
0.16666667 0.033333333 0
0.2 0.033333333 0
0.23333333 0.033333333 0
0.26666667 0.033333333 0
0.3 0.033333333 0
0.33333333 0.033333333 0
0.36666667 0.033333333 0
0.4 0.033333333 0
0.43333333 0.033333333 0
0.46666667 0.033333333 0
0.5 0.033333333 0
0.53333333 0.033333333 0
0.56666667 0.033333333 0
0.6 0.033333333 0
0.63333333 0.033333333 0
0.66666667 0.033333333 0
0.7 0.033333333 0
0.73333333 0.033333333 0
0.76666667 0.033333333 0
0.8 0.033333333 0
0.83333333 0.033333333 0
0.86666667 0.033333333 0
0.9 0.033333333 0
0.93333333 0.033333333 0
0.96666667 0.033333333 0
1 0.033333333 0
0 0.066666667 0
0.033333333 0.066666667 0
0.066666667 0.066666667 0
0.1 0.066666667 0
0.13333333 0.066666667 0
0.16666667 0.066666667 0
0.2 0.066666667 0
0.23333333 0.066666667 0
0.26666667 0.066666667 0
0.3 0.066666667 0
0.33333333 0.066666667 0
0.36666667 0.066666667 0
0.4 0.066666667 0
0.43333333 0.066666667 0
0.46666667 0.066666667 0
0.5 0.066666667 0
0.53333333 0.066666667 0
0.56666667 0.066666667 0
0.6 0.066666667 0
0.63333333 0.066666667 0
0.66666667 0.066666667 0
0.7 0.066666667 0
0.73333333 0.066666667 0
0.76666667 0.066666667 0
0.8 0.066666667 0
0.83333333 0.066666667 0
0.86666667 0.066666667 0
0.9 0.066666667 0
0.93333333 0.066666667 0
0.96666667 0.066666667 0
1 0.066666667 0
0 0.1 0
0.033333333 0.1 0
0.066666667 0.1 0
0.1 0.1 0
0.13333333 0.1 0
0.16666667 0.1 0
0.2 0.1 0
0.23333333 0.1 0
0.26666667 0.1 0
0.3 0.1 0
0.33333333 0.1 0
0.36666667 0.1 0
0.4 0.1 0
0.43333333 0.1 0
0.46666667 0.1 0
0.5 0.1 0
0.53333333 0.1 0
0.56666667 0.1 0
0.6 0.1 0
0.63333333 0.1 0
0.66666667 0.1 0
0.7 0.1 0
0.73333333 0.1 0
0.76666667 0.1 0
0.8 0.1 0
0.83333333 0.1 0
0.86666667 0.1 0
0.9 0.1 0
0.93333333 0.1 0
0.96666667 0.1 0
1 0.1 0
0 0.13333333 0
0.033333333 0.13333333 0
0.066666667 0.13333333 0
0.1 0.13333333 0
0.13333333 0.13333333 0
0.16666667 0.13333333 0
0.2 0.13333333 0
0.23333333 0.13333333 0
0.26666667 0.13333333 0
0.3 0.13333333 0
0.33333333 0.13333333 0
0.36666667 0.13333333 0
0.4 0.13333333 0
0.43333333 0.13333333 0
0.46666667 0.13333333 0
0.5 0.13333333 0
0.53333333 0.13333333 0
0.56666667 0.13333333 0
0.6 0.13333333 0
0.63333333 0.13333333 0
0.66666667 0.13333333 0
0.7 0.13333333 0
0.73333333 0.13333333 0
0.76666667 0.13333333 0
0.8 0.13333333 0
0.83333333 0.13333333 0
0.86666667 0.13333333 0
0.9 0.13333333 0
0.93333333 0.13333333 0
0.96666667 0.13333333 0
1 0.13333333 0
0 0.16666667 0
0.033333333 0.16666667 0
0.066666667 0.16666667 0
0.1 0.16666667 0
0.13333333 0.16666667 0
0.16666667 0.16666667 0
0.2 0.16666667 0
0.23333333 0.16666667 0
0.26666667 0.16666667 0
0.3 0.16666667 0
0.33333333 0.16666667 0
0.36666667 0.16666667 0
0.4 0.16666667 0
0.43333333 0.16666667 0
0.46666667 0.16666667 0
0.5 0.16666667 0
0.53333333 0.16666667 0
0.56666667 0.16666667 0
0.6 0.16666667 0
0.63333333 0.16666667 0
0.66666667 0.16666667 0
0.7 0.16666667 0
0.73333333 0.16666667 0
0.76666667 0.16666667 0
0.8 0.16666667 0
0.83333333 0.16666667 0
0.86666667 0.16666667 0
0.9 0.16666667 0
0.93333333 0.16666667 0
0.96666667 0.16666667 0
1 0.16666667 0
0 0.2 0
0.033333333 0.2 0
0.066666667 0.2 0
0.1 0.2 0
0.13333333 0.2 0
0.16666667 0.2 0
0.2 0.2 0
0.23333333 0.2 0
0.26666667 0.2 0
0.3 0.2 0
0.33333333 0.2 0
0.36666667 0.2 0
0.4 0.2 0
0.43333333 0.2 0
0.46666667 0.2 0
0.5 0.2 0
0.53333333 0.2 0
0.56666667 0.2 0
0.6 0.2 0
0.63333333 0.2 0
0.66666667 0.2 0
0.7 0.2 0
0.73333333 0.2 0
0.76666667 0.2 0
0.8 0.2 0
0.83333333 0.2 0
0.86666667 0.2 0
0.9 0.2 0
0.93333333 0.2 0
0.96666667 0.2 0
1 0.2 0
0 0.23333333 0
0.033333333 0.23333333 0
0.066666667 0.23333333 0
0.1 0.23333333 0
0.13333333 0.23333333 0
0.16666667 0.23333333 0
0.2 0.23333333 0
0.23333333 0.23333333 0
0.26666667 0.23333333 0
0.3 0.23333333 0
0.33333333 0.23333333 0
0.36666667 0.23333333 0
0.4 0.23333333 0
0.43333333 0.23333333 0
0.46666667 0.23333333 0
0.5 0.23333333 0
0.53333333 0.23333333 0
0.56666667 0.23333333 0
0.6 0.23333333 0
0.63333333 0.23333333 0
0.66666667 0.23333333 0
0.7 0.23333333 0
0.73333333 0.23333333 0
0.76666667 0.23333333 0
0.8 0.23333333 0
0.83333333 0.23333333 0
0.86666667 0.23333333 0
0.9 0.23333333 0
0.93333333 0.23333333 0
0.96666667 0.23333333 0
1 0.23333333 0
0 0.26666667 0
0.033333333 0.26666667 0
0.066666667 0.26666667 0
0.1 0.26666667 0
0.13333333 0.26666667 0
0.16666667 0.26666667 0
0.2 0.26666667 0
0.23333333 0.26666667 0
0.26666667 0.26666667 0
0.3 0.26666667 0
0.33333333 0.26666667 0
0.36666667 0.26666667 0
0.4 0.26666667 0
0.43333333 0.26666667 0
0.46666667 0.26666667 0
0.5 0.26666667 0
0.53333333 0.26666667 0
0.56666667 0.26666667 0
0.6 0.26666667 0
0.63333333 0.26666667 0
0.66666667 0.26666667 0
0.7 0.26666667 0
0.73333333 0.26666667 0
0.76666667 0.26666667 0
0.8 0.26666667 0
0.83333333 0.26666667 0
0.86666667 0.26666667 0
0.9 0.26666667 0
0.93333333 0.26666667 0
0.96666667 0.26666667 0
1 0.26666667 0
0 0.3 0
0.033333333 0.3 0
0.066666667 0.3 0
0.1 0.3 0
0.13333333 0.3 0
0.16666667 0.3 0
0.2 0.3 0
0.23333333 0.3 0
0.26666667 0.3 0
0.3 0.3 0
0.33333333 0.3 0
0.36666667 0.3 0
0.4 0.3 0
0.43333333 0.3 0
0.46666667 0.3 0
0.5 0.3 0
0.53333333 0.3 0
0.56666667 0.3 0
0.6 0.3 0
0.63333333 0.3 0
0.66666667 0.3 0
0.7 0.3 0
0.73333333 0.3 0
0.76666667 0.3 0
0.8 0.3 0
0.83333333 0.3 0
0.86666667 0.3 0
0.9 0.3 0
0.93333333 0.3 0
0.96666667 0.3 0
1 0.3 0
0 0.33333333 0
0.033333333 0.33333333 0
0.066666667 0.33333333 0
0.1 0.33333333 0
0.13333333 0.33333333 0
0.16666667 0.33333333 0
0.2 0.33333333 0
0.23333333 0.33333333 0
0.26666667 0.33333333 0
0.3 0.33333333 0
0.33333333 0.33333333 0
0.36666667 0.33333333 0
0.4 0.33333333 0
0.43333333 0.33333333 0
0.46666667 0.33333333 0
0.5 0.33333333 0
0.53333333 0.33333333 0
0.56666667 0.33333333 0
0.6 0.33333333 0
0.63333333 0.33333333 0
0.66666667 0.33333333 0
0.7 0.33333333 0
0.73333333 0.33333333 0
0.76666667 0.33333333 0
0.8 0.33333333 0
0.83333333 0.33333333 0
0.86666667 0.33333333 0
0.9 0.33333333 0
0.93333333 0.33333333 0
0.96666667 0.33333333 0
1 0.33333333 0
0 0.36666667 0
0.033333333 0.36666667 0
0.066666667 0.36666667 0
0.1 0.36666667 0
0.13333333 0.36666667 0
0.16666667 0.36666667 0
0.2 0.36666667 0
0.23333333 0.36666667 0
0.26666667 0.36666667 0
0.3 0.36666667 0
0.33333333 0.36666667 0
0.36666667 0.36666667 0
0.4 0.36666667 0
0.43333333 0.36666667 0
0.46666667 0.36666667 0
0.5 0.36666667 0
0.53333333 0.36666667 0
0.56666667 0.36666667 0
0.6 0.36666667 0
0.63333333 0.36666667 0
0.66666667 0.36666667 0
0.7 0.36666667 0
0.73333333 0.36666667 0
0.76666667 0.36666667 0
0.8 0.36666667 0
0.83333333 0.36666667 0
0.86666667 0.36666667 0
0.9 0.36666667 0
0.93333333 0.36666667 0
0.96666667 0.36666667 0
1 0.36666667 0
0 0.4 0
0.033333333 0.4 0
0.066666667 0.4 0
0.1 0.4 0
0.13333333 0.4 0
0.16666667 0.4 0
0.2 0.4 0
0.23333333 0.4 0
0.26666667 0.4 0
0.3 0.4 0
0.33333333 0.4 0
0.36666667 0.4 0
0.4 0.4 0
0.43333333 0.4 0
0.46666667 0.4 0
0.5 0.4 0
0.53333333 0.4 0
0.56666667 0.4 0
0.6 0.4 0
0.63333333 0.4 0
0.66666667 0.4 0
0.7 0.4 0
0.73333333 0.4 0
0.76666667 0.4 0
0.8 0.4 0
0.83333333 0.4 0
0.86666667 0.4 0
0.9 0.4 0
0.93333333 0.4 0
0.96666667 0.4 0
1 0.4 0
0 0.43333333 0
0.033333333 0.43333333 0
0.066666667 0.43333333 0
0.1 0.43333333 0
0.13333333 0.43333333 0
0.16666667 0.43333333 0
0.2 0.43333333 0
0.23333333 0.43333333 0
0.26666667 0.43333333 0
0.3 0.43333333 0
0.33333333 0.43333333 0
0.36666667 0.43333333 0
0.4 0.43333333 0
0.43333333 0.43333333 0
0.46666667 0.43333333 0
0.5 0.43333333 0
0.53333333 0.43333333 0
0.56666667 0.43333333 0
0.6 0.43333333 0
0.63333333 0.43333333 0
0.66666667 0.43333333 0
0.7 0.43333333 0
0.73333333 0.43333333 0
0.76666667 0.43333333 0
0.8 0.43333333 0
0.83333333 0.43333333 0
0.86666667 0.43333333 0
0.9 0.43333333 0
0.93333333 0.43333333 0
0.96666667 0.43333333 0
1 0.43333333 0
0 0.46666667 0
0.033333333 0.46666667 0
0.066666667 0.46666667 0
0.1 0.46666667 0
0.13333333 0.46666667 0
0.16666667 0.46666667 0
0.2 0.46666667 0
0.23333333 0.46666667 0
0.26666667 0.46666667 0
0.3 0.46666667 0
0.33333333 0.46666667 0
0.36666667 0.46666667 0
0.4 0.46666667 0
0.43333333 0.46666667 0
0.46666667 0.46666667 0
0.5 0.46666667 0
0.53333333 0.46666667 0
0.56666667 0.46666667 0
0.6 0.46666667 0
0.63333333 0.46666667 0
0.66666667 0.46666667 0
0.7 0.46666667 0
0.73333333 0.46666667 0
0.76666667 0.46666667 0
0.8 0.46666667 0
0.83333333 0.46666667 0
0.86666667 0.46666667 0
0.9 0.46666667 0
0.93333333 0.46666667 0
0.96666667 0.46666667 0
1 0.46666667 0
0 0.5 0
0.033333333 0.5 0
0.066666667 0.5 0
0.1 0.5 0
0.13333333 0.5 0
0.16666667 0.5 0
0.2 0.5 0
0.23333333 0.5 0
0.26666667 0.5 0
0.3 0.5 0
0.33333333 0.5 0
0.36666667 0.5 0
0.4 0.5 0
0.43333333 0.5 0
0.46666667 0.5 0
0.5 0.5 0
0.53333333 0.5 0
0.56666667 0.5 0
0.6 0.5 0
0.63333333 0.5 0
0.66666667 0.5 0
0.7 0.5 0
0.73333333 0.5 0
0.76666667 0.5 0
0.8 0.5 0
0.83333333 0.5 0
0.86666667 0.5 0
0.9 0.5 0
0.93333333 0.5 0
0.96666667 0.5 0
1 0.5 0
0 0.53333333 0
0.033333333 0.53333333 0
0.066666667 0.53333333 0
0.1 0.53333333 0
0.13333333 0.53333333 0
0.16666667 0.53333333 0
0.2 0.53333333 0
0.23333333 0.53333333 0
0.26666667 0.53333333 0
0.3 0.53333333 0
0.33333333 0.53333333 0
0.36666667 0.53333333 0
0.4 0.53333333 0
0.43333333 0.53333333 0
0.46666667 0.53333333 0
0.5 0.53333333 0
0.53333333 0.53333333 0
0.56666667 0.53333333 0
0.6 0.53333333 0
0.63333333 0.53333333 0
0.66666667 0.53333333 0
0.7 0.53333333 0
0.73333333 0.53333333 0
0.76666667 0.53333333 0
0.8 0.53333333 0
[...]
CELL_DATA 1920
Scalars  Label int 1
LOOKUP_TABLE FreeFempp_table
0
0
0
0
0
0
0
0
0
0
0
0
0
0
0
0
0
0
0
0
0
0
0
0
0
0
0
0
0
0
0
0
0
0
0
0
0
0
0
0
0
0
0
0
0
0
0
0
0
0
0
0
0
0
0
0
0
0
0
0
0
0
0
0
0
0
0
0
0
0
0
0
0
0
0
0
0
0
0
0
0
0
0
0
0
0
0
0
0
0
0
0
0
0
0
0
0
0
0
0
0
0
0
0
0
0
0
0
0
0
0
0
0
0
0
0
0
0
0
0
0
0
0
0
0
0
0
0
0
0
0
0
0
0
0
0
0
0
0
0
0
0
0
0
0
0
0
0
0
0
0
0
0
0
0
0
0
0
0
0
0
0
0
0
0
0
0
0
0
0
0
0
0
0
0
0
0
0
0
0
0
0
0
0
0
0
0
0
0
0
0
0
0
0
0
0
0
0
0
0
0
0
0
0
0
0
0
0
0
0
0
0
0
0
0
0
0
0
0
0
0
0
0
0
0
0
0
0
0
0
0
0
0
0
0
0
0
0
0
0
0
0
0
0
0
0
0
0
0
0
0
0
0
0
0
0
0
0
0
0
0
0
0
0
0
0
0
0
0
0
0
0
0
0
0
0
0
0
0
0
0
0
0
0
0
0
0
0
0
0
0
0
0
0
0
0
0
0
0
0
0
0
0
0
0
0
0
0
0
0
0
0
0
0
0
0
0
0
0
0
0
0
0
0
0
0
0
0
0
0
0
0
0
0
0
0
0
0
0
0
0
0
0
0
0
0
0
0
0
0
0
0
0
0
0
0
0
0
0
0
0
0
0
0
0
0
0
0
0
0
0
0
0
0
0
0
0
0
0
0
0
0
0
0
0
0
0
0
0
0
0
0
0
0
0
0
0
0
0
0
0
0
0
0
0
0
0
0
0
0
0
0
0
0
0
0
0
0
0
0
0
0
0
0
0
0
0
0
0
0
0
0
0
0
0
0
0
0
0
0
0
0
0
0
0
0
0
0
0
0
0
0
0
0
0
0
0
0
0
0
0
0
0
0
0
0
0
0
0
0
0
0
0
0
0
0
0
0
0
0
0
0
0
0
0
0
0
0
0
0
0
0
0
0
0
0
0
0
0
0
0
0
0
0
0
0
0
0
0
0
0
0
0
0
0
0
0
0
0
0
0
0
0
0
0
0
0
0
0
0
0
0
0
0
0
0
0
0
0
0
0
0
0
0
0
0
0
0
0
0
0
0
0
0
0
0
0
0
0
0
0
0
0
0
0
0
0
0
0
0
0
0
0
0
0
0
0
0
0
0
0
0
0
0
0
0
0
0
0
0
0
0
0
0
0
0
0
0
0
0
0
0
0
0
0
0
0
0
0
0
0
0
0
0
0
0
0
0
0
0
0
0
0
0
0
0
0
0
0
0
0
0
0
0
0
0
0
0
0
0
0
0
0
0
0
0
0
0
0
0
0
0
0
0
0
0
0
0
0
0
0
0
0
0
0
0
0
0
0
0
0
0
0
0
0
0
0
0
0
0
0
0
0
0
0
0
0
0
0
0
0
0
0
0
0
0
0
0
0
0
0
0
0
0
0
0
0
0
0
0
0
0
0
0
0
0
0
0
0
0
0
0
0
0
0
0
0
0
0
0
0
0
0
0
0
0
0
0
0
0
0
0
0
0
0
0
0
0
0
0
0
0
0
0
0
0
0
0
0
0
0
0
0
0
0
0
0
0
0
0
0
0
0
0
0
0
0
0
0
0
0
0
0
0
0
0
0
0
0
0
0
0
0
0
0
0
0
0
0
0
0
0
0
0
0
0
0
0
0
0
0
0
0
0
0
0
0
0
0
0
0
0
0
0
0
0
0
0
0
0
0
0
0
0
0
0
0
0
0
0
0
0
0
0
0
0
0
0
0
0
0
0
0
0
0
0
0
0
0
0
0
0
0
0
0
0
0
0
0
0
0
0
0
0
0
0
0
0
0
0
0
0
0
0
0
0
0
0
0
0
0
0
0
0
0
0
0
0
0
0
0
0
0
0
0
0
0
0
0
0
0
0
0
0
0
0
0
0
0
0
0
0
0
0
0
0
0
0
0
0
0
0
0
0
0
0
0
0
0
0
0
0
0
0
0
0
0
0
0
0
0
0
0
0
0
0
0
0
0
0
0
0
0
0
0
0
0
0
0
0
0
0
0
0
0
0
0
0
0
0
0
0
0
0
0
0
0
0
0
0
0
0
0
0
0
0
0
0
0
0
0
0
0
0
0
0
0
0
0
0
0
0
0
0
0
0
0
0
0
0
0
0
0
0
0
0
0
0
0
0
0
0
0
0
0
0
0
0
0
0
0
0
0
0
0
0
0
0
0
0
0
0
0
0
0
0
0
0
0
0
0
0
0
0
0
0
0
0
0
0
0
0
0
0
0
0
0
0
0
0
0
0
0
0
0
0
0
0
0
0
0
0
0
0
0
0
0
0
0
0
0
0
0
0
0
0
0
0
0
0
0
0
0
0
0
0
0
0
0
0
0
0
0
0
0
0
0
0
0
0
0
0
0
0
0
0
0
0
0
0
0
0
0
0
0
0
0
0
0
0
0
0
0
0
0
0
0
0
0
0
0
0
0
0
0
0
0
0
0
0
0
0
0
0
0
0
0
0
0
0
0
0
0
0
0
0
0
0
0
0
0
0
0
0
0
0
0
0
0
0
0
0
0
0
0
0
0
0
0
0
0
0
0
0
0
0
0
0
0
0
0
0
0
0
0
0
0
0
0
0
0
0
0
0
0
0
0
0
0
0
0
0
0
0
0
0
0
0
0
0
0
0
0
0
0
0
0
0
0
0
0
0
0
0
0
0
0
0
0
0
0
0
0
0
0
0
0
0
0
0
0
0
0
0
0
0
0
0
0
0
0
0
0
0
0
0
0
0
0
0
0
0
0
0
0
0
0
0
0
0
0
0
0
0
0
0
0
0
0
0
0
0
0
0
0
0
0
0
0
0
0
0
0
0
0
0
0
0
0
0
0
0
0
0
0
0
0
0
0
0
0
0
0
0
0
0
0
0
0
0
0
0
0
0
0
0
0
0
0
0
0
0
0
0
0
0
0
0
0
0
0
0
0
0
0
0
0
0
0
0
0
0
0
0
0
0
0
0
0
0
0
0
0
0
0
0
0
0
0
0
0
0
0
0
0
0
0
0
0
0
0
0
0
0
0
0
0
0
0
0
0
0
0
0
0
0
0
0
0
0
0
0
0
0
0
0
0
0
0
0
0
0
0
0
0
0
0
0
0
0
0
0
0
0
0
0
0
0
0
0
0
0
0
0
0
0
0
0
0
0
0
0
0
0
0
0
0
0
0
0
0
0
0
0
0
0
0
0
0
0
0
0
0
0
0
0
0
0
0
0
0
0
0
0
0
0
0
0
0
0
0
0
0
0
0
0
0
0
0
0
0
0
0
0
0
0
0
0
0
0
0
0
0
0
0
0
0
0
0
0
0
0
0
0
0
0
0
0
0
0
0
0
0
0
0
0
0
0
0
0
0
0
0
0
0
0
0
0
0
0
0
0
0
0
0
0
0
0
0
0
0
0
0
0
0
0
0
0
0
0
0
0
0
0
0
0
0
0
0
0
0
0
0
0
0
0
0
0
0
0
0
0
0
0
0
0
0
0
0
0
0
0
0
0
0
0
0
0
0
0
0
0
0
0
0
0
0
0
0
0
0
0
0
0
0
0
0
0
0
0
0
0
0
0
0
0
0
0
0
0
0
0
0
0
0
0
0
0
0
0
0
0
0
0
0
0
0
0
0
0
0
0
0
0
0
0
0
0
0
0
0
0
0
0
0
0
0
0
0
0
0
0
0
0
0
0
0
0
0
0
0
0
0
0
0
0
0
0
0
0
0
0
0
0
0
0
0
0
0
0
0
0
0
0
0
0
0
0
0
0
0
0
0
0
0
0
0
0
0
0
0
0
0
0
0
0
0
0
0
0
0
0
0
0
0
0
0
0
0
0
0
0
0
0
0
0
0
0
0
0
0
0
0
0
0
0
0
0
0
0
1
1
1
1
1
1
1
1
1
1
1
1
1
1
1
1
1
1
1
1
1
1
1
1
1
1
1
1
1
1
2
2
2
2
2
2
2
2
2
2
2
2
2
2
2
2
2
2
2
2
2
2
2
2
2
2
2
2
2
2
3
3
3
3
3
3
3
3
3
3
3
3
3
3
3
3
3
3
3
3
3
3
3
3
3
3
3
3
3
3
4
4
4
4
4
4
4
4
4
4
4
4
4
4
4
4
4
4
4
4
4
4
4
4
4
4
4
4
4
4

LOOKUP_TABLE FreeFempp_table 5
1.00000000 0.00000000 0.00000000 1.00000000
1.00000000 1.00000000 0.00000000 1.00000000
1.00000000 0.00000000 1.00000000 1.00000000
0.00000000 1.00000000 0.00000000 1.00000000
0.00000000 1.00000000 1.00000000 1.00000000

POINT_DATA 961
FIELD FieldData 1
Density 1 961 float
4.76758152e-01 4.66594934e-01 4.68597233e-01 4.70569789e-01 4.72157806e-01 4.73013461e-01 4.72870469e-01 4.71718609e-01 4.69994307e-01 4.68429983e-01 4.67723101e-01 4.65555012e-01 3.59819263e-01 2.05635857e-02 2.81704199e-02 3.75105858e-01 7.23445773e-01 5.60148358e-01 4.86209989e-01 5.41972399e-01 5.85373759e-01 5.59637547e-01 5.38912594e-01 5.27059019e-01 5.20730615e-01 5.16184807e-01 5.13231158e-01 5.11396050e-01 5.10234952e-01 5.11045575e-01 5.03611684e-01 4.69667196e-01 4.39285249e-01 4.41196531e-01 4.43258852e-01 4.45346802e-01 4.46889222e-01 4.47353601e-01 4.46391761e-01 4.44082022e-01 4.40941602e-01 4.37685549e-01 4.33154374e-01 3.52251410e-01 1.91784445e-02 1.58081204e-02 1.86785400e-01 8.65989983e-01 6.77683055e-01 4.54445541e-01 5.56505024e-01 6.89105928e-01 6.57112658e-01 5.98015010e-01 5.70064306e-01 5.49918473e-01 5.36801577e-01 5.28492510e-01 5.23798347e-01 5.21541655e-01 5.22165596e-01 5.11458755e-01 4.85162705e-01 4.50513929e-01 4.49207276e-01 4.49405491e-01 4.50490952e-01 4.51834887e-01 4.52604085e-01 4.51503277e-01 4.47771609e-01 4.42406654e-01 4.36090648e-01 4.21500713e-01 3.31781119e-01 2.40047574e-02 1.88101418e-02 9.98739526e-02 8.30902100e-01 5.78169107e-01 9.09781158e-02 1.76671505e-01 2.28686035e-01 2.35440955e-01 5.75930595e-01 5.73920608e-01 5.51958025e-01 5.31444490e-01 5.18412709e-01 5.13092995e-01 5.10969400e-01 5.10171115e-01 5.07253110e-01 4.60924745e-01 4.35885400e-01 4.45504934e-01 4.51532364e-01 4.53921676e-01 4.53109831e-01 4.46158260e-01 4.21356440e-01 3.55365038e-01 2.38167912e-01 1.25695571e-01 7.15135783e-02 4.71842475e-02 2.22885050e-02 1.67211182e-02 7.06844777e-02 6.80328190e-01 7.30753601e-01 9.28113461e-02 7.01340660e-02 4.07115184e-02 2.52274182e-02 2.83468664e-02 6.18079789e-02 3.36466283e-01 5.18097878e-01 5.05723834e-01 4.95991737e-01 4.94121462e-01 4.92753237e-01 4.99431700e-01 8.61404687e-02 1.34463653e-01 2.28579089e-01 2.94063032e-01 3.32506210e-01 3.43566120e-01 3.09551775e-01 1.87640890e-01 4.75126021e-02 1.41819315e-02 7.63086556e-03 5.32754231e-03 5.29159140e-03 5.86635340e-03 4.75777825e-03 3.76832229e-03 3.72671992e-01 7.99333811e-01 3.65719616e-01 6.12435751e-02 5.17695099e-02 2.82275528e-02 1.45015717e-02 1.22235790e-02 1.25455018e-02 1.35915250e-01 4.56680477e-01 4.75861877e-01 4.72662359e-01 4.72447336e-01 4.89996433e-01 4.73750243e-03 3.89650674e-03 4.00621584e-03 4.47313255e-03 6.26880396e-03 8.12811963e-03 8.64788331e-03 8.14484525e-03 7.26546580e-03 7.73255108e-03 8.27192981e-03 6.31977711e-03 5.18128136e-03 5.80619462e-03 6.34665648e-03 2.41614925e-03 2.31673336e-03 4.53898698e-01 7.54963219e-01 3.03890556e-01 1.00043453e-01 1.01652518e-01 5.10179326e-02 1.99171938e-02 8.38228501e-03 7.44894007e-03 8.18197355e-02 4.32924598e-01 4.56480056e-01 4.55639958e-01 4.81757879e-01 7.38930143e-03 3.44006228e-03 3.99884023e-03 3.80440289e-03 4.26875288e-03 5.76665020e-03 7.03566661e-03 7.47729931e-03 7.10641267e-03 7.20279384e-03 9.00356192e-03 1.92077458e-02 7.64105618e-02 2.48191744e-01 3.17821413e-01 1.01851285e-01 2.78342818e-03 2.75421911e-03 4.45198059e-01 8.37057889e-01 6.91674471e-01 4.44925904e-01 3.76267225e-01 3.54038030e-01 1.38326287e-01 6.91961451e-03 6.31863903e-03 8.18794370e-02 4.35895473e-01 4.48174387e-01 4.76811916e-01 4.16980654e-01 2.71355182e-01 1.59135371e-01 7.27632493e-02 3.08876485e-02 1.69013645e-02 1.27338488e-02 1.24586020e-02 1.57683343e-02 2.74234358e-02 6.79050013e-02 1.85099468e-01 3.24338168e-01 4.07474250e-01 4.34225917e-01 4.28970098e-01 3.30486506e-01 2.66021676e-03 3.02713830e-03 3.26914825e-02 6.04323626e-01 8.02394390e-01 7.09520936e-01 6.75682724e-01 5.94782829e-01 2.79046059e-01 5.95491286e-03 5.39771421e-03 1.47400752e-01 4.42833751e-01 4.73952472e-01 5.08472085e-01 5.00946403e-01 4.93725657e-01 4.82134134e-01 4.68862712e-01 4.45308715e-01 4.07510996e-01 3.68370950e-01 3.46942484e-01 3.47510666e-01 3.67417753e-01 4.00294363e-01 4.33943391e-01 4.52143252e-01 4.55462188e-01 4.55561846e-01 4.54183251e-01 4.01944757e-01 3.57701560e-03 4.42874338e-03 6.70516957e-03 4.07706127e-02 6.89143658e-01 7.09184289e-01 7.20793426e-01 7.96239853e-01 1.97243735e-01 5.68999024e-03 6.90134848e-03 3.36096078e-01 4.69501048e-01 5.27637601e-01 5.34952462e-01 5.23902118e-01 5.11736989e-01 4.97933328e-01 4.87504959e-01 4.80381697e-01 4.76623476e-01 4.77102250e-01 4.80471641e-01 4.83335704e-01 4.85332221e-01 4.83792305e-01 4.79355693e-01 4.76863116e-01 4.77582306e-01 4.77903724e-01 4.86176699e-01 4.42431569e-01 8.68224259e-03 5.56716276e-03 6.37817662e-03 1.00403605e-02 2.06756964e-01 2.15670362e-01 2.73705810e-01 8.23409498e-01 1.65203419e-02 6.95588626e-03 1.69796497e-02 4.44148391e-01 5.47677755e-01 5.75970173e-01 5.64791441e-01 5.58551133e-01 5.49130678e-01 5.37603617e-01 5.26644051e-01 5.17899990e-01 5.12393177e-01 5.09745479e-01 5.08908212e-01 5.08408129e-01 5.07310212e-01 5.05160749e-01 5.02927184e-01 5.02140224e-01 5.02439499e-01 5.01868665e-01 5.02805412e-01 5.17390132e-01 3.54689300e-01 1.18330000e-02 8.28900747e-03 8.72636400e-03 1.71509646e-02 5.75042963e-02 1.37544364e-01 9.46290970e-01 6.66659139e-03 5.44349430e-03 1.94087788e-01 5.55166602e-01 6.02721334e-01 5.92986524e-01 5.90394557e-01 5.83221257e-01 5.72856426e-01 5.61388016e-01 5.50701320e-01 5.41851223e-01 5.35607517e-01 5.31694949e-01 5.29210389e-01 5.27498543e-01 5.25955677e-01 5.24277747e-01 5.22819400e-01 5.22628963e-01 5.23724437e-01 5.24955392e-01 5.29325485e-01 5.31535208e-01 5.00430226e-01 1.38626501e-01 1.25933094e-02 1.24327019e-02 1.14606293e-02 5.13508879e-02 7.52009451e-01 6.52607605e-02 5.36298845e-03 8.26321915e-03 5.49323618e-01 6.03550792e-01 5.96145213e-01 5.95069647e-01 5.90040147e-01 5.80937326e-01 5.69094598e-01 5.58331430e-01 5.50319970e-01 5.45226038e-01 5.42104423e-01 5.39773226e-01 5.37494302e-01 5.35102785e-01 5.32775164e-01 5.30865908e-01 5.30157387e-01 5.31882703e-01 5.36657274e-01 5.44908941e-01 5.59014022e-01 5.73623180e-01 5.99840105e-01 4.94085759e-01 2.01080933e-01 1.30463362e-01 6.85008392e-02 2.00692743e-01 9.22876298e-01 9.43977479e-03 8.97253491e-03 5.35752952e-01 5.83131194e-01 5.72175503e-01 5.62803507e-01 5.62820375e-01 5.62688231e-01 5.52282095e-01 5.42486489e-01 5.36312640e-01 5.34414232e-01 5.34415722e-01 5.34055233e-01 5.32276452e-01 5.29278994e-01 5.25867283e-01 5.22703350e-01 5.20392060e-01 5.19992590e-01 5.22829533e-01 5.29040873e-01 5.39120853e-01 5.54262102e-01 5.82406402e-01 6.43439651e-01 6.49156213e-01 3.61542225e-01 1.17645934e-01 1.10222615e-01 9.58354354e-01 1.20335920e-02 1.02288444e-02 5.20866454e-01 5.52009821e-01 5.26036799e-01 4.87287462e-01 4.87734079e-01 5.05583942e-01 5.14866173e-01 5.14269650e-01 5.08490086e-01 5.10993004e-01 5.15299022e-01 5.17722130e-01 5.17068267e-01 5.13998866e-01 5.09967744e-01 5.05800724e-01 5.02086818e-01 4.99877155e-01 5.00465572e-01 5.04105091e-01 5.09454966e-01 5.15661120e-01 5.24932265e-01 5.48652232e-01 5.69378793e-01 5.01928329e-01 4.13278073e-01 5.46135902e-01 8.90082717e-01 1.31941698e-02 1.19185066e-02 5.10126650e-01 5.23801029e-01 4.76016641e-01 3.80529553e-01 3.59588206e-01 4.05634135e-01 4.49722081e-01 4.72508937e-01 4.82103109e-01 4.85405654e-01 4.93662447e-01 4.98695046e-01 4.99533892e-01 4.97397661e-01 4.93794054e-01 4.89635110e-01 4.85473156e-01 4.83587772e-01 4.82725143e-01 4.85516340e-01 4.89355594e-01 4.91819412e-01 4.91979212e-01 4.90664512e-01 4.74083692e-01 4.49122667e-01 4.91369158e-01 6.69606388e-01 8.41680110e-01 1.30525585e-02 1.26979221e-02 5.05200207e-01 5.07933617e-01 4.46942002e-01 2.92026281e-01 2.26688504e-01 2.81896681e-01 3.63722146e-01 4.21130657e-01 4.51622248e-01 4.64738488e-01 4.75328147e-01 4.82829541e-01 4.85628277e-01 4.85205054e-01 4.83113855e-01 4.79566365e-01 4.75762337e-01 4.73235130e-01 4.73053992e-01 4.74381119e-01 4.75627959e-01 4.76644367e-01 4.76276428e-01 4.72398520e-01 4.65463400e-01 4.68368739e-01 5.43324053e-01 7.11851120e-01 7.74117589e-01 1.17241386e-02 1.17052197e-02 5.03954053e-01 5.02876282e-01 4.45465505e-01 2.52362072e-01 1.45606890e-01 1.82713822e-01 2.76742727e-01 3.66116822e-01 4.20672864e-01 4.50526834e-01 4.62974042e-01 4.72641438e-01 4.77966696e-01 4.80168939e-01 4.79592264e-01 4.76818562e-01 4.73221898e-01 4.70120281e-01 4.68172461e-01 4.67321068e-01 4.66849357e-01 4.67899978e-01 4.72182512e-01 4.76880670e-01 4.86732990e-01 5.24424851e-01 6.13999724e-01 7.28190720e-01 6.82339966e-01 1.42722158e-02 1.21608684e-02 5.03647983e-01 5.02115011e-01 4.57073301e-01 2.51580000e-01 1.01619489e-01 1.19422317e-01 2.07784578e-01 3.18440378e-01 3.95085543e-01 4.37608242e-01 4.57586080e-01 4.68898058e-01 4.76729780e-01 4.81642663e-01 4.83290404e-01 4.81909633e-01 4.78546709e-01 4.74754989e-01 4.70966160e-01 4.67215627e-01 4.64639395e-01 4.67677385e-01 4.79041815e-01 4.99601513e-01 5.25610030e-01 5.78808248e-01 6.59801543e-01 7.15544581e-01 4.93094444e-01 1.81666706e-02 1.56807099e-02 5.02777934e-01 5.01246214e-01 4.68347907e-01 2.71337211e-01 7.57599771e-02 8.20808634e-02 1.57763109e-01 2.85148740e-01 3.80493015e-01 4.31124598e-01 4.54287648e-01 4.70053673e-01 4.80695844e-01 4.87648368e-01 4.91019636e-01 4.91446108e-01 4.88741219e-01 4.84632313e-01 4.80028868e-01 4.74798888e-01 4.72952396e-01 4.79627728e-01 4.95740533e-01 5.24238527e-01 5.66366553e-01 6.25520349e-01 6.80896163e-01 6.48055553e-01 1.86585650e-01 2.19142102e-02 1.89029425e-02 5.00984848e-01 4.98787612e-01 4.75842267e-01 2.99421847e-01 6.03998862e-02 6.15167245e-02 1.23593926e-01 2.69577026e-01 3.79856855e-01 4.31372136e-01 4.55601871e-01 4.73388195e-01 4.87120152e-01 4.95658338e-01 4.99967515e-01 5.01418114e-01 5.00439823e-01 4.97455835e-01 4.93925840e-01 4.91176903e-01 4.92415637e-01 5.02687514e-01 5.26439190e-01 5.56252420e-01 6.01763248e-01 6.53353810e-01 6.63027465e-01 4.33602989e-01 7.57294074e-02 2.83395573e-02 2.37783752e-02 4.98370916e-01 4.94737923e-01 4.80040491e-01 3.29552323e-01 4.99588922e-02 4.89954054e-02 1.02024905e-01 2.72748113e-01 3.92606586e-01 4.36574578e-01 4.57598627e-01 4.77375954e-01 4.93154824e-01 5.03026009e-01 5.08153617e-01 5.10843456e-01 5.12101352e-01 5.11779368e-01 5.11839390e-01 5.13981044e-01 5.19535244e-01 5.34897745e-01 5.61735213e-01 5.94017208e-01 6.26352370e-01 6.42994761e-01 5.11195242e-01 1.42660186e-01 4.57657985e-02 3.64563428e-02 3.64000909e-02 4.94924963e-01 4.89371955e-01 4.81746078e-01 3.58375818e-01 4.21920568e-02 4.04437110e-02 8.84276927e-02 2.93167889e-01 4.13258046e-01 4.43538606e-01 4.60682660e-01 4.80569780e-01 4.96944904e-01 5.07752717e-01 5.13953388e-01 5.18074870e-01 5.22034407e-01 5.25329411e-01 5.30258596e-01 5.38836479e-01 5.52111506e-01 5.73484957e-01 6.00030661e-01 6.18014574e-01 6.04464769e-01 4.99867558e-01 1.73723236e-01 7.73158446e-02 4.57799360e-02 4.63454910e-02 8.71278569e-02 4.90457863e-01 4.82513189e-01 4.81530398e-01 3.84988338e-01 3.69393751e-02 3.43345292e-02 7.88861811e-02 3.26639265e-01 4.33375895e-01 4.49234694e-01 4.64244395e-01 4.82206374e-01 4.97679949e-01 5.08821785e-01 5.16356170e-01 5.22037804e-01 5.28547704e-01 5.35588384e-01 5.45365036e-01 5.59266329e-01 5.80771863e-01 6.06859505e-01 6.27993107e-01 6.15241885e-01 5.06645262e-01 2.31234699e-01 1.05979189e-01 6.80687726e-02 6.31506890e-02 8.19994882e-02 2.61936873e-01 4.85355943e-01 4.74070191e-01 4.79211509e-01 4.11421120e-01 3.41963805e-02 2.97763851e-02 7.01874271e-02 3.67081672e-01 4.47364002e-01 4.53961849e-01 4.66379344e-01 4.81981069e-01 4.95493829e-01 5.06197572e-01 5.14895320e-01 5.22435904e-01 5.30572295e-01 5.40723860e-01 5.53836644e-01 5.72071373e-01 5.96867383e-01 6.26842976e-01 6.42669737e-01 6.11719728e-01 4.57844824e-01 2.00250223e-01 1.08213417e-01 9.18940380e-02 1.15077570e-01 2.14193895e-01 4.09352422e-01 4.81001168e-01 4.65168387e-01 4.74855751e-01 4.39747781e-01 3.46459337e-02 2.59472821e-02 5.91407493e-02 4.07564729e-01 4.54658031e-01 4.57835615e-01 4.66484547e-01 4.78761047e-01 4.90377784e-01 5.00311494e-01 5.09569228e-01 5.18717825e-01 5.28436065e-01 5.40118396e-01 5.54982722e-01 5.74235439e-01 5.98382592e-01 6.25846207e-01 6.40180469e-01 6.15816474e-01 5.01188099e-01 2.87364841e-01 1.90377712e-01 2.16987625e-01 3.20932269e-01 4.28671300e-01 4.73713785e-01 4.76435751e-01 4.57258165e-01 4.69677061e-01 4.69278902e-01 4.06465530e-02 2.13303603e-02 4.38579097e-02 4.39878792e-01 4.59044605e-01 4.59518969e-01 4.63905513e-01 4.72421944e-01 4.82139915e-01 4.91673380e-01 5.00665069e-01 5.10697126e-01 5.21550596e-01 5.33713877e-01 5.48318386e-01 5.66194773e-01 5.87059081e-01 6.08564794e-01 6.23009503e-01 6.15807235e-01 5.64502239e-01 4.74217892e-01 4.39425379e-01 4.88760978e-01 5.47062814e-01 5.67602277e-01 5.24520159e-01 4.74049062e-01 4.49451953e-01 4.63619441e-01 4.88002837e-01 5.96276000e-02 1.54264122e-02 2.73302905e-02 4.56927627e-01 4.58538711e-01 4.56614494e-01 4.58221257e-01 4.62886423e-01 4.71022338e-01 4.79572684e-01 4.88806278e-01 4.99102801e-01 5.10127187e-01 5.22760689e-01 5.36566675e-01 5.51888943e-01 5.68379700e-01 5.85131347e-01 5.99266410e-01 6.04937494e-01 5.94371080e-01 5.72124302e-01 5.65477848e-01 5.80888450e-01 5.91485322e-01 5.95282495e-01 5.45903742e-01 4.76913691e-01 4.49949890e-01 4.55788165e-01 4.90256190e-01 1.22982740e-01 1.20858438e-02 1.63416918e-02 4.61999387e-01 4.54793185e-01 4.49592322e-01 4.48697299e-01 4.51478869e-01 4.57676023e-01 4.64760512e-01 4.73118514e-01 4.83308852e-01 4.94930595e-01 5.08629858e-01 5.22416472e-01 5.37031829e-01 5.51032186e-01 5.63778520e-01 5.75308740e-01 5.84235966e-01 5.86769342e-01 5.81060052e-01 5.72873771e-01 5.67957282e-01 5.65746725e-01 5.67487657e-01 5.37916780e-01 4.90342528e-01 4.68615144e-01 4.67717320e-01 4.74403471e-01 3.71207744e-01 9.80732776e-03 1.26009155e-02 4.65549827e-01 4.49469030e-01 4.40890729e-01 4.38886911e-01 4.39348996e-01 4.41454470e-01 4.46806252e-01 4.53639776e-01 4.63926136e-01 4.76861209e-01 4.92680907e-01 5.10972500e-01 5.29719472e-01 5.47381938e-01 5.59747219e-01 5.65953135e-01 5.66139936e-01 5.60800076e-01 5.52843153e-01 5.42990208e-01 5.33482552e-01 5.26643693e-01 5.26238680e-01 5.20238876e-01 5.01942217e-01 4.99205112e-01 4.99840170e-01 4.99832153e-01 3.28152865e-01 1.78169515e-02 1.29314596e-02 5.13068974e-01 4.75443304e-01 4.69387829e-01 4.66761649e-01 4.65745360e-01 4.65421408e-01 4.67254549e-01 4.70293015e-01 4.75478858e-01 4.82779503e-01 4.91850555e-01 5.02149165e-01 5.14338493e-01 5.25453985e-01 5.33548295e-01 5.35916388e-01 5.31898320e-01 5.23764312e-01 5.15410304e-01 5.09593248e-01 5.06189525e-01 5.03643692e-01 5.01250446e-01 5.02994835e-01 
