# vtk DataFile Version 2.0
results/iter0.vtk, Created by Freefem++ 
ASCII
DATASET UNSTRUCTURED_GRID
POINTS 961 float
0 0 0
0.033333333 0 0
0.066666667 0 0
0.1 0 0
0.13333333 0 0
0.16666667 0 0
0.2 0 0
0.23333333 0 0
0.26666667 0 0
0.3 0 0
0.33333333 0 0
0.36666667 0 0
0.4 0 0
0.43333333 0 0
0.46666667 0 0
0.5 0 0
0.53333333 0 0
0.56666667 0 0
0.6 0 0
0.63333333 0 0
0.66666667 0 0
0.7 0 0
0.73333333 0 0
0.76666667 0 0
0.8 0 0
0.83333333 0 0
0.86666667 0 0
0.9 0 0
0.93333333 0 0
0.96666667 0 0
1 0 0
0 0.033333333 0
0.033333333 0.033333333 0
0.066666667 0.033333333 0
0.1 0.033333333 0
0.13333333 0.033333333 0
0.16666667 0.033333333 0
0.2 0.033333333 0
0.23333333 0.033333333 0
0.26666667 0.033333333 0
0.3 0.033333333 0
0.33333333 0.033333333 0
0.36666667 0.033333333 0
0.4 0.033333333 0
0.43333333 0.033333333 0
0.46666667 0.033333333 0
0.5 0.033333333 0
0.53333333 0.033333333 0
0.56666667 0.033333333 0
0.6 0.033333333 0
0.63333333 0.033333333 0
0.66666667 0.033333333 0
0.7 0.033333333 0
0.73333333 0.033333333 0
0.76666667 0.033333333 0
0.8 0.033333333 0
0.83333333 0.033333333 0
0.86666667 0.033333333 0
0.9 0.033333333 0
0.93333333 0.033333333 0
0.96666667 0.033333333 0
1 0.033333333 0
0 0.066666667 0
0.033333333 0.066666667 0
0.066666667 0.066666667 0
0.1 0.066666667 0
0.13333333 0.066666667 0
0.16666667 0.066666667 0
0.2 0.066666667 0
0.23333333 0.066666667 0
0.26666667 0.066666667 0
0.3 0.066666667 0
0.33333333 0.066666667 0
0.36666667 0.066666667 0
0.4 0.066666667 0
0.43333333 0.066666667 0
0.46666667 0.066666667 0
0.5 0.066666667 0
0.53333333 0.066666667 0
0.56666667 0.066666667 0
0.6 0.066666667 0
0.63333333 0.066666667 0
0.66666667 0.066666667 0
0.7 0.066666667 0
0.73333333 0.066666667 0
0.76666667 0.066666667 0
0.8 0.066666667 0
0.83333333 0.066666667 0
0.86666667 0.066666667 0
0.9 0.066666667 0
0.93333333 0.066666667 0
0.96666667 0.066666667 0
1 0.066666667 0
0 0.1 0
0.033333333 0.1 0
0.066666667 0.1 0
0.1 0.1 0
0.13333333 0.1 0
0.16666667 0.1 0
0.2 0.1 0
0.23333333 0.1 0
0.26666667 0.1 0
0.3 0.1 0
0.33333333 0.1 0
0.36666667 0.1 0
0.4 0.1 0
0.43333333 0.1 0
0.46666667 0.1 0
0.5 0.1 0
0.53333333 0.1 0
0.56666667 0.1 0
0.6 0.1 0
0.63333333 0.1 0
0.66666667 0.1 0
0.7 0.1 0
0.73333333 0.1 0
0.76666667 0.1 0
0.8 0.1 0
0.83333333 0.1 0
0.86666667 0.1 0
0.9 0.1 0
0.93333333 0.1 0
0.96666667 0.1 0
1 0.1 0
0 0.13333333 0
0.033333333 0.13333333 0
0.066666667 0.13333333 0
0.1 0.13333333 0
0.13333333 0.13333333 0
0.16666667 0.13333333 0
0.2 0.13333333 0
0.23333333 0.13333333 0
0.26666667 0.13333333 0
0.3 0.13333333 0
0.33333333 0.13333333 0
0.36666667 0.13333333 0
0.4 0.13333333 0
0.43333333 0.13333333 0
0.46666667 0.13333333 0
0.5 0.13333333 0
0.53333333 0.13333333 0
0.56666667 0.13333333 0
0.6 0.13333333 0
0.63333333 0.13333333 0
0.66666667 0.13333333 0
0.7 0.13333333 0
0.73333333 0.13333333 0
0.76666667 0.13333333 0
0.8 0.13333333 0
0.83333333 0.13333333 0
0.86666667 0.13333333 0
0.9 0.13333333 0
0.93333333 0.13333333 0
0.96666667 0.13333333 0
1 0.13333333 0
0 0.16666667 0
0.033333333 0.16666667 0
0.066666667 0.16666667 0
0.1 0.16666667 0
0.13333333 0.16666667 0
0.16666667 0.16666667 0
0.2 0.16666667 0
0.23333333 0.16666667 0
0.26666667 0.16666667 0
0.3 0.16666667 0
0.33333333 0.16666667 0
0.36666667 0.16666667 0
0.4 0.16666667 0
0.43333333 0.16666667 0
0.46666667 0.16666667 0
0.5 0.16666667 0
0.53333333 0.16666667 0
0.56666667 0.16666667 0
0.6 0.16666667 0
0.63333333 0.16666667 0
0.66666667 0.16666667 0
0.7 0.16666667 0
0.73333333 0.16666667 0
0.76666667 0.16666667 0
0.8 0.16666667 0
0.83333333 0.16666667 0
0.86666667 0.16666667 0
0.9 0.16666667 0
0.93333333 0.16666667 0
0.96666667 0.16666667 0
1 0.16666667 0
0 0.2 0
0.033333333 0.2 0
0.066666667 0.2 0
0.1 0.2 0
0.13333333 0.2 0
0.16666667 0.2 0
0.2 0.2 0
0.23333333 0.2 0
0.26666667 0.2 0
0.3 0.2 0
0.33333333 0.2 0
0.36666667 0.2 0
0.4 0.2 0
0.43333333 0.2 0
0.46666667 0.2 0
0.5 0.2 0
0.53333333 0.2 0
0.56666667 0.2 0
0.6 0.2 0
0.63333333 0.2 0
0.66666667 0.2 0
0.7 0.2 0
0.73333333 0.2 0
0.76666667 0.2 0
0.8 0.2 0
0.83333333 0.2 0
0.86666667 0.2 0
0.9 0.2 0
0.93333333 0.2 0
0.96666667 0.2 0
1 0.2 0
0 0.23333333 0
0.033333333 0.23333333 0
0.066666667 0.23333333 0
0.1 0.23333333 0
0.13333333 0.23333333 0
0.16666667 0.23333333 0
0.2 0.23333333 0
0.23333333 0.23333333 0
0.26666667 0.23333333 0
0.3 0.23333333 0
0.33333333 0.23333333 0
0.36666667 0.23333333 0
0.4 0.23333333 0
0.43333333 0.23333333 0
0.46666667 0.23333333 0
0.5 0.23333333 0
0.53333333 0.23333333 0
0.56666667 0.23333333 0
0.6 0.23333333 0
0.63333333 0.23333333 0
0.66666667 0.23333333 0
0.7 0.23333333 0
0.73333333 0.23333333 0
0.76666667 0.23333333 0
0.8 0.23333333 0
0.83333333 0.23333333 0
0.86666667 0.23333333 0
0.9 0.23333333 0
0.93333333 0.23333333 0
0.96666667 0.23333333 0
1 0.23333333 0
0 0.26666667 0
0.033333333 0.26666667 0
0.066666667 0.26666667 0
0.1 0.26666667 0
0.13333333 0.26666667 0
0.16666667 0.26666667 0
0.2 0.26666667 0
0.23333333 0.26666667 0
0.26666667 0.26666667 0
0.3 0.26666667 0
0.33333333 0.26666667 0
0.36666667 0.26666667 0
0.4 0.26666667 0
0.43333333 0.26666667 0
0.46666667 0.26666667 0
0.5 0.26666667 0
0.53333333 0.26666667 0
0.56666667 0.26666667 0
0.6 0.26666667 0
0.63333333 0.26666667 0
0.66666667 0.26666667 0
0.7 0.26666667 0
0.73333333 0.26666667 0
0.76666667 0.26666667 0
0.8 0.26666667 0
0.83333333 0.26666667 0
0.86666667 0.26666667 0
0.9 0.26666667 0
0.93333333 0.26666667 0
0.96666667 0.26666667 0
1 0.26666667 0
0 0.3 0
0.033333333 0.3 0
0.066666667 0.3 0
0.1 0.3 0
0.13333333 0.3 0
0.16666667 0.3 0
0.2 0.3 0
0.23333333 0.3 0
0.26666667 0.3 0
0.3 0.3 0
0.33333333 0.3 0
0.36666667 0.3 0
0.4 0.3 0
0.43333333 0.3 0
0.46666667 0.3 0
0.5 0.3 0
0.53333333 0.3 0
0.56666667 0.3 0
0.6 0.3 0
0.63333333 0.3 0
0.66666667 0.3 0
0.7 0.3 0
0.73333333 0.3 0
0.76666667 0.3 0
0.8 0.3 0
0.83333333 0.3 0
0.86666667 0.3 0
0.9 0.3 0
0.93333333 0.3 0
0.96666667 0.3 0
1 0.3 0
0 0.33333333 0
0.033333333 0.33333333 0
0.066666667 0.33333333 0
0.1 0.33333333 0
0.13333333 0.33333333 0
0.16666667 0.33333333 0
0.2 0.33333333 0
0.23333333 0.33333333 0
0.26666667 0.33333333 0
0.3 0.33333333 0
0.33333333 0.33333333 0
0.36666667 0.33333333 0
0.4 0.33333333 0
0.43333333 0.33333333 0
0.46666667 0.33333333 0
0.5 0.33333333 0
0.53333333 0.33333333 0
0.56666667 0.33333333 0
0.6 0.33333333 0
0.63333333 0.33333333 0
0.66666667 0.33333333 0
0.7 0.33333333 0
0.73333333 0.33333333 0
0.76666667 0.33333333 0
0.8 0.33333333 0
0.83333333 0.33333333 0
0.86666667 0.33333333 0
0.9 0.33333333 0
0.93333333 0.33333333 0
0.96666667 0.33333333 0
1 0.33333333 0
0 0.36666667 0
0.033333333 0.36666667 0
0.066666667 0.36666667 0
0.1 0.36666667 0
0.13333333 0.36666667 0
0.16666667 0.36666667 0
0.2 0.36666667 0
0.23333333 0.36666667 0
0.26666667 0.36666667 0
0.3 0.36666667 0
0.33333333 0.36666667 0
0.36666667 0.36666667 0
0.4 0.36666667 0
0.43333333 0.36666667 0
0.46666667 0.36666667 0
0.5 0.36666667 0
0.53333333 0.36666667 0
0.56666667 0.36666667 0
0.6 0.36666667 0
0.63333333 0.36666667 0
0.66666667 0.36666667 0
0.7 0.36666667 0
0.73333333 0.36666667 0
0.76666667 0.36666667 0
0.8 0.36666667 0
0.83333333 0.36666667 0
0.86666667 0.36666667 0
0.9 0.36666667 0
0.93333333 0.36666667 0
0.96666667 0.36666667 0
1 0.36666667 0
0 0.4 0
0.033333333 0.4 0
0.066666667 0.4 0
0.1 0.4 0
0.13333333 0.4 0
0.16666667 0.4 0
0.2 0.4 0
0.23333333 0.4 0
0.26666667 0.4 0
0.3 0.4 0
0.33333333 0.4 0
0.36666667 0.4 0
0.4 0.4 0
0.43333333 0.4 0
0.46666667 0.4 0
0.5 0.4 0
0.53333333 0.4 0
0.56666667 0.4 0
0.6 0.4 0
0.63333333 0.4 0
0.66666667 0.4 0
0.7 0.4 0
0.73333333 0.4 0
0.76666667 0.4 0
0.8 0.4 0
0.83333333 0.4 0
0.86666667 0.4 0
0.9 0.4 0
0.93333333 0.4 0
0.96666667 0.4 0
1 0.4 0
0 0.43333333 0
0.033333333 0.43333333 0
0.066666667 0.43333333 0
0.1 0.43333333 0
0.13333333 0.43333333 0
0.16666667 0.43333333 0
0.2 0.43333333 0
0.23333333 0.43333333 0
0.26666667 0.43333333 0
0.3 0.43333333 0
0.33333333 0.43333333 0
0.36666667 0.43333333 0
0.4 0.43333333 0
0.43333333 0.43333333 0
0.46666667 0.43333333 0
0.5 0.43333333 0
0.53333333 0.43333333 0
0.56666667 0.43333333 0
0.6 0.43333333 0
0.63333333 0.43333333 0
0.66666667 0.43333333 0
0.7 0.43333333 0
0.73333333 0.43333333 0
0.76666667 0.43333333 0
0.8 0.43333333 0
0.83333333 0.43333333 0
0.86666667 0.43333333 0
0.9 0.43333333 0
0.93333333 0.43333333 0
0.96666667 0.43333333 0
1 0.43333333 0
0 0.46666667 0
0.033333333 0.46666667 0
0.066666667 0.46666667 0
0.1 0.46666667 0
0.13333333 0.46666667 0
0.16666667 0.46666667 0
0.2 0.46666667 0
0.23333333 0.46666667 0
0.26666667 0.46666667 0
0.3 0.46666667 0
0.33333333 0.46666667 0
0.36666667 0.46666667 0
0.4 0.46666667 0
0.43333333 0.46666667 0
0.46666667 0.46666667 0
0.5 0.46666667 0
0.53333333 0.46666667 0
0.56666667 0.46666667 0
0.6 0.46666667 0
0.63333333 0.46666667 0
0.66666667 0.46666667 0
0.7 0.46666667 0
0.73333333 0.46666667 0
0.76666667 0.46666667 0
0.8 0.46666667 0
0.83333333 0.46666667 0
0.86666667 0.46666667 0
0.9 0.46666667 0
0.93333333 0.46666667 0
0.96666667 0.46666667 0
1 0.46666667 0
0 0.5 0
0.033333333 0.5 0
0.066666667 0.5 0
0.1 0.5 0
0.13333333 0.5 0
0.16666667 0.5 0
0.2 0.5 0
0.23333333 0.5 0
0.26666667 0.5 0
0.3 0.5 0
0.33333333 0.5 0
0.36666667 0.5 0
0.4 0.5 0
0.43333333 0.5 0
0.46666667 0.5 0
0.5 0.5 0
0.53333333 0.5 0
0.56666667 0.5 0
0.6 0.5 0
0.63333333 0.5 0
0.66666667 0.5 0
0.7 0.5 0
0.73333333 0.5 0
0.76666667 0.5 0
0.8 0.5 0
0.83333333 0.5 0
0.86666667 0.5 0
0.9 0.5 0
0.93333333 0.5 0
0.96666667 0.5 0
1 0.5 0
0 0.53333333 0
0.033333333 0.53333333 0
0.066666667 0.53333333 0
0.1 0.53333333 0
0.13333333 0.53333333 0
0.16666667 0.53333333 0
0.2 0.53333333 0
0.23333333 0.53333333 0
0.26666667 0.53333333 0
0.3 0.53333333 0
0.33333333 0.53333333 0
0.36666667 0.53333333 0
0.4 0.53333333 0
0.43333333 0.53333333 0
0.46666667 0.53333333 0
0.5 0.53333333 0
0.53333333 0.53333333 0
0.56666667 0.53333333 0
0.6 0.53333333 0
0.63333333 0.53333333 0
0.66666667 0.53333333 0
0.7 0.53333333 0
0.73333333 0.53333333 0
0.76666667 0.53333333 0
0.8 0.53333333 0
[...]
CELL_DATA 1920
Scalars  Label int 1
LOOKUP_TABLE FreeFempp_table
0
0
0
0
0
0
0
0
0
0
0
0
0
0
0
0
0
0
0
0
0
0
0
0
0
0
0
0
0
0
0
0
0
0
0
0
0
0
0
0
0
0
0
0
0
0
0
0
0
0
0
0
0
0
0
0
0
0
0
0
0
0
0
0
0
0
0
0
0
0
0
0
0
0
0
0
0
0
0
0
0
0
0
0
0
0
0
0
0
0
0
0
0
0
0
0
0
0
0
0
0
0
0
0
0
0
0
0
0
0
0
0
0
0
0
0
0
0
0
0
0
0
0
0
0
0
0
0
0
0
0
0
0
0
0
0
0
0
0
0
0
0
0
0
0
0
0
0
0
0
0
0
0
0
0
0
0
0
0
0
0
0
0
0
0
0
0
0
0
0
0
0
0
0
0
0
0
0
0
0
0
0
0
0
0
0
0
0
0
0
0
0
0
0
0
0
0
0
0
0
0
0
0
0
0
0
0
0
0
0
0
0
0
0
0
0
0
0
0
0
0
0
0
0
0
0
0
0
0
0
0
0
0
0
0
0
0
0
0
0
0
0
0
0
0
0
0
0
0
0
0
0
0
0
0
0
0
0
0
0
0
0
0
0
0
0
0
0
0
0
0
0
0
0
0
0
0
0
0
0
0
0
0
0
0
0
0
0
0
0
0
0
0
0
0
0
0
0
0
0
0
0
0
0
0
0
0
0
0
0
0
0
0
0
0
0
0
0
0
0
0
0
0
0
0
0
0
0
0
0
0
0
0
0
0
0
0
0
0
0
0
0
0
0
0
0
0
0
0
0
0
0
0
0
0
0
0
0
0
0
0
0
0
0
0
0
0
0
0
0
0
0
0
0
0
0
0
0
0
0
0
0
0
0
0
0
0
0
0
0
0
0
0
0
0
0
0
0
0
0
0
0
0
0
0
0
0
0
0
0
0
0
0
0
0
0
0
0
0
0
0
0
0
0
0
0
0
0
0
0
0
0
0
0
0
0
0
0
0
0
0
0
0
0
0
0
0
0
0
0
0
0
0
0
0
0
0
0
0
0
0
0
0
0
0
0
0
0
0
0
0
0
0
0
0
0
0
0
0
0
0
0
0
0
0
0
0
0
0
0
0
0
0
0
0
0
0
0
0
0
0
0
0
0
0
0
0
0
0
0
0
0
0
0
0
0
0
0
0
0
0
0
0
0
0
0
0
0
0
0
0
0
0
0
0
0
0
0
0
0
0
0
0
0
0
0
0
0
0
0
0
0
0
0
0
0
0
0
0
0
0
0
0
0
0
0
0
0
0
0
0
0
0
0
0
0
0
0
0
0
0
0
0
0
0
0
0
0
0
0
0
0
0
0
0
0
0
0
0
0
0
0
0
0
0
0
0
0
0
0
0
0
0
0
0
0
0
0
0
0
0
0
0
0
0
0
0
0
0
0
0
0
0
0
0
0
0
0
0
0
0
0
0
0
0
0
0
0
0
0
0
0
0
0
0
0
0
0
0
0
0
0
0
0
0
0
0
0
0
0
0
0
0
0
0
0
0
0
0
0
0
0
0
0
0
0
0
0
0
0
0
0
0
0
0
0
0
0
0
0
0
0
0
0
0
0
0
0
0
0
0
0
0
0
0
0
0
0
0
0
0
0
0
0
0
0
0
0
0
0
0
0
0
0
0
0
0
0
0
0
0
0
0
0
0
0
0
0
0
0
0
0
0
0
0
0
0
0
0
0
0
0
0
0
0
0
0
0
0
0
0
0
0
0
0
0
0
0
0
0
0
0
0
0
0
0
0
0
0
0
0
0
0
0
0
0
0
0
0
0
0
0
0
0
0
0
0
0
0
0
0
0
0
0
0
0
0
0
0
0
0
0
0
0
0
0
0
0
0
0
0
0
0
0
0
0
0
0
0
0
0
0
0
0
0
0
0
0
0
0
0
0
0
0
0
0
0
0
0
0
0
0
0
0
0
0
0
0
0
0
0
0
0
0
0
0
0
0
0
0
0
0
0
0
0
0
0
0
0
0
0
0
0
0
0
0
0
0
0
0
0
0
0
0
0
0
0
0
0
0
0
0
0
0
0
0
0
0
0
0
0
0
0
0
0
0
0
0
0
0
0
0
0
0
0
0
0
0
0
0
0
0
0
0
0
0
0
0
0
0
0
0
0
0
0
0
0
0
0
0
0
0
0
0
0
0
0
0
0
0
0
0
0
0
0
0
0
0
0
0
0
0
0
0
0
0
0
0
0
0
0
0
0
0
0
0
0
0
0
0
0
0
0
0
0
0
0
0
0
0
0
0
0
0
0
0
0
0
0
0
0
0
0
0
0
0
0
0
0
0
0
0
0
0
0
0
0
0
0
0
0
0
0
0
0
0
0
0
0
0
0
0
0
0
0
0
0
0
0
0
0
0
0
0
0
0
0
0
0
0
0
0
0
0
0
0
0
0
0
0
0
0
0
0
0
0
0
0
0
0
0
0
0
0
0
0
0
0
0
0
0
0
0
0
0
0
0
0
0
0
0
0
0
0
0
0
0
0
0
0
0
0
0
0
0
0
0
0
0
0
0
0
0
0
0
0
0
0
0
0
0
0
0
0
0
0
0
0
0
0
0
0
0
0
0
0
0
0
0
0
0
0
0
0
0
0
0
0
0
0
0
0
0
0
0
0
0
0
0
0
0
0
0
0
0
0
0
0
0
0
0
0
0
0
0
0
0
0
0
0
0
0
0
0
0
0
0
0
0
0
0
0
0
0
0
0
0
0
0
0
0
0
0
0
0
0
0
0
0
0
0
0
0
0
0
0
0
0
0
0
0
0
0
0
0
0
0
0
0
0
0
0
0
0
0
0
0
0
0
0
0
0
0
0
0
0
0
0
0
0
0
0
0
0
0
0
0
0
0
0
0
0
0
0
0
0
0
0
0
0
0
0
0
0
0
0
0
0
0
0
0
0
0
0
0
0
0
0
0
0
0
0
0
0
0
0
0
0
0
0
0
0
0
0
0
0
0
0
0
0
0
0
0
0
0
0
0
0
0
0
0
0
0
0
0
0
0
0
0
0
0
0
0
0
0
0
0
0
0
0
0
0
0
0
0
0
0
0
0
0
0
0
0
0
0
0
0
0
0
0
0
0
0
0
0
0
0
0
0
0
0
0
0
0
0
0
0
0
0
0
0
0
0
0
0
0
0
0
0
0
0
0
0
0
0
0
0
0
0
0
0
0
0
0
0
0
0
0
0
0
0
0
0
0
0
0
0
0
0
0
0
0
0
0
0
0
0
0
0
0
0
0
0
0
0
0
0
0
0
0
0
0
0
0
0
0
0
0
0
0
0
0
0
0
0
0
0
0
0
0
0
0
0
0
0
0
0
0
0
0
0
0
0
0
0
0
0
0
0
0
0
0
0
0
0
0
0
0
0
0
0
0
0
0
0
0
0
0
0
0
0
0
0
0
0
0
0
0
0
0
0
0
0
0
0
0
0
0
0
0
0
0
0
0
0
0
0
0
0
0
0
0
0
0
0
0
0
0
0
0
0
0
0
0
0
0
0
0
0
0
0
0
0
0
0
0
0
0
0
0
0
0
0
0
0
0
0
0
0
0
0
0
0
0
0
0
0
0
0
0
0
0
0
0
0
0
0
0
0
0
0
0
0
0
0
0
0
0
0
0
0
0
0
0
0
0
0
0
0
0
0
0
0
0
0
0
0
0
0
0
0
0
0
0
0
0
0
0
0
0
0
0
0
0
0
0
0
0
0
0
0
0
0
0
0
0
0
0
0
0
0
0
0
0
0
0
0
0
0
0
0
0
0
0
0
0
0
0
0
0
0
0
0
0
0
0
0
0
0
0
0
0
0
0
0
0
0
0
0
0
0
0
0
0
0
0
0
0
0
0
0
0
0
0
0
0
0
0
0
0
0
0
0
0
0
0
0
0
0
0
0
0
0
0
0
0
0
0
0
0
0
0
0
0
0
0
0
0
0
0
0
0
0
0
0
0
0
0
0
0
0
0
0
0
0
0
0
0
0
0
0
0
0
0
0
0
0
0
0
0
0
0
0
0
0
0
0
0
0
0
1
1
1
1
1
1
1
1
1
1
1
1
1
1
1
1
1
1
1
1
1
1
1
1
1
1
1
1
1
1
2
2
2
2
2
2
2
2
2
2
2
2
2
2
2
2
2
2
2
2
2
2
2
2
2
2
2
2
2
2
3
3
3
3
3
3
3
3
3
3
3
3
3
3
3
3
3
3
3
3
3
3
3
3
3
3
3
3
3
3
4
4
4
4
4
4
4
4
4
4
4
4
4
4
4
4
4
4
4
4
4
4
4
4
4
4
4
4
4
4

LOOKUP_TABLE FreeFempp_table 5
1.00000000 0.00000000 0.00000000 1.00000000
1.00000000 1.00000000 0.00000000 1.00000000
1.00000000 0.00000000 1.00000000 1.00000000
0.00000000 1.00000000 0.00000000 1.00000000
0.00000000 1.00000000 1.00000000 1.00000000

POINT_DATA 961
FIELD FieldData 1
Density 1 961 float
1.46288082e-01 1.30939588e-01 1.66797727e-01 1.76783785e-01 1.68585539e-01 1.52187884e-01 1.28131345e-01 9.33203548e-02 5.55640459e-02 4.13475148e-02 6.15435839e-02 1.46450058e-01 2.48072252e-01 2.93052316e-01 3.17955017e-01 3.49137157e-01 4.15092826e-01 5.50415695e-01 7.04413354e-01 7.59361804e-01 7.21468449e-01 6.96319938e-01 7.57301807e-01 7.63050020e-01 7.23930478e-01 7.18749404e-01 6.98613763e-01 6.27721071e-01 6.25731051e-01 6.25010133e-01 5.44086039e-01 8.00586247e-04 8.61546248e-02 1.25514403e-01 1.32181868e-01 1.23547219e-01 1.10638522e-01 9.39432904e-02 7.15987757e-02 4.57487218e-02 2.95612291e-02 3.39120589e-02 7.25159124e-02 1.64911672e-01 2.09577337e-01 2.33077466e-01 2.59109974e-01 3.18990052e-01 5.12152135e-01 8.01126420e-01 8.72180700e-01 7.95793533e-01 6.23001873e-01 6.05104268e-01 6.91564322e-01 6.89223945e-01 6.86307132e-01 6.94458246e-01 6.66733921e-01 6.95137978e-01 6.65953815e-01 6.09542489e-01 5.56521059e-04 4.68185666e-04 7.30608939e-04 7.20462413e-04 7.33264314e-04 7.40475836e-04 7.45637517e-04 7.48508668e-04 7.41331605e-04 7.83485943e-04 7.10884342e-04 4.98560742e-02 2.54532307e-01 2.81176358e-01 2.91958511e-01 3.05846363e-01 3.19137782e-01 4.38179523e-01 7.12752938e-01 5.33644438e-01 9.08433273e-02 5.24848215e-02 3.29564810e-02 2.51124613e-02 2.28719246e-02 3.09034605e-02 6.43577874e-02 2.75542557e-01 4.70734149e-01 5.12649059e-01 5.29145896e-01 4.29763466e-01 7.15093513e-04 7.69263250e-04 7.10407796e-04 7.25671882e-04 7.35099544e-04 7.42257806e-04 7.47177633e-04 7.48933351e-04 7.62054056e-04 4.86419885e-04 4.91633138e-04 7.90628314e-04 8.79769621e-04 1.12598669e-03 2.80059785e-01 3.62819880e-01 3.54174584e-01 6.13767684e-01 1.88111532e-02 1.53934304e-02 1.37413694e-02 8.73416010e-03 7.26870401e-03 5.24763484e-03 4.66971565e-03 5.09589352e-03 1.11624738e-02 1.71617046e-01 3.75690460e-01 4.55024958e-01 4.17163193e-01 3.08203638e-01 5.40741272e-02 5.88392057e-02 3.00324887e-01 3.25106740e-01 3.24981183e-01 3.28943670e-01 3.36871207e-01 3.37372124e-01 1.93252191e-01 7.37595663e-04 8.23262904e-04 7.44347577e-04 6.07443973e-04 6.28132082e-04 8.67684663e-04 8.73130374e-03 2.86328971e-01 6.47175848e-01 7.32513564e-03 1.35940695e-02 9.57033224e-03 8.36521573e-03 6.68271026e-03 4.94301552e-03 3.26295733e-03 2.86018825e-03 7.23812357e-03 2.01277390e-01 4.14605528e-01 3.76805961e-01 2.65935540e-01 5.64939491e-02 4.21921425e-02 2.22833022e-01 3.04302812e-01 3.16483051e-01 3.20925772e-01 3.26041222e-01 3.27339619e-01 3.14106196e-01 3.10802907e-01 3.40113610e-01 3.45179468e-01 5.17552020e-03 8.67409050e-04 6.14239718e-04 6.49211113e-04 8.81336629e-04 6.34656072e-01 9.48268533e-01 5.18546514e-02 3.35265212e-02 2.53663845e-02 2.17514783e-02 1.92160476e-02 1.14627769e-02 2.75601842e-03 1.99333322e-03 1.15881069e-02 3.82447898e-01 3.49068373e-01 2.17449337e-01 9.00156125e-02 4.91389111e-02 1.37577355e-01 2.78310925e-01 3.21139991e-01 3.37301254e-01 3.46733242e-01 3.52880388e-01 3.52344155e-01 3.46275240e-01 3.51816595e-01 3.59750211e-01 3.58384967e-01 3.66223782e-01 3.21227133e-01 1.10582111e-03 6.53238560e-04 6.31147355e-04 7.30126500e-02 9.75465834e-01 2.32673988e-01 8.99093151e-02 1.08202554e-01 9.33554620e-02 8.99862871e-02 2.33720224e-02 1.72406132e-03 2.55402410e-03 3.81794810e-01 3.83695543e-01 2.37085968e-01 1.70195207e-01 1.00161545e-01 1.57231823e-01 2.90870935e-01 3.49060833e-01 3.75110656e-01 3.89599741e-01 3.98091704e-01 4.00964707e-01 3.98940623e-01 3.96724224e-01 3.95965666e-01 3.92030239e-01 3.88525248e-01 3.91111284e-01 3.91044319e-01 3.15250099e-01 7.06840132e-04 7.85512733e-04 6.63980562e-03 9.63909626e-01 6.32811546e-01 2.28001639e-01 1.99902043e-01 1.47876978e-01 6.87781647e-02 1.81918126e-03 2.13457528e-03 4.07743245e-01 5.16272664e-01 4.15037125e-01 3.67510170e-01 3.27588767e-01 3.41918856e-01 4.07618493e-01 4.40726817e-01 4.55918759e-01 4.63538617e-01 4.65965182e-01 4.64026779e-01 4.58736688e-01 4.52208072e-01 4.45485383e-01 4.37869251e-01 4.30217445e-01 4.23858762e-01 4.17379558e-01 4.10587609e-01 3.99678230e-01 9.17001162e-04 1.05672062e-03 3.20624141e-03 9.40698087e-01 8.20272505e-01 5.05255222e-01 2.65718818e-01 1.18454590e-01 1.63978862e-03 1.78133359e-03 4.23248887e-01 6.67924583e-01 7.09265351e-01 6.74080789e-01 6.44101322e-01 6.18393481e-01 5.99494755e-01 5.84084034e-01 5.71289361e-01 5.60039043e-01 5.48951030e-01 5.37395298e-01 5.25524855e-01 5.13841152e-01 5.02408206e-01 4.91076827e-01 4.80165124e-01 4.69690144e-01 4.59306002e-01 4.49391425e-01 4.37782079e-01 4.24668849e-01 1.50335301e-03 1.58871338e-03 2.58536800e-03 8.74096215e-01 8.35614920e-01 7.12414563e-01 2.51195669e-01 1.80006411e-03 1.58210972e-03 3.64759296e-01 6.91622555e-01 8.14497471e-01 7.87059784e-01 7.72891700e-01 7.50245988e-01 7.21698105e-01 6.91510022e-01 6.64156735e-01 6.40413105e-01 6.19628191e-01 6.01069987e-01 5.84386349e-01 5.69322407e-01 5.55498064e-01 5.42648554e-01 5.30641794e-01 5.19131124e-01 5.07798553e-01 4.96957093e-01 4.86947924e-01 4.77698445e-01 4.57512468e-01 3.21800122e-03 2.10462557e-03 2.56533921e-03 5.49651623e-01 2.80131876e-01 9.46035087e-01 2.32332898e-03 1.23866857e-03 8.80289171e-03 5.46151698e-01 6.83085680e-01 6.83515549e-01 7.12175786e-01 7.27173448e-01 7.26069212e-01 7.12149382e-01 6.92396104e-01 6.71528339e-01 6.51604712e-01 6.33334875e-01 6.16971195e-01 6.02479815e-01 5.89632511e-01 5.78174591e-01 5.67761362e-01 5.57927370e-01 5.48365116e-01 5.39111614e-01 5.31157076e-01 5.27583182e-01 5.32078683e-01 5.08294344e-01 6.80152792e-03 2.44877720e-03 2.66615115e-03 1.41909989e-02 2.64482331e-02 6.65898860e-01 1.26776972e-03 1.78552407e-03 3.38755041e-01 2.92743683e-01 3.45336318e-01 4.47163284e-01 5.53151190e-01 6.21511996e-01 6.49716496e-01 6.55071557e-01 6.49529278e-01 6.39283001e-01 6.27455831e-01 6.15724087e-01 6.04948282e-01 5.95493019e-01 5.87410748e-01 5.80439746e-01 5.74093103e-01 5.67909300e-01 5.61625540e-01 5.55660307e-01 5.53371310e-01 5.63147426e-01 5.91798782e-01 5.85007370e-01 2.18840279e-02 3.55837075e-03 4.84512467e-03 1.46018174e-02 9.64822233e-01 2.03691842e-03 1.92520476e-03 2.11330816e-01 1.06666908e-01 1.24897487e-01 1.90313965e-01 3.14444155e-01 4.48276669e-01 5.32899320e-01 5.74579895e-01 5.91595948e-01 5.95623672e-01 5.93045354e-01 5.87473750e-01 5.81057250e-01 5.75079978e-01 5.70227146e-01 5.66647530e-01 5.64060211e-01 5.61904430e-01 5.59413612e-01 5.55744648e-01 5.51082969e-01 5.50890625e-01 5.63578129e-01 6.21576667e-01 7.16157138e-01 1.94528803e-01 1.41861513e-02 1.74041707e-02 9.73736644e-01 2.20653019e-03 1.98833691e-03 1.31186336e-01 5.55685908e-02 6.05112202e-02 9.40104499e-02 1.79402217e-01 3.10509831e-01 4.21167016e-01 4.89744842e-01 5.26563048e-01 5.43811619e-01 5.49651742e-01 5.49111545e-01 5.45438290e-01 5.40863931e-01 5.36922872e-01 5.34523904e-01 5.34007967e-01 5.35161555e-01 5.37169755e-01 5.38388968e-01 5.36007583e-01 5.26637673e-01 5.04549384e-01 4.80279326e-01 5.02576649e-01 7.04609811e-01 5.62248081e-02 2.92025022e-02 9.83373225e-01 2.62207747e-03 2.28108582e-03 6.95859119e-02 3.24739106e-02 3.59533466e-02 6.24529012e-02 1.34516582e-01 2.48132110e-01 3.54808062e-01 4.30407971e-01 4.77084160e-01 5.02870381e-01 5.14668465e-01 5.17414451e-01 5.14669657e-01 5.09211242e-01 5.03335655e-01 4.98914719e-01 4.97311234e-01 4.99232352e-01 5.04543304e-01 5.12016296e-01 5.18860459e-01 5.20096242e-01 5.03243148e-01 4.39408183e-01 2.75973469e-01 2.48064876e-01 1.47908375e-01 3.70456465e-02 9.76022601e-01 2.36865296e-03 2.41075084e-03 3.27766426e-02 2.05986649e-02 2.46721823e-02 5.43681569e-02 1.34050146e-01 2.40617678e-01 3.33077192e-01 4.02347088e-01 4.49797392e-01 4.79298025e-01 4.94906574e-01 5.00156105e-01 4.98008162e-01 4.91099775e-01 4.82010305e-01 4.73352045e-01 4.67608094e-01 4.66712117e-01 4.71523136e-01 4.81420010e-01 4.94375795e-01 5.08085370e-01 5.20060539e-01 5.23022473e-01 4.10484195e-01 2.20488921e-01 1.93605512e-01 1.89719856e-01 9.59445715e-01 2.12161709e-03 2.05476908e-03 1.56435668e-02 1.43439686e-02 2.00465899e-02 6.26000762e-02 1.66796833e-01 2.66134590e-01 3.39955181e-01 3.97470742e-01 4.40860599e-01 4.70868528e-01 4.88841295e-01 4.96567339e-01 4.95911539e-01 4.88775045e-01 4.77323830e-01 4.64243025e-01 4.52716380e-01 4.45901334e-01 4.45847481e-01 4.52475935e-01 4.63626325e-01 4.77412045e-01 4.95628178e-01 5.27854443e-01 5.62099159e-01 3.96611303e-01 3.30356121e-01 7.53586233e-01 9.32332098e-01 2.46834056e-03 2.21145339e-03 8.38434417e-03 1.00144865e-02 2.08284985e-02 9.46352482e-02 2.26392373e-01 3.04477930e-01 3.59193176e-01 4.05267060e-01 4.43470895e-01 4.72485483e-01 4.91892785e-01 5.02154768e-01 5.04106998e-01 4.98711795e-01 4.87192035e-01 4.71430838e-01 4.54325318e-01 4.39585000e-01 4.30537611e-01 4.28618819e-01 4.33042258e-01 4.43386942e-01 4.60573435e-01 4.90402877e-01 5.50952315e-01 6.07597589e-01 5.99976838e-01 8.99089158e-01 8.69591057e-01 2.93300860e-03 2.62308097e-03 5.44465845e-03 6.75815670e-03 2.96871029e-02 1.68826178e-01 2.89023519e-01 3.40536565e-01 3.80491912e-01 4.18033808e-01 4.51691210e-01 4.79202121e-01 4.99373943e-01 5.11972666e-01 5.17193198e-01 5.15262544e-01 5.06370306e-01 4.90989864e-01 4.70464647e-01 4.47340041e-01 4.24923152e-01 4.07438725e-01 4.00555611e-01 4.12504196e-01 4.44880694e-01 4.92874652e-01 5.72968483e-01 6.89515889e-01 8.14296067e-01 8.97047579e-01 1.14990361e-01 3.40841757e-03 3.01002408e-03 4.22567688e-03 4.92489571e-03 6.00967631e-02 2.67126232e-01 3.37109208e-01 3.69225115e-01 3.99723500e-01 4.31371123e-01 4.61307853e-01 4.87102807e-01 5.07432282e-01 5.21851659e-01 5.30326009e-01 5.32750189e-01 5.28598964e-01 5.16879797e-01 4.96495992e-01 4.66739714e-01 4.28250909e-01 3.88288647e-01 3.68125081e-01 3.92236829e-01 4.62953955e-01 5.59078991e-01 6.85571373e-01 7.86401510e-01 8.47257912e-01 7.75660336e-01 1.57005619e-02 4.15486516e-03 3.52749531e-03 3.66143859e-03 4.05562483e-03 1.54887736e-01 3.42382044e-01 3.70770305e-01 3.91020745e-01 4.15656596e-01 4.42868501e-01 4.69482183e-01 4.93308336e-01 5.13179362e-01 5.28675854e-01 5.39787412e-01 5.46455681e-01 5.47974944e-01 5.42390227e-01 5.26180506e-01 4.94604290e-01 4.45341200e-01 3.92427385e-01 3.71562421e-01 4.25527990e-01 5.54592431e-01 6.82754397e-01 7.86877394e-01 8.14305365e-01 7.98888266e-01 1.11698173e-01 6.96557015e-03 5.20642661e-03 5.10945264e-03 3.29419924e-03 3.56400851e-03 2.80013412e-01 3.81095678e-01 3.93798321e-01 4.07660991e-01 4.27955925e-01 4.51085687e-01 4.74271387e-01 4.95745182e-01 5.14518917e-01 5.30180275e-01 5.42739809e-01 5.52330494e-01 5.58550537e-01 5.59437811e-01 5.50520182e-01 5.25750995e-01 4.86808598e-01 4.60138053e-01 4.93036270e-01 6.26427412e-01 7.29291320e-01 8.13677847e-01 8.40318024e-01 7.83370733e-01 4.31055456e-01 1.25228902e-02 5.03003225e-03 5.15478803e-03 1.07977772e-02 3.00710392e-03 3.21795838e-03 3.49956065e-01 3.99847686e-01 4.08908367e-01 4.19824660e-01 4.36010540e-01 4.54811335e-01 4.74255830e-01 4.92994934e-01 5.10113001e-01 5.25071740e-01 5.37780941e-01 5.48657477e-01 5.58449149e-01 5.67666650e-01 5.76090991e-01 5.85171938e-01 6.09030962e-01 6.78306520e-01 7.63234556e-01 7.88747311e-01 7.80921221e-01 8.09421420e-01 5.92782617e-01 9.64437705e-03 5.66978473e-03 5.21652540e-03 6.19100826e-03 7.33847404e-03 6.70985729e-02 2.77355313e-03 2.94656097e-03 3.79387617e-01 4.12888736e-01 4.18699652e-01 4.26683873e-01 4.38505560e-01 4.52858537e-01 4.68491673e-01 4.84342068e-01 4.99492377e-01 5.13234019e-01 5.25307000e-01 5.36395848e-01 5.48838675e-01 5.67176402e-01 5.97895741e-01 6.48232341e-01 7.22839653e-01 8.07594955e-01 8.40464473e-01 2.35006392e-01 2.49371175e-02 1.49512561e-02 1.05769411e-02 7.87908956e-03 6.28099218e-03 5.37522277e-03 7.37940427e-03 2.63503939e-02 4.10112679e-01 2.57766014e-03 2.72495020e-03 3.98527592e-01 4.24411118e-01 4.24221873e-01 4.27414596e-01 4.34597760e-01 4.44768369e-01 4.56869096e-01 4.69920933e-01 4.83038604e-01 4.95471537e-01 5.06812990e-01 5.17650425e-01 5.30869484e-01 5.53129613e-01 5.94329715e-01 6.61351681e-01 7.45908678e-01 8.21070910e-01 8.56207192e-01 7.82738328e-01 5.28199449e-02 2.34030839e-02 1.39400484e-02 9.65952780e-03 1.32489624e-02 7.41320074e-01 8.31604004e-01 8.72483909e-01 7.09158242e-01 2.40555708e-03 2.53830501e-03 4.16846484e-01 4.32892829e-01 4.24302250e-01 4.21835691e-01 4.24737930e-01 4.31368709e-01 4.40378606e-01 4.50769633e-01 4.61837202e-01 4.73058313e-01 4.84054655e-01 4.94934350e-01 5.07406354e-01 5.26548088e-01 5.61181962e-01 6.18588567e-01 6.93431377e-01 7.66088605e-01 8.19775760e-01 8.39959621e-01 8.27894449e-01 8.83467495e-01 9.32332397e-01 9.41846430e-01 9.48735237e-01 9.36244309e-01 9.07754004e-01 9.03665483e-01 8.10452819e-01 2.23353575e-03 2.37450143e-03 4.37072545e-01 4.35092419e-01 4.17343855e-01 4.10515130e-01 4.10608351e-01 4.14681524e-01 4.21020359e-01 4.28749502e-01 4.37578708e-01 4.47517574e-01 4.58555460e-01 4.70475197e-01 4.83173102e-01 4.97866482e-01 5.18609226e-01 5.51320970e-01 5.98183453e-01 6.53811634e-01 7.11319149e-01 7.62967646e-01 8.04063439e-01 8.41310799e-01 8.60820651e-01 8.65587592e-01 8.63271475e-01 8.53571177e-01 8.26510727e-01 8.22450161e-01 7.34992445e-01 1.98233081e-03 2.22155359e-03 4.59356666e-01 4.26973134e-01 4.03689265e-01 3.95942271e-01 3.95234078e-01 3.97613764e-01 4.01445627e-01 4.06278998e-01 4.12410945e-01 4.20540184e-01 4.31341678e-01 4.44946766e-01 4.60489839e-01 4.76183712e-01 4.90496993e-01 5.04022181e-01 5.19623280e-01 5.39268911e-01 5.60575366e-01 5.76976597e-01 5.85899174e-01 5.90027750e-01 5.79962492e-01 5.72057366e-01 5.70499301e-01 5.76245666e-01 5.94550133e-01 6.11534357e-01 5.91605723e-01 1.53288734e-03 1.90261658e-03 5.00070930e-01 4.11094844e-01 3.88654888e-01 3.82714540e-01 3.81442666e-01 3.81535918e-01 3.82150710e-01 3.83523345e-01 3.86570066e-01 3.92637163e-01 4.03172255e-01 4.19181556e-01 4.40400630e-01 4.64328378e-01 4.85710502e-01 4.97300804e-01 4.91919219e-01 4.64624137e-01 4.15505886e-01 3.60225588e-01 3.38193774e-01 3.62931341e-01 4.03929412e-01 4.33992386e-01 4.47663158e-01 4.54387903e-01 4.60675210e-01 4.66388196e-01 5.00339806e-01 2.24659313e-03 1.69707136e-03 6.31905377e-01 4.54217881e-01 4.41049516e-01 4.37067747e-01 4.35732692e-01 4.34956193e-01 4.34177905e-01 4.33658838e-01 4.34104145e-01 4.36473787e-01 4.41804290e-01 4.50906575e-01 4.63890970e-01 4.79571819e-01 4.94889736e-01 5.04528761e-01 5.01007080e-01 4.76062030e-01 4.25874084e-01 3.64130110e-01 3.30035955e-01 3.48595023e-01 3.99872571e-01 4.42202359e-01 4.63707179e-01 4.68360513e-01 4.65066016e-01 4.59471941e-01 4.74992901e-01 
