# vtk DataFile Version 2.0
results_case1_non_linear/iter7.vtk, Created by Freefem++ 
ASCII
DATASET UNSTRUCTURED_GRID
POINTS 961 float
0 0 0
0.033333333 0 0
0.066666667 0 0
0.1 0 0
0.13333333 0 0
0.16666667 0 0
0.2 0 0
0.23333333 0 0
0.26666667 0 0
0.3 0 0
0.33333333 0 0
0.36666667 0 0
0.4 0 0
0.43333333 0 0
0.46666667 0 0
0.5 0 0
0.53333333 0 0
0.56666667 0 0
0.6 0 0
0.63333333 0 0
0.66666667 0 0
0.7 0 0
0.73333333 0 0
0.76666667 0 0
0.8 0 0
0.83333333 0 0
0.86666667 0 0
0.9 0 0
0.93333333 0 0
0.96666667 0 0
1 0 0
0 0.033333333 0
0.033333333 0.033333333 0
0.066666667 0.033333333 0
0.1 0.033333333 0
0.13333333 0.033333333 0
0.16666667 0.033333333 0
0.2 0.033333333 0
0.23333333 0.033333333 0
0.26666667 0.033333333 0
0.3 0.033333333 0
0.33333333 0.033333333 0
0.36666667 0.033333333 0
0.4 0.033333333 0
0.43333333 0.033333333 0
0.46666667 0.033333333 0
0.5 0.033333333 0
0.53333333 0.033333333 0
0.56666667 0.033333333 0
0.6 0.033333333 0
0.63333333 0.033333333 0
0.66666667 0.033333333 0
0.7 0.033333333 0
0.73333333 0.033333333 0
0.76666667 0.033333333 0
0.8 0.033333333 0
0.83333333 0.033333333 0
0.86666667 0.033333333 0
0.9 0.033333333 0
0.93333333 0.033333333 0
0.96666667 0.033333333 0
1 0.033333333 0
0 0.066666667 0
0.033333333 0.066666667 0
0.066666667 0.066666667 0
0.1 0.066666667 0
0.13333333 0.066666667 0
0.16666667 0.066666667 0
0.2 0.066666667 0
0.23333333 0.066666667 0
0.26666667 0.066666667 0
0.3 0.066666667 0
0.33333333 0.066666667 0
0.36666667 0.066666667 0
0.4 0.066666667 0
0.43333333 0.066666667 0
0.46666667 0.066666667 0
0.5 0.066666667 0
0.53333333 0.066666667 0
0.56666667 0.066666667 0
0.6 0.066666667 0
0.63333333 0.066666667 0
0.66666667 0.066666667 0
0.7 0.066666667 0
0.73333333 0.066666667 0
0.76666667 0.066666667 0
0.8 0.066666667 0
0.83333333 0.066666667 0
0.86666667 0.066666667 0
0.9 0.066666667 0
0.93333333 0.066666667 0
0.96666667 0.066666667 0
1 0.066666667 0
0 0.1 0
0.033333333 0.1 0
0.066666667 0.1 0
0.1 0.1 0
0.13333333 0.1 0
0.16666667 0.1 0
0.2 0.1 0
0.23333333 0.1 0
0.26666667 0.1 0
0.3 0.1 0
0.33333333 0.1 0
0.36666667 0.1 0
0.4 0.1 0
0.43333333 0.1 0
0.46666667 0.1 0
0.5 0.1 0
0.53333333 0.1 0
0.56666667 0.1 0
0.6 0.1 0
0.63333333 0.1 0
0.66666667 0.1 0
0.7 0.1 0
0.73333333 0.1 0
0.76666667 0.1 0
0.8 0.1 0
0.83333333 0.1 0
0.86666667 0.1 0
0.9 0.1 0
0.93333333 0.1 0
0.96666667 0.1 0
1 0.1 0
0 0.13333333 0
0.033333333 0.13333333 0
0.066666667 0.13333333 0
0.1 0.13333333 0
0.13333333 0.13333333 0
0.16666667 0.13333333 0
0.2 0.13333333 0
0.23333333 0.13333333 0
0.26666667 0.13333333 0
0.3 0.13333333 0
0.33333333 0.13333333 0
0.36666667 0.13333333 0
0.4 0.13333333 0
0.43333333 0.13333333 0
0.46666667 0.13333333 0
0.5 0.13333333 0
0.53333333 0.13333333 0
0.56666667 0.13333333 0
0.6 0.13333333 0
0.63333333 0.13333333 0
0.66666667 0.13333333 0
0.7 0.13333333 0
0.73333333 0.13333333 0
0.76666667 0.13333333 0
0.8 0.13333333 0
0.83333333 0.13333333 0
0.86666667 0.13333333 0
0.9 0.13333333 0
0.93333333 0.13333333 0
0.96666667 0.13333333 0
1 0.13333333 0
0 0.16666667 0
0.033333333 0.16666667 0
0.066666667 0.16666667 0
0.1 0.16666667 0
0.13333333 0.16666667 0
0.16666667 0.16666667 0
0.2 0.16666667 0
0.23333333 0.16666667 0
0.26666667 0.16666667 0
0.3 0.16666667 0
0.33333333 0.16666667 0
0.36666667 0.16666667 0
0.4 0.16666667 0
0.43333333 0.16666667 0
0.46666667 0.16666667 0
0.5 0.16666667 0
0.53333333 0.16666667 0
0.56666667 0.16666667 0
0.6 0.16666667 0
0.63333333 0.16666667 0
0.66666667 0.16666667 0
0.7 0.16666667 0
0.73333333 0.16666667 0
0.76666667 0.16666667 0
0.8 0.16666667 0
0.83333333 0.16666667 0
0.86666667 0.16666667 0
0.9 0.16666667 0
0.93333333 0.16666667 0
0.96666667 0.16666667 0
1 0.16666667 0
0 0.2 0
0.033333333 0.2 0
0.066666667 0.2 0
0.1 0.2 0
0.13333333 0.2 0
0.16666667 0.2 0
0.2 0.2 0
0.23333333 0.2 0
0.26666667 0.2 0
0.3 0.2 0
0.33333333 0.2 0
0.36666667 0.2 0
0.4 0.2 0
0.43333333 0.2 0
0.46666667 0.2 0
0.5 0.2 0
0.53333333 0.2 0
0.56666667 0.2 0
0.6 0.2 0
0.63333333 0.2 0
0.66666667 0.2 0
0.7 0.2 0
0.73333333 0.2 0
0.76666667 0.2 0
0.8 0.2 0
0.83333333 0.2 0
0.86666667 0.2 0
0.9 0.2 0
0.93333333 0.2 0
0.96666667 0.2 0
1 0.2 0
0 0.23333333 0
0.033333333 0.23333333 0
0.066666667 0.23333333 0
0.1 0.23333333 0
0.13333333 0.23333333 0
0.16666667 0.23333333 0
0.2 0.23333333 0
0.23333333 0.23333333 0
0.26666667 0.23333333 0
0.3 0.23333333 0
0.33333333 0.23333333 0
0.36666667 0.23333333 0
0.4 0.23333333 0
0.43333333 0.23333333 0
0.46666667 0.23333333 0
0.5 0.23333333 0
0.53333333 0.23333333 0
0.56666667 0.23333333 0
0.6 0.23333333 0
0.63333333 0.23333333 0
0.66666667 0.23333333 0
0.7 0.23333333 0
0.73333333 0.23333333 0
0.76666667 0.23333333 0
0.8 0.23333333 0
0.83333333 0.23333333 0
0.86666667 0.23333333 0
0.9 0.23333333 0
0.93333333 0.23333333 0
0.96666667 0.23333333 0
1 0.23333333 0
0 0.26666667 0
0.033333333 0.26666667 0
0.066666667 0.26666667 0
0.1 0.26666667 0
0.13333333 0.26666667 0
0.16666667 0.26666667 0
0.2 0.26666667 0
0.23333333 0.26666667 0
0.26666667 0.26666667 0
0.3 0.26666667 0
0.33333333 0.26666667 0
0.36666667 0.26666667 0
0.4 0.26666667 0
0.43333333 0.26666667 0
0.46666667 0.26666667 0
0.5 0.26666667 0
0.53333333 0.26666667 0
0.56666667 0.26666667 0
0.6 0.26666667 0
0.63333333 0.26666667 0
0.66666667 0.26666667 0
0.7 0.26666667 0
0.73333333 0.26666667 0
0.76666667 0.26666667 0
0.8 0.26666667 0
0.83333333 0.26666667 0
0.86666667 0.26666667 0
0.9 0.26666667 0
0.93333333 0.26666667 0
0.96666667 0.26666667 0
1 0.26666667 0
0 0.3 0
0.033333333 0.3 0
0.066666667 0.3 0
0.1 0.3 0
0.13333333 0.3 0
0.16666667 0.3 0
0.2 0.3 0
0.23333333 0.3 0
0.26666667 0.3 0
0.3 0.3 0
0.33333333 0.3 0
0.36666667 0.3 0
0.4 0.3 0
0.43333333 0.3 0
0.46666667 0.3 0
0.5 0.3 0
0.53333333 0.3 0
0.56666667 0.3 0
0.6 0.3 0
0.63333333 0.3 0
0.66666667 0.3 0
0.7 0.3 0
0.73333333 0.3 0
0.76666667 0.3 0
0.8 0.3 0
0.83333333 0.3 0
0.86666667 0.3 0
0.9 0.3 0
0.93333333 0.3 0
0.96666667 0.3 0
1 0.3 0
0 0.33333333 0
0.033333333 0.33333333 0
0.066666667 0.33333333 0
0.1 0.33333333 0
0.13333333 0.33333333 0
0.16666667 0.33333333 0
0.2 0.33333333 0
0.23333333 0.33333333 0
0.26666667 0.33333333 0
0.3 0.33333333 0
0.33333333 0.33333333 0
0.36666667 0.33333333 0
0.4 0.33333333 0
0.43333333 0.33333333 0
0.46666667 0.33333333 0
0.5 0.33333333 0
0.53333333 0.33333333 0
0.56666667 0.33333333 0
0.6 0.33333333 0
0.63333333 0.33333333 0
0.66666667 0.33333333 0
0.7 0.33333333 0
0.73333333 0.33333333 0
0.76666667 0.33333333 0
0.8 0.33333333 0
0.83333333 0.33333333 0
0.86666667 0.33333333 0
0.9 0.33333333 0
0.93333333 0.33333333 0
0.96666667 0.33333333 0
1 0.33333333 0
0 0.36666667 0
0.033333333 0.36666667 0
0.066666667 0.36666667 0
0.1 0.36666667 0
0.13333333 0.36666667 0
0.16666667 0.36666667 0
0.2 0.36666667 0
0.23333333 0.36666667 0
0.26666667 0.36666667 0
0.3 0.36666667 0
0.33333333 0.36666667 0
0.36666667 0.36666667 0
0.4 0.36666667 0
0.43333333 0.36666667 0
0.46666667 0.36666667 0
0.5 0.36666667 0
0.53333333 0.36666667 0
0.56666667 0.36666667 0
0.6 0.36666667 0
0.63333333 0.36666667 0
0.66666667 0.36666667 0
0.7 0.36666667 0
0.73333333 0.36666667 0
0.76666667 0.36666667 0
0.8 0.36666667 0
0.83333333 0.36666667 0
0.86666667 0.36666667 0
0.9 0.36666667 0
0.93333333 0.36666667 0
0.96666667 0.36666667 0
1 0.36666667 0
0 0.4 0
0.033333333 0.4 0
0.066666667 0.4 0
0.1 0.4 0
0.13333333 0.4 0
0.16666667 0.4 0
0.2 0.4 0
0.23333333 0.4 0
0.26666667 0.4 0
0.3 0.4 0
0.33333333 0.4 0
0.36666667 0.4 0
0.4 0.4 0
0.43333333 0.4 0
0.46666667 0.4 0
0.5 0.4 0
0.53333333 0.4 0
0.56666667 0.4 0
0.6 0.4 0
0.63333333 0.4 0
0.66666667 0.4 0
0.7 0.4 0
0.73333333 0.4 0
0.76666667 0.4 0
0.8 0.4 0
0.83333333 0.4 0
0.86666667 0.4 0
0.9 0.4 0
0.93333333 0.4 0
0.96666667 0.4 0
1 0.4 0
0 0.43333333 0
0.033333333 0.43333333 0
0.066666667 0.43333333 0
0.1 0.43333333 0
0.13333333 0.43333333 0
0.16666667 0.43333333 0
0.2 0.43333333 0
0.23333333 0.43333333 0
0.26666667 0.43333333 0
0.3 0.43333333 0
0.33333333 0.43333333 0
0.36666667 0.43333333 0
0.4 0.43333333 0
0.43333333 0.43333333 0
0.46666667 0.43333333 0
0.5 0.43333333 0
0.53333333 0.43333333 0
0.56666667 0.43333333 0
0.6 0.43333333 0
0.63333333 0.43333333 0
0.66666667 0.43333333 0
0.7 0.43333333 0
0.73333333 0.43333333 0
0.76666667 0.43333333 0
0.8 0.43333333 0
0.83333333 0.43333333 0
0.86666667 0.43333333 0
0.9 0.43333333 0
0.93333333 0.43333333 0
0.96666667 0.43333333 0
1 0.43333333 0
0 0.46666667 0
0.033333333 0.46666667 0
0.066666667 0.46666667 0
0.1 0.46666667 0
0.13333333 0.46666667 0
0.16666667 0.46666667 0
0.2 0.46666667 0
0.23333333 0.46666667 0
0.26666667 0.46666667 0
0.3 0.46666667 0
0.33333333 0.46666667 0
0.36666667 0.46666667 0
0.4 0.46666667 0
0.43333333 0.46666667 0
0.46666667 0.46666667 0
0.5 0.46666667 0
0.53333333 0.46666667 0
0.56666667 0.46666667 0
0.6 0.46666667 0
0.63333333 0.46666667 0
0.66666667 0.46666667 0
0.7 0.46666667 0
0.73333333 0.46666667 0
0.76666667 0.46666667 0
0.8 0.46666667 0
0.83333333 0.46666667 0
0.86666667 0.46666667 0
0.9 0.46666667 0
0.93333333 0.46666667 0
0.96666667 0.46666667 0
1 0.46666667 0
0 0.5 0
0.033333333 0.5 0
0.066666667 0.5 0
0.1 0.5 0
0.13333333 0.5 0
0.16666667 0.5 0
0.2 0.5 0
0.23333333 0.5 0
0.26666667 0.5 0
0.3 0.5 0
0.33333333 0.5 0
0.36666667 0.5 0
0.4 0.5 0
0.43333333 0.5 0
0.46666667 0.5 0
0.5 0.5 0
0.53333333 0.5 0
0.56666667 0.5 0
0.6 0.5 0
0.63333333 0.5 0
0.66666667 0.5 0
0.7 0.5 0
0.73333333 0.5 0
0.76666667 0.5 0
0.8 0.5 0
0.83333333 0.5 0
0.86666667 0.5 0
0.9 0.5 0
0.93333333 0.5 0
0.96666667 0.5 0
1 0.5 0
0 0.53333333 0
0.033333333 0.53333333 0
0.066666667 0.53333333 0
0.1 0.53333333 0
0.13333333 0.53333333 0
0.16666667 0.53333333 0
0.2 0.53333333 0
0.23333333 0.53333333 0
0.26666667 0.53333333 0
0.3 0.53333333 0
0.33333333 0.53333333 0
0.36666667 0.53333333 0
0.4 0.53333333 0
0.43333333 0.53333333 0
0.46666667 0.53333333 0
0.5 0.53333333 0
0.53333333 0.53333333 0
0.56666667 0.53333333 0
0.6 0.53333333 0
0.63333333 0.53333333 0
0.66666667 0.53333333 0
0.7 0.53333333 0
0.73333333 0.53333333 0
0.76666667 0.53333333 0
[...]
CELL_DATA 1920
Scalars  Label int 1
LOOKUP_TABLE FreeFempp_table
0
0
0
0
0
0
0
0
0
0
0
0
0
0
0
0
0
0
0
0
0
0
0
0
0
0
0
0
0
0
0
0
0
0
0
0
0
0
0
0
0
0
0
0
0
0
0
0
0
0
0
0
0
0
0
0
0
0
0
0
0
0
0
0
0
0
0
0
0
0
0
0
0
0
0
0
0
0
0
0
0
0
0
0
0
0
0
0
0
0
0
0
0
0
0
0
0
0
0
0
0
0
0
0
0
0
0
0
0
0
0
0
0
0
0
0
0
0
0
0
0
0
0
0
0
0
0
0
0
0
0
0
0
0
0
0
0
0
0
0
0
0
0
0
0
0
0
0
0
0
0
0
0
0
0
0
0
0
0
0
0
0
0
0
0
0
0
0
0
0
0
0
0
0
0
0
0
0
0
0
0
0
0
0
0
0
0
0
0
0
0
0
0
0
0
0
0
0
0
0
0
0
0
0
0
0
0
0
0
0
0
0
0
0
0
0
0
0
0
0
0
0
0
0
0
0
0
0
0
0
0
0
0
0
0
0
0
0
0
0
0
0
0
0
0
0
0
0
0
0
0
0
0
0
0
0
0
0
0
0
0
0
0
0
0
0
0
0
0
0
0
0
0
0
0
0
0
0
0
0
0
0
0
0
0
0
0
0
0
0
0
0
0
0
0
0
0
0
0
0
0
0
0
0
0
0
0
0
0
0
0
0
0
0
0
0
0
0
0
0
0
0
0
0
0
0
0
0
0
0
0
0
0
0
0
0
0
0
0
0
0
0
0
0
0
0
0
0
0
0
0
0
0
0
0
0
0
0
0
0
0
0
0
0
0
0
0
0
0
0
0
0
0
0
0
0
0
0
0
0
0
0
0
0
0
0
0
0
0
0
0
0
0
0
0
0
0
0
0
0
0
0
0
0
0
0
0
0
0
0
0
0
0
0
0
0
0
0
0
0
0
0
0
0
0
0
0
0
0
0
0
0
0
0
0
0
0
0
0
0
0
0
0
0
0
0
0
0
0
0
0
0
0
0
0
0
0
0
0
0
0
0
0
0
0
0
0
0
0
0
0
0
0
0
0
0
0
0
0
0
0
0
0
0
0
0
0
0
0
0
0
0
0
0
0
0
0
0
0
0
0
0
0
0
0
0
0
0
0
0
0
0
0
0
0
0
0
0
0
0
0
0
0
0
0
0
0
0
0
0
0
0
0
0
0
0
0
0
0
0
0
0
0
0
0
0
0
0
0
0
0
0
0
0
0
0
0
0
0
0
0
0
0
0
0
0
0
0
0
0
0
0
0
0
0
0
0
0
0
0
0
0
0
0
0
0
0
0
0
0
0
0
0
0
0
0
0
0
0
0
0
0
0
0
0
0
0
0
0
0
0
0
0
0
0
0
0
0
0
0
0
0
0
0
0
0
0
0
0
0
0
0
0
0
0
0
0
0
0
0
0
0
0
0
0
0
0
0
0
0
0
0
0
0
0
0
0
0
0
0
0
0
0
0
0
0
0
0
0
0
0
0
0
0
0
0
0
0
0
0
0
0
0
0
0
0
0
0
0
0
0
0
0
0
0
0
0
0
0
0
0
0
0
0
0
0
0
0
0
0
0
0
0
0
0
0
0
0
0
0
0
0
0
0
0
0
0
0
0
0
0
0
0
0
0
0
0
0
0
0
0
0
0
0
0
0
0
0
0
0
0
0
0
0
0
0
0
0
0
0
0
0
0
0
0
0
0
0
0
0
0
0
0
0
0
0
0
0
0
0
0
0
0
0
0
0
0
0
0
0
0
0
0
0
0
0
0
0
0
0
0
0
0
0
0
0
0
0
0
0
0
0
0
0
0
0
0
0
0
0
0
0
0
0
0
0
0
0
0
0
0
0
0
0
0
0
0
0
0
0
0
0
0
0
0
0
0
0
0
0
0
0
0
0
0
0
0
0
0
0
0
0
0
0
0
0
0
0
0
0
0
0
0
0
0
0
0
0
0
0
0
0
0
0
0
0
0
0
0
0
0
0
0
0
0
0
0
0
0
0
0
0
0
0
0
0
0
0
0
0
0
0
0
0
0
0
0
0
0
0
0
0
0
0
0
0
0
0
0
0
0
0
0
0
0
0
0
0
0
0
0
0
0
0
0
0
0
0
0
0
0
0
0
0
0
0
0
0
0
0
0
0
0
0
0
0
0
0
0
0
0
0
0
0
0
0
0
0
0
0
0
0
0
0
0
0
0
0
0
0
0
0
0
0
0
0
0
0
0
0
0
0
0
0
0
0
0
0
0
0
0
0
0
0
0
0
0
0
0
0
0
0
0
0
0
0
0
0
0
0
0
0
0
0
0
0
0
0
0
0
0
0
0
0
0
0
0
0
0
0
0
0
0
0
0
0
0
0
0
0
0
0
0
0
0
0
0
0
0
0
0
0
0
0
0
0
0
0
0
0
0
0
0
0
0
0
0
0
0
0
0
0
0
0
0
0
0
0
0
0
0
0
0
0
0
0
0
0
0
0
0
0
0
0
0
0
0
0
0
0
0
0
0
0
0
0
0
0
0
0
0
0
0
0
0
0
0
0
0
0
0
0
0
0
0
0
0
0
0
0
0
0
0
0
0
0
0
0
0
0
0
0
0
0
0
0
0
0
0
0
0
0
0
0
0
0
0
0
0
0
0
0
0
0
0
0
0
0
0
0
0
0
0
0
0
0
0
0
0
0
0
0
0
0
0
0
0
0
0
0
0
0
0
0
0
0
0
0
0
0
0
0
0
0
0
0
0
0
0
0
0
0
0
0
0
0
0
0
0
0
0
0
0
0
0
0
0
0
0
0
0
0
0
0
0
0
0
0
0
0
0
0
0
0
0
0
0
0
0
0
0
0
0
0
0
0
0
0
0
0
0
0
0
0
0
0
0
0
0
0
0
0
0
0
0
0
0
0
0
0
0
0
0
0
0
0
0
0
0
0
0
0
0
0
0
0
0
0
0
0
0
0
0
0
0
0
0
0
0
0
0
0
0
0
0
0
0
0
0
0
0
0
0
0
0
0
0
0
0
0
0
0
0
0
0
0
0
0
0
0
0
0
0
0
0
0
0
0
0
0
0
0
0
0
0
0
0
0
0
0
0
0
0
0
0
0
0
0
0
0
0
0
0
0
0
0
0
0
0
0
0
0
0
0
0
0
0
0
0
0
0
0
0
0
0
0
0
0
0
0
0
0
0
0
0
0
0
0
0
0
0
0
0
0
0
0
0
0
0
0
0
0
0
0
0
0
0
0
0
0
0
0
0
0
0
0
0
0
0
0
0
0
0
0
0
0
0
0
0
0
0
0
0
0
0
0
0
0
0
0
0
0
0
0
0
0
0
0
0
0
0
0
0
0
0
0
0
0
0
0
0
0
0
0
0
0
0
0
0
0
0
0
0
0
0
0
0
0
0
0
0
0
0
0
0
0
0
0
0
0
0
0
0
0
0
0
0
0
0
0
0
0
0
0
0
0
0
0
0
0
0
0
0
0
0
0
0
0
0
0
0
0
0
0
0
0
0
0
0
0
0
0
0
0
0
0
0
0
0
0
0
0
0
0
0
0
0
0
0
0
0
0
0
0
0
0
0
0
0
0
0
0
0
0
0
0
0
0
0
0
0
0
0
0
0
0
0
0
0
0
0
0
0
0
0
0
0
0
0
0
0
0
0
0
0
0
0
0
0
0
0
0
0
0
0
0
0
0
0
0
0
0
0
0
0
0
0
0
0
0
0
0
0
0
0
0
0
0
0
0
0
0
0
0
0
0
0
0
0
0
0
0
0
0
0
0
0
0
0
0
0
0
0
0
0
0
0
0
0
0
0
0
0
0
0
0
0
0
0
0
0
0
0
0
0
0
0
0
0
0
0
0
0
0
0
0
0
0
0
0
0
0
0
0
0
0
0
0
0
0
0
0
0
0
0
0
0
0
0
0
0
0
0
0
0
0
0
0
0
0
0
0
0
0
0
0
0
0
0
0
0
0
0
0
0
0
0
0
0
0
0
0
0
0
0
0
0
0
0
0
0
0
0
0
0
0
0
0
0
0
1
1
1
1
1
1
1
1
1
1
1
1
1
1
1
1
1
1
1
1
1
1
1
1
1
1
1
1
1
1
2
2
2
2
2
2
2
2
2
2
2
2
2
2
2
2
2
2
2
2
2
2
2
2
2
2
2
2
2
2
3
3
3
3
3
3
3
3
3
3
3
3
3
3
3
3
3
3
3
3
3
3
3
3
3
3
3
3
3
3
4
4
4
4
4
4
4
4
4
4
4
4
4
4
4
4
4
4
4
4
4
4
4
4
4
4
4
4
4
4

LOOKUP_TABLE FreeFempp_table 5
1.00000000 0.00000000 0.00000000 1.00000000
1.00000000 1.00000000 0.00000000 1.00000000
1.00000000 0.00000000 1.00000000 1.00000000
0.00000000 1.00000000 0.00000000 1.00000000
0.00000000 1.00000000 1.00000000 1.00000000

POINT_DATA 961
FIELD FieldData 1
Density 1 961 float
4.20209408e-01 3.46325725e-01 4.45671469e-01 5.02570331e-01 5.11887074e-01 5.12024403e-01 5.10381639e-01 5.07971466e-01 5.05363822e-01 5.04617333e-01 5.08090496e-01 2.58779287e-01 2.98406783e-04 2.70645105e-04 2.21137516e-03 8.32144022e-01 9.56320643e-01 9.02694166e-01 8.23977947e-01 8.43454421e-01 8.41132164e-01 8.28312516e-01 8.04880142e-01 7.81784236e-01 7.64389634e-01 7.50841677e-01 7.41415083e-01 7.35204220e-01 7.31346667e-01 7.25812674e-01 7.36235142e-01 1.29760490e-04 1.25280421e-04 1.78408325e-02 2.75018603e-01 3.01518530e-01 2.98339784e-01 2.94857264e-01 2.92204052e-01 2.90459722e-01 2.91058689e-01 2.90762782e-01 1.74574718e-01 3.29773349e-04 1.87377926e-04 3.82611557e-04 6.42432272e-01 9.92065012e-01 9.87962902e-01 9.45636451e-01 9.45345163e-01 9.32701290e-01 9.12772596e-01 8.93678963e-01 8.43494177e-01 7.92577505e-01 7.54958332e-01 7.28823543e-01 7.12242246e-01 7.02073932e-01 6.90822601e-01 7.20115781e-01 1.42246150e-04 1.13824164e-04 1.14890841e-04 1.23720252e-04 1.23545527e-04 1.23723497e-04 1.23905280e-04 1.24060505e-04 1.24209910e-04 1.24437123e-04 1.24667335e-04 1.24961793e-04 1.25087958e-04 1.24115919e-04 1.23842823e-04 2.51306202e-02 9.95014906e-01 9.74191785e-01 3.41421887e-02 2.08196584e-02 8.52932930e-02 6.64879143e-01 7.96570599e-01 8.33287358e-01 7.88795710e-01 7.18529224e-01 6.75293803e-01 6.53391242e-01 6.41666830e-01 6.28035307e-01 6.96658552e-01 5.28937459e-01 4.84623574e-03 1.24611892e-04 1.24817685e-04 1.23260586e-04 1.23611360e-04 1.23764316e-04 1.23923499e-04 1.24054975e-04 1.24224607e-04 1.24460712e-04 1.24598839e-04 1.25210543e-04 1.24309998e-04 1.14014467e-04 1.12979964e-04 1.08701701e-03 9.99756336e-01 3.80701981e-02 5.93959121e-04 2.49010744e-04 1.80151343e-04 1.72444532e-04 1.79393232e-04 5.92366576e-01 6.31084383e-01 5.84254622e-01 5.56523025e-01 5.47157407e-01 5.35683632e-01 6.56412125e-01 6.19279146e-01 4.63478863e-01 4.83570993e-01 4.82988983e-01 4.76579547e-01 4.68969613e-01 4.60916460e-01 4.51516658e-01 4.40351903e-01 4.25470352e-01 4.08471614e-01 3.99002880e-01 4.25688267e-01 1.57965526e-01 3.10345960e-04 1.12308429e-04 1.12972106e-04 1.77572452e-04 9.99769807e-01 8.72300658e-03 4.60591080e-04 2.27910015e-04 1.71974825e-04 1.35897659e-04 1.29880907e-04 5.57858730e-03 4.65460926e-01 4.51503336e-01 4.48067814e-01 4.43283528e-01 6.10502124e-01 6.47335887e-01 5.25066555e-01 5.38448691e-01 5.44452727e-01 5.43891907e-01 5.39706409e-01 5.32977998e-01 5.24270058e-01 5.13800681e-01 5.01885355e-01 4.88730580e-01 4.72974867e-01 4.57570314e-01 4.46543366e-01 4.17102426e-01 3.25419873e-01 1.16691073e-04 1.18370168e-04 1.25840903e-04 9.99032557e-01 9.96089041e-01 9.90559459e-01 9.69823778e-01 1.27004401e-03 1.25172955e-04 1.24209429e-04 3.87705833e-04 4.13211137e-01 3.79285723e-01 3.77594620e-01 5.71968079e-01 6.58335328e-01 5.57428420e-01 5.57502210e-01 5.54874480e-01 5.55355489e-01 5.54978013e-01 5.53191185e-01 5.50355971e-01 5.46956718e-01 5.43460071e-01 5.39989054e-01 5.35361707e-01 5.27788401e-01 5.21374941e-01 5.16527534e-01 4.99802589e-01 4.50579971e-01 1.42386241e-04 1.18759795e-04 1.18314376e-04 9.04502988e-01 9.89772379e-01 9.97789443e-01 9.99488175e-01 9.99382138e-01 1.26727376e-04 1.26615560e-04 2.09236925e-04 4.11797881e-01 3.45367610e-01 5.47085166e-01 6.63888752e-01 5.73345423e-01 5.73784411e-01 5.69589198e-01 5.68897188e-01 5.69806278e-01 5.71371198e-01 5.73463321e-01 5.76290786e-01 5.80089092e-01 5.84785938e-01 5.89568853e-01 5.93351722e-01 5.97384393e-01 6.05180264e-01 6.15039408e-01 6.29887521e-01 6.11166656e-01 4.60649229e-04 1.18209435e-04 1.19732977e-04 1.50127511e-04 2.01946357e-04 6.33645337e-04 2.03385614e-02 9.99631047e-01 1.32116111e-04 1.26749452e-04 1.95586079e-04 3.42528850e-01 5.42280197e-01 6.66253865e-01 5.80861330e-01 5.81900537e-01 5.78730047e-01 5.78552961e-01 5.80623865e-01 5.84455550e-01 5.89752197e-01 5.96546113e-01 6.04936838e-01 6.14770710e-01 6.25573158e-01 6.37047410e-01 6.50229096e-01 6.67678654e-01 6.91566706e-01 7.25003481e-01 7.80541778e-01 8.37745428e-01 2.27603629e-01 1.32419023e-04 1.39141222e-04 1.50972555e-04 2.14585132e-04 5.68955613e-04 9.99536458e-03 9.99839723e-01 1.30473651e-04 1.24023587e-04 2.49188306e-04 2.73142010e-02 6.65478408e-01 5.81236243e-01 5.82708836e-01 5.80890477e-01 5.81251323e-01 5.83873510e-01 5.88697255e-01 5.95512390e-01 6.04126334e-01 6.14262879e-01 6.25719368e-01 6.38209045e-01 6.51719689e-01 6.67145669e-01 6.86287761e-01 7.11322308e-01 7.45566308e-01 7.94041395e-01 8.68297458e-01 9.30037320e-01 9.42050099e-01 3.96798909e-01 4.75897267e-03 1.17634959e-03 1.23376900e-03 3.41184251e-03 8.64942610e-01 9.98368502e-01 1.26167550e-04 1.30821456e-04 3.33450560e-04 6.61286950e-01 5.74473500e-01 5.76374054e-01 5.74995756e-01 5.75515687e-01 5.78135192e-01 5.82981288e-01 5.89785099e-01 5.98120928e-01 6.07459366e-01 6.17480218e-01 6.27857208e-01 6.38487995e-01 6.49928927e-01 6.63376331e-01 6.80474699e-01 7.03742802e-01 7.37157702e-01 7.85576642e-01 8.53297710e-01 9.24697638e-01 9.68000948e-01 9.82783020e-01 9.79939103e-01 9.76287544e-01 9.61691916e-01 9.90385056e-01 9.98627365e-01 1.87699174e-04 1.42702207e-04 2.39611734e-04 6.53842270e-01 5.60339749e-01 5.62113047e-01 5.60268641e-01 5.60330987e-01 5.62463284e-01 5.66749394e-01 5.72693884e-01 5.79470575e-01 5.86351812e-01 5.92999578e-01 5.98816991e-01 6.03463471e-01 6.07101023e-01 6.10336065e-01 6.14148021e-01 6.20104671e-01 6.30559802e-01 6.48296833e-01 6.75161362e-01 7.11779177e-01 7.60402799e-01 8.30801845e-01 8.45273793e-01 8.42773080e-01 8.61568034e-01 9.77352798e-01 9.97342527e-01 2.19205103e-04 1.70999978e-04 3.64324369e-04 6.43711805e-01 5.39008677e-01 5.39277196e-01 5.36562145e-01 5.36040843e-01 5.37764311e-01 5.41459739e-01 5.46323597e-01 5.51063180e-01 5.55046678e-01 5.57698667e-01 5.58164358e-01 5.55961668e-01 5.51031470e-01 5.43662131e-01 5.34510016e-01 5.24736404e-01 5.15996099e-01 5.09909391e-01 5.07111549e-01 5.06621838e-01 5.07800341e-01 5.16397119e-01 5.44808924e-01 6.06778145e-01 7.84506619e-01 9.73877847e-01 9.92657065e-01 2.56239902e-04 1.97809190e-04 5.19876485e-04 6.31558418e-01 5.11694908e-01 5.08867979e-01 5.05105436e-01 5.04133224e-01 5.05850077e-01 5.09528756e-01 5.13685822e-01 5.16931653e-01 5.18678725e-01 5.17910004e-01 5.13796210e-01 5.05922198e-01 4.94288862e-01 4.79270786e-01 4.61702198e-01 4.43004996e-01 4.25125360e-01 4.10129100e-01 3.99675012e-01 3.95204455e-01 4.00047988e-01 4.21603888e-01 4.82348710e-01 6.28433228e-01 8.66148412e-01 9.80092704e-01 9.66956496e-01 3.03560228e-04 2.26810313e-04 6.31045958e-04 6.18256927e-01 4.80476677e-01 4.72843617e-01 4.67545956e-01 4.66406196e-01 4.68858302e-01 4.73541290e-01 4.78034437e-01 4.81264710e-01 4.82022643e-01 4.79194999e-01 4.72205311e-01 4.60892826e-01 4.45522457e-01 4.26780909e-01 4.05861884e-01 3.84555817e-01 3.65174443e-01 3.50296825e-01 3.42660666e-01 3.45923483e-01 3.66251767e-01 4.16368335e-01 5.25748134e-01 7.27746189e-01 9.25734401e-01 9.80927825e-01 7.60643125e-01 3.48612288e-04 2.61988491e-04 7.99464586e-04 6.04874969e-01 4.47383285e-01 4.31945026e-01 4.24914628e-01 4.24024075e-01 4.28740770e-01 4.36006874e-01 4.42686766e-01 4.47499692e-01 4.48671848e-01 4.45322871e-01 4.37242091e-01 4.24659073e-01 4.08196121e-01 3.88875335e-01 3.68184119e-01 3.48144203e-01 3.31298470e-01 3.20689082e-01 3.20149928e-01 3.35316628e-01 3.75895232e-01 4.60475415e-01 6.17692351e-01 8.26372564e-01 9.50864017e-01 9.65862513e-01 1.10727623e-01 3.91966925e-04 3.05339374e-04 1.21526804e-03 5.93009949e-01 4.14822400e-01 3.91444504e-01 3.81764412e-01 3.79543155e-01 3.87349248e-01 3.99192661e-01 4.10169780e-01 4.17973399e-01 4.20769036e-01 4.18057501e-01 4.10153389e-01 3.97792995e-01 3.81998211e-01 3.64081234e-01 3.45722467e-01 3.29079270e-01 3.16911191e-01 3.12845170e-01 3.22044700e-01 3.52622241e-01 4.18587148e-01 5.41018188e-01 7.25198567e-01 8.92422140e-01 9.56706882e-01 8.49175930e-01 1.03563517e-02 4.69026709e-04 3.77772463e-04 2.64093815e-03 5.84600747e-01 3.85445297e-01 3.49715799e-01 3.35581243e-01 3.34941149e-01 3.46404552e-01 3.64992082e-01 3.82140011e-01 3.94057900e-01 3.99127215e-01 3.97525221e-01 3.90343934e-01 3.78952622e-01 3.64794612e-01 3.49423468e-01 3.34649473e-01 3.22750032e-01 3.16800237e-01 3.21251988e-01 3.42989147e-01 3.93240750e-01 4.88721758e-01 6.40945137e-01 8.14696610e-01 9.21894670e-01 9.35123444e-01 3.53893161e-01 3.45551199e-03 6.49080670e-04 5.66871313e-04 9.68817342e-03 5.81491470e-01 3.60940129e-01 3.06483388e-01 2.86111474e-01 2.88567692e-01 3.07028651e-01 3.34797442e-01 3.59660685e-01 3.76317531e-01 3.83554578e-01 3.82798702e-01 3.76265079e-01 3.66060495e-01 3.54018211e-01 3.41862947e-01 3.31490457e-01 3.25341940e-01 3.26992095e-01 3.41985822e-01 3.79152119e-01 4.52082098e-01 5.73861003e-01 7.33578444e-01 8.69852006e-01 9.25038338e-01 8.30355108e-01 7.67469555e-02 2.58177798e-03 1.02801202e-03 1.21704640e-03 5.07200845e-02 5.85792661e-01 3.42514217e-01 2.61306494e-01 2.33227640e-01 2.40984350e-01 2.70053357e-01 3.09551477e-01 3.43376428e-01 3.64673525e-01 3.73191297e-01 3.72433990e-01 3.66119832e-01 3.57084751e-01 3.47409606e-01 3.38865519e-01 3.33391666e-01 3.33676398e-01 3.43970895e-01 3.71042281e-01 4.25087541e-01 5.18118799e-01 6.55665815e-01 8.01137984e-01 8.91463816e-01 9.00505960e-01 5.88403285e-01 3.32088955e-02 3.38619854e-03 1.94768643e-03 3.78648192e-03 1.72940060e-01 5.99283040e-01 3.31107467e-01 2.13785410e-01 1.78346619e-01 1.93434611e-01 2.36269340e-01 2.90173322e-01 3.33734065e-01 3.58542711e-01 3.66709918e-01 3.64806920e-01 3.58263999e-01 3.50415647e-01 3.43308747e-01 3.38587165e-01 3.38199615e-01 3.45153362e-01 3.64396542e-01 4.03549671e-01 4.72315520e-01 5.80126405e-01 7.17897654e-01 8.34923804e-01 8.89198244e-01 8.44877720e-01 3.81996006e-01 3.13643105e-02 6.78899232e-03 5.03788842e-03 1.41092734e-02 3.06086004e-01 6.22180641e-01 3.27486366e-01 1.64932176e-01 1.25601694e-01 1.48247033e-01 2.06564337e-01 2.77707964e-01 3.30948651e-01 3.56786311e-01 3.62347305e-01 3.58227551e-01 3.51316065e-01 3.44917893e-01 3.40657800e-01 3.39871287e-01 3.44485313e-01 3.57799292e-01 3.85183752e-01 4.34116960e-01 5.13448536e-01 6.27789617e-01 7.50959337e-01 8.41464400e-01 8.68102610e-01 7.70439446e-01 3.16461027e-01 5.15597388e-02 1.79699864e-02 1.61349680e-02 4.46985215e-02 3.94923240e-01 6.51980281e-01 3.32343370e-01 1.18469447e-01 8.07752013e-02 1.08268648e-01 1.81830049e-01 2.73145974e-01 3.34586650e-01 3.57463926e-01 3.57909054e-01 3.50991040e-01 3.44126612e-01 3.39806169e-01 3.38833123e-01 3.42090696e-01 3.51420939e-01 3.70244116e-01 4.03887153e-01 4.59179968e-01 5.43910623e-01 6.53495729e-01 7.59313643e-01 8.27754498e-01 8.32698584e-01 7.05488145e-01 3.33408535e-01 1.01680703e-01 4.93349321e-02 4.66206968e-02 9.92281139e-02 4.51405406e-01 6.83080733e-01 3.46064359e-01 7.96193331e-02 4.78446819e-02 7.56585151e-02 1.62752017e-01 2.77178645e-01 3.42972189e-01 3.57654750e-01 3.50932002e-01 3.41512680e-01 3.35745066e-01 3.34466666e-01 3.37388366e-01 3.44867021e-01 3.58552366e-01 3.81743968e-01 4.19411123e-01 4.77744639e-01 5.60921788e-01 6.59794986e-01 7.49159873e-01 7.99939871e-01 7.87677407e-01 6.57364488e-01 3.76792163e-01 1.76026404e-01 1.06246181e-01 9.91571322e-02 1.63857430e-01 4.88702029e-01 7.07968354e-01 3.68752688e-01 5.17533496e-02 2.67831031e-02 5.09160720e-02 1.49532691e-01 2.89801300e-01 3.52710754e-01 3.53669196e-01 3.39082450e-01 3.28537285e-01 3.25392306e-01 3.28267843e-01 3.35772991e-01 3.47765118e-01 3.65591198e-01 3.92202526e-01 4.32012111e-01 4.89721894e-01 5.66353738e-01 6.52350187e-01 7.26416528e-01 7.63366878e-01 7.40964532e-01 6.24312699e-01 4.19030160e-01 2.52907693e-01 1.77783668e-01 1.65588185e-01 2.26558298e-01 5.16045928e-01 7.19116092e-01 3.99589628e-01 3.47663388e-02 1.46802813e-02 3.30463275e-02 1.41838372e-01 3.09265345e-01 3.58533859e-01 3.41744214e-01 3.20733696e-01 3.11349720e-01 3.12420249e-01 3.20394546e-01 3.33105713e-01 3.50061148e-01 3.72220844e-01 4.01941419e-01 4.42531258e-01 4.96808618e-01 5.64281225e-01 6.36800408e-01 6.97010458e-01 7.23808646e-01 6.99159980e-01 6.05693221e-01 4.57359314e-01 3.27775419e-01 2.57526010e-01 2.41064176e-01 2.89914191e-01 5.41600645e-01 7.09609270e-01 4.33822244e-01 2.66546644e-02 8.16639885e-03 2.04442237e-02 1.38924539e-01 3.30494702e-01 3.53850842e-01 3.19271773e-01 2.95665205e-01 2.89994210e-01 2.96327412e-01 3.09790432e-01 3.28079790e-01 3.50607336e-01 3.77887070e-01 4.11316633e-01 4.52545911e-01 5.02559245e-01 5.60144544e-01 6.19272709e-01 6.67210102e-01 6.87744796e-01 6.67573810e-01 6.00712121e-01 4.98690426e-01 4.02671725e-01 3.42896760e-01 3.23958486e-01 3.57663631e-01 5.69795191e-01 6.73234940e-01 4.58315253e-01 2.64024828e-02 4.80147591e-03 1.17812958e-02 1.37752116e-01 3.43364835e-01 3.32871526e-01 2.86861569e-01 2.65967458e-01 2.65660286e-01 2.77024150e-01 2.95363098e-01 3.19039434e-01 3.47681880e-01 3.81346703e-01 4.20205772e-01 4.63937402e-01 5.11497498e-01 5.60889006e-01 6.08132064e-01 6.45636737e-01 6.62996531e-01 6.51499569e-01 6.09334528e-01 5.44449508e-01 4.77241009e-01 4.28958774e-01 4.08226818e-01 4.26608115e-01 5.99547625e-01 6.13017976e-01 4.42671925e-01 3.78012918e-02 3.12027126e-03 6.28908956e-03 1.30432174e-01 3.35723788e-01 2.97651827e-01 2.51814902e-01 2.37236917e-01 2.41210774e-01 2.55129218e-01 2.76016653e-01 3.03539366e-01 3.37945551e-01 3.79098743e-01 4.26135808e-01 4.76964772e-01 5.28328776e-01 5.76630235e-01 6.18434548e-01 6.49774432e-01 6.65666759e-01 6.61702275e-01 6.36765182e-01 5.95128953e-01 5.46926081e-01 5.05903363e-01 4.82263058e-01 4.87426698e-01 6.26270235e-01 6.14998341e-01 3.80015969e-01 7.06708655e-02 2.12849304e-03 3.40129784e-03 1.05448566e-01 3.10579091e-01 2.62644023e-01 2.21881911e-01 2.09729105e-01 2.12464318e-01 2.24425316e-01 2.44934544e-01 2.75033206e-01 3.15854371e-01 3.67739826e-01 4.29397732e-01 4.97454405e-01 5.66643596e-01 6.29783452e-01 6.79865122e-01 7.12806046e-01 7.26811707e-01 7.21104383e-01 6.96188748e-01 6.55578256e-01 6.06761098e-01 5.60468078e-01 5.28939664e-01 5.25017083e-01 6.44989192e-01 7.30847955e-01 6.07851982e-01 3.18326354e-01 1.11171314e-02 5.49529539e-03 2.33544976e-01 5.63996911e-01 5.05340576e-01 4.56692666e-01 4.34651643e-01 4.29318547e-01 4.35487926e-01 4.51369166e-01 4.76094604e-01 5.08696556e-01 5.47601640e-01 5.90509474e-01 6.34649158e-01 6.76834524e-01 7.13796675e-01 7.42834866e-01 7.62133896e-01 7.70559192e-01 7.67552733e-01 7.53438771e-01 7.29864001e-01 7.00451672e-01 6.71252072e-01 6.49698913e-01 6.41500831e-01 6.80671990e-01 
