# vtk DataFile Version 2.0
results_case1_non_linear/iter8.vtk, Created by Freefem++ 
ASCII
DATASET UNSTRUCTURED_GRID
POINTS 961 float
0 0 0
0.033333333 0 0
0.066666667 0 0
0.1 0 0
0.13333333 0 0
0.16666667 0 0
0.2 0 0
0.23333333 0 0
0.26666667 0 0
0.3 0 0
0.33333333 0 0
0.36666667 0 0
0.4 0 0
0.43333333 0 0
0.46666667 0 0
0.5 0 0
0.53333333 0 0
0.56666667 0 0
0.6 0 0
0.63333333 0 0
0.66666667 0 0
0.7 0 0
0.73333333 0 0
0.76666667 0 0
0.8 0 0
0.83333333 0 0
0.86666667 0 0
0.9 0 0
0.93333333 0 0
0.96666667 0 0
1 0 0
0 0.033333333 0
0.033333333 0.033333333 0
0.066666667 0.033333333 0
0.1 0.033333333 0
0.13333333 0.033333333 0
0.16666667 0.033333333 0
0.2 0.033333333 0
0.23333333 0.033333333 0
0.26666667 0.033333333 0
0.3 0.033333333 0
0.33333333 0.033333333 0
0.36666667 0.033333333 0
0.4 0.033333333 0
0.43333333 0.033333333 0
0.46666667 0.033333333 0
0.5 0.033333333 0
0.53333333 0.033333333 0
0.56666667 0.033333333 0
0.6 0.033333333 0
0.63333333 0.033333333 0
0.66666667 0.033333333 0
0.7 0.033333333 0
0.73333333 0.033333333 0
0.76666667 0.033333333 0
0.8 0.033333333 0
0.83333333 0.033333333 0
0.86666667 0.033333333 0
0.9 0.033333333 0
0.93333333 0.033333333 0
0.96666667 0.033333333 0
1 0.033333333 0
0 0.066666667 0
0.033333333 0.066666667 0
0.066666667 0.066666667 0
0.1 0.066666667 0
0.13333333 0.066666667 0
0.16666667 0.066666667 0
0.2 0.066666667 0
0.23333333 0.066666667 0
0.26666667 0.066666667 0
0.3 0.066666667 0
0.33333333 0.066666667 0
0.36666667 0.066666667 0
0.4 0.066666667 0
0.43333333 0.066666667 0
0.46666667 0.066666667 0
0.5 0.066666667 0
0.53333333 0.066666667 0
0.56666667 0.066666667 0
0.6 0.066666667 0
0.63333333 0.066666667 0
0.66666667 0.066666667 0
0.7 0.066666667 0
0.73333333 0.066666667 0
0.76666667 0.066666667 0
0.8 0.066666667 0
0.83333333 0.066666667 0
0.86666667 0.066666667 0
0.9 0.066666667 0
0.93333333 0.066666667 0
0.96666667 0.066666667 0
1 0.066666667 0
0 0.1 0
0.033333333 0.1 0
0.066666667 0.1 0
0.1 0.1 0
0.13333333 0.1 0
0.16666667 0.1 0
0.2 0.1 0
0.23333333 0.1 0
0.26666667 0.1 0
0.3 0.1 0
0.33333333 0.1 0
0.36666667 0.1 0
0.4 0.1 0
0.43333333 0.1 0
0.46666667 0.1 0
0.5 0.1 0
0.53333333 0.1 0
0.56666667 0.1 0
0.6 0.1 0
0.63333333 0.1 0
0.66666667 0.1 0
0.7 0.1 0
0.73333333 0.1 0
0.76666667 0.1 0
0.8 0.1 0
0.83333333 0.1 0
0.86666667 0.1 0
0.9 0.1 0
0.93333333 0.1 0
0.96666667 0.1 0
1 0.1 0
0 0.13333333 0
0.033333333 0.13333333 0
0.066666667 0.13333333 0
0.1 0.13333333 0
0.13333333 0.13333333 0
0.16666667 0.13333333 0
0.2 0.13333333 0
0.23333333 0.13333333 0
0.26666667 0.13333333 0
0.3 0.13333333 0
0.33333333 0.13333333 0
0.36666667 0.13333333 0
0.4 0.13333333 0
0.43333333 0.13333333 0
0.46666667 0.13333333 0
0.5 0.13333333 0
0.53333333 0.13333333 0
0.56666667 0.13333333 0
0.6 0.13333333 0
0.63333333 0.13333333 0
0.66666667 0.13333333 0
0.7 0.13333333 0
0.73333333 0.13333333 0
0.76666667 0.13333333 0
0.8 0.13333333 0
0.83333333 0.13333333 0
0.86666667 0.13333333 0
0.9 0.13333333 0
0.93333333 0.13333333 0
0.96666667 0.13333333 0
1 0.13333333 0
0 0.16666667 0
0.033333333 0.16666667 0
0.066666667 0.16666667 0
0.1 0.16666667 0
0.13333333 0.16666667 0
0.16666667 0.16666667 0
0.2 0.16666667 0
0.23333333 0.16666667 0
0.26666667 0.16666667 0
0.3 0.16666667 0
0.33333333 0.16666667 0
0.36666667 0.16666667 0
0.4 0.16666667 0
0.43333333 0.16666667 0
0.46666667 0.16666667 0
0.5 0.16666667 0
0.53333333 0.16666667 0
0.56666667 0.16666667 0
0.6 0.16666667 0
0.63333333 0.16666667 0
0.66666667 0.16666667 0
0.7 0.16666667 0
0.73333333 0.16666667 0
0.76666667 0.16666667 0
0.8 0.16666667 0
0.83333333 0.16666667 0
0.86666667 0.16666667 0
0.9 0.16666667 0
0.93333333 0.16666667 0
0.96666667 0.16666667 0
1 0.16666667 0
0 0.2 0
0.033333333 0.2 0
0.066666667 0.2 0
0.1 0.2 0
0.13333333 0.2 0
0.16666667 0.2 0
0.2 0.2 0
0.23333333 0.2 0
0.26666667 0.2 0
0.3 0.2 0
0.33333333 0.2 0
0.36666667 0.2 0
0.4 0.2 0
0.43333333 0.2 0
0.46666667 0.2 0
0.5 0.2 0
0.53333333 0.2 0
0.56666667 0.2 0
0.6 0.2 0
0.63333333 0.2 0
0.66666667 0.2 0
0.7 0.2 0
0.73333333 0.2 0
0.76666667 0.2 0
0.8 0.2 0
0.83333333 0.2 0
0.86666667 0.2 0
0.9 0.2 0
0.93333333 0.2 0
0.96666667 0.2 0
1 0.2 0
0 0.23333333 0
0.033333333 0.23333333 0
0.066666667 0.23333333 0
0.1 0.23333333 0
0.13333333 0.23333333 0
0.16666667 0.23333333 0
0.2 0.23333333 0
0.23333333 0.23333333 0
0.26666667 0.23333333 0
0.3 0.23333333 0
0.33333333 0.23333333 0
0.36666667 0.23333333 0
0.4 0.23333333 0
0.43333333 0.23333333 0
0.46666667 0.23333333 0
0.5 0.23333333 0
0.53333333 0.23333333 0
0.56666667 0.23333333 0
0.6 0.23333333 0
0.63333333 0.23333333 0
0.66666667 0.23333333 0
0.7 0.23333333 0
0.73333333 0.23333333 0
0.76666667 0.23333333 0
0.8 0.23333333 0
0.83333333 0.23333333 0
0.86666667 0.23333333 0
0.9 0.23333333 0
0.93333333 0.23333333 0
0.96666667 0.23333333 0
1 0.23333333 0
0 0.26666667 0
0.033333333 0.26666667 0
0.066666667 0.26666667 0
0.1 0.26666667 0
0.13333333 0.26666667 0
0.16666667 0.26666667 0
0.2 0.26666667 0
0.23333333 0.26666667 0
0.26666667 0.26666667 0
0.3 0.26666667 0
0.33333333 0.26666667 0
0.36666667 0.26666667 0
0.4 0.26666667 0
0.43333333 0.26666667 0
0.46666667 0.26666667 0
0.5 0.26666667 0
0.53333333 0.26666667 0
0.56666667 0.26666667 0
0.6 0.26666667 0
0.63333333 0.26666667 0
0.66666667 0.26666667 0
0.7 0.26666667 0
0.73333333 0.26666667 0
0.76666667 0.26666667 0
0.8 0.26666667 0
0.83333333 0.26666667 0
0.86666667 0.26666667 0
0.9 0.26666667 0
0.93333333 0.26666667 0
0.96666667 0.26666667 0
1 0.26666667 0
0 0.3 0
0.033333333 0.3 0
0.066666667 0.3 0
0.1 0.3 0
0.13333333 0.3 0
0.16666667 0.3 0
0.2 0.3 0
0.23333333 0.3 0
0.26666667 0.3 0
0.3 0.3 0
0.33333333 0.3 0
0.36666667 0.3 0
0.4 0.3 0
0.43333333 0.3 0
0.46666667 0.3 0
0.5 0.3 0
0.53333333 0.3 0
0.56666667 0.3 0
0.6 0.3 0
0.63333333 0.3 0
0.66666667 0.3 0
0.7 0.3 0
0.73333333 0.3 0
0.76666667 0.3 0
0.8 0.3 0
0.83333333 0.3 0
0.86666667 0.3 0
0.9 0.3 0
0.93333333 0.3 0
0.96666667 0.3 0
1 0.3 0
0 0.33333333 0
0.033333333 0.33333333 0
0.066666667 0.33333333 0
0.1 0.33333333 0
0.13333333 0.33333333 0
0.16666667 0.33333333 0
0.2 0.33333333 0
0.23333333 0.33333333 0
0.26666667 0.33333333 0
0.3 0.33333333 0
0.33333333 0.33333333 0
0.36666667 0.33333333 0
0.4 0.33333333 0
0.43333333 0.33333333 0
0.46666667 0.33333333 0
0.5 0.33333333 0
0.53333333 0.33333333 0
0.56666667 0.33333333 0
0.6 0.33333333 0
0.63333333 0.33333333 0
0.66666667 0.33333333 0
0.7 0.33333333 0
0.73333333 0.33333333 0
0.76666667 0.33333333 0
0.8 0.33333333 0
0.83333333 0.33333333 0
0.86666667 0.33333333 0
0.9 0.33333333 0
0.93333333 0.33333333 0
0.96666667 0.33333333 0
1 0.33333333 0
0 0.36666667 0
0.033333333 0.36666667 0
0.066666667 0.36666667 0
0.1 0.36666667 0
0.13333333 0.36666667 0
0.16666667 0.36666667 0
0.2 0.36666667 0
0.23333333 0.36666667 0
0.26666667 0.36666667 0
0.3 0.36666667 0
0.33333333 0.36666667 0
0.36666667 0.36666667 0
0.4 0.36666667 0
0.43333333 0.36666667 0
0.46666667 0.36666667 0
0.5 0.36666667 0
0.53333333 0.36666667 0
0.56666667 0.36666667 0
0.6 0.36666667 0
0.63333333 0.36666667 0
0.66666667 0.36666667 0
0.7 0.36666667 0
0.73333333 0.36666667 0
0.76666667 0.36666667 0
0.8 0.36666667 0
0.83333333 0.36666667 0
0.86666667 0.36666667 0
0.9 0.36666667 0
0.93333333 0.36666667 0
0.96666667 0.36666667 0
1 0.36666667 0
0 0.4 0
0.033333333 0.4 0
0.066666667 0.4 0
0.1 0.4 0
0.13333333 0.4 0
0.16666667 0.4 0
0.2 0.4 0
0.23333333 0.4 0
0.26666667 0.4 0
0.3 0.4 0
0.33333333 0.4 0
0.36666667 0.4 0
0.4 0.4 0
0.43333333 0.4 0
0.46666667 0.4 0
0.5 0.4 0
0.53333333 0.4 0
0.56666667 0.4 0
0.6 0.4 0
0.63333333 0.4 0
0.66666667 0.4 0
0.7 0.4 0
0.73333333 0.4 0
0.76666667 0.4 0
0.8 0.4 0
0.83333333 0.4 0
0.86666667 0.4 0
0.9 0.4 0
0.93333333 0.4 0
0.96666667 0.4 0
1 0.4 0
0 0.43333333 0
0.033333333 0.43333333 0
0.066666667 0.43333333 0
0.1 0.43333333 0
0.13333333 0.43333333 0
0.16666667 0.43333333 0
0.2 0.43333333 0
0.23333333 0.43333333 0
0.26666667 0.43333333 0
0.3 0.43333333 0
0.33333333 0.43333333 0
0.36666667 0.43333333 0
0.4 0.43333333 0
0.43333333 0.43333333 0
0.46666667 0.43333333 0
0.5 0.43333333 0
0.53333333 0.43333333 0
0.56666667 0.43333333 0
0.6 0.43333333 0
0.63333333 0.43333333 0
0.66666667 0.43333333 0
0.7 0.43333333 0
0.73333333 0.43333333 0
0.76666667 0.43333333 0
0.8 0.43333333 0
0.83333333 0.43333333 0
0.86666667 0.43333333 0
0.9 0.43333333 0
0.93333333 0.43333333 0
0.96666667 0.43333333 0
1 0.43333333 0
0 0.46666667 0
0.033333333 0.46666667 0
0.066666667 0.46666667 0
0.1 0.46666667 0
0.13333333 0.46666667 0
0.16666667 0.46666667 0
0.2 0.46666667 0
0.23333333 0.46666667 0
0.26666667 0.46666667 0
0.3 0.46666667 0
0.33333333 0.46666667 0
0.36666667 0.46666667 0
0.4 0.46666667 0
0.43333333 0.46666667 0
0.46666667 0.46666667 0
0.5 0.46666667 0
0.53333333 0.46666667 0
0.56666667 0.46666667 0
0.6 0.46666667 0
0.63333333 0.46666667 0
0.66666667 0.46666667 0
0.7 0.46666667 0
0.73333333 0.46666667 0
0.76666667 0.46666667 0
0.8 0.46666667 0
0.83333333 0.46666667 0
0.86666667 0.46666667 0
0.9 0.46666667 0
0.93333333 0.46666667 0
0.96666667 0.46666667 0
1 0.46666667 0
0 0.5 0
0.033333333 0.5 0
0.066666667 0.5 0
0.1 0.5 0
0.13333333 0.5 0
0.16666667 0.5 0
0.2 0.5 0
0.23333333 0.5 0
0.26666667 0.5 0
0.3 0.5 0
0.33333333 0.5 0
0.36666667 0.5 0
0.4 0.5 0
0.43333333 0.5 0
0.46666667 0.5 0
0.5 0.5 0
0.53333333 0.5 0
0.56666667 0.5 0
0.6 0.5 0
0.63333333 0.5 0
0.66666667 0.5 0
0.7 0.5 0
0.73333333 0.5 0
0.76666667 0.5 0
0.8 0.5 0
0.83333333 0.5 0
0.86666667 0.5 0
0.9 0.5 0
0.93333333 0.5 0
0.96666667 0.5 0
1 0.5 0
0 0.53333333 0
0.033333333 0.53333333 0
0.066666667 0.53333333 0
0.1 0.53333333 0
0.13333333 0.53333333 0
0.16666667 0.53333333 0
0.2 0.53333333 0
0.23333333 0.53333333 0
0.26666667 0.53333333 0
0.3 0.53333333 0
0.33333333 0.53333333 0
0.36666667 0.53333333 0
0.4 0.53333333 0
0.43333333 0.53333333 0
0.46666667 0.53333333 0
0.5 0.53333333 0
0.53333333 0.53333333 0
0.56666667 0.53333333 0
0.6 0.53333333 0
0.63333333 0.53333333 0
0.66666667 0.53333333 0
0.7 0.53333333 0
0.73333333 0.53333333 0
0.76666667 0.53333333 0
[...]
CELL_DATA 1920
Scalars  Label int 1
LOOKUP_TABLE FreeFempp_table
0
0
0
0
0
0
0
0
0
0
0
0
0
0
0
0
0
0
0
0
0
0
0
0
0
0
0
0
0
0
0
0
0
0
0
0
0
0
0
0
0
0
0
0
0
0
0
0
0
0
0
0
0
0
0
0
0
0
0
0
0
0
0
0
0
0
0
0
0
0
0
0
0
0
0
0
0
0
0
0
0
0
0
0
0
0
0
0
0
0
0
0
0
0
0
0
0
0
0
0
0
0
0
0
0
0
0
0
0
0
0
0
0
0
0
0
0
0
0
0
0
0
0
0
0
0
0
0
0
0
0
0
0
0
0
0
0
0
0
0
0
0
0
0
0
0
0
0
0
0
0
0
0
0
0
0
0
0
0
0
0
0
0
0
0
0
0
0
0
0
0
0
0
0
0
0
0
0
0
0
0
0
0
0
0
0
0
0
0
0
0
0
0
0
0
0
0
0
0
0
0
0
0
0
0
0
0
0
0
0
0
0
0
0
0
0
0
0
0
0
0
0
0
0
0
0
0
0
0
0
0
0
0
0
0
0
0
0
0
0
0
0
0
0
0
0
0
0
0
0
0
0
0
0
0
0
0
0
0
0
0
0
0
0
0
0
0
0
0
0
0
0
0
0
0
0
0
0
0
0
0
0
0
0
0
0
0
0
0
0
0
0
0
0
0
0
0
0
0
0
0
0
0
0
0
0
0
0
0
0
0
0
0
0
0
0
0
0
0
0
0
0
0
0
0
0
0
0
0
0
0
0
0
0
0
0
0
0
0
0
0
0
0
0
0
0
0
0
0
0
0
0
0
0
0
0
0
0
0
0
0
0
0
0
0
0
0
0
0
0
0
0
0
0
0
0
0
0
0
0
0
0
0
0
0
0
0
0
0
0
0
0
0
0
0
0
0
0
0
0
0
0
0
0
0
0
0
0
0
0
0
0
0
0
0
0
0
0
0
0
0
0
0
0
0
0
0
0
0
0
0
0
0
0
0
0
0
0
0
0
0
0
0
0
0
0
0
0
0
0
0
0
0
0
0
0
0
0
0
0
0
0
0
0
0
0
0
0
0
0
0
0
0
0
0
0
0
0
0
0
0
0
0
0
0
0
0
0
0
0
0
0
0
0
0
0
0
0
0
0
0
0
0
0
0
0
0
0
0
0
0
0
0
0
0
0
0
0
0
0
0
0
0
0
0
0
0
0
0
0
0
0
0
0
0
0
0
0
0
0
0
0
0
0
0
0
0
0
0
0
0
0
0
0
0
0
0
0
0
0
0
0
0
0
0
0
0
0
0
0
0
0
0
0
0
0
0
0
0
0
0
0
0
0
0
0
0
0
0
0
0
0
0
0
0
0
0
0
0
0
0
0
0
0
0
0
0
0
0
0
0
0
0
0
0
0
0
0
0
0
0
0
0
0
0
0
0
0
0
0
0
0
0
0
0
0
0
0
0
0
0
0
0
0
0
0
0
0
0
0
0
0
0
0
0
0
0
0
0
0
0
0
0
0
0
0
0
0
0
0
0
0
0
0
0
0
0
0
0
0
0
0
0
0
0
0
0
0
0
0
0
0
0
0
0
0
0
0
0
0
0
0
0
0
0
0
0
0
0
0
0
0
0
0
0
0
0
0
0
0
0
0
0
0
0
0
0
0
0
0
0
0
0
0
0
0
0
0
0
0
0
0
0
0
0
0
0
0
0
0
0
0
0
0
0
0
0
0
0
0
0
0
0
0
0
0
0
0
0
0
0
0
0
0
0
0
0
0
0
0
0
0
0
0
0
0
0
0
0
0
0
0
0
0
0
0
0
0
0
0
0
0
0
0
0
0
0
0
0
0
0
0
0
0
0
0
0
0
0
0
0
0
0
0
0
0
0
0
0
0
0
0
0
0
0
0
0
0
0
0
0
0
0
0
0
0
0
0
0
0
0
0
0
0
0
0
0
0
0
0
0
0
0
0
0
0
0
0
0
0
0
0
0
0
0
0
0
0
0
0
0
0
0
0
0
0
0
0
0
0
0
0
0
0
0
0
0
0
0
0
0
0
0
0
0
0
0
0
0
0
0
0
0
0
0
0
0
0
0
0
0
0
0
0
0
0
0
0
0
0
0
0
0
0
0
0
0
0
0
0
0
0
0
0
0
0
0
0
0
0
0
0
0
0
0
0
0
0
0
0
0
0
0
0
0
0
0
0
0
0
0
0
0
0
0
0
0
0
0
0
0
0
0
0
0
0
0
0
0
0
0
0
0
0
0
0
0
0
0
0
0
0
0
0
0
0
0
0
0
0
0
0
0
0
0
0
0
0
0
0
0
0
0
0
0
0
0
0
0
0
0
0
0
0
0
0
0
0
0
0
0
0
0
0
0
0
0
0
0
0
0
0
0
0
0
0
0
0
0
0
0
0
0
0
0
0
0
0
0
0
0
0
0
0
0
0
0
0
0
0
0
0
0
0
0
0
0
0
0
0
0
0
0
0
0
0
0
0
0
0
0
0
0
0
0
0
0
0
0
0
0
0
0
0
0
0
0
0
0
0
0
0
0
0
0
0
0
0
0
0
0
0
0
0
0
0
0
0
0
0
0
0
0
0
0
0
0
0
0
0
0
0
0
0
0
0
0
0
0
0
0
0
0
0
0
0
0
0
0
0
0
0
0
0
0
0
0
0
0
0
0
0
0
0
0
0
0
0
0
0
0
0
0
0
0
0
0
0
0
0
0
0
0
0
0
0
0
0
0
0
0
0
0
0
0
0
0
0
0
0
0
0
0
0
0
0
0
0
0
0
0
0
0
0
0
0
0
0
0
0
0
0
0
0
0
0
0
0
0
0
0
0
0
0
0
0
0
0
0
0
0
0
0
0
0
0
0
0
0
0
0
0
0
0
0
0
0
0
0
0
0
0
0
0
0
0
0
0
0
0
0
0
0
0
0
0
0
0
0
0
0
0
0
0
0
0
0
0
0
0
0
0
0
0
0
0
0
0
0
0
0
0
0
0
0
0
0
0
0
0
0
0
0
0
0
0
0
0
0
0
0
0
0
0
0
0
0
0
0
0
0
0
0
0
0
0
0
0
0
0
0
0
0
0
0
0
0
0
0
0
0
0
0
0
0
0
0
0
0
0
0
0
0
0
0
0
0
0
0
0
0
0
0
0
0
0
0
0
0
0
0
0
0
0
0
0
0
0
0
0
0
0
0
0
0
0
0
0
0
0
0
0
0
0
0
0
0
0
0
0
0
0
0
0
0
0
0
0
0
0
0
0
0
0
0
0
0
0
0
0
0
0
0
0
0
0
0
0
0
0
0
0
0
0
0
0
0
0
0
0
0
0
0
0
0
0
0
0
0
0
0
0
0
0
0
0
0
0
0
0
0
0
0
0
0
0
0
0
0
0
0
0
0
0
0
0
0
0
0
0
0
0
0
0
0
0
0
0
0
0
0
0
0
0
0
0
0
0
0
0
0
0
0
0
0
0
0
0
0
0
0
0
0
0
0
0
0
0
0
0
0
0
0
0
0
0
0
0
0
0
0
0
0
0
0
0
0
0
0
0
0
0
0
0
0
0
0
0
0
0
0
0
0
0
0
0
0
0
0
0
0
0
0
0
0
0
0
0
0
0
0
0
0
0
0
0
0
0
0
0
0
0
0
0
0
0
0
0
0
0
0
0
0
0
0
0
0
0
0
0
0
0
0
0
0
0
0
0
0
0
0
0
0
0
0
0
0
0
0
0
0
0
0
0
0
0
0
0
0
0
0
0
0
0
0
0
0
0
0
0
0
0
0
0
0
0
0
0
0
0
0
0
0
0
0
0
0
0
0
0
0
0
0
0
0
0
0
0
0
0
0
0
0
0
0
0
0
0
0
0
0
0
0
0
0
0
0
0
0
0
0
0
0
0
0
0
0
0
0
0
0
0
0
0
0
0
0
0
0
0
0
0
0
0
0
0
0
0
0
0
0
0
0
0
0
0
0
0
0
0
0
0
0
0
0
0
0
0
0
0
0
0
0
0
0
0
0
0
0
0
0
0
0
0
0
0
0
0
0
0
0
0
0
0
0
0
0
0
0
0
1
1
1
1
1
1
1
1
1
1
1
1
1
1
1
1
1
1
1
1
1
1
1
1
1
1
1
1
1
1
2
2
2
2
2
2
2
2
2
2
2
2
2
2
2
2
2
2
2
2
2
2
2
2
2
2
2
2
2
2
3
3
3
3
3
3
3
3
3
3
3
3
3
3
3
3
3
3
3
3
3
3
3
3
3
3
3
3
3
3
4
4
4
4
4
4
4
4
4
4
4
4
4
4
4
4
4
4
4
4
4
4
4
4
4
4
4
4
4
4

LOOKUP_TABLE FreeFempp_table 5
1.00000000 0.00000000 0.00000000 1.00000000
1.00000000 1.00000000 0.00000000 1.00000000
1.00000000 0.00000000 1.00000000 1.00000000
0.00000000 1.00000000 0.00000000 1.00000000
0.00000000 1.00000000 1.00000000 1.00000000

POINT_DATA 961
FIELD FieldData 1
Density 1 961 float
3.32274616e-01 1.18098460e-01 3.44356775e-01 5.90914905e-01 6.29972517e-01 6.29501045e-01 6.21632516e-01 6.10853016e-01 5.99681020e-01 5.95859528e-01 5.62651634e-01 1.53773539e-02 1.40535834e-04 1.32476838e-04 8.90580297e-04 9.93126214e-01 9.96943891e-01 9.91957664e-01 9.83270049e-01 9.86886978e-01 9.85231400e-01 9.82997239e-01 9.79402125e-01 9.75417852e-01 9.72121179e-01 9.69275713e-01 9.66943800e-01 9.65057850e-01 9.63793397e-01 9.61396635e-01 9.70083117e-01 1.03286118e-04 1.02723956e-04 1.79690134e-04 5.44552766e-02 9.88074020e-02 9.88333300e-02 9.76192057e-02 9.59703550e-02 9.45632905e-02 9.50172991e-02 8.30937847e-02 1.14502208e-02 1.82101503e-04 1.20220226e-04 1.66395024e-04 9.60928380e-01 9.90758777e-01 6.37199879e-01 7.04044163e-01 9.86796379e-01 9.88473058e-01 9.86635029e-01 9.84811425e-01 9.79541779e-01 9.70829606e-01 9.61252809e-01 9.51714039e-01 9.43203986e-01 9.36641395e-01 9.27411675e-01 9.58719075e-01 1.04666076e-04 1.01627251e-04 1.01752041e-04 1.02351551e-04 1.01989695e-04 1.01914251e-04 1.02019672e-04 1.01997481e-04 1.01929516e-04 1.01992860e-04 1.02389196e-04 1.02886836e-04 1.02995844e-04 1.03046412e-04 1.02538790e-04 1.90525036e-03 9.99699652e-01 1.04061837e-04 2.56779051e-04 3.06926668e-04 6.42015541e-04 8.90703440e-01 9.67769623e-01 9.77186382e-01 9.68028069e-01 9.41770852e-01 9.12666976e-01 8.89882922e-01 8.74027312e-01 8.52926254e-01 9.46520627e-01 6.74975038e-01 2.35120626e-03 1.03079779e-04 1.02696082e-04 1.02115679e-04 1.01907703e-04 1.01958336e-04 1.02019789e-04 1.01941994e-04 1.01924743e-04 1.02120488e-04 1.02672740e-04 1.02987353e-04 1.03117156e-04 1.01642916e-04 1.01470563e-04 1.38385466e-03 9.99991655e-01 2.14371117e-04 1.21997851e-04 1.14954797e-04 1.10505280e-04 1.11443216e-04 1.13386137e-04 7.34740734e-01 8.43417108e-01 7.58880556e-01 6.86905205e-01 6.59181237e-01 6.34650528e-01 9.16262984e-01 8.52658749e-01 2.97672689e-01 2.74176717e-01 2.87590384e-01 2.88717896e-01 2.85848975e-01 2.84539402e-01 2.81614304e-01 2.74302840e-01 2.58439213e-01 2.38321066e-01 2.31979623e-01 2.76674271e-01 2.03164387e-02 6.55224954e-04 1.01378617e-04 1.01374040e-04 1.70220766e-04 9.99988317e-01 4.25119069e-04 1.25579769e-04 1.14913761e-04 1.11160480e-04 1.06606654e-04 1.04707295e-04 1.77920498e-02 3.33717585e-01 3.36934954e-01 3.24564993e-01 3.43864858e-01 8.59972239e-01 8.99927557e-01 5.32461882e-01 5.12678921e-01 5.23592055e-01 5.26243150e-01 5.22736251e-01 5.15307426e-01 5.04433870e-01 4.89274710e-01 4.69406068e-01 4.44502085e-01 4.11165655e-01 3.77558112e-01 3.45588923e-01 2.70475417e-01 1.12679541e-01 1.01352205e-04 1.01638165e-04 1.03236067e-04 9.99920845e-01 4.66674827e-02 9.88465190e-01 9.93295908e-01 2.69622018e-04 1.03341838e-04 1.02369508e-04 3.55129642e-03 1.41684622e-01 1.67512983e-01 1.89562261e-01 7.89102674e-01 9.24360394e-01 7.15224445e-01 7.06517398e-01 6.93291605e-01 6.88210309e-01 6.83172166e-01 6.76858544e-01 6.69706523e-01 6.62294924e-01 6.55012727e-01 6.47305310e-01 6.35317266e-01 6.13292813e-01 5.89504778e-01 5.63490331e-01 5.03543496e-01 3.55656534e-01 1.02745609e-04 1.02127393e-04 1.02284052e-04 9.99536693e-01 9.98694599e-01 9.96599555e-01 9.96016741e-01 9.99812186e-01 1.01525387e-04 1.01748556e-04 9.82520171e-04 1.68488398e-01 1.52469814e-01 7.37409234e-01 9.37542975e-01 8.09297800e-01 8.15278232e-01 8.02064359e-01 7.93733478e-01 7.88096607e-01 7.84708440e-01 7.83734500e-01 7.85539031e-01 7.90192842e-01 7.96949625e-01 8.03644359e-01 8.07659030e-01 8.10280263e-01 8.16734016e-01 8.23383510e-01 8.33559811e-01 7.85907567e-01 2.33753701e-04 1.02661652e-04 1.02969374e-04 1.07474436e-04 1.09510111e-04 3.97981377e-04 2.87175532e-02 9.99960065e-01 1.03188511e-04 1.02945502e-04 3.41757288e-04 1.01125553e-01 7.20226169e-01 9.42554832e-01 8.45877290e-01 8.53930235e-01 8.43280673e-01 8.36205721e-01 8.31697822e-01 8.30405533e-01 8.32554817e-01 8.38256121e-01 8.47214997e-01 8.58430922e-01 8.70405495e-01 8.82078648e-01 8.94106269e-01 9.08228815e-01 9.24505055e-01 9.42077696e-01 9.61561322e-01 9.72926140e-01 2.66348943e-02 1.04695726e-04 1.06299944e-04 1.05583735e-04 1.07677668e-04 1.24402126e-04 1.55617337e-04 9.99987364e-01 1.03054859e-04 1.02791761e-04 1.76015659e-04 1.24987366e-03 9.40280974e-01 8.40309978e-01 8.45490217e-01 8.33914101e-01 8.25923979e-01 8.21349084e-01 8.20953846e-01 8.24864089e-01 8.32685173e-01 8.43426108e-01 8.55960906e-01 8.69035602e-01 8.81985962e-01 8.95418525e-01 9.10490632e-01 9.27452207e-01 9.45688009e-01 9.63266790e-01 9.77744520e-01 9.81959879e-01 9.80632305e-01 1.43030673e-01 6.79919904e-04 1.16582029e-04 1.18662465e-04 1.25152292e-04 1.26631116e-04 9.99960423e-01 1.03106227e-04 1.04195038e-04 1.39416836e-04 9.30794597e-01 7.89731503e-01 7.83991337e-01 7.65538573e-01 7.53894210e-01 7.49094248e-01 7.50859559e-01 7.57896364e-01 7.68615961e-01 7.81241655e-01 7.94416368e-01 8.06870699e-01 8.18054080e-01 8.28941166e-01 8.41650784e-01 8.58413100e-01 8.81283224e-01 9.10780370e-01 9.42550838e-01 9.67188179e-01 9.76918161e-01 9.71045256e-01 9.47303712e-01 9.12667513e-01 6.89547241e-01 5.18196030e-04 1.13854883e-04 9.99329567e-01 1.31564244e-04 1.07967375e-04 1.17219213e-04 9.14955020e-01 6.78791523e-01 6.38353944e-01 6.05782092e-01 5.91022551e-01 5.91860950e-01 6.03514910e-01 6.20631516e-01 6.38761878e-01 6.55014098e-01 6.68012202e-01 6.75912142e-01 6.77729666e-01 6.74109638e-01 6.67388260e-01 6.61693096e-01 6.64110661e-01 6.85222566e-01 7.34715343e-01 8.08864534e-01 8.83226693e-01 9.36741233e-01 9.65754449e-01 9.65761185e-01 9.56705928e-01 9.47525561e-01 9.13719773e-01 9.99905527e-01 1.35244292e-04 1.18826072e-04 1.40045799e-04 8.97040486e-01 5.09650111e-01 4.01502430e-01 3.59034687e-01 3.52650166e-01 3.71789545e-01 4.04869676e-01 4.42046523e-01 4.75407451e-01 5.01437724e-01 5.18214047e-01 5.23512661e-01 5.16300023e-01 4.97165143e-01 4.68601793e-01 4.35691953e-01 4.06936914e-01 3.93788189e-01 4.08026069e-01 4.56992090e-01 5.35082459e-01 6.20330632e-01 6.95498526e-01 7.69653916e-01 8.71326864e-01 9.83216286e-01 9.95971501e-01 9.98326361e-01 1.27462772e-04 1.22107274e-04 1.38896226e-04 8.85845602e-01 3.35857779e-01 1.77767575e-01 1.45155445e-01 1.51316404e-01 1.82917610e-01 2.31742024e-01 2.87953943e-01 3.41274500e-01 3.85376781e-01 4.15720403e-01 4.29694504e-01 4.26709175e-01 4.08317626e-01 3.78449500e-01 3.43888998e-01 3.14017236e-01 2.99074948e-01 3.08008254e-01 3.46253902e-01 4.10471261e-01 4.85482216e-01 5.61631262e-01 7.00812280e-01 9.29873645e-01 9.94287431e-01 9.97056663e-01 9.96374786e-01 1.20709665e-04 1.20424294e-04 1.50741864e-04 8.90230775e-01 2.13202015e-01 5.95821217e-02 4.28761989e-02 5.03487512e-02 7.59483799e-02 1.22006729e-01 1.86018750e-01 2.58701473e-01 3.27267140e-01 3.80881637e-01 4.13719535e-01 4.24434900e-01 4.15187597e-01 3.91078085e-01 3.60063463e-01 3.32179368e-01 3.17424238e-01 3.23413044e-01 3.53251785e-01 4.03635561e-01 4.71803784e-01 5.90564787e-01 8.32089722e-01 9.82936919e-01 9.96609390e-01 9.97496009e-01 9.82228577e-01 1.17033451e-04 1.17016192e-04 1.74407120e-04 9.10416782e-01 1.45173326e-01 1.74002647e-02 1.05955089e-02 1.44787310e-02 2.86899898e-02 6.21118322e-02 1.24071449e-01 2.13692978e-01 3.12871248e-01 3.98021013e-01 4.54909712e-01 4.80733186e-01 4.79330182e-01 4.57660079e-01 4.24751967e-01 3.90927464e-01 3.65904242e-01 3.56697977e-01 3.67246002e-01 4.03485715e-01 4.94167268e-01 7.11345971e-01 9.48140264e-01 9.94324148e-01 9.96926725e-01 9.96167064e-01 7.08385324e-03 1.16470510e-04 1.14901493e-04 2.18421643e-04 9.36317205e-01 1.12026431e-01 5.08807646e-03 2.60222261e-03 4.11328254e-03 1.05268741e-02 3.13602537e-02 8.58860761e-02 1.90488949e-01 3.26746315e-01 4.47977602e-01 5.25891244e-01 5.59706330e-01 5.58838964e-01 5.33377826e-01 4.92911100e-01 4.47060555e-01 4.05365139e-01 3.77354443e-01 3.75279397e-01 4.25971121e-01 5.96030891e-01 8.77191961e-01 9.86474574e-01 9.96506512e-01 9.97089267e-01 9.88300502e-01 1.11255865e-03 1.20064848e-04 1.16237505e-04 3.23552726e-04 9.57220674e-01 9.92278457e-02 1.72823318e-03 8.16387532e-04 1.38924713e-03 4.18390520e-03 1.64573789e-02 6.25204593e-02 1.81826755e-01 3.60674351e-01 5.14403701e-01 6.01047337e-01 6.31447554e-01 6.23929739e-01 5.91308415e-01 5.42666137e-01 4.86246645e-01 4.32328761e-01 3.96769911e-01 4.06607926e-01 5.16089797e-01 7.77176082e-01 9.64973211e-01 9.94478822e-01 9.96559083e-01 9.95632052e-01 4.41683903e-02 2.87038769e-04 1.27577077e-04 1.22492114e-04 6.47255627e-04 9.69532073e-01 9.98243541e-02 8.38120526e-04 4.07843356e-04 6.55330892e-04 2.04527378e-03 9.71454103e-03 4.98258248e-02 1.87364355e-01 4.11411703e-01 5.83417773e-01 6.63014889e-01 6.81670070e-01 6.64855778e-01 6.26159072e-01 5.73596358e-01 5.14564097e-01 4.61745948e-01 4.39811319e-01 4.93319869e-01 6.84854031e-01 9.17470515e-01 9.87936616e-01 9.95919347e-01 9.96048033e-01 9.84161735e-01 5.35169058e-03 2.04119031e-04 1.44838181e-04 1.50489213e-04 2.20181211e-03 9.74991620e-01 1.10421523e-01 5.79103827e-04 2.78604333e-04 4.13316797e-04 1.30775757e-03 6.99318852e-03 4.59155962e-02 2.11048439e-01 4.75330502e-01 6.42991483e-01 7.03789830e-01 7.08300948e-01 6.84016168e-01 6.43732369e-01 5.94641030e-01 5.44735014e-01 5.10756671e-01 5.26159942e-01 6.42032206e-01 8.49965692e-01 9.71381366e-01 9.93328154e-01 9.95525539e-01 9.94348645e-01 7.23375380e-01 1.80441246e-03 2.10788276e-04 1.76552800e-04 2.99594802e-04 8.44437443e-03 9.76354361e-01 1.27989665e-01 4.68094047e-04 2.14348591e-04 2.99292995e-04 1.04753801e-03 6.45209057e-03 5.13022020e-02 2.58933425e-01 5.42708874e-01 6.82821870e-01 7.20519900e-01 7.13668466e-01 6.87465787e-01 6.52788758e-01 6.16231382e-01 5.87641239e-01 5.87854803e-01 6.51402116e-01 7.96941459e-01 9.38468695e-01 9.86767232e-01 9.94341791e-01 9.93912339e-01 9.86221015e-01 1.04644053e-01 1.06292323e-03 2.68343196e-04 2.55990628e-04 1.04745128e-03 6.66613877e-02 9.76159096e-01 1.49164438e-01 3.91526963e-04 1.74890432e-04 2.30984966e-04 9.74276976e-04 7.74472766e-03 7.10506365e-02 3.34298790e-01 5.97265422e-01 6.94996476e-01 7.11985111e-01 7.01138020e-01 6.82082057e-01 6.61785841e-01 6.45942032e-01 6.46336198e-01 6.83790565e-01 7.76262462e-01 8.97262096e-01 9.71362770e-01 9.90972400e-01 9.93870258e-01 9.90477681e-01 9.48515594e-01 3.32534835e-02 1.39290048e-03 4.56519541e-04 5.67127368e-04 3.46394768e-03 2.81625241e-01 9.76309359e-01 1.70856640e-01 3.27826536e-04 1.51014276e-04 1.87104873e-04 1.00346061e-03 1.20458491e-02 1.19006559e-01 4.27600324e-01 6.23210132e-01 6.74459994e-01 6.78388894e-01 6.75493896e-01 6.74887419e-01 6.76846385e-01 6.85639381e-01 7.13497639e-01 7.74664283e-01 8.64421904e-01 9.44815576e-01 9.82129693e-01 9.91904795e-01 9.92427886e-01 9.83442783e-01 8.19378138e-01 1.95773505e-02 2.48720055e-03 1.22857746e-03 1.97512144e-03 9.56313033e-03 5.04873097e-01 9.77074981e-01 1.94787964e-01 2.74146179e-04 1.36269256e-04 1.60080555e-04 1.09492801e-03 2.33941227e-02 2.17844397e-01 5.12366354e-01 6.11902893e-01 6.20633364e-01 6.24091804e-01 6.43509567e-01 6.71534836e-01 6.99986279e-01 7.31328070e-01 7.76538670e-01 8.42085660e-01 9.13628876e-01 9.63902771e-01 9.85346735e-01 9.91292059e-01 9.89811242e-01 9.69228029e-01 5.91423631e-01 1.54013969e-02 4.08167625e-03 3.75103555e-03 7.81039242e-03 2.97169778e-02 6.77031517e-01 9.77292895e-01 2.32121408e-01 2.34370542e-04 1.26313054e-04 1.43438490e-04 1.19960937e-03 5.19650280e-02 3.69623482e-01 5.60545325e-01 5.62821686e-01 5.41483700e-01 5.59195340e-01 6.11769140e-01 6.73730493e-01 7.28324234e-01 7.76005685e-01 8.26551378e-01 8.84026766e-01 9.36707497e-01 9.70194638e-01 9.85001385e-01 9.89204943e-01 9.85316694e-01 9.44782615e-01 4.16020811e-01 1.70871727e-02 7.15512177e-03 1.17633939e-02 3.29194143e-02 1.05157286e-01 8.04161489e-01 9.75478649e-01 2.98162848e-01 2.18096946e-04 1.19163371e-04 1.31900713e-04 1.32351939e-03 1.17939256e-01 5.16984284e-01 5.55765629e-01 4.81588632e-01 4.51954633e-01 4.93966430e-01 5.81810415e-01 6.76872969e-01 7.54472554e-01 8.12720656e-01 8.61307383e-01 9.06650424e-01 9.44700181e-01 9.69324410e-01 9.81393397e-01 9.84742701e-01 9.77858961e-01 9.16316807e-01 3.86160702e-01 3.16300057e-02 1.73989609e-02 4.08255793e-02 1.26966387e-01 3.04394633e-01 8.85612607e-01 9.69480693e-01 3.94824564e-01 2.37977845e-04 1.14317198e-04 1.22180252e-04 1.59719936e-03 2.44702905e-01 5.95399559e-01 4.88527715e-01 3.76836985e-01 3.62076491e-01 4.29132074e-01 5.45272350e-01 6.68327093e-01 7.67040253e-01 8.35096061e-01 8.81625175e-01 9.16496038e-01 9.43472505e-01 9.62189138e-01 9.72790718e-01 9.75755990e-01 9.66479063e-01 9.01650548e-01 5.08631468e-01 1.03654243e-01 6.75349012e-02 1.54786855e-01 3.62255484e-01 5.88260114e-01 9.31381464e-01 9.53032494e-01 4.81683791e-01 3.35536140e-04 1.11502806e-04 1.15283285e-04 2.35945825e-03 4.22636718e-01 5.79681039e-01 3.62535357e-01 2.64001220e-01 2.74457127e-01 3.56367648e-01 4.85353738e-01 6.28360629e-01 7.50563860e-01 8.34910810e-01 8.86123657e-01 9.16519523e-01 9.35726523e-01 9.48702633e-01 9.57194269e-01 9.60492074e-01 9.53408599e-01 9.12048519e-01 7.31933892e-01 3.95572960e-01 2.96735823e-01 4.30950195e-01 6.10153854e-01 7.58066833e-01 9.51656997e-01 9.06950295e-01 4.54025239e-01 6.85302832e-04 1.09802313e-04 1.11908768e-04 5.15359314e-03 6.35207355e-01 4.76529658e-01 2.36671567e-01 1.81839541e-01 2.09581330e-01 2.86211193e-01 3.97254735e-01 5.30355453e-01 6.65239632e-01 7.76346028e-01 8.51871967e-01 8.97219360e-01 9.23292875e-01 9.38722372e-01 9.48525071e-01 9.54522789e-01 9.55297649e-01 9.44184601e-01 9.00123656e-01 7.88751125e-01 6.71369016e-01 6.56482756e-01 6.86113656e-01 7.72125900e-01 9.52792346e-01 9.10651326e-01 3.99300992e-01 5.01643820e-03 1.07327069e-04 1.09540400e-04 1.16193155e-02 5.32539845e-01 2.40570426e-01 1.07427895e-01 8.48207548e-02 9.13012028e-02 1.13945015e-01 1.56966686e-01 2.36571431e-01 3.75048399e-01 5.71289182e-01 7.63652802e-01 8.87543082e-01 9.46467102e-01 9.70793426e-01 9.80353713e-01 9.83650148e-01 9.83517945e-01 9.79850531e-01 9.68792796e-01 9.37192738e-01 8.56472790e-01 7.16515660e-01 5.85606337e-01 6.11818731e-01 9.34027493e-01 9.74619150e-01 9.39119697e-01 6.23400271e-01 1.12164882e-04 1.08925604e-04 5.20962834e-01 9.26533341e-01 7.15350509e-01 4.87202376e-01 3.45909923e-01 3.00754249e-01 3.27013820e-01 4.23274994e-01 5.81857204e-01 7.51738191e-01 8.72860193e-01 9.37225580e-01 9.67055559e-01 9.80472207e-01 9.86540437e-01 9.89148676e-01 9.89818215e-01 9.88988519e-01 9.86521065e-01 9.81808305e-01 9.73288119e-01 9.56580281e-01 9.22844291e-01 8.72018874e-01 8.44870389e-01 9.30801809e-01 
