# vtk DataFile Version 2.0
results_case1_non_linear/iter4.vtk, Created by Freefem++ 
ASCII
DATASET UNSTRUCTURED_GRID
POINTS 961 float
0 0 0
0.033333333 0 0
0.066666667 0 0
0.1 0 0
0.13333333 0 0
0.16666667 0 0
0.2 0 0
0.23333333 0 0
0.26666667 0 0
0.3 0 0
0.33333333 0 0
0.36666667 0 0
0.4 0 0
0.43333333 0 0
0.46666667 0 0
0.5 0 0
0.53333333 0 0
0.56666667 0 0
0.6 0 0
0.63333333 0 0
0.66666667 0 0
0.7 0 0
0.73333333 0 0
0.76666667 0 0
0.8 0 0
0.83333333 0 0
0.86666667 0 0
0.9 0 0
0.93333333 0 0
0.96666667 0 0
1 0 0
0 0.033333333 0
0.033333333 0.033333333 0
0.066666667 0.033333333 0
0.1 0.033333333 0
0.13333333 0.033333333 0
0.16666667 0.033333333 0
0.2 0.033333333 0
0.23333333 0.033333333 0
0.26666667 0.033333333 0
0.3 0.033333333 0
0.33333333 0.033333333 0
0.36666667 0.033333333 0
0.4 0.033333333 0
0.43333333 0.033333333 0
0.46666667 0.033333333 0
0.5 0.033333333 0
0.53333333 0.033333333 0
0.56666667 0.033333333 0
0.6 0.033333333 0
0.63333333 0.033333333 0
0.66666667 0.033333333 0
0.7 0.033333333 0
0.73333333 0.033333333 0
0.76666667 0.033333333 0
0.8 0.033333333 0
0.83333333 0.033333333 0
0.86666667 0.033333333 0
0.9 0.033333333 0
0.93333333 0.033333333 0
0.96666667 0.033333333 0
1 0.033333333 0
0 0.066666667 0
0.033333333 0.066666667 0
0.066666667 0.066666667 0
0.1 0.066666667 0
0.13333333 0.066666667 0
0.16666667 0.066666667 0
0.2 0.066666667 0
0.23333333 0.066666667 0
0.26666667 0.066666667 0
0.3 0.066666667 0
0.33333333 0.066666667 0
0.36666667 0.066666667 0
0.4 0.066666667 0
0.43333333 0.066666667 0
0.46666667 0.066666667 0
0.5 0.066666667 0
0.53333333 0.066666667 0
0.56666667 0.066666667 0
0.6 0.066666667 0
0.63333333 0.066666667 0
0.66666667 0.066666667 0
0.7 0.066666667 0
0.73333333 0.066666667 0
0.76666667 0.066666667 0
0.8 0.066666667 0
0.83333333 0.066666667 0
0.86666667 0.066666667 0
0.9 0.066666667 0
0.93333333 0.066666667 0
0.96666667 0.066666667 0
1 0.066666667 0
0 0.1 0
0.033333333 0.1 0
0.066666667 0.1 0
0.1 0.1 0
0.13333333 0.1 0
0.16666667 0.1 0
0.2 0.1 0
0.23333333 0.1 0
0.26666667 0.1 0
0.3 0.1 0
0.33333333 0.1 0
0.36666667 0.1 0
0.4 0.1 0
0.43333333 0.1 0
0.46666667 0.1 0
0.5 0.1 0
0.53333333 0.1 0
0.56666667 0.1 0
0.6 0.1 0
0.63333333 0.1 0
0.66666667 0.1 0
0.7 0.1 0
0.73333333 0.1 0
0.76666667 0.1 0
0.8 0.1 0
0.83333333 0.1 0
0.86666667 0.1 0
0.9 0.1 0
0.93333333 0.1 0
0.96666667 0.1 0
1 0.1 0
0 0.13333333 0
0.033333333 0.13333333 0
0.066666667 0.13333333 0
0.1 0.13333333 0
0.13333333 0.13333333 0
0.16666667 0.13333333 0
0.2 0.13333333 0
0.23333333 0.13333333 0
0.26666667 0.13333333 0
0.3 0.13333333 0
0.33333333 0.13333333 0
0.36666667 0.13333333 0
0.4 0.13333333 0
0.43333333 0.13333333 0
0.46666667 0.13333333 0
0.5 0.13333333 0
0.53333333 0.13333333 0
0.56666667 0.13333333 0
0.6 0.13333333 0
0.63333333 0.13333333 0
0.66666667 0.13333333 0
0.7 0.13333333 0
0.73333333 0.13333333 0
0.76666667 0.13333333 0
0.8 0.13333333 0
0.83333333 0.13333333 0
0.86666667 0.13333333 0
0.9 0.13333333 0
0.93333333 0.13333333 0
0.96666667 0.13333333 0
1 0.13333333 0
0 0.16666667 0
0.033333333 0.16666667 0
0.066666667 0.16666667 0
0.1 0.16666667 0
0.13333333 0.16666667 0
0.16666667 0.16666667 0
0.2 0.16666667 0
0.23333333 0.16666667 0
0.26666667 0.16666667 0
0.3 0.16666667 0
0.33333333 0.16666667 0
0.36666667 0.16666667 0
0.4 0.16666667 0
0.43333333 0.16666667 0
0.46666667 0.16666667 0
0.5 0.16666667 0
0.53333333 0.16666667 0
0.56666667 0.16666667 0
0.6 0.16666667 0
0.63333333 0.16666667 0
0.66666667 0.16666667 0
0.7 0.16666667 0
0.73333333 0.16666667 0
0.76666667 0.16666667 0
0.8 0.16666667 0
0.83333333 0.16666667 0
0.86666667 0.16666667 0
0.9 0.16666667 0
0.93333333 0.16666667 0
0.96666667 0.16666667 0
1 0.16666667 0
0 0.2 0
0.033333333 0.2 0
0.066666667 0.2 0
0.1 0.2 0
0.13333333 0.2 0
0.16666667 0.2 0
0.2 0.2 0
0.23333333 0.2 0
0.26666667 0.2 0
0.3 0.2 0
0.33333333 0.2 0
0.36666667 0.2 0
0.4 0.2 0
0.43333333 0.2 0
0.46666667 0.2 0
0.5 0.2 0
0.53333333 0.2 0
0.56666667 0.2 0
0.6 0.2 0
0.63333333 0.2 0
0.66666667 0.2 0
0.7 0.2 0
0.73333333 0.2 0
0.76666667 0.2 0
0.8 0.2 0
0.83333333 0.2 0
0.86666667 0.2 0
0.9 0.2 0
0.93333333 0.2 0
0.96666667 0.2 0
1 0.2 0
0 0.23333333 0
0.033333333 0.23333333 0
0.066666667 0.23333333 0
0.1 0.23333333 0
0.13333333 0.23333333 0
0.16666667 0.23333333 0
0.2 0.23333333 0
0.23333333 0.23333333 0
0.26666667 0.23333333 0
0.3 0.23333333 0
0.33333333 0.23333333 0
0.36666667 0.23333333 0
0.4 0.23333333 0
0.43333333 0.23333333 0
0.46666667 0.23333333 0
0.5 0.23333333 0
0.53333333 0.23333333 0
0.56666667 0.23333333 0
0.6 0.23333333 0
0.63333333 0.23333333 0
0.66666667 0.23333333 0
0.7 0.23333333 0
0.73333333 0.23333333 0
0.76666667 0.23333333 0
0.8 0.23333333 0
0.83333333 0.23333333 0
0.86666667 0.23333333 0
0.9 0.23333333 0
0.93333333 0.23333333 0
0.96666667 0.23333333 0
1 0.23333333 0
0 0.26666667 0
0.033333333 0.26666667 0
0.066666667 0.26666667 0
0.1 0.26666667 0
0.13333333 0.26666667 0
0.16666667 0.26666667 0
0.2 0.26666667 0
0.23333333 0.26666667 0
0.26666667 0.26666667 0
0.3 0.26666667 0
0.33333333 0.26666667 0
0.36666667 0.26666667 0
0.4 0.26666667 0
0.43333333 0.26666667 0
0.46666667 0.26666667 0
0.5 0.26666667 0
0.53333333 0.26666667 0
0.56666667 0.26666667 0
0.6 0.26666667 0
0.63333333 0.26666667 0
0.66666667 0.26666667 0
0.7 0.26666667 0
0.73333333 0.26666667 0
0.76666667 0.26666667 0
0.8 0.26666667 0
0.83333333 0.26666667 0
0.86666667 0.26666667 0
0.9 0.26666667 0
0.93333333 0.26666667 0
0.96666667 0.26666667 0
1 0.26666667 0
0 0.3 0
0.033333333 0.3 0
0.066666667 0.3 0
0.1 0.3 0
0.13333333 0.3 0
0.16666667 0.3 0
0.2 0.3 0
0.23333333 0.3 0
0.26666667 0.3 0
0.3 0.3 0
0.33333333 0.3 0
0.36666667 0.3 0
0.4 0.3 0
0.43333333 0.3 0
0.46666667 0.3 0
0.5 0.3 0
0.53333333 0.3 0
0.56666667 0.3 0
0.6 0.3 0
0.63333333 0.3 0
0.66666667 0.3 0
0.7 0.3 0
0.73333333 0.3 0
0.76666667 0.3 0
0.8 0.3 0
0.83333333 0.3 0
0.86666667 0.3 0
0.9 0.3 0
0.93333333 0.3 0
0.96666667 0.3 0
1 0.3 0
0 0.33333333 0
0.033333333 0.33333333 0
0.066666667 0.33333333 0
0.1 0.33333333 0
0.13333333 0.33333333 0
0.16666667 0.33333333 0
0.2 0.33333333 0
0.23333333 0.33333333 0
0.26666667 0.33333333 0
0.3 0.33333333 0
0.33333333 0.33333333 0
0.36666667 0.33333333 0
0.4 0.33333333 0
0.43333333 0.33333333 0
0.46666667 0.33333333 0
0.5 0.33333333 0
0.53333333 0.33333333 0
0.56666667 0.33333333 0
0.6 0.33333333 0
0.63333333 0.33333333 0
0.66666667 0.33333333 0
0.7 0.33333333 0
0.73333333 0.33333333 0
0.76666667 0.33333333 0
0.8 0.33333333 0
0.83333333 0.33333333 0
0.86666667 0.33333333 0
0.9 0.33333333 0
0.93333333 0.33333333 0
0.96666667 0.33333333 0
1 0.33333333 0
0 0.36666667 0
0.033333333 0.36666667 0
0.066666667 0.36666667 0
0.1 0.36666667 0
0.13333333 0.36666667 0
0.16666667 0.36666667 0
0.2 0.36666667 0
0.23333333 0.36666667 0
0.26666667 0.36666667 0
0.3 0.36666667 0
0.33333333 0.36666667 0
0.36666667 0.36666667 0
0.4 0.36666667 0
0.43333333 0.36666667 0
0.46666667 0.36666667 0
0.5 0.36666667 0
0.53333333 0.36666667 0
0.56666667 0.36666667 0
0.6 0.36666667 0
0.63333333 0.36666667 0
0.66666667 0.36666667 0
0.7 0.36666667 0
0.73333333 0.36666667 0
0.76666667 0.36666667 0
0.8 0.36666667 0
0.83333333 0.36666667 0
0.86666667 0.36666667 0
0.9 0.36666667 0
0.93333333 0.36666667 0
0.96666667 0.36666667 0
1 0.36666667 0
0 0.4 0
0.033333333 0.4 0
0.066666667 0.4 0
0.1 0.4 0
0.13333333 0.4 0
0.16666667 0.4 0
0.2 0.4 0
0.23333333 0.4 0
0.26666667 0.4 0
0.3 0.4 0
0.33333333 0.4 0
0.36666667 0.4 0
0.4 0.4 0
0.43333333 0.4 0
0.46666667 0.4 0
0.5 0.4 0
0.53333333 0.4 0
0.56666667 0.4 0
0.6 0.4 0
0.63333333 0.4 0
0.66666667 0.4 0
0.7 0.4 0
0.73333333 0.4 0
0.76666667 0.4 0
0.8 0.4 0
0.83333333 0.4 0
0.86666667 0.4 0
0.9 0.4 0
0.93333333 0.4 0
0.96666667 0.4 0
1 0.4 0
0 0.43333333 0
0.033333333 0.43333333 0
0.066666667 0.43333333 0
0.1 0.43333333 0
0.13333333 0.43333333 0
0.16666667 0.43333333 0
0.2 0.43333333 0
0.23333333 0.43333333 0
0.26666667 0.43333333 0
0.3 0.43333333 0
0.33333333 0.43333333 0
0.36666667 0.43333333 0
0.4 0.43333333 0
0.43333333 0.43333333 0
0.46666667 0.43333333 0
0.5 0.43333333 0
0.53333333 0.43333333 0
0.56666667 0.43333333 0
0.6 0.43333333 0
0.63333333 0.43333333 0
0.66666667 0.43333333 0
0.7 0.43333333 0
0.73333333 0.43333333 0
0.76666667 0.43333333 0
0.8 0.43333333 0
0.83333333 0.43333333 0
0.86666667 0.43333333 0
0.9 0.43333333 0
0.93333333 0.43333333 0
0.96666667 0.43333333 0
1 0.43333333 0
0 0.46666667 0
0.033333333 0.46666667 0
0.066666667 0.46666667 0
0.1 0.46666667 0
0.13333333 0.46666667 0
0.16666667 0.46666667 0
0.2 0.46666667 0
0.23333333 0.46666667 0
0.26666667 0.46666667 0
0.3 0.46666667 0
0.33333333 0.46666667 0
0.36666667 0.46666667 0
0.4 0.46666667 0
0.43333333 0.46666667 0
0.46666667 0.46666667 0
0.5 0.46666667 0
0.53333333 0.46666667 0
0.56666667 0.46666667 0
0.6 0.46666667 0
0.63333333 0.46666667 0
0.66666667 0.46666667 0
0.7 0.46666667 0
0.73333333 0.46666667 0
0.76666667 0.46666667 0
0.8 0.46666667 0
0.83333333 0.46666667 0
0.86666667 0.46666667 0
0.9 0.46666667 0
0.93333333 0.46666667 0
0.96666667 0.46666667 0
1 0.46666667 0
0 0.5 0
0.033333333 0.5 0
0.066666667 0.5 0
0.1 0.5 0
0.13333333 0.5 0
0.16666667 0.5 0
0.2 0.5 0
0.23333333 0.5 0
0.26666667 0.5 0
0.3 0.5 0
0.33333333 0.5 0
0.36666667 0.5 0
0.4 0.5 0
0.43333333 0.5 0
0.46666667 0.5 0
0.5 0.5 0
0.53333333 0.5 0
0.56666667 0.5 0
0.6 0.5 0
0.63333333 0.5 0
0.66666667 0.5 0
0.7 0.5 0
0.73333333 0.5 0
0.76666667 0.5 0
0.8 0.5 0
0.83333333 0.5 0
0.86666667 0.5 0
0.9 0.5 0
0.93333333 0.5 0
0.96666667 0.5 0
1 0.5 0
0 0.53333333 0
0.033333333 0.53333333 0
0.066666667 0.53333333 0
0.1 0.53333333 0
0.13333333 0.53333333 0
0.16666667 0.53333333 0
0.2 0.53333333 0
0.23333333 0.53333333 0
0.26666667 0.53333333 0
0.3 0.53333333 0
0.33333333 0.53333333 0
0.36666667 0.53333333 0
0.4 0.53333333 0
0.43333333 0.53333333 0
0.46666667 0.53333333 0
0.5 0.53333333 0
0.53333333 0.53333333 0
0.56666667 0.53333333 0
0.6 0.53333333 0
0.63333333 0.53333333 0
0.66666667 0.53333333 0
0.7 0.53333333 0
0.73333333 0.53333333 0
0.76666667 0.53333333 0
[...]
CELL_DATA 1920
Scalars  Label int 1
LOOKUP_TABLE FreeFempp_table
0
0
0
0
0
0
0
0
0
0
0
0
0
0
0
0
0
0
0
0
0
0
0
0
0
0
0
0
0
0
0
0
0
0
0
0
0
0
0
0
0
0
0
0
0
0
0
0
0
0
0
0
0
0
0
0
0
0
0
0
0
0
0
0
0
0
0
0
0
0
0
0
0
0
0
0
0
0
0
0
0
0
0
0
0
0
0
0
0
0
0
0
0
0
0
0
0
0
0
0
0
0
0
0
0
0
0
0
0
0
0
0
0
0
0
0
0
0
0
0
0
0
0
0
0
0
0
0
0
0
0
0
0
0
0
0
0
0
0
0
0
0
0
0
0
0
0
0
0
0
0
0
0
0
0
0
0
0
0
0
0
0
0
0
0
0
0
0
0
0
0
0
0
0
0
0
0
0
0
0
0
0
0
0
0
0
0
0
0
0
0
0
0
0
0
0
0
0
0
0
0
0
0
0
0
0
0
0
0
0
0
0
0
0
0
0
0
0
0
0
0
0
0
0
0
0
0
0
0
0
0
0
0
0
0
0
0
0
0
0
0
0
0
0
0
0
0
0
0
0
0
0
0
0
0
0
0
0
0
0
0
0
0
0
0
0
0
0
0
0
0
0
0
0
0
0
0
0
0
0
0
0
0
0
0
0
0
0
0
0
0
0
0
0
0
0
0
0
0
0
0
0
0
0
0
0
0
0
0
0
0
0
0
0
0
0
0
0
0
0
0
0
0
0
0
0
0
0
0
0
0
0
0
0
0
0
0
0
0
0
0
0
0
0
0
0
0
0
0
0
0
0
0
0
0
0
0
0
0
0
0
0
0
0
0
0
0
0
0
0
0
0
0
0
0
0
0
0
0
0
0
0
0
0
0
0
0
0
0
0
0
0
0
0
0
0
0
0
0
0
0
0
0
0
0
0
0
0
0
0
0
0
0
0
0
0
0
0
0
0
0
0
0
0
0
0
0
0
0
0
0
0
0
0
0
0
0
0
0
0
0
0
0
0
0
0
0
0
0
0
0
0
0
0
0
0
0
0
0
0
0
0
0
0
0
0
0
0
0
0
0
0
0
0
0
0
0
0
0
0
0
0
0
0
0
0
0
0
0
0
0
0
0
0
0
0
0
0
0
0
0
0
0
0
0
0
0
0
0
0
0
0
0
0
0
0
0
0
0
0
0
0
0
0
0
0
0
0
0
0
0
0
0
0
0
0
0
0
0
0
0
0
0
0
0
0
0
0
0
0
0
0
0
0
0
0
0
0
0
0
0
0
0
0
0
0
0
0
0
0
0
0
0
0
0
0
0
0
0
0
0
0
0
0
0
0
0
0
0
0
0
0
0
0
0
0
0
0
0
0
0
0
0
0
0
0
0
0
0
0
0
0
0
0
0
0
0
0
0
0
0
0
0
0
0
0
0
0
0
0
0
0
0
0
0
0
0
0
0
0
0
0
0
0
0
0
0
0
0
0
0
0
0
0
0
0
0
0
0
0
0
0
0
0
0
0
0
0
0
0
0
0
0
0
0
0
0
0
0
0
0
0
0
0
0
0
0
0
0
0
0
0
0
0
0
0
0
0
0
0
0
0
0
0
0
0
0
0
0
0
0
0
0
0
0
0
0
0
0
0
0
0
0
0
0
0
0
0
0
0
0
0
0
0
0
0
0
0
0
0
0
0
0
0
0
0
0
0
0
0
0
0
0
0
0
0
0
0
0
0
0
0
0
0
0
0
0
0
0
0
0
0
0
0
0
0
0
0
0
0
0
0
0
0
0
0
0
0
0
0
0
0
0
0
0
0
0
0
0
0
0
0
0
0
0
0
0
0
0
0
0
0
0
0
0
0
0
0
0
0
0
0
0
0
0
0
0
0
0
0
0
0
0
0
0
0
0
0
0
0
0
0
0
0
0
0
0
0
0
0
0
0
0
0
0
0
0
0
0
0
0
0
0
0
0
0
0
0
0
0
0
0
0
0
0
0
0
0
0
0
0
0
0
0
0
0
0
0
0
0
0
0
0
0
0
0
0
0
0
0
0
0
0
0
0
0
0
0
0
0
0
0
0
0
0
0
0
0
0
0
0
0
0
0
0
0
0
0
0
0
0
0
0
0
0
0
0
0
0
0
0
0
0
0
0
0
0
0
0
0
0
0
0
0
0
0
0
0
0
0
0
0
0
0
0
0
0
0
0
0
0
0
0
0
0
0
0
0
0
0
0
0
0
0
0
0
0
0
0
0
0
0
0
0
0
0
0
0
0
0
0
0
0
0
0
0
0
0
0
0
0
0
0
0
0
0
0
0
0
0
0
0
0
0
0
0
0
0
0
0
0
0
0
0
0
0
0
0
0
0
0
0
0
0
0
0
0
0
0
0
0
0
0
0
0
0
0
0
0
0
0
0
0
0
0
0
0
0
0
0
0
0
0
0
0
0
0
0
0
0
0
0
0
0
0
0
0
0
0
0
0
0
0
0
0
0
0
0
0
0
0
0
0
0
0
0
0
0
0
0
0
0
0
0
0
0
0
0
0
0
0
0
0
0
0
0
0
0
0
0
0
0
0
0
0
0
0
0
0
0
0
0
0
0
0
0
0
0
0
0
0
0
0
0
0
0
0
0
0
0
0
0
0
0
0
0
0
0
0
0
0
0
0
0
0
0
0
0
0
0
0
0
0
0
0
0
0
0
0
0
0
0
0
0
0
0
0
0
0
0
0
0
0
0
0
0
0
0
0
0
0
0
0
0
0
0
0
0
0
0
0
0
0
0
0
0
0
0
0
0
0
0
0
0
0
0
0
0
0
0
0
0
0
0
0
0
0
0
0
0
0
0
0
0
0
0
0
0
0
0
0
0
0
0
0
0
0
0
0
0
0
0
0
0
0
0
0
0
0
0
0
0
0
0
0
0
0
0
0
0
0
0
0
0
0
0
0
0
0
0
0
0
0
0
0
0
0
0
0
0
0
0
0
0
0
0
0
0
0
0
0
0
0
0
0
0
0
0
0
0
0
0
0
0
0
0
0
0
0
0
0
0
0
0
0
0
0
0
0
0
0
0
0
0
0
0
0
0
0
0
0
0
0
0
0
0
0
0
0
0
0
0
0
0
0
0
0
0
0
0
0
0
0
0
0
0
0
0
0
0
0
0
0
0
0
0
0
0
0
0
0
0
0
0
0
0
0
0
0
0
0
0
0
0
0
0
0
0
0
0
0
0
0
0
0
0
0
0
0
0
0
0
0
0
0
0
0
0
0
0
0
0
0
0
0
0
0
0
0
0
0
0
0
0
0
0
0
0
0
0
0
0
0
0
0
0
0
0
0
0
0
0
0
0
0
0
0
0
0
0
0
0
0
0
0
0
0
0
0
0
0
0
0
0
0
0
0
0
0
0
0
0
0
0
0
0
0
0
0
0
0
0
0
0
0
0
0
0
0
0
0
0
0
0
0
0
0
0
0
0
0
0
0
0
0
0
0
0
0
0
0
0
0
0
0
0
0
0
0
0
0
0
0
0
0
0
0
0
0
0
0
0
0
0
0
0
0
0
0
0
0
0
0
0
0
0
0
0
0
0
0
0
0
0
0
0
0
0
0
0
0
0
0
0
0
0
0
0
0
0
0
0
0
0
0
0
0
0
0
0
0
0
0
0
0
0
0
0
0
0
0
0
0
0
0
0
0
0
0
0
0
0
0
0
0
0
0
0
0
0
0
0
0
0
0
0
0
0
0
0
0
0
0
0
0
0
0
0
0
0
0
0
0
0
0
0
0
0
0
0
0
0
0
0
0
0
0
0
0
0
0
0
0
0
0
0
0
0
0
0
0
0
0
0
0
0
0
0
0
0
0
0
0
0
0
0
0
0
0
0
0
0
0
0
0
0
0
0
0
0
0
0
0
0
0
0
0
0
0
0
0
0
0
0
0
0
0
0
0
0
0
0
0
0
0
0
0
0
0
0
0
0
0
0
0
0
0
0
0
0
0
0
0
0
0
0
0
0
0
0
0
0
0
0
0
0
0
0
0
0
0
0
0
0
0
0
0
0
0
0
0
0
0
0
0
0
0
0
0
0
1
1
1
1
1
1
1
1
1
1
1
1
1
1
1
1
1
1
1
1
1
1
1
1
1
1
1
1
1
1
2
2
2
2
2
2
2
2
2
2
2
2
2
2
2
2
2
2
2
2
2
2
2
2
2
2
2
2
2
2
3
3
3
3
3
3
3
3
3
3
3
3
3
3
3
3
3
3
3
3
3
3
3
3
3
3
3
3
3
3
4
4
4
4
4
4
4
4
4
4
4
4
4
4
4
4
4
4
4
4
4
4
4
4
4
4
4
4
4
4

LOOKUP_TABLE FreeFempp_table 5
1.00000000 0.00000000 0.00000000 1.00000000
1.00000000 1.00000000 0.00000000 1.00000000
1.00000000 0.00000000 1.00000000 1.00000000
0.00000000 1.00000000 0.00000000 1.00000000
0.00000000 1.00000000 1.00000000 1.00000000

POINT_DATA 961
FIELD FieldData 1
Density 1 961 float
3.65101695e-01 3.44188243e-01 4.65534091e-01 5.07282257e-01 5.19311309e-01 5.22779644e-01 5.19304752e-01 4.87708390e-01 3.99765730e-01 2.57674843e-01 9.14639831e-02 9.94936284e-03 8.10083293e-04 8.60160857e-04 4.52594319e-03 2.36398920e-01 9.77871954e-01 8.83037925e-01 7.61381447e-01 9.30566669e-01 9.60130453e-01 9.28371012e-01 9.00332630e-01 8.77752841e-01 8.53257358e-01 8.25828016e-01 8.01995218e-01 7.88556039e-01 7.82938600e-01 7.88077056e-01 7.15257704e-01 1.67372869e-04 1.53213681e-04 2.99451977e-01 3.93497854e-01 3.98590773e-01 3.97820383e-01 3.94167542e-01 3.73038292e-01 2.86939979e-01 1.37459025e-01 4.51903567e-02 8.00915156e-03 8.34912760e-04 5.35038474e-04 1.32916914e-03 6.95034191e-02 9.97541487e-01 9.45057929e-01 1.48660526e-01 2.10818335e-01 9.44015920e-01 9.64941740e-01 9.48365867e-01 9.43089783e-01 9.33042526e-01 9.15102482e-01 8.89734387e-01 8.65296483e-01 8.51888180e-01 8.49505007e-01 7.86239684e-01 1.93694519e-04 1.30698536e-04 1.32863264e-04 1.58196184e-04 1.57759685e-04 1.57407849e-04 1.57132759e-04 1.57836024e-04 1.58704876e-04 1.59068455e-04 1.61046235e-04 1.66997561e-04 1.90735169e-04 2.53262493e-04 5.27543772e-04 1.83533244e-02 9.88047659e-01 8.52972806e-01 8.74532200e-03 2.03072699e-03 1.87713653e-03 3.87942605e-03 1.08615998e-02 6.30215704e-02 4.06991005e-01 7.04393506e-01 7.72776484e-01 7.65432179e-01 7.47130334e-01 7.30882943e-01 7.27579057e-01 4.58617866e-01 9.49442852e-03 1.51518470e-04 1.58934665e-04 1.56908907e-04 1.57506802e-04 1.56929425e-04 1.57114133e-04 1.58070325e-04 1.58527255e-04 1.59189382e-04 1.59576230e-04 1.62372176e-04 1.60926618e-04 1.59169314e-04 1.57966671e-04 1.88463554e-03 9.99475121e-01 1.88710506e-03 2.72849249e-03 6.14195422e-04 4.45723796e-04 3.34410288e-04 3.19685787e-04 1.11740048e-03 5.55982776e-02 3.11288923e-01 5.14662862e-01 5.50000668e-01 5.35403490e-01 6.25329435e-01 4.54715192e-01 2.17463017e-01 1.43523753e-01 1.69684768e-01 2.05969185e-01 2.46223390e-01 2.90641338e-01 3.33838016e-01 3.43034774e-01 1.33429796e-01 2.90974844e-02 5.49734943e-03 7.78009009e-04 2.86757509e-04 1.86341247e-04 1.40121949e-04 1.43755417e-04 1.02868733e-04 9.99791801e-01 1.53500249e-03 1.86512398e-03 6.47105742e-04 4.00291436e-04 2.41058762e-04 2.53706094e-04 4.09453671e-04 2.81320717e-02 2.17872888e-01 3.49827945e-01 3.29859346e-01 4.99338478e-01 5.21818280e-01 3.11349094e-01 2.45714054e-01 2.40243301e-01 2.61601061e-01 2.90149510e-01 3.20548654e-01 3.49621773e-01 3.70716572e-01 3.76047581e-01 3.86832446e-01 4.17197526e-01 4.17956978e-01 3.22179943e-01 1.16601788e-01 5.50642377e-03 1.60796000e-04 1.56130336e-04 1.54808818e-04 9.98064339e-01 2.56677508e-01 5.29348068e-02 8.31126496e-02 9.58396774e-03 2.67817813e-04 2.64637289e-04 3.03747191e-04 2.57070381e-02 1.80765942e-01 1.62792668e-01 3.00184876e-01 6.37128770e-01 5.18003881e-01 4.95408893e-01 4.80082363e-01 4.72840220e-01 4.73970056e-01 4.80296195e-01 4.90699261e-01 5.02366483e-01 5.11292100e-01 5.18443525e-01 5.30804634e-01 5.41915476e-01 5.45864522e-01 5.34680247e-01 5.14131963e-01 2.98988402e-01 3.19226296e-04 1.47498868e-04 1.47441126e-04 9.95375991e-01 9.92844284e-01 9.89879072e-01 9.82837379e-01 8.67671728e-01 3.18101840e-04 2.35870102e-04 3.07141163e-04 3.95508520e-02 9.63298827e-02 1.55655414e-01 7.40553141e-01 7.42759943e-01 7.28728831e-01 7.13818729e-01 6.93777561e-01 6.74552679e-01 6.60522997e-01 6.52990699e-01 6.50352716e-01 6.49291754e-01 6.49222374e-01 6.50960326e-01 6.53483748e-01 6.55333877e-01 6.53302968e-01 6.42258227e-01 6.20045602e-01 5.79813123e-01 1.69453338e-01 1.52511420e-04 1.57235423e-04 4.60986560e-03 9.66087997e-01 5.79448283e-01 1.48467362e-01 9.79685187e-01 3.21913772e-04 2.00938754e-04 7.89853104e-04 6.30143210e-02 1.14706233e-01 7.97056139e-01 8.61495674e-01 8.49182904e-01 8.38825762e-01 8.21589231e-01 8.00590634e-01 7.80349076e-01 7.64092565e-01 7.52057314e-01 7.42909789e-01 7.36464322e-01 7.32927501e-01 7.31624603e-01 7.32027471e-01 7.33659863e-01 7.34581351e-01 7.32354641e-01 7.21873045e-01 6.73316717e-01 5.83183050e-01 1.61263335e-04 1.66557598e-04 2.44792056e-04 2.44661729e-04 4.44228994e-04 3.20605643e-04 9.99324322e-01 2.03147007e-04 2.07030927e-04 1.06681017e-02 1.38635486e-01 7.99853504e-01 8.88873339e-01 8.77737403e-01 8.70947063e-01 8.58651638e-01 8.43154788e-01 8.26502323e-01 8.10947537e-01 7.97553122e-01 7.86478698e-01 7.77926624e-01 7.71918833e-01 7.68106878e-01 7.66635120e-01 7.68345654e-01 7.73726821e-01 7.82463849e-01 7.93968678e-01 8.02417815e-01 7.94536352e-01 7.38220274e-01 2.10234502e-04 2.30897800e-04 2.61392415e-04 3.35448043e-04 6.38531230e-04 9.83441055e-01 5.88513445e-04 2.03972406e-04 3.17311293e-04 2.44311526e-01 7.55411565e-01 8.49289477e-01 8.35772395e-01 8.31473470e-01 8.27289581e-01 8.22310925e-01 8.14684689e-01 8.05554330e-01 7.96246111e-01 7.87834346e-01 7.80741155e-01 7.74799049e-01 7.69698381e-01 7.65726984e-01 7.64150023e-01 7.66956389e-01 7.76390374e-01 7.94381142e-01 8.22143078e-01 8.61100197e-01 9.00021493e-01 9.02302265e-01 1.33796677e-01 6.64286017e-01 2.68235314e-03 9.49097041e-04 7.58763015e-01 9.99638379e-01 2.07936013e-04 2.41474612e-04 3.35004449e-01 6.87725127e-01 7.10805297e-01 6.69979393e-01 6.77151978e-01 7.00306058e-01 7.26018846e-01 7.44079828e-01 7.52259731e-01 7.54356325e-01 7.53468096e-01 7.51182556e-01 7.47813821e-01 7.43353188e-01 7.38106489e-01 7.32973635e-01 7.29611874e-01 7.30562866e-01 7.39181340e-01 7.59304166e-01 7.95401454e-01 8.57461393e-01 9.35757756e-01 9.57207739e-01 9.27132130e-01 2.58155670e-02 2.06324738e-03 1.58929289e-03 9.99256492e-01 2.12532643e-04 2.11068123e-04 2.15167329e-01 6.38867438e-01 4.59345728e-01 3.19043487e-01 3.43741477e-01 4.33888555e-01 5.25149167e-01 6.01662040e-01 6.51790559e-01 6.79950058e-01 6.94676995e-01 7.01332211e-01 7.02633739e-01 7.00166643e-01 6.95168972e-01 6.88793182e-01 6.82166457e-01 6.76367342e-01 6.72828078e-01 6.72749758e-01 6.76571846e-01 6.90197527e-01 7.62113810e-01 8.83808851e-01 9.42125559e-01 7.18064964e-01 7.20433751e-03 2.71797716e-03 9.99178290e-01 2.54232524e-04 2.04603741e-04 1.29471580e-03 6.48225307e-01 2.39696935e-01 7.89757520e-02 9.18695107e-02 1.60810649e-01 2.75182754e-01 4.08447027e-01 5.19945860e-01 5.90461850e-01 6.30547643e-01 6.51091576e-01 6.59118712e-01 6.59275651e-01 6.54716849e-01 6.47786677e-01 6.40400052e-01 6.33825839e-01 6.28122211e-01 6.23004794e-01 6.15284085e-01 5.95636725e-01 5.77576220e-01 6.19439602e-01 7.26984799e-01 7.92330205e-01 2.47339591e-01 6.99666262e-01 9.99104679e-01 4.49557876e-04 2.39029279e-04 5.21470734e-04 7.13948786e-01 1.25087231e-01 2.37648208e-02 2.72162445e-02 5.43353856e-02 1.21729635e-01 2.46620879e-01 3.96589100e-01 5.10164320e-01 5.78873038e-01 6.15682006e-01 6.31991088e-01 6.35628283e-01 6.31721079e-01 6.23744488e-01 6.14475667e-01 6.06292307e-01 6.00285590e-01 5.96228063e-01 5.94894350e-01 5.89704454e-01 5.64844787e-01 5.23603082e-01 5.32757998e-01 6.26130521e-01 7.60296226e-01 9.65944886e-01 9.97396827e-01 6.94560877e-04 3.62159335e-04 5.50575031e-04 7.80359387e-01 6.84401616e-02 9.95680690e-03 1.10276351e-02 2.49256585e-02 6.57647029e-02 1.63791597e-01 3.18890423e-01 4.59550977e-01 5.49941242e-01 5.99780381e-01 6.23653293e-01 6.31319225e-01 6.28968418e-01 6.20607793e-01 6.09233975e-01 5.97597957e-01 5.87666929e-01 5.80149770e-01 5.77841878e-01 5.82580388e-01 5.82931399e-01 5.73400021e-01 5.86917877e-01 7.02140510e-01 8.97043347e-01 9.79332924e-01 9.90001917e-01 7.97352404e-04 4.81619907e-04 7.21396704e-04 8.21202993e-01 3.32298130e-02 4.57036495e-03 5.21360431e-03 1.44972950e-02 4.95524891e-02 1.40931666e-01 2.94984370e-01 4.44882184e-01 5.44584215e-01 6.00938678e-01 6.29608095e-01 6.40822589e-01 6.40717447e-01 6.33238137e-01 6.21244311e-01 6.07445002e-01 5.94111979e-01 5.82347333e-01 5.75922489e-01 5.83025455e-01 6.09317720e-01 6.57817721e-01 7.34373689e-01 8.46660376e-01 9.45438921e-01 9.80005503e-01 9.59650159e-01 8.36591411e-04 5.62988105e-04 8.37356434e-04 8.44914734e-01 1.32965306e-02 2.35264003e-03 2.92843697e-03 1.05783073e-02 5.16040362e-02 1.58641785e-01 3.16118091e-01 4.59066689e-01 5.55331409e-01 6.12291574e-01 6.43239200e-01 6.57224536e-01 6.59656644e-01 6.54094934e-01 6.43250167e-01 6.29956603e-01 6.17239296e-01 6.07261181e-01 6.05041146e-01 6.21852279e-01 6.69770896e-01 7.47644365e-01 8.34443271e-01 9.08731937e-01 9.55630600e-01 9.71335232e-01 7.80930400e-01 7.96990586e-04 6.34487718e-04 1.05348520e-03 8.56441319e-01 4.99681151e-03 1.44579459e-03 1.93638634e-03 1.04698343e-02 7.34597743e-02 2.14358151e-01 3.67370486e-01 4.88349795e-01 5.72190225e-01 6.26056969e-01 6.58048332e-01 6.74581289e-01 6.80048943e-01 6.77657187e-01 6.70186400e-01 6.60960317e-01 6.54239833e-01 6.53939784e-01 6.66168809e-01 7.00045705e-01 7.58497357e-01 8.26653183e-01 8.85187328e-01 9.28520739e-01 9.50588167e-01 9.28714037e-01 1.41223669e-01 6.97252573e-04 6.48497604e-04 1.55062985e-03 8.59842896e-01 2.30453513e-03 1.02735579e-03 1.47029036e-03 1.47629185e-02 1.29337907e-01 3.01901817e-01 4.28271919e-01 5.19550860e-01 5.87972343e-01 6.37017787e-01 6.69488907e-01 6.88854992e-01 6.98329091e-01 7.00820565e-01 6.99371040e-01 6.98023260e-01 7.02140391e-01 7.16418624e-01 7.45158732e-01 7.90571153e-01 8.42037618e-01 8.82855892e-01 9.09995258e-01 9.27245021e-01 9.15861726e-01 5.80925286e-01 6.72788499e-03 6.35677483e-04 6.21474406e-04 3.10074142e-03 8.55445921e-01 1.37613597e-03 8.03276838e-04 1.23653491e-03 2.82635428e-02 2.26719216e-01 3.93156469e-01 4.80992049e-01 5.45294106e-01 5.99517465e-01 6.43083572e-01 6.75460517e-01 6.97851837e-01 7.12233722e-01 7.21051097e-01 7.27465868e-01 7.35986888e-01 7.52447724e-01 7.80608416e-01 8.18699658e-01 8.62789929e-01 8.98742259e-01 9.15233672e-01 9.09204721e-01 8.68192375e-01 5.68192303e-01 1.67141780e-02 1.55685993e-03 7.38997362e-04 7.32766232e-04 1.24423467e-02 8.48131835e-01 1.00029912e-03 6.70014007e-04 1.11138285e-03 6.80576488e-02 3.41195047e-01 4.63044554e-01 5.18494785e-01 5.63442469e-01 6.06000721e-01 6.43878460e-01 6.75393760e-01 7.00370789e-01 7.19653666e-01 7.35083997e-01 7.49752223e-01 7.68089950e-01 7.94859767e-01 8.30347955e-01 8.69936883e-01 9.06718194e-01 9.29586291e-01 9.27522719e-01 8.56837749e-01 4.57643211e-01 1.93267129e-02 2.68217688e-03 1.15658971e-03 1.06402230e-03 1.49881223e-03 9.04579237e-02 8.44878733e-01 8.29122378e-04 5.80497610e-04 1.02368521e-03 1.50294930e-01 4.32220101e-01 5.09318054e-01 5.42830706e-01 5.74105501e-01 6.07039392e-01 6.39336467e-01 6.69222653e-01 6.95767879e-01 7.18969703e-01 7.40114033e-01 7.62016892e-01 7.88380444e-01 8.21603835e-01 8.59762371e-01 8.96876752e-01 9.26969409e-01 9.43349540e-01 9.32087302e-01 7.76155114e-01 9.57869589e-02 5.21016773e-03 2.14477768e-03 1.65965618e-03 2.48671276e-03 1.36179673e-02 3.61471325e-01 8.44556868e-01 7.62307725e-04 5.07825869e-04 9.15711920e-04 2.51229316e-01 4.92693812e-01 5.38974404e-01 5.57150304e-01 5.77300787e-01 6.01989686e-01 6.29198849e-01 6.57013059e-01 6.84040487e-01 7.09797800e-01 7.35104322e-01 7.62127042e-01 7.93460250e-01 8.29904795e-01 8.68782818e-01 9.04510200e-01 9.32632625e-01 9.47762430e-01 9.37604308e-01 8.00787151e-01 1.28945991e-01 7.39521580e-03 5.04756393e-03 7.30524771e-03 3.42385545e-02 2.60447472e-01 6.00664556e-01 8.43914628e-01 8.02970899e-04 4.39581578e-04 7.60715862e-04 3.40059400e-01 5.30731499e-01 5.56481957e-01 5.62142670e-01 5.72689652e-01 5.90393960e-01 6.13263249e-01 6.38938546e-01 6.65652275e-01 6.92668259e-01 7.20416903e-01 7.50288546e-01 7.83849120e-01 8.21173429e-01 8.60088706e-01 8.96151900e-01 9.24867749e-01 9.42110598e-01 9.39320564e-01 8.72942448e-01 4.48271543e-01 7.25811049e-02 8.01828951e-02 2.68569112e-01 6.88078880e-01 8.51670265e-01 7.64647424e-01 8.40868473e-01 1.03489170e-03 3.67481407e-04 5.69210388e-04 4.03892219e-01 5.52660227e-01 5.62360525e-01 5.57520628e-01 5.60096383e-01 5.72210729e-01 5.91507912e-01 6.15162730e-01 6.41158462e-01 6.68548465e-01 6.97300851e-01 7.28054225e-01 7.61588216e-01 7.97823489e-01 8.34987402e-01 8.70757043e-01 9.01178896e-01 9.22950625e-01 9.28746939e-01 9.05862331e-01 8.06777418e-01 6.61229849e-01 7.39314616e-01 8.85397375e-01 9.24839020e-01 9.31880057e-01 8.36791158e-01 8.32091868e-01 1.93041482e-03 3.06053989e-04 4.06108767e-04 4.44468588e-01 5.65948129e-01 5.56549191e-01 5.42512536e-01 5.39435267e-01 5.47625959e-01 5.64013600e-01 5.85726321e-01 6.10895693e-01 6.38447106e-01 6.67687237e-01 6.98210180e-01 7.29930580e-01 7.62628436e-01 7.95568824e-01 8.27976942e-01 8.59119236e-01 8.84598315e-01 8.98994446e-01 8.96565437e-01 8.72915447e-01 8.47344697e-01 8.62347543e-01 8.89810801e-01 8.99310410e-01 9.06989992e-01 8.29285681e-01 8.07379127e-01 6.66134572e-03 2.61493085e-04 3.11076699e-04 4.85683113e-01 5.71933866e-01 5.38929403e-01 5.17424583e-01 5.11840165e-01 5.17758429e-01 5.31483948e-01 5.50921023e-01 5.75021505e-01 6.02947474e-01 6.33412421e-01 6.64642572e-01 6.94931805e-01 7.23164439e-01 7.49065638e-01 7.73541629e-01 7.98434615e-01 8.23192000e-01 8.42800558e-01 8.51429522e-01 8.44422042e-01 8.25343549e-01 8.08624148e-01 8.03494096e-01 8.11955810e-01 8.33014488e-01 7.82169998e-01 7.39157200e-01 4.09225971e-02 2.39372064e-04 2.60728266e-04 5.40495634e-01 5.58619380e-01 5.10314286e-01 4.87160683e-01 4.81832325e-01 4.85803723e-01 4.95887578e-01 5.11541784e-01 5.33115625e-01 5.60669065e-01 5.93102038e-01 6.27845228e-01 6.61375701e-01 6.90320730e-01 7.12925196e-01 7.29921818e-01 7.44116664e-01 7.57064104e-01 7.67492592e-01 7.70099401e-01 7.60153651e-01 7.34486878e-01 7.02535272e-01 6.84952974e-01 6.94345891e-01 7.23076940e-01 7.20647216e-01 6.64792418e-01 4.83727664e-01 2.05221033e-04 2.36876760e-04 6.12805128e-01 5.24191976e-01 4.79657203e-01 4.61423755e-01 4.54632878e-01 4.53086942e-01 4.56053793e-01 4.64861900e-01 4.81390744e-01 5.07156014e-01 5.42397678e-01 5.85187078e-01 6.31093979e-01 6.73968613e-01 7.07573473e-01 7.27950156e-01 7.32304811e-01 7.21209049e-01 6.94160998e-01 6.56733096e-01 6.17602944e-01 5.88296115e-01 5.71731746e-01 5.67193210e-01 5.73546171e-01 6.03401899e-01 6.62723184e-01 6.93553925e-01 6.96097672e-01 2.83352158e-04 2.32642255e-04 8.10918391e-01 5.97282350e-01 5.79010785e-01 5.68204284e-01 5.60953021e-01 5.56000531e-01 5.53500831e-01 5.54504037e-01 5.60351551e-01 5.72171092e-01 5.90398669e-01 6.14360332e-01 6.42061710e-01 6.70339108e-01 6.95234835e-01 7.12437689e-01 7.18820930e-01 7.09093392e-01 6.82043254e-01 6.39818966e-01 6.00349128e-01 5.78357935e-01 5.79448342e-01 5.92168272e-01 6.03025734e-01 6.08745635e-01 6.42530322e-01 
