# vtk DataFile Version 2.0
results/iter5.vtk, Created by Freefem++ 
ASCII
DATASET UNSTRUCTURED_GRID
POINTS 961 float
0 0 0
0.033333333 0 0
0.066666667 0 0
0.1 0 0
0.13333333 0 0
0.16666667 0 0
0.2 0 0
0.23333333 0 0
0.26666667 0 0
0.3 0 0
0.33333333 0 0
0.36666667 0 0
0.4 0 0
0.43333333 0 0
0.46666667 0 0
0.5 0 0
0.53333333 0 0
0.56666667 0 0
0.6 0 0
0.63333333 0 0
0.66666667 0 0
0.7 0 0
0.73333333 0 0
0.76666667 0 0
0.8 0 0
0.83333333 0 0
0.86666667 0 0
0.9 0 0
0.93333333 0 0
0.96666667 0 0
1 0 0
0 0.033333333 0
0.033333333 0.033333333 0
0.066666667 0.033333333 0
0.1 0.033333333 0
0.13333333 0.033333333 0
0.16666667 0.033333333 0
0.2 0.033333333 0
0.23333333 0.033333333 0
0.26666667 0.033333333 0
0.3 0.033333333 0
0.33333333 0.033333333 0
0.36666667 0.033333333 0
0.4 0.033333333 0
0.43333333 0.033333333 0
0.46666667 0.033333333 0
0.5 0.033333333 0
0.53333333 0.033333333 0
0.56666667 0.033333333 0
0.6 0.033333333 0
0.63333333 0.033333333 0
0.66666667 0.033333333 0
0.7 0.033333333 0
0.73333333 0.033333333 0
0.76666667 0.033333333 0
0.8 0.033333333 0
0.83333333 0.033333333 0
0.86666667 0.033333333 0
0.9 0.033333333 0
0.93333333 0.033333333 0
0.96666667 0.033333333 0
1 0.033333333 0
0 0.066666667 0
0.033333333 0.066666667 0
0.066666667 0.066666667 0
0.1 0.066666667 0
0.13333333 0.066666667 0
0.16666667 0.066666667 0
0.2 0.066666667 0
0.23333333 0.066666667 0
0.26666667 0.066666667 0
0.3 0.066666667 0
0.33333333 0.066666667 0
0.36666667 0.066666667 0
0.4 0.066666667 0
0.43333333 0.066666667 0
0.46666667 0.066666667 0
0.5 0.066666667 0
0.53333333 0.066666667 0
0.56666667 0.066666667 0
0.6 0.066666667 0
0.63333333 0.066666667 0
0.66666667 0.066666667 0
0.7 0.066666667 0
0.73333333 0.066666667 0
0.76666667 0.066666667 0
0.8 0.066666667 0
0.83333333 0.066666667 0
0.86666667 0.066666667 0
0.9 0.066666667 0
0.93333333 0.066666667 0
0.96666667 0.066666667 0
1 0.066666667 0
0 0.1 0
0.033333333 0.1 0
0.066666667 0.1 0
0.1 0.1 0
0.13333333 0.1 0
0.16666667 0.1 0
0.2 0.1 0
0.23333333 0.1 0
0.26666667 0.1 0
0.3 0.1 0
0.33333333 0.1 0
0.36666667 0.1 0
0.4 0.1 0
0.43333333 0.1 0
0.46666667 0.1 0
0.5 0.1 0
0.53333333 0.1 0
0.56666667 0.1 0
0.6 0.1 0
0.63333333 0.1 0
0.66666667 0.1 0
0.7 0.1 0
0.73333333 0.1 0
0.76666667 0.1 0
0.8 0.1 0
0.83333333 0.1 0
0.86666667 0.1 0
0.9 0.1 0
0.93333333 0.1 0
0.96666667 0.1 0
1 0.1 0
0 0.13333333 0
0.033333333 0.13333333 0
0.066666667 0.13333333 0
0.1 0.13333333 0
0.13333333 0.13333333 0
0.16666667 0.13333333 0
0.2 0.13333333 0
0.23333333 0.13333333 0
0.26666667 0.13333333 0
0.3 0.13333333 0
0.33333333 0.13333333 0
0.36666667 0.13333333 0
0.4 0.13333333 0
0.43333333 0.13333333 0
0.46666667 0.13333333 0
0.5 0.13333333 0
0.53333333 0.13333333 0
0.56666667 0.13333333 0
0.6 0.13333333 0
0.63333333 0.13333333 0
0.66666667 0.13333333 0
0.7 0.13333333 0
0.73333333 0.13333333 0
0.76666667 0.13333333 0
0.8 0.13333333 0
0.83333333 0.13333333 0
0.86666667 0.13333333 0
0.9 0.13333333 0
0.93333333 0.13333333 0
0.96666667 0.13333333 0
1 0.13333333 0
0 0.16666667 0
0.033333333 0.16666667 0
0.066666667 0.16666667 0
0.1 0.16666667 0
0.13333333 0.16666667 0
0.16666667 0.16666667 0
0.2 0.16666667 0
0.23333333 0.16666667 0
0.26666667 0.16666667 0
0.3 0.16666667 0
0.33333333 0.16666667 0
0.36666667 0.16666667 0
0.4 0.16666667 0
0.43333333 0.16666667 0
0.46666667 0.16666667 0
0.5 0.16666667 0
0.53333333 0.16666667 0
0.56666667 0.16666667 0
0.6 0.16666667 0
0.63333333 0.16666667 0
0.66666667 0.16666667 0
0.7 0.16666667 0
0.73333333 0.16666667 0
0.76666667 0.16666667 0
0.8 0.16666667 0
0.83333333 0.16666667 0
0.86666667 0.16666667 0
0.9 0.16666667 0
0.93333333 0.16666667 0
0.96666667 0.16666667 0
1 0.16666667 0
0 0.2 0
0.033333333 0.2 0
0.066666667 0.2 0
0.1 0.2 0
0.13333333 0.2 0
0.16666667 0.2 0
0.2 0.2 0
0.23333333 0.2 0
0.26666667 0.2 0
0.3 0.2 0
0.33333333 0.2 0
0.36666667 0.2 0
0.4 0.2 0
0.43333333 0.2 0
0.46666667 0.2 0
0.5 0.2 0
0.53333333 0.2 0
0.56666667 0.2 0
0.6 0.2 0
0.63333333 0.2 0
0.66666667 0.2 0
0.7 0.2 0
0.73333333 0.2 0
0.76666667 0.2 0
0.8 0.2 0
0.83333333 0.2 0
0.86666667 0.2 0
0.9 0.2 0
0.93333333 0.2 0
0.96666667 0.2 0
1 0.2 0
0 0.23333333 0
0.033333333 0.23333333 0
0.066666667 0.23333333 0
0.1 0.23333333 0
0.13333333 0.23333333 0
0.16666667 0.23333333 0
0.2 0.23333333 0
0.23333333 0.23333333 0
0.26666667 0.23333333 0
0.3 0.23333333 0
0.33333333 0.23333333 0
0.36666667 0.23333333 0
0.4 0.23333333 0
0.43333333 0.23333333 0
0.46666667 0.23333333 0
0.5 0.23333333 0
0.53333333 0.23333333 0
0.56666667 0.23333333 0
0.6 0.23333333 0
0.63333333 0.23333333 0
0.66666667 0.23333333 0
0.7 0.23333333 0
0.73333333 0.23333333 0
0.76666667 0.23333333 0
0.8 0.23333333 0
0.83333333 0.23333333 0
0.86666667 0.23333333 0
0.9 0.23333333 0
0.93333333 0.23333333 0
0.96666667 0.23333333 0
1 0.23333333 0
0 0.26666667 0
0.033333333 0.26666667 0
0.066666667 0.26666667 0
0.1 0.26666667 0
0.13333333 0.26666667 0
0.16666667 0.26666667 0
0.2 0.26666667 0
0.23333333 0.26666667 0
0.26666667 0.26666667 0
0.3 0.26666667 0
0.33333333 0.26666667 0
0.36666667 0.26666667 0
0.4 0.26666667 0
0.43333333 0.26666667 0
0.46666667 0.26666667 0
0.5 0.26666667 0
0.53333333 0.26666667 0
0.56666667 0.26666667 0
0.6 0.26666667 0
0.63333333 0.26666667 0
0.66666667 0.26666667 0
0.7 0.26666667 0
0.73333333 0.26666667 0
0.76666667 0.26666667 0
0.8 0.26666667 0
0.83333333 0.26666667 0
0.86666667 0.26666667 0
0.9 0.26666667 0
0.93333333 0.26666667 0
0.96666667 0.26666667 0
1 0.26666667 0
0 0.3 0
0.033333333 0.3 0
0.066666667 0.3 0
0.1 0.3 0
0.13333333 0.3 0
0.16666667 0.3 0
0.2 0.3 0
0.23333333 0.3 0
0.26666667 0.3 0
0.3 0.3 0
0.33333333 0.3 0
0.36666667 0.3 0
0.4 0.3 0
0.43333333 0.3 0
0.46666667 0.3 0
0.5 0.3 0
0.53333333 0.3 0
0.56666667 0.3 0
0.6 0.3 0
0.63333333 0.3 0
0.66666667 0.3 0
0.7 0.3 0
0.73333333 0.3 0
0.76666667 0.3 0
0.8 0.3 0
0.83333333 0.3 0
0.86666667 0.3 0
0.9 0.3 0
0.93333333 0.3 0
0.96666667 0.3 0
1 0.3 0
0 0.33333333 0
0.033333333 0.33333333 0
0.066666667 0.33333333 0
0.1 0.33333333 0
0.13333333 0.33333333 0
0.16666667 0.33333333 0
0.2 0.33333333 0
0.23333333 0.33333333 0
0.26666667 0.33333333 0
0.3 0.33333333 0
0.33333333 0.33333333 0
0.36666667 0.33333333 0
0.4 0.33333333 0
0.43333333 0.33333333 0
0.46666667 0.33333333 0
0.5 0.33333333 0
0.53333333 0.33333333 0
0.56666667 0.33333333 0
0.6 0.33333333 0
0.63333333 0.33333333 0
0.66666667 0.33333333 0
0.7 0.33333333 0
0.73333333 0.33333333 0
0.76666667 0.33333333 0
0.8 0.33333333 0
0.83333333 0.33333333 0
0.86666667 0.33333333 0
0.9 0.33333333 0
0.93333333 0.33333333 0
0.96666667 0.33333333 0
1 0.33333333 0
0 0.36666667 0
0.033333333 0.36666667 0
0.066666667 0.36666667 0
0.1 0.36666667 0
0.13333333 0.36666667 0
0.16666667 0.36666667 0
0.2 0.36666667 0
0.23333333 0.36666667 0
0.26666667 0.36666667 0
0.3 0.36666667 0
0.33333333 0.36666667 0
0.36666667 0.36666667 0
0.4 0.36666667 0
0.43333333 0.36666667 0
0.46666667 0.36666667 0
0.5 0.36666667 0
0.53333333 0.36666667 0
0.56666667 0.36666667 0
0.6 0.36666667 0
0.63333333 0.36666667 0
0.66666667 0.36666667 0
0.7 0.36666667 0
0.73333333 0.36666667 0
0.76666667 0.36666667 0
0.8 0.36666667 0
0.83333333 0.36666667 0
0.86666667 0.36666667 0
0.9 0.36666667 0
0.93333333 0.36666667 0
0.96666667 0.36666667 0
1 0.36666667 0
0 0.4 0
0.033333333 0.4 0
0.066666667 0.4 0
0.1 0.4 0
0.13333333 0.4 0
0.16666667 0.4 0
0.2 0.4 0
0.23333333 0.4 0
0.26666667 0.4 0
0.3 0.4 0
0.33333333 0.4 0
0.36666667 0.4 0
0.4 0.4 0
0.43333333 0.4 0
0.46666667 0.4 0
0.5 0.4 0
0.53333333 0.4 0
0.56666667 0.4 0
0.6 0.4 0
0.63333333 0.4 0
0.66666667 0.4 0
0.7 0.4 0
0.73333333 0.4 0
0.76666667 0.4 0
0.8 0.4 0
0.83333333 0.4 0
0.86666667 0.4 0
0.9 0.4 0
0.93333333 0.4 0
0.96666667 0.4 0
1 0.4 0
0 0.43333333 0
0.033333333 0.43333333 0
0.066666667 0.43333333 0
0.1 0.43333333 0
0.13333333 0.43333333 0
0.16666667 0.43333333 0
0.2 0.43333333 0
0.23333333 0.43333333 0
0.26666667 0.43333333 0
0.3 0.43333333 0
0.33333333 0.43333333 0
0.36666667 0.43333333 0
0.4 0.43333333 0
0.43333333 0.43333333 0
0.46666667 0.43333333 0
0.5 0.43333333 0
0.53333333 0.43333333 0
0.56666667 0.43333333 0
0.6 0.43333333 0
0.63333333 0.43333333 0
0.66666667 0.43333333 0
0.7 0.43333333 0
0.73333333 0.43333333 0
0.76666667 0.43333333 0
0.8 0.43333333 0
0.83333333 0.43333333 0
0.86666667 0.43333333 0
0.9 0.43333333 0
0.93333333 0.43333333 0
0.96666667 0.43333333 0
1 0.43333333 0
0 0.46666667 0
0.033333333 0.46666667 0
0.066666667 0.46666667 0
0.1 0.46666667 0
0.13333333 0.46666667 0
0.16666667 0.46666667 0
0.2 0.46666667 0
0.23333333 0.46666667 0
0.26666667 0.46666667 0
0.3 0.46666667 0
0.33333333 0.46666667 0
0.36666667 0.46666667 0
0.4 0.46666667 0
0.43333333 0.46666667 0
0.46666667 0.46666667 0
0.5 0.46666667 0
0.53333333 0.46666667 0
0.56666667 0.46666667 0
0.6 0.46666667 0
0.63333333 0.46666667 0
0.66666667 0.46666667 0
0.7 0.46666667 0
0.73333333 0.46666667 0
0.76666667 0.46666667 0
0.8 0.46666667 0
0.83333333 0.46666667 0
0.86666667 0.46666667 0
0.9 0.46666667 0
0.93333333 0.46666667 0
0.96666667 0.46666667 0
1 0.46666667 0
0 0.5 0
0.033333333 0.5 0
0.066666667 0.5 0
0.1 0.5 0
0.13333333 0.5 0
0.16666667 0.5 0
0.2 0.5 0
0.23333333 0.5 0
0.26666667 0.5 0
0.3 0.5 0
0.33333333 0.5 0
0.36666667 0.5 0
0.4 0.5 0
0.43333333 0.5 0
0.46666667 0.5 0
0.5 0.5 0
0.53333333 0.5 0
0.56666667 0.5 0
0.6 0.5 0
0.63333333 0.5 0
0.66666667 0.5 0
0.7 0.5 0
0.73333333 0.5 0
0.76666667 0.5 0
0.8 0.5 0
0.83333333 0.5 0
0.86666667 0.5 0
0.9 0.5 0
0.93333333 0.5 0
0.96666667 0.5 0
1 0.5 0
0 0.53333333 0
0.033333333 0.53333333 0
0.066666667 0.53333333 0
0.1 0.53333333 0
0.13333333 0.53333333 0
0.16666667 0.53333333 0
0.2 0.53333333 0
0.23333333 0.53333333 0
0.26666667 0.53333333 0
0.3 0.53333333 0
0.33333333 0.53333333 0
0.36666667 0.53333333 0
0.4 0.53333333 0
0.43333333 0.53333333 0
0.46666667 0.53333333 0
0.5 0.53333333 0
0.53333333 0.53333333 0
0.56666667 0.53333333 0
0.6 0.53333333 0
0.63333333 0.53333333 0
0.66666667 0.53333333 0
0.7 0.53333333 0
0.73333333 0.53333333 0
0.76666667 0.53333333 0
0.8 0.53333333 0
[...]
CELL_DATA 1920
Scalars  Label int 1
LOOKUP_TABLE FreeFempp_table
0
0
0
0
0
0
0
0
0
0
0
0
0
0
0
0
0
0
0
0
0
0
0
0
0
0
0
0
0
0
0
0
0
0
0
0
0
0
0
0
0
0
0
0
0
0
0
0
0
0
0
0
0
0
0
0
0
0
0
0
0
0
0
0
0
0
0
0
0
0
0
0
0
0
0
0
0
0
0
0
0
0
0
0
0
0
0
0
0
0
0
0
0
0
0
0
0
0
0
0
0
0
0
0
0
0
0
0
0
0
0
0
0
0
0
0
0
0
0
0
0
0
0
0
0
0
0
0
0
0
0
0
0
0
0
0
0
0
0
0
0
0
0
0
0
0
0
0
0
0
0
0
0
0
0
0
0
0
0
0
0
0
0
0
0
0
0
0
0
0
0
0
0
0
0
0
0
0
0
0
0
0
0
0
0
0
0
0
0
0
0
0
0
0
0
0
0
0
0
0
0
0
0
0
0
0
0
0
0
0
0
0
0
0
0
0
0
0
0
0
0
0
0
0
0
0
0
0
0
0
0
0
0
0
0
0
0
0
0
0
0
0
0
0
0
0
0
0
0
0
0
0
0
0
0
0
0
0
0
0
0
0
0
0
0
0
0
0
0
0
0
0
0
0
0
0
0
0
0
0
0
0
0
0
0
0
0
0
0
0
0
0
0
0
0
0
0
0
0
0
0
0
0
0
0
0
0
0
0
0
0
0
0
0
0
0
0
0
0
0
0
0
0
0
0
0
0
0
0
0
0
0
0
0
0
0
0
0
0
0
0
0
0
0
0
0
0
0
0
0
0
0
0
0
0
0
0
0
0
0
0
0
0
0
0
0
0
0
0
0
0
0
0
0
0
0
0
0
0
0
0
0
0
0
0
0
0
0
0
0
0
0
0
0
0
0
0
0
0
0
0
0
0
0
0
0
0
0
0
0
0
0
0
0
0
0
0
0
0
0
0
0
0
0
0
0
0
0
0
0
0
0
0
0
0
0
0
0
0
0
0
0
0
0
0
0
0
0
0
0
0
0
0
0
0
0
0
0
0
0
0
0
0
0
0
0
0
0
0
0
0
0
0
0
0
0
0
0
0
0
0
0
0
0
0
0
0
0
0
0
0
0
0
0
0
0
0
0
0
0
0
0
0
0
0
0
0
0
0
0
0
0
0
0
0
0
0
0
0
0
0
0
0
0
0
0
0
0
0
0
0
0
0
0
0
0
0
0
0
0
0
0
0
0
0
0
0
0
0
0
0
0
0
0
0
0
0
0
0
0
0
0
0
0
0
0
0
0
0
0
0
0
0
0
0
0
0
0
0
0
0
0
0
0
0
0
0
0
0
0
0
0
0
0
0
0
0
0
0
0
0
0
0
0
0
0
0
0
0
0
0
0
0
0
0
0
0
0
0
0
0
0
0
0
0
0
0
0
0
0
0
0
0
0
0
0
0
0
0
0
0
0
0
0
0
0
0
0
0
0
0
0
0
0
0
0
0
0
0
0
0
0
0
0
0
0
0
0
0
0
0
0
0
0
0
0
0
0
0
0
0
0
0
0
0
0
0
0
0
0
0
0
0
0
0
0
0
0
0
0
0
0
0
0
0
0
0
0
0
0
0
0
0
0
0
0
0
0
0
0
0
0
0
0
0
0
0
0
0
0
0
0
0
0
0
0
0
0
0
0
0
0
0
0
0
0
0
0
0
0
0
0
0
0
0
0
0
0
0
0
0
0
0
0
0
0
0
0
0
0
0
0
0
0
0
0
0
0
0
0
0
0
0
0
0
0
0
0
0
0
0
0
0
0
0
0
0
0
0
0
0
0
0
0
0
0
0
0
0
0
0
0
0
0
0
0
0
0
0
0
0
0
0
0
0
0
0
0
0
0
0
0
0
0
0
0
0
0
0
0
0
0
0
0
0
0
0
0
0
0
0
0
0
0
0
0
0
0
0
0
0
0
0
0
0
0
0
0
0
0
0
0
0
0
0
0
0
0
0
0
0
0
0
0
0
0
0
0
0
0
0
0
0
0
0
0
0
0
0
0
0
0
0
0
0
0
0
0
0
0
0
0
0
0
0
0
0
0
0
0
0
0
0
0
0
0
0
0
0
0
0
0
0
0
0
0
0
0
0
0
0
0
0
0
0
0
0
0
0
0
0
0
0
0
0
0
0
0
0
0
0
0
0
0
0
0
0
0
0
0
0
0
0
0
0
0
0
0
0
0
0
0
0
0
0
0
0
0
0
0
0
0
0
0
0
0
0
0
0
0
0
0
0
0
0
0
0
0
0
0
0
0
0
0
0
0
0
0
0
0
0
0
0
0
0
0
0
0
0
0
0
0
0
0
0
0
0
0
0
0
0
0
0
0
0
0
0
0
0
0
0
0
0
0
0
0
0
0
0
0
0
0
0
0
0
0
0
0
0
0
0
0
0
0
0
0
0
0
0
0
0
0
0
0
0
0
0
0
0
0
0
0
0
0
0
0
0
0
0
0
0
0
0
0
0
0
0
0
0
0
0
0
0
0
0
0
0
0
0
0
0
0
0
0
0
0
0
0
0
0
0
0
0
0
0
0
0
0
0
0
0
0
0
0
0
0
0
0
0
0
0
0
0
0
0
0
0
0
0
0
0
0
0
0
0
0
0
0
0
0
0
0
0
0
0
0
0
0
0
0
0
0
0
0
0
0
0
0
0
0
0
0
0
0
0
0
0
0
0
0
0
0
0
0
0
0
0
0
0
0
0
0
0
0
0
0
0
0
0
0
0
0
0
0
0
0
0
0
0
0
0
0
0
0
0
0
0
0
0
0
0
0
0
0
0
0
0
0
0
0
0
0
0
0
0
0
0
0
0
0
0
0
0
0
0
0
0
0
0
0
0
0
0
0
0
0
0
0
0
0
0
0
0
0
0
0
0
0
0
0
0
0
0
0
0
0
0
0
0
0
0
0
0
0
0
0
0
0
0
0
0
0
0
0
0
0
0
0
0
0
0
0
0
0
0
0
0
0
0
0
0
0
0
0
0
0
0
0
0
0
0
0
0
0
0
0
0
0
0
0
0
0
0
0
0
0
0
0
0
0
0
0
0
0
0
0
0
0
0
0
0
0
0
0
0
0
0
0
0
0
0
0
0
0
0
0
0
0
0
0
0
0
0
0
0
0
0
0
0
0
0
0
0
0
0
0
0
0
0
0
0
0
0
0
0
0
0
0
0
0
0
0
0
0
0
0
0
0
0
0
0
0
0
0
0
0
0
0
0
0
0
0
0
0
0
0
0
0
0
0
0
0
0
0
0
0
0
0
0
0
0
0
0
0
0
0
0
0
0
0
0
0
0
0
0
0
0
0
0
0
0
0
0
0
0
0
0
0
0
0
0
0
0
0
0
0
0
0
0
0
0
0
0
0
0
0
0
0
0
0
0
0
0
0
0
0
0
0
0
0
0
0
0
0
0
0
0
0
0
0
0
0
0
0
0
0
0
0
0
0
0
0
0
0
0
0
0
0
0
0
0
0
0
0
0
0
0
0
0
0
0
0
0
0
0
0
0
0
0
0
0
0
0
0
0
0
0
0
0
0
0
0
0
0
0
0
0
0
0
0
0
0
0
0
0
0
0
0
0
0
0
0
0
0
0
0
0
0
0
0
0
0
0
0
0
0
0
0
0
0
0
0
0
0
0
0
0
0
0
0
0
0
0
0
0
0
0
0
0
0
0
0
0
0
0
0
0
0
0
0
0
0
0
0
0
0
0
0
0
0
0
0
0
0
0
0
0
0
0
0
0
0
0
0
0
0
0
0
0
0
0
0
0
0
0
0
0
0
0
0
0
0
0
0
0
0
0
0
0
0
0
0
0
0
0
0
0
0
0
0
0
0
0
0
0
0
0
0
0
0
0
0
0
0
0
0
0
0
0
0
0
0
0
0
0
0
0
0
0
0
0
0
0
0
0
0
0
0
0
0
0
0
0
0
0
0
0
0
0
0
0
0
0
0
0
0
0
0
0
0
0
0
0
0
0
0
0
0
0
0
0
0
0
0
0
0
0
0
0
0
0
0
0
0
0
0
0
0
0
0
1
1
1
1
1
1
1
1
1
1
1
1
1
1
1
1
1
1
1
1
1
1
1
1
1
1
1
1
1
1
2
2
2
2
2
2
2
2
2
2
2
2
2
2
2
2
2
2
2
2
2
2
2
2
2
2
2
2
2
2
3
3
3
3
3
3
3
3
3
3
3
3
3
3
3
3
3
3
3
3
3
3
3
3
3
3
3
3
3
3
4
4
4
4
4
4
4
4
4
4
4
4
4
4
4
4
4
4
4
4
4
4
4
4
4
4
4
4
4
4

LOOKUP_TABLE FreeFempp_table 5
1.00000000 0.00000000 0.00000000 1.00000000
1.00000000 1.00000000 0.00000000 1.00000000
1.00000000 0.00000000 1.00000000 1.00000000
0.00000000 1.00000000 0.00000000 1.00000000
0.00000000 1.00000000 1.00000000 1.00000000

POINT_DATA 961
FIELD FieldData 1
Density 1 961 float
4.80206400e-01 1.69340655e-01 1.17764063e-02 1.00531126e-03 1.03593350e-03 4.13832301e-03 5.18933162e-02 2.34668478e-01 4.13356692e-01 5.09799659e-01 5.21805882e-01 3.04037124e-01 6.18997738e-02 8.04522708e-02 3.60615909e-01 7.59512782e-01 8.96412790e-01 9.42777514e-01 9.34938431e-01 8.56413305e-01 8.04058671e-01 8.90579164e-01 9.41065550e-01 9.50125933e-01 9.46820140e-01 9.33394015e-01 9.13504362e-01 9.00068104e-01 8.95108938e-01 9.07515407e-01 7.95347452e-01 4.77690011e-01 1.11048564e-01 9.77976900e-03 9.32651339e-04 6.10211398e-04 1.33154658e-03 1.41624985e-02 9.11029577e-02 2.33628988e-01 3.38980824e-01 3.53838950e-01 1.87627792e-01 3.66865881e-02 2.61818673e-02 1.23163939e-01 7.24787951e-01 9.42034841e-01 9.83108699e-01 9.87306476e-01 9.61619675e-01 8.58309627e-01 9.24549997e-01 9.81665432e-01 9.87948656e-01 9.88377154e-01 9.85461056e-01 9.77299333e-01 9.66145813e-01 9.59810793e-01 9.62938190e-01 9.08813179e-01 1.75841822e-04 1.61097239e-04 2.04254597e-04 2.79426516e-04 3.71831877e-04 8.66528833e-04 1.48210265e-02 1.63370788e-01 3.62048894e-01 4.19465154e-01 3.51898789e-01 1.49211213e-01 4.65547293e-02 3.77405249e-02 1.23159766e-01 6.32635713e-01 9.12526846e-01 9.76981103e-01 9.82217729e-01 8.65938425e-01 5.65748550e-02 4.33777161e-02 4.56194758e-01 7.93836474e-01 7.85383940e-01 8.39669645e-01 8.99101555e-01 9.07562673e-01 8.98452699e-01 9.01165843e-01 8.54600847e-01 1.98336391e-04 1.48186547e-04 1.53967296e-04 1.61702585e-04 1.52449560e-04 1.45532918e-04 1.44148129e-04 1.43104364e-04 1.44933540e-04 1.54719935e-04 1.59091709e-04 4.69622668e-04 5.80879934e-02 7.41209462e-02 1.96097180e-01 4.99920130e-01 8.13167274e-01 9.62301373e-01 9.79368091e-01 7.43302703e-01 5.49447117e-03 4.78650024e-03 2.60504428e-03 2.10022065e-03 2.65448750e-03 5.74327540e-03 3.94708402e-02 4.87029821e-01 6.59927845e-01 6.88184559e-01 7.28428781e-01 4.07023076e-03 4.39249270e-04 2.54119310e-04 2.12996616e-04 1.78325150e-04 1.55986781e-04 1.46748207e-04 1.44383288e-04 1.42851073e-04 1.49684041e-04 1.39446231e-04 1.41936238e-04 1.46605074e-04 1.37187075e-02 4.24668133e-01 4.97064799e-01 6.68171763e-01 9.16307449e-01 9.74054873e-01 8.50013196e-01 9.00615565e-03 6.45076344e-03 2.30506738e-03 1.51309196e-03 9.63285915e-04 7.72481028e-04 8.05398449e-04 5.40980650e-03 2.79344708e-01 4.56412286e-01 5.89928150e-01 6.09064281e-01 5.11755884e-01 5.14304996e-01 5.17362773e-01 5.20481050e-01 5.29039383e-01 5.49113512e-01 5.85020900e-01 6.17075443e-01 5.72961092e-01 8.65480304e-03 1.88789912e-04 1.33370151e-04 1.30133543e-04 5.66921197e-03 4.53957736e-01 5.19853413e-01 8.16391826e-01 9.61082876e-01 9.32502389e-01 9.24510062e-02 5.25365863e-03 8.05744994e-03 5.31423464e-03 3.05634900e-03 1.20641897e-03 5.65295864e-04 5.10547427e-04 5.38488152e-03 2.28783086e-01 4.53877777e-01 6.35905504e-01 5.38649678e-01 5.30484259e-01 5.30433059e-01 5.32755613e-01 5.37305236e-01 5.53907037e-01 5.80565274e-01 6.12914026e-01 6.12478435e-01 3.03669333e-01 2.42802277e-01 3.71258765e-01 1.32804184e-04 1.33599926e-04 5.17603848e-03 2.99627841e-01 5.81526399e-01 9.30277050e-01 9.55524027e-01 6.45667613e-01 4.23547439e-02 2.47059502e-02 4.97448929e-02 7.10708424e-02 6.83979690e-02 4.59065149e-03 5.00494847e-04 5.61844907e-04 2.20497698e-02 2.94456899e-01 6.70886099e-01 6.16739094e-01 6.06488347e-01 5.98047435e-01 5.83857775e-01 5.61152995e-01 5.45093358e-01 5.20098269e-01 5.22257566e-01 5.16668677e-01 1.81801334e-01 2.35098321e-02 4.78249118e-02 4.06219028e-02 1.37198454e-04 1.44637204e-04 8.44087824e-03 3.28247488e-01 8.38469565e-01 9.59135830e-01 9.02050078e-01 4.99954224e-01 2.00831398e-01 2.15945363e-01 2.88049161e-01 3.53685677e-01 2.84991771e-01 1.10471924e-03 4.21268167e-04 1.37862936e-03 1.76835015e-01 7.10755587e-01 6.92375124e-01 6.80737674e-01 6.60653830e-01 6.30035520e-01 5.86375237e-01 5.34872949e-01 4.69403595e-01 4.36976254e-01 4.72579002e-01 2.46872619e-01 6.71486417e-03 2.41234666e-03 1.60382723e-03 5.78404113e-04 1.60040174e-04 2.00634342e-04 1.36588663e-02 6.90459251e-01 9.52959299e-01 9.55333471e-01 8.55285406e-01 6.30069494e-01 4.90362793e-01 4.70284343e-01 4.89543766e-01 5.03207207e-01 2.77892221e-02 3.96687392e-04 5.63990907e-04 1.57014921e-01 7.68709660e-01 7.89276659e-01 7.74681866e-01 7.52276361e-01 7.17135012e-01 6.67310894e-01 5.93589246e-01 4.83869404e-01 3.95739675e-01 3.80124271e-01 3.94179463e-01 5.38276369e-03 7.38146133e-04 5.93699631e-04 5.12736267e-04 4.29201638e-04 2.51440186e-04 5.37379528e-04 4.39494587e-02 9.33864474e-01 9.77493048e-01 9.53009188e-01 8.63711953e-01 7.22856581e-01 6.09666944e-01 5.63684285e-01 5.63335001e-01 3.11136961e-01 4.28430445e-04 4.75581764e-04 2.01768786e-01 8.38301063e-01 8.89613152e-01 8.80496264e-01 8.69830012e-01 8.52573097e-01 8.23129833e-01 7.67569602e-01 6.54110730e-01 4.90870774e-01 3.50314498e-01 1.75992787e-01 3.84177491e-02 5.98057872e-04 3.22356529e-04 4.58317430e-04 7.92767620e-04 5.91989898e-04 6.88815024e-04 2.85721547e-03 1.68708727e-01 9.71494257e-01 9.81549740e-01 9.52996790e-01 8.68880987e-01 7.30260551e-01 6.26316667e-01 5.94829082e-01 5.00094354e-01 4.09096305e-04 4.22040059e-04 1.68747455e-01 8.92054558e-01 9.51912940e-01 9.46085155e-01 9.46775734e-01 9.49246824e-01 9.50211525e-01 9.44744766e-01 9.19720709e-01 8.36906731e-01 6.26120627e-01 2.52276748e-01 9.79493335e-02 8.00998881e-04 2.52994330e-04 3.47261957e-04 1.77790492e-03 5.14204288e-03 1.22603134e-03 2.96683144e-03 3.83954979e-02 5.97213566e-01 9.74440396e-01 9.76175845e-01 9.43615556e-01 8.35551739e-01 6.92074835e-01 6.24802053e-01 5.66698253e-01 3.99633602e-04 3.97134339e-04 6.46918342e-02 9.06155229e-01 9.69419241e-01 9.65231359e-01 9.70274448e-01 9.78152633e-01 9.85021591e-01 9.89228010e-01 9.89372790e-01 9.84702587e-01 9.66480434e-01 8.63432944e-01 4.48430598e-01 2.59629607e-01 2.35848580e-04 1.90079882e-04 1.51630258e-03 5.10679111e-02 2.31076647e-02 7.49109173e-03 1.70933127e-01 5.20336986e-01 8.79162610e-01 9.71426010e-01 9.72772658e-01 9.18258011e-01 7.70974457e-01 6.58485830e-01 5.88934064e-01 3.98244534e-04 3.84430750e-04 1.82989966e-02 8.67905438e-01 9.58360732e-01 9.55264807e-01 9.66549277e-01 9.78917122e-01 9.87623453e-01 9.91977692e-01 9.93358552e-01 9.93902564e-01 9.94223237e-01 9.91815329e-01 9.76908982e-01 8.91325057e-01 2.92504244e-02 1.82625459e-04 1.84028875e-04 1.41001819e-02 2.88473275e-02 4.30717953e-02 2.29417384e-01 2.51201361e-01 3.57646167e-01 8.80775571e-01 9.83744919e-01 9.70487595e-01 8.68513405e-01 7.05140889e-01 5.77044010e-01 3.92843882e-04 3.80070618e-04 9.04509798e-03 7.70632744e-01 8.83549213e-01 8.75267982e-01 8.75181377e-01 7.90102839e-01 4.38969076e-01 2.59862602e-01 3.12017828e-01 6.32612348e-01 9.81364787e-01 9.94989514e-01 9.95578527e-01 9.92937922e-01 9.74577487e-01 2.21074722e-03 1.84140896e-04 1.72791726e-04 5.44915209e-03 2.89036892e-02 1.31038949e-01 1.63492039e-01 5.08640185e-02 9.14524719e-02 9.64738965e-01 9.88048792e-01 9.54256952e-01 7.85802007e-01 5.18038809e-01 3.74841882e-04 3.74841766e-04 8.21769238e-03 6.78874016e-01 7.01953709e-01 6.13457918e-01 1.87232450e-01 1.03707807e-02 3.91113060e-03 3.13288439e-03 6.04541181e-03 3.32478732e-02 3.92199516e-01 9.77979839e-01 9.94488776e-01 9.96389985e-01 9.96601701e-01 9.75950003e-01 1.11744285e-03 1.69421284e-04 1.90158054e-04 6.21357234e-04 8.46001320e-03 1.03150859e-01 8.65533277e-02 2.36801226e-02 2.99675643e-01 9.67802823e-01 9.86435175e-01 9.06699002e-01 4.03980941e-01 3.50252114e-04 3.59951810e-04 1.23205604e-02 6.46730185e-01 5.54709852e-01 1.85270622e-01 5.04479185e-03 1.54718582e-03 1.32782431e-03 1.92943029e-03 4.10355628e-03 2.07340345e-02 2.24773929e-01 8.71402442e-01 9.74620938e-01 9.92841303e-01 9.97128785e-01 9.97938991e-01 9.39182460e-01 1.13287987e-03 2.30260135e-04 2.33613056e-04 2.36691863e-04 9.91734266e-01 7.26418346e-02 9.42701325e-02 3.61307770e-01 1.87172771e-01 9.79462743e-01 9.84554529e-01 3.09496045e-01 3.31202551e-04 3.40191415e-04 2.97039561e-02 6.42345190e-01 4.78798270e-01 1.44368578e-02 1.24374311e-03 9.62596503e-04 1.08385901e-03 2.66227825e-03 1.72263868e-02 6.12776399e-01 9.17773008e-01 8.78489912e-01 8.80757928e-01 9.56164181e-01 9.92134035e-01 9.97848570e-01 9.98163700e-01 7.28764951e-01 2.52875523e-03 3.92567890e-04 1.51503962e-04 1.01882390e-04 5.84561029e-04 1.52106583e-02 3.64041217e-02 8.05862714e-03 9.34697781e-03 9.97507095e-01 4.53913569e-01 3.23774060e-04 3.25970730e-04 9.56530049e-02 6.37927532e-01 4.15844917e-01 2.21714028e-03 7.88999081e-04 7.84646720e-04 1.77097134e-03 3.58398743e-02 6.81022227e-01 8.74086499e-01 8.98283482e-01 8.44312847e-01 7.98757851e-01 8.38926852e-01 9.50201571e-01 9.93252575e-01 9.98254776e-01 9.98197138e-01 6.13772690e-01 2.63760816e-02 6.44929649e-04 2.45585630e-04 2.89849384e-04 3.77338176e-04 1.14944030e-03 2.75060022e-03 1.88526826e-03 9.98385668e-01 9.27805662e-01 3.31139803e-04 3.22391192e-04 2.52413303e-01 6.30688488e-01 2.48180807e-01 8.07415112e-04 6.72802213e-04 7.95335800e-04 6.18589018e-03 4.64195549e-01 7.82728314e-01 8.51921916e-01 8.55603099e-01 8.20952713e-01 7.98742473e-01 7.87563145e-01 8.27322960e-01 9.55509543e-01 9.94356990e-01 9.98406112e-01 9.98251259e-01 8.34302187e-01 2.17978597e-01 7.27197574e-03 3.79147968e-04 3.86701780e-04 8.73091340e-04 1.04987377e-03 1.71009952e-03 9.99331117e-01 9.96242285e-01 3.56751319e-04 3.33094940e-04 4.14501131e-01 6.19362235e-01 2.19820905e-02 4.75585257e-04 5.35959261e-04 1.13690761e-03 6.89237937e-02 6.91644311e-01 7.88406014e-01 8.18905652e-01 8.17613959e-01 7.96326339e-01 7.75831223e-01 7.50983119e-01 7.02171803e-01 7.91409194e-01 9.59928930e-01 9.94854510e-01 9.98398423e-01 9.97652531e-01 9.79415357e-01 8.51636529e-01 5.10490477e-01 1.53093925e-02 3.47073451e-02 2.20673978e-02 2.63046920e-02 9.99545038e-01 9.98676240e-01 3.94131552e-04 3.58365593e-04 5.11549830e-01 6.03025794e-01 1.63780665e-03 3.81779944e-04 4.05952305e-04 2.74760090e-03 4.66726780e-01 7.64869034e-01 7.83686280e-01 7.84894526e-01 7.73858786e-01 7.52819479e-01 7.24843681e-01 6.71864510e-01 5.69408596e-01 5.28742492e-01 7.61581421e-01 9.61715758e-01 9.94469166e-01 9.98172760e-01 9.96503353e-01 9.95200217e-01 9.82305408e-01 9.68424082e-01 9.46191430e-01 4.35681105e-01 9.52998221e-01 9.99587417e-01 9.73696947e-01 4.34889575e-04 3.93116527e-04 5.59005976e-01 5.76419830e-01 5.23049734e-04 3.87139036e-04 3.97245050e-04 1.77734978e-02 6.95545495e-01 7.76077867e-01 7.71489441e-01 7.55037069e-01 7.33447909e-01 7.05723524e-01 6.68114662e-01 5.94504237e-01 4.52824384e-01 3.27807099e-01 4.01487589e-01 7.64923692e-01 9.61613894e-01 9.92755294e-01 9.96626675e-01 9.94935513e-01 9.79082286e-01 8.81764650e-01 7.48781681e-01 8.45232546e-01 9.97407317e-01 9.99554932e-01 1.95325632e-02 5.30508754e-04 4.34254558e-04 5.52445710e-01 4.28864092e-01 3.03536188e-04 3.46470799e-04 5.58873988e-04 2.74297863e-01 7.59550452e-01 7.70801246e-01 7.51136839e-01 7.26971865e-01 6.98514998e-01 6.65476620e-01 6.23149276e-01 5.46298683e-01 4.01249468e-01 2.41354391e-01 2.02952087e-01 3.78090471e-01 8.02147269e-01 9.64540780e-01 9.89587069e-01 9.92120683e-01 9.81188238e-01 9.05605793e-01 8.64879966e-01 9.82770562e-01 9.99220014e-01 9.98048306e-01 3.49942921e-03 8.39016633e-04 6.22732623e-04 4.56514269e-01 1.03082126e-02 2.52867147e-04 2.69659096e-04 1.30685174e-03 6.14447653e-01 7.78287888e-01 7.58878708e-01 7.24223375e-01 6.94909453e-01 6.65664256e-01 6.33460104e-01 5.92804790e-01 5.25003433e-01 4.01945591e-01 2.38928571e-01 1.47914872e-01 1.81580812e-01 4.43423182e-01 8.60777736e-01 9.71681714e-01 9.89056885e-01 9.90971267e-01 9.87847149e-01 9.89894211e-01 9.96213496e-01 9.97442603e-01 5.26529625e-02 2.02940335e-03 1.35905028e-03 1.75002241e-03 3.82344395e-01 7.74258864e-04 2.75702943e-04 2.54626619e-04 1.01162344e-02 7.39621937e-01 7.69623816e-01 7.30701566e-01 6.89459682e-01 6.59402966e-01 6.34673476e-01 6.07749641e-01 5.71914852e-01 5.15802979e-01 4.22399312e-01 2.85794616e-01 1.65770218e-01 1.36446267e-01 2.35810712e-01 5.79480708e-01 9.10430849e-01 9.80327547e-01 9.92540061e-01 9.95474398e-01 9.96649384e-01 9.96513724e-01 8.51092398e-01 1.05125615e-02 2.22655293e-03 2.38713087e-03 1.03818038e-02 3.35103869e-01 3.29981238e-04 3.50047514e-04 3.50372662e-04 4.54207391e-01 7.84186423e-01 7.42518842e-01 6.87359273e-01 6.48591220e-01 6.24512076e-01 6.06935918e-01 5.87015033e-01 5.57258248e-01 5.11085629e-01 4.41385269e-01 3.42835248e-01 2.29029506e-01 1.59652203e-01 1.81469142e-01 3.56280088e-01 7.17307746e-01 9.36939776e-01 9.85146224e-01 9.94328678e-01 9.96584415e-01 9.96446788e-01 9.48194087e-01 4.44096699e-03 5.69556886e-03 8.12712777e-03 6.98021501e-02 3.90508980e-01 2.44083785e-04 2.78380321e-04 8.14124767e-04 7.15937436e-01 7.56308019e-01 6.93708360e-01 6.40329182e-01 6.10673845e-01 5.94037652e-01 5.83263934e-01 5.70621550e-01 5.48353553e-01 5.11254609e-01 4.57454026e-01 3.86576414e-01 2.99382806e-01 2.19250336e-01 1.99815616e-01 2.89804369e-01 5.15037894e-01 7.80973911e-01 9.34923530e-01 9.80861068e-01 9.92016375e-01 9.94785786e-01 9.92996454e-01 9.56559777e-01 6.26377046e-01 5.88134348e-01 8.90389323e-01 7.88340688e-01 2.08813697e-04 2.41229820e-04 9.03647393e-03 7.98129559e-01 7.07153857e-01 6.40103459e-01 6.00898027e-01 5.79733729e-01 5.67381322e-01 5.61093390e-01 5.56400418e-01 5.45301259e-01 5.21467149e-01 4.83785212e-01 4.33816791e-01 3.73574704e-01 3.15159470e-01 2.96790540e-01 3.62803876e-01 4.96782571e-01 6.40136361e-01 7.83617735e-01 8.95541728e-01 9.53927219e-01 9.77607667e-01 9.85838950e-01 9.87121820e-01 9.84581351e-01 9.80343878e-01 9.80935514e-01 9.31417942e-01 1.59570904e-04 1.86885052e-04 6.81078970e-01 8.36000800e-01 6.60389721e-01 6.06082797e-01 5.82572281e-01 5.63978374e-01 5.49250305e-01 5.44179916e-01 5.51773250e-01 5.67340672e-01 5.81102252e-01 5.85371256e-01 5.77642977e-01 5.59025526e-01 5.36445081e-01 5.29106021e-01 5.53852201e-01 5.89180648e-01 6.17525935e-01 6.56891644e-01 7.12150276e-01 7.64201462e-01 7.98396409e-01 8.19690168e-01 8.43172014e-01 8.71927321e-01 8.95942807e-01 9.13557589e-01 8.83795857e-01 2.65355891e-04 1.72066706e-04 9.18920755e-01 7.62691140e-01 6.99914277e-01 6.70995593e-01 6.52067721e-01 6.37410879e-01 6.26960158e-01 6.24793708e-01 6.35635376e-01 6.60099506e-01 6.92631304e-01 7.24393249e-01 7.47925818e-01 7.58134186e-01 7.51509190e-01 7.29093730e-01 7.00427175e-01 6.76079392e-01 6.61598444e-01 6.58770323e-01 6.63900912e-01 6.65381134e-01 6.47025347e-01 6.06206417e-01 5.76638460e-01 5.99570632e-01 6.60142779e-01 7.06689179e-01 7.40494311e-01 
