# vtk DataFile Version 2.0
results/iter4.vtk, Created by Freefem++ 
ASCII
DATASET UNSTRUCTURED_GRID
POINTS 961 float
0 0 0
0.033333333 0 0
0.066666667 0 0
0.1 0 0
0.13333333 0 0
0.16666667 0 0
0.2 0 0
0.23333333 0 0
0.26666667 0 0
0.3 0 0
0.33333333 0 0
0.36666667 0 0
0.4 0 0
0.43333333 0 0
0.46666667 0 0
0.5 0 0
0.53333333 0 0
0.56666667 0 0
0.6 0 0
0.63333333 0 0
0.66666667 0 0
0.7 0 0
0.73333333 0 0
0.76666667 0 0
0.8 0 0
0.83333333 0 0
0.86666667 0 0
0.9 0 0
0.93333333 0 0
0.96666667 0 0
1 0 0
0 0.033333333 0
0.033333333 0.033333333 0
0.066666667 0.033333333 0
0.1 0.033333333 0
0.13333333 0.033333333 0
0.16666667 0.033333333 0
0.2 0.033333333 0
0.23333333 0.033333333 0
0.26666667 0.033333333 0
0.3 0.033333333 0
0.33333333 0.033333333 0
0.36666667 0.033333333 0
0.4 0.033333333 0
0.43333333 0.033333333 0
0.46666667 0.033333333 0
0.5 0.033333333 0
0.53333333 0.033333333 0
0.56666667 0.033333333 0
0.6 0.033333333 0
0.63333333 0.033333333 0
0.66666667 0.033333333 0
0.7 0.033333333 0
0.73333333 0.033333333 0
0.76666667 0.033333333 0
0.8 0.033333333 0
0.83333333 0.033333333 0
0.86666667 0.033333333 0
0.9 0.033333333 0
0.93333333 0.033333333 0
0.96666667 0.033333333 0
1 0.033333333 0
0 0.066666667 0
0.033333333 0.066666667 0
0.066666667 0.066666667 0
0.1 0.066666667 0
0.13333333 0.066666667 0
0.16666667 0.066666667 0
0.2 0.066666667 0
0.23333333 0.066666667 0
0.26666667 0.066666667 0
0.3 0.066666667 0
0.33333333 0.066666667 0
0.36666667 0.066666667 0
0.4 0.066666667 0
0.43333333 0.066666667 0
0.46666667 0.066666667 0
0.5 0.066666667 0
0.53333333 0.066666667 0
0.56666667 0.066666667 0
0.6 0.066666667 0
0.63333333 0.066666667 0
0.66666667 0.066666667 0
0.7 0.066666667 0
0.73333333 0.066666667 0
0.76666667 0.066666667 0
0.8 0.066666667 0
0.83333333 0.066666667 0
0.86666667 0.066666667 0
0.9 0.066666667 0
0.93333333 0.066666667 0
0.96666667 0.066666667 0
1 0.066666667 0
0 0.1 0
0.033333333 0.1 0
0.066666667 0.1 0
0.1 0.1 0
0.13333333 0.1 0
0.16666667 0.1 0
0.2 0.1 0
0.23333333 0.1 0
0.26666667 0.1 0
0.3 0.1 0
0.33333333 0.1 0
0.36666667 0.1 0
0.4 0.1 0
0.43333333 0.1 0
0.46666667 0.1 0
0.5 0.1 0
0.53333333 0.1 0
0.56666667 0.1 0
0.6 0.1 0
0.63333333 0.1 0
0.66666667 0.1 0
0.7 0.1 0
0.73333333 0.1 0
0.76666667 0.1 0
0.8 0.1 0
0.83333333 0.1 0
0.86666667 0.1 0
0.9 0.1 0
0.93333333 0.1 0
0.96666667 0.1 0
1 0.1 0
0 0.13333333 0
0.033333333 0.13333333 0
0.066666667 0.13333333 0
0.1 0.13333333 0
0.13333333 0.13333333 0
0.16666667 0.13333333 0
0.2 0.13333333 0
0.23333333 0.13333333 0
0.26666667 0.13333333 0
0.3 0.13333333 0
0.33333333 0.13333333 0
0.36666667 0.13333333 0
0.4 0.13333333 0
0.43333333 0.13333333 0
0.46666667 0.13333333 0
0.5 0.13333333 0
0.53333333 0.13333333 0
0.56666667 0.13333333 0
0.6 0.13333333 0
0.63333333 0.13333333 0
0.66666667 0.13333333 0
0.7 0.13333333 0
0.73333333 0.13333333 0
0.76666667 0.13333333 0
0.8 0.13333333 0
0.83333333 0.13333333 0
0.86666667 0.13333333 0
0.9 0.13333333 0
0.93333333 0.13333333 0
0.96666667 0.13333333 0
1 0.13333333 0
0 0.16666667 0
0.033333333 0.16666667 0
0.066666667 0.16666667 0
0.1 0.16666667 0
0.13333333 0.16666667 0
0.16666667 0.16666667 0
0.2 0.16666667 0
0.23333333 0.16666667 0
0.26666667 0.16666667 0
0.3 0.16666667 0
0.33333333 0.16666667 0
0.36666667 0.16666667 0
0.4 0.16666667 0
0.43333333 0.16666667 0
0.46666667 0.16666667 0
0.5 0.16666667 0
0.53333333 0.16666667 0
0.56666667 0.16666667 0
0.6 0.16666667 0
0.63333333 0.16666667 0
0.66666667 0.16666667 0
0.7 0.16666667 0
0.73333333 0.16666667 0
0.76666667 0.16666667 0
0.8 0.16666667 0
0.83333333 0.16666667 0
0.86666667 0.16666667 0
0.9 0.16666667 0
0.93333333 0.16666667 0
0.96666667 0.16666667 0
1 0.16666667 0
0 0.2 0
0.033333333 0.2 0
0.066666667 0.2 0
0.1 0.2 0
0.13333333 0.2 0
0.16666667 0.2 0
0.2 0.2 0
0.23333333 0.2 0
0.26666667 0.2 0
0.3 0.2 0
0.33333333 0.2 0
0.36666667 0.2 0
0.4 0.2 0
0.43333333 0.2 0
0.46666667 0.2 0
0.5 0.2 0
0.53333333 0.2 0
0.56666667 0.2 0
0.6 0.2 0
0.63333333 0.2 0
0.66666667 0.2 0
0.7 0.2 0
0.73333333 0.2 0
0.76666667 0.2 0
0.8 0.2 0
0.83333333 0.2 0
0.86666667 0.2 0
0.9 0.2 0
0.93333333 0.2 0
0.96666667 0.2 0
1 0.2 0
0 0.23333333 0
0.033333333 0.23333333 0
0.066666667 0.23333333 0
0.1 0.23333333 0
0.13333333 0.23333333 0
0.16666667 0.23333333 0
0.2 0.23333333 0
0.23333333 0.23333333 0
0.26666667 0.23333333 0
0.3 0.23333333 0
0.33333333 0.23333333 0
0.36666667 0.23333333 0
0.4 0.23333333 0
0.43333333 0.23333333 0
0.46666667 0.23333333 0
0.5 0.23333333 0
0.53333333 0.23333333 0
0.56666667 0.23333333 0
0.6 0.23333333 0
0.63333333 0.23333333 0
0.66666667 0.23333333 0
0.7 0.23333333 0
0.73333333 0.23333333 0
0.76666667 0.23333333 0
0.8 0.23333333 0
0.83333333 0.23333333 0
0.86666667 0.23333333 0
0.9 0.23333333 0
0.93333333 0.23333333 0
0.96666667 0.23333333 0
1 0.23333333 0
0 0.26666667 0
0.033333333 0.26666667 0
0.066666667 0.26666667 0
0.1 0.26666667 0
0.13333333 0.26666667 0
0.16666667 0.26666667 0
0.2 0.26666667 0
0.23333333 0.26666667 0
0.26666667 0.26666667 0
0.3 0.26666667 0
0.33333333 0.26666667 0
0.36666667 0.26666667 0
0.4 0.26666667 0
0.43333333 0.26666667 0
0.46666667 0.26666667 0
0.5 0.26666667 0
0.53333333 0.26666667 0
0.56666667 0.26666667 0
0.6 0.26666667 0
0.63333333 0.26666667 0
0.66666667 0.26666667 0
0.7 0.26666667 0
0.73333333 0.26666667 0
0.76666667 0.26666667 0
0.8 0.26666667 0
0.83333333 0.26666667 0
0.86666667 0.26666667 0
0.9 0.26666667 0
0.93333333 0.26666667 0
0.96666667 0.26666667 0
1 0.26666667 0
0 0.3 0
0.033333333 0.3 0
0.066666667 0.3 0
0.1 0.3 0
0.13333333 0.3 0
0.16666667 0.3 0
0.2 0.3 0
0.23333333 0.3 0
0.26666667 0.3 0
0.3 0.3 0
0.33333333 0.3 0
0.36666667 0.3 0
0.4 0.3 0
0.43333333 0.3 0
0.46666667 0.3 0
0.5 0.3 0
0.53333333 0.3 0
0.56666667 0.3 0
0.6 0.3 0
0.63333333 0.3 0
0.66666667 0.3 0
0.7 0.3 0
0.73333333 0.3 0
0.76666667 0.3 0
0.8 0.3 0
0.83333333 0.3 0
0.86666667 0.3 0
0.9 0.3 0
0.93333333 0.3 0
0.96666667 0.3 0
1 0.3 0
0 0.33333333 0
0.033333333 0.33333333 0
0.066666667 0.33333333 0
0.1 0.33333333 0
0.13333333 0.33333333 0
0.16666667 0.33333333 0
0.2 0.33333333 0
0.23333333 0.33333333 0
0.26666667 0.33333333 0
0.3 0.33333333 0
0.33333333 0.33333333 0
0.36666667 0.33333333 0
0.4 0.33333333 0
0.43333333 0.33333333 0
0.46666667 0.33333333 0
0.5 0.33333333 0
0.53333333 0.33333333 0
0.56666667 0.33333333 0
0.6 0.33333333 0
0.63333333 0.33333333 0
0.66666667 0.33333333 0
0.7 0.33333333 0
0.73333333 0.33333333 0
0.76666667 0.33333333 0
0.8 0.33333333 0
0.83333333 0.33333333 0
0.86666667 0.33333333 0
0.9 0.33333333 0
0.93333333 0.33333333 0
0.96666667 0.33333333 0
1 0.33333333 0
0 0.36666667 0
0.033333333 0.36666667 0
0.066666667 0.36666667 0
0.1 0.36666667 0
0.13333333 0.36666667 0
0.16666667 0.36666667 0
0.2 0.36666667 0
0.23333333 0.36666667 0
0.26666667 0.36666667 0
0.3 0.36666667 0
0.33333333 0.36666667 0
0.36666667 0.36666667 0
0.4 0.36666667 0
0.43333333 0.36666667 0
0.46666667 0.36666667 0
0.5 0.36666667 0
0.53333333 0.36666667 0
0.56666667 0.36666667 0
0.6 0.36666667 0
0.63333333 0.36666667 0
0.66666667 0.36666667 0
0.7 0.36666667 0
0.73333333 0.36666667 0
0.76666667 0.36666667 0
0.8 0.36666667 0
0.83333333 0.36666667 0
0.86666667 0.36666667 0
0.9 0.36666667 0
0.93333333 0.36666667 0
0.96666667 0.36666667 0
1 0.36666667 0
0 0.4 0
0.033333333 0.4 0
0.066666667 0.4 0
0.1 0.4 0
0.13333333 0.4 0
0.16666667 0.4 0
0.2 0.4 0
0.23333333 0.4 0
0.26666667 0.4 0
0.3 0.4 0
0.33333333 0.4 0
0.36666667 0.4 0
0.4 0.4 0
0.43333333 0.4 0
0.46666667 0.4 0
0.5 0.4 0
0.53333333 0.4 0
0.56666667 0.4 0
0.6 0.4 0
0.63333333 0.4 0
0.66666667 0.4 0
0.7 0.4 0
0.73333333 0.4 0
0.76666667 0.4 0
0.8 0.4 0
0.83333333 0.4 0
0.86666667 0.4 0
0.9 0.4 0
0.93333333 0.4 0
0.96666667 0.4 0
1 0.4 0
0 0.43333333 0
0.033333333 0.43333333 0
0.066666667 0.43333333 0
0.1 0.43333333 0
0.13333333 0.43333333 0
0.16666667 0.43333333 0
0.2 0.43333333 0
0.23333333 0.43333333 0
0.26666667 0.43333333 0
0.3 0.43333333 0
0.33333333 0.43333333 0
0.36666667 0.43333333 0
0.4 0.43333333 0
0.43333333 0.43333333 0
0.46666667 0.43333333 0
0.5 0.43333333 0
0.53333333 0.43333333 0
0.56666667 0.43333333 0
0.6 0.43333333 0
0.63333333 0.43333333 0
0.66666667 0.43333333 0
0.7 0.43333333 0
0.73333333 0.43333333 0
0.76666667 0.43333333 0
0.8 0.43333333 0
0.83333333 0.43333333 0
0.86666667 0.43333333 0
0.9 0.43333333 0
0.93333333 0.43333333 0
0.96666667 0.43333333 0
1 0.43333333 0
0 0.46666667 0
0.033333333 0.46666667 0
0.066666667 0.46666667 0
0.1 0.46666667 0
0.13333333 0.46666667 0
0.16666667 0.46666667 0
0.2 0.46666667 0
0.23333333 0.46666667 0
0.26666667 0.46666667 0
0.3 0.46666667 0
0.33333333 0.46666667 0
0.36666667 0.46666667 0
0.4 0.46666667 0
0.43333333 0.46666667 0
0.46666667 0.46666667 0
0.5 0.46666667 0
0.53333333 0.46666667 0
0.56666667 0.46666667 0
0.6 0.46666667 0
0.63333333 0.46666667 0
0.66666667 0.46666667 0
0.7 0.46666667 0
0.73333333 0.46666667 0
0.76666667 0.46666667 0
0.8 0.46666667 0
0.83333333 0.46666667 0
0.86666667 0.46666667 0
0.9 0.46666667 0
0.93333333 0.46666667 0
0.96666667 0.46666667 0
1 0.46666667 0
0 0.5 0
0.033333333 0.5 0
0.066666667 0.5 0
0.1 0.5 0
0.13333333 0.5 0
0.16666667 0.5 0
0.2 0.5 0
0.23333333 0.5 0
0.26666667 0.5 0
0.3 0.5 0
0.33333333 0.5 0
0.36666667 0.5 0
0.4 0.5 0
0.43333333 0.5 0
0.46666667 0.5 0
0.5 0.5 0
0.53333333 0.5 0
0.56666667 0.5 0
0.6 0.5 0
0.63333333 0.5 0
0.66666667 0.5 0
0.7 0.5 0
0.73333333 0.5 0
0.76666667 0.5 0
0.8 0.5 0
0.83333333 0.5 0
0.86666667 0.5 0
0.9 0.5 0
0.93333333 0.5 0
0.96666667 0.5 0
1 0.5 0
0 0.53333333 0
0.033333333 0.53333333 0
0.066666667 0.53333333 0
0.1 0.53333333 0
0.13333333 0.53333333 0
0.16666667 0.53333333 0
0.2 0.53333333 0
0.23333333 0.53333333 0
0.26666667 0.53333333 0
0.3 0.53333333 0
0.33333333 0.53333333 0
0.36666667 0.53333333 0
0.4 0.53333333 0
0.43333333 0.53333333 0
0.46666667 0.53333333 0
0.5 0.53333333 0
0.53333333 0.53333333 0
0.56666667 0.53333333 0
0.6 0.53333333 0
0.63333333 0.53333333 0
0.66666667 0.53333333 0
0.7 0.53333333 0
0.73333333 0.53333333 0
0.76666667 0.53333333 0
0.8 0.53333333 0
[...]
CELL_DATA 1920
Scalars  Label int 1
LOOKUP_TABLE FreeFempp_table
0
0
0
0
0
0
0
0
0
0
0
0
0
0
0
0
0
0
0
0
0
0
0
0
0
0
0
0
0
0
0
0
0
0
0
0
0
0
0
0
0
0
0
0
0
0
0
0
0
0
0
0
0
0
0
0
0
0
0
0
0
0
0
0
0
0
0
0
0
0
0
0
0
0
0
0
0
0
0
0
0
0
0
0
0
0
0
0
0
0
0
0
0
0
0
0
0
0
0
0
0
0
0
0
0
0
0
0
0
0
0
0
0
0
0
0
0
0
0
0
0
0
0
0
0
0
0
0
0
0
0
0
0
0
0
0
0
0
0
0
0
0
0
0
0
0
0
0
0
0
0
0
0
0
0
0
0
0
0
0
0
0
0
0
0
0
0
0
0
0
0
0
0
0
0
0
0
0
0
0
0
0
0
0
0
0
0
0
0
0
0
0
0
0
0
0
0
0
0
0
0
0
0
0
0
0
0
0
0
0
0
0
0
0
0
0
0
0
0
0
0
0
0
0
0
0
0
0
0
0
0
0
0
0
0
0
0
0
0
0
0
0
0
0
0
0
0
0
0
0
0
0
0
0
0
0
0
0
0
0
0
0
0
0
0
0
0
0
0
0
0
0
0
0
0
0
0
0
0
0
0
0
0
0
0
0
0
0
0
0
0
0
0
0
0
0
0
0
0
0
0
0
0
0
0
0
0
0
0
0
0
0
0
0
0
0
0
0
0
0
0
0
0
0
0
0
0
0
0
0
0
0
0
0
0
0
0
0
0
0
0
0
0
0
0
0
0
0
0
0
0
0
0
0
0
0
0
0
0
0
0
0
0
0
0
0
0
0
0
0
0
0
0
0
0
0
0
0
0
0
0
0
0
0
0
0
0
0
0
0
0
0
0
0
0
0
0
0
0
0
0
0
0
0
0
0
0
0
0
0
0
0
0
0
0
0
0
0
0
0
0
0
0
0
0
0
0
0
0
0
0
0
0
0
0
0
0
0
0
0
0
0
0
0
0
0
0
0
0
0
0
0
0
0
0
0
0
0
0
0
0
0
0
0
0
0
0
0
0
0
0
0
0
0
0
0
0
0
0
0
0
0
0
0
0
0
0
0
0
0
0
0
0
0
0
0
0
0
0
0
0
0
0
0
0
0
0
0
0
0
0
0
0
0
0
0
0
0
0
0
0
0
0
0
0
0
0
0
0
0
0
0
0
0
0
0
0
0
0
0
0
0
0
0
0
0
0
0
0
0
0
0
0
0
0
0
0
0
0
0
0
0
0
0
0
0
0
0
0
0
0
0
0
0
0
0
0
0
0
0
0
0
0
0
0
0
0
0
0
0
0
0
0
0
0
0
0
0
0
0
0
0
0
0
0
0
0
0
0
0
0
0
0
0
0
0
0
0
0
0
0
0
0
0
0
0
0
0
0
0
0
0
0
0
0
0
0
0
0
0
0
0
0
0
0
0
0
0
0
0
0
0
0
0
0
0
0
0
0
0
0
0
0
0
0
0
0
0
0
0
0
0
0
0
0
0
0
0
0
0
0
0
0
0
0
0
0
0
0
0
0
0
0
0
0
0
0
0
0
0
0
0
0
0
0
0
0
0
0
0
0
0
0
0
0
0
0
0
0
0
0
0
0
0
0
0
0
0
0
0
0
0
0
0
0
0
0
0
0
0
0
0
0
0
0
0
0
0
0
0
0
0
0
0
0
0
0
0
0
0
0
0
0
0
0
0
0
0
0
0
0
0
0
0
0
0
0
0
0
0
0
0
0
0
0
0
0
0
0
0
0
0
0
0
0
0
0
0
0
0
0
0
0
0
0
0
0
0
0
0
0
0
0
0
0
0
0
0
0
0
0
0
0
0
0
0
0
0
0
0
0
0
0
0
0
0
0
0
0
0
0
0
0
0
0
0
0
0
0
0
0
0
0
0
0
0
0
0
0
0
0
0
0
0
0
0
0
0
0
0
0
0
0
0
0
0
0
0
0
0
0
0
0
0
0
0
0
0
0
0
0
0
0
0
0
0
0
0
0
0
0
0
0
0
0
0
0
0
0
0
0
0
0
0
0
0
0
0
0
0
0
0
0
0
0
0
0
0
0
0
0
0
0
0
0
0
0
0
0
0
0
0
0
0
0
0
0
0
0
0
0
0
0
0
0
0
0
0
0
0
0
0
0
0
0
0
0
0
0
0
0
0
0
0
0
0
0
0
0
0
0
0
0
0
0
0
0
0
0
0
0
0
0
0
0
0
0
0
0
0
0
0
0
0
0
0
0
0
0
0
0
0
0
0
0
0
0
0
0
0
0
0
0
0
0
0
0
0
0
0
0
0
0
0
0
0
0
0
0
0
0
0
0
0
0
0
0
0
0
0
0
0
0
0
0
0
0
0
0
0
0
0
0
0
0
0
0
0
0
0
0
0
0
0
0
0
0
0
0
0
0
0
0
0
0
0
0
0
0
0
0
0
0
0
0
0
0
0
0
0
0
0
0
0
0
0
0
0
0
0
0
0
0
0
0
0
0
0
0
0
0
0
0
0
0
0
0
0
0
0
0
0
0
0
0
0
0
0
0
0
0
0
0
0
0
0
0
0
0
0
0
0
0
0
0
0
0
0
0
0
0
0
0
0
0
0
0
0
0
0
0
0
0
0
0
0
0
0
0
0
0
0
0
0
0
0
0
0
0
0
0
0
0
0
0
0
0
0
0
0
0
0
0
0
0
0
0
0
0
0
0
0
0
0
0
0
0
0
0
0
0
0
0
0
0
0
0
0
0
0
0
0
0
0
0
0
0
0
0
0
0
0
0
0
0
0
0
0
0
0
0
0
0
0
0
0
0
0
0
0
0
0
0
0
0
0
0
0
0
0
0
0
0
0
0
0
0
0
0
0
0
0
0
0
0
0
0
0
0
0
0
0
0
0
0
0
0
0
0
0
0
0
0
0
0
0
0
0
0
0
0
0
0
0
0
0
0
0
0
0
0
0
0
0
0
0
0
0
0
0
0
0
0
0
0
0
0
0
0
0
0
0
0
0
0
0
0
0
0
0
0
0
0
0
0
0
0
0
0
0
0
0
0
0
0
0
0
0
0
0
0
0
0
0
0
0
0
0
0
0
0
0
0
0
0
0
0
0
0
0
0
0
0
0
0
0
0
0
0
0
0
0
0
0
0
0
0
0
0
0
0
0
0
0
0
0
0
0
0
0
0
0
0
0
0
0
0
0
0
0
0
0
0
0
0
0
0
0
0
0
0
0
0
0
0
0
0
0
0
0
0
0
0
0
0
0
0
0
0
0
0
0
0
0
0
0
0
0
0
0
0
0
0
0
0
0
0
0
0
0
0
0
0
0
0
0
0
0
0
0
0
0
0
0
0
0
0
0
0
0
0
0
0
0
0
0
0
0
0
0
0
0
0
0
0
0
0
0
0
0
0
0
0
0
0
0
0
0
0
0
0
0
0
0
0
0
0
0
0
0
0
0
0
0
0
0
0
0
0
0
0
0
0
0
0
0
0
0
0
0
0
0
0
0
0
0
0
0
0
0
0
0
0
0
0
0
0
0
0
0
0
0
0
0
0
0
0
0
0
0
0
0
0
0
0
0
0
0
0
0
0
0
0
0
0
0
0
0
0
0
0
0
0
0
0
0
0
0
0
0
0
0
0
0
0
0
0
0
0
0
0
0
0
0
0
0
0
0
0
0
0
0
0
0
0
0
0
0
0
0
0
0
0
0
0
0
0
0
0
0
0
0
0
0
0
0
0
0
0
0
0
0
0
0
0
0
0
0
0
0
0
0
0
0
0
0
0
0
0
0
0
0
0
0
0
0
0
0
0
0
0
0
0
0
0
0
0
0
0
0
0
0
0
0
0
0
0
0
0
0
0
0
0
0
0
0
0
0
0
0
0
0
0
0
0
0
0
0
0
0
0
0
0
0
0
0
0
0
0
0
0
0
0
0
0
0
0
0
0
0
0
0
0
0
0
0
0
0
0
0
0
0
0
0
0
0
0
0
0
0
0
0
0
0
0
0
0
0
0
0
0
0
0
0
0
0
0
0
0
0
1
1
1
1
1
1
1
1
1
1
1
1
1
1
1
1
1
1
1
1
1
1
1
1
1
1
1
1
1
1
2
2
2
2
2
2
2
2
2
2
2
2
2
2
2
2
2
2
2
2
2
2
2
2
2
2
2
2
2
2
3
3
3
3
3
3
3
3
3
3
3
3
3
3
3
3
3
3
3
3
3
3
3
3
3
3
3
3
3
3
4
4
4
4
4
4
4
4
4
4
4
4
4
4
4
4
4
4
4
4
4
4
4
4
4
4
4
4
4
4

LOOKUP_TABLE FreeFempp_table 5
1.00000000 0.00000000 0.00000000 1.00000000
1.00000000 1.00000000 0.00000000 1.00000000
1.00000000 0.00000000 1.00000000 1.00000000
0.00000000 1.00000000 0.00000000 1.00000000
0.00000000 1.00000000 1.00000000 1.00000000

POINT_DATA 961
FIELD FieldData 1
Density 1 961 float
4.37428534e-01 3.33836116e-03 1.18761287e-04 1.28002299e-04 4.42420924e-03 2.51277797e-02 7.22325966e-02 1.54028758e-01 2.75940686e-01 4.61315840e-01 7.65399694e-01 8.02179337e-01 1.16102293e-01 4.09836844e-02 1.02302171e-01 3.78297389e-01 7.21022189e-01 9.01464939e-01 9.38642144e-01 9.42688227e-01 9.36583102e-01 8.99924755e-01 8.02475452e-01 7.25597084e-01 7.37496674e-01 6.88868165e-01 5.30944824e-01 4.21868235e-01 4.58883107e-01 6.41484201e-01 7.03556657e-01 2.58755744e-01 3.78568610e-03 1.14988135e-04 1.14486516e-04 1.73703034e-03 8.35899077e-03 1.69553068e-02 2.79259086e-02 5.83245233e-02 1.68043539e-01 5.95569193e-01 7.78051257e-01 6.52316660e-02 1.08848866e-02 1.99844446e-02 1.39989153e-01 5.77841461e-01 9.30279553e-01 9.74411130e-01 9.72349465e-01 9.63260233e-01 9.28008080e-01 7.73543537e-01 5.88142455e-01 6.14429235e-01 6.58332765e-01 4.86975878e-01 2.59719461e-01 2.34997988e-01 4.94336486e-01 7.35089004e-01 2.07007810e-01 5.53079788e-03 1.14596580e-04 1.13755545e-04 7.47132523e-04 4.14118916e-03 8.76375940e-03 1.36521626e-02 2.79530007e-02 1.07896022e-01 4.77349728e-01 6.38620079e-01 8.51353630e-02 1.19730774e-02 1.63143855e-02 1.16286270e-01 6.25614583e-01 9.01428044e-01 9.48786199e-01 9.44811583e-01 9.05206919e-01 8.02311659e-01 5.34164727e-01 3.41382593e-01 3.80276620e-01 5.66370308e-01 6.17737293e-01 4.45075989e-01 2.99460143e-01 4.95320827e-01 7.46322513e-01 1.79620519e-01 6.96954550e-03 1.20727665e-04 1.13499380e-04 1.92861829e-04 3.12011573e-03 9.06203315e-03 1.89760849e-02 5.12349494e-02 1.89833999e-01 4.60501999e-01 4.87899482e-01 9.96706411e-02 1.55429495e-02 1.60004515e-02 8.22147727e-02 5.70699275e-01 9.11205471e-01 9.63249028e-01 9.42681491e-01 9.11230981e-01 8.32904696e-01 5.72584152e-01 2.68730849e-01 2.21263021e-01 3.33853275e-01 4.74350750e-01 4.40196842e-01 3.69638175e-01 5.11019826e-01 7.25057960e-01 1.89211756e-01 9.06214118e-03 1.42345758e-04 1.15699993e-04 1.34504488e-04 2.67657614e-03 8.79322644e-03 2.04075389e-02 6.64694980e-02 2.48939425e-01 4.20146137e-01 3.12967539e-01 9.10907835e-02 1.94686092e-02 1.46593126e-02 6.86836839e-02 4.35081542e-01 8.95051181e-01 9.72060978e-01 9.71357346e-01 9.16812539e-01 8.23435009e-01 6.35347426e-01 2.90969968e-01 1.83511287e-01 2.82224655e-01 3.92767012e-01 3.07187319e-01 2.44598687e-01 4.15660471e-01 6.84271336e-01 2.83651114e-01 1.43009024e-02 2.07352947e-04 1.17724572e-04 1.23457037e-04 3.24448640e-03 1.24152917e-02 2.97770575e-02 8.16705078e-02 2.61054963e-01 4.03051287e-01 2.82010317e-01 9.71115753e-02 2.55866833e-02 1.32468566e-02 4.25910875e-02 5.44244230e-01 8.70730281e-01 9.62552905e-01 9.80821729e-01 9.72899377e-01 9.66802597e-01 8.77027869e-01 2.68365234e-01 1.33424059e-01 2.03709185e-01 3.70048612e-01 2.34994352e-01 1.17450178e-01 2.01538980e-01 5.55111647e-01 5.39282799e-01 3.15331966e-02 4.59024304e-04 1.16916905e-04 1.19248747e-04 4.82936995e-03 2.95049623e-02 1.00749426e-01 2.59204894e-01 4.58529532e-01 5.46274424e-01 4.47441489e-01 2.14546725e-01 6.04731627e-02 1.99620724e-02 3.05071604e-02 4.47555304e-01 9.45894241e-01 9.54698861e-01 9.55039203e-01 9.58885014e-01 9.69387233e-01 9.64967668e-01 8.49955440e-01 2.31192052e-01 1.40822172e-01 3.02961230e-01 2.16262594e-01 6.56584501e-02 8.99281427e-02 3.64960700e-01 7.27103353e-01 9.37058404e-02 7.97513057e-04 1.15512186e-04 1.16320378e-04 5.80371311e-03 7.25731030e-02 3.20691139e-01 5.85664988e-01 7.12211430e-01 7.17977762e-01 6.18622661e-01 4.11448359e-01 1.82537541e-01 6.58528730e-02 5.24126999e-02 3.29120189e-01 9.49809492e-01 9.69050348e-01 9.47992027e-01 7.88815975e-01 8.20404768e-01 9.55039263e-01 9.31344926e-01 6.07371807e-01 2.96721846e-01 4.09423769e-01 2.31456503e-01 5.63783646e-02 5.28204553e-02 2.34537259e-01 8.30890954e-01 1.59210220e-01 1.18681078e-03 1.14278693e-04 1.15028597e-04 7.54600251e-03 1.11047424e-01 4.13424283e-01 6.38813734e-01 7.19616473e-01 6.97011352e-01 5.73238909e-01 3.84695888e-01 2.32434511e-01 1.53618515e-01 1.43565580e-01 4.70481455e-01 9.28556621e-01 9.74254549e-01 9.65493619e-01 7.84325778e-01 6.82069242e-01 7.28676558e-01 5.94203413e-01 5.51117182e-01 3.12648207e-01 4.86544460e-01 4.13963079e-01 5.68666644e-02 4.06847820e-02 1.87239170e-01 4.49172735e-01 5.55112660e-02 1.26888347e-03 1.14056871e-04 1.14441798e-04 5.91595145e-03 8.83993953e-02 3.07772547e-01 5.05104423e-01 5.78898013e-01 5.30269146e-01 3.92818540e-01 2.49944821e-01 1.73963010e-01 1.70092553e-01 2.63060272e-01 6.50846541e-01 9.28729177e-01 9.70204949e-01 9.72515881e-01 8.92615855e-01 6.90861762e-01 7.46110439e-01 6.13039851e-01 3.78556252e-01 2.63338894e-01 3.37122947e-01 4.53324050e-01 5.21732755e-02 3.38254645e-02 1.59944028e-01 1.56403527e-01 1.81526430e-02 1.60812971e-03 1.14073184e-04 1.14455783e-04 3.29143438e-03 5.87831028e-02 2.22483680e-01 3.68287206e-01 4.00722593e-01 3.33961934e-01 2.30455816e-01 1.51008084e-01 1.17039129e-01 1.33968413e-01 2.55360484e-01 6.29456520e-01 9.12051320e-01 9.67617214e-01 9.78361487e-01 9.54394281e-01 8.18272054e-01 7.06072211e-01 5.83303154e-01 3.92161697e-01 2.86656827e-01 2.85008967e-01 3.68611008e-01 4.52905372e-02 2.82833092e-02 1.26483500e-01 4.37049538e-01 3.66402827e-02 1.86186912e-03 1.13480673e-04 1.13574642e-04 2.51365243e-03 4.71959263e-02 2.16584012e-01 3.63511622e-01 3.68797392e-01 2.80800462e-01 1.82198480e-01 1.17627144e-01 9.21231210e-02 1.06748216e-01 2.04592541e-01 4.93501365e-01 8.05807471e-01 9.40628350e-01 9.74356771e-01 9.75617886e-01 9.40448821e-01 8.40462744e-01 6.29040420e-01 4.01599020e-01 3.23875219e-01 3.61885816e-01 4.02894765e-01 5.74386790e-02 2.30915584e-02 1.11795902e-01 6.99984908e-01 1.72391221e-01 3.32664163e-03 1.13797265e-04 1.13358350e-04 2.44077528e-03 7.62781054e-02 3.60171884e-01 4.81211454e-01 4.59276974e-01 3.49101365e-01 2.25728437e-01 1.42801523e-01 1.06587343e-01 1.14798419e-01 1.98697627e-01 4.27338630e-01 6.81354463e-01 8.36706519e-01 9.32686567e-01 9.64088500e-01 9.59943533e-01 9.22362924e-01 8.09183955e-01 5.42629004e-01 3.69148463e-01 4.06221122e-01 4.15966392e-01 8.36727843e-02 2.21751183e-02 7.63165280e-02 7.10698724e-01 2.18463838e-01 4.17322200e-03 1.14192480e-04 1.13883194e-04 1.80898607e-03 5.14542572e-02 4.14789826e-01 5.52991033e-01 5.03276944e-01 4.00067270e-01 2.87536711e-01 2.00815871e-01 1.56181455e-01 1.62040561e-01 2.47932911e-01 4.50604260e-01 6.60668433e-01 7.75666714e-01 8.48947704e-01 9.01197612e-01 9.12186265e-01 8.79618108e-01 8.11628401e-01 6.59517765e-01 4.81319487e-01 4.40959781e-01 4.30499732e-01 1.17008947e-01 2.59541254e-02 6.16900101e-02 6.81711137e-01 1.62800193e-01 3.46775469e-03 1.14232149e-04 1.14014932e-04 1.51179102e-03 3.60211246e-02 3.58217210e-01 6.82903230e-01 5.93379200e-01 4.62472796e-01 3.47474992e-01 2.61360586e-01 2.18246967e-01 2.30188087e-01 3.23366940e-01 5.05507231e-01 6.74630165e-01 7.63565063e-01 8.18980336e-01 8.57360005e-01 8.52250934e-01 7.71045446e-01 6.35297775e-01 5.54531097e-01 5.19666374e-01 5.61822295e-01 4.79303539e-01 1.32613391e-01 3.45641151e-02 6.33733794e-02 6.05378568e-01 9.76893380e-02 2.38802563e-03 1.14473507e-04 1.14236478e-04 1.47075590e-03 3.37762795e-02 3.68684620e-01 7.87282169e-01 7.58722544e-01 6.09940588e-01 4.68801916e-01 3.55942547e-01 2.96523333e-01 3.05359066e-01 3.95704001e-01 5.52409530e-01 6.87142253e-01 7.50980139e-01 7.91530371e-01 8.37585568e-01 8.41737807e-01 7.50067651e-01 5.74852884e-01 4.82072651e-01 5.04287601e-01 5.94990253e-01 5.27372777e-01 1.45157769e-01 4.89130877e-02 8.94548818e-02 5.12405455e-01 4.94035520e-02 1.34887185e-03 1.14568946e-04 1.14436581e-04 1.50255812e-03 3.18707936e-02 3.46231759e-01 7.96488285e-01 8.12873721e-01 7.26909399e-01 6.13275230e-01 4.90322173e-01 4.07941312e-01 3.98007989e-01 4.66698706e-01 5.87750316e-01 6.92030609e-01 7.37631857e-01 7.58637011e-01 8.03744078e-01 8.31764698e-01 7.69321799e-01 6.10922039e-01 5.07680893e-01 5.27300119e-01 5.16676664e-01 4.06685054e-01 1.63625494e-01 7.71480575e-02 1.60137087e-01 4.34594214e-01 2.47302633e-02 3.63906147e-04 1.14277151e-04 1.14135903e-04 1.87867437e-03 3.54844742e-02 3.80355090e-01 7.91429460e-01 8.00332546e-01 7.43007481e-01 6.92496240e-01 6.08436108e-01 5.28204799e-01 5.01860023e-01 5.40108979e-01 6.19980812e-01 6.92428291e-01 7.22458541e-01 7.28745461e-01 7.64198601e-01 8.14374804e-01 8.03746879e-01 7.03394830e-01 5.93384266e-01 5.34356236e-01 4.73927438e-01 3.35702360e-01 1.60144970e-01 1.26267225e-01 2.84160584e-01 3.73580933e-01 1.18723633e-02 1.19716198e-04 1.12244925e-04 1.14106522e-04 2.94562569e-03 4.68781292e-02 4.37169731e-01 7.90314555e-01 7.69829690e-01 7.00544119e-01 6.89890802e-01 6.65140569e-01 6.18811131e-01 5.94326675e-01 6.09758139e-01 6.54138923e-01 6.96064949e-01 7.08209693e-01 7.03901410e-01 7.33052373e-01 8.03478658e-01 8.35479558e-01 7.85117507e-01 6.81845188e-01 5.48551261e-01 4.53012019e-01 3.86112571e-01 1.95304453e-01 1.62975550e-01 3.66916358e-01 3.39513779e-01 4.71307943e-03 1.13468966e-04 1.11954607e-04 1.18738790e-04 5.65961516e-03 7.75648132e-02 4.96224940e-01 7.57285476e-01 7.16077447e-01 6.37848377e-01 6.43674314e-01 6.66099906e-01 6.62947714e-01 6.57479048e-01 6.68166697e-01 6.92380190e-01 7.10279346e-01 7.02150166e-01 6.87680125e-01 7.15831816e-01 8.02370667e-01 8.63522351e-01 8.27705920e-01 7.33279765e-01 6.19317770e-01 4.81643111e-01 3.89718175e-01 2.46093690e-01 2.01697916e-01 3.86921465e-01 3.11513156e-01 1.43166666e-03 1.11735215e-04 1.12217320e-04 2.48164841e-04 1.24575514e-02 1.26204833e-01 5.44262767e-01 7.09698319e-01 6.37927175e-01 5.63421190e-01 5.77404737e-01 6.29574060e-01 6.62176907e-01 6.81604207e-01 7.04671979e-01 7.28815079e-01 7.36372590e-01 7.13671565e-01 6.91506326e-01 7.19303906e-01 8.03711772e-01 8.77130330e-01 8.62451613e-01 7.53561795e-01 6.64978325e-01 5.77916205e-01 3.96915078e-01 2.58176059e-01 2.38509357e-01 4.30061877e-01 2.26759031e-01 1.20990284e-04 1.10709479e-04 1.11142224e-04 1.60802412e-03 3.59087884e-02 2.24323854e-01 5.46292186e-01 6.52971506e-01 5.67485750e-01 4.90098774e-01 5.01138568e-01 5.63750088e-01 6.18785799e-01 6.61192656e-01 7.06095517e-01 7.47064769e-01 7.65327930e-01 7.54841268e-01 7.47197568e-01 7.77159989e-01 8.15860987e-01 8.52011323e-01 8.51237416e-01 7.66449094e-01 6.73063278e-01 6.01400197e-01 4.46500808e-01 2.85259992e-01 2.64645755e-01 4.74433780e-01 1.01216041e-01 1.10199850e-04 1.11200708e-04 1.14514645e-04 6.66401396e-03 9.70659405e-02 3.60068828e-01 5.58984458e-01 5.90304911e-01 5.14044464e-01 4.33718562e-01 4.31383908e-01 4.84128743e-01 5.41788995e-01 5.98443687e-01 6.70730352e-01 7.45884180e-01 7.98069000e-01 8.25116277e-01 8.44779193e-01 8.62789273e-01 8.61993074e-01 8.42857659e-01 7.81699300e-01 7.06406355e-01 6.64311111e-01 5.74034512e-01 4.29722607e-01 3.29521507e-01 3.09917092e-01 5.07795751e-01 1.84348989e-02 1.01837548e-04 1.05450890e-04 1.21128236e-04 3.14948373e-02 2.26389945e-01 4.33852464e-01 5.87722838e-01 5.78379154e-01 4.91910636e-01 4.07081991e-01 3.89013976e-01 4.22655821e-01 4.67497736e-01 5.25981128e-01 6.26666605e-01 7.50855982e-01 8.39980304e-01 8.80998671e-01 8.95047009e-01 8.98963213e-01 9.04344857e-01 8.80583942e-01 7.67542005e-01 5.96361935e-01 5.55503726e-01 5.32774568e-01 4.28696036e-01 3.64905089e-01 3.76607656e-01 5.40127277e-01 3.09257419e-03 1.01487189e-04 1.00234189e-04 1.31855439e-03 1.30003646e-01 4.71548289e-01 5.39359808e-01 6.12910688e-01 6.19680822e-01 5.25590122e-01 4.23553824e-01 3.85888964e-01 4.00697529e-01 4.32934761e-01 4.87404168e-01 6.03868067e-01 7.61440873e-01 8.62701774e-01 8.91318977e-01 8.88532162e-01 8.98172796e-01 9.16940391e-01 9.08114910e-01 7.97491848e-01 5.77005446e-01 4.98064160e-01 4.89006370e-01 4.52162087e-01 4.11304653e-01 4.30484027e-01 5.80976486e-01 1.55429239e-03 1.03042694e-04 1.02962775e-04 4.42973990e-03 2.02074379e-01 5.69587767e-01 6.51927054e-01 6.72830284e-01 6.82393849e-01 6.09871268e-01 4.93743479e-01 4.23622966e-01 4.12478894e-01 4.32651758e-01 4.80447054e-01 5.88660240e-01 7.40973711e-01 8.39483142e-01 8.58518839e-01 8.44781280e-01 8.48362744e-01 8.82023811e-01 8.97084475e-01 8.21371496e-01 6.45416915e-01 5.64875066e-01 5.27086020e-01 4.71267581e-01 4.58614856e-01 4.96467292e-01 6.08239591e-01 1.08783366e-04 1.03765153e-04 1.03008701e-04 2.34786198e-02 3.98908079e-01 5.56366682e-01 6.54108167e-01 7.04618573e-01 7.18555212e-01 6.80275440e-01 5.87865591e-01 4.95492250e-01 4.47743714e-01 4.44697827e-01 4.81198311e-01 5.67897558e-01 6.85845196e-01 7.65391588e-01 7.79186547e-01 7.64304996e-01 7.66806245e-01 7.98931301e-01 8.45671833e-01 8.30772579e-01 7.42754281e-01 6.55124187e-01 6.31834149e-01 5.73876381e-01 5.13471305e-01 5.40701628e-01 6.33982956e-01 1.07764019e-04 1.06040206e-04 1.06846208e-04 1.17804974e-01 7.55024254e-01 6.00967765e-01 5.54888308e-01 6.33404076e-01 6.75674498e-01 6.71044827e-01 6.34597182e-01 5.78159392e-01 5.22377312e-01 4.86002117e-01 4.94796127e-01 5.58150649e-01 6.39481723e-01 6.82908654e-01 6.86044335e-01 6.87950194e-01 7.10777342e-01 7.50608921e-01 7.90330172e-01 8.04697633e-01 7.75162637e-01 7.33851671e-01 6.96714342e-01 6.66517675e-01 6.39250100e-01 6.38669670e-01 6.64797246e-01 1.00001416e-04 1.01058286e-04 6.65333413e-04 7.25919247e-01 6.85767412e-01 5.29187024e-01 4.56775278e-01 5.08006871e-01 5.57746887e-01 5.79291999e-01 6.01804256e-01 6.21935666e-01 6.23378217e-01 5.97798884e-01 5.73920608e-01 5.93591928e-01 6.40675664e-01 6.62599325e-01 6.60515666e-01 6.71896994e-01 7.05558538e-01 7.52633750e-01 7.98171222e-01 8.10284674e-01 7.96811879e-01 7.93619812e-01 7.82693624e-01 7.41983116e-01 7.18821526e-01 7.34546900e-01 7.14190125e-01 1.00149875e-04 1.00132485e-04 6.61042184e-02 9.25292909e-01 4.32505131e-01 3.90438259e-01 4.36704189e-01 4.79270637e-01 5.06239235e-01 5.29487550e-01 5.63354075e-01 6.12491846e-01 6.63497090e-01 6.96177363e-01 7.07481921e-01 7.11834729e-01 7.09363163e-01 7.07735419e-01 7.09192097e-01 7.27209806e-01 7.63310015e-01 8.05343330e-01 8.42940032e-01 8.64893138e-01 8.62739503e-01 8.49305391e-01 8.24036002e-01 7.68511891e-01 7.19486475e-01 7.18256831e-01 7.26157248e-01 1.64745565e-04 1.00477235e-04 9.98328328e-01 9.46415365e-01 6.45492196e-01 5.77848315e-01 6.05627716e-01 6.21488631e-01 6.20982826e-01 6.24252319e-01 6.32184386e-01 6.46382809e-01 6.69149637e-01 6.94137454e-01 7.19413936e-01 7.38221049e-01 7.37732232e-01 7.22437441e-01 7.12781668e-01 7.17727542e-01 7.38149881e-01 7.67709911e-01 7.95635104e-01 8.13887835e-01 8.21319163e-01 8.13047230e-01 7.85142839e-01 7.40303516e-01 6.96254849e-01 6.75880969e-01 6.89239204e-01 
