# vtk DataFile Version 2.0
results/iter2.vtk, Created by Freefem++ 
ASCII
DATASET UNSTRUCTURED_GRID
POINTS 961 float
0 0 0
0.033333333 0 0
0.066666667 0 0
0.1 0 0
0.13333333 0 0
0.16666667 0 0
0.2 0 0
0.23333333 0 0
0.26666667 0 0
0.3 0 0
0.33333333 0 0
0.36666667 0 0
0.4 0 0
0.43333333 0 0
0.46666667 0 0
0.5 0 0
0.53333333 0 0
0.56666667 0 0
0.6 0 0
0.63333333 0 0
0.66666667 0 0
0.7 0 0
0.73333333 0 0
0.76666667 0 0
0.8 0 0
0.83333333 0 0
0.86666667 0 0
0.9 0 0
0.93333333 0 0
0.96666667 0 0
1 0 0
0 0.033333333 0
0.033333333 0.033333333 0
0.066666667 0.033333333 0
0.1 0.033333333 0
0.13333333 0.033333333 0
0.16666667 0.033333333 0
0.2 0.033333333 0
0.23333333 0.033333333 0
0.26666667 0.033333333 0
0.3 0.033333333 0
0.33333333 0.033333333 0
0.36666667 0.033333333 0
0.4 0.033333333 0
0.43333333 0.033333333 0
0.46666667 0.033333333 0
0.5 0.033333333 0
0.53333333 0.033333333 0
0.56666667 0.033333333 0
0.6 0.033333333 0
0.63333333 0.033333333 0
0.66666667 0.033333333 0
0.7 0.033333333 0
0.73333333 0.033333333 0
0.76666667 0.033333333 0
0.8 0.033333333 0
0.83333333 0.033333333 0
0.86666667 0.033333333 0
0.9 0.033333333 0
0.93333333 0.033333333 0
0.96666667 0.033333333 0
1 0.033333333 0
0 0.066666667 0
0.033333333 0.066666667 0
0.066666667 0.066666667 0
0.1 0.066666667 0
0.13333333 0.066666667 0
0.16666667 0.066666667 0
0.2 0.066666667 0
0.23333333 0.066666667 0
0.26666667 0.066666667 0
0.3 0.066666667 0
0.33333333 0.066666667 0
0.36666667 0.066666667 0
0.4 0.066666667 0
0.43333333 0.066666667 0
0.46666667 0.066666667 0
0.5 0.066666667 0
0.53333333 0.066666667 0
0.56666667 0.066666667 0
0.6 0.066666667 0
0.63333333 0.066666667 0
0.66666667 0.066666667 0
0.7 0.066666667 0
0.73333333 0.066666667 0
0.76666667 0.066666667 0
0.8 0.066666667 0
0.83333333 0.066666667 0
0.86666667 0.066666667 0
0.9 0.066666667 0
0.93333333 0.066666667 0
0.96666667 0.066666667 0
1 0.066666667 0
0 0.1 0
0.033333333 0.1 0
0.066666667 0.1 0
0.1 0.1 0
0.13333333 0.1 0
0.16666667 0.1 0
0.2 0.1 0
0.23333333 0.1 0
0.26666667 0.1 0
0.3 0.1 0
0.33333333 0.1 0
0.36666667 0.1 0
0.4 0.1 0
0.43333333 0.1 0
0.46666667 0.1 0
0.5 0.1 0
0.53333333 0.1 0
0.56666667 0.1 0
0.6 0.1 0
0.63333333 0.1 0
0.66666667 0.1 0
0.7 0.1 0
0.73333333 0.1 0
0.76666667 0.1 0
0.8 0.1 0
0.83333333 0.1 0
0.86666667 0.1 0
0.9 0.1 0
0.93333333 0.1 0
0.96666667 0.1 0
1 0.1 0
0 0.13333333 0
0.033333333 0.13333333 0
0.066666667 0.13333333 0
0.1 0.13333333 0
0.13333333 0.13333333 0
0.16666667 0.13333333 0
0.2 0.13333333 0
0.23333333 0.13333333 0
0.26666667 0.13333333 0
0.3 0.13333333 0
0.33333333 0.13333333 0
0.36666667 0.13333333 0
0.4 0.13333333 0
0.43333333 0.13333333 0
0.46666667 0.13333333 0
0.5 0.13333333 0
0.53333333 0.13333333 0
0.56666667 0.13333333 0
0.6 0.13333333 0
0.63333333 0.13333333 0
0.66666667 0.13333333 0
0.7 0.13333333 0
0.73333333 0.13333333 0
0.76666667 0.13333333 0
0.8 0.13333333 0
0.83333333 0.13333333 0
0.86666667 0.13333333 0
0.9 0.13333333 0
0.93333333 0.13333333 0
0.96666667 0.13333333 0
1 0.13333333 0
0 0.16666667 0
0.033333333 0.16666667 0
0.066666667 0.16666667 0
0.1 0.16666667 0
0.13333333 0.16666667 0
0.16666667 0.16666667 0
0.2 0.16666667 0
0.23333333 0.16666667 0
0.26666667 0.16666667 0
0.3 0.16666667 0
0.33333333 0.16666667 0
0.36666667 0.16666667 0
0.4 0.16666667 0
0.43333333 0.16666667 0
0.46666667 0.16666667 0
0.5 0.16666667 0
0.53333333 0.16666667 0
0.56666667 0.16666667 0
0.6 0.16666667 0
0.63333333 0.16666667 0
0.66666667 0.16666667 0
0.7 0.16666667 0
0.73333333 0.16666667 0
0.76666667 0.16666667 0
0.8 0.16666667 0
0.83333333 0.16666667 0
0.86666667 0.16666667 0
0.9 0.16666667 0
0.93333333 0.16666667 0
0.96666667 0.16666667 0
1 0.16666667 0
0 0.2 0
0.033333333 0.2 0
0.066666667 0.2 0
0.1 0.2 0
0.13333333 0.2 0
0.16666667 0.2 0
0.2 0.2 0
0.23333333 0.2 0
0.26666667 0.2 0
0.3 0.2 0
0.33333333 0.2 0
0.36666667 0.2 0
0.4 0.2 0
0.43333333 0.2 0
0.46666667 0.2 0
0.5 0.2 0
0.53333333 0.2 0
0.56666667 0.2 0
0.6 0.2 0
0.63333333 0.2 0
0.66666667 0.2 0
0.7 0.2 0
0.73333333 0.2 0
0.76666667 0.2 0
0.8 0.2 0
0.83333333 0.2 0
0.86666667 0.2 0
0.9 0.2 0
0.93333333 0.2 0
0.96666667 0.2 0
1 0.2 0
0 0.23333333 0
0.033333333 0.23333333 0
0.066666667 0.23333333 0
0.1 0.23333333 0
0.13333333 0.23333333 0
0.16666667 0.23333333 0
0.2 0.23333333 0
0.23333333 0.23333333 0
0.26666667 0.23333333 0
0.3 0.23333333 0
0.33333333 0.23333333 0
0.36666667 0.23333333 0
0.4 0.23333333 0
0.43333333 0.23333333 0
0.46666667 0.23333333 0
0.5 0.23333333 0
0.53333333 0.23333333 0
0.56666667 0.23333333 0
0.6 0.23333333 0
0.63333333 0.23333333 0
0.66666667 0.23333333 0
0.7 0.23333333 0
0.73333333 0.23333333 0
0.76666667 0.23333333 0
0.8 0.23333333 0
0.83333333 0.23333333 0
0.86666667 0.23333333 0
0.9 0.23333333 0
0.93333333 0.23333333 0
0.96666667 0.23333333 0
1 0.23333333 0
0 0.26666667 0
0.033333333 0.26666667 0
0.066666667 0.26666667 0
0.1 0.26666667 0
0.13333333 0.26666667 0
0.16666667 0.26666667 0
0.2 0.26666667 0
0.23333333 0.26666667 0
0.26666667 0.26666667 0
0.3 0.26666667 0
0.33333333 0.26666667 0
0.36666667 0.26666667 0
0.4 0.26666667 0
0.43333333 0.26666667 0
0.46666667 0.26666667 0
0.5 0.26666667 0
0.53333333 0.26666667 0
0.56666667 0.26666667 0
0.6 0.26666667 0
0.63333333 0.26666667 0
0.66666667 0.26666667 0
0.7 0.26666667 0
0.73333333 0.26666667 0
0.76666667 0.26666667 0
0.8 0.26666667 0
0.83333333 0.26666667 0
0.86666667 0.26666667 0
0.9 0.26666667 0
0.93333333 0.26666667 0
0.96666667 0.26666667 0
1 0.26666667 0
0 0.3 0
0.033333333 0.3 0
0.066666667 0.3 0
0.1 0.3 0
0.13333333 0.3 0
0.16666667 0.3 0
0.2 0.3 0
0.23333333 0.3 0
0.26666667 0.3 0
0.3 0.3 0
0.33333333 0.3 0
0.36666667 0.3 0
0.4 0.3 0
0.43333333 0.3 0
0.46666667 0.3 0
0.5 0.3 0
0.53333333 0.3 0
0.56666667 0.3 0
0.6 0.3 0
0.63333333 0.3 0
0.66666667 0.3 0
0.7 0.3 0
0.73333333 0.3 0
0.76666667 0.3 0
0.8 0.3 0
0.83333333 0.3 0
0.86666667 0.3 0
0.9 0.3 0
0.93333333 0.3 0
0.96666667 0.3 0
1 0.3 0
0 0.33333333 0
0.033333333 0.33333333 0
0.066666667 0.33333333 0
0.1 0.33333333 0
0.13333333 0.33333333 0
0.16666667 0.33333333 0
0.2 0.33333333 0
0.23333333 0.33333333 0
0.26666667 0.33333333 0
0.3 0.33333333 0
0.33333333 0.33333333 0
0.36666667 0.33333333 0
0.4 0.33333333 0
0.43333333 0.33333333 0
0.46666667 0.33333333 0
0.5 0.33333333 0
0.53333333 0.33333333 0
0.56666667 0.33333333 0
0.6 0.33333333 0
0.63333333 0.33333333 0
0.66666667 0.33333333 0
0.7 0.33333333 0
0.73333333 0.33333333 0
0.76666667 0.33333333 0
0.8 0.33333333 0
0.83333333 0.33333333 0
0.86666667 0.33333333 0
0.9 0.33333333 0
0.93333333 0.33333333 0
0.96666667 0.33333333 0
1 0.33333333 0
0 0.36666667 0
0.033333333 0.36666667 0
0.066666667 0.36666667 0
0.1 0.36666667 0
0.13333333 0.36666667 0
0.16666667 0.36666667 0
0.2 0.36666667 0
0.23333333 0.36666667 0
0.26666667 0.36666667 0
0.3 0.36666667 0
0.33333333 0.36666667 0
0.36666667 0.36666667 0
0.4 0.36666667 0
0.43333333 0.36666667 0
0.46666667 0.36666667 0
0.5 0.36666667 0
0.53333333 0.36666667 0
0.56666667 0.36666667 0
0.6 0.36666667 0
0.63333333 0.36666667 0
0.66666667 0.36666667 0
0.7 0.36666667 0
0.73333333 0.36666667 0
0.76666667 0.36666667 0
0.8 0.36666667 0
0.83333333 0.36666667 0
0.86666667 0.36666667 0
0.9 0.36666667 0
0.93333333 0.36666667 0
0.96666667 0.36666667 0
1 0.36666667 0
0 0.4 0
0.033333333 0.4 0
0.066666667 0.4 0
0.1 0.4 0
0.13333333 0.4 0
0.16666667 0.4 0
0.2 0.4 0
0.23333333 0.4 0
0.26666667 0.4 0
0.3 0.4 0
0.33333333 0.4 0
0.36666667 0.4 0
0.4 0.4 0
0.43333333 0.4 0
0.46666667 0.4 0
0.5 0.4 0
0.53333333 0.4 0
0.56666667 0.4 0
0.6 0.4 0
0.63333333 0.4 0
0.66666667 0.4 0
0.7 0.4 0
0.73333333 0.4 0
0.76666667 0.4 0
0.8 0.4 0
0.83333333 0.4 0
0.86666667 0.4 0
0.9 0.4 0
0.93333333 0.4 0
0.96666667 0.4 0
1 0.4 0
0 0.43333333 0
0.033333333 0.43333333 0
0.066666667 0.43333333 0
0.1 0.43333333 0
0.13333333 0.43333333 0
0.16666667 0.43333333 0
0.2 0.43333333 0
0.23333333 0.43333333 0
0.26666667 0.43333333 0
0.3 0.43333333 0
0.33333333 0.43333333 0
0.36666667 0.43333333 0
0.4 0.43333333 0
0.43333333 0.43333333 0
0.46666667 0.43333333 0
0.5 0.43333333 0
0.53333333 0.43333333 0
0.56666667 0.43333333 0
0.6 0.43333333 0
0.63333333 0.43333333 0
0.66666667 0.43333333 0
0.7 0.43333333 0
0.73333333 0.43333333 0
0.76666667 0.43333333 0
0.8 0.43333333 0
0.83333333 0.43333333 0
0.86666667 0.43333333 0
0.9 0.43333333 0
0.93333333 0.43333333 0
0.96666667 0.43333333 0
1 0.43333333 0
0 0.46666667 0
0.033333333 0.46666667 0
0.066666667 0.46666667 0
0.1 0.46666667 0
0.13333333 0.46666667 0
0.16666667 0.46666667 0
0.2 0.46666667 0
0.23333333 0.46666667 0
0.26666667 0.46666667 0
0.3 0.46666667 0
0.33333333 0.46666667 0
0.36666667 0.46666667 0
0.4 0.46666667 0
0.43333333 0.46666667 0
0.46666667 0.46666667 0
0.5 0.46666667 0
0.53333333 0.46666667 0
0.56666667 0.46666667 0
0.6 0.46666667 0
0.63333333 0.46666667 0
0.66666667 0.46666667 0
0.7 0.46666667 0
0.73333333 0.46666667 0
0.76666667 0.46666667 0
0.8 0.46666667 0
0.83333333 0.46666667 0
0.86666667 0.46666667 0
0.9 0.46666667 0
0.93333333 0.46666667 0
0.96666667 0.46666667 0
1 0.46666667 0
0 0.5 0
0.033333333 0.5 0
0.066666667 0.5 0
0.1 0.5 0
0.13333333 0.5 0
0.16666667 0.5 0
0.2 0.5 0
0.23333333 0.5 0
0.26666667 0.5 0
0.3 0.5 0
0.33333333 0.5 0
0.36666667 0.5 0
0.4 0.5 0
0.43333333 0.5 0
0.46666667 0.5 0
0.5 0.5 0
0.53333333 0.5 0
0.56666667 0.5 0
0.6 0.5 0
0.63333333 0.5 0
0.66666667 0.5 0
0.7 0.5 0
0.73333333 0.5 0
0.76666667 0.5 0
0.8 0.5 0
0.83333333 0.5 0
0.86666667 0.5 0
0.9 0.5 0
0.93333333 0.5 0
0.96666667 0.5 0
1 0.5 0
0 0.53333333 0
0.033333333 0.53333333 0
0.066666667 0.53333333 0
0.1 0.53333333 0
0.13333333 0.53333333 0
0.16666667 0.53333333 0
0.2 0.53333333 0
0.23333333 0.53333333 0
0.26666667 0.53333333 0
0.3 0.53333333 0
0.33333333 0.53333333 0
0.36666667 0.53333333 0
0.4 0.53333333 0
0.43333333 0.53333333 0
0.46666667 0.53333333 0
0.5 0.53333333 0
0.53333333 0.53333333 0
0.56666667 0.53333333 0
0.6 0.53333333 0
0.63333333 0.53333333 0
0.66666667 0.53333333 0
0.7 0.53333333 0
0.73333333 0.53333333 0
0.76666667 0.53333333 0
0.8 0.53333333 0
[...]
CELL_DATA 1920
Scalars  Label int 1
LOOKUP_TABLE FreeFempp_table
0
0
0
0
0
0
0
0
0
0
0
0
0
0
0
0
0
0
0
0
0
0
0
0
0
0
0
0
0
0
0
0
0
0
0
0
0
0
0
0
0
0
0
0
0
0
0
0
0
0
0
0
0
0
0
0
0
0
0
0
0
0
0
0
0
0
0
0
0
0
0
0
0
0
0
0
0
0
0
0
0
0
0
0
0
0
0
0
0
0
0
0
0
0
0
0
0
0
0
0
0
0
0
0
0
0
0
0
0
0
0
0
0
0
0
0
0
0
0
0
0
0
0
0
0
0
0
0
0
0
0
0
0
0
0
0
0
0
0
0
0
0
0
0
0
0
0
0
0
0
0
0
0
0
0
0
0
0
0
0
0
0
0
0
0
0
0
0
0
0
0
0
0
0
0
0
0
0
0
0
0
0
0
0
0
0
0
0
0
0
0
0
0
0
0
0
0
0
0
0
0
0
0
0
0
0
0
0
0
0
0
0
0
0
0
0
0
0
0
0
0
0
0
0
0
0
0
0
0
0
0
0
0
0
0
0
0
0
0
0
0
0
0
0
0
0
0
0
0
0
0
0
0
0
0
0
0
0
0
0
0
0
0
0
0
0
0
0
0
0
0
0
0
0
0
0
0
0
0
0
0
0
0
0
0
0
0
0
0
0
0
0
0
0
0
0
0
0
0
0
0
0
0
0
0
0
0
0
0
0
0
0
0
0
0
0
0
0
0
0
0
0
0
0
0
0
0
0
0
0
0
0
0
0
0
0
0
0
0
0
0
0
0
0
0
0
0
0
0
0
0
0
0
0
0
0
0
0
0
0
0
0
0
0
0
0
0
0
0
0
0
0
0
0
0
0
0
0
0
0
0
0
0
0
0
0
0
0
0
0
0
0
0
0
0
0
0
0
0
0
0
0
0
0
0
0
0
0
0
0
0
0
0
0
0
0
0
0
0
0
0
0
0
0
0
0
0
0
0
0
0
0
0
0
0
0
0
0
0
0
0
0
0
0
0
0
0
0
0
0
0
0
0
0
0
0
0
0
0
0
0
0
0
0
0
0
0
0
0
0
0
0
0
0
0
0
0
0
0
0
0
0
0
0
0
0
0
0
0
0
0
0
0
0
0
0
0
0
0
0
0
0
0
0
0
0
0
0
0
0
0
0
0
0
0
0
0
0
0
0
0
0
0
0
0
0
0
0
0
0
0
0
0
0
0
0
0
0
0
0
0
0
0
0
0
0
0
0
0
0
0
0
0
0
0
0
0
0
0
0
0
0
0
0
0
0
0
0
0
0
0
0
0
0
0
0
0
0
0
0
0
0
0
0
0
0
0
0
0
0
0
0
0
0
0
0
0
0
0
0
0
0
0
0
0
0
0
0
0
0
0
0
0
0
0
0
0
0
0
0
0
0
0
0
0
0
0
0
0
0
0
0
0
0
0
0
0
0
0
0
0
0
0
0
0
0
0
0
0
0
0
0
0
0
0
0
0
0
0
0
0
0
0
0
0
0
0
0
0
0
0
0
0
0
0
0
0
0
0
0
0
0
0
0
0
0
0
0
0
0
0
0
0
0
0
0
0
0
0
0
0
0
0
0
0
0
0
0
0
0
0
0
0
0
0
0
0
0
0
0
0
0
0
0
0
0
0
0
0
0
0
0
0
0
0
0
0
0
0
0
0
0
0
0
0
0
0
0
0
0
0
0
0
0
0
0
0
0
0
0
0
0
0
0
0
0
0
0
0
0
0
0
0
0
0
0
0
0
0
0
0
0
0
0
0
0
0
0
0
0
0
0
0
0
0
0
0
0
0
0
0
0
0
0
0
0
0
0
0
0
0
0
0
0
0
0
0
0
0
0
0
0
0
0
0
0
0
0
0
0
0
0
0
0
0
0
0
0
0
0
0
0
0
0
0
0
0
0
0
0
0
0
0
0
0
0
0
0
0
0
0
0
0
0
0
0
0
0
0
0
0
0
0
0
0
0
0
0
0
0
0
0
0
0
0
0
0
0
0
0
0
0
0
0
0
0
0
0
0
0
0
0
0
0
0
0
0
0
0
0
0
0
0
0
0
0
0
0
0
0
0
0
0
0
0
0
0
0
0
0
0
0
0
0
0
0
0
0
0
0
0
0
0
0
0
0
0
0
0
0
0
0
0
0
0
0
0
0
0
0
0
0
0
0
0
0
0
0
0
0
0
0
0
0
0
0
0
0
0
0
0
0
0
0
0
0
0
0
0
0
0
0
0
0
0
0
0
0
0
0
0
0
0
0
0
0
0
0
0
0
0
0
0
0
0
0
0
0
0
0
0
0
0
0
0
0
0
0
0
0
0
0
0
0
0
0
0
0
0
0
0
0
0
0
0
0
0
0
0
0
0
0
0
0
0
0
0
0
0
0
0
0
0
0
0
0
0
0
0
0
0
0
0
0
0
0
0
0
0
0
0
0
0
0
0
0
0
0
0
0
0
0
0
0
0
0
0
0
0
0
0
0
0
0
0
0
0
0
0
0
0
0
0
0
0
0
0
0
0
0
0
0
0
0
0
0
0
0
0
0
0
0
0
0
0
0
0
0
0
0
0
0
0
0
0
0
0
0
0
0
0
0
0
0
0
0
0
0
0
0
0
0
0
0
0
0
0
0
0
0
0
0
0
0
0
0
0
0
0
0
0
0
0
0
0
0
0
0
0
0
0
0
0
0
0
0
0
0
0
0
0
0
0
0
0
0
0
0
0
0
0
0
0
0
0
0
0
0
0
0
0
0
0
0
0
0
0
0
0
0
0
0
0
0
0
0
0
0
0
0
0
0
0
0
0
0
0
0
0
0
0
0
0
0
0
0
0
0
0
0
0
0
0
0
0
0
0
0
0
0
0
0
0
0
0
0
0
0
0
0
0
0
0
0
0
0
0
0
0
0
0
0
0
0
0
0
0
0
0
0
0
0
0
0
0
0
0
0
0
0
0
0
0
0
0
0
0
0
0
0
0
0
0
0
0
0
0
0
0
0
0
0
0
0
0
0
0
0
0
0
0
0
0
0
0
0
0
0
0
0
0
0
0
0
0
0
0
0
0
0
0
0
0
0
0
0
0
0
0
0
0
0
0
0
0
0
0
0
0
0
0
0
0
0
0
0
0
0
0
0
0
0
0
0
0
0
0
0
0
0
0
0
0
0
0
0
0
0
0
0
0
0
0
0
0
0
0
0
0
0
0
0
0
0
0
0
0
0
0
0
0
0
0
0
0
0
0
0
0
0
0
0
0
0
0
0
0
0
0
0
0
0
0
0
0
0
0
0
0
0
0
0
0
0
0
0
0
0
0
0
0
0
0
0
0
0
0
0
0
0
0
0
0
0
0
0
0
0
0
0
0
0
0
0
0
0
0
0
0
0
0
0
0
0
0
0
0
0
0
0
0
0
0
0
0
0
0
0
0
0
0
0
0
0
0
0
0
0
0
0
0
0
0
0
0
0
0
0
0
0
0
0
0
0
0
0
0
0
0
0
0
0
0
0
0
0
0
0
0
0
0
0
0
0
0
0
0
0
0
0
0
0
0
0
0
0
0
0
0
0
0
0
0
0
0
0
0
0
0
0
0
0
0
0
0
0
0
0
0
0
0
0
0
0
0
0
0
0
0
0
0
0
0
0
0
0
0
0
0
0
0
0
0
0
0
0
0
0
0
0
0
0
0
0
0
0
0
0
0
0
0
0
0
0
0
0
0
0
0
0
0
0
0
0
0
0
0
0
0
0
0
0
0
0
0
0
0
0
0
0
0
0
0
0
0
0
0
0
0
0
0
0
0
0
0
0
0
0
0
0
0
0
0
0
0
0
0
0
0
0
0
0
0
0
0
0
0
0
0
0
0
0
0
0
0
0
0
0
0
0
0
0
0
0
0
0
0
0
0
0
0
0
0
0
0
0
0
0
0
0
0
0
0
0
0
0
0
0
0
0
0
0
0
0
0
0
0
0
0
0
0
0
0
0
0
0
0
0
0
0
0
0
0
0
0
0
0
0
0
0
0
0
0
0
0
0
0
0
0
0
0
0
0
0
0
0
0
0
0
0
1
1
1
1
1
1
1
1
1
1
1
1
1
1
1
1
1
1
1
1
1
1
1
1
1
1
1
1
1
1
2
2
2
2
2
2
2
2
2
2
2
2
2
2
2
2
2
2
2
2
2
2
2
2
2
2
2
2
2
2
3
3
3
3
3
3
3
3
3
3
3
3
3
3
3
3
3
3
3
3
3
3
3
3
3
3
3
3
3
3
4
4
4
4
4
4
4
4
4
4
4
4
4
4
4
4
4
4
4
4
4
4
4
4
4
4
4
4
4
4

LOOKUP_TABLE FreeFempp_table 5
1.00000000 0.00000000 0.00000000 1.00000000
1.00000000 1.00000000 0.00000000 1.00000000
1.00000000 0.00000000 1.00000000 1.00000000
0.00000000 1.00000000 0.00000000 1.00000000
0.00000000 1.00000000 1.00000000 1.00000000

POINT_DATA 961
FIELD FieldData 1
Density 1 961 float
7.28808194e-02 1.83882892e-01 3.39714378e-01 4.38401312e-01 4.47724968e-01 4.35420334e-01 3.85430634e-01 1.31796956e-01 6.80033490e-03 4.02652845e-03 5.90137485e-03 5.19247949e-02 3.27462763e-01 4.34878051e-01 6.07436061e-01 8.91107798e-01 9.58932936e-01 9.36138153e-01 9.24136102e-01 9.38397110e-01 9.34360147e-01 9.25018966e-01 9.13348913e-01 8.95486414e-01 8.73197913e-01 8.52121174e-01 8.37044477e-01 8.26534748e-01 8.22597921e-01 8.23454440e-01 7.79630482e-01 2.32457812e-03 3.73505033e-03 3.62428203e-02 2.10654169e-01 2.52129614e-01 2.44771436e-01 2.12633535e-01 8.39121491e-02 7.16298865e-03 3.15427175e-03 3.12899915e-03 1.29200276e-02 1.52784467e-01 2.28429362e-01 3.26092154e-01 8.84503543e-01 9.88338649e-01 9.48991299e-01 6.81036949e-01 9.23467219e-01 9.49913561e-01 9.51831520e-01 9.51007426e-01 9.43890989e-01 9.28776979e-01 9.06242132e-01 8.80731225e-01 8.61862659e-01 8.53733718e-01 8.48183453e-01 8.18004549e-01 5.50480268e-04 4.05214028e-04 3.55385855e-04 3.73086164e-04 3.02826083e-04 3.01882916e-04 3.32558557e-04 3.89919704e-04 3.88143468e-04 3.89003049e-04 3.91295413e-04 8.49502801e-04 1.81957558e-01 2.67769068e-01 2.58683443e-01 4.72305864e-01 9.87413168e-01 6.86390279e-03 3.14678787e-03 3.43984063e-03 4.69844136e-03 8.45341850e-03 2.26936247e-02 1.42918870e-01 4.62494105e-01 6.72294319e-01 7.21083879e-01 7.17996299e-01 7.19030738e-01 7.09819615e-01 7.58391261e-01 8.53397127e-04 4.23725083e-04 3.54444142e-04 3.79453268e-04 3.18797131e-04 7.92129722e-04 2.70651042e-04 3.70934344e-04 3.89804161e-04 3.90816887e-04 3.19714309e-04 2.98264786e-04 3.21057130e-04 3.93313298e-04 3.65934509e-04 1.25052974e-01 9.71981525e-01 9.94155467e-01 5.61493356e-03 3.84960463e-03 2.55735544e-03 1.69171870e-03 1.45674916e-03 1.82782602e-03 4.50886041e-03 1.62381791e-02 1.51876986e-01 4.01964188e-01 4.69169736e-01 4.88645107e-01 6.54331207e-01 3.69819216e-02 1.66590549e-02 1.33919436e-02 1.81614645e-02 1.61571324e-01 2.15848476e-01 2.50419170e-01 2.80199558e-01 3.01279634e-01 3.03283840e-01 2.37148255e-01 6.98419171e-04 3.89972993e-04 3.74562107e-04 2.64265371e-04 2.68994831e-04 3.97623226e-04 2.44982960e-03 9.99251783e-01 3.14935118e-01 1.02313794e-02 3.28974379e-03 1.62944698e-03 1.14624004e-03 1.08901947e-03 1.58272358e-03 6.65480411e-03 6.70697764e-02 2.09836930e-01 2.75637478e-01 5.17412841e-01 1.93196848e-01 5.90705350e-02 6.96783885e-02 1.10139042e-01 1.84085041e-01 2.35524803e-01 2.71083564e-01 3.01773876e-01 3.28438103e-01 3.50792021e-01 3.62686902e-01 3.62264544e-01 3.40571910e-01 2.81562507e-01 2.74548642e-02 3.72549985e-04 3.23983229e-04 3.57428478e-04 4.33905807e-04 9.97189939e-01 9.93886888e-01 9.84497726e-01 5.39586723e-01 8.15550145e-03 1.46285724e-03 9.65631101e-04 1.04962033e-03 5.13809500e-03 4.10331376e-02 9.25014243e-02 2.75290668e-01 3.79570335e-01 1.43566683e-01 1.70995384e-01 2.24545136e-01 2.77803183e-01 3.18992227e-01 3.48979533e-01 3.74206036e-01 3.96269977e-01 4.15180564e-01 4.27990347e-01 4.34243739e-01 4.43640202e-01 4.56654042e-01 4.56607044e-01 4.23105448e-01 2.84934670e-01 7.28297338e-04 3.47443798e-04 3.51659692e-04 9.88324106e-01 9.95881498e-01 9.97790277e-01 9.94665861e-01 6.35880530e-01 2.37983116e-03 9.07630252e-04 1.00459473e-03 6.58860663e-03 2.06217840e-02 8.97062868e-02 5.48135996e-01 3.10270578e-01 3.34853470e-01 3.72251034e-01 4.04234111e-01 4.33859646e-01 4.56802726e-01 4.76472110e-01 4.93594825e-01 5.07219195e-01 5.15399933e-01 5.19220710e-01 5.24372637e-01 5.31222165e-01 5.34824729e-01 5.38905859e-01 5.31433046e-01 4.98983413e-01 3.83467495e-01 4.03219776e-04 4.31752531e-04 3.37953150e-01 8.76712084e-01 9.82370079e-01 9.87019479e-01 9.35542583e-01 1.83794543e-03 7.96680804e-04 1.45100825e-03 1.54468371e-02 7.62402266e-02 6.67902887e-01 5.17021120e-01 5.25383949e-01 5.36621273e-01 5.50306499e-01 5.66565275e-01 5.79860091e-01 5.91088831e-01 5.99793494e-01 6.04909718e-01 6.05662823e-01 6.03648067e-01 6.02316439e-01 6.01937473e-01 6.00873351e-01 6.00901306e-01 5.99860847e-01 5.93845069e-01 5.78282237e-01 5.54650962e-01 4.54869150e-04 5.23928087e-04 2.48620007e-03 3.09155490e-02 8.95944014e-02 9.61711049e-01 9.91663218e-01 8.30158417e-04 5.37349610e-04 4.24041878e-03 3.27221841e-01 7.43349791e-01 6.88450634e-01 6.80963993e-01 6.74810588e-01 6.73992336e-01 6.76183820e-01 6.79209709e-01 6.81672692e-01 6.82084620e-01 6.79612696e-01 6.74187064e-01 6.67264402e-01 6.60992205e-01 6.55977070e-01 6.52274072e-01 6.50972903e-01 6.51488543e-01 6.52542174e-01 6.50820315e-01 6.51820362e-01 4.66409981e-01 6.92848931e-04 8.92583688e-04 7.15817849e-04 1.17409008e-03 2.21513323e-02 9.88297224e-01 7.27160573e-01 5.21133770e-04 6.94471819e-04 3.22089106e-01 7.70873964e-01 7.62676418e-01 7.43617475e-01 7.29374349e-01 7.21834123e-01 7.19128013e-01 7.18953967e-01 7.18937874e-01 7.17058659e-01 7.12433398e-01 7.05213070e-01 6.96673930e-01 6.88453734e-01 6.81543767e-01 6.76822364e-01 6.75541103e-01 6.78506494e-01 6.86862290e-01 7.01274395e-01 7.20840454e-01 7.44427919e-01 4.46735978e-01 1.92070846e-03 1.69860083e-03 1.12405687e-03 1.32790674e-03 3.51981334e-02 9.97389555e-01 6.95512223e-04 4.65429912e-04 4.91572618e-02 7.47483075e-01 7.48129487e-01 7.19908297e-01 7.01114655e-01 6.91041827e-01 6.90151334e-01 6.95132673e-01 7.01351702e-01 7.05108762e-01 7.04796135e-01 7.00627744e-01 6.94033921e-01 6.86740816e-01 6.80125713e-01 6.75426483e-01 6.73976660e-01 6.77279234e-01 6.87824607e-01 7.08900392e-01 7.42847562e-01 7.86364079e-01 8.14047337e-01 7.37925828e-01 1.84550211e-01 1.50597878e-02 2.08627153e-03 2.72327685e-03 6.33557439e-01 9.82107580e-01 4.00940451e-04 5.25428390e-04 6.66449547e-01 6.11562312e-01 5.86273909e-01 5.71511149e-01 5.70805848e-01 5.85925937e-01 6.11583412e-01 6.38233542e-01 6.58387542e-01 6.69558942e-01 6.72897518e-01 6.71053767e-01 6.66718245e-01 6.62012815e-01 6.58544540e-01 6.57576382e-01 6.60369992e-01 6.68991089e-01 6.86796606e-01 7.18029499e-01 7.64730394e-01 8.15968394e-01 8.64863694e-01 9.05023873e-01 8.58208895e-01 1.10172756e-01 1.40133789e-02 4.14338037e-02 9.89183486e-01 9.27065325e-04 7.30978441e-04 5.32833934e-01 3.68962735e-01 3.57067585e-01 3.57560188e-01 3.77318412e-01 4.21957821e-01 4.84721571e-01 5.47533274e-01 5.94921231e-01 6.23291552e-01 6.36536360e-01 6.40198946e-01 6.38997674e-01 6.36370182e-01 6.34693861e-01 6.35543346e-01 6.39972210e-01 6.48862422e-01 6.63092494e-01 6.83655918e-01 7.11368799e-01 7.44289935e-01 7.75874913e-01 8.26307952e-01 8.60708058e-01 7.56952763e-01 1.55872762e-01 5.64838886e-01 9.91798818e-01 9.27267596e-04 8.76332400e-04 3.77525181e-01 1.52988717e-01 1.45819306e-01 1.62425414e-01 1.97562188e-01 2.62650549e-01 3.58496904e-01 4.59654152e-01 5.36320150e-01 5.81495762e-01 6.02969170e-01 6.10232294e-01 6.10420942e-01 6.08369768e-01 6.07363701e-01 6.09683990e-01 6.16876841e-01 6.29672348e-01 6.47432387e-01 6.67410433e-01 6.84204280e-01 6.89867198e-01 6.74235165e-01 6.35496914e-01 5.86282313e-01 5.79765141e-01 6.07644975e-01 9.41029966e-01 9.86533165e-01 9.85713559e-04 9.28536232e-04 2.50826538e-01 5.92995845e-02 5.09160832e-02 6.31750524e-02 9.47570950e-02 1.61268860e-01 2.74181455e-01 4.02792752e-01 4.99679804e-01 5.54091334e-01 5.78521609e-01 5.86087346e-01 5.85556269e-01 5.82445681e-01 5.80467999e-01 5.82408130e-01 5.90445578e-01 6.05865717e-01 6.28133416e-01 6.53689861e-01 6.75056517e-01 6.80859745e-01 6.57019675e-01 5.96381903e-01 5.17549753e-01 5.05287826e-01 6.75115347e-01 9.27649021e-01 9.71936166e-01 1.05354702e-03 9.86107974e-04 1.61836207e-01 3.14853825e-02 2.52058785e-02 3.10058501e-02 5.31736426e-02 1.18333668e-01 2.44456097e-01 3.89116734e-01 4.90612954e-01 5.42746782e-01 5.63953578e-01 5.69096625e-01 5.66849411e-01 5.62272370e-01 5.58754623e-01 5.59053123e-01 5.65642118e-01 5.80309212e-01 6.03049040e-01 6.30855978e-01 6.57344997e-01 6.73790395e-01 6.71409130e-01 6.47176623e-01 6.23360276e-01 6.63470387e-01 8.19036424e-01 9.37855780e-01 9.19590712e-01 1.14946708e-03 1.06436445e-03 9.58375558e-02 1.97551865e-02 1.54682389e-02 2.06367765e-02 4.01263610e-02 1.15501285e-01 2.68034369e-01 4.16723669e-01 5.03674686e-01 5.42502284e-01 5.56162357e-01 5.57918429e-01 5.54364204e-01 5.49083591e-01 5.44566572e-01 5.43114424e-01 5.47165453e-01 5.58954477e-01 5.79389811e-01 6.06796861e-01 6.36795700e-01 6.63811624e-01 6.83404744e-01 6.96703911e-01 7.22728133e-01 7.87827611e-01 8.90807807e-01 9.37736332e-01 6.29954994e-01 1.28168263e-03 1.17040961e-03 5.18769510e-02 1.27865197e-02 1.04951691e-02 1.57608502e-02 3.94483358e-02 1.47095054e-01 3.39436293e-01 4.70418721e-01 5.26674986e-01 5.46609759e-01 5.51805913e-01 5.50962925e-01 5.47389448e-01 5.42686462e-01 5.38231969e-01 5.35729766e-01 5.37356615e-01 5.45593917e-01 5.62525511e-01 5.88691115e-01 6.22515321e-01 6.60833657e-01 6.98975146e-01 7.36447096e-01 7.87650585e-01 8.60641658e-01 9.17764604e-01 9.04560149e-01 4.59709540e-02 1.51576928e-03 1.31004816e-03 2.83949915e-02 8.34652688e-03 7.57041853e-03 1.36085982e-02 4.95009460e-02 2.21050277e-01 4.34063554e-01 5.23559868e-01 5.46794891e-01 5.50266862e-01 5.49298227e-01 5.47636390e-01 5.45548677e-01 5.42786181e-01 5.39666057e-01 5.37378430e-01 5.37865937e-01 5.43494284e-01 5.56835473e-01 5.80549300e-01 6.16757035e-01 6.65257871e-01 7.19860315e-01 7.74976313e-01 8.38136911e-01 8.97095680e-01 9.19197381e-01 6.80093467e-01 7.03357812e-03 1.98712153e-03 1.63273304e-03 1.62309688e-02 5.28300973e-03 5.75314462e-03 1.35829542e-02 8.20639804e-02 3.35968912e-01 5.13865709e-01 5.56982875e-01 5.57202041e-01 5.51352084e-01 5.47945738e-01 5.47318816e-01 5.47895312e-01 5.48206627e-01 5.47707975e-01 5.47114193e-01 5.48286736e-01 5.53514421e-01 5.64951658e-01 5.85700750e-01 6.21771514e-01 6.77748740e-01 7.46223271e-01 8.14972043e-01 8.76838803e-01 9.08050120e-01 8.66374671e-01 7.64887258e-02 4.48052725e-03 2.80877785e-03 2.46669119e-03 1.00405719e-02 3.55973840e-03 4.49273502e-03 1.65674519e-02 1.60097986e-01 4.50905144e-01 5.59547961e-01 5.68965137e-01 5.57968140e-01 5.49485266e-01 5.46840131e-01 5.48554599e-01 5.52420974e-01 5.56626916e-01 5.60245931e-01 5.63548028e-01 5.68053782e-01 5.75932384e-01 5.89043140e-01 6.10127985e-01 6.46589398e-01 7.06330597e-01 7.83772826e-01 8.59894037e-01 9.01523292e-01 8.86645257e-01 4.05479312e-01 1.13449581e-02 3.76524474e-03 3.39934765e-03 5.50261233e-03 5.93409641e-03 2.84632389e-03 3.66999442e-03 2.80497391e-02 2.88903564e-01 5.28441012e-01 5.75751781e-01 5.66173673e-01 5.52037179e-01 5.45048475e-01 5.45077205e-01 5.49817801e-01 5.57207286e-01 5.65800786e-01 5.74802577e-01 5.84091842e-01 5.94286621e-01 6.07043743e-01 6.25595808e-01 6.55247152e-01 7.02444315e-01 7.68962801e-01 8.43714476e-01 9.01751697e-01 8.89326632e-01 4.63639945e-01 1.78474076e-02 5.99218579e-03 4.22936864e-03 4.55231499e-03 1.22307288e-02 3.28913215e-03 2.55638035e-03 3.49381915e-03 6.69623315e-02 4.22666132e-01 5.67432165e-01 5.72742164e-01 5.54481328e-01 5.41808069e-01 5.38435042e-01 5.42001843e-01 5.49992859e-01 5.60847342e-01 5.73731899e-01 5.88196099e-01 6.04041576e-01 6.21647656e-01 6.43098354e-01 6.74036145e-01 7.20511913e-01 7.81239569e-01 8.43311489e-01 8.87624621e-01 8.94695580e-01 2.88923979e-01 1.48019511e-02 6.63445611e-03 5.42199146e-03 5.80427749e-03 9.16316640e-03 4.84841354e-02 1.93824142e-03 2.17794464e-03 4.18449473e-03 1.60356060e-01 5.14490724e-01 5.76247513e-01 5.56772351e-01 5.36667168e-01 5.28254330e-01 5.29507160e-01 5.36821127e-01 5.47975421e-01 5.62033236e-01 5.78695774e-01 5.97910345e-01 6.19916558e-01 6.45822883e-01 6.78408682e-01 7.22332537e-01 7.78027892e-01 8.38318527e-01 8.77589524e-01 8.97749960e-01 7.88091302e-01 1.46702632e-01 1.70681197e-02 7.74750579e-03 8.07765871e-03 1.43719129e-02 4.40750681e-02 3.20803583e-01 1.27446593e-03 1.60377717e-03 6.77474122e-03 3.02805871e-01 5.61395407e-01 5.61429262e-01 5.30196488e-01 5.13581932e-01 5.11299670e-01 5.17483413e-01 5.28361559e-01 5.42487204e-01 5.59573412e-01 5.79655468e-01 6.02929950e-01 6.30093277e-01 6.62776530e-01 7.03407347e-01 7.53375530e-01 8.10182512e-01 8.62150192e-01 8.99402738e-01 8.94667149e-01 7.80723214e-01 2.50179797e-01 5.37407361e-02 6.70485720e-02 2.64531821e-01 5.94830573e-01 7.13414133e-01 7.07774639e-01 9.94107570e-04 1.17074396e-03 1.63442083e-02 4.47216034e-01 5.71617842e-01 5.28046668e-01 4.95143771e-01 4.86113727e-01 4.90683228e-01 5.01330972e-01 5.15261412e-01 5.32191396e-01 5.52479088e-01 5.76276660e-01 6.03594720e-01 6.34886205e-01 6.71428204e-01 7.14627802e-01 7.63995528e-01 8.15129995e-01 8.60629201e-01 8.90298963e-01 8.96845102e-01 8.49354744e-01 6.84769154e-01 6.36778474e-01 7.98931599e-01 8.76812816e-01 8.72079015e-01 8.62894237e-01 8.24060917e-01 9.29301372e-04 1.01719727e-03 6.58697262e-02 5.43598413e-01 5.42269945e-01 4.79226053e-01 4.55283582e-01 4.56395775e-01 4.66939241e-01 4.80561882e-01 4.96476471e-01 5.15795231e-01 5.39591491e-01 5.68127155e-01 6.00808322e-01 6.36716723e-01 6.75314784e-01 7.16466188e-01 7.59388745e-01 8.01663399e-01 8.39294612e-01 8.67515683e-01 8.79116416e-01 8.66012692e-01 8.29869628e-01 8.15836608e-01 8.29353631e-01 8.30415308e-01 8.20127904e-01 8.20135057e-01 8.12624454e-01 8.17921187e-04 9.43447463e-04 2.30984986e-01 5.58091700e-01 4.79247719e-01 4.27572727e-01 4.20757860e-01 4.30464119e-01 4.43174392e-01 4.56284076e-01 4.71371770e-01 4.90833342e-01 5.16621292e-01 5.49611568e-01 5.89093328e-01 6.32662356e-01 6.76973879e-01 7.19095349e-01 7.57324874e-01 7.90955842e-01 8.19486320e-01 8.41344476e-01 8.53026092e-01 8.47326398e-01 8.19089413e-01 7.77592599e-01 7.37593234e-01 7.08116531e-01 6.91684484e-01 6.98288500e-01 7.54327238e-01 7.69918552e-04 8.33663682e-04 4.57812905e-01 5.26389599e-01 4.35612082e-01 4.08116341e-01 4.09700334e-01 4.16104972e-01 4.21497345e-01 4.27102238e-01 4.35930073e-01 4.51239020e-01 4.76119518e-01 5.12957215e-01 5.62371671e-01 6.21852219e-01 6.85219407e-01 7.44371772e-01 7.92724967e-01 8.27285826e-01 8.47852647e-01 8.54959488e-01 8.48348618e-01 8.25221598e-01 7.81174958e-01 7.18561530e-01 6.52006865e-01 5.98255813e-01 5.61215222e-01 5.57147503e-01 6.88777387e-01 1.41702208e-03 1.01280841e-03 8.54096293e-01 6.69646978e-01 6.30712867e-01 6.10808790e-01 6.03096604e-01 5.98923504e-01 5.95729887e-01 5.93725741e-01 5.94239831e-01 5.99144399e-01 6.10395968e-01 6.29434466e-01 6.56515777e-01 6.90227389e-01 7.27507174e-01 7.64307380e-01 7.96596229e-01 8.21103036e-01 8.35448921e-01 8.37898910e-01 8.27161670e-01 8.02501798e-01 7.66403019e-01 7.26318240e-01 6.89975739e-01 6.58873618e-01 6.33230686e-01 6.19297385e-01 6.77112401e-01 
