# vtk DataFile Version 2.0
results/iter7.vtk, Created by Freefem++ 
ASCII
DATASET UNSTRUCTURED_GRID
POINTS 961 float
0 0 0
0.033333333 0 0
0.066666667 0 0
0.1 0 0
0.13333333 0 0
0.16666667 0 0
0.2 0 0
0.23333333 0 0
0.26666667 0 0
0.3 0 0
0.33333333 0 0
0.36666667 0 0
0.4 0 0
0.43333333 0 0
0.46666667 0 0
0.5 0 0
0.53333333 0 0
0.56666667 0 0
0.6 0 0
0.63333333 0 0
0.66666667 0 0
0.7 0 0
0.73333333 0 0
0.76666667 0 0
0.8 0 0
0.83333333 0 0
0.86666667 0 0
0.9 0 0
0.93333333 0 0
0.96666667 0 0
1 0 0
0 0.033333333 0
0.033333333 0.033333333 0
0.066666667 0.033333333 0
0.1 0.033333333 0
0.13333333 0.033333333 0
0.16666667 0.033333333 0
0.2 0.033333333 0
0.23333333 0.033333333 0
0.26666667 0.033333333 0
0.3 0.033333333 0
0.33333333 0.033333333 0
0.36666667 0.033333333 0
0.4 0.033333333 0
0.43333333 0.033333333 0
0.46666667 0.033333333 0
0.5 0.033333333 0
0.53333333 0.033333333 0
0.56666667 0.033333333 0
0.6 0.033333333 0
0.63333333 0.033333333 0
0.66666667 0.033333333 0
0.7 0.033333333 0
0.73333333 0.033333333 0
0.76666667 0.033333333 0
0.8 0.033333333 0
0.83333333 0.033333333 0
0.86666667 0.033333333 0
0.9 0.033333333 0
0.93333333 0.033333333 0
0.96666667 0.033333333 0
1 0.033333333 0
0 0.066666667 0
0.033333333 0.066666667 0
0.066666667 0.066666667 0
0.1 0.066666667 0
0.13333333 0.066666667 0
0.16666667 0.066666667 0
0.2 0.066666667 0
0.23333333 0.066666667 0
0.26666667 0.066666667 0
0.3 0.066666667 0
0.33333333 0.066666667 0
0.36666667 0.066666667 0
0.4 0.066666667 0
0.43333333 0.066666667 0
0.46666667 0.066666667 0
0.5 0.066666667 0
0.53333333 0.066666667 0
0.56666667 0.066666667 0
0.6 0.066666667 0
0.63333333 0.066666667 0
0.66666667 0.066666667 0
0.7 0.066666667 0
0.73333333 0.066666667 0
0.76666667 0.066666667 0
0.8 0.066666667 0
0.83333333 0.066666667 0
0.86666667 0.066666667 0
0.9 0.066666667 0
0.93333333 0.066666667 0
0.96666667 0.066666667 0
1 0.066666667 0
0 0.1 0
0.033333333 0.1 0
0.066666667 0.1 0
0.1 0.1 0
0.13333333 0.1 0
0.16666667 0.1 0
0.2 0.1 0
0.23333333 0.1 0
0.26666667 0.1 0
0.3 0.1 0
0.33333333 0.1 0
0.36666667 0.1 0
0.4 0.1 0
0.43333333 0.1 0
0.46666667 0.1 0
0.5 0.1 0
0.53333333 0.1 0
0.56666667 0.1 0
0.6 0.1 0
0.63333333 0.1 0
0.66666667 0.1 0
0.7 0.1 0
0.73333333 0.1 0
0.76666667 0.1 0
0.8 0.1 0
0.83333333 0.1 0
0.86666667 0.1 0
0.9 0.1 0
0.93333333 0.1 0
0.96666667 0.1 0
1 0.1 0
0 0.13333333 0
0.033333333 0.13333333 0
0.066666667 0.13333333 0
0.1 0.13333333 0
0.13333333 0.13333333 0
0.16666667 0.13333333 0
0.2 0.13333333 0
0.23333333 0.13333333 0
0.26666667 0.13333333 0
0.3 0.13333333 0
0.33333333 0.13333333 0
0.36666667 0.13333333 0
0.4 0.13333333 0
0.43333333 0.13333333 0
0.46666667 0.13333333 0
0.5 0.13333333 0
0.53333333 0.13333333 0
0.56666667 0.13333333 0
0.6 0.13333333 0
0.63333333 0.13333333 0
0.66666667 0.13333333 0
0.7 0.13333333 0
0.73333333 0.13333333 0
0.76666667 0.13333333 0
0.8 0.13333333 0
0.83333333 0.13333333 0
0.86666667 0.13333333 0
0.9 0.13333333 0
0.93333333 0.13333333 0
0.96666667 0.13333333 0
1 0.13333333 0
0 0.16666667 0
0.033333333 0.16666667 0
0.066666667 0.16666667 0
0.1 0.16666667 0
0.13333333 0.16666667 0
0.16666667 0.16666667 0
0.2 0.16666667 0
0.23333333 0.16666667 0
0.26666667 0.16666667 0
0.3 0.16666667 0
0.33333333 0.16666667 0
0.36666667 0.16666667 0
0.4 0.16666667 0
0.43333333 0.16666667 0
0.46666667 0.16666667 0
0.5 0.16666667 0
0.53333333 0.16666667 0
0.56666667 0.16666667 0
0.6 0.16666667 0
0.63333333 0.16666667 0
0.66666667 0.16666667 0
0.7 0.16666667 0
0.73333333 0.16666667 0
0.76666667 0.16666667 0
0.8 0.16666667 0
0.83333333 0.16666667 0
0.86666667 0.16666667 0
0.9 0.16666667 0
0.93333333 0.16666667 0
0.96666667 0.16666667 0
1 0.16666667 0
0 0.2 0
0.033333333 0.2 0
0.066666667 0.2 0
0.1 0.2 0
0.13333333 0.2 0
0.16666667 0.2 0
0.2 0.2 0
0.23333333 0.2 0
0.26666667 0.2 0
0.3 0.2 0
0.33333333 0.2 0
0.36666667 0.2 0
0.4 0.2 0
0.43333333 0.2 0
0.46666667 0.2 0
0.5 0.2 0
0.53333333 0.2 0
0.56666667 0.2 0
0.6 0.2 0
0.63333333 0.2 0
0.66666667 0.2 0
0.7 0.2 0
0.73333333 0.2 0
0.76666667 0.2 0
0.8 0.2 0
0.83333333 0.2 0
0.86666667 0.2 0
0.9 0.2 0
0.93333333 0.2 0
0.96666667 0.2 0
1 0.2 0
0 0.23333333 0
0.033333333 0.23333333 0
0.066666667 0.23333333 0
0.1 0.23333333 0
0.13333333 0.23333333 0
0.16666667 0.23333333 0
0.2 0.23333333 0
0.23333333 0.23333333 0
0.26666667 0.23333333 0
0.3 0.23333333 0
0.33333333 0.23333333 0
0.36666667 0.23333333 0
0.4 0.23333333 0
0.43333333 0.23333333 0
0.46666667 0.23333333 0
0.5 0.23333333 0
0.53333333 0.23333333 0
0.56666667 0.23333333 0
0.6 0.23333333 0
0.63333333 0.23333333 0
0.66666667 0.23333333 0
0.7 0.23333333 0
0.73333333 0.23333333 0
0.76666667 0.23333333 0
0.8 0.23333333 0
0.83333333 0.23333333 0
0.86666667 0.23333333 0
0.9 0.23333333 0
0.93333333 0.23333333 0
0.96666667 0.23333333 0
1 0.23333333 0
0 0.26666667 0
0.033333333 0.26666667 0
0.066666667 0.26666667 0
0.1 0.26666667 0
0.13333333 0.26666667 0
0.16666667 0.26666667 0
0.2 0.26666667 0
0.23333333 0.26666667 0
0.26666667 0.26666667 0
0.3 0.26666667 0
0.33333333 0.26666667 0
0.36666667 0.26666667 0
0.4 0.26666667 0
0.43333333 0.26666667 0
0.46666667 0.26666667 0
0.5 0.26666667 0
0.53333333 0.26666667 0
0.56666667 0.26666667 0
0.6 0.26666667 0
0.63333333 0.26666667 0
0.66666667 0.26666667 0
0.7 0.26666667 0
0.73333333 0.26666667 0
0.76666667 0.26666667 0
0.8 0.26666667 0
0.83333333 0.26666667 0
0.86666667 0.26666667 0
0.9 0.26666667 0
0.93333333 0.26666667 0
0.96666667 0.26666667 0
1 0.26666667 0
0 0.3 0
0.033333333 0.3 0
0.066666667 0.3 0
0.1 0.3 0
0.13333333 0.3 0
0.16666667 0.3 0
0.2 0.3 0
0.23333333 0.3 0
0.26666667 0.3 0
0.3 0.3 0
0.33333333 0.3 0
0.36666667 0.3 0
0.4 0.3 0
0.43333333 0.3 0
0.46666667 0.3 0
0.5 0.3 0
0.53333333 0.3 0
0.56666667 0.3 0
0.6 0.3 0
0.63333333 0.3 0
0.66666667 0.3 0
0.7 0.3 0
0.73333333 0.3 0
0.76666667 0.3 0
0.8 0.3 0
0.83333333 0.3 0
0.86666667 0.3 0
0.9 0.3 0
0.93333333 0.3 0
0.96666667 0.3 0
1 0.3 0
0 0.33333333 0
0.033333333 0.33333333 0
0.066666667 0.33333333 0
0.1 0.33333333 0
0.13333333 0.33333333 0
0.16666667 0.33333333 0
0.2 0.33333333 0
0.23333333 0.33333333 0
0.26666667 0.33333333 0
0.3 0.33333333 0
0.33333333 0.33333333 0
0.36666667 0.33333333 0
0.4 0.33333333 0
0.43333333 0.33333333 0
0.46666667 0.33333333 0
0.5 0.33333333 0
0.53333333 0.33333333 0
0.56666667 0.33333333 0
0.6 0.33333333 0
0.63333333 0.33333333 0
0.66666667 0.33333333 0
0.7 0.33333333 0
0.73333333 0.33333333 0
0.76666667 0.33333333 0
0.8 0.33333333 0
0.83333333 0.33333333 0
0.86666667 0.33333333 0
0.9 0.33333333 0
0.93333333 0.33333333 0
0.96666667 0.33333333 0
1 0.33333333 0
0 0.36666667 0
0.033333333 0.36666667 0
0.066666667 0.36666667 0
0.1 0.36666667 0
0.13333333 0.36666667 0
0.16666667 0.36666667 0
0.2 0.36666667 0
0.23333333 0.36666667 0
0.26666667 0.36666667 0
0.3 0.36666667 0
0.33333333 0.36666667 0
0.36666667 0.36666667 0
0.4 0.36666667 0
0.43333333 0.36666667 0
0.46666667 0.36666667 0
0.5 0.36666667 0
0.53333333 0.36666667 0
0.56666667 0.36666667 0
0.6 0.36666667 0
0.63333333 0.36666667 0
0.66666667 0.36666667 0
0.7 0.36666667 0
0.73333333 0.36666667 0
0.76666667 0.36666667 0
0.8 0.36666667 0
0.83333333 0.36666667 0
0.86666667 0.36666667 0
0.9 0.36666667 0
0.93333333 0.36666667 0
0.96666667 0.36666667 0
1 0.36666667 0
0 0.4 0
0.033333333 0.4 0
0.066666667 0.4 0
0.1 0.4 0
0.13333333 0.4 0
0.16666667 0.4 0
0.2 0.4 0
0.23333333 0.4 0
0.26666667 0.4 0
0.3 0.4 0
0.33333333 0.4 0
0.36666667 0.4 0
0.4 0.4 0
0.43333333 0.4 0
0.46666667 0.4 0
0.5 0.4 0
0.53333333 0.4 0
0.56666667 0.4 0
0.6 0.4 0
0.63333333 0.4 0
0.66666667 0.4 0
0.7 0.4 0
0.73333333 0.4 0
0.76666667 0.4 0
0.8 0.4 0
0.83333333 0.4 0
0.86666667 0.4 0
0.9 0.4 0
0.93333333 0.4 0
0.96666667 0.4 0
1 0.4 0
0 0.43333333 0
0.033333333 0.43333333 0
0.066666667 0.43333333 0
0.1 0.43333333 0
0.13333333 0.43333333 0
0.16666667 0.43333333 0
0.2 0.43333333 0
0.23333333 0.43333333 0
0.26666667 0.43333333 0
0.3 0.43333333 0
0.33333333 0.43333333 0
0.36666667 0.43333333 0
0.4 0.43333333 0
0.43333333 0.43333333 0
0.46666667 0.43333333 0
0.5 0.43333333 0
0.53333333 0.43333333 0
0.56666667 0.43333333 0
0.6 0.43333333 0
0.63333333 0.43333333 0
0.66666667 0.43333333 0
0.7 0.43333333 0
0.73333333 0.43333333 0
0.76666667 0.43333333 0
0.8 0.43333333 0
0.83333333 0.43333333 0
0.86666667 0.43333333 0
0.9 0.43333333 0
0.93333333 0.43333333 0
0.96666667 0.43333333 0
1 0.43333333 0
0 0.46666667 0
0.033333333 0.46666667 0
0.066666667 0.46666667 0
0.1 0.46666667 0
0.13333333 0.46666667 0
0.16666667 0.46666667 0
0.2 0.46666667 0
0.23333333 0.46666667 0
0.26666667 0.46666667 0
0.3 0.46666667 0
0.33333333 0.46666667 0
0.36666667 0.46666667 0
0.4 0.46666667 0
0.43333333 0.46666667 0
0.46666667 0.46666667 0
0.5 0.46666667 0
0.53333333 0.46666667 0
0.56666667 0.46666667 0
0.6 0.46666667 0
0.63333333 0.46666667 0
0.66666667 0.46666667 0
0.7 0.46666667 0
0.73333333 0.46666667 0
0.76666667 0.46666667 0
0.8 0.46666667 0
0.83333333 0.46666667 0
0.86666667 0.46666667 0
0.9 0.46666667 0
0.93333333 0.46666667 0
0.96666667 0.46666667 0
1 0.46666667 0
0 0.5 0
0.033333333 0.5 0
0.066666667 0.5 0
0.1 0.5 0
0.13333333 0.5 0
0.16666667 0.5 0
0.2 0.5 0
0.23333333 0.5 0
0.26666667 0.5 0
0.3 0.5 0
0.33333333 0.5 0
0.36666667 0.5 0
0.4 0.5 0
0.43333333 0.5 0
0.46666667 0.5 0
0.5 0.5 0
0.53333333 0.5 0
0.56666667 0.5 0
0.6 0.5 0
0.63333333 0.5 0
0.66666667 0.5 0
0.7 0.5 0
0.73333333 0.5 0
0.76666667 0.5 0
0.8 0.5 0
0.83333333 0.5 0
0.86666667 0.5 0
0.9 0.5 0
0.93333333 0.5 0
0.96666667 0.5 0
1 0.5 0
0 0.53333333 0
0.033333333 0.53333333 0
0.066666667 0.53333333 0
0.1 0.53333333 0
0.13333333 0.53333333 0
0.16666667 0.53333333 0
0.2 0.53333333 0
0.23333333 0.53333333 0
0.26666667 0.53333333 0
0.3 0.53333333 0
0.33333333 0.53333333 0
0.36666667 0.53333333 0
0.4 0.53333333 0
0.43333333 0.53333333 0
0.46666667 0.53333333 0
0.5 0.53333333 0
0.53333333 0.53333333 0
0.56666667 0.53333333 0
0.6 0.53333333 0
0.63333333 0.53333333 0
0.66666667 0.53333333 0
0.7 0.53333333 0
0.73333333 0.53333333 0
0.76666667 0.53333333 0
0.8 0.53333333 0
[...]
CELL_DATA 1920
Scalars  Label int 1
LOOKUP_TABLE FreeFempp_table
0
0
0
0
0
0
0
0
0
0
0
0
0
0
0
0
0
0
0
0
0
0
0
0
0
0
0
0
0
0
0
0
0
0
0
0
0
0
0
0
0
0
0
0
0
0
0
0
0
0
0
0
0
0
0
0
0
0
0
0
0
0
0
0
0
0
0
0
0
0
0
0
0
0
0
0
0
0
0
0
0
0
0
0
0
0
0
0
0
0
0
0
0
0
0
0
0
0
0
0
0
0
0
0
0
0
0
0
0
0
0
0
0
0
0
0
0
0
0
0
0
0
0
0
0
0
0
0
0
0
0
0
0
0
0
0
0
0
0
0
0
0
0
0
0
0
0
0
0
0
0
0
0
0
0
0
0
0
0
0
0
0
0
0
0
0
0
0
0
0
0
0
0
0
0
0
0
0
0
0
0
0
0
0
0
0
0
0
0
0
0
0
0
0
0
0
0
0
0
0
0
0
0
0
0
0
0
0
0
0
0
0
0
0
0
0
0
0
0
0
0
0
0
0
0
0
0
0
0
0
0
0
0
0
0
0
0
0
0
0
0
0
0
0
0
0
0
0
0
0
0
0
0
0
0
0
0
0
0
0
0
0
0
0
0
0
0
0
0
0
0
0
0
0
0
0
0
0
0
0
0
0
0
0
0
0
0
0
0
0
0
0
0
0
0
0
0
0
0
0
0
0
0
0
0
0
0
0
0
0
0
0
0
0
0
0
0
0
0
0
0
0
0
0
0
0
0
0
0
0
0
0
0
0
0
0
0
0
0
0
0
0
0
0
0
0
0
0
0
0
0
0
0
0
0
0
0
0
0
0
0
0
0
0
0
0
0
0
0
0
0
0
0
0
0
0
0
0
0
0
0
0
0
0
0
0
0
0
0
0
0
0
0
0
0
0
0
0
0
0
0
0
0
0
0
0
0
0
0
0
0
0
0
0
0
0
0
0
0
0
0
0
0
0
0
0
0
0
0
0
0
0
0
0
0
0
0
0
0
0
0
0
0
0
0
0
0
0
0
0
0
0
0
0
0
0
0
0
0
0
0
0
0
0
0
0
0
0
0
0
0
0
0
0
0
0
0
0
0
0
0
0
0
0
0
0
0
0
0
0
0
0
0
0
0
0
0
0
0
0
0
0
0
0
0
0
0
0
0
0
0
0
0
0
0
0
0
0
0
0
0
0
0
0
0
0
0
0
0
0
0
0
0
0
0
0
0
0
0
0
0
0
0
0
0
0
0
0
0
0
0
0
0
0
0
0
0
0
0
0
0
0
0
0
0
0
0
0
0
0
0
0
0
0
0
0
0
0
0
0
0
0
0
0
0
0
0
0
0
0
0
0
0
0
0
0
0
0
0
0
0
0
0
0
0
0
0
0
0
0
0
0
0
0
0
0
0
0
0
0
0
0
0
0
0
0
0
0
0
0
0
0
0
0
0
0
0
0
0
0
0
0
0
0
0
0
0
0
0
0
0
0
0
0
0
0
0
0
0
0
0
0
0
0
0
0
0
0
0
0
0
0
0
0
0
0
0
0
0
0
0
0
0
0
0
0
0
0
0
0
0
0
0
0
0
0
0
0
0
0
0
0
0
0
0
0
0
0
0
0
0
0
0
0
0
0
0
0
0
0
0
0
0
0
0
0
0
0
0
0
0
0
0
0
0
0
0
0
0
0
0
0
0
0
0
0
0
0
0
0
0
0
0
0
0
0
0
0
0
0
0
0
0
0
0
0
0
0
0
0
0
0
0
0
0
0
0
0
0
0
0
0
0
0
0
0
0
0
0
0
0
0
0
0
0
0
0
0
0
0
0
0
0
0
0
0
0
0
0
0
0
0
0
0
0
0
0
0
0
0
0
0
0
0
0
0
0
0
0
0
0
0
0
0
0
0
0
0
0
0
0
0
0
0
0
0
0
0
0
0
0
0
0
0
0
0
0
0
0
0
0
0
0
0
0
0
0
0
0
0
0
0
0
0
0
0
0
0
0
0
0
0
0
0
0
0
0
0
0
0
0
0
0
0
0
0
0
0
0
0
0
0
0
0
0
0
0
0
0
0
0
0
0
0
0
0
0
0
0
0
0
0
0
0
0
0
0
0
0
0
0
0
0
0
0
0
0
0
0
0
0
0
0
0
0
0
0
0
0
0
0
0
0
0
0
0
0
0
0
0
0
0
0
0
0
0
0
0
0
0
0
0
0
0
0
0
0
0
0
0
0
0
0
0
0
0
0
0
0
0
0
0
0
0
0
0
0
0
0
0
0
0
0
0
0
0
0
0
0
0
0
0
0
0
0
0
0
0
0
0
0
0
0
0
0
0
0
0
0
0
0
0
0
0
0
0
0
0
0
0
0
0
0
0
0
0
0
0
0
0
0
0
0
0
0
0
0
0
0
0
0
0
0
0
0
0
0
0
0
0
0
0
0
0
0
0
0
0
0
0
0
0
0
0
0
0
0
0
0
0
0
0
0
0
0
0
0
0
0
0
0
0
0
0
0
0
0
0
0
0
0
0
0
0
0
0
0
0
0
0
0
0
0
0
0
0
0
0
0
0
0
0
0
0
0
0
0
0
0
0
0
0
0
0
0
0
0
0
0
0
0
0
0
0
0
0
0
0
0
0
0
0
0
0
0
0
0
0
0
0
0
0
0
0
0
0
0
0
0
0
0
0
0
0
0
0
0
0
0
0
0
0
0
0
0
0
0
0
0
0
0
0
0
0
0
0
0
0
0
0
0
0
0
0
0
0
0
0
0
0
0
0
0
0
0
0
0
0
0
0
0
0
0
0
0
0
0
0
0
0
0
0
0
0
0
0
0
0
0
0
0
0
0
0
0
0
0
0
0
0
0
0
0
0
0
0
0
0
0
0
0
0
0
0
0
0
0
0
0
0
0
0
0
0
0
0
0
0
0
0
0
0
0
0
0
0
0
0
0
0
0
0
0
0
0
0
0
0
0
0
0
0
0
0
0
0
0
0
0
0
0
0
0
0
0
0
0
0
0
0
0
0
0
0
0
0
0
0
0
0
0
0
0
0
0
0
0
0
0
0
0
0
0
0
0
0
0
0
0
0
0
0
0
0
0
0
0
0
0
0
0
0
0
0
0
0
0
0
0
0
0
0
0
0
0
0
0
0
0
0
0
0
0
0
0
0
0
0
0
0
0
0
0
0
0
0
0
0
0
0
0
0
0
0
0
0
0
0
0
0
0
0
0
0
0
0
0
0
0
0
0
0
0
0
0
0
0
0
0
0
0
0
0
0
0
0
0
0
0
0
0
0
0
0
0
0
0
0
0
0
0
0
0
0
0
0
0
0
0
0
0
0
0
0
0
0
0
0
0
0
0
0
0
0
0
0
0
0
0
0
0
0
0
0
0
0
0
0
0
0
0
0
0
0
0
0
0
0
0
0
0
0
0
0
0
0
0
0
0
0
0
0
0
0
0
0
0
0
0
0
0
0
0
0
0
0
0
0
0
0
0
0
0
0
0
0
0
0
0
0
0
0
0
0
0
0
0
0
0
0
0
0
0
0
0
0
0
0
0
0
0
0
0
0
0
0
0
0
0
0
0
0
0
0
0
0
0
0
0
0
0
0
0
0
0
0
0
0
0
0
0
0
0
0
0
0
0
0
0
0
0
0
0
0
0
0
0
0
0
0
0
0
0
0
0
0
0
0
0
0
0
0
0
0
0
0
0
0
0
0
0
0
0
0
0
0
0
0
0
0
0
0
0
0
0
0
0
0
0
0
0
0
0
0
0
0
0
0
0
0
0
0
0
0
0
0
0
0
0
0
0
0
0
0
0
0
0
0
0
0
0
0
0
0
0
0
0
0
0
0
0
0
0
0
0
0
0
0
0
0
0
0
0
0
0
0
0
0
0
0
0
0
0
0
0
0
0
0
0
0
0
0
0
0
0
0
0
0
0
0
0
0
0
0
0
0
0
0
0
0
0
0
0
0
0
0
0
0
0
0
0
0
0
0
0
0
0
0
0
0
0
0
0
0
0
0
0
0
0
0
0
0
0
0
0
0
0
0
0
0
0
0
0
0
0
0
0
0
0
0
1
1
1
1
1
1
1
1
1
1
1
1
1
1
1
1
1
1
1
1
1
1
1
1
1
1
1
1
1
1
2
2
2
2
2
2
2
2
2
2
2
2
2
2
2
2
2
2
2
2
2
2
2
2
2
2
2
2
2
2
3
3
3
3
3
3
3
3
3
3
3
3
3
3
3
3
3
3
3
3
3
3
3
3
3
3
3
3
3
3
4
4
4
4
4
4
4
4
4
4
4
4
4
4
4
4
4
4
4
4
4
4
4
4
4
4
4
4
4
4

LOOKUP_TABLE FreeFempp_table 5
1.00000000 0.00000000 0.00000000 1.00000000
1.00000000 1.00000000 0.00000000 1.00000000
1.00000000 0.00000000 1.00000000 1.00000000
0.00000000 1.00000000 0.00000000 1.00000000
0.00000000 1.00000000 1.00000000 1.00000000

POINT_DATA 961
FIELD FieldData 1
Density 1 961 float
9.55779374e-01 9.22976732e-01 1.23790894e-02 2.88175594e-04 2.14328349e-04 3.17112892e-04 1.43692270e-01 9.31561351e-01 9.24184620e-01 9.02300537e-01 9.02869642e-01 9.63392198e-01 9.92113173e-01 9.98899400e-01 9.99451697e-01 9.98446584e-01 9.90126073e-01 9.92864668e-01 9.96607304e-01 9.97157514e-01 9.97319162e-01 9.96316373e-01 9.94851291e-01 9.92929399e-01 9.90301371e-01 9.87902403e-01 9.86578882e-01 9.85822141e-01 9.85060394e-01 9.86335993e-01 9.82657611e-01 8.82747769e-01 4.38074291e-01 4.75481711e-03 2.35045052e-04 1.68132116e-04 1.85277298e-04 1.67981803e-03 5.70009470e-01 6.70960307e-01 6.16807163e-01 6.00837648e-01 7.70736814e-01 9.65833843e-01 9.98983026e-01 9.97276068e-01 9.99497473e-01 9.90634203e-01 9.93123353e-01 9.98823583e-01 9.98784542e-01 9.99036193e-01 9.98870730e-01 9.98593032e-01 9.98114228e-01 9.97072160e-01 9.95141685e-01 9.92956221e-01 9.91423726e-01 9.90333915e-01 9.90845025e-01 9.86873567e-01 1.08673637e-04 1.07454573e-04 1.09690562e-04 1.13069997e-04 1.14008559e-04 1.12300724e-04 1.14180795e-04 3.81484896e-01 5.99690020e-01 5.84719479e-01 6.30581319e-01 7.25080669e-01 9.26597416e-01 9.98548388e-01 9.99229908e-01 9.05232728e-01 4.86546167e-04 6.50512695e-04 5.38050430e-03 4.94241297e-01 9.91529822e-01 9.96601582e-01 9.97261584e-01 9.97049928e-01 9.97093260e-01 9.95479703e-01 9.90127861e-01 9.83116925e-01 9.79335248e-01 9.77560401e-01 9.81837988e-01 1.09035856e-04 1.05145606e-04 1.06075335e-04 1.08220753e-04 1.10460351e-04 1.08497865e-04 1.05561172e-04 1.04148465e-04 1.04221959e-04 1.05494262e-04 1.04410348e-04 1.29974535e-04 2.57188324e-02 9.93521392e-01 9.98669803e-01 4.00621034e-02 3.41873121e-04 3.59454774e-04 3.32693686e-04 2.93847057e-04 2.52258003e-04 2.22144095e-04 2.20837319e-04 2.50689976e-04 1.33813894e-03 8.87483954e-01 9.90040421e-01 9.71664429e-01 9.32943165e-01 9.17366028e-01 9.66672182e-01 1.91396175e-04 1.32269110e-04 1.23063975e-04 1.20059703e-04 1.22832207e-04 1.20790966e-04 1.11824513e-04 1.05161467e-04 1.04049344e-04 1.04239603e-04 1.06061641e-04 1.05441803e-04 1.00932695e-04 2.03450545e-04 9.99179065e-01 9.95242000e-01 3.23116226e-04 3.50545364e-04 3.19336017e-04 2.63771828e-04 2.10941886e-04 1.75376525e-04 1.53541288e-04 1.34616334e-04 1.28661617e-04 1.35386668e-04 2.44979834e-04 7.52424777e-01 8.83439541e-01 7.81387031e-01 9.41280782e-01 3.67097706e-01 1.03642792e-02 9.84252896e-03 1.39310556e-02 2.43640635e-02 4.75341193e-02 9.19129848e-02 1.55364424e-01 2.26726919e-01 2.56706983e-01 1.27179985e-04 1.15586459e-04 1.02042482e-04 1.02648286e-04 1.61853197e-04 9.29896951e-01 9.99498367e-01 3.65681888e-04 3.51331371e-04 3.22883396e-04 2.85654358e-04 2.48350552e-04 2.16189233e-04 1.77837268e-04 1.35093112e-04 1.22187528e-04 1.21793841e-04 1.53330984e-04 2.63413310e-01 6.09159172e-01 9.11241233e-01 5.05861521e-01 1.48239285e-02 1.20566618e-02 1.47330612e-02 2.13438757e-02 3.43722813e-02 5.65903224e-02 9.27197337e-02 1.47655293e-01 2.12063253e-01 3.63821864e-01 2.63393074e-01 2.30267256e-01 1.05475468e-04 1.04750477e-04 1.75416382e-04 9.99273121e-01 9.99721766e-01 3.87422391e-04 1.11458905e-03 1.33426674e-03 4.60231444e-03 2.03145463e-02 7.51203001e-02 4.91223559e-02 6.05538429e-04 1.26566796e-04 1.19005410e-04 1.50676977e-04 3.26686464e-02 7.27953434e-01 6.70823097e-01 4.28997912e-02 3.41980681e-02 3.46060172e-02 3.84660847e-02 4.52708341e-02 5.40528782e-02 7.38687366e-02 1.09369695e-01 1.71466768e-01 3.65121752e-01 4.01293278e-01 4.21899945e-01 2.10000891e-02 1.04075727e-04 1.05636267e-04 2.11086488e-04 9.99489963e-01 9.99721527e-01 4.65239175e-02 3.37733403e-02 2.16621935e-01 5.38570642e-01 5.86821795e-01 5.91307819e-01 5.01483619e-01 2.28929091e-02 1.24675586e-04 1.20937992e-04 2.05325443e-04 7.74608506e-03 8.07826400e-01 1.37233451e-01 1.07914805e-01 8.61643180e-02 6.68451339e-02 5.16351536e-02 4.14995328e-02 4.09038104e-02 5.00139147e-02 6.48730993e-02 1.79914877e-01 1.87256515e-01 1.30130857e-01 7.38540385e-03 1.33025052e-04 1.07815758e-04 1.18407457e-04 2.33616251e-02 9.98313844e-01 9.99554515e-01 9.72447574e-01 7.54765272e-01 6.05255604e-01 5.57687759e-01 5.12456238e-01 4.75399047e-01 3.86514843e-01 2.08815662e-04 1.19089411e-04 1.38520350e-04 9.10381903e-04 9.19542849e-01 4.94034857e-01 4.02750850e-01 2.66833305e-01 1.36975482e-01 5.73008657e-02 2.37219743e-02 1.28201963e-02 9.67076700e-03 9.41473618e-03 1.16964774e-02 2.50210930e-02 3.04818209e-02 2.50553736e-03 1.84418444e-04 1.17184885e-04 1.15828669e-04 1.88219317e-04 9.99473035e-01 9.96335268e-01 9.98987019e-01 9.88979399e-01 8.86060357e-01 6.56788766e-01 5.16124487e-01 4.47033614e-01 4.09403592e-01 2.82543283e-02 1.19839082e-04 1.23195612e-04 8.56600935e-04 9.82959747e-01 9.51753438e-01 9.24809456e-01 8.37550819e-01 5.70801556e-01 1.74731329e-01 2.73088012e-02 5.82830654e-03 2.51195184e-03 1.63589721e-03 1.42637210e-03 1.40042230e-03 2.06581084e-03 1.37599942e-03 2.22576244e-04 1.28957734e-04 1.17804695e-04 1.54901660e-04 1.41492987e-03 9.99542832e-01 9.99422967e-01 9.98328269e-01 9.88593102e-01 9.00411367e-01 6.82137370e-01 5.10785997e-01 4.11021531e-01 1.90856934e-01 1.24677419e-04 1.21255289e-04 1.14380999e-03 9.97677743e-01 9.98132527e-01 9.97453570e-01 9.96035337e-01 9.90655482e-01 9.54562604e-01 5.57598233e-01 3.11830379e-02 2.77391449e-03 1.22252863e-03 5.98326151e-04 3.72218958e-04 3.68142501e-04 3.41282546e-04 2.46407435e-04 1.44509802e-04 1.24852537e-04 1.46273334e-04 7.44173652e-04 9.80900049e-01 9.98825490e-01 9.98859763e-01 9.97562647e-01 9.85719979e-01 8.99156511e-01 6.84874654e-01 4.73756135e-01 2.82394648e-01 1.30952190e-04 1.22898491e-04 2.41974092e-04 9.99391019e-01 9.99427199e-01 9.99525428e-01 9.99533236e-01 9.99528646e-01 9.99466062e-01 9.99042809e-01 9.95873094e-01 7.29245365e-01 5.46695804e-03 1.11966860e-03 4.08702588e-04 3.71374801e-04 3.24481021e-04 2.23192808e-04 1.49581567e-04 1.27763822e-04 1.39904820e-04 4.32281056e-04 7.46708870e-01 9.87872124e-01 9.97587025e-01 9.98344719e-01 9.96819735e-01 9.82758343e-01 8.88189018e-01 6.35724545e-01 3.78596693e-01 1.31224311e-04 1.27609615e-04 2.17440305e-04 9.99669850e-01 9.94152725e-01 9.94320989e-01 9.94896352e-01 9.95891571e-01 9.96770561e-01 9.96948302e-01 9.95886207e-01 9.93652225e-01 9.99460578e-01 9.92226362e-01 2.07339540e-01 3.98434233e-03 1.92981830e-03 2.51320977e-04 1.51089291e-04 1.24941347e-04 1.27074745e-04 2.44987954e-04 4.56743062e-01 9.36832011e-01 9.93058205e-01 9.97202516e-01 9.98143971e-01 9.96670961e-01 9.80469167e-01 8.34908843e-01 5.59724092e-01 1.23643651e-04 1.27472595e-04 2.43887756e-04 9.99461174e-01 9.94927049e-01 9.95349765e-01 9.95919645e-01 9.97052133e-01 9.98342633e-01 9.98848915e-01 9.98104751e-01 9.97160852e-01 9.96478617e-01 9.95032549e-01 9.93429303e-01 9.99475300e-01 9.91804719e-01 1.24188185e-01 2.01028146e-04 1.26200131e-04 1.17439624e-04 1.28963336e-04 1.37501791e-01 8.58446777e-01 9.74074662e-01 9.96071339e-01 9.97264862e-01 9.98514354e-01 9.97860610e-01 9.44341660e-01 7.55134106e-01 1.18214150e-04 1.21457670e-04 3.43931664e-04 9.97027755e-01 9.99515295e-01 9.99478281e-01 9.99603093e-01 9.99049306e-01 6.67397559e-01 9.28001758e-03 1.26532661e-02 9.97974515e-01 9.92980897e-01 9.96040702e-01 9.96345699e-01 9.95625973e-01 9.94487524e-01 9.99410272e-01 7.81867683e-01 1.79803566e-04 1.19471522e-04 1.16125069e-04 1.31510504e-04 4.76087034e-01 9.16248798e-01 9.82667863e-01 9.95576262e-01 9.97835875e-01 9.99785960e-01 9.94741380e-01 8.06026280e-01 1.16099385e-04 1.17481606e-04 7.05363229e-03 9.57049608e-01 9.78034079e-01 8.89460683e-01 2.73676170e-03 4.07035084e-04 3.81414022e-04 3.79375328e-04 3.82146245e-04 5.83432906e-04 2.05649391e-01 9.99493003e-01 9.95032728e-01 9.96129632e-01 9.96000767e-01 9.95630026e-01 9.95216012e-01 9.95723963e-01 1.83252458e-04 1.19815100e-04 1.15727045e-04 1.23009857e-04 7.07938615e-03 7.38191366e-01 9.19188380e-01 9.41044211e-01 7.25235615e-04 4.67043340e-01 9.89579499e-01 1.15643707e-04 1.15899951e-04 6.80374742e-01 8.44312847e-01 2.54801363e-01 1.25139917e-03 3.76102980e-04 3.68898065e-04 3.65854561e-04 3.63725529e-04 3.69409507e-04 3.78052879e-04 1.93031260e-03 9.05971885e-01 9.98869240e-01 9.99386907e-01 9.95517194e-01 9.95838106e-01 9.95956182e-01 9.95991051e-01 9.97770190e-01 2.44996540e-04 1.26057377e-04 1.13835129e-04 1.13826129e-04 1.50143009e-04 2.04346739e-04 2.43334638e-04 3.35101446e-04 5.03107964e-04 9.96562541e-01 1.16576593e-04 1.16023773e-04 9.43377078e-01 7.95735538e-01 4.30204868e-02 3.71102447e-04 3.59375466e-04 3.52395349e-04 3.57748184e-04 3.68475303e-04 3.79626959e-04 1.45127089e-03 2.17079055e-02 4.99653041e-01 9.60809112e-01 9.96875346e-01 9.99332190e-01 9.99348879e-01 9.95491147e-01 9.95917737e-01 9.96378720e-01 9.96683836e-01 9.58892610e-03 1.82510179e-04 1.17366231e-04 1.21242898e-04 1.42563164e-04 1.76758462e-04 3.09929863e-04 4.96205874e-04 9.99935925e-01 1.17146876e-04 1.16785734e-04 9.49680269e-01 7.69268632e-01 5.67812333e-03 3.44480097e-04 3.29455070e-04 3.39338207e-04 3.56938923e-04 3.76375741e-04 1.91901659e-03 3.85352373e-02 2.44496793e-01 4.47505385e-01 7.19433427e-01 9.42949772e-01 9.90804732e-01 9.98007774e-01 9.99454677e-01 9.98629928e-01 9.95390058e-01 9.96172667e-01 9.96600986e-01 9.95688796e-01 9.70324159e-01 2.58602144e-04 2.25366690e-04 2.31282320e-04 4.12232446e-04 3.61349992e-03 9.99976456e-01 1.15026050e-04 1.15918992e-04 9.30412471e-01 7.44923890e-01 3.81945196e-04 3.09300376e-04 2.87559931e-04 3.24835099e-04 3.63079947e-04 1.61262089e-03 5.83518520e-02 2.94188023e-01 3.86439860e-01 4.06754732e-01 5.10087192e-01 7.27429688e-01 9.07968044e-01 9.72603142e-01 9.94029939e-01 9.98646259e-01 9.99505222e-01 9.99421835e-01 9.94405806e-01 9.94879425e-01 9.95036185e-01 9.95235980e-01 9.94602382e-01 9.96395588e-01 8.89833927e-01 1.16347859e-03 9.99986172e-01 1.49097337e-04 1.13656701e-04 9.09615338e-01 7.49761462e-01 2.92988785e-04 2.52789032e-04 2.68270203e-04 3.19670973e-04 1.16153341e-03 5.42559065e-02 3.70045871e-01 4.83561516e-01 4.49137658e-01 4.20783788e-01 4.59988266e-01 5.80766559e-01 7.61086762e-01 8.81551445e-01 9.38432217e-01 9.88317430e-01 9.97530222e-01 9.98698831e-01 9.98949528e-01 9.99054670e-01 9.99472320e-01 9.99583423e-01 9.99596298e-01 9.99578357e-01 9.97979999e-01 9.57267046e-01 9.99881089e-01 1.16671959e-04 1.15392002e-04 8.95723403e-01 7.61287689e-01 2.26126052e-04 1.86325866e-04 2.44842347e-04 3.42461426e-04 2.84295585e-02 4.20333087e-01 5.90684891e-01 5.67144156e-01 5.06354690e-01 4.71546441e-01 4.84791309e-01 5.54815412e-01 6.90631807e-01 7.97787070e-01 8.53889704e-01 9.30906892e-01 9.91726816e-01 9.97730970e-01 9.97500956e-01 9.94087040e-01 9.63807166e-01 9.38612163e-01 9.82887208e-01 9.94305670e-01 9.99106348e-01 9.96291876e-01 9.99247909e-01 1.24313941e-04 1.20033212e-04 9.02981579e-01 1.60767302e-01 1.64045850e-04 1.57213100e-04 2.19232432e-04 3.32955318e-03 4.84474808e-01 6.72332406e-01 6.71377540e-01 6.08178079e-01 5.45623481e-01 5.10928929e-01 5.08603990e-01 5.44487655e-01 6.33359492e-01 7.00451672e-01 7.29034185e-01 8.52245450e-01 9.74137902e-01 9.96682346e-01 9.97908413e-01 9.94365394e-01 8.95887852e-01 5.04246235e-01 8.56573939e-01 9.98955309e-01 9.95277762e-01 9.96976376e-01 9.97050643e-01 1.30063258e-04 1.25037812e-04 9.42280710e-01 3.53237876e-04 1.38625022e-04 1.39838972e-04 2.46766402e-04 2.11464867e-01 7.54029810e-01 7.54042923e-01 6.89008594e-01 6.12381935e-01 5.47915339e-01 5.07391036e-01 4.88208413e-01 4.92407262e-01 5.36611795e-01 5.80908060e-01 5.63334227e-01 6.71698272e-01 9.39863563e-01 9.95427072e-01 9.98427987e-01 9.97469306e-01 9.93661165e-01 9.96200860e-01 9.99660075e-01 9.95701432e-01 9.96358752e-01 9.96616423e-01 2.93119898e-04 1.36053844e-04 1.30884058e-04 9.55068946e-01 2.01554198e-04 1.40461823e-04 1.38838484e-04 5.87949238e-04 7.96407521e-01 8.13720942e-01 7.48684049e-01 6.59769952e-01 5.75765908e-01 5.05717397e-01 4.52462345e-01 4.11529154e-01 3.82716954e-01 3.81585270e-01 4.13485318e-01 4.22999769e-01 4.73507762e-01 8.47358346e-01 9.93867517e-01 9.99225020e-01 9.99544501e-01 9.99427855e-01 9.93745148e-01 9.96250331e-01 9.96040225e-01 9.97509837e-01 2.93601508e-04 1.72203756e-04 1.59444360e-04 1.55008689e-04 9.53069448e-01 1.37036346e-04 1.40883974e-04 1.61288335e-04 1.52536154e-01 8.85913670e-01 7.93927491e-01 6.75025523e-01 5.78727603e-01 4.97232795e-01 4.24134940e-01 3.56411338e-01 2.92313904e-01 2.34938294e-01 1.98316097e-01 2.04090044e-01 2.66347945e-01 3.82980257e-01 7.15224564e-01 9.87540424e-01 9.99375999e-01 9.95719790e-01 9.93123710e-01 9.98218060e-01 3.89599649e-04 3.14084697e-04 2.14757601e-04 1.87802507e-04 1.78336792e-04 1.83669748e-04 2.95314414e-04 9.60579872e-01 1.19640128e-04 1.27664141e-04 2.23246316e-04 7.59892583e-01 8.41939509e-01 6.93588316e-01 5.57874143e-01 4.71120745e-01 4.00517315e-01 3.27726603e-01 2.49682769e-01 1.73290431e-01 1.10089459e-01 7.02104270e-02 5.81613295e-02 8.96171406e-02 2.56262571e-01 6.69855297e-01 9.65442181e-01 9.98486519e-01 9.98947024e-01 9.96113956e-01 7.13147879e-01 4.56796726e-03 3.49698676e-04 2.69946846e-04 1.92418040e-04 2.35035783e-04 1.18033891e-03 9.99299586e-01 9.96594191e-01 1.15698487e-04 1.18690135e-04 1.10917736e-03 9.26696539e-01 7.19509900e-01 5.34929514e-01 4.35050398e-01 3.76338869e-01 3.20008099e-01 2.49354064e-01 1.68843284e-01 9.70588923e-02 4.85282019e-02 2.36416161e-02 1.45581923e-02 1.71669610e-02 6.53223991e-02 4.92901146e-01 9.27435338e-01 9.91272390e-01 9.98917758e-01 9.99301732e-01 9.90771472e-01 9.83415723e-01 5.82398593e-01 1.48480773e-01 9.98405814e-01 9.97379124e-01 9.97895896e-01 9.96686518e-01 9.99736249e-01 1.12979251e-04 1.16400850e-04 8.66761804e-01 7.63799965e-01 5.34017563e-01 4.06815112e-01 3.55913818e-01 3.14572960e-01 2.59325027e-01 1.82692528e-01 1.01681188e-01 4.43495400e-02 1.69123057e-02 6.84866449e-03 3.56742856e-03 2.79661221e-03 4.24470333e-03 2.66355723e-02 5.72840929e-01 9.77649748e-01 9.96637464e-01 9.98806775e-01 9.99512553e-01 9.99074280e-01 9.89663184e-01 9.95192349e-01 9.96268570e-01 9.95158017e-01 9.94696677e-01 9.94163215e-01 9.99711573e-01 1.23146601e-04 1.16807219e-04 9.90936518e-01 9.04198050e-01 8.90540063e-01 8.68525445e-01 8.53233635e-01 8.39201629e-01 8.17374766e-01 7.73965001e-01 6.86460614e-01 5.28269768e-01 3.13277245e-01 1.35327026e-01 5.08357361e-02 2.49531157e-02 2.56065540e-02 8.74687657e-02 6.26632154e-01 9.73098218e-01 9.95327115e-01 9.97168779e-01 9.95170295e-01 9.85024393e-01 9.90092814e-01 9.98561025e-01 9.99371350e-01 9.99185383e-01 9.98374403e-01 9.97443140e-01 9.97425675e-01 
