# vtk DataFile Version 2.0
results/iter8.vtk, Created by Freefem++ 
ASCII
DATASET UNSTRUCTURED_GRID
POINTS 961 float
0 0 0
0.033333333 0 0
0.066666667 0 0
0.1 0 0
0.13333333 0 0
0.16666667 0 0
0.2 0 0
0.23333333 0 0
0.26666667 0 0
0.3 0 0
0.33333333 0 0
0.36666667 0 0
0.4 0 0
0.43333333 0 0
0.46666667 0 0
0.5 0 0
0.53333333 0 0
0.56666667 0 0
0.6 0 0
0.63333333 0 0
0.66666667 0 0
0.7 0 0
0.73333333 0 0
0.76666667 0 0
0.8 0 0
0.83333333 0 0
0.86666667 0 0
0.9 0 0
0.93333333 0 0
0.96666667 0 0
1 0 0
0 0.033333333 0
0.033333333 0.033333333 0
0.066666667 0.033333333 0
0.1 0.033333333 0
0.13333333 0.033333333 0
0.16666667 0.033333333 0
0.2 0.033333333 0
0.23333333 0.033333333 0
0.26666667 0.033333333 0
0.3 0.033333333 0
0.33333333 0.033333333 0
0.36666667 0.033333333 0
0.4 0.033333333 0
0.43333333 0.033333333 0
0.46666667 0.033333333 0
0.5 0.033333333 0
0.53333333 0.033333333 0
0.56666667 0.033333333 0
0.6 0.033333333 0
0.63333333 0.033333333 0
0.66666667 0.033333333 0
0.7 0.033333333 0
0.73333333 0.033333333 0
0.76666667 0.033333333 0
0.8 0.033333333 0
0.83333333 0.033333333 0
0.86666667 0.033333333 0
0.9 0.033333333 0
0.93333333 0.033333333 0
0.96666667 0.033333333 0
1 0.033333333 0
0 0.066666667 0
0.033333333 0.066666667 0
0.066666667 0.066666667 0
0.1 0.066666667 0
0.13333333 0.066666667 0
0.16666667 0.066666667 0
0.2 0.066666667 0
0.23333333 0.066666667 0
0.26666667 0.066666667 0
0.3 0.066666667 0
0.33333333 0.066666667 0
0.36666667 0.066666667 0
0.4 0.066666667 0
0.43333333 0.066666667 0
0.46666667 0.066666667 0
0.5 0.066666667 0
0.53333333 0.066666667 0
0.56666667 0.066666667 0
0.6 0.066666667 0
0.63333333 0.066666667 0
0.66666667 0.066666667 0
0.7 0.066666667 0
0.73333333 0.066666667 0
0.76666667 0.066666667 0
0.8 0.066666667 0
0.83333333 0.066666667 0
0.86666667 0.066666667 0
0.9 0.066666667 0
0.93333333 0.066666667 0
0.96666667 0.066666667 0
1 0.066666667 0
0 0.1 0
0.033333333 0.1 0
0.066666667 0.1 0
0.1 0.1 0
0.13333333 0.1 0
0.16666667 0.1 0
0.2 0.1 0
0.23333333 0.1 0
0.26666667 0.1 0
0.3 0.1 0
0.33333333 0.1 0
0.36666667 0.1 0
0.4 0.1 0
0.43333333 0.1 0
0.46666667 0.1 0
0.5 0.1 0
0.53333333 0.1 0
0.56666667 0.1 0
0.6 0.1 0
0.63333333 0.1 0
0.66666667 0.1 0
0.7 0.1 0
0.73333333 0.1 0
0.76666667 0.1 0
0.8 0.1 0
0.83333333 0.1 0
0.86666667 0.1 0
0.9 0.1 0
0.93333333 0.1 0
0.96666667 0.1 0
1 0.1 0
0 0.13333333 0
0.033333333 0.13333333 0
0.066666667 0.13333333 0
0.1 0.13333333 0
0.13333333 0.13333333 0
0.16666667 0.13333333 0
0.2 0.13333333 0
0.23333333 0.13333333 0
0.26666667 0.13333333 0
0.3 0.13333333 0
0.33333333 0.13333333 0
0.36666667 0.13333333 0
0.4 0.13333333 0
0.43333333 0.13333333 0
0.46666667 0.13333333 0
0.5 0.13333333 0
0.53333333 0.13333333 0
0.56666667 0.13333333 0
0.6 0.13333333 0
0.63333333 0.13333333 0
0.66666667 0.13333333 0
0.7 0.13333333 0
0.73333333 0.13333333 0
0.76666667 0.13333333 0
0.8 0.13333333 0
0.83333333 0.13333333 0
0.86666667 0.13333333 0
0.9 0.13333333 0
0.93333333 0.13333333 0
0.96666667 0.13333333 0
1 0.13333333 0
0 0.16666667 0
0.033333333 0.16666667 0
0.066666667 0.16666667 0
0.1 0.16666667 0
0.13333333 0.16666667 0
0.16666667 0.16666667 0
0.2 0.16666667 0
0.23333333 0.16666667 0
0.26666667 0.16666667 0
0.3 0.16666667 0
0.33333333 0.16666667 0
0.36666667 0.16666667 0
0.4 0.16666667 0
0.43333333 0.16666667 0
0.46666667 0.16666667 0
0.5 0.16666667 0
0.53333333 0.16666667 0
0.56666667 0.16666667 0
0.6 0.16666667 0
0.63333333 0.16666667 0
0.66666667 0.16666667 0
0.7 0.16666667 0
0.73333333 0.16666667 0
0.76666667 0.16666667 0
0.8 0.16666667 0
0.83333333 0.16666667 0
0.86666667 0.16666667 0
0.9 0.16666667 0
0.93333333 0.16666667 0
0.96666667 0.16666667 0
1 0.16666667 0
0 0.2 0
0.033333333 0.2 0
0.066666667 0.2 0
0.1 0.2 0
0.13333333 0.2 0
0.16666667 0.2 0
0.2 0.2 0
0.23333333 0.2 0
0.26666667 0.2 0
0.3 0.2 0
0.33333333 0.2 0
0.36666667 0.2 0
0.4 0.2 0
0.43333333 0.2 0
0.46666667 0.2 0
0.5 0.2 0
0.53333333 0.2 0
0.56666667 0.2 0
0.6 0.2 0
0.63333333 0.2 0
0.66666667 0.2 0
0.7 0.2 0
0.73333333 0.2 0
0.76666667 0.2 0
0.8 0.2 0
0.83333333 0.2 0
0.86666667 0.2 0
0.9 0.2 0
0.93333333 0.2 0
0.96666667 0.2 0
1 0.2 0
0 0.23333333 0
0.033333333 0.23333333 0
0.066666667 0.23333333 0
0.1 0.23333333 0
0.13333333 0.23333333 0
0.16666667 0.23333333 0
0.2 0.23333333 0
0.23333333 0.23333333 0
0.26666667 0.23333333 0
0.3 0.23333333 0
0.33333333 0.23333333 0
0.36666667 0.23333333 0
0.4 0.23333333 0
0.43333333 0.23333333 0
0.46666667 0.23333333 0
0.5 0.23333333 0
0.53333333 0.23333333 0
0.56666667 0.23333333 0
0.6 0.23333333 0
0.63333333 0.23333333 0
0.66666667 0.23333333 0
0.7 0.23333333 0
0.73333333 0.23333333 0
0.76666667 0.23333333 0
0.8 0.23333333 0
0.83333333 0.23333333 0
0.86666667 0.23333333 0
0.9 0.23333333 0
0.93333333 0.23333333 0
0.96666667 0.23333333 0
1 0.23333333 0
0 0.26666667 0
0.033333333 0.26666667 0
0.066666667 0.26666667 0
0.1 0.26666667 0
0.13333333 0.26666667 0
0.16666667 0.26666667 0
0.2 0.26666667 0
0.23333333 0.26666667 0
0.26666667 0.26666667 0
0.3 0.26666667 0
0.33333333 0.26666667 0
0.36666667 0.26666667 0
0.4 0.26666667 0
0.43333333 0.26666667 0
0.46666667 0.26666667 0
0.5 0.26666667 0
0.53333333 0.26666667 0
0.56666667 0.26666667 0
0.6 0.26666667 0
0.63333333 0.26666667 0
0.66666667 0.26666667 0
0.7 0.26666667 0
0.73333333 0.26666667 0
0.76666667 0.26666667 0
0.8 0.26666667 0
0.83333333 0.26666667 0
0.86666667 0.26666667 0
0.9 0.26666667 0
0.93333333 0.26666667 0
0.96666667 0.26666667 0
1 0.26666667 0
0 0.3 0
0.033333333 0.3 0
0.066666667 0.3 0
0.1 0.3 0
0.13333333 0.3 0
0.16666667 0.3 0
0.2 0.3 0
0.23333333 0.3 0
0.26666667 0.3 0
0.3 0.3 0
0.33333333 0.3 0
0.36666667 0.3 0
0.4 0.3 0
0.43333333 0.3 0
0.46666667 0.3 0
0.5 0.3 0
0.53333333 0.3 0
0.56666667 0.3 0
0.6 0.3 0
0.63333333 0.3 0
0.66666667 0.3 0
0.7 0.3 0
0.73333333 0.3 0
0.76666667 0.3 0
0.8 0.3 0
0.83333333 0.3 0
0.86666667 0.3 0
0.9 0.3 0
0.93333333 0.3 0
0.96666667 0.3 0
1 0.3 0
0 0.33333333 0
0.033333333 0.33333333 0
0.066666667 0.33333333 0
0.1 0.33333333 0
0.13333333 0.33333333 0
0.16666667 0.33333333 0
0.2 0.33333333 0
0.23333333 0.33333333 0
0.26666667 0.33333333 0
0.3 0.33333333 0
0.33333333 0.33333333 0
0.36666667 0.33333333 0
0.4 0.33333333 0
0.43333333 0.33333333 0
0.46666667 0.33333333 0
0.5 0.33333333 0
0.53333333 0.33333333 0
0.56666667 0.33333333 0
0.6 0.33333333 0
0.63333333 0.33333333 0
0.66666667 0.33333333 0
0.7 0.33333333 0
0.73333333 0.33333333 0
0.76666667 0.33333333 0
0.8 0.33333333 0
0.83333333 0.33333333 0
0.86666667 0.33333333 0
0.9 0.33333333 0
0.93333333 0.33333333 0
0.96666667 0.33333333 0
1 0.33333333 0
0 0.36666667 0
0.033333333 0.36666667 0
0.066666667 0.36666667 0
0.1 0.36666667 0
0.13333333 0.36666667 0
0.16666667 0.36666667 0
0.2 0.36666667 0
0.23333333 0.36666667 0
0.26666667 0.36666667 0
0.3 0.36666667 0
0.33333333 0.36666667 0
0.36666667 0.36666667 0
0.4 0.36666667 0
0.43333333 0.36666667 0
0.46666667 0.36666667 0
0.5 0.36666667 0
0.53333333 0.36666667 0
0.56666667 0.36666667 0
0.6 0.36666667 0
0.63333333 0.36666667 0
0.66666667 0.36666667 0
0.7 0.36666667 0
0.73333333 0.36666667 0
0.76666667 0.36666667 0
0.8 0.36666667 0
0.83333333 0.36666667 0
0.86666667 0.36666667 0
0.9 0.36666667 0
0.93333333 0.36666667 0
0.96666667 0.36666667 0
1 0.36666667 0
0 0.4 0
0.033333333 0.4 0
0.066666667 0.4 0
0.1 0.4 0
0.13333333 0.4 0
0.16666667 0.4 0
0.2 0.4 0
0.23333333 0.4 0
0.26666667 0.4 0
0.3 0.4 0
0.33333333 0.4 0
0.36666667 0.4 0
0.4 0.4 0
0.43333333 0.4 0
0.46666667 0.4 0
0.5 0.4 0
0.53333333 0.4 0
0.56666667 0.4 0
0.6 0.4 0
0.63333333 0.4 0
0.66666667 0.4 0
0.7 0.4 0
0.73333333 0.4 0
0.76666667 0.4 0
0.8 0.4 0
0.83333333 0.4 0
0.86666667 0.4 0
0.9 0.4 0
0.93333333 0.4 0
0.96666667 0.4 0
1 0.4 0
0 0.43333333 0
0.033333333 0.43333333 0
0.066666667 0.43333333 0
0.1 0.43333333 0
0.13333333 0.43333333 0
0.16666667 0.43333333 0
0.2 0.43333333 0
0.23333333 0.43333333 0
0.26666667 0.43333333 0
0.3 0.43333333 0
0.33333333 0.43333333 0
0.36666667 0.43333333 0
0.4 0.43333333 0
0.43333333 0.43333333 0
0.46666667 0.43333333 0
0.5 0.43333333 0
0.53333333 0.43333333 0
0.56666667 0.43333333 0
0.6 0.43333333 0
0.63333333 0.43333333 0
0.66666667 0.43333333 0
0.7 0.43333333 0
0.73333333 0.43333333 0
0.76666667 0.43333333 0
0.8 0.43333333 0
0.83333333 0.43333333 0
0.86666667 0.43333333 0
0.9 0.43333333 0
0.93333333 0.43333333 0
0.96666667 0.43333333 0
1 0.43333333 0
0 0.46666667 0
0.033333333 0.46666667 0
0.066666667 0.46666667 0
0.1 0.46666667 0
0.13333333 0.46666667 0
0.16666667 0.46666667 0
0.2 0.46666667 0
0.23333333 0.46666667 0
0.26666667 0.46666667 0
0.3 0.46666667 0
0.33333333 0.46666667 0
0.36666667 0.46666667 0
0.4 0.46666667 0
0.43333333 0.46666667 0
0.46666667 0.46666667 0
0.5 0.46666667 0
0.53333333 0.46666667 0
0.56666667 0.46666667 0
0.6 0.46666667 0
0.63333333 0.46666667 0
0.66666667 0.46666667 0
0.7 0.46666667 0
0.73333333 0.46666667 0
0.76666667 0.46666667 0
0.8 0.46666667 0
0.83333333 0.46666667 0
0.86666667 0.46666667 0
0.9 0.46666667 0
0.93333333 0.46666667 0
0.96666667 0.46666667 0
1 0.46666667 0
0 0.5 0
0.033333333 0.5 0
0.066666667 0.5 0
0.1 0.5 0
0.13333333 0.5 0
0.16666667 0.5 0
0.2 0.5 0
0.23333333 0.5 0
0.26666667 0.5 0
0.3 0.5 0
0.33333333 0.5 0
0.36666667 0.5 0
0.4 0.5 0
0.43333333 0.5 0
0.46666667 0.5 0
0.5 0.5 0
0.53333333 0.5 0
0.56666667 0.5 0
0.6 0.5 0
0.63333333 0.5 0
0.66666667 0.5 0
0.7 0.5 0
0.73333333 0.5 0
0.76666667 0.5 0
0.8 0.5 0
0.83333333 0.5 0
0.86666667 0.5 0
0.9 0.5 0
0.93333333 0.5 0
0.96666667 0.5 0
1 0.5 0
0 0.53333333 0
0.033333333 0.53333333 0
0.066666667 0.53333333 0
0.1 0.53333333 0
0.13333333 0.53333333 0
0.16666667 0.53333333 0
0.2 0.53333333 0
0.23333333 0.53333333 0
0.26666667 0.53333333 0
0.3 0.53333333 0
0.33333333 0.53333333 0
0.36666667 0.53333333 0
0.4 0.53333333 0
0.43333333 0.53333333 0
0.46666667 0.53333333 0
0.5 0.53333333 0
0.53333333 0.53333333 0
0.56666667 0.53333333 0
0.6 0.53333333 0
0.63333333 0.53333333 0
0.66666667 0.53333333 0
0.7 0.53333333 0
0.73333333 0.53333333 0
0.76666667 0.53333333 0
0.8 0.53333333 0
[...]
CELL_DATA 1920
Scalars  Label int 1
LOOKUP_TABLE FreeFempp_table
0
0
0
0
0
0
0
0
0
0
0
0
0
0
0
0
0
0
0
0
0
0
0
0
0
0
0
0
0
0
0
0
0
0
0
0
0
0
0
0
0
0
0
0
0
0
0
0
0
0
0
0
0
0
0
0
0
0
0
0
0
0
0
0
0
0
0
0
0
0
0
0
0
0
0
0
0
0
0
0
0
0
0
0
0
0
0
0
0
0
0
0
0
0
0
0
0
0
0
0
0
0
0
0
0
0
0
0
0
0
0
0
0
0
0
0
0
0
0
0
0
0
0
0
0
0
0
0
0
0
0
0
0
0
0
0
0
0
0
0
0
0
0
0
0
0
0
0
0
0
0
0
0
0
0
0
0
0
0
0
0
0
0
0
0
0
0
0
0
0
0
0
0
0
0
0
0
0
0
0
0
0
0
0
0
0
0
0
0
0
0
0
0
0
0
0
0
0
0
0
0
0
0
0
0
0
0
0
0
0
0
0
0
0
0
0
0
0
0
0
0
0
0
0
0
0
0
0
0
0
0
0
0
0
0
0
0
0
0
0
0
0
0
0
0
0
0
0
0
0
0
0
0
0
0
0
0
0
0
0
0
0
0
0
0
0
0
0
0
0
0
0
0
0
0
0
0
0
0
0
0
0
0
0
0
0
0
0
0
0
0
0
0
0
0
0
0
0
0
0
0
0
0
0
0
0
0
0
0
0
0
0
0
0
0
0
0
0
0
0
0
0
0
0
0
0
0
0
0
0
0
0
0
0
0
0
0
0
0
0
0
0
0
0
0
0
0
0
0
0
0
0
0
0
0
0
0
0
0
0
0
0
0
0
0
0
0
0
0
0
0
0
0
0
0
0
0
0
0
0
0
0
0
0
0
0
0
0
0
0
0
0
0
0
0
0
0
0
0
0
0
0
0
0
0
0
0
0
0
0
0
0
0
0
0
0
0
0
0
0
0
0
0
0
0
0
0
0
0
0
0
0
0
0
0
0
0
0
0
0
0
0
0
0
0
0
0
0
0
0
0
0
0
0
0
0
0
0
0
0
0
0
0
0
0
0
0
0
0
0
0
0
0
0
0
0
0
0
0
0
0
0
0
0
0
0
0
0
0
0
0
0
0
0
0
0
0
0
0
0
0
0
0
0
0
0
0
0
0
0
0
0
0
0
0
0
0
0
0
0
0
0
0
0
0
0
0
0
0
0
0
0
0
0
0
0
0
0
0
0
0
0
0
0
0
0
0
0
0
0
0
0
0
0
0
0
0
0
0
0
0
0
0
0
0
0
0
0
0
0
0
0
0
0
0
0
0
0
0
0
0
0
0
0
0
0
0
0
0
0
0
0
0
0
0
0
0
0
0
0
0
0
0
0
0
0
0
0
0
0
0
0
0
0
0
0
0
0
0
0
0
0
0
0
0
0
0
0
0
0
0
0
0
0
0
0
0
0
0
0
0
0
0
0
0
0
0
0
0
0
0
0
0
0
0
0
0
0
0
0
0
0
0
0
0
0
0
0
0
0
0
0
0
0
0
0
0
0
0
0
0
0
0
0
0
0
0
0
0
0
0
0
0
0
0
0
0
0
0
0
0
0
0
0
0
0
0
0
0
0
0
0
0
0
0
0
0
0
0
0
0
0
0
0
0
0
0
0
0
0
0
0
0
0
0
0
0
0
0
0
0
0
0
0
0
0
0
0
0
0
0
0
0
0
0
0
0
0
0
0
0
0
0
0
0
0
0
0
0
0
0
0
0
0
0
0
0
0
0
0
0
0
0
0
0
0
0
0
0
0
0
0
0
0
0
0
0
0
0
0
0
0
0
0
0
0
0
0
0
0
0
0
0
0
0
0
0
0
0
0
0
0
0
0
0
0
0
0
0
0
0
0
0
0
0
0
0
0
0
0
0
0
0
0
0
0
0
0
0
0
0
0
0
0
0
0
0
0
0
0
0
0
0
0
0
0
0
0
0
0
0
0
0
0
0
0
0
0
0
0
0
0
0
0
0
0
0
0
0
0
0
0
0
0
0
0
0
0
0
0
0
0
0
0
0
0
0
0
0
0
0
0
0
0
0
0
0
0
0
0
0
0
0
0
0
0
0
0
0
0
0
0
0
0
0
0
0
0
0
0
0
0
0
0
0
0
0
0
0
0
0
0
0
0
0
0
0
0
0
0
0
0
0
0
0
0
0
0
0
0
0
0
0
0
0
0
0
0
0
0
0
0
0
0
0
0
0
0
0
0
0
0
0
0
0
0
0
0
0
0
0
0
0
0
0
0
0
0
0
0
0
0
0
0
0
0
0
0
0
0
0
0
0
0
0
0
0
0
0
0
0
0
0
0
0
0
0
0
0
0
0
0
0
0
0
0
0
0
0
0
0
0
0
0
0
0
0
0
0
0
0
0
0
0
0
0
0
0
0
0
0
0
0
0
0
0
0
0
0
0
0
0
0
0
0
0
0
0
0
0
0
0
0
0
0
0
0
0
0
0
0
0
0
0
0
0
0
0
0
0
0
0
0
0
0
0
0
0
0
0
0
0
0
0
0
0
0
0
0
0
0
0
0
0
0
0
0
0
0
0
0
0
0
0
0
0
0
0
0
0
0
0
0
0
0
0
0
0
0
0
0
0
0
0
0
0
0
0
0
0
0
0
0
0
0
0
0
0
0
0
0
0
0
0
0
0
0
0
0
0
0
0
0
0
0
0
0
0
0
0
0
0
0
0
0
0
0
0
0
0
0
0
0
0
0
0
0
0
0
0
0
0
0
0
0
0
0
0
0
0
0
0
0
0
0
0
0
0
0
0
0
0
0
0
0
0
0
0
0
0
0
0
0
0
0
0
0
0
0
0
0
0
0
0
0
0
0
0
0
0
0
0
0
0
0
0
0
0
0
0
0
0
0
0
0
0
0
0
0
0
0
0
0
0
0
0
0
0
0
0
0
0
0
0
0
0
0
0
0
0
0
0
0
0
0
0
0
0
0
0
0
0
0
0
0
0
0
0
0
0
0
0
0
0
0
0
0
0
0
0
0
0
0
0
0
0
0
0
0
0
0
0
0
0
0
0
0
0
0
0
0
0
0
0
0
0
0
0
0
0
0
0
0
0
0
0
0
0
0
0
0
0
0
0
0
0
0
0
0
0
0
0
0
0
0
0
0
0
0
0
0
0
0
0
0
0
0
0
0
0
0
0
0
0
0
0
0
0
0
0
0
0
0
0
0
0
0
0
0
0
0
0
0
0
0
0
0
0
0
0
0
0
0
0
0
0
0
0
0
0
0
0
0
0
0
0
0
0
0
0
0
0
0
0
0
0
0
0
0
0
0
0
0
0
0
0
0
0
0
0
0
0
0
0
0
0
0
0
0
0
0
0
0
0
0
0
0
0
0
0
0
0
0
0
0
0
0
0
0
0
0
0
0
0
0
0
0
0
0
0
0
0
0
0
0
0
0
0
0
0
0
0
0
0
0
0
0
0
0
0
0
0
0
0
0
0
0
0
0
0
0
0
0
0
0
0
0
0
0
0
0
0
0
0
0
0
0
0
0
0
0
0
0
0
0
0
0
0
0
0
0
0
0
0
0
0
0
0
0
0
0
0
0
0
0
0
0
0
0
0
0
0
0
0
0
0
0
0
0
0
0
0
0
0
0
0
0
0
0
0
0
0
0
0
0
0
0
0
0
0
0
0
0
0
0
0
0
0
0
0
0
0
0
0
0
0
0
0
0
0
0
0
0
0
0
0
0
0
0
0
0
0
0
0
0
0
0
0
0
0
0
0
0
0
0
0
0
0
0
0
0
0
0
0
0
0
0
0
0
0
0
0
0
0
0
0
0
0
0
0
0
0
0
0
0
0
0
0
0
0
0
0
0
0
0
0
0
0
0
0
0
0
0
0
0
0
0
0
0
0
0
0
0
0
0
0
0
0
0
0
0
0
0
0
0
0
0
0
0
0
0
0
0
0
0
0
0
0
0
0
0
0
0
0
0
0
0
0
0
0
0
0
0
0
0
0
0
0
0
0
0
0
0
0
0
0
0
0
0
0
0
0
0
0
0
0
0
0
0
0
1
1
1
1
1
1
1
1
1
1
1
1
1
1
1
1
1
1
1
1
1
1
1
1
1
1
1
1
1
1
2
2
2
2
2
2
2
2
2
2
2
2
2
2
2
2
2
2
2
2
2
2
2
2
2
2
2
2
2
2
3
3
3
3
3
3
3
3
3
3
3
3
3
3
3
3
3
3
3
3
3
3
3
3
3
3
3
3
3
3
4
4
4
4
4
4
4
4
4
4
4
4
4
4
4
4
4
4
4
4
4
4
4
4
4
4
4
4
4
4

LOOKUP_TABLE FreeFempp_table 5
1.00000000 0.00000000 0.00000000 1.00000000
1.00000000 1.00000000 0.00000000 1.00000000
1.00000000 0.00000000 1.00000000 1.00000000
0.00000000 1.00000000 0.00000000 1.00000000
0.00000000 1.00000000 1.00000000 1.00000000

POINT_DATA 961
FIELD FieldData 1
Density 1 961 float
5.60208201e-01 5.19260228e-01 4.75765206e-03 1.35032213e-04 1.38542702e-04 5.10999293e-04 1.20903015e-01 5.11826634e-01 5.56323528e-01 5.90067685e-01 6.42794430e-01 7.12656736e-01 8.51554751e-01 9.22332883e-01 9.23832834e-01 9.23776090e-01 9.37354803e-01 9.51130152e-01 9.43443477e-01 9.29670870e-01 9.16423082e-01 8.98209631e-01 8.75501692e-01 8.51370275e-01 8.30351472e-01 8.00251365e-01 7.84279108e-01 7.75088429e-01 7.70924270e-01 7.70216227e-01 6.32366776e-01 3.17451447e-01 5.73642850e-01 7.04742689e-03 1.34839283e-04 1.19494740e-04 1.72712535e-04 1.38017600e-02 4.58336562e-01 5.54439425e-01 6.05478644e-01 6.75013542e-01 7.75561512e-01 9.15716887e-01 9.81198251e-01 9.88538265e-01 9.86923218e-01 9.93827581e-01 9.95007098e-01 9.93716180e-01 9.89558935e-01 9.85542357e-01 9.82354939e-01 9.77142096e-01 9.69217420e-01 9.49420035e-01 9.31426227e-01 9.14250910e-01 9.01351929e-01 8.94641340e-01 8.94021511e-01 7.67646968e-01 8.54198933e-01 7.08966076e-01 1.90419257e-02 1.52756111e-04 1.23011574e-04 1.50440159e-04 6.04303461e-03 2.55216658e-01 4.14062589e-01 5.21757662e-01 6.18720114e-01 6.95398569e-01 8.61794055e-01 9.67331231e-01 9.67581749e-01 8.25759947e-01 7.29249954e-01 6.41124010e-01 7.41076112e-01 9.39713657e-01 9.30145919e-01 9.46926415e-01 9.60327268e-01 9.70488489e-01 9.58263934e-01 9.29239690e-01 8.98783982e-01 8.78414750e-01 8.68443012e-01 8.65911663e-01 7.48795033e-01 3.95151377e-02 8.90131950e-01 2.61517856e-02 1.70577405e-04 1.25085775e-04 1.38571908e-04 3.53873381e-03 4.98208404e-02 1.22684948e-01 3.80953878e-01 5.68822443e-01 5.80079257e-01 7.46489406e-01 9.51026022e-01 5.88235438e-01 2.54496525e-04 2.31357451e-04 2.39293571e-04 2.52133352e-04 2.53432081e-04 3.09632072e-04 5.53202175e-04 1.95495854e-03 2.46059019e-02 3.87186676e-01 8.92966092e-01 8.47162604e-01 8.24254394e-01 8.20994377e-01 8.20975482e-01 7.21612871e-01 1.02678969e-04 7.15688467e-01 3.67563628e-02 1.75234280e-04 1.28387110e-04 1.35056398e-04 2.94820056e-03 1.99786320e-01 1.13765553e-01 1.50940627e-01 5.25422454e-01 3.88078630e-01 2.55188704e-01 5.14160395e-01 9.21234906e-01 6.65180909e-04 2.45980191e-04 1.95747256e-04 1.57876173e-04 1.36435570e-04 1.24240425e-04 1.17266005e-04 1.13868307e-04 1.13812101e-04 1.16246250e-04 2.37942819e-04 2.55323082e-01 7.81847894e-01 7.42310286e-01 7.66435325e-01 6.83756828e-01 1.01804748e-04 1.01499587e-04 1.02927312e-04 1.07522108e-04 1.21604433e-04 1.44216538e-04 1.54775835e-03 1.33164912e-01 4.41755056e-01 4.02935743e-01 4.59961563e-01 4.43451375e-01 2.21552998e-01 1.33876979e-01 6.63849175e-01 9.39381182e-01 1.09608890e-03 5.97855716e-04 2.96333368e-04 1.84358782e-04 1.43407786e-04 1.25089224e-04 1.17210082e-04 1.13685681e-04 1.09180139e-04 1.09211192e-04 1.16545081e-04 9.37513169e-03 6.77732527e-01 7.18705833e-01 6.49029195e-01 1.48106022e-02 1.01869060e-04 1.02338912e-04 1.02279853e-04 1.02984755e-04 1.05570769e-04 1.54699606e-04 1.12449401e-03 2.14443043e-01 5.45532882e-01 5.14542460e-01 5.79434693e-01 4.25679058e-01 1.79251999e-01 2.72543609e-01 9.77975547e-01 9.95506048e-01 1.18723281e-01 2.13853680e-02 9.38884635e-03 5.63045591e-03 5.44716278e-03 7.12918304e-03 4.65505477e-03 3.51375347e-04 1.12732676e-04 1.08155728e-04 1.08212393e-04 1.19835988e-03 3.50492835e-01 6.29563630e-01 3.07730317e-01 4.49937135e-01 3.65416170e-04 1.06937994e-04 1.03130398e-04 1.02413193e-04 1.02624959e-04 1.08715685e-04 4.94864129e-04 2.55144984e-01 4.91222978e-01 4.97449130e-01 3.68033797e-01 1.46826401e-01 6.27514645e-02 5.13835669e-01 9.99112248e-01 9.97704685e-01 6.27494991e-01 3.11162442e-01 3.51746798e-01 5.07376969e-01 5.72497070e-01 6.37226701e-01 6.44338131e-01 5.47285676e-01 1.31509645e-04 1.06916646e-04 1.07431450e-04 2.79238855e-04 1.56823138e-03 5.15551031e-01 7.46099174e-01 6.07245922e-01 1.49657689e-02 2.46972253e-04 1.07724278e-04 1.02516839e-04 1.02355116e-04 1.03751066e-04 1.70651227e-04 6.31559342e-02 2.87655294e-01 1.52182162e-01 2.44435333e-02 1.06874881e-02 5.87858856e-02 8.69554460e-01 9.99646544e-01 9.91635025e-01 6.90764606e-01 5.51863372e-01 6.33467376e-01 6.60475969e-01 6.72969401e-01 6.86061800e-01 6.91948473e-01 5.66473424e-01 1.32155255e-04 1.06866682e-04 1.09740773e-04 1.38500356e-04 5.77244997e-01 6.30782425e-01 6.60892904e-01 5.98840237e-01 5.23290262e-02 1.33845862e-03 1.64873738e-04 1.04089537e-04 1.02401704e-04 1.02634040e-04 1.08740016e-04 6.20457286e-04 1.02426764e-02 5.96272945e-03 5.21906558e-03 3.43288518e-02 4.41926211e-01 9.67590034e-01 9.97455835e-01 9.61081445e-01 7.79976249e-01 6.56097293e-01 6.52435184e-01 6.77034497e-01 6.83063209e-01 6.87619627e-01 6.63605869e-01 2.30048243e-02 1.11353460e-04 1.11174930e-04 1.28453466e-04 5.97142994e-01 6.13842309e-01 6.04606986e-01 5.90472698e-01 5.43233156e-01 2.26678565e-01 1.21233072e-02 4.80991439e-04 1.11171474e-04 1.02879574e-04 1.02519443e-04 1.02817765e-04 1.10010988e-04 4.50190215e-04 3.40739614e-03 3.94770168e-02 4.26303118e-01 8.27939212e-01 9.83303905e-01 9.87264991e-01 9.21991885e-01 8.12804878e-01 7.04717398e-01 6.78349555e-01 6.85698509e-01 6.80994511e-01 6.71104133e-01 1.54863775e-01 1.12294758e-04 1.13199247e-04 1.02413096e-03 7.43087530e-01 7.84349501e-01 7.64317632e-01 7.23875821e-01 6.34006917e-01 4.98887211e-01 4.55645680e-01 2.69370526e-01 2.13854434e-03 1.80599774e-04 1.06488296e-04 1.02552985e-04 1.02428821e-04 1.03168954e-04 1.14566275e-04 9.62149352e-04 5.20935543e-02 6.12876832e-01 9.42588687e-01 9.76405025e-01 9.46071088e-01 8.96367848e-01 8.19464445e-01 7.31941104e-01 6.94936216e-01 6.84897840e-01 6.74037695e-01 3.59168112e-01 1.10881032e-04 1.11531837e-04 5.30153885e-03 8.69757533e-01 9.41454291e-01 9.35713112e-01 9.29036856e-01 9.14365828e-01 8.75425220e-01 7.86934495e-01 5.92425942e-01 4.84514415e-01 7.06761777e-02 2.73182802e-03 2.11289240e-04 1.06608954e-04 1.02895487e-04 1.02991122e-04 1.04168030e-04 2.64151109e-04 2.79480815e-02 7.07185984e-01 9.26761568e-01 9.09840882e-01 9.10938561e-01 8.86390090e-01 8.30982625e-01 7.50291049e-01 6.90983534e-01 6.80100322e-01 4.73151505e-01 1.10164947e-04 1.09860084e-04 1.65607885e-03 9.37287152e-01 9.87292826e-01 9.85973060e-01 9.87419426e-01 9.89073217e-01 9.91787791e-01 9.92000461e-01 9.85593736e-01 9.70037639e-01 9.22100544e-01 8.50698173e-01 7.99106896e-01 1.14597619e-01 7.00329256e-04 1.06871201e-04 1.03039798e-04 1.02845137e-04 1.40031188e-04 4.56306785e-02 8.38764250e-01 8.63406718e-01 8.81829202e-01 9.03057396e-01 9.02466476e-01 8.59754145e-01 7.41555691e-01 6.61763847e-01 4.59175289e-01 1.10337227e-04 1.10228415e-04 2.73564103e-04 9.49148536e-01 9.94498312e-01 9.94973838e-01 9.96005356e-01 9.97106254e-01 9.98528004e-01 9.99261320e-01 9.99107063e-01 9.98798072e-01 9.98000979e-01 9.95965242e-01 9.92799997e-01 9.84787047e-01 9.46661294e-01 6.16600752e-01 1.62594690e-04 1.03099577e-04 1.03287362e-04 1.14873706e-04 3.06235701e-01 7.84623146e-01 8.16682398e-01 8.68039489e-01 9.13332343e-01 9.39767480e-01 8.82532954e-01 6.29604578e-01 4.96467054e-01 1.13511793e-04 1.07991829e-04 2.52248661e-04 9.05164778e-01 9.89664912e-01 9.92414594e-01 9.95483398e-01 9.94174242e-01 9.97385919e-01 9.98405576e-01 9.99156594e-01 9.99142826e-01 9.99170899e-01 9.98894930e-01 9.98128235e-01 9.97231841e-01 9.94930804e-01 9.89339411e-01 9.67730939e-01 7.97958637e-04 1.04418643e-04 1.04579725e-04 1.07605301e-04 5.63784301e-01 7.38141775e-01 7.91898012e-01 8.68302703e-01 9.68948066e-01 9.94229436e-01 8.25502098e-01 3.77308398e-01 1.12417925e-04 1.12499562e-04 6.94788236e-04 7.70242155e-01 9.25607681e-01 9.30341899e-01 8.84148777e-01 7.63035774e-01 5.27865708e-01 5.71000636e-01 8.67869914e-01 9.56850469e-01 9.89446878e-01 9.95458782e-01 9.97431397e-01 9.97487962e-01 9.97139156e-01 9.96536672e-01 9.95363176e-01 9.87386107e-01 3.44991614e-03 1.09084271e-04 1.05057894e-04 1.05251747e-04 5.64134971e-04 6.83668554e-01 7.55477309e-01 7.21433878e-01 3.83155793e-01 3.40879749e-04 7.58892834e-01 1.06399748e-04 1.05904888e-04 2.39028722e-01 6.79223359e-01 7.35952377e-01 4.28764224e-01 1.11614726e-01 4.16484177e-02 2.44597774e-02 2.59733908e-02 7.89242983e-02 4.90154505e-01 8.84101629e-01 9.41603661e-01 9.83594656e-01 9.92709100e-01 9.94766116e-01 9.95831549e-01 9.96660352e-01 9.97705638e-01 9.97046828e-01 3.32835987e-02 1.38051619e-04 1.05241030e-04 1.05940657e-04 1.12198810e-04 1.17241136e-04 1.29579290e-04 1.62185141e-04 2.42719572e-04 9.99826908e-01 1.07447260e-04 1.01480444e-04 3.99032325e-01 6.37439847e-01 2.67783999e-01 3.66193689e-02 7.22010899e-03 2.95211631e-03 2.35500280e-03 4.22651414e-03 2.32001562e-02 2.43971020e-01 8.98070395e-01 9.71920431e-01 9.39357221e-01 9.60028827e-01 9.77433920e-01 9.86601055e-01 9.91878092e-01 9.95713055e-01 9.98416603e-01 9.99289811e-01 9.15051877e-01 1.41905015e-03 1.10624882e-04 1.11472931e-04 1.12777394e-04 1.18917618e-04 1.31852605e-04 3.01625725e-04 9.99988735e-01 1.03358238e-04 1.08938279e-04 5.86124599e-01 6.30326152e-01 4.18369286e-02 3.11971665e-03 1.03947392e-03 7.41736556e-04 9.48449480e-04 2.70459685e-03 3.20158713e-02 5.20901203e-01 9.76895094e-01 9.85751331e-01 9.37762499e-01 8.76228392e-01 9.00095046e-01 9.41094279e-01 9.64627981e-01 9.79388833e-01 9.90640342e-01 9.97767985e-01 9.99339104e-01 9.99060929e-01 9.96484697e-01 3.45400006e-01 5.71113592e-03 1.19944615e-03 9.42594255e-04 1.83231402e-02 9.99992728e-01 1.08694650e-04 1.08152592e-04 7.08355069e-01 6.38025939e-01 5.04329801e-03 5.69469761e-04 3.64836247e-04 4.13858768e-04 9.03507287e-04 5.70829213e-03 1.80253744e-01 9.09974337e-01 9.84143376e-01 9.79437232e-01 9.26447392e-01 8.27624559e-01 8.00450623e-01 8.40040267e-01 8.81140709e-01 9.11844671e-01 9.35576677e-01 9.62531447e-01 9.85642314e-01 9.95420098e-01 9.96899068e-01 9.98552263e-01 9.99040008e-01 9.97295499e-01 9.61163580e-01 9.91145194e-01 9.99980807e-01 1.09571854e-04 1.08657747e-04 7.42082059e-01 6.39073193e-01 6.85316045e-04 2.32878592e-04 2.28410121e-04 3.74373660e-04 1.88266265e-03 5.24640456e-02 7.06780136e-01 9.55437839e-01 9.69688654e-01 9.50589120e-01 8.79594266e-01 7.89464474e-01 7.35749960e-01 7.48748839e-01 7.92886078e-01 8.00325692e-01 8.06406379e-01 8.11519861e-01 8.33355546e-01 8.78145993e-01 9.25882578e-01 9.52746809e-01 9.69924092e-01 9.45344031e-01 9.19960737e-01 9.92896378e-01 9.99937296e-01 1.10258014e-04 1.09218141e-04 7.54839778e-01 5.87009490e-01 2.09073914e-04 1.66433834e-04 1.89140221e-04 6.04623696e-04 1.67842451e-02 4.76257682e-01 8.86196077e-01 9.44558144e-01 9.36110735e-01 8.71889353e-01 7.64216304e-01 6.91885173e-01 6.52116656e-01 6.48216426e-01 7.07841218e-01 7.44377136e-01 6.87054753e-01 6.30416870e-01 5.68785012e-01 5.21613717e-01 5.64212620e-01 7.05061853e-01 8.10855865e-01 8.99370730e-01 9.80082273e-01 9.98742044e-01 9.99669015e-01 1.12154121e-04 1.10528177e-04 7.46739984e-01 2.65176624e-01 1.38442701e-04 1.43159385e-04 1.96061505e-04 3.16576520e-03 3.17068249e-01 7.88488984e-01 8.86111617e-01 9.06599402e-01 8.69489908e-01 7.53777444e-01 6.10199273e-01 5.43665826e-01 5.28400183e-01 5.35163403e-01 6.15184486e-01 7.18228221e-01 6.57557547e-01 5.34281433e-01 4.34586316e-01 3.28952461e-01 3.31322700e-01 6.63223088e-01 9.25302327e-01 9.85195398e-01 9.98144686e-01 9.99399602e-01 9.97889698e-01 1.14338487e-04 1.12704482e-04 7.14455783e-01 1.64004031e-03 1.24363534e-04 1.27700914e-04 2.97597784e-04 1.09773591e-01 7.02648222e-01 8.07811439e-01 8.47661853e-01 8.38131011e-01 7.61774898e-01 6.05264425e-01 4.61703897e-01 3.94141823e-01 3.74250263e-01 4.16024983e-01 5.43530464e-01 7.31130004e-01 7.24787116e-01 5.59673131e-01 4.65183258e-01 4.14251775e-01 4.17578816e-01 8.54486227e-01 9.91334260e-01 9.98521984e-01 9.99286354e-01 9.98744965e-01 1.88339211e-04 1.15857554e-04 1.14495277e-04 6.96975827e-01 1.58443625e-04 1.22964353e-04 1.22650410e-04 1.15742348e-03 6.05116487e-01 7.58772075e-01 7.91112065e-01 7.89125144e-01 7.49776483e-01 6.36534095e-01 4.61960167e-01 3.42247039e-01 2.69828886e-01 1.96376845e-01 2.64141023e-01 5.33744812e-01 7.74605513e-01 8.45520437e-01 7.56690979e-01 7.73453832e-01 9.08814490e-01 9.81744647e-01 9.99232888e-01 9.99807775e-01 9.99320209e-01 9.94993329e-01 2.29195182e-04 1.31702269e-04 1.24238548e-04 1.23029633e-04 6.90822661e-01 1.19020369e-04 1.23216218e-04 1.32770263e-04 6.02761172e-02 7.27200747e-01 7.62489021e-01 7.63639867e-01 7.40503609e-01 6.92876995e-01 5.72593987e-01 3.96138906e-01 2.87677795e-01 2.07198411e-01 7.24575445e-02 6.62189797e-02 4.85228658e-01 8.63033414e-01 9.23247993e-01 9.21823084e-01 9.64988112e-01 9.93623972e-01 9.98470247e-01 9.65072632e-01 2.00905895e-04 1.97509537e-04 1.45041995e-04 1.35894123e-04 1.32088520e-04 1.37426614e-04 2.24698131e-04 6.86918974e-01 1.12407433e-04 1.15207389e-04 2.13103325e-04 6.81554615e-01 7.62965083e-01 7.60863364e-01 7.46709228e-01 7.31500387e-01 7.03348100e-01 6.13974333e-01 4.47945356e-01 3.16471756e-01 1.99444637e-01 3.04154065e-02 4.16280981e-03 5.02889380e-02 8.97003353e-01 9.62208807e-01 9.66736138e-01 9.88619745e-01 9.97277319e-01 9.98839617e-01 9.93752301e-01 1.58199505e-03 3.40953324e-04 1.68867118e-04 1.37799769e-04 1.56944385e-04 4.79723036e-04 9.15465236e-01 7.72683918e-01 1.11225425e-04 1.12551963e-04 3.59697104e-03 7.64568865e-01 7.64112890e-01 7.57351160e-01 7.58995831e-01 7.71773934e-01 7.81397402e-01 7.40869164e-01 6.14220023e-01 4.72476959e-01 3.44943315e-01 8.11612383e-02 2.20309827e-03 9.79643664e-04 9.00088027e-02 9.55554068e-01 9.66313004e-01 9.84130681e-01 9.95236754e-01 9.98250008e-01 9.98061836e-01 9.25122023e-01 8.65688741e-01 9.95534480e-01 9.97463942e-01 9.98500943e-01 9.99198973e-01 9.98600423e-01 9.54500556e-01 1.08266984e-04 1.11752779e-04 7.63501883e-01 7.83676744e-01 7.72147357e-01 7.85109818e-01 8.03700030e-01 8.24426413e-01 8.48942935e-01 8.66370261e-01 8.55899692e-01 7.64981031e-01 6.74829304e-01 5.38164675e-01 3.06039378e-02 5.33054583e-04 1.24048977e-03 2.47636333e-01 8.92398655e-01 9.19493437e-01 9.67914820e-01 9.87182438e-01 9.95185316e-01 9.98154819e-01 9.98828709e-01 9.99035656e-01 9.98904467e-01 9.98231113e-01 9.97651935e-01 9.97662723e-01 9.76292372e-01 1.23039295e-04 1.07677974e-04 8.52284968e-01 6.86594427e-01 6.90922797e-01 7.10670590e-01 7.36338615e-01 7.59985685e-01 7.81037390e-01 8.03210616e-01 8.31473172e-01 8.66175354e-01 9.04031336e-01 9.32710946e-01 5.79221904e-01 4.15543094e-03 1.60157809e-03 4.16050665e-02 7.27344930e-01 6.74411535e-01 7.61527002e-01 8.05867732e-01 8.16404104e-01 8.63221765e-01 9.37699914e-01 9.59141135e-01 9.66809571e-01 9.49635983e-01 9.38070714e-01 9.33087409e-01 8.74727309e-01 
