# vtk DataFile Version 2.0
results_case1_non_linear/10_density.vtk, Created by Freefem++ 
ASCII
DATASET UNSTRUCTURED_GRID
POINTS 961 float
0 0 0
0.033333333 0 0
0.066666667 0 0
0.1 0 0
0.13333333 0 0
0.16666667 0 0
0.2 0 0
0.23333333 0 0
0.26666667 0 0
0.3 0 0
0.33333333 0 0
0.36666667 0 0
0.4 0 0
0.43333333 0 0
0.46666667 0 0
0.5 0 0
0.53333333 0 0
0.56666667 0 0
0.6 0 0
0.63333333 0 0
0.66666667 0 0
0.7 0 0
0.73333333 0 0
0.76666667 0 0
0.8 0 0
0.83333333 0 0
0.86666667 0 0
0.9 0 0
0.93333333 0 0
0.96666667 0 0
1 0 0
0 0.033333333 0
0.033333333 0.033333333 0
0.066666667 0.033333333 0
0.1 0.033333333 0
0.13333333 0.033333333 0
0.16666667 0.033333333 0
0.2 0.033333333 0
0.23333333 0.033333333 0
0.26666667 0.033333333 0
0.3 0.033333333 0
0.33333333 0.033333333 0
0.36666667 0.033333333 0
0.4 0.033333333 0
0.43333333 0.033333333 0
0.46666667 0.033333333 0
0.5 0.033333333 0
0.53333333 0.033333333 0
0.56666667 0.033333333 0
0.6 0.033333333 0
0.63333333 0.033333333 0
0.66666667 0.033333333 0
0.7 0.033333333 0
0.73333333 0.033333333 0
0.76666667 0.033333333 0
0.8 0.033333333 0
0.83333333 0.033333333 0
0.86666667 0.033333333 0
0.9 0.033333333 0
0.93333333 0.033333333 0
0.96666667 0.033333333 0
1 0.033333333 0
0 0.066666667 0
0.033333333 0.066666667 0
0.066666667 0.066666667 0
0.1 0.066666667 0
0.13333333 0.066666667 0
0.16666667 0.066666667 0
0.2 0.066666667 0
0.23333333 0.066666667 0
0.26666667 0.066666667 0
0.3 0.066666667 0
0.33333333 0.066666667 0
0.36666667 0.066666667 0
0.4 0.066666667 0
0.43333333 0.066666667 0
0.46666667 0.066666667 0
0.5 0.066666667 0
0.53333333 0.066666667 0
0.56666667 0.066666667 0
0.6 0.066666667 0
0.63333333 0.066666667 0
0.66666667 0.066666667 0
0.7 0.066666667 0
0.73333333 0.066666667 0
0.76666667 0.066666667 0
0.8 0.066666667 0
0.83333333 0.066666667 0
0.86666667 0.066666667 0
0.9 0.066666667 0
0.93333333 0.066666667 0
0.96666667 0.066666667 0
1 0.066666667 0
0 0.1 0
0.033333333 0.1 0
0.066666667 0.1 0
0.1 0.1 0
0.13333333 0.1 0
0.16666667 0.1 0
0.2 0.1 0
0.23333333 0.1 0
0.26666667 0.1 0
0.3 0.1 0
0.33333333 0.1 0
0.36666667 0.1 0
0.4 0.1 0
0.43333333 0.1 0
0.46666667 0.1 0
0.5 0.1 0
0.53333333 0.1 0
0.56666667 0.1 0
0.6 0.1 0
0.63333333 0.1 0
0.66666667 0.1 0
0.7 0.1 0
0.73333333 0.1 0
0.76666667 0.1 0
0.8 0.1 0
0.83333333 0.1 0
0.86666667 0.1 0
0.9 0.1 0
0.93333333 0.1 0
0.96666667 0.1 0
1 0.1 0
0 0.13333333 0
0.033333333 0.13333333 0
0.066666667 0.13333333 0
0.1 0.13333333 0
0.13333333 0.13333333 0
0.16666667 0.13333333 0
0.2 0.13333333 0
0.23333333 0.13333333 0
0.26666667 0.13333333 0
0.3 0.13333333 0
0.33333333 0.13333333 0
0.36666667 0.13333333 0
0.4 0.13333333 0
0.43333333 0.13333333 0
0.46666667 0.13333333 0
0.5 0.13333333 0
0.53333333 0.13333333 0
0.56666667 0.13333333 0
0.6 0.13333333 0
0.63333333 0.13333333 0
0.66666667 0.13333333 0
0.7 0.13333333 0
0.73333333 0.13333333 0
0.76666667 0.13333333 0
0.8 0.13333333 0
0.83333333 0.13333333 0
0.86666667 0.13333333 0
0.9 0.13333333 0
0.93333333 0.13333333 0
0.96666667 0.13333333 0
1 0.13333333 0
0 0.16666667 0
0.033333333 0.16666667 0
0.066666667 0.16666667 0
0.1 0.16666667 0
0.13333333 0.16666667 0
0.16666667 0.16666667 0
0.2 0.16666667 0
0.23333333 0.16666667 0
0.26666667 0.16666667 0
0.3 0.16666667 0
0.33333333 0.16666667 0
0.36666667 0.16666667 0
0.4 0.16666667 0
0.43333333 0.16666667 0
0.46666667 0.16666667 0
0.5 0.16666667 0
0.53333333 0.16666667 0
0.56666667 0.16666667 0
0.6 0.16666667 0
0.63333333 0.16666667 0
0.66666667 0.16666667 0
0.7 0.16666667 0
0.73333333 0.16666667 0
0.76666667 0.16666667 0
0.8 0.16666667 0
0.83333333 0.16666667 0
0.86666667 0.16666667 0
0.9 0.16666667 0
0.93333333 0.16666667 0
0.96666667 0.16666667 0
1 0.16666667 0
0 0.2 0
0.033333333 0.2 0
0.066666667 0.2 0
0.1 0.2 0
0.13333333 0.2 0
0.16666667 0.2 0
0.2 0.2 0
0.23333333 0.2 0
0.26666667 0.2 0
0.3 0.2 0
0.33333333 0.2 0
0.36666667 0.2 0
0.4 0.2 0
0.43333333 0.2 0
0.46666667 0.2 0
0.5 0.2 0
0.53333333 0.2 0
0.56666667 0.2 0
0.6 0.2 0
0.63333333 0.2 0
0.66666667 0.2 0
0.7 0.2 0
0.73333333 0.2 0
0.76666667 0.2 0
0.8 0.2 0
0.83333333 0.2 0
0.86666667 0.2 0
0.9 0.2 0
0.93333333 0.2 0
0.96666667 0.2 0
1 0.2 0
0 0.23333333 0
0.033333333 0.23333333 0
0.066666667 0.23333333 0
0.1 0.23333333 0
0.13333333 0.23333333 0
0.16666667 0.23333333 0
0.2 0.23333333 0
0.23333333 0.23333333 0
0.26666667 0.23333333 0
0.3 0.23333333 0
0.33333333 0.23333333 0
0.36666667 0.23333333 0
0.4 0.23333333 0
0.43333333 0.23333333 0
0.46666667 0.23333333 0
0.5 0.23333333 0
0.53333333 0.23333333 0
0.56666667 0.23333333 0
0.6 0.23333333 0
0.63333333 0.23333333 0
0.66666667 0.23333333 0
0.7 0.23333333 0
0.73333333 0.23333333 0
0.76666667 0.23333333 0
0.8 0.23333333 0
0.83333333 0.23333333 0
0.86666667 0.23333333 0
0.9 0.23333333 0
0.93333333 0.23333333 0
0.96666667 0.23333333 0
1 0.23333333 0
0 0.26666667 0
0.033333333 0.26666667 0
0.066666667 0.26666667 0
0.1 0.26666667 0
0.13333333 0.26666667 0
0.16666667 0.26666667 0
0.2 0.26666667 0
0.23333333 0.26666667 0
0.26666667 0.26666667 0
0.3 0.26666667 0
0.33333333 0.26666667 0
0.36666667 0.26666667 0
0.4 0.26666667 0
0.43333333 0.26666667 0
0.46666667 0.26666667 0
0.5 0.26666667 0
0.53333333 0.26666667 0
0.56666667 0.26666667 0
0.6 0.26666667 0
0.63333333 0.26666667 0
0.66666667 0.26666667 0
0.7 0.26666667 0
0.73333333 0.26666667 0
0.76666667 0.26666667 0
0.8 0.26666667 0
0.83333333 0.26666667 0
0.86666667 0.26666667 0
0.9 0.26666667 0
0.93333333 0.26666667 0
0.96666667 0.26666667 0
1 0.26666667 0
0 0.3 0
0.033333333 0.3 0
0.066666667 0.3 0
0.1 0.3 0
0.13333333 0.3 0
0.16666667 0.3 0
0.2 0.3 0
0.23333333 0.3 0
0.26666667 0.3 0
0.3 0.3 0
0.33333333 0.3 0
0.36666667 0.3 0
0.4 0.3 0
0.43333333 0.3 0
0.46666667 0.3 0
0.5 0.3 0
0.53333333 0.3 0
0.56666667 0.3 0
0.6 0.3 0
0.63333333 0.3 0
0.66666667 0.3 0
0.7 0.3 0
0.73333333 0.3 0
0.76666667 0.3 0
0.8 0.3 0
0.83333333 0.3 0
0.86666667 0.3 0
0.9 0.3 0
0.93333333 0.3 0
0.96666667 0.3 0
1 0.3 0
0 0.33333333 0
0.033333333 0.33333333 0
0.066666667 0.33333333 0
0.1 0.33333333 0
0.13333333 0.33333333 0
0.16666667 0.33333333 0
0.2 0.33333333 0
0.23333333 0.33333333 0
0.26666667 0.33333333 0
0.3 0.33333333 0
0.33333333 0.33333333 0
0.36666667 0.33333333 0
0.4 0.33333333 0
0.43333333 0.33333333 0
0.46666667 0.33333333 0
0.5 0.33333333 0
0.53333333 0.33333333 0
0.56666667 0.33333333 0
0.6 0.33333333 0
0.63333333 0.33333333 0
0.66666667 0.33333333 0
0.7 0.33333333 0
0.73333333 0.33333333 0
0.76666667 0.33333333 0
0.8 0.33333333 0
0.83333333 0.33333333 0
0.86666667 0.33333333 0
0.9 0.33333333 0
0.93333333 0.33333333 0
0.96666667 0.33333333 0
1 0.33333333 0
0 0.36666667 0
0.033333333 0.36666667 0
0.066666667 0.36666667 0
0.1 0.36666667 0
0.13333333 0.36666667 0
0.16666667 0.36666667 0
0.2 0.36666667 0
0.23333333 0.36666667 0
0.26666667 0.36666667 0
0.3 0.36666667 0
0.33333333 0.36666667 0
0.36666667 0.36666667 0
0.4 0.36666667 0
0.43333333 0.36666667 0
0.46666667 0.36666667 0
0.5 0.36666667 0
0.53333333 0.36666667 0
0.56666667 0.36666667 0
0.6 0.36666667 0
0.63333333 0.36666667 0
0.66666667 0.36666667 0
0.7 0.36666667 0
0.73333333 0.36666667 0
0.76666667 0.36666667 0
0.8 0.36666667 0
0.83333333 0.36666667 0
0.86666667 0.36666667 0
0.9 0.36666667 0
0.93333333 0.36666667 0
0.96666667 0.36666667 0
1 0.36666667 0
0 0.4 0
0.033333333 0.4 0
0.066666667 0.4 0
0.1 0.4 0
0.13333333 0.4 0
0.16666667 0.4 0
0.2 0.4 0
0.23333333 0.4 0
0.26666667 0.4 0
0.3 0.4 0
0.33333333 0.4 0
0.36666667 0.4 0
0.4 0.4 0
0.43333333 0.4 0
0.46666667 0.4 0
0.5 0.4 0
0.53333333 0.4 0
0.56666667 0.4 0
0.6 0.4 0
0.63333333 0.4 0
0.66666667 0.4 0
0.7 0.4 0
0.73333333 0.4 0
0.76666667 0.4 0
0.8 0.4 0
0.83333333 0.4 0
0.86666667 0.4 0
0.9 0.4 0
0.93333333 0.4 0
0.96666667 0.4 0
1 0.4 0
0 0.43333333 0
0.033333333 0.43333333 0
0.066666667 0.43333333 0
0.1 0.43333333 0
0.13333333 0.43333333 0
0.16666667 0.43333333 0
0.2 0.43333333 0
0.23333333 0.43333333 0
0.26666667 0.43333333 0
0.3 0.43333333 0
0.33333333 0.43333333 0
0.36666667 0.43333333 0
0.4 0.43333333 0
0.43333333 0.43333333 0
0.46666667 0.43333333 0
0.5 0.43333333 0
0.53333333 0.43333333 0
0.56666667 0.43333333 0
0.6 0.43333333 0
0.63333333 0.43333333 0
0.66666667 0.43333333 0
0.7 0.43333333 0
0.73333333 0.43333333 0
0.76666667 0.43333333 0
0.8 0.43333333 0
0.83333333 0.43333333 0
0.86666667 0.43333333 0
0.9 0.43333333 0
0.93333333 0.43333333 0
0.96666667 0.43333333 0
1 0.43333333 0
0 0.46666667 0
0.033333333 0.46666667 0
0.066666667 0.46666667 0
0.1 0.46666667 0
0.13333333 0.46666667 0
0.16666667 0.46666667 0
0.2 0.46666667 0
0.23333333 0.46666667 0
0.26666667 0.46666667 0
0.3 0.46666667 0
0.33333333 0.46666667 0
0.36666667 0.46666667 0
0.4 0.46666667 0
0.43333333 0.46666667 0
0.46666667 0.46666667 0
0.5 0.46666667 0
0.53333333 0.46666667 0
0.56666667 0.46666667 0
0.6 0.46666667 0
0.63333333 0.46666667 0
0.66666667 0.46666667 0
0.7 0.46666667 0
0.73333333 0.46666667 0
0.76666667 0.46666667 0
0.8 0.46666667 0
0.83333333 0.46666667 0
0.86666667 0.46666667 0
0.9 0.46666667 0
0.93333333 0.46666667 0
0.96666667 0.46666667 0
1 0.46666667 0
0 0.5 0
0.033333333 0.5 0
0.066666667 0.5 0
0.1 0.5 0
0.13333333 0.5 0
0.16666667 0.5 0
0.2 0.5 0
0.23333333 0.5 0
0.26666667 0.5 0
0.3 0.5 0
0.33333333 0.5 0
0.36666667 0.5 0
0.4 0.5 0
0.43333333 0.5 0
0.46666667 0.5 0
0.5 0.5 0
0.53333333 0.5 0
0.56666667 0.5 0
0.6 0.5 0
0.63333333 0.5 0
0.66666667 0.5 0
0.7 0.5 0
0.73333333 0.5 0
0.76666667 0.5 0
0.8 0.5 0
0.83333333 0.5 0
0.86666667 0.5 0
0.9 0.5 0
0.93333333 0.5 0
0.96666667 0.5 0
1 0.5 0
0 0.53333333 0
0.033333333 0.53333333 0
0.066666667 0.53333333 0
0.1 0.53333333 0
0.13333333 0.53333333 0
0.16666667 0.53333333 0
0.2 0.53333333 0
0.23333333 0.53333333 0
0.26666667 0.53333333 0
0.3 0.53333333 0
0.33333333 0.53333333 0
0.36666667 0.53333333 0
0.4 0.53333333 0
0.43333333 0.53333333 0
0.46666667 0.53333333 0
0.5 0.53333333 0
0.53333333 0.53333333 0
0.56666667 0.53333333 0
0.6 0.53333333 0
0.63333333 0.53333333 0
0.66666667 0.53333333 0
0.7 0.53333333 0
0.73333333 0.53333333 0
0.76666667 0.53333333 0
[...]
CELL_DATA 1920
Scalars  Label int 1
LOOKUP_TABLE FreeFempp_table
0
0
0
0
0
0
0
0
0
0
0
0
0
0
0
0
0
0
0
0
0
0
0
0
0
0
0
0
0
0
0
0
0
0
0
0
0
0
0
0
0
0
0
0
0
0
0
0
0
0
0
0
0
0
0
0
0
0
0
0
0
0
0
0
0
0
0
0
0
0
0
0
0
0
0
0
0
0
0
0
0
0
0
0
0
0
0
0
0
0
0
0
0
0
0
0
0
0
0
0
0
0
0
0
0
0
0
0
0
0
0
0
0
0
0
0
0
0
0
0
0
0
0
0
0
0
0
0
0
0
0
0
0
0
0
0
0
0
0
0
0
0
0
0
0
0
0
0
0
0
0
0
0
0
0
0
0
0
0
0
0
0
0
0
0
0
0
0
0
0
0
0
0
0
0
0
0
0
0
0
0
0
0
0
0
0
0
0
0
0
0
0
0
0
0
0
0
0
0
0
0
0
0
0
0
0
0
0
0
0
0
0
0
0
0
0
0
0
0
0
0
0
0
0
0
0
0
0
0
0
0
0
0
0
0
0
0
0
0
0
0
0
0
0
0
0
0
0
0
0
0
0
0
0
0
0
0
0
0
0
0
0
0
0
0
0
0
0
0
0
0
0
0
0
0
0
0
0
0
0
0
0
0
0
0
0
0
0
0
0
0
0
0
0
0
0
0
0
0
0
0
0
0
0
0
0
0
0
0
0
0
0
0
0
0
0
0
0
0
0
0
0
0
0
0
0
0
0
0
0
0
0
0
0
0
0
0
0
0
0
0
0
0
0
0
0
0
0
0
0
0
0
0
0
0
0
0
0
0
0
0
0
0
0
0
0
0
0
0
0
0
0
0
0
0
0
0
0
0
0
0
0
0
0
0
0
0
0
0
0
0
0
0
0
0
0
0
0
0
0
0
0
0
0
0
0
0
0
0
0
0
0
0
0
0
0
0
0
0
0
0
0
0
0
0
0
0
0
0
0
0
0
0
0
0
0
0
0
0
0
0
0
0
0
0
0
0
0
0
0
0
0
0
0
0
0
0
0
0
0
0
0
0
0
0
0
0
0
0
0
0
0
0
0
0
0
0
0
0
0
0
0
0
0
0
0
0
0
0
0
0
0
0
0
0
0
0
0
0
0
0
0
0
0
0
0
0
0
0
0
0
0
0
0
0
0
0
0
0
0
0
0
0
0
0
0
0
0
0
0
0
0
0
0
0
0
0
0
0
0
0
0
0
0
0
0
0
0
0
0
0
0
0
0
0
0
0
0
0
0
0
0
0
0
0
0
0
0
0
0
0
0
0
0
0
0
0
0
0
0
0
0
0
0
0
0
0
0
0
0
0
0
0
0
0
0
0
0
0
0
0
0
0
0
0
0
0
0
0
0
0
0
0
0
0
0
0
0
0
0
0
0
0
0
0
0
0
0
0
0
0
0
0
0
0
0
0
0
0
0
0
0
0
0
0
0
0
0
0
0
0
0
0
0
0
0
0
0
0
0
0
0
0
0
0
0
0
0
0
0
0
0
0
0
0
0
0
0
0
0
0
0
0
0
0
0
0
0
0
0
0
0
0
0
0
0
0
0
0
0
0
0
0
0
0
0
0
0
0
0
0
0
0
0
0
0
0
0
0
0
0
0
0
0
0
0
0
0
0
0
0
0
0
0
0
0
0
0
0
0
0
0
0
0
0
0
0
0
0
0
0
0
0
0
0
0
0
0
0
0
0
0
0
0
0
0
0
0
0
0
0
0
0
0
0
0
0
0
0
0
0
0
0
0
0
0
0
0
0
0
0
0
0
0
0
0
0
0
0
0
0
0
0
0
0
0
0
0
0
0
0
0
0
0
0
0
0
0
0
0
0
0
0
0
0
0
0
0
0
0
0
0
0
0
0
0
0
0
0
0
0
0
0
0
0
0
0
0
0
0
0
0
0
0
0
0
0
0
0
0
0
0
0
0
0
0
0
0
0
0
0
0
0
0
0
0
0
0
0
0
0
0
0
0
0
0
0
0
0
0
0
0
0
0
0
0
0
0
0
0
0
0
0
0
0
0
0
0
0
0
0
0
0
0
0
0
0
0
0
0
0
0
0
0
0
0
0
0
0
0
0
0
0
0
0
0
0
0
0
0
0
0
0
0
0
0
0
0
0
0
0
0
0
0
0
0
0
0
0
0
0
0
0
0
0
0
0
0
0
0
0
0
0
0
0
0
0
0
0
0
0
0
0
0
0
0
0
0
0
0
0
0
0
0
0
0
0
0
0
0
0
0
0
0
0
0
0
0
0
0
0
0
0
0
0
0
0
0
0
0
0
0
0
0
0
0
0
0
0
0
0
0
0
0
0
0
0
0
0
0
0
0
0
0
0
0
0
0
0
0
0
0
0
0
0
0
0
0
0
0
0
0
0
0
0
0
0
0
0
0
0
0
0
0
0
0
0
0
0
0
0
0
0
0
0
0
0
0
0
0
0
0
0
0
0
0
0
0
0
0
0
0
0
0
0
0
0
0
0
0
0
0
0
0
0
0
0
0
0
0
0
0
0
0
0
0
0
0
0
0
0
0
0
0
0
0
0
0
0
0
0
0
0
0
0
0
0
0
0
0
0
0
0
0
0
0
0
0
0
0
0
0
0
0
0
0
0
0
0
0
0
0
0
0
0
0
0
0
0
0
0
0
0
0
0
0
0
0
0
0
0
0
0
0
0
0
0
0
0
0
0
0
0
0
0
0
0
0
0
0
0
0
0
0
0
0
0
0
0
0
0
0
0
0
0
0
0
0
0
0
0
0
0
0
0
0
0
0
0
0
0
0
0
0
0
0
0
0
0
0
0
0
0
0
0
0
0
0
0
0
0
0
0
0
0
0
0
0
0
0
0
0
0
0
0
0
0
0
0
0
0
0
0
0
0
0
0
0
0
0
0
0
0
0
0
0
0
0
0
0
0
0
0
0
0
0
0
0
0
0
0
0
0
0
0
0
0
0
0
0
0
0
0
0
0
0
0
0
0
0
0
0
0
0
0
0
0
0
0
0
0
0
0
0
0
0
0
0
0
0
0
0
0
0
0
0
0
0
0
0
0
0
0
0
0
0
0
0
0
0
0
0
0
0
0
0
0
0
0
0
0
0
0
0
0
0
0
0
0
0
0
0
0
0
0
0
0
0
0
0
0
0
0
0
0
0
0
0
0
0
0
0
0
0
0
0
0
0
0
0
0
0
0
0
0
0
0
0
0
0
0
0
0
0
0
0
0
0
0
0
0
0
0
0
0
0
0
0
0
0
0
0
0
0
0
0
0
0
0
0
0
0
0
0
0
0
0
0
0
0
0
0
0
0
0
0
0
0
0
0
0
0
0
0
0
0
0
0
0
0
0
0
0
0
0
0
0
0
0
0
0
0
0
0
0
0
0
0
0
0
0
0
0
0
0
0
0
0
0
0
0
0
0
0
0
0
0
0
0
0
0
0
0
0
0
0
0
0
0
0
0
0
0
0
0
0
0
0
0
0
0
0
0
0
0
0
0
0
0
0
0
0
0
0
0
0
0
0
0
0
0
0
0
0
0
0
0
0
0
0
0
0
0
0
0
0
0
0
0
0
0
0
0
0
0
0
0
0
0
0
0
0
0
0
0
0
0
0
0
0
0
0
0
0
0
0
0
0
0
0
0
0
0
0
0
0
0
0
0
0
0
0
0
0
0
0
0
0
0
0
0
0
0
0
0
0
0
0
0
0
0
0
0
0
0
0
0
0
0
0
0
0
0
0
0
0
0
0
0
0
0
0
0
0
0
0
0
0
0
0
0
0
0
0
0
0
0
0
0
0
0
0
0
0
0
0
0
0
0
0
0
0
0
0
0
0
0
0
0
0
0
0
0
0
0
0
0
0
0
0
0
0
0
0
0
0
0
0
0
0
0
0
0
0
0
0
0
0
0
0
0
0
0
0
0
0
0
0
0
0
0
0
0
0
0
0
0
0
0
0
0
0
0
0
0
0
0
0
0
0
0
0
0
0
0
0
0
0
0
0
0
0
0
0
0
0
0
0
0
0
0
0
0
0
0
0
0
0
0
0
1
1
1
1
1
1
1
1
1
1
1
1
1
1
1
1
1
1
1
1
1
1
1
1
1
1
1
1
1
1
2
2
2
2
2
2
2
2
2
2
2
2
2
2
2
2
2
2
2
2
2
2
2
2
2
2
2
2
2
2
3
3
3
3
3
3
3
3
3
3
3
3
3
3
3
3
3
3
3
3
3
3
3
3
3
3
3
3
3
3
4
4
4
4
4
4
4
4
4
4
4
4
4
4
4
4
4
4
4
4
4
4
4
4
4
4
4
4
4
4

LOOKUP_TABLE FreeFempp_table 5
1.00000000 0.00000000 0.00000000 1.00000000
1.00000000 1.00000000 0.00000000 1.00000000
1.00000000 0.00000000 1.00000000 1.00000000
0.00000000 1.00000000 0.00000000 1.00000000
0.00000000 1.00000000 1.00000000 1.00000000

POINT_DATA 961
FIELD FieldData 1
Density 1 961 float
5.23058712e-01 5.25109410e-01 5.25829971e-01 5.26051939e-01 5.26252329e-01 5.26475191e-01 5.26524246e-01 5.26400268e-01 5.26231170e-01 5.26290238e-01 5.26684225e-01 5.27283549e-01 5.27846038e-01 5.28307617e-01 5.28732002e-01 5.29157579e-01 5.29588342e-01 5.30037284e-01 5.30554354e-01 5.31169653e-01 5.31649649e-01 5.30864835e-01 5.24835050e-01 4.96441454e-01 3.66472393e-01 1.25806183e-01 7.68055096e-02 1.98275611e-01 4.08939928e-01 4.86406147e-01 4.99804109e-01 5.25208414e-01 5.27962506e-01 5.29056132e-01 5.29298246e-01 5.29548824e-01 5.29869795e-01 5.29985368e-01 5.29885769e-01 5.29750764e-01 5.29806376e-01 5.30207694e-01 5.30863523e-01 5.31505525e-01 5.32086551e-01 5.32654881e-01 5.33226550e-01 5.33809662e-01 5.34422815e-01 5.35076737e-01 5.35693824e-01 5.35873711e-01 5.34237385e-01 5.26295125e-01 4.95403022e-01 3.75011146e-01 1.34255975e-01 6.56766146e-02 1.62713334e-01 3.93411577e-01 4.86411601e-01 5.01840889e-01 5.25984228e-01 5.29147267e-01 5.30518770e-01 5.30691743e-01 5.30979872e-01 5.31358421e-01 5.31565666e-01 5.31488359e-01 5.31337440e-01 5.31435311e-01 5.31816483e-01 5.32355070e-01 5.32906830e-01 5.33497155e-01 5.34134388e-01 5.34765601e-01 5.35363853e-01 5.35927653e-01 5.36372542e-01 5.36416471e-01 5.35468936e-01 5.32334328e-01 5.23669899e-01 4.95956242e-01 3.88815194e-01 1.53175160e-01 6.34251237e-02 1.39399573e-01 3.80806178e-01 4.84887838e-01 5.02177417e-01 5.26059985e-01 5.29269159e-01 5.30668378e-01 5.30726373e-01 5.30969203e-01 5.31298339e-01 5.31494856e-01 5.31467140e-01 5.31377554e-01 5.31479180e-01 5.31759381e-01 5.32140732e-01 5.32547295e-01 5.32987058e-01 5.33501267e-01 5.34040213e-01 5.34518182e-01 5.34866691e-01 5.34933269e-01 5.34344852e-01 5.32437205e-01 5.28240621e-01 5.19789577e-01 4.98163521e-01 4.14607376e-01 1.95950687e-01 7.20513761e-02 1.30845532e-01 3.77036810e-01 4.84909624e-01 5.02693772e-01 5.25904179e-01 5.29137433e-01 5.30613422e-01 5.30604720e-01 5.30769110e-01 5.31013906e-01 5.31163335e-01 5.31167626e-01 5.31172693e-01 5.31320453e-01 5.31539738e-01 5.31776309e-01 5.32009184e-01 5.32241046e-01 5.32511592e-01 5.32823503e-01 5.33113122e-01 5.33278465e-01 5.33150554e-01 5.32402098e-01 5.30472815e-01 5.26580572e-01 5.19485652e-01 5.04422069e-01 4.51515794e-01 2.71862030e-01 9.30490419e-02 1.30387068e-01 3.77862692e-01 4.85404760e-01 5.02129853e-01 5.25656164e-01 5.28900146e-01 5.30467510e-01 5.30431032e-01 5.30515254e-01 5.30699909e-01 5.30796468e-01 5.30811906e-01 5.30869126e-01 5.31019866e-01 5.31180739e-01 5.31307697e-01 5.31409442e-01 5.31490088e-01 5.31565547e-01 5.31663239e-01 5.31770110e-01 5.31804204e-01 5.31614959e-01 5.30965030e-01 5.29493153e-01 5.26693642e-01 5.21752834e-01 5.12402177e-01 4.85027403e-01 3.53777587e-01 1.19561322e-01 1.33192420e-01 3.80533636e-01 4.86585915e-01 5.02099156e-01 5.25390148e-01 5.28627098e-01 5.30255079e-01 5.30190468e-01 5.30224085e-01 5.30387640e-01 5.30462921e-01 5.30484974e-01 5.30537248e-01 5.30633986e-01 5.30712545e-01 5.30742764e-01 5.30741274e-01 5.30721247e-01 5.30684948e-01 5.30644357e-01 5.30603945e-01 5.30519664e-01 5.30290365e-01 5.29778183e-01 5.28822601e-01 5.27236760e-01 5.24611056e-01 5.19304335e-01 5.02635181e-01 3.99372578e-01 1.37227640e-01 1.35012016e-01 3.82203400e-01 4.87233967e-01 5.02155066e-01 5.25158644e-01 5.28366566e-01 5.30013978e-01 5.29919982e-01 5.29917717e-01 5.30094445e-01 5.30186534e-01 5.30207515e-01 5.30216753e-01 5.30226350e-01 5.30205607e-01 5.30142486e-01 5.30052781e-01 5.29949903e-01 5.29831588e-01 5.29691398e-01 5.29521585e-01 5.29293954e-01 5.28950810e-01 5.28430164e-01 5.27708173e-01 5.26837409e-01 5.25818527e-01 5.23052216e-01 5.06612122e-01 4.02917325e-01 1.40558749e-01 1.34763926e-01 3.82217258e-01 4.87057149e-01 5.01889765e-01 5.24968624e-01 5.28141737e-01 5.29798806e-01 5.29697061e-01 5.29645205e-01 5.29821157e-01 5.29933929e-01 5.29943466e-01 5.29896438e-01 5.29816628e-01 5.29699922e-01 5.29549181e-01 5.29379189e-01 5.29197693e-01 5.28996170e-01 5.28753638e-01 5.28442860e-01 5.28027534e-01 5.27461350e-01 5.26707709e-01 5.25785804e-01 5.24843872e-01 5.24176121e-01 5.22849798e-01 5.07133603e-01 3.97253454e-01 1.38469711e-01 1.33705258e-01 3.80450666e-01 4.86065775e-01 5.01211047e-01 5.24796486e-01 5.27944386e-01 5.29631078e-01 5.29595792e-01 5.29486418e-01 5.29583216e-01 5.29663682e-01 5.29641449e-01 5.29539943e-01 5.29387176e-01 5.29195070e-01 5.28974175e-01 5.28736591e-01 5.28483808e-01 5.28199255e-01 5.27850091e-01 5.27392745e-01 5.26776373e-01 5.25946081e-01 5.24855673e-01 5.23503482e-01 5.22010148e-01 5.20703256e-01 5.19209445e-01 5.05605876e-01 3.99343789e-01 1.40008196e-01 1.30877703e-01 3.72037411e-01 4.82437342e-01 4.99227256e-01 5.24615169e-01 5.27742803e-01 5.29463112e-01 5.29595375e-01 5.29493272e-01 5.29458761e-01 5.29423594e-01 5.29318392e-01 5.29144645e-01 5.28924406e-01 5.28674185e-01 5.28405547e-01 5.28124571e-01 5.27823925e-01 5.27477801e-01 5.27045071e-01 5.26476085e-01 5.25716901e-01 5.24712801e-01 5.23416579e-01 5.21811604e-01 5.19962311e-01 5.18024683e-01 5.15305400e-01 5.01349688e-01 4.02986467e-01 1.47575185e-01 1.07488990e-01 3.25247467e-01 4.68014508e-01 4.92944181e-01 5.24458885e-01 5.27536869e-01 5.29239953e-01 5.29505610e-01 5.29507697e-01 5.29437959e-01 5.29296398e-01 5.29076159e-01 5.28792024e-01 5.28474987e-01 5.28152704e-01 5.27840555e-01 5.27538240e-01 5.27224660e-01 5.26860178e-01 5.26397467e-01 5.25792778e-01 5.25007844e-01 5.24010777e-01 5.22784412e-01 5.21344244e-01 5.19761562e-01 5.18090427e-01 5.15421748e-01 5.03687441e-01 4.34018284e-01 1.96868196e-01 8.16161856e-02 1.83409065e-01 4.19041902e-01 4.77433592e-01 5.24399042e-01 5.27456343e-01 5.29051542e-01 5.29287517e-01 5.29341638e-01 5.29336512e-01 5.29212534e-01 5.28954089e-01 5.28583646e-01 5.28152585e-01 5.27720869e-01 5.27332306e-01 5.26998520e-01 5.26690364e-01 5.26349783e-01 5.25919735e-01 5.25365829e-01 5.24674296e-01 5.23847580e-01 5.22912979e-01 5.21937370e-01 5.21035969e-01 5.20290494e-01 5.19142807e-01 5.13366282e-01 4.82449174e-01 3.41433316e-01 1.18510798e-01 1.42610237e-01 3.83149654e-01 4.65012938e-01 5.24396181e-01 5.27488708e-01 5.29083610e-01 5.29148221e-01 5.29068410e-01 5.29041171e-01 5.28982401e-01 5.28807700e-01 5.28477788e-01 5.28018236e-01 5.27501225e-01 5.27007401e-01 5.26591837e-01 5.26256263e-01 5.25942326e-01 5.25578797e-01 5.25130153e-01 5.24598360e-01 5.24012506e-01 5.23431897e-01 5.22955000e-01 5.22714436e-01 5.22797704e-01 5.22842467e-01 5.20346999e-01 5.03903925e-01 4.22254324e-01 1.84326202e-01 1.21244043e-01 3.35236162e-01 4.39500868e-01 5.24406731e-01 5.27441740e-01 5.29108405e-01 5.29211223e-01 5.28918922e-01 5.28696895e-01 5.28566897e-01 5.28455555e-01 5.28254151e-01 5.27914882e-01 5.27454615e-01 5.26942372e-01 5.26446044e-01 5.26020765e-01 5.25673091e-01 5.25346041e-01 5.24991691e-01 5.24608433e-01 5.24232209e-01 5.23930192e-01 5.23798823e-01 5.23948789e-01 5.24440408e-01 5.25049210e-01 5.24480283e-01 5.17525077e-01 4.82643813e-01 3.33000243e-01 1.18404105e-01 1.78037763e-01 3.38650942e-01 5.24491429e-01 5.27476847e-01 5.29025674e-01 5.29191434e-01 5.28921068e-01 5.28517663e-01 5.28191566e-01 5.27977407e-01 5.27786970e-01 5.27565420e-01 5.27271688e-01 5.26908219e-01 5.26485145e-01 5.26026905e-01 5.25600433e-01 5.25231957e-01 5.24896681e-01 5.24584949e-01 5.24323165e-01 5.24165094e-01 5.24179816e-01 5.24429917e-01 5.24919808e-01 5.25463581e-01 5.25318205e-01 5.21752656e-01 5.01520038e-01 3.91289353e-01 1.41028926e-01 1.24343246e-01 2.62043476e-01 5.24600208e-01 5.27588665e-01 5.29076040e-01 5.29139042e-01 5.28934002e-01 5.28605402e-01 5.28173745e-01 5.27742088e-01 5.27387857e-01 5.27081609e-01 5.26815891e-01 5.26599467e-01 5.26374638e-01 5.26051462e-01 5.25630772e-01 5.25202513e-01 5.24815321e-01 5.24485648e-01 5.24237037e-01 5.24106622e-01 5.24133146e-01 5.24336159e-01 5.24676561e-01 5.24976611e-01 5.24713576e-01 5.22070408e-01 5.07871270e-01 4.29210335e-01 1.80758029e-01 9.53427702e-02 1.91237926e-01 5.24668574e-01 5.27666450e-01 5.29154539e-01 5.29192269e-01 5.28969526e-01 5.28719366e-01 5.28398097e-01 5.27941346e-01 5.27449131e-01 5.26968598e-01 5.26527524e-01 5.26217580e-01 5.26039958e-01 5.25863469e-01 5.25539756e-01 5.25112748e-01 5.24674058e-01 5.24286568e-01 5.23992419e-01 5.23827255e-01 5.23818672e-01 5.23973405e-01 5.24254262e-01 5.24538815e-01 5.24515450e-01 5.23178577e-01 5.15883386e-01 4.78820235e-01 3.17961037e-01 9.64631513e-02 7.41973296e-02 5.24686158e-01 5.27683198e-01 5.29169083e-01 5.29216707e-01 5.28990507e-01 5.28729677e-01 5.28464377e-01 5.28133690e-01 5.27719080e-01 5.27223706e-01 5.26678503e-01 5.26177287e-01 5.25832355e-01 5.25591791e-01 5.25281787e-01 5.24863720e-01 5.24397254e-01 5.23956776e-01 5.23601651e-01 5.23378432e-01 5.23324132e-01 5.23461103e-01 5.23786128e-01 5.24249315e-01 5.24692416e-01 5.24525166e-01 5.20938039e-01 4.99017328e-01 3.78912866e-01 1.17587611e-01 4.78978083e-02 5.24679005e-01 5.27670503e-01 5.29144347e-01 5.29197752e-01 5.28979719e-01 5.28703630e-01 5.28424442e-01 5.28137088e-01 5.27810574e-01 5.27406394e-01 5.26911080e-01 5.26369214e-01 5.25869429e-01 5.25439978e-01 5.25007069e-01 5.24521410e-01 5.24003685e-01 5.23503900e-01 5.23076713e-01 5.22774518e-01 5.22648573e-01 5.22747457e-01 5.23110151e-01 5.23748100e-01 5.24587095e-01 5.25191903e-01 5.23263514e-01 5.05541861e-01 3.93287718e-01 1.22136146e-01 4.38576825e-02 5.24675548e-01 5.27663827e-01 5.29124558e-01 5.29180288e-01 5.28972745e-01 5.28696835e-01 5.28400540e-01 5.28097749e-01 5.27778149e-01 5.27414441e-01 5.26982307e-01 5.26480675e-01 5.25936782e-01 5.25378227e-01 5.24801373e-01 5.24199367e-01 5.23587167e-01 5.22996426e-01 5.22467911e-01 5.22049665e-01 5.21799445e-01 5.21786571e-01 5.22087276e-01 5.22765517e-01 5.23806632e-01 5.24853885e-01 5.23812950e-01 5.07789969e-01 3.97164494e-01 1.22992717e-01 4.30329964e-02 5.24691045e-01 5.27680993e-01 5.29132724e-01 5.29192388e-01 5.28997004e-01 5.28729618e-01 5.28428197e-01 5.28105259e-01 5.27760625e-01 5.27383626e-01 5.26960731e-01 5.26480556e-01 5.25935888e-01 5.25327146e-01 5.24661839e-01 5.23956954e-01 5.23236632e-01 5.22529483e-01 5.21868527e-01 5.21294653e-01 5.20864010e-01 5.20655692e-01 5.20774364e-01 5.21336854e-01 5.22406459e-01 5.23726583e-01 5.23340046e-01 5.08457780e-01 3.98790151e-01 1.23395622e-01 4.29197475e-02 5.24727941e-01 5.27724266e-01 5.29171109e-01 5.29237509e-01 5.29057145e-01 5.28804541e-01 5.28510273e-01 5.28181672e-01 5.27819395e-01 5.27420402e-01 5.26979625e-01 5.26489258e-01 5.25935829e-01 5.25305986e-01 5.24597347e-01 5.23824811e-01 5.23013830e-01 5.22192597e-01 5.21390140e-01 5.20641863e-01 5.19999206e-01 5.19543052e-01 5.19396663e-01 5.19730031e-01 5.20715415e-01 5.22261083e-01 5.22545755e-01 5.08605838e-01 3.99491102e-01 1.23543344e-01 4.28395756e-02 5.24782300e-01 5.27788341e-01 5.29232800e-01 5.29307008e-01 5.29143453e-01 5.28909981e-01 5.28632343e-01 5.28314054e-01 5.27953744e-01 5.27548730e-01 5.27095735e-01 5.26589572e-01 5.26019990e-01 5.25374115e-01 5.24644494e-01 5.23837030e-01 5.22968829e-01 5.22061348e-01 5.21137834e-01 5.20227790e-01 5.19377112e-01 5.18663704e-01 5.18220186e-01 5.18261731e-01 5.19084632e-01 5.20831048e-01 5.21889627e-01 5.08940816e-01 3.99996698e-01 1.23563267e-01 4.27023694e-02 5.24849057e-01 5.27866840e-01 5.29309750e-01 5.29391348e-01 5.29244721e-01 5.29031992e-01 5.28775752e-01 5.28477132e-01 5.28133512e-01 5.27741075e-01 5.27295470e-01 5.26790679e-01 5.26218355e-01 5.25569677e-01 5.24839163e-01 5.24028182e-01 5.23144066e-01 5.22196710e-01 5.21198511e-01 5.20169318e-01 5.19145310e-01 5.18195450e-01 5.17449796e-01 5.17149687e-01 5.17700732e-01 5.19522190e-01 5.21374166e-01 5.09683251e-01 4.00956154e-01 1.23760998e-01 4.26570475e-02 5.24924695e-01 5.27954936e-01 5.29395878e-01 5.29483736e-01 5.29353678e-01 5.29162347e-01 5.28929353e-01 5.28654337e-01 5.28334320e-01 5.27965903e-01 5.27544379e-01 5.27063191e-01 5.26514411e-01 5.25891602e-01 5.25192082e-01 5.24416745e-01 5.23566604e-01 5.22640765e-01 5.21638215e-01 5.20563066e-01 5.19432783e-01 5.18292487e-01 5.17247140e-01 5.16527116e-01 5.16597211e-01 5.18148601e-01 5.20557344e-01 5.10477781e-01 4.02513951e-01 1.24201879e-01 4.27696332e-02 5.25007069e-01 5.28047562e-01 5.29484808e-01 5.29577672e-01 5.29463589e-01 5.29293716e-01 5.29084623e-01 5.28834283e-01 5.28539598e-01 5.28198361e-01 5.27808249e-01 5.27365029e-01 5.26863337e-01 5.26298761e-01 5.25670469e-01 5.24979174e-01 5.24223149e-01 5.23395181e-01 5.22483706e-01 5.21475732e-01 5.20361483e-01 5.19143462e-01 5.17863154e-01 5.16671181e-01 5.15983403e-01 5.16669393e-01 5.19006014e-01 5.10920942e-01 4.04751658e-01 1.24713115e-01 4.27762978e-02 5.25081754e-01 5.28119981e-01 5.29551029e-01 5.29648125e-01 5.29548883e-01 5.29398441e-01 5.29210746e-01 5.28982818e-01 5.28711319e-01 5.28395116e-01 5.28034985e-01 5.27632296e-01 5.27187824e-01 5.26702464e-01 5.26177645e-01 5.25614917e-01 5.25012851e-01 5.24364650e-01 5.23656964e-01 5.22869229e-01 5.21971822e-01 5.20924449e-01 5.19683361e-01 5.18245161e-01 5.16797662e-01 5.16070783e-01 5.17148554e-01 5.10822237e-01 4.08046365e-01 1.25409022e-01 4.25313152e-02 5.24989367e-01 5.27986109e-01 5.29411912e-01 5.29514849e-01 5.29429078e-01 5.29293060e-01 5.29119849e-01 5.28907299e-01 5.28653204e-01 5.28357089e-01 5.28021991e-01 5.27654409e-01 5.27263463e-01 5.26858509e-01 5.26446819e-01 5.26033103e-01 5.25620103e-01 5.25208354e-01 5.24795413e-01 5.24373412e-01 5.23924112e-01 5.23409903e-01 5.22762895e-01 5.21883488e-01 5.20702481e-01 5.19429386e-01 5.18677711e-01 5.11552870e-01 4.12185341e-01 1.26439765e-01 4.19205986e-02 5.23396969e-01 5.26421845e-01 5.27872443e-01 5.27986288e-01 5.27917266e-01 5.27798116e-01 5.27642071e-01 5.27449310e-01 5.27219713e-01 5.26954174e-01 5.26656330e-01 5.26334405e-01 5.26001811e-01 5.25674880e-01 5.25367618e-01 5.25089502e-01 5.24848223e-01 5.24653316e-01 5.24517953e-01 5.24458706e-01 5.24494410e-01 5.24643660e-01 5.24919868e-01 5.25325119e-01 5.25845945e-01 5.26412010e-01 5.26155531e-01 5.15818775e-01 4.17339623e-01 1.29070178e-01 4.04350311e-02 5.21244586e-01 5.23347437e-01 5.24833560e-01 5.24906874e-01 5.24845719e-01 5.24748981e-01 5.24621844e-01 5.24464130e-01 5.24276257e-01 5.24059713e-01 5.23817658e-01 5.23557067e-01 5.23290038e-01 5.23032486e-01 5.22799373e-01 5.22601068e-01 5.22445798e-01 5.22344112e-01 5.22312284e-01 5.22373676e-01 5.22560239e-01 5.22915483e-01 5.23498416e-01 5.24386644e-01 5.25651157e-01 5.27120531e-01 5.26847780e-01 5.12736022e-01 4.21161830e-01 1.36599675e-01 3.23568434e-02 
