# vtk DataFile Version 2.0
results/iter1.vtk, Created by Freefem++ 
ASCII
DATASET UNSTRUCTURED_GRID
POINTS 961 float
0 0 0
0.033333333 0 0
0.066666667 0 0
0.1 0 0
0.13333333 0 0
0.16666667 0 0
0.2 0 0
0.23333333 0 0
0.26666667 0 0
0.3 0 0
0.33333333 0 0
0.36666667 0 0
0.4 0 0
0.43333333 0 0
0.46666667 0 0
0.5 0 0
0.53333333 0 0
0.56666667 0 0
0.6 0 0
0.63333333 0 0
0.66666667 0 0
0.7 0 0
0.73333333 0 0
0.76666667 0 0
0.8 0 0
0.83333333 0 0
0.86666667 0 0
0.9 0 0
0.93333333 0 0
0.96666667 0 0
1 0 0
0 0.033333333 0
0.033333333 0.033333333 0
0.066666667 0.033333333 0
0.1 0.033333333 0
0.13333333 0.033333333 0
0.16666667 0.033333333 0
0.2 0.033333333 0
0.23333333 0.033333333 0
0.26666667 0.033333333 0
0.3 0.033333333 0
0.33333333 0.033333333 0
0.36666667 0.033333333 0
0.4 0.033333333 0
0.43333333 0.033333333 0
0.46666667 0.033333333 0
0.5 0.033333333 0
0.53333333 0.033333333 0
0.56666667 0.033333333 0
0.6 0.033333333 0
0.63333333 0.033333333 0
0.66666667 0.033333333 0
0.7 0.033333333 0
0.73333333 0.033333333 0
0.76666667 0.033333333 0
0.8 0.033333333 0
0.83333333 0.033333333 0
0.86666667 0.033333333 0
0.9 0.033333333 0
0.93333333 0.033333333 0
0.96666667 0.033333333 0
1 0.033333333 0
0 0.066666667 0
0.033333333 0.066666667 0
0.066666667 0.066666667 0
0.1 0.066666667 0
0.13333333 0.066666667 0
0.16666667 0.066666667 0
0.2 0.066666667 0
0.23333333 0.066666667 0
0.26666667 0.066666667 0
0.3 0.066666667 0
0.33333333 0.066666667 0
0.36666667 0.066666667 0
0.4 0.066666667 0
0.43333333 0.066666667 0
0.46666667 0.066666667 0
0.5 0.066666667 0
0.53333333 0.066666667 0
0.56666667 0.066666667 0
0.6 0.066666667 0
0.63333333 0.066666667 0
0.66666667 0.066666667 0
0.7 0.066666667 0
0.73333333 0.066666667 0
0.76666667 0.066666667 0
0.8 0.066666667 0
0.83333333 0.066666667 0
0.86666667 0.066666667 0
0.9 0.066666667 0
0.93333333 0.066666667 0
0.96666667 0.066666667 0
1 0.066666667 0
0 0.1 0
0.033333333 0.1 0
0.066666667 0.1 0
0.1 0.1 0
0.13333333 0.1 0
0.16666667 0.1 0
0.2 0.1 0
0.23333333 0.1 0
0.26666667 0.1 0
0.3 0.1 0
0.33333333 0.1 0
0.36666667 0.1 0
0.4 0.1 0
0.43333333 0.1 0
0.46666667 0.1 0
0.5 0.1 0
0.53333333 0.1 0
0.56666667 0.1 0
0.6 0.1 0
0.63333333 0.1 0
0.66666667 0.1 0
0.7 0.1 0
0.73333333 0.1 0
0.76666667 0.1 0
0.8 0.1 0
0.83333333 0.1 0
0.86666667 0.1 0
0.9 0.1 0
0.93333333 0.1 0
0.96666667 0.1 0
1 0.1 0
0 0.13333333 0
0.033333333 0.13333333 0
0.066666667 0.13333333 0
0.1 0.13333333 0
0.13333333 0.13333333 0
0.16666667 0.13333333 0
0.2 0.13333333 0
0.23333333 0.13333333 0
0.26666667 0.13333333 0
0.3 0.13333333 0
0.33333333 0.13333333 0
0.36666667 0.13333333 0
0.4 0.13333333 0
0.43333333 0.13333333 0
0.46666667 0.13333333 0
0.5 0.13333333 0
0.53333333 0.13333333 0
0.56666667 0.13333333 0
0.6 0.13333333 0
0.63333333 0.13333333 0
0.66666667 0.13333333 0
0.7 0.13333333 0
0.73333333 0.13333333 0
0.76666667 0.13333333 0
0.8 0.13333333 0
0.83333333 0.13333333 0
0.86666667 0.13333333 0
0.9 0.13333333 0
0.93333333 0.13333333 0
0.96666667 0.13333333 0
1 0.13333333 0
0 0.16666667 0
0.033333333 0.16666667 0
0.066666667 0.16666667 0
0.1 0.16666667 0
0.13333333 0.16666667 0
0.16666667 0.16666667 0
0.2 0.16666667 0
0.23333333 0.16666667 0
0.26666667 0.16666667 0
0.3 0.16666667 0
0.33333333 0.16666667 0
0.36666667 0.16666667 0
0.4 0.16666667 0
0.43333333 0.16666667 0
0.46666667 0.16666667 0
0.5 0.16666667 0
0.53333333 0.16666667 0
0.56666667 0.16666667 0
0.6 0.16666667 0
0.63333333 0.16666667 0
0.66666667 0.16666667 0
0.7 0.16666667 0
0.73333333 0.16666667 0
0.76666667 0.16666667 0
0.8 0.16666667 0
0.83333333 0.16666667 0
0.86666667 0.16666667 0
0.9 0.16666667 0
0.93333333 0.16666667 0
0.96666667 0.16666667 0
1 0.16666667 0
0 0.2 0
0.033333333 0.2 0
0.066666667 0.2 0
0.1 0.2 0
0.13333333 0.2 0
0.16666667 0.2 0
0.2 0.2 0
0.23333333 0.2 0
0.26666667 0.2 0
0.3 0.2 0
0.33333333 0.2 0
0.36666667 0.2 0
0.4 0.2 0
0.43333333 0.2 0
0.46666667 0.2 0
0.5 0.2 0
0.53333333 0.2 0
0.56666667 0.2 0
0.6 0.2 0
0.63333333 0.2 0
0.66666667 0.2 0
0.7 0.2 0
0.73333333 0.2 0
0.76666667 0.2 0
0.8 0.2 0
0.83333333 0.2 0
0.86666667 0.2 0
0.9 0.2 0
0.93333333 0.2 0
0.96666667 0.2 0
1 0.2 0
0 0.23333333 0
0.033333333 0.23333333 0
0.066666667 0.23333333 0
0.1 0.23333333 0
0.13333333 0.23333333 0
0.16666667 0.23333333 0
0.2 0.23333333 0
0.23333333 0.23333333 0
0.26666667 0.23333333 0
0.3 0.23333333 0
0.33333333 0.23333333 0
0.36666667 0.23333333 0
0.4 0.23333333 0
0.43333333 0.23333333 0
0.46666667 0.23333333 0
0.5 0.23333333 0
0.53333333 0.23333333 0
0.56666667 0.23333333 0
0.6 0.23333333 0
0.63333333 0.23333333 0
0.66666667 0.23333333 0
0.7 0.23333333 0
0.73333333 0.23333333 0
0.76666667 0.23333333 0
0.8 0.23333333 0
0.83333333 0.23333333 0
0.86666667 0.23333333 0
0.9 0.23333333 0
0.93333333 0.23333333 0
0.96666667 0.23333333 0
1 0.23333333 0
0 0.26666667 0
0.033333333 0.26666667 0
0.066666667 0.26666667 0
0.1 0.26666667 0
0.13333333 0.26666667 0
0.16666667 0.26666667 0
0.2 0.26666667 0
0.23333333 0.26666667 0
0.26666667 0.26666667 0
0.3 0.26666667 0
0.33333333 0.26666667 0
0.36666667 0.26666667 0
0.4 0.26666667 0
0.43333333 0.26666667 0
0.46666667 0.26666667 0
0.5 0.26666667 0
0.53333333 0.26666667 0
0.56666667 0.26666667 0
0.6 0.26666667 0
0.63333333 0.26666667 0
0.66666667 0.26666667 0
0.7 0.26666667 0
0.73333333 0.26666667 0
0.76666667 0.26666667 0
0.8 0.26666667 0
0.83333333 0.26666667 0
0.86666667 0.26666667 0
0.9 0.26666667 0
0.93333333 0.26666667 0
0.96666667 0.26666667 0
1 0.26666667 0
0 0.3 0
0.033333333 0.3 0
0.066666667 0.3 0
0.1 0.3 0
0.13333333 0.3 0
0.16666667 0.3 0
0.2 0.3 0
0.23333333 0.3 0
0.26666667 0.3 0
0.3 0.3 0
0.33333333 0.3 0
0.36666667 0.3 0
0.4 0.3 0
0.43333333 0.3 0
0.46666667 0.3 0
0.5 0.3 0
0.53333333 0.3 0
0.56666667 0.3 0
0.6 0.3 0
0.63333333 0.3 0
0.66666667 0.3 0
0.7 0.3 0
0.73333333 0.3 0
0.76666667 0.3 0
0.8 0.3 0
0.83333333 0.3 0
0.86666667 0.3 0
0.9 0.3 0
0.93333333 0.3 0
0.96666667 0.3 0
1 0.3 0
0 0.33333333 0
0.033333333 0.33333333 0
0.066666667 0.33333333 0
0.1 0.33333333 0
0.13333333 0.33333333 0
0.16666667 0.33333333 0
0.2 0.33333333 0
0.23333333 0.33333333 0
0.26666667 0.33333333 0
0.3 0.33333333 0
0.33333333 0.33333333 0
0.36666667 0.33333333 0
0.4 0.33333333 0
0.43333333 0.33333333 0
0.46666667 0.33333333 0
0.5 0.33333333 0
0.53333333 0.33333333 0
0.56666667 0.33333333 0
0.6 0.33333333 0
0.63333333 0.33333333 0
0.66666667 0.33333333 0
0.7 0.33333333 0
0.73333333 0.33333333 0
0.76666667 0.33333333 0
0.8 0.33333333 0
0.83333333 0.33333333 0
0.86666667 0.33333333 0
0.9 0.33333333 0
0.93333333 0.33333333 0
0.96666667 0.33333333 0
1 0.33333333 0
0 0.36666667 0
0.033333333 0.36666667 0
0.066666667 0.36666667 0
0.1 0.36666667 0
0.13333333 0.36666667 0
0.16666667 0.36666667 0
0.2 0.36666667 0
0.23333333 0.36666667 0
0.26666667 0.36666667 0
0.3 0.36666667 0
0.33333333 0.36666667 0
0.36666667 0.36666667 0
0.4 0.36666667 0
0.43333333 0.36666667 0
0.46666667 0.36666667 0
0.5 0.36666667 0
0.53333333 0.36666667 0
0.56666667 0.36666667 0
0.6 0.36666667 0
0.63333333 0.36666667 0
0.66666667 0.36666667 0
0.7 0.36666667 0
0.73333333 0.36666667 0
0.76666667 0.36666667 0
0.8 0.36666667 0
0.83333333 0.36666667 0
0.86666667 0.36666667 0
0.9 0.36666667 0
0.93333333 0.36666667 0
0.96666667 0.36666667 0
1 0.36666667 0
0 0.4 0
0.033333333 0.4 0
0.066666667 0.4 0
0.1 0.4 0
0.13333333 0.4 0
0.16666667 0.4 0
0.2 0.4 0
0.23333333 0.4 0
0.26666667 0.4 0
0.3 0.4 0
0.33333333 0.4 0
0.36666667 0.4 0
0.4 0.4 0
0.43333333 0.4 0
0.46666667 0.4 0
0.5 0.4 0
0.53333333 0.4 0
0.56666667 0.4 0
0.6 0.4 0
0.63333333 0.4 0
0.66666667 0.4 0
0.7 0.4 0
0.73333333 0.4 0
0.76666667 0.4 0
0.8 0.4 0
0.83333333 0.4 0
0.86666667 0.4 0
0.9 0.4 0
0.93333333 0.4 0
0.96666667 0.4 0
1 0.4 0
0 0.43333333 0
0.033333333 0.43333333 0
0.066666667 0.43333333 0
0.1 0.43333333 0
0.13333333 0.43333333 0
0.16666667 0.43333333 0
0.2 0.43333333 0
0.23333333 0.43333333 0
0.26666667 0.43333333 0
0.3 0.43333333 0
0.33333333 0.43333333 0
0.36666667 0.43333333 0
0.4 0.43333333 0
0.43333333 0.43333333 0
0.46666667 0.43333333 0
0.5 0.43333333 0
0.53333333 0.43333333 0
0.56666667 0.43333333 0
0.6 0.43333333 0
0.63333333 0.43333333 0
0.66666667 0.43333333 0
0.7 0.43333333 0
0.73333333 0.43333333 0
0.76666667 0.43333333 0
0.8 0.43333333 0
0.83333333 0.43333333 0
0.86666667 0.43333333 0
0.9 0.43333333 0
0.93333333 0.43333333 0
0.96666667 0.43333333 0
1 0.43333333 0
0 0.46666667 0
0.033333333 0.46666667 0
0.066666667 0.46666667 0
0.1 0.46666667 0
0.13333333 0.46666667 0
0.16666667 0.46666667 0
0.2 0.46666667 0
0.23333333 0.46666667 0
0.26666667 0.46666667 0
0.3 0.46666667 0
0.33333333 0.46666667 0
0.36666667 0.46666667 0
0.4 0.46666667 0
0.43333333 0.46666667 0
0.46666667 0.46666667 0
0.5 0.46666667 0
0.53333333 0.46666667 0
0.56666667 0.46666667 0
0.6 0.46666667 0
0.63333333 0.46666667 0
0.66666667 0.46666667 0
0.7 0.46666667 0
0.73333333 0.46666667 0
0.76666667 0.46666667 0
0.8 0.46666667 0
0.83333333 0.46666667 0
0.86666667 0.46666667 0
0.9 0.46666667 0
0.93333333 0.46666667 0
0.96666667 0.46666667 0
1 0.46666667 0
0 0.5 0
0.033333333 0.5 0
0.066666667 0.5 0
0.1 0.5 0
0.13333333 0.5 0
0.16666667 0.5 0
0.2 0.5 0
0.23333333 0.5 0
0.26666667 0.5 0
0.3 0.5 0
0.33333333 0.5 0
0.36666667 0.5 0
0.4 0.5 0
0.43333333 0.5 0
0.46666667 0.5 0
0.5 0.5 0
0.53333333 0.5 0
0.56666667 0.5 0
0.6 0.5 0
0.63333333 0.5 0
0.66666667 0.5 0
0.7 0.5 0
0.73333333 0.5 0
0.76666667 0.5 0
0.8 0.5 0
0.83333333 0.5 0
0.86666667 0.5 0
0.9 0.5 0
0.93333333 0.5 0
0.96666667 0.5 0
1 0.5 0
0 0.53333333 0
0.033333333 0.53333333 0
0.066666667 0.53333333 0
0.1 0.53333333 0
0.13333333 0.53333333 0
0.16666667 0.53333333 0
0.2 0.53333333 0
0.23333333 0.53333333 0
0.26666667 0.53333333 0
0.3 0.53333333 0
0.33333333 0.53333333 0
0.36666667 0.53333333 0
0.4 0.53333333 0
0.43333333 0.53333333 0
0.46666667 0.53333333 0
0.5 0.53333333 0
0.53333333 0.53333333 0
0.56666667 0.53333333 0
0.6 0.53333333 0
0.63333333 0.53333333 0
0.66666667 0.53333333 0
0.7 0.53333333 0
0.73333333 0.53333333 0
0.76666667 0.53333333 0
0.8 0.53333333 0
[...]
CELL_DATA 1920
Scalars  Label int 1
LOOKUP_TABLE FreeFempp_table
0
0
0
0
0
0
0
0
0
0
0
0
0
0
0
0
0
0
0
0
0
0
0
0
0
0
0
0
0
0
0
0
0
0
0
0
0
0
0
0
0
0
0
0
0
0
0
0
0
0
0
0
0
0
0
0
0
0
0
0
0
0
0
0
0
0
0
0
0
0
0
0
0
0
0
0
0
0
0
0
0
0
0
0
0
0
0
0
0
0
0
0
0
0
0
0
0
0
0
0
0
0
0
0
0
0
0
0
0
0
0
0
0
0
0
0
0
0
0
0
0
0
0
0
0
0
0
0
0
0
0
0
0
0
0
0
0
0
0
0
0
0
0
0
0
0
0
0
0
0
0
0
0
0
0
0
0
0
0
0
0
0
0
0
0
0
0
0
0
0
0
0
0
0
0
0
0
0
0
0
0
0
0
0
0
0
0
0
0
0
0
0
0
0
0
0
0
0
0
0
0
0
0
0
0
0
0
0
0
0
0
0
0
0
0
0
0
0
0
0
0
0
0
0
0
0
0
0
0
0
0
0
0
0
0
0
0
0
0
0
0
0
0
0
0
0
0
0
0
0
0
0
0
0
0
0
0
0
0
0
0
0
0
0
0
0
0
0
0
0
0
0
0
0
0
0
0
0
0
0
0
0
0
0
0
0
0
0
0
0
0
0
0
0
0
0
0
0
0
0
0
0
0
0
0
0
0
0
0
0
0
0
0
0
0
0
0
0
0
0
0
0
0
0
0
0
0
0
0
0
0
0
0
0
0
0
0
0
0
0
0
0
0
0
0
0
0
0
0
0
0
0
0
0
0
0
0
0
0
0
0
0
0
0
0
0
0
0
0
0
0
0
0
0
0
0
0
0
0
0
0
0
0
0
0
0
0
0
0
0
0
0
0
0
0
0
0
0
0
0
0
0
0
0
0
0
0
0
0
0
0
0
0
0
0
0
0
0
0
0
0
0
0
0
0
0
0
0
0
0
0
0
0
0
0
0
0
0
0
0
0
0
0
0
0
0
0
0
0
0
0
0
0
0
0
0
0
0
0
0
0
0
0
0
0
0
0
0
0
0
0
0
0
0
0
0
0
0
0
0
0
0
0
0
0
0
0
0
0
0
0
0
0
0
0
0
0
0
0
0
0
0
0
0
0
0
0
0
0
0
0
0
0
0
0
0
0
0
0
0
0
0
0
0
0
0
0
0
0
0
0
0
0
0
0
0
0
0
0
0
0
0
0
0
0
0
0
0
0
0
0
0
0
0
0
0
0
0
0
0
0
0
0
0
0
0
0
0
0
0
0
0
0
0
0
0
0
0
0
0
0
0
0
0
0
0
0
0
0
0
0
0
0
0
0
0
0
0
0
0
0
0
0
0
0
0
0
0
0
0
0
0
0
0
0
0
0
0
0
0
0
0
0
0
0
0
0
0
0
0
0
0
0
0
0
0
0
0
0
0
0
0
0
0
0
0
0
0
0
0
0
0
0
0
0
0
0
0
0
0
0
0
0
0
0
0
0
0
0
0
0
0
0
0
0
0
0
0
0
0
0
0
0
0
0
0
0
0
0
0
0
0
0
0
0
0
0
0
0
0
0
0
0
0
0
0
0
0
0
0
0
0
0
0
0
0
0
0
0
0
0
0
0
0
0
0
0
0
0
0
0
0
0
0
0
0
0
0
0
0
0
0
0
0
0
0
0
0
0
0
0
0
0
0
0
0
0
0
0
0
0
0
0
0
0
0
0
0
0
0
0
0
0
0
0
0
0
0
0
0
0
0
0
0
0
0
0
0
0
0
0
0
0
0
0
0
0
0
0
0
0
0
0
0
0
0
0
0
0
0
0
0
0
0
0
0
0
0
0
0
0
0
0
0
0
0
0
0
0
0
0
0
0
0
0
0
0
0
0
0
0
0
0
0
0
0
0
0
0
0
0
0
0
0
0
0
0
0
0
0
0
0
0
0
0
0
0
0
0
0
0
0
0
0
0
0
0
0
0
0
0
0
0
0
0
0
0
0
0
0
0
0
0
0
0
0
0
0
0
0
0
0
0
0
0
0
0
0
0
0
0
0
0
0
0
0
0
0
0
0
0
0
0
0
0
0
0
0
0
0
0
0
0
0
0
0
0
0
0
0
0
0
0
0
0
0
0
0
0
0
0
0
0
0
0
0
0
0
0
0
0
0
0
0
0
0
0
0
0
0
0
0
0
0
0
0
0
0
0
0
0
0
0
0
0
0
0
0
0
0
0
0
0
0
0
0
0
0
0
0
0
0
0
0
0
0
0
0
0
0
0
0
0
0
0
0
0
0
0
0
0
0
0
0
0
0
0
0
0
0
0
0
0
0
0
0
0
0
0
0
0
0
0
0
0
0
0
0
0
0
0
0
0
0
0
0
0
0
0
0
0
0
0
0
0
0
0
0
0
0
0
0
0
0
0
0
0
0
0
0
0
0
0
0
0
0
0
0
0
0
0
0
0
0
0
0
0
0
0
0
0
0
0
0
0
0
0
0
0
0
0
0
0
0
0
0
0
0
0
0
0
0
0
0
0
0
0
0
0
0
0
0
0
0
0
0
0
0
0
0
0
0
0
0
0
0
0
0
0
0
0
0
0
0
0
0
0
0
0
0
0
0
0
0
0
0
0
0
0
0
0
0
0
0
0
0
0
0
0
0
0
0
0
0
0
0
0
0
0
0
0
0
0
0
0
0
0
0
0
0
0
0
0
0
0
0
0
0
0
0
0
0
0
0
0
0
0
0
0
0
0
0
0
0
0
0
0
0
0
0
0
0
0
0
0
0
0
0
0
0
0
0
0
0
0
0
0
0
0
0
0
0
0
0
0
0
0
0
0
0
0
0
0
0
0
0
0
0
0
0
0
0
0
0
0
0
0
0
0
0
0
0
0
0
0
0
0
0
0
0
0
0
0
0
0
0
0
0
0
0
0
0
0
0
0
0
0
0
0
0
0
0
0
0
0
0
0
0
0
0
0
0
0
0
0
0
0
0
0
0
0
0
0
0
0
0
0
0
0
0
0
0
0
0
0
0
0
0
0
0
0
0
0
0
0
0
0
0
0
0
0
0
0
0
0
0
0
0
0
0
0
0
0
0
0
0
0
0
0
0
0
0
0
0
0
0
0
0
0
0
0
0
0
0
0
0
0
0
0
0
0
0
0
0
0
0
0
0
0
0
0
0
0
0
0
0
0
0
0
0
0
0
0
0
0
0
0
0
0
0
0
0
0
0
0
0
0
0
0
0
0
0
0
0
0
0
0
0
0
0
0
0
0
0
0
0
0
0
0
0
0
0
0
0
0
0
0
0
0
0
0
0
0
0
0
0
0
0
0
0
0
0
0
0
0
0
0
0
0
0
0
0
0
0
0
0
0
0
0
0
0
0
0
0
0
0
0
0
0
0
0
0
0
0
0
0
0
0
0
0
0
0
0
0
0
0
0
0
0
0
0
0
0
0
0
0
0
0
0
0
0
0
0
0
0
0
0
0
0
0
0
0
0
0
0
0
0
0
0
0
0
0
0
0
0
0
0
0
0
0
0
0
0
0
0
0
0
0
0
0
0
0
0
0
0
0
0
0
0
0
0
0
0
0
0
0
0
0
0
0
0
0
0
0
0
0
0
0
0
0
0
0
0
0
0
0
0
0
0
0
0
0
0
0
0
0
0
0
0
0
0
0
0
0
0
0
0
0
0
0
0
0
0
0
0
0
0
0
0
0
0
0
0
0
0
0
0
0
0
0
0
0
0
0
0
0
0
0
0
0
0
0
0
0
0
0
0
0
0
0
0
0
0
0
0
0
0
0
0
0
0
0
0
0
0
0
0
0
0
0
0
0
0
0
0
0
0
0
0
0
0
0
0
0
0
0
0
0
0
0
0
0
0
0
0
0
0
0
0
0
0
0
0
0
0
0
0
0
0
0
0
0
0
0
0
0
0
0
0
0
0
0
0
0
0
0
0
0
0
0
0
0
0
0
0
0
0
0
0
0
0
0
0
0
0
0
0
0
0
0
0
0
0
0
0
0
0
0
0
0
0
0
0
0
0
0
0
0
0
0
1
1
1
1
1
1
1
1
1
1
1
1
1
1
1
1
1
1
1
1
1
1
1
1
1
1
1
1
1
1
2
2
2
2
2
2
2
2
2
2
2
2
2
2
2
2
2
2
2
2
2
2
2
2
2
2
2
2
2
2
3
3
3
3
3
3
3
3
3
3
3
3
3
3
3
3
3
3
3
3
3
3
3
3
3
3
3
3
3
3
4
4
4
4
4
4
4
4
4
4
4
4
4
4
4
4
4
4
4
4
4
4
4
4
4
4
4
4
4
4

LOOKUP_TABLE FreeFempp_table 5
1.00000000 0.00000000 0.00000000 1.00000000
1.00000000 1.00000000 0.00000000 1.00000000
1.00000000 0.00000000 1.00000000 1.00000000
0.00000000 1.00000000 0.00000000 1.00000000
0.00000000 1.00000000 1.00000000 1.00000000

POINT_DATA 961
FIELD FieldData 1
Density 1 961 float
1.08283665e-02 9.52922739e-03 7.73843471e-03 7.75256101e-03 7.87498243e-03 7.90189486e-03 7.96189997e-03 8.39508511e-03 1.00854151e-02 1.41180251e-02 5.92894964e-02 2.07865432e-01 3.24159622e-01 4.49797243e-01 5.62203526e-01 5.94120145e-01 5.89771152e-01 5.50874412e-01 4.87663180e-01 4.21306401e-01 3.68892908e-01 3.51448298e-01 3.82024616e-01 4.58380610e-01 5.94264984e-01 8.60173881e-01 9.50863063e-01 7.80927062e-01 1.78758632e-02 1.85167156e-02 3.95475864e-01 1.52068418e-02 8.02910700e-03 8.58441554e-03 7.74326408e-03 7.86275230e-03 7.92836677e-03 7.90037401e-03 7.94400275e-03 8.49870406e-03 7.96900783e-03 8.26104078e-03 1.07653774e-02 1.28051378e-02 1.62767600e-02 1.42956778e-01 3.61398041e-01 4.29791957e-01 3.29591066e-01 1.66815355e-01 8.77833068e-02 6.66606352e-02 8.35006684e-02 1.21157482e-01 1.22470021e-01 1.64012969e-01 5.35106182e-01 9.53900754e-01 8.86414230e-01 2.57444568e-02 8.85178428e-03 4.04976606e-02 1.95262492e-01 3.43241952e-02 4.18419726e-02 2.84248054e-01 3.68700117e-01 3.90668064e-01 3.93966913e-01 3.80267978e-01 3.05539042e-01 9.65924412e-02 1.61865819e-02 1.22728208e-02 1.09636411e-02 9.39184800e-03 9.90955066e-03 1.39773134e-02 1.46943983e-02 1.53952036e-02 1.60221644e-02 1.70936398e-02 2.17445195e-02 3.33015174e-02 4.23413366e-02 4.17931005e-02 5.84323220e-02 1.39202178e-01 8.08030367e-01 8.66073787e-01 4.34989423e-01 1.03716003e-02 1.52772674e-02 3.15095574e-01 4.11205180e-02 3.76071893e-02 2.75665909e-01 3.82223010e-01 4.13708597e-01 4.21424359e-01 4.23026413e-01 4.23350275e-01 4.21106786e-01 4.05254126e-01 3.61169457e-01 2.69277006e-01 9.80776921e-02 1.63980890e-02 1.39799463e-02 1.38902850e-02 1.44206965e-02 1.49046304e-02 1.53762503e-02 2.00201478e-02 3.59884389e-02 4.52098884e-02 4.56486829e-02 4.65274453e-02 4.77141179e-02 5.17240584e-01 8.62504065e-01 5.61002672e-01 1.30294627e-02 1.27938138e-02 3.68411154e-01 4.98457924e-02 3.96306925e-02 2.28099763e-01 3.67310822e-01 4.14958686e-01 4.30583209e-01 4.37600225e-01 4.44124550e-01 4.53381389e-01 4.64769691e-01 4.71245229e-01 4.60719913e-01 4.25009012e-01 3.37487787e-01 2.68310577e-01 2.42502272e-01 2.14470536e-01 1.76363200e-01 2.16521725e-01 2.66242325e-01 3.11356694e-01 3.28255355e-01 2.93857694e-01 2.46404827e-01 1.79430455e-01 5.59409916e-01 8.49617422e-01 6.50820136e-01 1.35718500e-02 1.28736962e-02 4.64015305e-01 7.83218369e-02 4.13020924e-02 1.51245430e-01 3.45760107e-01 4.13473696e-01 4.41539675e-01 4.59500551e-01 4.76596236e-01 5.00100553e-01 5.37361324e-01 5.83105683e-01 6.06467068e-01 5.87110996e-01 5.41169465e-01 5.26218057e-01 5.20156741e-01 4.90491539e-01 4.50708151e-01 4.36134338e-01 4.43152606e-01 4.52578038e-01 4.46859002e-01 4.23646927e-01 4.01987612e-01 4.56137627e-01 7.36135781e-01 8.67223978e-01 7.22536564e-01 1.46090370e-02 1.36161512e-02 5.83875418e-01 1.61916018e-01 5.08147813e-02 8.82378221e-02 3.12411427e-01 4.15462613e-01 4.66615081e-01 5.11822939e-01 5.56765258e-01 6.04370117e-01 6.54092550e-01 6.97202861e-01 7.22616374e-01 7.25166023e-01 6.98654354e-01 6.51537001e-01 5.89418709e-01 5.38155675e-01 5.15735865e-01 5.02407610e-01 4.93799478e-01 4.86283898e-01 4.74934757e-01 4.62322474e-01 4.72935259e-01 5.80762804e-01 7.83781052e-01 8.75821233e-01 7.58811176e-01 1.55045977e-02 1.43641215e-02 7.82527506e-01 3.59376609e-01 1.15944110e-01 8.89804289e-02 2.77962446e-01 4.53248352e-01 5.71984887e-01 6.50163352e-01 6.97616577e-01 7.25908279e-01 7.43331969e-01 7.53550351e-01 7.56106555e-01 7.46466875e-01 7.15977728e-01 6.60955012e-01 5.94381869e-01 5.47573864e-01 5.25717556e-01 5.12473285e-01 5.03488362e-01 4.96179283e-01 4.89041835e-01 4.88815397e-01 5.22558808e-01 6.40152335e-01 8.03205907e-01 8.77926111e-01 7.69351244e-01 1.63339376e-02 1.51144248e-02 9.21821058e-01 8.30849946e-01 4.51490611e-01 2.21707255e-01 4.60698873e-01 6.76118195e-01 7.60703266e-01 7.92500257e-01 8.00003707e-01 7.95655429e-01 7.86185801e-01 7.74477243e-01 7.58852124e-01 7.33328342e-01 6.91909373e-01 6.37734115e-01 5.86475372e-01 5.52441597e-01 5.33775389e-01 5.22140265e-01 5.14334500e-01 5.09314954e-01 5.07787287e-01 5.18612027e-01 5.67215383e-01 6.82849109e-01 8.17420840e-01 8.74971151e-01 7.57335842e-01 1.70268081e-02 1.59094576e-02 9.56591606e-01 9.52933788e-01 9.14388597e-01 8.11519921e-01 8.36822748e-01 8.62483799e-01 8.66515934e-01 8.58109236e-01 8.42282116e-01 8.22607934e-01 8.02005053e-01 7.81167150e-01 7.57112026e-01 7.24677384e-01 6.82164729e-01 6.35953248e-01 5.96058071e-01 5.67801178e-01 5.49934685e-01 5.38886309e-01 5.32528281e-01 5.30460000e-01 5.34634352e-01 5.53860724e-01 6.09366655e-01 7.17993140e-01 8.32334578e-01 8.71545136e-01 7.23236561e-01 1.76961757e-02 1.66499447e-02 9.37203884e-01 9.72109139e-01 9.60964561e-01 9.36367095e-01 9.29661512e-01 9.08491611e-01 8.90840352e-01 8.70555401e-01 8.48272383e-01 8.25676501e-01 8.04233253e-01 7.83413649e-01 7.60176420e-01 7.31160760e-01 6.96544826e-01 6.60549819e-01 6.27590597e-01 6.00207150e-01 5.79791784e-01 5.66447794e-01 5.59657037e-01 5.59490442e-01 5.67848563e-01 5.91783464e-01 6.48035944e-01 7.48447657e-01 8.50431144e-01 8.75204384e-01 6.55158341e-01 1.86833553e-02 1.74418632e-02 6.94778860e-01 7.74223626e-01 7.96302974e-01 7.98574865e-01 8.65625143e-01 8.67207587e-01 8.60789537e-01 8.46817195e-01 8.29743445e-01 8.12165439e-01 7.95495212e-01 7.79380381e-01 7.62157857e-01 7.42852569e-01 7.22197413e-01 7.00244606e-01 6.76116407e-01 6.50763094e-01 6.27664864e-01 6.09615862e-01 5.98162174e-01 5.95021665e-01 6.02891684e-01 6.27843797e-01 6.83567464e-01 7.78745770e-01 8.69645536e-01 8.83196056e-01 5.41488647e-01 2.05819402e-02 1.86576974e-02 4.66017097e-01 3.63076627e-01 4.08618778e-01 5.03510535e-01 6.48847520e-01 7.43445277e-01 7.82160997e-01 7.92115688e-01 7.90228248e-01 7.83373058e-01 7.74648726e-01 7.65260100e-01 7.55970716e-01 7.48919010e-01 7.44186819e-01 7.39727974e-01 7.29096293e-01 7.11066544e-01 6.90225542e-01 6.69470727e-01 6.50581479e-01 6.37902975e-01 6.37971282e-01 6.59125507e-01 7.13935733e-01 8.05182874e-01 8.82063985e-01 8.74591887e-01 4.51053619e-01 2.44471170e-02 2.10299138e-02 2.05481037e-01 1.39182746e-01 1.72113761e-01 3.44342232e-01 5.11610687e-01 6.25605583e-01 6.88381970e-01 7.18701303e-01 7.33568966e-01 7.40271151e-01 7.42267191e-01 7.42072940e-01 7.43050575e-01 7.49320507e-01 7.58397996e-01 7.67605901e-01 7.71229148e-01 7.64315903e-01 7.51821995e-01 7.35715508e-01 7.14603305e-01 6.92178845e-01 6.79166377e-01 6.89349711e-01 7.34791756e-01 8.10999811e-01 8.70125473e-01 8.04365695e-01 3.29652756e-01 3.26407403e-02 2.60541812e-02 8.64567310e-02 7.88710788e-02 1.16495050e-01 2.77945846e-01 4.54601943e-01 5.57037115e-01 6.14418864e-01 6.47561371e-01 6.70552790e-01 6.87758148e-01 7.00676620e-01 7.11223602e-01 7.23832548e-01 7.42977023e-01 7.61348367e-01 7.80144274e-01 7.93045700e-01 7.98066914e-01 7.95424998e-01 7.89482713e-01 7.76407719e-01 7.55464852e-01 7.34487653e-01 7.29114592e-01 7.50471950e-01 7.83774495e-01 7.82922268e-01 6.03043735e-01 2.02647761e-01 4.53220643e-02 3.62155735e-02 5.21415621e-02 5.80187105e-02 1.31517559e-01 3.33311856e-01 4.53901321e-01 5.23832381e-01 5.65973938e-01 5.93324482e-01 6.15850329e-01 6.36434019e-01 6.55700922e-01 6.74554527e-01 6.96101069e-01 7.23922789e-01 7.52682745e-01 7.80113280e-01 8.00192595e-01 8.12760949e-01 8.17753017e-01 8.21507514e-01 8.21300209e-01 8.13558877e-01 7.99273670e-01 7.84891486e-01 7.73857474e-01 7.35805631e-01 5.89031935e-01 3.80525440e-01 1.11347675e-01 5.60340695e-02 5.42735010e-02 3.56301144e-02 4.45998050e-02 2.25868747e-01 4.26161349e-01 4.79967296e-01 5.14250278e-01 5.38575351e-01 5.58313310e-01 5.76868773e-01 5.95613539e-01 6.15292370e-01 6.36933327e-01 6.62531018e-01 6.94264174e-01 7.27665484e-01 7.60467410e-01 7.87606597e-01 8.09424341e-01 8.21991503e-01 8.34369600e-01 8.46008837e-01 8.53471279e-01 8.54778588e-01 8.47789466e-01 8.22307050e-01 7.27370143e-01 4.79424775e-01 2.41294041e-01 8.97052959e-02 7.32491538e-02 9.31936875e-02 2.66730580e-02 3.26685868e-02 3.78254443e-01 4.73499656e-01 4.98688549e-01 5.12777805e-01 5.25062442e-01 5.38103461e-01 5.52107811e-01 5.67170799e-01 5.83793104e-01 6.03048563e-01 6.26797318e-01 6.57234251e-01 6.93675756e-01 7.29547679e-01 7.61459410e-01 7.88332522e-01 8.09855700e-01 8.31325531e-01 8.52801502e-01 8.71990263e-01 8.87080193e-01 8.95535350e-01 8.89538229e-01 8.33555520e-01 5.96271813e-01 3.12676132e-01 1.48425698e-01 1.48430809e-01 2.49691904e-01 2.19264980e-02 2.51353439e-02 4.60948259e-01 4.87303197e-01 5.00940621e-01 5.09501696e-01 5.17130196e-01 5.25993466e-01 5.36277890e-01 5.47828317e-01 5.60813665e-01 5.75921416e-01 5.94579041e-01 6.18982673e-01 6.50695741e-01 6.87122583e-01 7.22288311e-01 7.54742742e-01 7.84182429e-01 8.13416839e-01 8.42444181e-01 8.69697690e-01 8.93785059e-01 9.13207471e-01 9.25926268e-01 9.26976740e-01 8.94336820e-01 6.92272246e-01 4.73601967e-01 4.61423516e-01 5.20354331e-01 1.94343850e-02 2.12998372e-02 4.86290008e-01 4.92762774e-01 4.97937649e-01 5.04244983e-01 5.10060251e-01 5.16663015e-01 5.24473906e-01 5.33436298e-01 5.43558955e-01 5.55181921e-01 5.69228113e-01 5.87407053e-01 6.11759603e-01 6.42720520e-01 6.77380204e-01 7.12152600e-01 7.45691895e-01 7.78932273e-01 8.12344968e-01 8.44822586e-01 8.74760509e-01 9.00587142e-01 9.21573520e-01 9.38628376e-01 9.55299675e-01 9.65050876e-01 9.69062388e-01 9.79264736e-01 9.42362070e-01 1.80938970e-02 1.93301067e-02 4.96596009e-01 4.98650372e-01 4.95867938e-01 4.98772770e-01 5.02845287e-01 5.07919431e-01 5.14118850e-01 5.21326184e-01 5.29451430e-01 5.38626969e-01 5.49401700e-01 5.62912107e-01 5.80731034e-01 6.03962898e-01 6.31956637e-01 6.62501037e-01 6.93746686e-01 7.25725889e-01 7.58980036e-01 7.92825341e-01 8.25258434e-01 8.53700161e-01 8.76185238e-01 8.92770112e-01 9.05294299e-01 9.08514857e-01 9.45264876e-01 9.66236174e-01 9.72421527e-01 1.72526706e-02 1.82325356e-02 5.02760947e-01 5.03528953e-01 4.94333357e-01 4.93522584e-01 4.95790541e-01 4.99608904e-01 5.04609704e-01 5.10529220e-01 5.17186463e-01 5.24574816e-01 5.32971263e-01 5.43025255e-01 5.55669129e-01 5.71673036e-01 5.91012001e-01 6.12778664e-01 6.35998130e-01 6.60624087e-01 6.87188983e-01 7.15305388e-01 7.42510974e-01 7.64034927e-01 7.72786438e-01 7.56416500e-01 6.74268961e-01 4.08168048e-01 4.24524575e-01 7.28714526e-01 9.19898510e-01 1.65554807e-02 1.74766313e-02 5.07475078e-01 5.06477952e-01 4.92649525e-01 4.88637030e-01 4.89253998e-01 4.92023349e-01 4.96068716e-01 5.00958979e-01 5.06435037e-01 5.12389600e-01 5.18904626e-01 5.26278675e-01 5.34955502e-01 5.45289338e-01 5.57255626e-01 5.70425689e-01 5.84352970e-01 5.99057138e-01 6.14886940e-01 6.31327212e-01 6.44971251e-01 6.47674739e-01 6.25352859e-01 5.51425695e-01 3.85138661e-01 1.67034268e-01 8.06681439e-02 2.31839523e-01 6.24924660e-01 1.58407893e-02 1.67763568e-02 5.10684669e-01 5.07531106e-01 4.90614533e-01 4.84237850e-01 4.83499140e-01 4.85423565e-01 4.88717794e-01 4.92775679e-01 4.97268856e-01 5.02023995e-01 5.07000685e-01 5.12282908e-01 5.18024981e-01 5.24326801e-01 5.31099856e-01 5.38061619e-01 5.44917643e-01 5.51602006e-01 5.58247864e-01 5.64316094e-01 5.66203117e-01 5.54690421e-01 5.18352866e-01 4.56724674e-01 3.78307700e-01 1.85035035e-01 5.28259911e-02 9.82816517e-02 5.14674723e-01 1.51401134e-02 1.59570891e-02 5.12384951e-01 5.07135928e-01 4.88281131e-01 4.80484992e-01 4.78822708e-01 4.80113387e-01 4.82811242e-01 4.86174166e-01 4.89821583e-01 4.93547201e-01 4.97250527e-01 5.00906587e-01 5.04526377e-01 5.08091688e-01 5.11491239e-01 5.14514029e-01 5.16925812e-01 5.18607736e-01 5.19685209e-01 5.20234942e-01 5.18308103e-01 5.06402314e-01 4.76199210e-01 4.33836311e-01 3.75058055e-01 2.34377995e-01 4.79186997e-02 6.35676384e-02 4.22564238e-01 1.45140206e-02 1.49372555e-02 5.13595521e-01 5.05862355e-01 4.85805541e-01 4.77567852e-01 4.75546777e-01 4.76428568e-01 4.78604198e-01 4.81302649e-01 4.84140009e-01 4.86912072e-01 4.89503026e-01 4.91843969e-01 4.93883848e-01 4.95555907e-01 4.96748060e-01 4.97295678e-01 4.97008711e-01 4.95758235e-01 4.93710965e-01 4.91667092e-01 4.90371644e-01 4.86074239e-01 4.66629505e-01 4.23994094e-01 3.45143557e-01 2.31796473e-01 4.84855585e-02 4.58912030e-02 2.58624226e-01 1.38536710e-02 1.36694415e-02 5.15768945e-01 5.03732145e-01 4.83319551e-01 4.75717545e-01 4.73952204e-01 4.74591404e-01 4.76192027e-01 4.78118300e-01 4.80060965e-01 4.81851667e-01 4.83382255e-01 4.84568059e-01 4.85328376e-01 4.85570878e-01 4.85179693e-01 4.84010190e-01 4.81891245e-01 4.78653640e-01 4.74305123e-01 4.69649583e-01 4.67347771e-01 4.70728576e-01 4.73200113e-01 4.21349794e-01 2.93249100e-01 1.61210209e-01 5.94408028e-02 4.14586887e-02 1.15038231e-01 1.14217782e-02 1.24300718e-02 5.20916045e-01 5.01325369e-01 4.81623411e-01 4.75507051e-01 4.74237412e-01 4.74492937e-01 4.75265980e-01 4.76195812e-01 4.77094650e-01 4.77834731e-01 4.78309900e-01 4.78417248e-01 4.78047222e-01 4.77077454e-01 4.75368023e-01 4.72754717e-01 4.69029486e-01 4.63891089e-01 4.56896812e-01 4.47720468e-01 4.37874109e-01 4.34969515e-01 4.52278048e-01 4.75756824e-01 1.89564973e-01 2.79967692e-02 2.90876664e-02 3.25324722e-02 6.70984238e-02 2.41724197e-02 7.63691170e-03 5.31273007e-01 5.04085481e-01 4.83539283e-01 4.77953970e-01 4.76220995e-01 4.75405693e-01 4.74961013e-01 4.74707305e-01 4.74496961e-01 4.74191695e-01 4.73657101e-01 4.72753763e-01 4.71328884e-01 4.69209284e-01 4.66193795e-01 4.62038010e-01 4.56413090e-01 4.48799163e-01 4.38264877e-01 4.23219651e-01 4.01941776e-01 3.76486123e-01 3.62427890e-01 3.12903523e-01 6.01133347e-01 1.80908777e-02 2.20085401e-02 1.09654525e-02 1.72912367e-02 6.77117286e-03 5.90405939e-03 5.09996772e-01 5.16354322e-01 4.91899908e-01 4.82976526e-01 4.78894174e-01 4.76342231e-01 4.74576592e-01 4.73214656e-01 4.71996814e-01 4.70725030e-01 4.69220042e-01 4.67291802e-01 4.64717358e-01 4.61220413e-01 4.56444114e-01 4.49904233e-01 4.40902025e-01 4.28383917e-01 4.10776734e-01 3.86060238e-01 3.52653921e-01 3.11382651e-01 2.63495594e-01 1.26732960e-01 7.27726519e-02 5.72103746e-02 1.60993394e-02 1.41915977e-02 1.23469792e-02 7.55555322e-03 3.14142415e-03 8.51801693e-01 6.41694009e-01 6.38118982e-01 6.21374547e-01 6.14059269e-01 6.10410213e-01 6.08352661e-01 6.06892347e-01 6.05602384e-01 6.04270279e-01 6.02742493e-01 6.00859106e-01 5.98422408e-01 5.95176458e-01 5.90789855e-01 5.84834933e-01 5.76748192e-01 5.65735698e-01 5.50531864e-01 5.28823018e-01 4.95956779e-01 4.42300647e-01 3.51219833e-01 1.79662287e-01 7.04095587e-02 7.14681000e-02 7.01212823e-01 7.89737582e-01 3.61131243e-02 
