# vtk DataFile Version 2.0
results/3_density.vtk, Created by Freefem++ 
ASCII
DATASET UNSTRUCTURED_GRID
POINTS 961 float
0 0 0
0.033333333 0 0
0.066666667 0 0
0.1 0 0
0.13333333 0 0
0.16666667 0 0
0.2 0 0
0.23333333 0 0
0.26666667 0 0
0.3 0 0
0.33333333 0 0
0.36666667 0 0
0.4 0 0
0.43333333 0 0
0.46666667 0 0
0.5 0 0
0.53333333 0 0
0.56666667 0 0
0.6 0 0
0.63333333 0 0
0.66666667 0 0
0.7 0 0
0.73333333 0 0
0.76666667 0 0
0.8 0 0
0.83333333 0 0
0.86666667 0 0
0.9 0 0
0.93333333 0 0
0.96666667 0 0
1 0 0
0 0.033333333 0
0.033333333 0.033333333 0
0.066666667 0.033333333 0
0.1 0.033333333 0
0.13333333 0.033333333 0
0.16666667 0.033333333 0
0.2 0.033333333 0
0.23333333 0.033333333 0
0.26666667 0.033333333 0
0.3 0.033333333 0
0.33333333 0.033333333 0
0.36666667 0.033333333 0
0.4 0.033333333 0
0.43333333 0.033333333 0
0.46666667 0.033333333 0
0.5 0.033333333 0
0.53333333 0.033333333 0
0.56666667 0.033333333 0
0.6 0.033333333 0
0.63333333 0.033333333 0
0.66666667 0.033333333 0
0.7 0.033333333 0
0.73333333 0.033333333 0
0.76666667 0.033333333 0
0.8 0.033333333 0
0.83333333 0.033333333 0
0.86666667 0.033333333 0
0.9 0.033333333 0
0.93333333 0.033333333 0
0.96666667 0.033333333 0
1 0.033333333 0
0 0.066666667 0
0.033333333 0.066666667 0
0.066666667 0.066666667 0
0.1 0.066666667 0
0.13333333 0.066666667 0
0.16666667 0.066666667 0
0.2 0.066666667 0
0.23333333 0.066666667 0
0.26666667 0.066666667 0
0.3 0.066666667 0
0.33333333 0.066666667 0
0.36666667 0.066666667 0
0.4 0.066666667 0
0.43333333 0.066666667 0
0.46666667 0.066666667 0
0.5 0.066666667 0
0.53333333 0.066666667 0
0.56666667 0.066666667 0
0.6 0.066666667 0
0.63333333 0.066666667 0
0.66666667 0.066666667 0
0.7 0.066666667 0
0.73333333 0.066666667 0
0.76666667 0.066666667 0
0.8 0.066666667 0
0.83333333 0.066666667 0
0.86666667 0.066666667 0
0.9 0.066666667 0
0.93333333 0.066666667 0
0.96666667 0.066666667 0
1 0.066666667 0
0 0.1 0
0.033333333 0.1 0
0.066666667 0.1 0
0.1 0.1 0
0.13333333 0.1 0
0.16666667 0.1 0
0.2 0.1 0
0.23333333 0.1 0
0.26666667 0.1 0
0.3 0.1 0
0.33333333 0.1 0
0.36666667 0.1 0
0.4 0.1 0
0.43333333 0.1 0
0.46666667 0.1 0
0.5 0.1 0
0.53333333 0.1 0
0.56666667 0.1 0
0.6 0.1 0
0.63333333 0.1 0
0.66666667 0.1 0
0.7 0.1 0
0.73333333 0.1 0
0.76666667 0.1 0
0.8 0.1 0
0.83333333 0.1 0
0.86666667 0.1 0
0.9 0.1 0
0.93333333 0.1 0
0.96666667 0.1 0
1 0.1 0
0 0.13333333 0
0.033333333 0.13333333 0
0.066666667 0.13333333 0
0.1 0.13333333 0
0.13333333 0.13333333 0
0.16666667 0.13333333 0
0.2 0.13333333 0
0.23333333 0.13333333 0
0.26666667 0.13333333 0
0.3 0.13333333 0
0.33333333 0.13333333 0
0.36666667 0.13333333 0
0.4 0.13333333 0
0.43333333 0.13333333 0
0.46666667 0.13333333 0
0.5 0.13333333 0
0.53333333 0.13333333 0
0.56666667 0.13333333 0
0.6 0.13333333 0
0.63333333 0.13333333 0
0.66666667 0.13333333 0
0.7 0.13333333 0
0.73333333 0.13333333 0
0.76666667 0.13333333 0
0.8 0.13333333 0
0.83333333 0.13333333 0
0.86666667 0.13333333 0
0.9 0.13333333 0
0.93333333 0.13333333 0
0.96666667 0.13333333 0
1 0.13333333 0
0 0.16666667 0
0.033333333 0.16666667 0
0.066666667 0.16666667 0
0.1 0.16666667 0
0.13333333 0.16666667 0
0.16666667 0.16666667 0
0.2 0.16666667 0
0.23333333 0.16666667 0
0.26666667 0.16666667 0
0.3 0.16666667 0
0.33333333 0.16666667 0
0.36666667 0.16666667 0
0.4 0.16666667 0
0.43333333 0.16666667 0
0.46666667 0.16666667 0
0.5 0.16666667 0
0.53333333 0.16666667 0
0.56666667 0.16666667 0
0.6 0.16666667 0
0.63333333 0.16666667 0
0.66666667 0.16666667 0
0.7 0.16666667 0
0.73333333 0.16666667 0
0.76666667 0.16666667 0
0.8 0.16666667 0
0.83333333 0.16666667 0
0.86666667 0.16666667 0
0.9 0.16666667 0
0.93333333 0.16666667 0
0.96666667 0.16666667 0
1 0.16666667 0
0 0.2 0
0.033333333 0.2 0
0.066666667 0.2 0
0.1 0.2 0
0.13333333 0.2 0
0.16666667 0.2 0
0.2 0.2 0
0.23333333 0.2 0
0.26666667 0.2 0
0.3 0.2 0
0.33333333 0.2 0
0.36666667 0.2 0
0.4 0.2 0
0.43333333 0.2 0
0.46666667 0.2 0
0.5 0.2 0
0.53333333 0.2 0
0.56666667 0.2 0
0.6 0.2 0
0.63333333 0.2 0
0.66666667 0.2 0
0.7 0.2 0
0.73333333 0.2 0
0.76666667 0.2 0
0.8 0.2 0
0.83333333 0.2 0
0.86666667 0.2 0
0.9 0.2 0
0.93333333 0.2 0
0.96666667 0.2 0
1 0.2 0
0 0.23333333 0
0.033333333 0.23333333 0
0.066666667 0.23333333 0
0.1 0.23333333 0
0.13333333 0.23333333 0
0.16666667 0.23333333 0
0.2 0.23333333 0
0.23333333 0.23333333 0
0.26666667 0.23333333 0
0.3 0.23333333 0
0.33333333 0.23333333 0
0.36666667 0.23333333 0
0.4 0.23333333 0
0.43333333 0.23333333 0
0.46666667 0.23333333 0
0.5 0.23333333 0
0.53333333 0.23333333 0
0.56666667 0.23333333 0
0.6 0.23333333 0
0.63333333 0.23333333 0
0.66666667 0.23333333 0
0.7 0.23333333 0
0.73333333 0.23333333 0
0.76666667 0.23333333 0
0.8 0.23333333 0
0.83333333 0.23333333 0
0.86666667 0.23333333 0
0.9 0.23333333 0
0.93333333 0.23333333 0
0.96666667 0.23333333 0
1 0.23333333 0
0 0.26666667 0
0.033333333 0.26666667 0
0.066666667 0.26666667 0
0.1 0.26666667 0
0.13333333 0.26666667 0
0.16666667 0.26666667 0
0.2 0.26666667 0
0.23333333 0.26666667 0
0.26666667 0.26666667 0
0.3 0.26666667 0
0.33333333 0.26666667 0
0.36666667 0.26666667 0
0.4 0.26666667 0
0.43333333 0.26666667 0
0.46666667 0.26666667 0
0.5 0.26666667 0
0.53333333 0.26666667 0
0.56666667 0.26666667 0
0.6 0.26666667 0
0.63333333 0.26666667 0
0.66666667 0.26666667 0
0.7 0.26666667 0
0.73333333 0.26666667 0
0.76666667 0.26666667 0
0.8 0.26666667 0
0.83333333 0.26666667 0
0.86666667 0.26666667 0
0.9 0.26666667 0
0.93333333 0.26666667 0
0.96666667 0.26666667 0
1 0.26666667 0
0 0.3 0
0.033333333 0.3 0
0.066666667 0.3 0
0.1 0.3 0
0.13333333 0.3 0
0.16666667 0.3 0
0.2 0.3 0
0.23333333 0.3 0
0.26666667 0.3 0
0.3 0.3 0
0.33333333 0.3 0
0.36666667 0.3 0
0.4 0.3 0
0.43333333 0.3 0
0.46666667 0.3 0
0.5 0.3 0
0.53333333 0.3 0
0.56666667 0.3 0
0.6 0.3 0
0.63333333 0.3 0
0.66666667 0.3 0
0.7 0.3 0
0.73333333 0.3 0
0.76666667 0.3 0
0.8 0.3 0
0.83333333 0.3 0
0.86666667 0.3 0
0.9 0.3 0
0.93333333 0.3 0
0.96666667 0.3 0
1 0.3 0
0 0.33333333 0
0.033333333 0.33333333 0
0.066666667 0.33333333 0
0.1 0.33333333 0
0.13333333 0.33333333 0
0.16666667 0.33333333 0
0.2 0.33333333 0
0.23333333 0.33333333 0
0.26666667 0.33333333 0
0.3 0.33333333 0
0.33333333 0.33333333 0
0.36666667 0.33333333 0
0.4 0.33333333 0
0.43333333 0.33333333 0
0.46666667 0.33333333 0
0.5 0.33333333 0
0.53333333 0.33333333 0
0.56666667 0.33333333 0
0.6 0.33333333 0
0.63333333 0.33333333 0
0.66666667 0.33333333 0
0.7 0.33333333 0
0.73333333 0.33333333 0
0.76666667 0.33333333 0
0.8 0.33333333 0
0.83333333 0.33333333 0
0.86666667 0.33333333 0
0.9 0.33333333 0
0.93333333 0.33333333 0
0.96666667 0.33333333 0
1 0.33333333 0
0 0.36666667 0
0.033333333 0.36666667 0
0.066666667 0.36666667 0
0.1 0.36666667 0
0.13333333 0.36666667 0
0.16666667 0.36666667 0
0.2 0.36666667 0
0.23333333 0.36666667 0
0.26666667 0.36666667 0
0.3 0.36666667 0
0.33333333 0.36666667 0
0.36666667 0.36666667 0
0.4 0.36666667 0
0.43333333 0.36666667 0
0.46666667 0.36666667 0
0.5 0.36666667 0
0.53333333 0.36666667 0
0.56666667 0.36666667 0
0.6 0.36666667 0
0.63333333 0.36666667 0
0.66666667 0.36666667 0
0.7 0.36666667 0
0.73333333 0.36666667 0
0.76666667 0.36666667 0
0.8 0.36666667 0
0.83333333 0.36666667 0
0.86666667 0.36666667 0
0.9 0.36666667 0
0.93333333 0.36666667 0
0.96666667 0.36666667 0
1 0.36666667 0
0 0.4 0
0.033333333 0.4 0
0.066666667 0.4 0
0.1 0.4 0
0.13333333 0.4 0
0.16666667 0.4 0
0.2 0.4 0
0.23333333 0.4 0
0.26666667 0.4 0
0.3 0.4 0
0.33333333 0.4 0
0.36666667 0.4 0
0.4 0.4 0
0.43333333 0.4 0
0.46666667 0.4 0
0.5 0.4 0
0.53333333 0.4 0
0.56666667 0.4 0
0.6 0.4 0
0.63333333 0.4 0
0.66666667 0.4 0
0.7 0.4 0
0.73333333 0.4 0
0.76666667 0.4 0
0.8 0.4 0
0.83333333 0.4 0
0.86666667 0.4 0
0.9 0.4 0
0.93333333 0.4 0
0.96666667 0.4 0
1 0.4 0
0 0.43333333 0
0.033333333 0.43333333 0
0.066666667 0.43333333 0
0.1 0.43333333 0
0.13333333 0.43333333 0
0.16666667 0.43333333 0
0.2 0.43333333 0
0.23333333 0.43333333 0
0.26666667 0.43333333 0
0.3 0.43333333 0
0.33333333 0.43333333 0
0.36666667 0.43333333 0
0.4 0.43333333 0
0.43333333 0.43333333 0
0.46666667 0.43333333 0
0.5 0.43333333 0
0.53333333 0.43333333 0
0.56666667 0.43333333 0
0.6 0.43333333 0
0.63333333 0.43333333 0
0.66666667 0.43333333 0
0.7 0.43333333 0
0.73333333 0.43333333 0
0.76666667 0.43333333 0
0.8 0.43333333 0
0.83333333 0.43333333 0
0.86666667 0.43333333 0
0.9 0.43333333 0
0.93333333 0.43333333 0
0.96666667 0.43333333 0
1 0.43333333 0
0 0.46666667 0
0.033333333 0.46666667 0
0.066666667 0.46666667 0
0.1 0.46666667 0
0.13333333 0.46666667 0
0.16666667 0.46666667 0
0.2 0.46666667 0
0.23333333 0.46666667 0
0.26666667 0.46666667 0
0.3 0.46666667 0
0.33333333 0.46666667 0
0.36666667 0.46666667 0
0.4 0.46666667 0
0.43333333 0.46666667 0
0.46666667 0.46666667 0
0.5 0.46666667 0
0.53333333 0.46666667 0
0.56666667 0.46666667 0
0.6 0.46666667 0
0.63333333 0.46666667 0
0.66666667 0.46666667 0
0.7 0.46666667 0
0.73333333 0.46666667 0
0.76666667 0.46666667 0
0.8 0.46666667 0
0.83333333 0.46666667 0
0.86666667 0.46666667 0
0.9 0.46666667 0
0.93333333 0.46666667 0
0.96666667 0.46666667 0
1 0.46666667 0
0 0.5 0
0.033333333 0.5 0
0.066666667 0.5 0
0.1 0.5 0
0.13333333 0.5 0
0.16666667 0.5 0
0.2 0.5 0
0.23333333 0.5 0
0.26666667 0.5 0
0.3 0.5 0
0.33333333 0.5 0
0.36666667 0.5 0
0.4 0.5 0
0.43333333 0.5 0
0.46666667 0.5 0
0.5 0.5 0
0.53333333 0.5 0
0.56666667 0.5 0
0.6 0.5 0
0.63333333 0.5 0
0.66666667 0.5 0
0.7 0.5 0
0.73333333 0.5 0
0.76666667 0.5 0
0.8 0.5 0
0.83333333 0.5 0
0.86666667 0.5 0
0.9 0.5 0
0.93333333 0.5 0
0.96666667 0.5 0
1 0.5 0
0 0.53333333 0
0.033333333 0.53333333 0
0.066666667 0.53333333 0
0.1 0.53333333 0
0.13333333 0.53333333 0
0.16666667 0.53333333 0
0.2 0.53333333 0
0.23333333 0.53333333 0
0.26666667 0.53333333 0
0.3 0.53333333 0
0.33333333 0.53333333 0
0.36666667 0.53333333 0
0.4 0.53333333 0
0.43333333 0.53333333 0
0.46666667 0.53333333 0
0.5 0.53333333 0
0.53333333 0.53333333 0
0.56666667 0.53333333 0
0.6 0.53333333 0
0.63333333 0.53333333 0
0.66666667 0.53333333 0
0.7 0.53333333 0
0.73333333 0.53333333 0
0.76666667 0.53333333 0
0.8 0.53333333 0
[...]
CELL_DATA 1920
Scalars  Label int 1
LOOKUP_TABLE FreeFempp_table
0
0
0
0
0
0
0
0
0
0
0
0
0
0
0
0
0
0
0
0
0
0
0
0
0
0
0
0
0
0
0
0
0
0
0
0
0
0
0
0
0
0
0
0
0
0
0
0
0
0
0
0
0
0
0
0
0
0
0
0
0
0
0
0
0
0
0
0
0
0
0
0
0
0
0
0
0
0
0
0
0
0
0
0
0
0
0
0
0
0
0
0
0
0
0
0
0
0
0
0
0
0
0
0
0
0
0
0
0
0
0
0
0
0
0
0
0
0
0
0
0
0
0
0
0
0
0
0
0
0
0
0
0
0
0
0
0
0
0
0
0
0
0
0
0
0
0
0
0
0
0
0
0
0
0
0
0
0
0
0
0
0
0
0
0
0
0
0
0
0
0
0
0
0
0
0
0
0
0
0
0
0
0
0
0
0
0
0
0
0
0
0
0
0
0
0
0
0
0
0
0
0
0
0
0
0
0
0
0
0
0
0
0
0
0
0
0
0
0
0
0
0
0
0
0
0
0
0
0
0
0
0
0
0
0
0
0
0
0
0
0
0
0
0
0
0
0
0
0
0
0
0
0
0
0
0
0
0
0
0
0
0
0
0
0
0
0
0
0
0
0
0
0
0
0
0
0
0
0
0
0
0
0
0
0
0
0
0
0
0
0
0
0
0
0
0
0
0
0
0
0
0
0
0
0
0
0
0
0
0
0
0
0
0
0
0
0
0
0
0
0
0
0
0
0
0
0
0
0
0
0
0
0
0
0
0
0
0
0
0
0
0
0
0
0
0
0
0
0
0
0
0
0
0
0
0
0
0
0
0
0
0
0
0
0
0
0
0
0
0
0
0
0
0
0
0
0
0
0
0
0
0
0
0
0
0
0
0
0
0
0
0
0
0
0
0
0
0
0
0
0
0
0
0
0
0
0
0
0
0
0
0
0
0
0
0
0
0
0
0
0
0
0
0
0
0
0
0
0
0
0
0
0
0
0
0
0
0
0
0
0
0
0
0
0
0
0
0
0
0
0
0
0
0
0
0
0
0
0
0
0
0
0
0
0
0
0
0
0
0
0
0
0
0
0
0
0
0
0
0
0
0
0
0
0
0
0
0
0
0
0
0
0
0
0
0
0
0
0
0
0
0
0
0
0
0
0
0
0
0
0
0
0
0
0
0
0
0
0
0
0
0
0
0
0
0
0
0
0
0
0
0
0
0
0
0
0
0
0
0
0
0
0
0
0
0
0
0
0
0
0
0
0
0
0
0
0
0
0
0
0
0
0
0
0
0
0
0
0
0
0
0
0
0
0
0
0
0
0
0
0
0
0
0
0
0
0
0
0
0
0
0
0
0
0
0
0
0
0
0
0
0
0
0
0
0
0
0
0
0
0
0
0
0
0
0
0
0
0
0
0
0
0
0
0
0
0
0
0
0
0
0
0
0
0
0
0
0
0
0
0
0
0
0
0
0
0
0
0
0
0
0
0
0
0
0
0
0
0
0
0
0
0
0
0
0
0
0
0
0
0
0
0
0
0
0
0
0
0
0
0
0
0
0
0
0
0
0
0
0
0
0
0
0
0
0
0
0
0
0
0
0
0
0
0
0
0
0
0
0
0
0
0
0
0
0
0
0
0
0
0
0
0
0
0
0
0
0
0
0
0
0
0
0
0
0
0
0
0
0
0
0
0
0
0
0
0
0
0
0
0
0
0
0
0
0
0
0
0
0
0
0
0
0
0
0
0
0
0
0
0
0
0
0
0
0
0
0
0
0
0
0
0
0
0
0
0
0
0
0
0
0
0
0
0
0
0
0
0
0
0
0
0
0
0
0
0
0
0
0
0
0
0
0
0
0
0
0
0
0
0
0
0
0
0
0
0
0
0
0
0
0
0
0
0
0
0
0
0
0
0
0
0
0
0
0
0
0
0
0
0
0
0
0
0
0
0
0
0
0
0
0
0
0
0
0
0
0
0
0
0
0
0
0
0
0
0
0
0
0
0
0
0
0
0
0
0
0
0
0
0
0
0
0
0
0
0
0
0
0
0
0
0
0
0
0
0
0
0
0
0
0
0
0
0
0
0
0
0
0
0
0
0
0
0
0
0
0
0
0
0
0
0
0
0
0
0
0
0
0
0
0
0
0
0
0
0
0
0
0
0
0
0
0
0
0
0
0
0
0
0
0
0
0
0
0
0
0
0
0
0
0
0
0
0
0
0
0
0
0
0
0
0
0
0
0
0
0
0
0
0
0
0
0
0
0
0
0
0
0
0
0
0
0
0
0
0
0
0
0
0
0
0
0
0
0
0
0
0
0
0
0
0
0
0
0
0
0
0
0
0
0
0
0
0
0
0
0
0
0
0
0
0
0
0
0
0
0
0
0
0
0
0
0
0
0
0
0
0
0
0
0
0
0
0
0
0
0
0
0
0
0
0
0
0
0
0
0
0
0
0
0
0
0
0
0
0
0
0
0
0
0
0
0
0
0
0
0
0
0
0
0
0
0
0
0
0
0
0
0
0
0
0
0
0
0
0
0
0
0
0
0
0
0
0
0
0
0
0
0
0
0
0
0
0
0
0
0
0
0
0
0
0
0
0
0
0
0
0
0
0
0
0
0
0
0
0
0
0
0
0
0
0
0
0
0
0
0
0
0
0
0
0
0
0
0
0
0
0
0
0
0
0
0
0
0
0
0
0
0
0
0
0
0
0
0
0
0
0
0
0
0
0
0
0
0
0
0
0
0
0
0
0
0
0
0
0
0
0
0
0
0
0
0
0
0
0
0
0
0
0
0
0
0
0
0
0
0
0
0
0
0
0
0
0
0
0
0
0
0
0
0
0
0
0
0
0
0
0
0
0
0
0
0
0
0
0
0
0
0
0
0
0
0
0
0
0
0
0
0
0
0
0
0
0
0
0
0
0
0
0
0
0
0
0
0
0
0
0
0
0
0
0
0
0
0
0
0
0
0
0
0
0
0
0
0
0
0
0
0
0
0
0
0
0
0
0
0
0
0
0
0
0
0
0
0
0
0
0
0
0
0
0
0
0
0
0
0
0
0
0
0
0
0
0
0
0
0
0
0
0
0
0
0
0
0
0
0
0
0
0
0
0
0
0
0
0
0
0
0
0
0
0
0
0
0
0
0
0
0
0
0
0
0
0
0
0
0
0
0
0
0
0
0
0
0
0
0
0
0
0
0
0
0
0
0
0
0
0
0
0
0
0
0
0
0
0
0
0
0
0
0
0
0
0
0
0
0
0
0
0
0
0
0
0
0
0
0
0
0
0
0
0
0
0
0
0
0
0
0
0
0
0
0
0
0
0
0
0
0
0
0
0
0
0
0
0
0
0
0
0
0
0
0
0
0
0
0
0
0
0
0
0
0
0
0
0
0
0
0
0
0
0
0
0
0
0
0
0
0
0
0
0
0
0
0
0
0
0
0
0
0
0
0
0
0
0
0
0
0
0
0
0
0
0
0
0
0
0
0
0
0
0
0
0
0
0
0
0
0
0
0
0
0
0
0
0
0
0
0
0
0
0
0
0
0
0
0
0
0
0
0
0
0
0
0
0
0
0
0
0
0
0
0
0
0
0
0
0
0
0
0
0
0
0
0
0
0
0
0
0
0
0
0
0
0
0
0
0
0
0
0
0
0
0
0
0
0
0
0
0
0
0
0
0
0
0
0
0
0
0
0
0
0
0
0
0
0
0
0
0
0
0
0
0
0
0
0
0
0
0
0
0
0
0
0
0
0
0
0
0
0
0
0
0
0
0
0
0
0
0
0
0
0
0
0
0
0
0
0
0
0
0
0
0
0
0
0
0
0
0
0
0
0
0
0
0
0
0
0
0
0
0
0
0
0
0
0
0
0
0
0
0
0
0
0
0
0
0
0
0
0
0
0
0
0
0
0
0
0
0
0
0
0
0
0
0
0
0
0
0
0
0
0
0
0
0
0
0
0
0
0
0
0
0
0
0
0
0
0
0
0
0
0
0
0
0
0
0
0
0
0
0
0
0
0
0
0
0
0
0
0
0
0
0
0
0
0
0
0
0
0
0
0
0
0
0
0
0
0
1
1
1
1
1
1
1
1
1
1
1
1
1
1
1
1
1
1
1
1
1
1
1
1
1
1
1
1
1
1
2
2
2
2
2
2
2
2
2
2
2
2
2
2
2
2
2
2
2
2
2
2
2
2
2
2
2
2
2
2
3
3
3
3
3
3
3
3
3
3
3
3
3
3
3
3
3
3
3
3
3
3
3
3
3
3
3
3
3
3
4
4
4
4
4
4
4
4
4
4
4
4
4
4
4
4
4
4
4
4
4
4
4
4
4
4
4
4
4
4

LOOKUP_TABLE FreeFempp_table 5
1.00000000 0.00000000 0.00000000 1.00000000
1.00000000 1.00000000 0.00000000 1.00000000
1.00000000 0.00000000 1.00000000 1.00000000
0.00000000 1.00000000 0.00000000 1.00000000
0.00000000 1.00000000 1.00000000 1.00000000

POINT_DATA 961
FIELD FieldData 1
Density 1 961 float
1.82442531e-01 2.25308493e-01 2.64408290e-01 2.74266064e-01 2.68064141e-01 2.52593219e-01 2.25854829e-01 1.78331196e-01 1.12934291e-01 8.33356380e-02 1.26145273e-01 2.25322694e-01 3.12597871e-01 3.54689658e-01 3.75872105e-01 4.02954966e-01 4.59099829e-01 5.57944119e-01 6.47643805e-01 6.63302422e-01 6.26905918e-01 5.94003022e-01 5.97530425e-01 6.08475924e-01 6.03925347e-01 5.97397864e-01 5.89792669e-01 5.82087636e-01 5.80545366e-01 5.70737481e-01 5.59688270e-01 4.89094146e-02 1.24993272e-01 1.86164320e-01 2.00929299e-01 1.96894392e-01 1.85333669e-01 1.66160077e-01 1.33239776e-01 8.53292719e-02 5.64225391e-02 8.53423253e-02 1.91325068e-01 2.93732464e-01 3.39072168e-01 3.61298770e-01 3.92259121e-01 4.50454801e-01 5.52973509e-01 6.27111495e-01 6.03083670e-01 5.43733418e-01 4.94755983e-01 4.82255906e-01 4.91755605e-01 4.94110823e-01 4.97992069e-01 5.13985813e-01 5.38446963e-01 5.59881091e-01 5.63225985e-01 5.55954099e-01 1.58969443e-02 9.49169416e-03 2.28371937e-02 2.45064124e-02 2.33567208e-02 2.17700116e-02 1.91922318e-02 1.62902717e-02 9.47260298e-03 6.78489916e-03 1.98770128e-02 1.04596868e-01 2.11018249e-01 2.55875170e-01 2.98285931e-01 3.70635211e-01 4.29362953e-01 5.20014822e-01 5.12213409e-01 3.57001573e-01 2.68584281e-01 2.29487583e-01 2.08735079e-01 2.04521015e-01 2.06696704e-01 2.19128191e-01 2.64179617e-01 3.57312799e-01 4.49313670e-01 5.01825452e-01 5.14706671e-01 1.91909209e-01 5.73649518e-02 1.82119757e-02 2.07273848e-02 3.23394313e-02 3.65734473e-02 3.70470956e-02 3.72680575e-02 3.81255411e-02 3.69943939e-02 1.98507272e-02 7.74790859e-03 2.62030177e-02 3.64012793e-02 6.35598451e-02 2.23041996e-01 3.12918693e-01 4.36571062e-01 4.70148861e-01 1.51046902e-01 4.18547727e-02 3.77720296e-02 3.24323364e-02 2.90117860e-02 2.80022137e-02 3.05405986e-02 4.86812182e-02 1.47019386e-01 2.82423705e-01 4.03013825e-01 4.49345052e-01 3.71293277e-01 2.77332097e-01 1.48439854e-01 1.54332384e-01 2.42382899e-01 2.85394460e-01 2.94597149e-01 2.96820164e-01 2.96907216e-01 2.81777591e-01 2.10544527e-01 6.28342107e-02 3.92778218e-02 2.48868484e-02 1.22477545e-03 2.14587245e-02 5.14352545e-02 1.57460496e-01 4.29642648e-01 3.76015872e-01 1.08435690e-01 5.67794740e-02 3.86588611e-02 2.71326341e-02 2.20240112e-02 1.57568082e-02 8.15427490e-03 2.62428354e-02 1.27077028e-01 2.80034006e-01 3.71002108e-01 3.90667796e-01 3.30530733e-01 2.02199116e-01 1.81241125e-01 2.94166148e-01 3.72013837e-01 3.94272119e-01 4.00056720e-01 4.02954996e-01 3.99495691e-01 3.74886304e-01 3.18325758e-01 2.90973365e-01 2.42196009e-01 9.89315286e-02 4.65275683e-02 2.23946869e-02 7.89607689e-03 1.05134562e-01 4.67121273e-01 5.18644750e-01 3.83961260e-01 2.47963190e-01 1.60480067e-01 1.25604063e-01 9.98086557e-02 4.87449728e-02 1.43168774e-02 2.44055334e-02 1.48178488e-01 2.75816381e-01 3.80869657e-01 3.33403796e-01 2.34033152e-01 1.95265710e-01 2.78198898e-01 3.65463763e-01 4.01798368e-01 4.14096892e-01 4.19989258e-01 4.22382355e-01 4.19479311e-01 4.12813038e-01 4.13897187e-01 4.04043078e-01 3.48016560e-01 3.04270893e-01 2.36986801e-01 6.94171339e-02 2.49729063e-02 9.03723016e-02 3.80373240e-01 5.64919472e-01 5.13486147e-01 3.62629831e-01 2.71137953e-01 2.32077971e-01 1.82785541e-01 7.70720169e-02 7.93286320e-03 4.99844998e-02 2.06184268e-01 4.08805162e-01 3.72198969e-01 3.07256669e-01 2.70181477e-01 3.12448233e-01 3.81592214e-01 4.20469522e-01 4.36081260e-01 4.43375796e-01 4.46936458e-01 4.47495133e-01 4.46386248e-01 4.46523905e-01 4.45382208e-01 4.37306494e-01 4.32082027e-01 4.14376915e-01 3.39180499e-01 2.34573469e-01 5.48283458e-02 5.35071343e-02 2.32888684e-01 5.01709580e-01 5.48567832e-01 4.51916486e-01 3.70080531e-01 2.98839718e-01 1.67701259e-01 2.01298930e-02 3.98738533e-02 1.99614763e-01 4.91381168e-01 4.68410164e-01 4.31278646e-01 4.07053649e-01 4.17262912e-01 4.49080765e-01 4.70532060e-01 4.79016662e-01 4.82188553e-01 4.82807070e-01 4.81443137e-01 4.78694975e-01 4.75512952e-01 4.72011149e-01 4.67889696e-01 4.64796245e-01 4.60425466e-01 4.47221994e-01 4.14550811e-01 2.85961747e-01 5.96687756e-02 2.92065702e-02 1.78021654e-01 4.83879149e-01 5.86397648e-01 5.30392110e-01 4.30158496e-01 2.52493382e-01 3.22068669e-02 3.79542075e-02 2.00099468e-01 5.85335255e-01 5.81459343e-01 5.64889073e-01 5.48839927e-01 5.41314423e-01 5.40788174e-01 5.38958907e-01 5.34407794e-01 5.29325783e-01 5.24096370e-01 5.18553674e-01 5.12794375e-01 5.07072330e-01 5.01458526e-01 4.95902926e-01 4.90594327e-01 4.85369384e-01 4.79857802e-01 4.72049177e-01 4.35966313e-01 2.95901090e-01 6.32140115e-02 2.80632507e-02 1.75776139e-01 4.44641620e-01 5.55478811e-01 5.45020759e-01 4.04650003e-01 7.45105594e-02 2.04324983e-02 1.36761427e-01 6.09774113e-01 6.23495460e-01 6.25823915e-01 6.20277822e-01 6.13109171e-01 6.03641987e-01 5.91958582e-01 5.79983950e-01 5.69084048e-01 5.59305370e-01 5.50426841e-01 5.42352617e-01 5.35024524e-01 5.28320968e-01 5.22106469e-01 5.16309500e-01 5.10828257e-01 5.05612373e-01 5.00670016e-01 4.92886245e-01 4.57306296e-01 3.16588283e-01 6.90383241e-02 2.13675518e-02 9.57342237e-02 2.90422857e-01 3.89515460e-01 5.19965410e-01 2.68147409e-01 2.43859962e-02 2.12928168e-02 5.29356778e-01 5.46278596e-01 5.65682054e-01 5.82800090e-01 5.97681344e-01 6.04206741e-01 6.01926267e-01 5.94576061e-01 5.85411429e-01 5.76058924e-01 5.67223251e-01 5.59207141e-01 5.52094638e-01 5.45831263e-01 5.40301502e-01 5.35364866e-01 5.30853927e-01 5.26664197e-01 5.22908151e-01 5.19972503e-01 5.15698791e-01 4.84617740e-01 3.40792328e-01 7.86379650e-02 1.75922830e-02 4.16878685e-02 9.87611488e-02 3.59946996e-01 4.74919379e-01 6.58481941e-02 3.47063201e-03 3.95410776e-01 3.94189626e-01 4.16097462e-01 4.58238482e-01 5.07136881e-01 5.45510530e-01 5.66571891e-01 5.74143350e-01 5.74029148e-01 5.70208073e-01 5.64905882e-01 5.59320986e-01 5.54082751e-01 5.49485564e-01 5.45614481e-01 5.42398989e-01 5.39660096e-01 5.37211180e-01 5.35004199e-01 5.33446908e-01 5.33782840e-01 5.34637034e-01 5.09692371e-01 3.75355780e-01 1.46826759e-01 5.08653522e-02 3.02013643e-02 2.28487998e-01 5.63859105e-01 9.32175517e-02 -3.02246981e-03 2.82965302e-01 2.60836452e-01 2.68824756e-01 3.19309860e-01 3.91911894e-01 4.59943444e-01 5.06610155e-01 5.32399774e-01 5.44336081e-01 5.48348665e-01 5.48143625e-01 5.45920968e-01 5.43005645e-01 5.40196002e-01 5.37935019e-01 5.36383331e-01 5.35473704e-01 5.34977973e-01 5.34574330e-01 5.34027815e-01 5.33737481e-01 5.35279334e-01 5.38895965e-01 5.27158558e-01 4.43791658e-01 2.64023662e-01 8.10609162e-02 2.29906961e-01 5.82479119e-01 1.01417877e-01 -7.95906223e-03 2.03458056e-01 1.75107598e-01 1.74213484e-01 2.23269507e-01 3.04033339e-01 3.87169719e-01 4.50158715e-01 4.89477724e-01 5.11379600e-01 5.22305071e-01 5.26656747e-01 5.27251840e-01 5.25941253e-01 5.23992956e-01 5.22279143e-01 5.21344423e-01 5.21428883e-01 5.22470891e-01 5.24075449e-01 5.25462985e-01 5.25534809e-01 5.23126125e-01 5.17464280e-01 5.09480834e-01 4.94932115e-01 4.14298922e-01 2.33312547e-01 3.18316370e-01 5.81197917e-01 1.00551128e-01 -8.60750861e-03 1.38749927e-01 1.16948619e-01 1.21071383e-01 1.74860805e-01 2.61125803e-01 3.48067343e-01 4.15117353e-01 4.59384322e-01 4.86301064e-01 5.01476765e-01 5.08898139e-01 5.11300802e-01 5.10650456e-01 5.08462191e-01 5.05967796e-01 5.04162729e-01 5.03772378e-01 5.05164146e-01 5.08219540e-01 5.12184083e-01 5.15530527e-01 5.15680969e-01 5.07709086e-01 4.82337713e-01 4.38220739e-01 3.86055559e-01 3.10075253e-01 3.91201496e-01 5.61373711e-01 9.46983695e-02 -7.54141435e-03 8.44633654e-02 7.59618431e-02 9.34488475e-02 1.61750242e-01 2.56848872e-01 3.42110336e-01 4.04092848e-01 4.45693135e-01 4.72753644e-01 4.89458233e-01 4.98573691e-01 5.02130747e-01 5.01760781e-01 4.98893559e-01 4.94889826e-01 4.91088003e-01 4.88732249e-01 4.88766372e-01 4.91542011e-01 4.96605754e-01 5.02789199e-01 5.08486271e-01 5.10786474e-01 4.99010265e-01 4.52696532e-01 3.91583979e-01 3.81261587e-01 4.87026602e-01 5.48591316e-01 8.90002698e-02 -6.00510929e-03 4.57228161e-02 5.02358042e-02 8.64752457e-02 1.76810548e-01 2.80527353e-01 3.58876109e-01 4.10144687e-01 4.44719017e-01 4.68952119e-01 4.85378921e-01 4.95314687e-01 4.99844968e-01 5.00007272e-01 4.96856332e-01 4.91564542e-01 4.85515177e-01 4.80275124e-01 4.77321684e-01 4.77541298e-01 4.80868310e-01 4.86563832e-01 4.93995398e-01 5.03161788e-01 5.11482298e-01 5.01978159e-01 4.71119940e-01 4.98086661e-01 6.06624484e-01 5.48236251e-01 8.59984607e-02 -4.47992794e-03 2.69320179e-02 3.73125970e-02 9.99117419e-02 2.15215713e-01 3.20333183e-01 3.85529697e-01 4.23756182e-01 4.50494349e-01 4.71150100e-01 4.86572862e-01 4.96904433e-01 5.02446771e-01 5.03657401e-01 5.01097858e-01 4.95493412e-01 4.87880558e-01 4.79696542e-01 4.72582042e-01 4.67900306e-01 4.66500640e-01 4.69062775e-01 4.76163298e-01 4.88306493e-01 5.07489026e-01 5.32478392e-01 5.57689130e-01 6.06634080e-01 6.53626382e-01 4.95874822e-01 7.86275491e-02 -2.57348549e-03 1.90607309e-02 3.49731594e-02 1.33501634e-01 2.68822789e-01 3.63877118e-01 4.11552012e-01 4.37863410e-01 4.58360344e-01 4.76024657e-01 4.90367234e-01 5.00888765e-01 5.07453024e-01 5.10129571e-01 5.09056151e-01 5.04422128e-01 4.96590644e-01 4.86246020e-01 4.74394888e-01 4.62519765e-01 4.53522980e-01 4.52139378e-01 4.62047935e-01 4.82985973e-01 5.15351534e-01 5.62355518e-01 6.20361865e-01 6.64612174e-01 6.04982972e-01 3.47864926e-01 5.66559210e-02 1.05041941e-03 1.42764375e-02 3.93556170e-02 1.83200493e-01 3.25729728e-01 4.01546896e-01 4.31816995e-01 4.49523538e-01 4.65931445e-01 4.81375247e-01 4.94693577e-01 5.05214572e-01 5.12658775e-01 5.16928434e-01 5.17915368e-01 5.15358567e-01 5.08800566e-01 4.97641623e-01 4.81482238e-01 4.61772323e-01 4.45015252e-01 4.42644745e-01 4.62313622e-01 5.01096308e-01 5.53100169e-01 6.12359941e-01 6.60927415e-01 6.46371722e-01 4.89454567e-01 2.05656648e-01 3.50584649e-02 8.10514390e-03 1.06609100e-02 4.57196310e-02 2.39610955e-01 3.76691788e-01 4.29149806e-01 4.45958883e-01 4.58455950e-01 4.72208321e-01 4.85817224e-01 4.98058766e-01 5.08322775e-01 5.16331494e-01 5.21965683e-01 5.25053799e-01 5.25095224e-01 5.20980656e-01 5.10944903e-01 4.93615031e-01 4.71727699e-01 4.56561595e-01 4.64081198e-01 5.00256538e-01 5.56201279e-01 6.16944790e-01 6.57700360e-01 6.47697985e-01 5.35681844e-01 2.95765072e-01 7.40447417e-02 1.64281987e-02 1.50015838e-02 8.22464563e-03 5.04467860e-02 2.85427243e-01 4.14211750e-01 4.46645766e-01 4.55417424e-01 4.64988321e-01 4.76595342e-01 4.88389522e-01 4.99393225e-01 5.09091973e-01 5.17223716e-01 5.23693860e-01 5.28421819e-01 5.31058371e-01 5.30636966e-01 5.25643170e-01 5.15858650e-01 5.06982505e-01 5.11393428e-01 5.36452830e-01 5.76846719e-01 6.20591819e-01 6.46417737e-01 5.98444521e-01 4.85683382e-01 3.35634977e-01 9.29458290e-02 1.90717652e-02 1.70726199e-02 3.19831669e-02 6.39488036e-03 5.23719266e-02 3.11960399e-01 4.36051279e-01 4.56457585e-01 4.61439401e-01 4.69046474e-01 4.78499830e-01 4.88378823e-01 4.97981280e-01 5.06838977e-01 5.14667749e-01 5.21394134e-01 5.27175248e-01 5.32354474e-01 5.37351966e-01 5.42847276e-01 5.51210403e-01 5.68692982e-01 5.97805023e-01 6.10254169e-01 5.79231679e-01 5.37570715e-01 4.96593714e-01 3.63817871e-01 1.28634393e-01 5.90805039e-02 1.83651652e-02 1.35014877e-02 5.54344803e-02 1.12750389e-01 4.79258737e-03 5.25921024e-02 3.25105935e-01 4.47532356e-01 4.61849242e-01 4.64538425e-01 4.70152527e-01 4.77377683e-01 4.85337228e-01 4.93482709e-01 5.01350462e-01 5.08616149e-01 5.15208006e-01 5.21535873e-01 5.28810382e-01 5.39274991e-01 5.56105912e-01 5.82883239e-01 6.21639848e-01 6.61448300e-01 6.42968118e-01 4.83098090e-01 2.80756295e-01 1.63753316e-01 9.52471569e-02 3.48287001e-02 3.57209817e-02 6.92111254e-02 1.03025496e-01 2.24323377e-01 3.01855862e-01 3.38585069e-03 5.23680076e-02 3.32889259e-01 4.54505354e-01 4.64598209e-01 4.64634299e-01 4.67952520e-01 4.73048747e-01 4.79240716e-01 4.85995412e-01 4.92858142e-01 4.99500006e-01 5.05824983e-01 5.12284517e-01 5.20426154e-01 5.33378243e-01 5.55472374e-01 5.90188026e-01 6.36468589e-01 6.82349563e-01 6.86621010e-01 5.68620324e-01 3.51955563e-01 2.20162883e-01 1.56019762e-01 1.42683208e-01 2.29358017e-01 4.40024257e-01 5.33907831e-01 5.71435630e-01 5.81946492e-01 2.21116003e-03 5.22579253e-02 3.39069217e-01 4.59007859e-01 4.64619547e-01 4.61559415e-01 4.62658077e-01 4.65954334e-01 4.70619321e-01 4.76081729e-01 4.81959075e-01 4.88012880e-01 4.94146496e-01 5.00604033e-01 5.08469462e-01 5.20265341e-01 5.39803803e-01 5.70219755e-01 6.10639334e-01 6.53827190e-01 6.83877587e-01 6.72105491e-01 6.15105212e-01 5.94180763e-01 6.05845511e-01 6.15494013e-01 6.40523911e-01 7.07893670e-01 7.42551982e-01 7.32429802e-01 7.14574039e-01 1.14974682e-03 5.23130670e-02 3.44535917e-01 4.60666001e-01 4.61254716e-01 4.55504477e-01 4.55035359e-01 4.57016379e-01 4.60367620e-01 4.64553893e-01 4.69379216e-01 4.74829942e-01 4.80930179e-01 4.87711340e-01 4.95425940e-01 5.05031228e-01 5.18504620e-01 5.38070738e-01 5.64179659e-01 5.94101667e-01 6.22572720e-01 6.43140614e-01 6.55426502e-01 6.77015305e-01 7.00035393e-01 7.10383296e-01 7.12386489e-01 7.11574495e-01 6.98267400e-01 6.79131806e-01 6.63210094e-01 -4.98459442e-04 5.28476723e-02 3.51095676e-01 4.60419983e-01 4.55796331e-01 4.48570043e-01 4.47414398e-01 4.48444158e-01 4.50512022e-01 4.53284472e-01 4.56858546e-01 4.61544454e-01 4.67640787e-01 4.75215465e-01 4.83979315e-01 4.93401408e-01 5.03082812e-01 5.12998998e-01 5.23053348e-01 5.32303631e-01 5.39410353e-01 5.44759929e-01 5.51676452e-01 5.63076019e-01 5.72163582e-01 5.74996710e-01 5.74789107e-01 5.73951900e-01 5.71840107e-01 5.70586383e-01 5.67575216e-01 -6.95965893e-04 5.53881228e-02 3.65705222e-01 4.67099845e-01 4.56205726e-01 4.48570102e-01 4.47313219e-01 4.47501421e-01 4.48242575e-01 4.49484617e-01 4.51574117e-01 4.55067754e-01 4.60525036e-01 4.68237460e-01 4.77911770e-01 4.88418400e-01 4.97773379e-01 5.03434598e-01 5.02780855e-01 4.93783712e-01 4.76878673e-01 4.58621383e-01 4.50896055e-01 4.58627522e-01 4.72758770e-01 4.83688802e-01 4.89429504e-01 4.92130667e-01 4.94487107e-01 4.99169677e-01 5.02606630e-01 1.08007770e-02 5.45232110e-02 3.76467675e-01 4.85566646e-01 4.64174658e-01 4.54846174e-01 4.53973651e-01 4.53854173e-01 4.53971326e-01 4.54436511e-01 4.55645442e-01 4.58177984e-01 4.62629676e-01 4.69374895e-01 4.78250146e-01 4.88224208e-01 4.97191668e-01 5.02051890e-01 4.99199957e-01 4.85651851e-01 4.61591870e-01 4.34715807e-01 4.20231998e-01 4.26938504e-01 4.46204633e-01 4.63843346e-01 4.73848164e-01 4.77595776e-01 4.78829026e-01 4.81101990e-01 4.83342856e-01 
