# vtk DataFile Version 2.0
results/iter3.vtk, Created by Freefem++ 
ASCII
DATASET UNSTRUCTURED_GRID
POINTS 961 float
0 0 0
0.033333333 0 0
0.066666667 0 0
0.1 0 0
0.13333333 0 0
0.16666667 0 0
0.2 0 0
0.23333333 0 0
0.26666667 0 0
0.3 0 0
0.33333333 0 0
0.36666667 0 0
0.4 0 0
0.43333333 0 0
0.46666667 0 0
0.5 0 0
0.53333333 0 0
0.56666667 0 0
0.6 0 0
0.63333333 0 0
0.66666667 0 0
0.7 0 0
0.73333333 0 0
0.76666667 0 0
0.8 0 0
0.83333333 0 0
0.86666667 0 0
0.9 0 0
0.93333333 0 0
0.96666667 0 0
1 0 0
0 0.033333333 0
0.033333333 0.033333333 0
0.066666667 0.033333333 0
0.1 0.033333333 0
0.13333333 0.033333333 0
0.16666667 0.033333333 0
0.2 0.033333333 0
0.23333333 0.033333333 0
0.26666667 0.033333333 0
0.3 0.033333333 0
0.33333333 0.033333333 0
0.36666667 0.033333333 0
0.4 0.033333333 0
0.43333333 0.033333333 0
0.46666667 0.033333333 0
0.5 0.033333333 0
0.53333333 0.033333333 0
0.56666667 0.033333333 0
0.6 0.033333333 0
0.63333333 0.033333333 0
0.66666667 0.033333333 0
0.7 0.033333333 0
0.73333333 0.033333333 0
0.76666667 0.033333333 0
0.8 0.033333333 0
0.83333333 0.033333333 0
0.86666667 0.033333333 0
0.9 0.033333333 0
0.93333333 0.033333333 0
0.96666667 0.033333333 0
1 0.033333333 0
0 0.066666667 0
0.033333333 0.066666667 0
0.066666667 0.066666667 0
0.1 0.066666667 0
0.13333333 0.066666667 0
0.16666667 0.066666667 0
0.2 0.066666667 0
0.23333333 0.066666667 0
0.26666667 0.066666667 0
0.3 0.066666667 0
0.33333333 0.066666667 0
0.36666667 0.066666667 0
0.4 0.066666667 0
0.43333333 0.066666667 0
0.46666667 0.066666667 0
0.5 0.066666667 0
0.53333333 0.066666667 0
0.56666667 0.066666667 0
0.6 0.066666667 0
0.63333333 0.066666667 0
0.66666667 0.066666667 0
0.7 0.066666667 0
0.73333333 0.066666667 0
0.76666667 0.066666667 0
0.8 0.066666667 0
0.83333333 0.066666667 0
0.86666667 0.066666667 0
0.9 0.066666667 0
0.93333333 0.066666667 0
0.96666667 0.066666667 0
1 0.066666667 0
0 0.1 0
0.033333333 0.1 0
0.066666667 0.1 0
0.1 0.1 0
0.13333333 0.1 0
0.16666667 0.1 0
0.2 0.1 0
0.23333333 0.1 0
0.26666667 0.1 0
0.3 0.1 0
0.33333333 0.1 0
0.36666667 0.1 0
0.4 0.1 0
0.43333333 0.1 0
0.46666667 0.1 0
0.5 0.1 0
0.53333333 0.1 0
0.56666667 0.1 0
0.6 0.1 0
0.63333333 0.1 0
0.66666667 0.1 0
0.7 0.1 0
0.73333333 0.1 0
0.76666667 0.1 0
0.8 0.1 0
0.83333333 0.1 0
0.86666667 0.1 0
0.9 0.1 0
0.93333333 0.1 0
0.96666667 0.1 0
1 0.1 0
0 0.13333333 0
0.033333333 0.13333333 0
0.066666667 0.13333333 0
0.1 0.13333333 0
0.13333333 0.13333333 0
0.16666667 0.13333333 0
0.2 0.13333333 0
0.23333333 0.13333333 0
0.26666667 0.13333333 0
0.3 0.13333333 0
0.33333333 0.13333333 0
0.36666667 0.13333333 0
0.4 0.13333333 0
0.43333333 0.13333333 0
0.46666667 0.13333333 0
0.5 0.13333333 0
0.53333333 0.13333333 0
0.56666667 0.13333333 0
0.6 0.13333333 0
0.63333333 0.13333333 0
0.66666667 0.13333333 0
0.7 0.13333333 0
0.73333333 0.13333333 0
0.76666667 0.13333333 0
0.8 0.13333333 0
0.83333333 0.13333333 0
0.86666667 0.13333333 0
0.9 0.13333333 0
0.93333333 0.13333333 0
0.96666667 0.13333333 0
1 0.13333333 0
0 0.16666667 0
0.033333333 0.16666667 0
0.066666667 0.16666667 0
0.1 0.16666667 0
0.13333333 0.16666667 0
0.16666667 0.16666667 0
0.2 0.16666667 0
0.23333333 0.16666667 0
0.26666667 0.16666667 0
0.3 0.16666667 0
0.33333333 0.16666667 0
0.36666667 0.16666667 0
0.4 0.16666667 0
0.43333333 0.16666667 0
0.46666667 0.16666667 0
0.5 0.16666667 0
0.53333333 0.16666667 0
0.56666667 0.16666667 0
0.6 0.16666667 0
0.63333333 0.16666667 0
0.66666667 0.16666667 0
0.7 0.16666667 0
0.73333333 0.16666667 0
0.76666667 0.16666667 0
0.8 0.16666667 0
0.83333333 0.16666667 0
0.86666667 0.16666667 0
0.9 0.16666667 0
0.93333333 0.16666667 0
0.96666667 0.16666667 0
1 0.16666667 0
0 0.2 0
0.033333333 0.2 0
0.066666667 0.2 0
0.1 0.2 0
0.13333333 0.2 0
0.16666667 0.2 0
0.2 0.2 0
0.23333333 0.2 0
0.26666667 0.2 0
0.3 0.2 0
0.33333333 0.2 0
0.36666667 0.2 0
0.4 0.2 0
0.43333333 0.2 0
0.46666667 0.2 0
0.5 0.2 0
0.53333333 0.2 0
0.56666667 0.2 0
0.6 0.2 0
0.63333333 0.2 0
0.66666667 0.2 0
0.7 0.2 0
0.73333333 0.2 0
0.76666667 0.2 0
0.8 0.2 0
0.83333333 0.2 0
0.86666667 0.2 0
0.9 0.2 0
0.93333333 0.2 0
0.96666667 0.2 0
1 0.2 0
0 0.23333333 0
0.033333333 0.23333333 0
0.066666667 0.23333333 0
0.1 0.23333333 0
0.13333333 0.23333333 0
0.16666667 0.23333333 0
0.2 0.23333333 0
0.23333333 0.23333333 0
0.26666667 0.23333333 0
0.3 0.23333333 0
0.33333333 0.23333333 0
0.36666667 0.23333333 0
0.4 0.23333333 0
0.43333333 0.23333333 0
0.46666667 0.23333333 0
0.5 0.23333333 0
0.53333333 0.23333333 0
0.56666667 0.23333333 0
0.6 0.23333333 0
0.63333333 0.23333333 0
0.66666667 0.23333333 0
0.7 0.23333333 0
0.73333333 0.23333333 0
0.76666667 0.23333333 0
0.8 0.23333333 0
0.83333333 0.23333333 0
0.86666667 0.23333333 0
0.9 0.23333333 0
0.93333333 0.23333333 0
0.96666667 0.23333333 0
1 0.23333333 0
0 0.26666667 0
0.033333333 0.26666667 0
0.066666667 0.26666667 0
0.1 0.26666667 0
0.13333333 0.26666667 0
0.16666667 0.26666667 0
0.2 0.26666667 0
0.23333333 0.26666667 0
0.26666667 0.26666667 0
0.3 0.26666667 0
0.33333333 0.26666667 0
0.36666667 0.26666667 0
0.4 0.26666667 0
0.43333333 0.26666667 0
0.46666667 0.26666667 0
0.5 0.26666667 0
0.53333333 0.26666667 0
0.56666667 0.26666667 0
0.6 0.26666667 0
0.63333333 0.26666667 0
0.66666667 0.26666667 0
0.7 0.26666667 0
0.73333333 0.26666667 0
0.76666667 0.26666667 0
0.8 0.26666667 0
0.83333333 0.26666667 0
0.86666667 0.26666667 0
0.9 0.26666667 0
0.93333333 0.26666667 0
0.96666667 0.26666667 0
1 0.26666667 0
0 0.3 0
0.033333333 0.3 0
0.066666667 0.3 0
0.1 0.3 0
0.13333333 0.3 0
0.16666667 0.3 0
0.2 0.3 0
0.23333333 0.3 0
0.26666667 0.3 0
0.3 0.3 0
0.33333333 0.3 0
0.36666667 0.3 0
0.4 0.3 0
0.43333333 0.3 0
0.46666667 0.3 0
0.5 0.3 0
0.53333333 0.3 0
0.56666667 0.3 0
0.6 0.3 0
0.63333333 0.3 0
0.66666667 0.3 0
0.7 0.3 0
0.73333333 0.3 0
0.76666667 0.3 0
0.8 0.3 0
0.83333333 0.3 0
0.86666667 0.3 0
0.9 0.3 0
0.93333333 0.3 0
0.96666667 0.3 0
1 0.3 0
0 0.33333333 0
0.033333333 0.33333333 0
0.066666667 0.33333333 0
0.1 0.33333333 0
0.13333333 0.33333333 0
0.16666667 0.33333333 0
0.2 0.33333333 0
0.23333333 0.33333333 0
0.26666667 0.33333333 0
0.3 0.33333333 0
0.33333333 0.33333333 0
0.36666667 0.33333333 0
0.4 0.33333333 0
0.43333333 0.33333333 0
0.46666667 0.33333333 0
0.5 0.33333333 0
0.53333333 0.33333333 0
0.56666667 0.33333333 0
0.6 0.33333333 0
0.63333333 0.33333333 0
0.66666667 0.33333333 0
0.7 0.33333333 0
0.73333333 0.33333333 0
0.76666667 0.33333333 0
0.8 0.33333333 0
0.83333333 0.33333333 0
0.86666667 0.33333333 0
0.9 0.33333333 0
0.93333333 0.33333333 0
0.96666667 0.33333333 0
1 0.33333333 0
0 0.36666667 0
0.033333333 0.36666667 0
0.066666667 0.36666667 0
0.1 0.36666667 0
0.13333333 0.36666667 0
0.16666667 0.36666667 0
0.2 0.36666667 0
0.23333333 0.36666667 0
0.26666667 0.36666667 0
0.3 0.36666667 0
0.33333333 0.36666667 0
0.36666667 0.36666667 0
0.4 0.36666667 0
0.43333333 0.36666667 0
0.46666667 0.36666667 0
0.5 0.36666667 0
0.53333333 0.36666667 0
0.56666667 0.36666667 0
0.6 0.36666667 0
0.63333333 0.36666667 0
0.66666667 0.36666667 0
0.7 0.36666667 0
0.73333333 0.36666667 0
0.76666667 0.36666667 0
0.8 0.36666667 0
0.83333333 0.36666667 0
0.86666667 0.36666667 0
0.9 0.36666667 0
0.93333333 0.36666667 0
0.96666667 0.36666667 0
1 0.36666667 0
0 0.4 0
0.033333333 0.4 0
0.066666667 0.4 0
0.1 0.4 0
0.13333333 0.4 0
0.16666667 0.4 0
0.2 0.4 0
0.23333333 0.4 0
0.26666667 0.4 0
0.3 0.4 0
0.33333333 0.4 0
0.36666667 0.4 0
0.4 0.4 0
0.43333333 0.4 0
0.46666667 0.4 0
0.5 0.4 0
0.53333333 0.4 0
0.56666667 0.4 0
0.6 0.4 0
0.63333333 0.4 0
0.66666667 0.4 0
0.7 0.4 0
0.73333333 0.4 0
0.76666667 0.4 0
0.8 0.4 0
0.83333333 0.4 0
0.86666667 0.4 0
0.9 0.4 0
0.93333333 0.4 0
0.96666667 0.4 0
1 0.4 0
0 0.43333333 0
0.033333333 0.43333333 0
0.066666667 0.43333333 0
0.1 0.43333333 0
0.13333333 0.43333333 0
0.16666667 0.43333333 0
0.2 0.43333333 0
0.23333333 0.43333333 0
0.26666667 0.43333333 0
0.3 0.43333333 0
0.33333333 0.43333333 0
0.36666667 0.43333333 0
0.4 0.43333333 0
0.43333333 0.43333333 0
0.46666667 0.43333333 0
0.5 0.43333333 0
0.53333333 0.43333333 0
0.56666667 0.43333333 0
0.6 0.43333333 0
0.63333333 0.43333333 0
0.66666667 0.43333333 0
0.7 0.43333333 0
0.73333333 0.43333333 0
0.76666667 0.43333333 0
0.8 0.43333333 0
0.83333333 0.43333333 0
0.86666667 0.43333333 0
0.9 0.43333333 0
0.93333333 0.43333333 0
0.96666667 0.43333333 0
1 0.43333333 0
0 0.46666667 0
0.033333333 0.46666667 0
0.066666667 0.46666667 0
0.1 0.46666667 0
0.13333333 0.46666667 0
0.16666667 0.46666667 0
0.2 0.46666667 0
0.23333333 0.46666667 0
0.26666667 0.46666667 0
0.3 0.46666667 0
0.33333333 0.46666667 0
0.36666667 0.46666667 0
0.4 0.46666667 0
0.43333333 0.46666667 0
0.46666667 0.46666667 0
0.5 0.46666667 0
0.53333333 0.46666667 0
0.56666667 0.46666667 0
0.6 0.46666667 0
0.63333333 0.46666667 0
0.66666667 0.46666667 0
0.7 0.46666667 0
0.73333333 0.46666667 0
0.76666667 0.46666667 0
0.8 0.46666667 0
0.83333333 0.46666667 0
0.86666667 0.46666667 0
0.9 0.46666667 0
0.93333333 0.46666667 0
0.96666667 0.46666667 0
1 0.46666667 0
0 0.5 0
0.033333333 0.5 0
0.066666667 0.5 0
0.1 0.5 0
0.13333333 0.5 0
0.16666667 0.5 0
0.2 0.5 0
0.23333333 0.5 0
0.26666667 0.5 0
0.3 0.5 0
0.33333333 0.5 0
0.36666667 0.5 0
0.4 0.5 0
0.43333333 0.5 0
0.46666667 0.5 0
0.5 0.5 0
0.53333333 0.5 0
0.56666667 0.5 0
0.6 0.5 0
0.63333333 0.5 0
0.66666667 0.5 0
0.7 0.5 0
0.73333333 0.5 0
0.76666667 0.5 0
0.8 0.5 0
0.83333333 0.5 0
0.86666667 0.5 0
0.9 0.5 0
0.93333333 0.5 0
0.96666667 0.5 0
1 0.5 0
0 0.53333333 0
0.033333333 0.53333333 0
0.066666667 0.53333333 0
0.1 0.53333333 0
0.13333333 0.53333333 0
0.16666667 0.53333333 0
0.2 0.53333333 0
0.23333333 0.53333333 0
0.26666667 0.53333333 0
0.3 0.53333333 0
0.33333333 0.53333333 0
0.36666667 0.53333333 0
0.4 0.53333333 0
0.43333333 0.53333333 0
0.46666667 0.53333333 0
0.5 0.53333333 0
0.53333333 0.53333333 0
0.56666667 0.53333333 0
0.6 0.53333333 0
0.63333333 0.53333333 0
0.66666667 0.53333333 0
0.7 0.53333333 0
0.73333333 0.53333333 0
0.76666667 0.53333333 0
0.8 0.53333333 0
[...]
CELL_DATA 1920
Scalars  Label int 1
LOOKUP_TABLE FreeFempp_table
0
0
0
0
0
0
0
0
0
0
0
0
0
0
0
0
0
0
0
0
0
0
0
0
0
0
0
0
0
0
0
0
0
0
0
0
0
0
0
0
0
0
0
0
0
0
0
0
0
0
0
0
0
0
0
0
0
0
0
0
0
0
0
0
0
0
0
0
0
0
0
0
0
0
0
0
0
0
0
0
0
0
0
0
0
0
0
0
0
0
0
0
0
0
0
0
0
0
0
0
0
0
0
0
0
0
0
0
0
0
0
0
0
0
0
0
0
0
0
0
0
0
0
0
0
0
0
0
0
0
0
0
0
0
0
0
0
0
0
0
0
0
0
0
0
0
0
0
0
0
0
0
0
0
0
0
0
0
0
0
0
0
0
0
0
0
0
0
0
0
0
0
0
0
0
0
0
0
0
0
0
0
0
0
0
0
0
0
0
0
0
0
0
0
0
0
0
0
0
0
0
0
0
0
0
0
0
0
0
0
0
0
0
0
0
0
0
0
0
0
0
0
0
0
0
0
0
0
0
0
0
0
0
0
0
0
0
0
0
0
0
0
0
0
0
0
0
0
0
0
0
0
0
0
0
0
0
0
0
0
0
0
0
0
0
0
0
0
0
0
0
0
0
0
0
0
0
0
0
0
0
0
0
0
0
0
0
0
0
0
0
0
0
0
0
0
0
0
0
0
0
0
0
0
0
0
0
0
0
0
0
0
0
0
0
0
0
0
0
0
0
0
0
0
0
0
0
0
0
0
0
0
0
0
0
0
0
0
0
0
0
0
0
0
0
0
0
0
0
0
0
0
0
0
0
0
0
0
0
0
0
0
0
0
0
0
0
0
0
0
0
0
0
0
0
0
0
0
0
0
0
0
0
0
0
0
0
0
0
0
0
0
0
0
0
0
0
0
0
0
0
0
0
0
0
0
0
0
0
0
0
0
0
0
0
0
0
0
0
0
0
0
0
0
0
0
0
0
0
0
0
0
0
0
0
0
0
0
0
0
0
0
0
0
0
0
0
0
0
0
0
0
0
0
0
0
0
0
0
0
0
0
0
0
0
0
0
0
0
0
0
0
0
0
0
0
0
0
0
0
0
0
0
0
0
0
0
0
0
0
0
0
0
0
0
0
0
0
0
0
0
0
0
0
0
0
0
0
0
0
0
0
0
0
0
0
0
0
0
0
0
0
0
0
0
0
0
0
0
0
0
0
0
0
0
0
0
0
0
0
0
0
0
0
0
0
0
0
0
0
0
0
0
0
0
0
0
0
0
0
0
0
0
0
0
0
0
0
0
0
0
0
0
0
0
0
0
0
0
0
0
0
0
0
0
0
0
0
0
0
0
0
0
0
0
0
0
0
0
0
0
0
0
0
0
0
0
0
0
0
0
0
0
0
0
0
0
0
0
0
0
0
0
0
0
0
0
0
0
0
0
0
0
0
0
0
0
0
0
0
0
0
0
0
0
0
0
0
0
0
0
0
0
0
0
0
0
0
0
0
0
0
0
0
0
0
0
0
0
0
0
0
0
0
0
0
0
0
0
0
0
0
0
0
0
0
0
0
0
0
0
0
0
0
0
0
0
0
0
0
0
0
0
0
0
0
0
0
0
0
0
0
0
0
0
0
0
0
0
0
0
0
0
0
0
0
0
0
0
0
0
0
0
0
0
0
0
0
0
0
0
0
0
0
0
0
0
0
0
0
0
0
0
0
0
0
0
0
0
0
0
0
0
0
0
0
0
0
0
0
0
0
0
0
0
0
0
0
0
0
0
0
0
0
0
0
0
0
0
0
0
0
0
0
0
0
0
0
0
0
0
0
0
0
0
0
0
0
0
0
0
0
0
0
0
0
0
0
0
0
0
0
0
0
0
0
0
0
0
0
0
0
0
0
0
0
0
0
0
0
0
0
0
0
0
0
0
0
0
0
0
0
0
0
0
0
0
0
0
0
0
0
0
0
0
0
0
0
0
0
0
0
0
0
0
0
0
0
0
0
0
0
0
0
0
0
0
0
0
0
0
0
0
0
0
0
0
0
0
0
0
0
0
0
0
0
0
0
0
0
0
0
0
0
0
0
0
0
0
0
0
0
0
0
0
0
0
0
0
0
0
0
0
0
0
0
0
0
0
0
0
0
0
0
0
0
0
0
0
0
0
0
0
0
0
0
0
0
0
0
0
0
0
0
0
0
0
0
0
0
0
0
0
0
0
0
0
0
0
0
0
0
0
0
0
0
0
0
0
0
0
0
0
0
0
0
0
0
0
0
0
0
0
0
0
0
0
0
0
0
0
0
0
0
0
0
0
0
0
0
0
0
0
0
0
0
0
0
0
0
0
0
0
0
0
0
0
0
0
0
0
0
0
0
0
0
0
0
0
0
0
0
0
0
0
0
0
0
0
0
0
0
0
0
0
0
0
0
0
0
0
0
0
0
0
0
0
0
0
0
0
0
0
0
0
0
0
0
0
0
0
0
0
0
0
0
0
0
0
0
0
0
0
0
0
0
0
0
0
0
0
0
0
0
0
0
0
0
0
0
0
0
0
0
0
0
0
0
0
0
0
0
0
0
0
0
0
0
0
0
0
0
0
0
0
0
0
0
0
0
0
0
0
0
0
0
0
0
0
0
0
0
0
0
0
0
0
0
0
0
0
0
0
0
0
0
0
0
0
0
0
0
0
0
0
0
0
0
0
0
0
0
0
0
0
0
0
0
0
0
0
0
0
0
0
0
0
0
0
0
0
0
0
0
0
0
0
0
0
0
0
0
0
0
0
0
0
0
0
0
0
0
0
0
0
0
0
0
0
0
0
0
0
0
0
0
0
0
0
0
0
0
0
0
0
0
0
0
0
0
0
0
0
0
0
0
0
0
0
0
0
0
0
0
0
0
0
0
0
0
0
0
0
0
0
0
0
0
0
0
0
0
0
0
0
0
0
0
0
0
0
0
0
0
0
0
0
0
0
0
0
0
0
0
0
0
0
0
0
0
0
0
0
0
0
0
0
0
0
0
0
0
0
0
0
0
0
0
0
0
0
0
0
0
0
0
0
0
0
0
0
0
0
0
0
0
0
0
0
0
0
0
0
0
0
0
0
0
0
0
0
0
0
0
0
0
0
0
0
0
0
0
0
0
0
0
0
0
0
0
0
0
0
0
0
0
0
0
0
0
0
0
0
0
0
0
0
0
0
0
0
0
0
0
0
0
0
0
0
0
0
0
0
0
0
0
0
0
0
0
0
0
0
0
0
0
0
0
0
0
0
0
0
0
0
0
0
0
0
0
0
0
0
0
0
0
0
0
0
0
0
0
0
0
0
0
0
0
0
0
0
0
0
0
0
0
0
0
0
0
0
0
0
0
0
0
0
0
0
0
0
0
0
0
0
0
0
0
0
0
0
0
0
0
0
0
0
0
0
0
0
0
0
0
0
0
0
0
0
0
0
0
0
0
0
0
0
0
0
0
0
0
0
0
0
0
0
0
0
0
0
0
0
0
0
0
0
0
0
0
0
0
0
0
0
0
0
0
0
0
0
0
0
0
0
0
0
0
0
0
0
0
0
0
0
0
0
0
0
0
0
0
0
0
0
0
0
0
0
0
0
0
0
0
0
0
0
0
0
0
0
0
0
0
0
0
0
0
0
0
0
0
0
0
0
0
0
0
0
0
0
0
0
0
0
0
0
0
0
0
0
0
0
0
0
0
0
0
0
0
0
0
0
0
0
0
0
0
0
0
0
0
0
0
0
0
0
0
0
0
0
0
0
0
0
0
0
0
0
0
0
0
0
0
0
0
0
0
0
0
0
0
0
0
0
0
0
0
0
0
0
0
0
0
0
0
0
0
0
0
0
0
0
0
0
0
0
0
0
0
0
0
0
0
0
0
0
0
0
0
0
0
0
0
0
0
0
0
0
0
0
0
0
0
0
0
0
0
0
0
0
0
0
0
0
0
0
0
0
0
0
0
0
0
0
0
0
0
0
0
0
0
0
0
0
0
0
0
0
0
0
0
0
0
0
0
0
0
0
0
0
0
0
0
0
0
0
0
0
0
0
0
0
0
0
0
0
0
0
0
1
1
1
1
1
1
1
1
1
1
1
1
1
1
1
1
1
1
1
1
1
1
1
1
1
1
1
1
1
1
2
2
2
2
2
2
2
2
2
2
2
2
2
2
2
2
2
2
2
2
2
2
2
2
2
2
2
2
2
2
3
3
3
3
3
3
3
3
3
3
3
3
3
3
3
3
3
3
3
3
3
3
3
3
3
3
3
3
3
3
4
4
4
4
4
4
4
4
4
4
4
4
4
4
4
4
4
4
4
4
4
4
4
4
4
4
4
4
4
4

LOOKUP_TABLE FreeFempp_table 5
1.00000000 0.00000000 0.00000000 1.00000000
1.00000000 1.00000000 0.00000000 1.00000000
1.00000000 0.00000000 1.00000000 1.00000000
0.00000000 1.00000000 0.00000000 1.00000000
0.00000000 1.00000000 1.00000000 1.00000000

POINT_DATA 961
FIELD FieldData 1
Density 1 961 float
6.08510435e-01 5.45899272e-01 5.11052966e-01 4.58737493e-01 4.44522083e-01 4.93705511e-01 5.51878154e-01 5.84165037e-01 5.97797990e-01 6.05492711e-01 6.19050026e-01 5.10562003e-01 1.55898603e-02 3.30426265e-03 4.10559122e-03 2.77867075e-02 5.03985763e-01 6.64947808e-01 7.13567853e-01 7.36344099e-01 7.38527596e-01 7.23325610e-01 7.06851840e-01 7.06126630e-01 7.23257184e-01 7.52397120e-01 7.86304712e-01 8.16911757e-01 8.38780165e-01 8.49779427e-01 7.54469395e-01 5.88997245e-01 4.41855788e-01 4.00930971e-01 3.47400993e-01 3.07128847e-01 3.38596582e-01 4.16075975e-01 4.81903970e-01 5.09790123e-01 5.19248426e-01 5.27058303e-01 4.71574515e-01 2.16540433e-02 2.87298788e-03 2.51998915e-03 7.97786936e-03 3.14700007e-01 5.86715102e-01 6.93508148e-01 7.56252706e-01 7.76431322e-01 7.59883940e-01 7.27449358e-01 7.14049578e-01 7.38196194e-01 7.87840962e-01 8.43182981e-01 8.87520134e-01 9.14913177e-01 9.28085566e-01 8.48713100e-01 3.56001430e-04 3.36044526e-04 3.49821756e-04 4.45941027e-04 8.76496255e-04 2.37835688e-03 1.78174257e-01 5.03221452e-01 5.43191731e-01 5.56747675e-01 5.65961659e-01 5.55373669e-01 1.09349564e-01 3.75728076e-03 2.56003952e-03 5.22013661e-03 3.43024373e-01 5.39132059e-01 6.36561036e-01 7.21926570e-01 7.56800354e-01 7.39600241e-01 7.02564418e-01 6.90274835e-01 7.20553517e-01 7.77294993e-01 8.37355614e-01 8.83207679e-01 9.10417616e-01 9.22704875e-01 8.41887653e-01 4.88990860e-04 3.01394786e-04 3.30268376e-04 3.25798756e-04 3.46680201e-04 3.50541843e-04 3.45882232e-04 3.52921721e-04 3.77852848e-04 3.99364217e-04 4.14755719e-04 4.19897580e-04 4.19138581e-04 4.35047201e-04 5.17503009e-04 7.94704480e-04 4.41608191e-01 5.04939139e-01 5.78367949e-01 6.90876961e-01 7.44699717e-01 7.24013627e-01 6.75229847e-01 6.55497551e-01 6.89287722e-01 7.56432950e-01 8.26343834e-01 8.77744198e-01 9.06896472e-01 9.19375002e-01 8.38666201e-01 9.88891184e-01 9.93782222e-01 9.88558769e-01 3.15141235e-03 1.01431750e-03 5.11422637e-04 3.82182072e-04 3.47281864e-04 3.61292507e-04 3.86270782e-04 4.04462655e-04 4.14876064e-04 4.15185670e-04 4.07418353e-04 3.98409087e-04 3.64263455e-04 3.32125259e-04 4.48965847e-01 5.55886507e-01 6.64998531e-01 7.36397207e-01 7.04401791e-01 6.46923840e-01 6.19458437e-01 6.48230791e-01 7.24970996e-01 8.09689343e-01 8.70133460e-01 9.02388394e-01 9.15212274e-01 8.35154235e-01 9.90309417e-01 9.96236503e-01 9.96696472e-01 9.96963382e-01 9.96248007e-01 9.90850925e-01 9.76452231e-01 9.32505190e-01 8.35279465e-01 7.10105598e-01 6.20982170e-01 5.77794373e-01 5.45212984e-01 4.59909976e-01 6.09648740e-03 1.15238095e-03 2.58531858e-04 2.20572954e-04 4.78689700e-01 6.94152355e-01 6.70962214e-01 5.30397117e-01 5.11943698e-01 5.38240135e-01 5.83088338e-01 6.73855603e-01 7.83984542e-01 8.59838665e-01 8.96730900e-01 9.10016954e-01 8.30604136e-01 9.78637397e-01 8.63507986e-01 3.48851770e-01 9.81830001e-01 9.93735909e-01 9.94030416e-01 9.92921531e-01 9.89402711e-01 9.79535758e-01 9.51736391e-01 8.92424583e-01 8.12062621e-01 7.31551826e-01 6.63582563e-01 6.08246863e-01 5.40956497e-01 2.73342967e-01 2.47903896e-04 2.87533039e-04 6.66315615e-01 6.09363496e-01 1.79324403e-01 1.66483566e-01 2.94245094e-01 4.28438216e-01 6.01212263e-01 7.52427876e-01 8.49056602e-01 8.91276121e-01 9.04745698e-01 8.25507224e-01 9.58366513e-01 5.40142834e-01 1.63255297e-02 3.30057517e-02 4.22420830e-01 9.16214705e-01 9.78395402e-01 9.87887979e-01 9.89130259e-01 9.85730469e-01 9.75219309e-01 9.49653804e-01 9.01314378e-01 8.29806030e-01 7.43081152e-01 6.59868181e-01 5.92391849e-01 4.82574821e-01 3.27731599e-04 3.99266515e-04 8.94677281e-01 1.24933809e-01 4.34284285e-02 4.78818715e-02 1.50930017e-01 4.60673302e-01 7.36103356e-01 8.46551597e-01 8.89362812e-01 9.01776195e-01 8.21689606e-01 8.94977689e-01 8.82836819e-01 1.22168371e-02 7.18689058e-03 2.73252372e-02 1.29077300e-01 3.54353994e-01 8.42731237e-01 9.67444777e-01 9.84015942e-01 9.85140741e-01 9.80284214e-01 9.67263639e-01 9.37597394e-01 8.82086337e-01 7.91309357e-01 6.81092203e-01 5.83546519e-01 1.32215116e-03 4.61027812e-04 1.44300796e-03 5.85138619e-01 2.22351626e-02 1.06175141e-02 1.62433907e-02 1.50724009e-01 7.06387222e-01 8.62891138e-01 8.94940853e-01 9.03483748e-01 8.21313143e-01 8.65350485e-01 8.88426542e-01 2.18309220e-02 4.47222264e-03 7.04911398e-03 2.39067618e-02 3.95314433e-02 7.90494904e-02 3.34842145e-01 8.98709834e-01 9.75068271e-01 9.82967079e-01 9.81392264e-01 9.73538458e-01 9.53441322e-01 9.07788992e-01 8.14868033e-01 6.81885421e-01 5.66204637e-03 5.32625883e-04 8.13300372e-04 8.97335649e-01 6.03828393e-02 7.63206184e-03 5.01331827e-03 1.30437119e-02 3.78383338e-01 8.87932658e-01 9.10544038e-01 9.11341906e-01 8.25760424e-01 8.33491445e-01 8.84498656e-01 4.79915850e-02 3.70417512e-03 3.90223693e-03 7.52826780e-03 1.09451925e-02 1.73207615e-02 5.01260124e-02 2.85641760e-01 8.98542047e-01 9.72118974e-01 9.80652928e-01 9.80483949e-01 9.75025952e-01 9.59512234e-01 9.18682635e-01 8.24157357e-01 2.55674660e-01 5.92345197e-04 5.19343826e-04 7.51826584e-01 4.15295243e-01 2.65230425e-02 4.27030586e-03 3.76883056e-03 3.30573246e-02 8.88723254e-01 9.30953741e-01 9.24901426e-01 8.35399210e-01 8.06380689e-01 8.61152291e-01 1.83897376e-01 3.27916769e-03 2.99531571e-03 4.64344025e-03 8.61001574e-03 1.73203945e-02 5.64940907e-02 2.54655302e-01 7.88582206e-01 9.42726851e-01 9.68240559e-01 9.76303101e-01 9.78273571e-01 9.75452244e-01 9.63574767e-01 9.26815510e-01 6.46841049e-01 1.41968660e-03 6.37846708e-04 2.43074796e-03 7.60109782e-01 2.54003465e-01 9.55337286e-03 2.89282994e-03 5.05554350e-03 8.08880091e-01 9.46646452e-01 9.39791858e-01 8.48890662e-01 7.83322334e-01 8.35183322e-01 4.76360947e-01 2.80515268e-03 2.45532976e-03 3.59162455e-03 1.21257193e-02 5.43469638e-02 3.56072485e-01 7.95254707e-01 8.98405373e-01 9.13417280e-01 9.31864560e-01 9.57082450e-01 9.71947432e-01 9.78045404e-01 9.78626668e-01 9.72402871e-01 8.83532047e-01 2.99703632e-03 1.00578193e-03 1.33076019e-03 4.94661897e-01 6.15519524e-01 2.39350379e-01 2.92062177e-03 2.81895767e-03 9.46220458e-02 9.58593071e-01 9.53586578e-01 8.64321411e-01 7.64606357e-01 8.11520994e-01 6.11570299e-01 2.43607652e-03 2.10205535e-03 2.98874360e-03 3.17039527e-02 3.98658752e-01 8.35272312e-01 8.98037374e-01 8.75510156e-01 8.37077141e-01 8.52806807e-01 9.07580674e-01 9.52188730e-01 9.72938061e-01 9.81621027e-01 9.85471904e-01 9.77511346e-01 1.79732274e-02 1.72695564e-03 1.19716406e-03 2.57109012e-03 1.14532627e-01 8.39112520e-01 4.34519444e-03 2.22055125e-03 5.74852573e-03 9.60865259e-01 9.65776384e-01 8.82956088e-01 7.50824749e-01 7.92106569e-01 6.60945237e-01 2.20107404e-03 1.88089418e-03 2.65791593e-03 3.44300568e-01 8.15967500e-01 8.90820146e-01 8.68261874e-01 8.10414195e-01 7.63186097e-01 7.77729511e-01 8.42450082e-01 9.12123084e-01 9.57186103e-01 9.77697968e-01 9.87313867e-01 9.91786838e-01 4.07967627e-01 4.77029802e-03 1.71606988e-03 2.01819162e-03 4.21102950e-03 5.26649021e-02 4.27424572e-02 2.03888561e-03 2.60291132e-03 9.47515965e-01 9.72226799e-01 9.05758262e-01 7.41168439e-01 7.77770877e-01 6.79085732e-01 2.03833985e-03 1.71753590e-03 2.42445711e-03 7.32989252e-01 8.77253294e-01 8.82944703e-01 8.39368582e-01 7.87073076e-01 7.56305158e-01 7.62295663e-01 8.04035664e-01 8.66942585e-01 9.26731050e-01 9.65338349e-01 9.83892024e-01 9.93280947e-01 9.89848793e-01 2.80426312e-02 3.70809389e-03 2.47982913e-03 3.00638983e-03 5.56857185e-03 5.35526454e-01 2.11535464e-03 2.24202941e-03 9.30862665e-01 9.76305127e-01 9.26767230e-01 7.34501481e-01 7.67474651e-01 6.85804963e-01 1.92259753e-03 1.58768927e-03 2.23669806e-03 8.22014689e-01 9.03146565e-01 8.81044328e-01 8.37058961e-01 8.04038465e-01 7.89472997e-01 7.91340470e-01 8.08342099e-01 8.44756484e-01 8.93514991e-01 9.42436159e-01 9.74267423e-01 9.91011024e-01 9.95938420e-01 8.83404553e-01 1.52814351e-02 4.50837472e-03 3.36941355e-03 4.26516822e-03 2.35066697e-01 2.25554290e-03 2.04133941e-03 8.82080257e-01 9.80803370e-01 9.42839503e-01 7.29880095e-01 7.59968996e-01 6.88093722e-01 1.84266584e-03 1.48397393e-03 2.07802956e-03 8.12208951e-01 9.31522846e-01 8.46909761e-01 7.79355884e-01 8.01951110e-01 8.10384929e-01 8.11512947e-01 8.14146161e-01 8.29018295e-01 8.63356769e-01 9.09467697e-01 9.54180658e-01 9.84025240e-01 9.95077729e-01 9.96929109e-01 7.10210204e-01 2.37805098e-02 7.01474445e-03 5.71251428e-03 2.61129558e-01 3.24494205e-03 2.19928473e-03 1.45517699e-02 9.87285912e-01 9.56218958e-01 7.26580262e-01 7.54288197e-01 6.88606858e-01 1.79448887e-03 1.41037547e-03 1.94671017e-03 6.09684169e-01 9.15074289e-01 2.43003950e-01 8.75141993e-02 3.91988337e-01 6.34802997e-01 7.18234122e-01 7.46032834e-01 7.59327292e-01 7.84505606e-01 8.37739944e-01 9.04822946e-01 9.62213874e-01 9.90151227e-01 9.96710777e-01 9.94720995e-01 8.49740505e-01 7.42652342e-02 2.70223748e-02 8.55259478e-01 6.56352937e-03 2.75861844e-03 6.15904899e-03 9.91002858e-01 9.71696854e-01 7.24117279e-01 7.49838233e-01 6.88343823e-01 1.77304493e-03 1.36871566e-03 1.85550400e-03 1.86581641e-01 9.03979301e-01 8.59831087e-03 4.40298952e-03 6.31149299e-03 5.05211540e-02 2.57335186e-01 4.79569703e-01 5.72976351e-01 6.11219823e-01 6.45335495e-01 7.18832374e-01 8.61198604e-01 9.63925600e-01 9.92653131e-01 9.96859729e-01 9.96902466e-01 9.84114051e-01 8.88126910e-01 8.45894277e-01 1.78080909e-02 3.65138939e-03 4.68501030e-03 9.91030872e-01 9.80553389e-01 7.22162127e-01 7.46293485e-01 6.87607765e-01 1.77390815e-03 1.35110610e-03 1.80352142e-03 1.22995548e-01 8.97310913e-01 5.17630339e-01 3.89425154e-03 2.49599153e-03 2.77029094e-03 8.04597046e-03 5.33675030e-02 2.48517752e-01 3.88859183e-01 4.20551509e-01 4.19981956e-01 4.57052141e-01 6.69211864e-01 9.52744365e-01 9.91665781e-01 9.96237397e-01 9.96541083e-01 9.93912578e-01 9.62407112e-01 9.74534154e-02 5.51119028e-03 4.32349369e-03 9.91653562e-01 9.86613333e-01 7.20387816e-01 7.43425071e-01 6.86642110e-01 1.80219312e-03 1.36477756e-03 1.78463047e-03 2.44794101e-01 7.41117537e-01 9.48246360e-01 2.79016256e-01 3.60088074e-03 1.91798864e-03 1.81237503e-03 3.17943306e-03 1.60023421e-02 9.86317247e-02 2.16377825e-01 2.40030244e-01 2.27809131e-01 2.65924811e-01 4.39760566e-01 9.11361575e-01 9.89023387e-01 9.95747983e-01 9.96794164e-01 9.95927513e-01 9.76452053e-01 3.29097956e-02 5.31211356e-03 9.19118822e-01 9.91170883e-01 7.18313396e-01 7.40948021e-01 6.86001241e-01 1.85729470e-03 1.40310545e-03 1.79075066e-03 4.37340409e-01 6.65021598e-01 9.02055323e-01 8.95271719e-01 2.35260054e-01 4.77504078e-03 1.68532692e-03 1.26343407e-03 1.78841432e-03 5.27193584e-03 2.34647002e-02 6.13731444e-02 8.65786597e-02 1.00219436e-01 1.39686465e-01 2.72051156e-01 7.03289926e-01 9.71520007e-01 9.92919207e-01 9.96377409e-01 9.97410238e-01 9.96891916e-01 9.50336099e-01 9.97665048e-01 9.96394277e-01 7.15021789e-01 7.38342285e-01 6.87004507e-01 1.94909924e-03 1.44960103e-03 1.80247624e-03 5.47699451e-01 6.50756359e-01 7.93040633e-01 8.88989031e-01 8.15745234e-01 2.36877605e-01 6.89793937e-03 1.68379257e-03 1.00669661e-03 1.07393705e-03 1.76158571e-03 4.03733319e-03 8.84711370e-03 1.39354616e-02 1.77111644e-02 2.01917943e-02 2.66783908e-02 5.59919849e-02 3.24427307e-01 8.63338053e-01 9.76229429e-01 9.94874418e-01 9.97263432e-01 9.98273373e-01 9.96628106e-01 7.08955348e-01 7.34781921e-01 6.92602515e-01 2.12272769e-03 1.48137205e-03 1.79234520e-03 5.87057352e-01 6.43750489e-01 7.10516393e-01 8.09284210e-01 8.50373209e-01 7.40822852e-01 2.15836152e-01 9.59376432e-03 2.12783786e-03 1.07688445e-03 8.13368359e-04 8.15939100e-04 9.70762572e-04 1.14099239e-03 1.13604520e-03 9.21953528e-04 6.84325234e-04 5.44030801e-04 5.10442769e-04 6.30496303e-04 9.25869273e-04 7.92689994e-02 8.06142747e-01 9.75820541e-01 9.80654418e-01 6.98192418e-01 7.28468597e-01 7.07248688e-01 2.56522791e-03 1.46945356e-03 1.72530860e-03 5.95057249e-01 6.35345578e-01 6.62639439e-01 7.27111042e-01 7.96449184e-01 8.10121715e-01 6.47059441e-01 1.48378178e-01 1.45556936e-02 3.82419466e-03 1.71872543e-03 1.01190037e-03 7.82103336e-04 7.13328598e-04 6.90669578e-04 6.88534812e-04 7.05234357e-04 6.28294656e-04 5.20703441e-04 4.73338412e-04 4.03839513e-04 3.34182405e-04 1.40134171e-02 2.07202464e-01 5.65137744e-01 6.84165657e-01 7.14018226e-01 7.36355245e-01 4.24393872e-03 1.44441542e-03 1.59882719e-03 5.94301283e-01 6.28615081e-01 6.37482643e-01 6.65859938e-01 7.19643831e-01 7.74171948e-01 7.53740072e-01 5.33375382e-01 1.37245730e-01 2.70380769e-02 1.04358429e-02 4.53739055e-03 2.41535506e-03 1.62542972e-03 1.29419006e-03 1.18941476e-03 1.27350865e-03 1.72279519e-03 3.08876927e-03 3.92762152e-03 1.53580541e-03 3.60282342e-04 2.84448062e-04 6.99263206e-03 1.27571762e-01 6.75929606e-01 6.83439434e-01 7.43019283e-01 1.63145941e-02 1.48648443e-03 1.50475022e-03 5.96790850e-01 6.29290760e-01 6.29543185e-01 6.35171533e-01 6.60492122e-01 7.05414057e-01 7.52311826e-01 6.90210223e-01 5.26154220e-01 1.98404640e-01 6.46229163e-02 3.19351070e-02 2.02797670e-02 1.43673299e-02 1.14911404e-02 1.19533045e-02 1.99269038e-02 8.37677717e-02 4.72049475e-01 8.33633959e-01 8.23677659e-01 6.25046939e-02 3.23453889e-04 2.91082193e-04 5.12428693e-02 6.82818830e-01 6.70876265e-01 7.31143951e-01 6.77178800e-01 1.85112772e-03 1.40438182e-03 6.28751814e-01 6.47786140e-01 6.39480948e-01 6.34362936e-01 6.40335560e-01 6.55789912e-01 6.59558535e-01 6.53070927e-01 5.68343937e-01 4.29230124e-01 3.02776158e-01 2.58444428e-01 2.96971112e-01 3.88147652e-01 4.65663373e-01 6.26314640e-01 8.73055279e-01 9.74483252e-01 9.64831471e-01 9.25987780e-01 7.67322600e-01 5.67902029e-01 5.29610959e-04 4.31638211e-04 3.44532952e-02 7.42459476e-01 7.30745852e-01 7.30065346e-01 7.53462374e-01 1.02460280e-03 4.03502351e-03 7.06079662e-01 7.00812042e-01 6.87645793e-01 6.77946150e-01 6.59147203e-01 6.10829413e-01 4.51246440e-01 2.85525769e-01 2.90395975e-01 3.16111714e-01 3.68014753e-01 4.37005073e-01 5.08754253e-01 5.82541883e-01 6.62061393e-01 7.95375109e-01 9.19364572e-01 9.82799649e-01 9.54154551e-01 9.77356374e-01 6.36431038e-01 9.10329044e-01 1.71347335e-02 5.09262201e-04 2.86576163e-04 7.37561345e-01 7.74943173e-01 7.55804241e-01 7.64301956e-01 2.23432411e-03 1.87009992e-03 8.46210122e-01 7.32813239e-01 7.23991930e-01 7.16586649e-01 6.95299208e-01 6.37777328e-01 4.81854975e-01 2.68092245e-01 1.96287408e-01 2.79174119e-01 3.75880629e-01 4.63465750e-01 5.51737905e-01 6.32477403e-01 6.91639066e-01 7.13726461e-01 6.83381975e-01 9.62554157e-01 9.66556489e-01 9.66381192e-01 9.31377947e-01 2.25867733e-01 3.38713042e-02 1.37450118e-02 1.00072954e-04 
