# vtk DataFile Version 2.0
results/iter7.vtk, Created by Freefem++ 
ASCII
DATASET UNSTRUCTURED_GRID
POINTS 961 float
0 0 0
0.033333333 0 0
0.066666667 0 0
0.1 0 0
0.13333333 0 0
0.16666667 0 0
0.2 0 0
0.23333333 0 0
0.26666667 0 0
0.3 0 0
0.33333333 0 0
0.36666667 0 0
0.4 0 0
0.43333333 0 0
0.46666667 0 0
0.5 0 0
0.53333333 0 0
0.56666667 0 0
0.6 0 0
0.63333333 0 0
0.66666667 0 0
0.7 0 0
0.73333333 0 0
0.76666667 0 0
0.8 0 0
0.83333333 0 0
0.86666667 0 0
0.9 0 0
0.93333333 0 0
0.96666667 0 0
1 0 0
0 0.033333333 0
0.033333333 0.033333333 0
0.066666667 0.033333333 0
0.1 0.033333333 0
0.13333333 0.033333333 0
0.16666667 0.033333333 0
0.2 0.033333333 0
0.23333333 0.033333333 0
0.26666667 0.033333333 0
0.3 0.033333333 0
0.33333333 0.033333333 0
0.36666667 0.033333333 0
0.4 0.033333333 0
0.43333333 0.033333333 0
0.46666667 0.033333333 0
0.5 0.033333333 0
0.53333333 0.033333333 0
0.56666667 0.033333333 0
0.6 0.033333333 0
0.63333333 0.033333333 0
0.66666667 0.033333333 0
0.7 0.033333333 0
0.73333333 0.033333333 0
0.76666667 0.033333333 0
0.8 0.033333333 0
0.83333333 0.033333333 0
0.86666667 0.033333333 0
0.9 0.033333333 0
0.93333333 0.033333333 0
0.96666667 0.033333333 0
1 0.033333333 0
0 0.066666667 0
0.033333333 0.066666667 0
0.066666667 0.066666667 0
0.1 0.066666667 0
0.13333333 0.066666667 0
0.16666667 0.066666667 0
0.2 0.066666667 0
0.23333333 0.066666667 0
0.26666667 0.066666667 0
0.3 0.066666667 0
0.33333333 0.066666667 0
0.36666667 0.066666667 0
0.4 0.066666667 0
0.43333333 0.066666667 0
0.46666667 0.066666667 0
0.5 0.066666667 0
0.53333333 0.066666667 0
0.56666667 0.066666667 0
0.6 0.066666667 0
0.63333333 0.066666667 0
0.66666667 0.066666667 0
0.7 0.066666667 0
0.73333333 0.066666667 0
0.76666667 0.066666667 0
0.8 0.066666667 0
0.83333333 0.066666667 0
0.86666667 0.066666667 0
0.9 0.066666667 0
0.93333333 0.066666667 0
0.96666667 0.066666667 0
1 0.066666667 0
0 0.1 0
0.033333333 0.1 0
0.066666667 0.1 0
0.1 0.1 0
0.13333333 0.1 0
0.16666667 0.1 0
0.2 0.1 0
0.23333333 0.1 0
0.26666667 0.1 0
0.3 0.1 0
0.33333333 0.1 0
0.36666667 0.1 0
0.4 0.1 0
0.43333333 0.1 0
0.46666667 0.1 0
0.5 0.1 0
0.53333333 0.1 0
0.56666667 0.1 0
0.6 0.1 0
0.63333333 0.1 0
0.66666667 0.1 0
0.7 0.1 0
0.73333333 0.1 0
0.76666667 0.1 0
0.8 0.1 0
0.83333333 0.1 0
0.86666667 0.1 0
0.9 0.1 0
0.93333333 0.1 0
0.96666667 0.1 0
1 0.1 0
0 0.13333333 0
0.033333333 0.13333333 0
0.066666667 0.13333333 0
0.1 0.13333333 0
0.13333333 0.13333333 0
0.16666667 0.13333333 0
0.2 0.13333333 0
0.23333333 0.13333333 0
0.26666667 0.13333333 0
0.3 0.13333333 0
0.33333333 0.13333333 0
0.36666667 0.13333333 0
0.4 0.13333333 0
0.43333333 0.13333333 0
0.46666667 0.13333333 0
0.5 0.13333333 0
0.53333333 0.13333333 0
0.56666667 0.13333333 0
0.6 0.13333333 0
0.63333333 0.13333333 0
0.66666667 0.13333333 0
0.7 0.13333333 0
0.73333333 0.13333333 0
0.76666667 0.13333333 0
0.8 0.13333333 0
0.83333333 0.13333333 0
0.86666667 0.13333333 0
0.9 0.13333333 0
0.93333333 0.13333333 0
0.96666667 0.13333333 0
1 0.13333333 0
0 0.16666667 0
0.033333333 0.16666667 0
0.066666667 0.16666667 0
0.1 0.16666667 0
0.13333333 0.16666667 0
0.16666667 0.16666667 0
0.2 0.16666667 0
0.23333333 0.16666667 0
0.26666667 0.16666667 0
0.3 0.16666667 0
0.33333333 0.16666667 0
0.36666667 0.16666667 0
0.4 0.16666667 0
0.43333333 0.16666667 0
0.46666667 0.16666667 0
0.5 0.16666667 0
0.53333333 0.16666667 0
0.56666667 0.16666667 0
0.6 0.16666667 0
0.63333333 0.16666667 0
0.66666667 0.16666667 0
0.7 0.16666667 0
0.73333333 0.16666667 0
0.76666667 0.16666667 0
0.8 0.16666667 0
0.83333333 0.16666667 0
0.86666667 0.16666667 0
0.9 0.16666667 0
0.93333333 0.16666667 0
0.96666667 0.16666667 0
1 0.16666667 0
0 0.2 0
0.033333333 0.2 0
0.066666667 0.2 0
0.1 0.2 0
0.13333333 0.2 0
0.16666667 0.2 0
0.2 0.2 0
0.23333333 0.2 0
0.26666667 0.2 0
0.3 0.2 0
0.33333333 0.2 0
0.36666667 0.2 0
0.4 0.2 0
0.43333333 0.2 0
0.46666667 0.2 0
0.5 0.2 0
0.53333333 0.2 0
0.56666667 0.2 0
0.6 0.2 0
0.63333333 0.2 0
0.66666667 0.2 0
0.7 0.2 0
0.73333333 0.2 0
0.76666667 0.2 0
0.8 0.2 0
0.83333333 0.2 0
0.86666667 0.2 0
0.9 0.2 0
0.93333333 0.2 0
0.96666667 0.2 0
1 0.2 0
0 0.23333333 0
0.033333333 0.23333333 0
0.066666667 0.23333333 0
0.1 0.23333333 0
0.13333333 0.23333333 0
0.16666667 0.23333333 0
0.2 0.23333333 0
0.23333333 0.23333333 0
0.26666667 0.23333333 0
0.3 0.23333333 0
0.33333333 0.23333333 0
0.36666667 0.23333333 0
0.4 0.23333333 0
0.43333333 0.23333333 0
0.46666667 0.23333333 0
0.5 0.23333333 0
0.53333333 0.23333333 0
0.56666667 0.23333333 0
0.6 0.23333333 0
0.63333333 0.23333333 0
0.66666667 0.23333333 0
0.7 0.23333333 0
0.73333333 0.23333333 0
0.76666667 0.23333333 0
0.8 0.23333333 0
0.83333333 0.23333333 0
0.86666667 0.23333333 0
0.9 0.23333333 0
0.93333333 0.23333333 0
0.96666667 0.23333333 0
1 0.23333333 0
0 0.26666667 0
0.033333333 0.26666667 0
0.066666667 0.26666667 0
0.1 0.26666667 0
0.13333333 0.26666667 0
0.16666667 0.26666667 0
0.2 0.26666667 0
0.23333333 0.26666667 0
0.26666667 0.26666667 0
0.3 0.26666667 0
0.33333333 0.26666667 0
0.36666667 0.26666667 0
0.4 0.26666667 0
0.43333333 0.26666667 0
0.46666667 0.26666667 0
0.5 0.26666667 0
0.53333333 0.26666667 0
0.56666667 0.26666667 0
0.6 0.26666667 0
0.63333333 0.26666667 0
0.66666667 0.26666667 0
0.7 0.26666667 0
0.73333333 0.26666667 0
0.76666667 0.26666667 0
0.8 0.26666667 0
0.83333333 0.26666667 0
0.86666667 0.26666667 0
0.9 0.26666667 0
0.93333333 0.26666667 0
0.96666667 0.26666667 0
1 0.26666667 0
0 0.3 0
0.033333333 0.3 0
0.066666667 0.3 0
0.1 0.3 0
0.13333333 0.3 0
0.16666667 0.3 0
0.2 0.3 0
0.23333333 0.3 0
0.26666667 0.3 0
0.3 0.3 0
0.33333333 0.3 0
0.36666667 0.3 0
0.4 0.3 0
0.43333333 0.3 0
0.46666667 0.3 0
0.5 0.3 0
0.53333333 0.3 0
0.56666667 0.3 0
0.6 0.3 0
0.63333333 0.3 0
0.66666667 0.3 0
0.7 0.3 0
0.73333333 0.3 0
0.76666667 0.3 0
0.8 0.3 0
0.83333333 0.3 0
0.86666667 0.3 0
0.9 0.3 0
0.93333333 0.3 0
0.96666667 0.3 0
1 0.3 0
0 0.33333333 0
0.033333333 0.33333333 0
0.066666667 0.33333333 0
0.1 0.33333333 0
0.13333333 0.33333333 0
0.16666667 0.33333333 0
0.2 0.33333333 0
0.23333333 0.33333333 0
0.26666667 0.33333333 0
0.3 0.33333333 0
0.33333333 0.33333333 0
0.36666667 0.33333333 0
0.4 0.33333333 0
0.43333333 0.33333333 0
0.46666667 0.33333333 0
0.5 0.33333333 0
0.53333333 0.33333333 0
0.56666667 0.33333333 0
0.6 0.33333333 0
0.63333333 0.33333333 0
0.66666667 0.33333333 0
0.7 0.33333333 0
0.73333333 0.33333333 0
0.76666667 0.33333333 0
0.8 0.33333333 0
0.83333333 0.33333333 0
0.86666667 0.33333333 0
0.9 0.33333333 0
0.93333333 0.33333333 0
0.96666667 0.33333333 0
1 0.33333333 0
0 0.36666667 0
0.033333333 0.36666667 0
0.066666667 0.36666667 0
0.1 0.36666667 0
0.13333333 0.36666667 0
0.16666667 0.36666667 0
0.2 0.36666667 0
0.23333333 0.36666667 0
0.26666667 0.36666667 0
0.3 0.36666667 0
0.33333333 0.36666667 0
0.36666667 0.36666667 0
0.4 0.36666667 0
0.43333333 0.36666667 0
0.46666667 0.36666667 0
0.5 0.36666667 0
0.53333333 0.36666667 0
0.56666667 0.36666667 0
0.6 0.36666667 0
0.63333333 0.36666667 0
0.66666667 0.36666667 0
0.7 0.36666667 0
0.73333333 0.36666667 0
0.76666667 0.36666667 0
0.8 0.36666667 0
0.83333333 0.36666667 0
0.86666667 0.36666667 0
0.9 0.36666667 0
0.93333333 0.36666667 0
0.96666667 0.36666667 0
1 0.36666667 0
0 0.4 0
0.033333333 0.4 0
0.066666667 0.4 0
0.1 0.4 0
0.13333333 0.4 0
0.16666667 0.4 0
0.2 0.4 0
0.23333333 0.4 0
0.26666667 0.4 0
0.3 0.4 0
0.33333333 0.4 0
0.36666667 0.4 0
0.4 0.4 0
0.43333333 0.4 0
0.46666667 0.4 0
0.5 0.4 0
0.53333333 0.4 0
0.56666667 0.4 0
0.6 0.4 0
0.63333333 0.4 0
0.66666667 0.4 0
0.7 0.4 0
0.73333333 0.4 0
0.76666667 0.4 0
0.8 0.4 0
0.83333333 0.4 0
0.86666667 0.4 0
0.9 0.4 0
0.93333333 0.4 0
0.96666667 0.4 0
1 0.4 0
0 0.43333333 0
0.033333333 0.43333333 0
0.066666667 0.43333333 0
0.1 0.43333333 0
0.13333333 0.43333333 0
0.16666667 0.43333333 0
0.2 0.43333333 0
0.23333333 0.43333333 0
0.26666667 0.43333333 0
0.3 0.43333333 0
0.33333333 0.43333333 0
0.36666667 0.43333333 0
0.4 0.43333333 0
0.43333333 0.43333333 0
0.46666667 0.43333333 0
0.5 0.43333333 0
0.53333333 0.43333333 0
0.56666667 0.43333333 0
0.6 0.43333333 0
0.63333333 0.43333333 0
0.66666667 0.43333333 0
0.7 0.43333333 0
0.73333333 0.43333333 0
0.76666667 0.43333333 0
0.8 0.43333333 0
0.83333333 0.43333333 0
0.86666667 0.43333333 0
0.9 0.43333333 0
0.93333333 0.43333333 0
0.96666667 0.43333333 0
1 0.43333333 0
0 0.46666667 0
0.033333333 0.46666667 0
0.066666667 0.46666667 0
0.1 0.46666667 0
0.13333333 0.46666667 0
0.16666667 0.46666667 0
0.2 0.46666667 0
0.23333333 0.46666667 0
0.26666667 0.46666667 0
0.3 0.46666667 0
0.33333333 0.46666667 0
0.36666667 0.46666667 0
0.4 0.46666667 0
0.43333333 0.46666667 0
0.46666667 0.46666667 0
0.5 0.46666667 0
0.53333333 0.46666667 0
0.56666667 0.46666667 0
0.6 0.46666667 0
0.63333333 0.46666667 0
0.66666667 0.46666667 0
0.7 0.46666667 0
0.73333333 0.46666667 0
0.76666667 0.46666667 0
0.8 0.46666667 0
0.83333333 0.46666667 0
0.86666667 0.46666667 0
0.9 0.46666667 0
0.93333333 0.46666667 0
0.96666667 0.46666667 0
1 0.46666667 0
0 0.5 0
0.033333333 0.5 0
0.066666667 0.5 0
0.1 0.5 0
0.13333333 0.5 0
0.16666667 0.5 0
0.2 0.5 0
0.23333333 0.5 0
0.26666667 0.5 0
0.3 0.5 0
0.33333333 0.5 0
0.36666667 0.5 0
0.4 0.5 0
0.43333333 0.5 0
0.46666667 0.5 0
0.5 0.5 0
0.53333333 0.5 0
0.56666667 0.5 0
0.6 0.5 0
0.63333333 0.5 0
0.66666667 0.5 0
0.7 0.5 0
0.73333333 0.5 0
0.76666667 0.5 0
0.8 0.5 0
0.83333333 0.5 0
0.86666667 0.5 0
0.9 0.5 0
0.93333333 0.5 0
0.96666667 0.5 0
1 0.5 0
0 0.53333333 0
0.033333333 0.53333333 0
0.066666667 0.53333333 0
0.1 0.53333333 0
0.13333333 0.53333333 0
0.16666667 0.53333333 0
0.2 0.53333333 0
0.23333333 0.53333333 0
0.26666667 0.53333333 0
0.3 0.53333333 0
0.33333333 0.53333333 0
0.36666667 0.53333333 0
0.4 0.53333333 0
0.43333333 0.53333333 0
0.46666667 0.53333333 0
0.5 0.53333333 0
0.53333333 0.53333333 0
0.56666667 0.53333333 0
0.6 0.53333333 0
0.63333333 0.53333333 0
0.66666667 0.53333333 0
0.7 0.53333333 0
0.73333333 0.53333333 0
0.76666667 0.53333333 0
0.8 0.53333333 0
[...]
CELL_DATA 1920
Scalars  Label int 1
LOOKUP_TABLE FreeFempp_table
0
0
0
0
0
0
0
0
0
0
0
0
0
0
0
0
0
0
0
0
0
0
0
0
0
0
0
0
0
0
0
0
0
0
0
0
0
0
0
0
0
0
0
0
0
0
0
0
0
0
0
0
0
0
0
0
0
0
0
0
0
0
0
0
0
0
0
0
0
0
0
0
0
0
0
0
0
0
0
0
0
0
0
0
0
0
0
0
0
0
0
0
0
0
0
0
0
0
0
0
0
0
0
0
0
0
0
0
0
0
0
0
0
0
0
0
0
0
0
0
0
0
0
0
0
0
0
0
0
0
0
0
0
0
0
0
0
0
0
0
0
0
0
0
0
0
0
0
0
0
0
0
0
0
0
0
0
0
0
0
0
0
0
0
0
0
0
0
0
0
0
0
0
0
0
0
0
0
0
0
0
0
0
0
0
0
0
0
0
0
0
0
0
0
0
0
0
0
0
0
0
0
0
0
0
0
0
0
0
0
0
0
0
0
0
0
0
0
0
0
0
0
0
0
0
0
0
0
0
0
0
0
0
0
0
0
0
0
0
0
0
0
0
0
0
0
0
0
0
0
0
0
0
0
0
0
0
0
0
0
0
0
0
0
0
0
0
0
0
0
0
0
0
0
0
0
0
0
0
0
0
0
0
0
0
0
0
0
0
0
0
0
0
0
0
0
0
0
0
0
0
0
0
0
0
0
0
0
0
0
0
0
0
0
0
0
0
0
0
0
0
0
0
0
0
0
0
0
0
0
0
0
0
0
0
0
0
0
0
0
0
0
0
0
0
0
0
0
0
0
0
0
0
0
0
0
0
0
0
0
0
0
0
0
0
0
0
0
0
0
0
0
0
0
0
0
0
0
0
0
0
0
0
0
0
0
0
0
0
0
0
0
0
0
0
0
0
0
0
0
0
0
0
0
0
0
0
0
0
0
0
0
0
0
0
0
0
0
0
0
0
0
0
0
0
0
0
0
0
0
0
0
0
0
0
0
0
0
0
0
0
0
0
0
0
0
0
0
0
0
0
0
0
0
0
0
0
0
0
0
0
0
0
0
0
0
0
0
0
0
0
0
0
0
0
0
0
0
0
0
0
0
0
0
0
0
0
0
0
0
0
0
0
0
0
0
0
0
0
0
0
0
0
0
0
0
0
0
0
0
0
0
0
0
0
0
0
0
0
0
0
0
0
0
0
0
0
0
0
0
0
0
0
0
0
0
0
0
0
0
0
0
0
0
0
0
0
0
0
0
0
0
0
0
0
0
0
0
0
0
0
0
0
0
0
0
0
0
0
0
0
0
0
0
0
0
0
0
0
0
0
0
0
0
0
0
0
0
0
0
0
0
0
0
0
0
0
0
0
0
0
0
0
0
0
0
0
0
0
0
0
0
0
0
0
0
0
0
0
0
0
0
0
0
0
0
0
0
0
0
0
0
0
0
0
0
0
0
0
0
0
0
0
0
0
0
0
0
0
0
0
0
0
0
0
0
0
0
0
0
0
0
0
0
0
0
0
0
0
0
0
0
0
0
0
0
0
0
0
0
0
0
0
0
0
0
0
0
0
0
0
0
0
0
0
0
0
0
0
0
0
0
0
0
0
0
0
0
0
0
0
0
0
0
0
0
0
0
0
0
0
0
0
0
0
0
0
0
0
0
0
0
0
0
0
0
0
0
0
0
0
0
0
0
0
0
0
0
0
0
0
0
0
0
0
0
0
0
0
0
0
0
0
0
0
0
0
0
0
0
0
0
0
0
0
0
0
0
0
0
0
0
0
0
0
0
0
0
0
0
0
0
0
0
0
0
0
0
0
0
0
0
0
0
0
0
0
0
0
0
0
0
0
0
0
0
0
0
0
0
0
0
0
0
0
0
0
0
0
0
0
0
0
0
0
0
0
0
0
0
0
0
0
0
0
0
0
0
0
0
0
0
0
0
0
0
0
0
0
0
0
0
0
0
0
0
0
0
0
0
0
0
0
0
0
0
0
0
0
0
0
0
0
0
0
0
0
0
0
0
0
0
0
0
0
0
0
0
0
0
0
0
0
0
0
0
0
0
0
0
0
0
0
0
0
0
0
0
0
0
0
0
0
0
0
0
0
0
0
0
0
0
0
0
0
0
0
0
0
0
0
0
0
0
0
0
0
0
0
0
0
0
0
0
0
0
0
0
0
0
0
0
0
0
0
0
0
0
0
0
0
0
0
0
0
0
0
0
0
0
0
0
0
0
0
0
0
0
0
0
0
0
0
0
0
0
0
0
0
0
0
0
0
0
0
0
0
0
0
0
0
0
0
0
0
0
0
0
0
0
0
0
0
0
0
0
0
0
0
0
0
0
0
0
0
0
0
0
0
0
0
0
0
0
0
0
0
0
0
0
0
0
0
0
0
0
0
0
0
0
0
0
0
0
0
0
0
0
0
0
0
0
0
0
0
0
0
0
0
0
0
0
0
0
0
0
0
0
0
0
0
0
0
0
0
0
0
0
0
0
0
0
0
0
0
0
0
0
0
0
0
0
0
0
0
0
0
0
0
0
0
0
0
0
0
0
0
0
0
0
0
0
0
0
0
0
0
0
0
0
0
0
0
0
0
0
0
0
0
0
0
0
0
0
0
0
0
0
0
0
0
0
0
0
0
0
0
0
0
0
0
0
0
0
0
0
0
0
0
0
0
0
0
0
0
0
0
0
0
0
0
0
0
0
0
0
0
0
0
0
0
0
0
0
0
0
0
0
0
0
0
0
0
0
0
0
0
0
0
0
0
0
0
0
0
0
0
0
0
0
0
0
0
0
0
0
0
0
0
0
0
0
0
0
0
0
0
0
0
0
0
0
0
0
0
0
0
0
0
0
0
0
0
0
0
0
0
0
0
0
0
0
0
0
0
0
0
0
0
0
0
0
0
0
0
0
0
0
0
0
0
0
0
0
0
0
0
0
0
0
0
0
0
0
0
0
0
0
0
0
0
0
0
0
0
0
0
0
0
0
0
0
0
0
0
0
0
0
0
0
0
0
0
0
0
0
0
0
0
0
0
0
0
0
0
0
0
0
0
0
0
0
0
0
0
0
0
0
0
0
0
0
0
0
0
0
0
0
0
0
0
0
0
0
0
0
0
0
0
0
0
0
0
0
0
0
0
0
0
0
0
0
0
0
0
0
0
0
0
0
0
0
0
0
0
0
0
0
0
0
0
0
0
0
0
0
0
0
0
0
0
0
0
0
0
0
0
0
0
0
0
0
0
0
0
0
0
0
0
0
0
0
0
0
0
0
0
0
0
0
0
0
0
0
0
0
0
0
0
0
0
0
0
0
0
0
0
0
0
0
0
0
0
0
0
0
0
0
0
0
0
0
0
0
0
0
0
0
0
0
0
0
0
0
0
0
0
0
0
0
0
0
0
0
0
0
0
0
0
0
0
0
0
0
0
0
0
0
0
0
0
0
0
0
0
0
0
0
0
0
0
0
0
0
0
0
0
0
0
0
0
0
0
0
0
0
0
0
0
0
0
0
0
0
0
0
0
0
0
0
0
0
0
0
0
0
0
0
0
0
0
0
0
0
0
0
0
0
0
0
0
0
0
0
0
0
0
0
0
0
0
0
0
0
0
0
0
0
0
0
0
0
0
0
0
0
0
0
0
0
0
0
0
0
0
0
0
0
0
0
0
0
0
0
0
0
0
0
0
0
0
0
0
0
0
0
0
0
0
0
0
0
0
0
0
0
0
0
0
0
0
0
0
0
0
0
0
0
0
0
0
0
0
0
0
0
0
0
0
0
0
0
0
0
0
0
0
0
0
0
0
0
0
0
0
0
0
0
0
0
0
0
0
0
0
0
0
0
0
0
0
0
0
0
0
0
0
0
0
0
0
0
0
0
0
0
0
0
0
0
0
0
0
0
0
0
0
0
0
0
0
0
0
0
0
0
0
0
0
0
0
0
0
0
0
0
0
0
0
0
0
0
0
0
0
0
0
0
0
0
0
0
0
0
0
0
0
0
0
0
0
0
0
0
0
0
0
0
0
0
0
0
0
0
0
0
0
0
0
0
0
0
0
0
0
0
0
0
0
0
1
1
1
1
1
1
1
1
1
1
1
1
1
1
1
1
1
1
1
1
1
1
1
1
1
1
1
1
1
1
2
2
2
2
2
2
2
2
2
2
2
2
2
2
2
2
2
2
2
2
2
2
2
2
2
2
2
2
2
2
3
3
3
3
3
3
3
3
3
3
3
3
3
3
3
3
3
3
3
3
3
3
3
3
3
3
3
3
3
3
4
4
4
4
4
4
4
4
4
4
4
4
4
4
4
4
4
4
4
4
4
4
4
4
4
4
4
4
4
4

LOOKUP_TABLE FreeFempp_table 5
1.00000000 0.00000000 0.00000000 1.00000000
1.00000000 1.00000000 0.00000000 1.00000000
1.00000000 0.00000000 1.00000000 1.00000000
0.00000000 1.00000000 0.00000000 1.00000000
0.00000000 1.00000000 1.00000000 1.00000000

POINT_DATA 961
FIELD FieldData 1
Density 1 961 float
9.58249807e-01 9.20789540e-01 9.18496311e-01 8.91063452e-01 8.53905797e-01 8.51930141e-01 8.45383644e-01 8.05317640e-01 7.31788158e-01 6.24875009e-01 3.86948258e-01 1.15197688e-01 3.70785221e-02 3.97020094e-02 1.88943334e-02 8.12022761e-03 8.77389032e-03 2.04339754e-02 1.22781105e-01 5.04658997e-01 7.92626560e-01 8.94662738e-01 9.34576213e-01 9.56059158e-01 9.70667660e-01 9.80733752e-01 9.87077057e-01 9.90683854e-01 9.92481589e-01 9.93203998e-01 9.89303529e-01 8.42618585e-01 4.49157327e-01 5.05168796e-01 2.59209603e-01 2.11177245e-01 2.22576916e-01 2.69946843e-01 2.21345276e-01 1.42647684e-01 8.48962516e-02 3.71524505e-02 1.44327199e-02 8.79306626e-03 6.39250642e-03 4.48135380e-03 3.27177299e-03 3.30089428e-03 5.73355518e-03 1.43368272e-02 4.86237146e-02 1.72980607e-01 4.39955950e-01 6.91770494e-01 8.42888713e-01 9.24537718e-01 9.62978780e-01 9.81673598e-01 9.90407825e-01 9.92675066e-01 9.93061364e-01 9.93228197e-01 1.10959205e-04 1.11950314e-04 1.13705319e-04 1.21926700e-04 1.55155547e-04 4.70423780e-04 8.53734314e-02 2.64083892e-01 1.80807859e-01 9.22673121e-02 2.64072269e-02 7.60651892e-03 4.61743679e-03 3.38209630e-03 2.40237499e-03 1.95310323e-03 2.70244316e-03 5.10427402e-03 1.31461918e-02 4.78227474e-02 1.61666006e-01 3.83123815e-01 6.02618098e-01 7.67552435e-01 8.87764156e-01 9.51855838e-01 9.77742851e-01 9.89217877e-01 9.92368042e-01 9.92966712e-01 9.92893040e-01 1.18713528e-04 1.11351706e-04 1.10370071e-04 1.12131253e-04 1.12823589e-04 1.10963621e-04 1.09242392e-04 1.07976273e-04 1.10704379e-04 1.11689471e-04 1.12534755e-04 1.13855516e-04 1.12318994e-04 1.18140459e-04 1.35917886e-04 2.43727467e-04 1.39444985e-03 4.81501874e-03 1.48939732e-02 4.81716059e-02 1.42852798e-01 3.15190434e-01 4.88177776e-01 6.43042088e-01 8.11002970e-01 9.29365754e-01 9.71372843e-01 9.86971259e-01 9.91757095e-01 9.92756903e-01 9.92395878e-01 9.78916407e-01 9.20085847e-01 8.54660392e-01 2.12477084e-04 1.34370537e-04 1.15854542e-04 1.10771362e-04 1.08168890e-04 1.09118191e-04 1.11477682e-04 1.11857073e-04 1.13436356e-04 1.11636065e-04 1.10953726e-04 1.12470581e-04 1.11898618e-04 1.14068294e-04 1.87093520e-03 1.93563495e-02 4.83358093e-02 1.18595541e-01 2.44707271e-01 3.65546137e-01 4.76483852e-01 6.70411229e-01 8.84675145e-01 9.63078082e-01 9.84039128e-01 9.90887523e-01 9.92428422e-01 9.91830647e-01 9.94088888e-01 9.93730843e-01 9.92412508e-01 9.90478158e-01 9.83341634e-01 9.52669442e-01 9.01980460e-01 8.16429436e-01 7.06022620e-01 5.45814812e-01 3.21499974e-01 1.04461387e-01 3.61473695e-03 6.55241602e-04 1.46046630e-04 1.17287971e-04 1.09435125e-04 1.08701424e-04 8.26109387e-03 5.75632416e-02 1.11267149e-01 2.02200204e-01 2.67484844e-01 3.10977340e-01 4.74089593e-01 8.01179349e-01 9.52424467e-01 9.81005609e-01 9.89855945e-01 9.92003620e-01 9.91234720e-01 9.95932519e-01 9.96719956e-01 9.96244192e-01 9.95821774e-01 9.95217502e-01 9.94233668e-01 9.92815971e-01 9.89718795e-01 9.81529117e-01 9.67758060e-01 9.46633518e-01 8.98522794e-01 7.83107936e-01 4.89854544e-01 1.90231457e-01 5.83144948e-02 5.86964830e-04 1.08922854e-04 1.09071130e-04 2.82747429e-02 1.18997268e-01 1.80578634e-01 1.88613102e-01 1.79820478e-01 2.82484174e-01 6.70479774e-01 9.39497948e-01 9.78779733e-01 9.88948345e-01 9.91596460e-01 9.90694046e-01 9.95893061e-01 8.30296814e-01 9.92567658e-01 9.95448709e-01 9.95985150e-01 9.96187389e-01 9.96101677e-01 9.95705962e-01 9.95274484e-01 9.94624496e-01 9.92256761e-01 9.83596802e-01 9.65854764e-01 9.14020777e-01 7.31506109e-01 4.36036438e-01 1.79810554e-01 5.30784600e-04 1.10399109e-04 1.14220929e-04 5.01426905e-02 1.55870736e-01 1.07478581e-01 7.91948661e-02 1.36752024e-01 5.06054401e-01 9.25818503e-01 9.78085518e-01 9.88571763e-01 9.91388202e-01 9.90315497e-01 9.94452775e-01 9.95580971e-01 9.94509459e-01 9.93589520e-01 9.94242430e-01 9.95151341e-01 9.95771110e-01 9.95997310e-01 9.96222138e-01 9.96310294e-01 9.96038556e-01 9.95525360e-01 9.93435860e-01 9.83909309e-01 9.55332696e-01 8.27279568e-01 4.86195207e-01 9.30101797e-02 1.42308869e-04 1.14790288e-04 1.46359249e-04 5.41338213e-02 5.71535192e-02 3.11826281e-02 5.08282781e-02 3.07623237e-01 9.10673559e-01 9.79117751e-01 9.89003122e-01 9.91522849e-01 9.90196049e-01 9.90358114e-01 9.90714312e-01 9.69342589e-01 8.02243471e-01 9.28648889e-01 9.79372978e-01 9.89715993e-01 9.94115770e-01 9.95565653e-01 9.94321764e-01 9.95552540e-01 9.96369243e-01 9.96176958e-01 9.95552003e-01 9.91961181e-01 9.73570049e-01 8.87280405e-01 4.64210659e-01 1.15302752e-03 1.17911528e-04 1.16354488e-04 6.21547224e-04 1.55961243e-02 1.32023972e-02 1.72876455e-02 1.10807866e-01 8.88781726e-01 9.81220484e-01 9.90160406e-01 9.91976500e-01 9.90388274e-01 9.87663686e-01 9.79799211e-01 3.66512567e-01 1.15643479e-01 1.62366524e-01 1.67909756e-01 3.94920588e-01 9.64824617e-01 9.92829442e-01 9.95603621e-01 9.95236337e-01 9.90977705e-01 9.94293511e-01 9.96328652e-01 9.96041715e-01 9.94691372e-01 9.83448029e-01 9.12292302e-01 3.00511569e-02 2.13485575e-04 1.19222961e-04 1.32227171e-04 9.12798394e-04 4.69710911e-03 7.42687611e-03 2.27722619e-02 7.92547047e-01 9.83579278e-01 9.91561174e-01 9.92559910e-01 9.90889609e-01 9.88257289e-01 9.74703610e-01 8.09645653e-02 1.27180042e-02 1.48547962e-02 2.09448785e-02 4.93265949e-02 7.12431192e-01 9.78750646e-01 9.93235171e-01 9.95698869e-01 9.96327877e-01 9.82093930e-01 8.69472027e-01 9.89688039e-01 9.96270120e-01 9.95470941e-01 9.89779413e-01 8.75274539e-01 1.40127586e-03 1.43020239e-04 1.28109154e-04 1.82887772e-04 9.56339296e-04 2.81248079e-03 6.97425473e-03 2.01730788e-01 9.85452533e-01 9.92688537e-01 9.93044734e-01 9.91664588e-01 9.89189029e-01 9.76725996e-01 2.68842857e-02 3.67829646e-03 3.37487552e-03 5.78925572e-03 1.66649334e-02 7.48431742e-01 9.60772991e-01 9.85523880e-01 9.93645430e-01 9.95665550e-01 9.96549129e-01 9.86687005e-01 6.97860181e-01 9.11374807e-01 9.71818984e-01 9.96233821e-01 9.93562400e-01 8.61957204e-03 4.22838842e-04 1.34886126e-04 1.38415795e-04 2.78615975e-04 9.23314074e-04 2.81168730e-03 1.40603287e-02 9.80469704e-01 9.93172586e-01 9.93281126e-01 9.92612839e-01 9.90237832e-01 9.79165375e-01 1.43607222e-02 2.98837502e-03 2.38989620e-03 3.74417845e-03 1.59794260e-02 7.87340701e-01 9.56603587e-01 9.74805772e-01 9.86480236e-01 9.91209328e-01 9.94013608e-01 9.96021688e-01 9.96802390e-01 5.72039962e-01 9.86421525e-01 9.86398399e-01 9.88807559e-01 9.92031097e-01 1.46361301e-03 2.02562616e-04 1.45633268e-04 1.80532559e-04 3.67942412e-04 9.71434114e-04 4.67333384e-03 8.40126216e-01 9.93321955e-01 9.93406534e-01 9.93548989e-01 9.91148591e-01 9.83595610e-01 1.43923936e-02 1.95215514e-03 1.34177238e-03 2.91154743e-03 2.97869276e-02 9.14443076e-01 9.65617001e-01 9.67760265e-01 9.68461156e-01 9.56907570e-01 9.51573074e-01 9.79288578e-01 9.94863272e-01 9.97390032e-01 9.89560843e-01 9.88599122e-01 9.90581751e-01 9.93604720e-01 3.07763759e-02 6.11550815e-04 1.89685015e-04 1.82139265e-04 2.63291528e-04 5.22409449e-04 1.80298858e-03 2.16665193e-02 9.94035542e-01 9.94136453e-01 9.94344354e-01 9.91724133e-01 9.86965418e-01 2.07931679e-02 1.28797314e-03 7.25296908e-04 1.99129921e-03 9.07169953e-02 9.60646629e-01 9.62050438e-01 9.50188220e-01 8.82323027e-01 5.64700246e-01 2.82640487e-01 4.47817415e-01 8.74021351e-01 9.89151657e-01 9.97681856e-01 9.97866273e-01 9.90821123e-01 9.94998157e-01 9.96989727e-01 5.37534757e-03 4.21659410e-04 2.23982745e-04 2.46863259e-04 3.80052312e-04 9.96718765e-04 9.07860603e-03 9.94461715e-01 9.10492241e-01 9.95160818e-01 9.91966426e-01 9.88746703e-01 3.55556346e-02 1.05845206e-03 4.72795771e-04 1.25130522e-03 3.72022986e-01 9.24911082e-01 9.35567915e-01 9.40848231e-01 4.98597682e-01 3.65239941e-02 8.10525194e-03 1.02909040e-02 4.37536575e-02 5.28360844e-01 9.82452571e-01 9.97905731e-01 9.98374283e-01 9.93267775e-01 9.96844530e-01 9.96796370e-01 2.46925559e-03 3.89870955e-04 2.66727642e-04 3.08260875e-04 6.09884388e-04 3.75479320e-03 9.94950354e-01 9.82274473e-01 9.96059120e-01 9.91897762e-01 9.89427269e-01 7.52142444e-02 1.15005870e-03 4.06184758e-04 7.75108812e-04 7.23320767e-02 6.02059603e-01 9.72468913e-01 9.45017397e-01 8.34956616e-02 4.38201427e-03 4.31119511e-03 4.08144901e-03 4.94803954e-03 1.62603855e-02 3.37681651e-01 9.83709395e-01 9.98297811e-01 9.89127100e-01 9.94701982e-01 9.96860862e-01 9.99163449e-01 1.90390763e-03 3.82820581e-04 2.72213598e-04 3.88893561e-04 2.04668706e-03 9.02425826e-01 9.87587273e-01 9.96633589e-01 9.91512120e-01 9.89304245e-01 1.56752869e-01 1.54135504e-03 4.53109416e-04 5.47208823e-04 7.03879632e-03 4.85690504e-01 9.92323875e-01 8.31248581e-01 9.62814596e-03 3.55800497e-03 3.72973108e-03 2.88549019e-03 2.45488784e-03 3.37116467e-03 1.48937674e-02 4.66631621e-01 9.90583897e-01 9.98529792e-01 9.93339479e-01 9.94666457e-01 9.96678054e-01 9.99085665e-01 1.73168688e-03 3.23544809e-04 2.57420354e-04 8.66573828e-04 8.77312541e-01 9.91262853e-01 9.97157991e-01 9.90707815e-01 9.88351166e-01 2.80908018e-01 2.25167233e-03 6.51587208e-04 5.27296041e-04 1.55880069e-03 4.24263626e-02 9.74208236e-01 9.45175946e-01 1.01806847e-02 3.04069114e-03 2.60695117e-03 1.90473162e-03 1.35016092e-03 1.16125518e-03 2.43517826e-03 2.87540033e-02 8.11850548e-01 9.94857609e-01 9.98353541e-01 9.93094981e-01 9.95270789e-01 9.97265518e-01 9.99296963e-01 1.38542184e-03 2.79231666e-04 3.83047038e-04 2.43649259e-02 9.93428648e-01 9.97637451e-01 9.89412785e-01 9.86532331e-01 4.38348532e-01 3.56386579e-03 9.80242388e-04 6.63544051e-04 9.37800272e-04 5.59023209e-03 9.09629941e-01 9.86584246e-01 1.72344610e-01 3.15843476e-03 1.82897469e-03 1.15509843e-03 7.26927130e-04 4.73409251e-04 5.09071629e-04 2.37183110e-03 1.68239281e-01 9.58199441e-01 9.96715546e-01 9.95519996e-01 9.94263470e-01 9.96529758e-01 9.98196542e-01 9.99087453e-01 1.22803706e-03 3.99373705e-04 2.16097920e-03 9.93696392e-01 9.98079062e-01 9.87477243e-01 9.83692765e-01 5.84061205e-01 6.43006386e-03 1.51438324e-03 9.16394172e-04 8.36159335e-04 1.71969226e-03 7.67700896e-02 9.93267655e-01 8.59786570e-01 5.08131506e-03 1.48007611e-03 7.09858781e-04 4.23069810e-04 2.56726635e-04 1.98832277e-04 3.02141649e-04 2.94937682e-03 6.28151834e-01 9.79751885e-01 9.97183383e-01 9.92344379e-01 9.95765567e-01 9.97925758e-01 9.99225795e-01 9.90942359e-01 7.90663471e-04 6.70914538e-04 9.90178287e-01 9.97932196e-01 9.84648526e-01 9.79768038e-01 7.01297522e-01 1.14718815e-02 2.48413929e-03 1.37333060e-03 1.10499596e-03 1.14857499e-03 3.09099467e-03 9.63426411e-01 9.88369763e-01 6.38236046e-01 2.32427125e-03 6.14907651e-04 3.58110090e-04 2.24256844e-04 1.52829947e-04 1.39713840e-04 1.80392803e-04 2.78958306e-03 4.92722392e-01 9.77985263e-01 9.97398198e-01 9.93170857e-01 9.97072399e-01 9.99065995e-01 9.99486268e-01 9.99216199e-01 4.91712359e-04 9.39470768e-01 9.98367250e-01 9.80356216e-01 9.74630296e-01 7.84712017e-01 1.91958416e-02 4.67988336e-03 2.13673129e-03 1.55125849e-03 1.40404375e-03 1.96809787e-03 1.23780854e-02 9.92072463e-01 9.91105199e-01 4.08433497e-01 1.76002714e-03 5.29471552e-04 3.46340152e-04 1.90296007e-04 1.32083806e-04 1.26696686e-04 1.35161521e-04 2.31937403e-04 1.10111374e-03 9.79958624e-02 9.86357212e-01 9.98564243e-01 9.98442590e-01 9.99504507e-01 9.99784291e-01 9.99667346e-01 9.99559045e-01 9.99443829e-01 9.74236727e-01 9.67598677e-01 8.66525173e-01 2.97080223e-02 8.25995207e-03 4.01611906e-03 2.18229811e-03 1.66202371e-03 1.65503577e-03 3.36884870e-03 8.70735824e-01 9.90177512e-01 9.94146287e-01 2.41826504e-01 2.00419105e-03 8.34490405e-04 5.04336145e-04 2.29915764e-04 1.37464202e-04 1.20939214e-04 1.17337906e-04 1.17508156e-04 1.18897158e-04 1.21769372e-04 1.30720626e-04 1.43471349e-04 9.67412770e-01 9.98730838e-01 9.99641895e-01 9.99665201e-01 9.99362826e-01 9.68571424e-01 9.54483390e-01 9.22594249e-01 3.40762921e-02 1.33690061e-02 8.43037013e-03 4.16185800e-03 2.11040210e-03 1.79075263e-03 2.31211120e-03 1.25396401e-02 8.87662888e-01 9.90104854e-01 9.92166579e-01 1.50151197e-02 2.38553272e-03 1.31801795e-03 7.34998146e-04 3.89989436e-04 1.80303323e-04 1.29589491e-04 1.19069526e-04 1.15992567e-04 1.14887953e-04 1.15956253e-04 1.09261789e-04 1.14312148e-04 1.13366907e-04 1.41805576e-04 9.98606384e-01 9.98201668e-01 9.66087997e-01 9.37844694e-01 9.34695661e-01 6.67938292e-02 2.37594955e-02 1.99947543e-02 1.31763816e-02 3.87074216e-03 2.24016514e-03 2.16229097e-03 3.38664139e-03 1.09352075e-01 9.20407236e-01 9.95289922e-01 6.47036433e-01 3.74996359e-03 2.20662053e-03 1.77101977e-03 1.50370528e-03 1.31742063e-03 6.12694712e-04 3.16151360e-04 1.95716537e-04 1.55409361e-04 1.41356752e-04 1.26999963e-04 1.11501911e-04 1.09490342e-04 1.12459296e-04 1.11400659e-04 1.77950293e-04 9.67487872e-01 9.28886652e-01 9.12335396e-01 2.84266502e-01 6.30334243e-02 8.30152482e-02 9.02148336e-02 2.37508267e-02 4.25562076e-03 3.00912303e-03 2.29939865e-03 6.53874082e-03 5.29310703e-01 9.86140430e-01 9.80794787e-01 6.55524759e-03 2.93120556e-03 4.04935982e-03 1.10226255e-02 2.98429746e-02 1.10335194e-01 4.12719995e-01 6.97546661e-01 9.16600227e-01 9.88869667e-01 9.91658449e-01 7.50066519e-01 6.55354142e-01 1.49764222e-04 1.21110839e-04 1.22073208e-04 9.85602617e-01 9.67240870e-01 9.59610999e-01 8.44242752e-01 4.22073007e-01 5.46098292e-01 7.22576737e-01 3.98907691e-01 5.60457855e-02 8.24463181e-03 2.68322811e-03 2.34981463e-03 3.23425561e-01 9.52316880e-01 9.65855658e-01 4.03610356e-02 5.16352570e-03 1.57268774e-02 2.50961363e-01 1.25036538e-01 1.13656064e-02 8.35456979e-03 1.00887008e-02 1.83471404e-02 1.50837854e-01 3.73612463e-01 4.62159608e-03 2.38270476e-03 9.99930024e-01 1.24895974e-04 1.33848647e-04 9.95886564e-01 9.95722890e-01 9.95228291e-01 9.92948115e-01 9.85811055e-01 9.90948260e-01 9.92812634e-01 9.94792879e-01 9.95067954e-01 9.94680226e-01 9.93261218e-01 1.09746708e-02 8.35458636e-01 9.82624948e-01 9.95386541e-01 9.85432565e-01 3.99327278e-01 2.33262748e-01 1.79290593e-01 1.98267791e-02 5.50956326e-03 1.80459756e-03 3.97039251e-03 1.05628027e-02 3.25091705e-02 3.20827961e-01 5.79346810e-03 6.93126756e-04 3.79430188e-04 1.39484301e-01 9.95170474e-01 9.95227337e-01 9.96364355e-01 9.95830059e-01 9.94194031e-01 9.92131352e-01 9.89546180e-01 9.88352239e-01 9.90443707e-01 9.94608998e-01 9.95445609e-01 9.95532870e-01 9.97196078e-01 9.98232305e-01 9.98642325e-01 9.98326182e-01 9.97303307e-01 9.95966494e-01 9.72429037e-01 7.21104145e-01 1.72139168e-01 2.24409848e-02 2.76584853e-03 2.63801753e-03 1.67146493e-02 3.67861599e-01 8.25180113e-01 9.02972996e-01 6.82148561e-02 5.22671209e-04 9.22441948e-04 8.05732965e-01 
