# vtk DataFile Version 2.0
results_case1_non_linear/iter3.vtk, Created by Freefem++ 
ASCII
DATASET UNSTRUCTURED_GRID
POINTS 961 float
0 0 0
0.033333333 0 0
0.066666667 0 0
0.1 0 0
0.13333333 0 0
0.16666667 0 0
0.2 0 0
0.23333333 0 0
0.26666667 0 0
0.3 0 0
0.33333333 0 0
0.36666667 0 0
0.4 0 0
0.43333333 0 0
0.46666667 0 0
0.5 0 0
0.53333333 0 0
0.56666667 0 0
0.6 0 0
0.63333333 0 0
0.66666667 0 0
0.7 0 0
0.73333333 0 0
0.76666667 0 0
0.8 0 0
0.83333333 0 0
0.86666667 0 0
0.9 0 0
0.93333333 0 0
0.96666667 0 0
1 0 0
0 0.033333333 0
0.033333333 0.033333333 0
0.066666667 0.033333333 0
0.1 0.033333333 0
0.13333333 0.033333333 0
0.16666667 0.033333333 0
0.2 0.033333333 0
0.23333333 0.033333333 0
0.26666667 0.033333333 0
0.3 0.033333333 0
0.33333333 0.033333333 0
0.36666667 0.033333333 0
0.4 0.033333333 0
0.43333333 0.033333333 0
0.46666667 0.033333333 0
0.5 0.033333333 0
0.53333333 0.033333333 0
0.56666667 0.033333333 0
0.6 0.033333333 0
0.63333333 0.033333333 0
0.66666667 0.033333333 0
0.7 0.033333333 0
0.73333333 0.033333333 0
0.76666667 0.033333333 0
0.8 0.033333333 0
0.83333333 0.033333333 0
0.86666667 0.033333333 0
0.9 0.033333333 0
0.93333333 0.033333333 0
0.96666667 0.033333333 0
1 0.033333333 0
0 0.066666667 0
0.033333333 0.066666667 0
0.066666667 0.066666667 0
0.1 0.066666667 0
0.13333333 0.066666667 0
0.16666667 0.066666667 0
0.2 0.066666667 0
0.23333333 0.066666667 0
0.26666667 0.066666667 0
0.3 0.066666667 0
0.33333333 0.066666667 0
0.36666667 0.066666667 0
0.4 0.066666667 0
0.43333333 0.066666667 0
0.46666667 0.066666667 0
0.5 0.066666667 0
0.53333333 0.066666667 0
0.56666667 0.066666667 0
0.6 0.066666667 0
0.63333333 0.066666667 0
0.66666667 0.066666667 0
0.7 0.066666667 0
0.73333333 0.066666667 0
0.76666667 0.066666667 0
0.8 0.066666667 0
0.83333333 0.066666667 0
0.86666667 0.066666667 0
0.9 0.066666667 0
0.93333333 0.066666667 0
0.96666667 0.066666667 0
1 0.066666667 0
0 0.1 0
0.033333333 0.1 0
0.066666667 0.1 0
0.1 0.1 0
0.13333333 0.1 0
0.16666667 0.1 0
0.2 0.1 0
0.23333333 0.1 0
0.26666667 0.1 0
0.3 0.1 0
0.33333333 0.1 0
0.36666667 0.1 0
0.4 0.1 0
0.43333333 0.1 0
0.46666667 0.1 0
0.5 0.1 0
0.53333333 0.1 0
0.56666667 0.1 0
0.6 0.1 0
0.63333333 0.1 0
0.66666667 0.1 0
0.7 0.1 0
0.73333333 0.1 0
0.76666667 0.1 0
0.8 0.1 0
0.83333333 0.1 0
0.86666667 0.1 0
0.9 0.1 0
0.93333333 0.1 0
0.96666667 0.1 0
1 0.1 0
0 0.13333333 0
0.033333333 0.13333333 0
0.066666667 0.13333333 0
0.1 0.13333333 0
0.13333333 0.13333333 0
0.16666667 0.13333333 0
0.2 0.13333333 0
0.23333333 0.13333333 0
0.26666667 0.13333333 0
0.3 0.13333333 0
0.33333333 0.13333333 0
0.36666667 0.13333333 0
0.4 0.13333333 0
0.43333333 0.13333333 0
0.46666667 0.13333333 0
0.5 0.13333333 0
0.53333333 0.13333333 0
0.56666667 0.13333333 0
0.6 0.13333333 0
0.63333333 0.13333333 0
0.66666667 0.13333333 0
0.7 0.13333333 0
0.73333333 0.13333333 0
0.76666667 0.13333333 0
0.8 0.13333333 0
0.83333333 0.13333333 0
0.86666667 0.13333333 0
0.9 0.13333333 0
0.93333333 0.13333333 0
0.96666667 0.13333333 0
1 0.13333333 0
0 0.16666667 0
0.033333333 0.16666667 0
0.066666667 0.16666667 0
0.1 0.16666667 0
0.13333333 0.16666667 0
0.16666667 0.16666667 0
0.2 0.16666667 0
0.23333333 0.16666667 0
0.26666667 0.16666667 0
0.3 0.16666667 0
0.33333333 0.16666667 0
0.36666667 0.16666667 0
0.4 0.16666667 0
0.43333333 0.16666667 0
0.46666667 0.16666667 0
0.5 0.16666667 0
0.53333333 0.16666667 0
0.56666667 0.16666667 0
0.6 0.16666667 0
0.63333333 0.16666667 0
0.66666667 0.16666667 0
0.7 0.16666667 0
0.73333333 0.16666667 0
0.76666667 0.16666667 0
0.8 0.16666667 0
0.83333333 0.16666667 0
0.86666667 0.16666667 0
0.9 0.16666667 0
0.93333333 0.16666667 0
0.96666667 0.16666667 0
1 0.16666667 0
0 0.2 0
0.033333333 0.2 0
0.066666667 0.2 0
0.1 0.2 0
0.13333333 0.2 0
0.16666667 0.2 0
0.2 0.2 0
0.23333333 0.2 0
0.26666667 0.2 0
0.3 0.2 0
0.33333333 0.2 0
0.36666667 0.2 0
0.4 0.2 0
0.43333333 0.2 0
0.46666667 0.2 0
0.5 0.2 0
0.53333333 0.2 0
0.56666667 0.2 0
0.6 0.2 0
0.63333333 0.2 0
0.66666667 0.2 0
0.7 0.2 0
0.73333333 0.2 0
0.76666667 0.2 0
0.8 0.2 0
0.83333333 0.2 0
0.86666667 0.2 0
0.9 0.2 0
0.93333333 0.2 0
0.96666667 0.2 0
1 0.2 0
0 0.23333333 0
0.033333333 0.23333333 0
0.066666667 0.23333333 0
0.1 0.23333333 0
0.13333333 0.23333333 0
0.16666667 0.23333333 0
0.2 0.23333333 0
0.23333333 0.23333333 0
0.26666667 0.23333333 0
0.3 0.23333333 0
0.33333333 0.23333333 0
0.36666667 0.23333333 0
0.4 0.23333333 0
0.43333333 0.23333333 0
0.46666667 0.23333333 0
0.5 0.23333333 0
0.53333333 0.23333333 0
0.56666667 0.23333333 0
0.6 0.23333333 0
0.63333333 0.23333333 0
0.66666667 0.23333333 0
0.7 0.23333333 0
0.73333333 0.23333333 0
0.76666667 0.23333333 0
0.8 0.23333333 0
0.83333333 0.23333333 0
0.86666667 0.23333333 0
0.9 0.23333333 0
0.93333333 0.23333333 0
0.96666667 0.23333333 0
1 0.23333333 0
0 0.26666667 0
0.033333333 0.26666667 0
0.066666667 0.26666667 0
0.1 0.26666667 0
0.13333333 0.26666667 0
0.16666667 0.26666667 0
0.2 0.26666667 0
0.23333333 0.26666667 0
0.26666667 0.26666667 0
0.3 0.26666667 0
0.33333333 0.26666667 0
0.36666667 0.26666667 0
0.4 0.26666667 0
0.43333333 0.26666667 0
0.46666667 0.26666667 0
0.5 0.26666667 0
0.53333333 0.26666667 0
0.56666667 0.26666667 0
0.6 0.26666667 0
0.63333333 0.26666667 0
0.66666667 0.26666667 0
0.7 0.26666667 0
0.73333333 0.26666667 0
0.76666667 0.26666667 0
0.8 0.26666667 0
0.83333333 0.26666667 0
0.86666667 0.26666667 0
0.9 0.26666667 0
0.93333333 0.26666667 0
0.96666667 0.26666667 0
1 0.26666667 0
0 0.3 0
0.033333333 0.3 0
0.066666667 0.3 0
0.1 0.3 0
0.13333333 0.3 0
0.16666667 0.3 0
0.2 0.3 0
0.23333333 0.3 0
0.26666667 0.3 0
0.3 0.3 0
0.33333333 0.3 0
0.36666667 0.3 0
0.4 0.3 0
0.43333333 0.3 0
0.46666667 0.3 0
0.5 0.3 0
0.53333333 0.3 0
0.56666667 0.3 0
0.6 0.3 0
0.63333333 0.3 0
0.66666667 0.3 0
0.7 0.3 0
0.73333333 0.3 0
0.76666667 0.3 0
0.8 0.3 0
0.83333333 0.3 0
0.86666667 0.3 0
0.9 0.3 0
0.93333333 0.3 0
0.96666667 0.3 0
1 0.3 0
0 0.33333333 0
0.033333333 0.33333333 0
0.066666667 0.33333333 0
0.1 0.33333333 0
0.13333333 0.33333333 0
0.16666667 0.33333333 0
0.2 0.33333333 0
0.23333333 0.33333333 0
0.26666667 0.33333333 0
0.3 0.33333333 0
0.33333333 0.33333333 0
0.36666667 0.33333333 0
0.4 0.33333333 0
0.43333333 0.33333333 0
0.46666667 0.33333333 0
0.5 0.33333333 0
0.53333333 0.33333333 0
0.56666667 0.33333333 0
0.6 0.33333333 0
0.63333333 0.33333333 0
0.66666667 0.33333333 0
0.7 0.33333333 0
0.73333333 0.33333333 0
0.76666667 0.33333333 0
0.8 0.33333333 0
0.83333333 0.33333333 0
0.86666667 0.33333333 0
0.9 0.33333333 0
0.93333333 0.33333333 0
0.96666667 0.33333333 0
1 0.33333333 0
0 0.36666667 0
0.033333333 0.36666667 0
0.066666667 0.36666667 0
0.1 0.36666667 0
0.13333333 0.36666667 0
0.16666667 0.36666667 0
0.2 0.36666667 0
0.23333333 0.36666667 0
0.26666667 0.36666667 0
0.3 0.36666667 0
0.33333333 0.36666667 0
0.36666667 0.36666667 0
0.4 0.36666667 0
0.43333333 0.36666667 0
0.46666667 0.36666667 0
0.5 0.36666667 0
0.53333333 0.36666667 0
0.56666667 0.36666667 0
0.6 0.36666667 0
0.63333333 0.36666667 0
0.66666667 0.36666667 0
0.7 0.36666667 0
0.73333333 0.36666667 0
0.76666667 0.36666667 0
0.8 0.36666667 0
0.83333333 0.36666667 0
0.86666667 0.36666667 0
0.9 0.36666667 0
0.93333333 0.36666667 0
0.96666667 0.36666667 0
1 0.36666667 0
0 0.4 0
0.033333333 0.4 0
0.066666667 0.4 0
0.1 0.4 0
0.13333333 0.4 0
0.16666667 0.4 0
0.2 0.4 0
0.23333333 0.4 0
0.26666667 0.4 0
0.3 0.4 0
0.33333333 0.4 0
0.36666667 0.4 0
0.4 0.4 0
0.43333333 0.4 0
0.46666667 0.4 0
0.5 0.4 0
0.53333333 0.4 0
0.56666667 0.4 0
0.6 0.4 0
0.63333333 0.4 0
0.66666667 0.4 0
0.7 0.4 0
0.73333333 0.4 0
0.76666667 0.4 0
0.8 0.4 0
0.83333333 0.4 0
0.86666667 0.4 0
0.9 0.4 0
0.93333333 0.4 0
0.96666667 0.4 0
1 0.4 0
0 0.43333333 0
0.033333333 0.43333333 0
0.066666667 0.43333333 0
0.1 0.43333333 0
0.13333333 0.43333333 0
0.16666667 0.43333333 0
0.2 0.43333333 0
0.23333333 0.43333333 0
0.26666667 0.43333333 0
0.3 0.43333333 0
0.33333333 0.43333333 0
0.36666667 0.43333333 0
0.4 0.43333333 0
0.43333333 0.43333333 0
0.46666667 0.43333333 0
0.5 0.43333333 0
0.53333333 0.43333333 0
0.56666667 0.43333333 0
0.6 0.43333333 0
0.63333333 0.43333333 0
0.66666667 0.43333333 0
0.7 0.43333333 0
0.73333333 0.43333333 0
0.76666667 0.43333333 0
0.8 0.43333333 0
0.83333333 0.43333333 0
0.86666667 0.43333333 0
0.9 0.43333333 0
0.93333333 0.43333333 0
0.96666667 0.43333333 0
1 0.43333333 0
0 0.46666667 0
0.033333333 0.46666667 0
0.066666667 0.46666667 0
0.1 0.46666667 0
0.13333333 0.46666667 0
0.16666667 0.46666667 0
0.2 0.46666667 0
0.23333333 0.46666667 0
0.26666667 0.46666667 0
0.3 0.46666667 0
0.33333333 0.46666667 0
0.36666667 0.46666667 0
0.4 0.46666667 0
0.43333333 0.46666667 0
0.46666667 0.46666667 0
0.5 0.46666667 0
0.53333333 0.46666667 0
0.56666667 0.46666667 0
0.6 0.46666667 0
0.63333333 0.46666667 0
0.66666667 0.46666667 0
0.7 0.46666667 0
0.73333333 0.46666667 0
0.76666667 0.46666667 0
0.8 0.46666667 0
0.83333333 0.46666667 0
0.86666667 0.46666667 0
0.9 0.46666667 0
0.93333333 0.46666667 0
0.96666667 0.46666667 0
1 0.46666667 0
0 0.5 0
0.033333333 0.5 0
0.066666667 0.5 0
0.1 0.5 0
0.13333333 0.5 0
0.16666667 0.5 0
0.2 0.5 0
0.23333333 0.5 0
0.26666667 0.5 0
0.3 0.5 0
0.33333333 0.5 0
0.36666667 0.5 0
0.4 0.5 0
0.43333333 0.5 0
0.46666667 0.5 0
0.5 0.5 0
0.53333333 0.5 0
0.56666667 0.5 0
0.6 0.5 0
0.63333333 0.5 0
0.66666667 0.5 0
0.7 0.5 0
0.73333333 0.5 0
0.76666667 0.5 0
0.8 0.5 0
0.83333333 0.5 0
0.86666667 0.5 0
0.9 0.5 0
0.93333333 0.5 0
0.96666667 0.5 0
1 0.5 0
0 0.53333333 0
0.033333333 0.53333333 0
0.066666667 0.53333333 0
0.1 0.53333333 0
0.13333333 0.53333333 0
0.16666667 0.53333333 0
0.2 0.53333333 0
0.23333333 0.53333333 0
0.26666667 0.53333333 0
0.3 0.53333333 0
0.33333333 0.53333333 0
0.36666667 0.53333333 0
0.4 0.53333333 0
0.43333333 0.53333333 0
0.46666667 0.53333333 0
0.5 0.53333333 0
0.53333333 0.53333333 0
0.56666667 0.53333333 0
0.6 0.53333333 0
0.63333333 0.53333333 0
0.66666667 0.53333333 0
0.7 0.53333333 0
0.73333333 0.53333333 0
0.76666667 0.53333333 0
[...]
CELL_DATA 1920
Scalars  Label int 1
LOOKUP_TABLE FreeFempp_table
0
0
0
0
0
0
0
0
0
0
0
0
0
0
0
0
0
0
0
0
0
0
0
0
0
0
0
0
0
0
0
0
0
0
0
0
0
0
0
0
0
0
0
0
0
0
0
0
0
0
0
0
0
0
0
0
0
0
0
0
0
0
0
0
0
0
0
0
0
0
0
0
0
0
0
0
0
0
0
0
0
0
0
0
0
0
0
0
0
0
0
0
0
0
0
0
0
0
0
0
0
0
0
0
0
0
0
0
0
0
0
0
0
0
0
0
0
0
0
0
0
0
0
0
0
0
0
0
0
0
0
0
0
0
0
0
0
0
0
0
0
0
0
0
0
0
0
0
0
0
0
0
0
0
0
0
0
0
0
0
0
0
0
0
0
0
0
0
0
0
0
0
0
0
0
0
0
0
0
0
0
0
0
0
0
0
0
0
0
0
0
0
0
0
0
0
0
0
0
0
0
0
0
0
0
0
0
0
0
0
0
0
0
0
0
0
0
0
0
0
0
0
0
0
0
0
0
0
0
0
0
0
0
0
0
0
0
0
0
0
0
0
0
0
0
0
0
0
0
0
0
0
0
0
0
0
0
0
0
0
0
0
0
0
0
0
0
0
0
0
0
0
0
0
0
0
0
0
0
0
0
0
0
0
0
0
0
0
0
0
0
0
0
0
0
0
0
0
0
0
0
0
0
0
0
0
0
0
0
0
0
0
0
0
0
0
0
0
0
0
0
0
0
0
0
0
0
0
0
0
0
0
0
0
0
0
0
0
0
0
0
0
0
0
0
0
0
0
0
0
0
0
0
0
0
0
0
0
0
0
0
0
0
0
0
0
0
0
0
0
0
0
0
0
0
0
0
0
0
0
0
0
0
0
0
0
0
0
0
0
0
0
0
0
0
0
0
0
0
0
0
0
0
0
0
0
0
0
0
0
0
0
0
0
0
0
0
0
0
0
0
0
0
0
0
0
0
0
0
0
0
0
0
0
0
0
0
0
0
0
0
0
0
0
0
0
0
0
0
0
0
0
0
0
0
0
0
0
0
0
0
0
0
0
0
0
0
0
0
0
0
0
0
0
0
0
0
0
0
0
0
0
0
0
0
0
0
0
0
0
0
0
0
0
0
0
0
0
0
0
0
0
0
0
0
0
0
0
0
0
0
0
0
0
0
0
0
0
0
0
0
0
0
0
0
0
0
0
0
0
0
0
0
0
0
0
0
0
0
0
0
0
0
0
0
0
0
0
0
0
0
0
0
0
0
0
0
0
0
0
0
0
0
0
0
0
0
0
0
0
0
0
0
0
0
0
0
0
0
0
0
0
0
0
0
0
0
0
0
0
0
0
0
0
0
0
0
0
0
0
0
0
0
0
0
0
0
0
0
0
0
0
0
0
0
0
0
0
0
0
0
0
0
0
0
0
0
0
0
0
0
0
0
0
0
0
0
0
0
0
0
0
0
0
0
0
0
0
0
0
0
0
0
0
0
0
0
0
0
0
0
0
0
0
0
0
0
0
0
0
0
0
0
0
0
0
0
0
0
0
0
0
0
0
0
0
0
0
0
0
0
0
0
0
0
0
0
0
0
0
0
0
0
0
0
0
0
0
0
0
0
0
0
0
0
0
0
0
0
0
0
0
0
0
0
0
0
0
0
0
0
0
0
0
0
0
0
0
0
0
0
0
0
0
0
0
0
0
0
0
0
0
0
0
0
0
0
0
0
0
0
0
0
0
0
0
0
0
0
0
0
0
0
0
0
0
0
0
0
0
0
0
0
0
0
0
0
0
0
0
0
0
0
0
0
0
0
0
0
0
0
0
0
0
0
0
0
0
0
0
0
0
0
0
0
0
0
0
0
0
0
0
0
0
0
0
0
0
0
0
0
0
0
0
0
0
0
0
0
0
0
0
0
0
0
0
0
0
0
0
0
0
0
0
0
0
0
0
0
0
0
0
0
0
0
0
0
0
0
0
0
0
0
0
0
0
0
0
0
0
0
0
0
0
0
0
0
0
0
0
0
0
0
0
0
0
0
0
0
0
0
0
0
0
0
0
0
0
0
0
0
0
0
0
0
0
0
0
0
0
0
0
0
0
0
0
0
0
0
0
0
0
0
0
0
0
0
0
0
0
0
0
0
0
0
0
0
0
0
0
0
0
0
0
0
0
0
0
0
0
0
0
0
0
0
0
0
0
0
0
0
0
0
0
0
0
0
0
0
0
0
0
0
0
0
0
0
0
0
0
0
0
0
0
0
0
0
0
0
0
0
0
0
0
0
0
0
0
0
0
0
0
0
0
0
0
0
0
0
0
0
0
0
0
0
0
0
0
0
0
0
0
0
0
0
0
0
0
0
0
0
0
0
0
0
0
0
0
0
0
0
0
0
0
0
0
0
0
0
0
0
0
0
0
0
0
0
0
0
0
0
0
0
0
0
0
0
0
0
0
0
0
0
0
0
0
0
0
0
0
0
0
0
0
0
0
0
0
0
0
0
0
0
0
0
0
0
0
0
0
0
0
0
0
0
0
0
0
0
0
0
0
0
0
0
0
0
0
0
0
0
0
0
0
0
0
0
0
0
0
0
0
0
0
0
0
0
0
0
0
0
0
0
0
0
0
0
0
0
0
0
0
0
0
0
0
0
0
0
0
0
0
0
0
0
0
0
0
0
0
0
0
0
0
0
0
0
0
0
0
0
0
0
0
0
0
0
0
0
0
0
0
0
0
0
0
0
0
0
0
0
0
0
0
0
0
0
0
0
0
0
0
0
0
0
0
0
0
0
0
0
0
0
0
0
0
0
0
0
0
0
0
0
0
0
0
0
0
0
0
0
0
0
0
0
0
0
0
0
0
0
0
0
0
0
0
0
0
0
0
0
0
0
0
0
0
0
0
0
0
0
0
0
0
0
0
0
0
0
0
0
0
0
0
0
0
0
0
0
0
0
0
0
0
0
0
0
0
0
0
0
0
0
0
0
0
0
0
0
0
0
0
0
0
0
0
0
0
0
0
0
0
0
0
0
0
0
0
0
0
0
0
0
0
0
0
0
0
0
0
0
0
0
0
0
0
0
0
0
0
0
0
0
0
0
0
0
0
0
0
0
0
0
0
0
0
0
0
0
0
0
0
0
0
0
0
0
0
0
0
0
0
0
0
0
0
0
0
0
0
0
0
0
0
0
0
0
0
0
0
0
0
0
0
0
0
0
0
0
0
0
0
0
0
0
0
0
0
0
0
0
0
0
0
0
0
0
0
0
0
0
0
0
0
0
0
0
0
0
0
0
0
0
0
0
0
0
0
0
0
0
0
0
0
0
0
0
0
0
0
0
0
0
0
0
0
0
0
0
0
0
0
0
0
0
0
0
0
0
0
0
0
0
0
0
0
0
0
0
0
0
0
0
0
0
0
0
0
0
0
0
0
0
0
0
0
0
0
0
0
0
0
0
0
0
0
0
0
0
0
0
0
0
0
0
0
0
0
0
0
0
0
0
0
0
0
0
0
0
0
0
0
0
0
0
0
0
0
0
0
0
0
0
0
0
0
0
0
0
0
0
0
0
0
0
0
0
0
0
0
0
0
0
0
0
0
0
0
0
0
0
0
0
0
0
0
0
0
0
0
0
0
0
0
0
0
0
0
0
0
0
0
0
0
0
0
0
0
0
0
0
0
0
0
0
0
0
0
0
0
0
0
0
0
0
0
0
0
0
0
0
0
0
0
0
0
0
0
0
0
0
0
0
0
0
0
0
0
0
0
0
0
0
0
0
0
0
0
0
0
0
0
0
0
0
0
0
0
0
0
0
0
0
0
0
0
0
0
0
0
0
0
0
0
0
0
0
0
0
0
0
0
0
0
0
0
0
0
0
0
0
0
0
0
0
0
0
0
0
0
0
0
0
0
0
0
0
0
0
0
0
0
0
0
0
0
0
0
0
0
0
0
0
0
0
0
0
0
0
0
0
0
0
0
0
0
0
0
0
0
0
0
0
0
0
0
0
0
0
0
0
0
0
0
0
0
0
0
0
0
0
0
0
0
0
0
0
0
0
0
0
0
0
0
0
0
0
0
0
0
1
1
1
1
1
1
1
1
1
1
1
1
1
1
1
1
1
1
1
1
1
1
1
1
1
1
1
1
1
1
2
2
2
2
2
2
2
2
2
2
2
2
2
2
2
2
2
2
2
2
2
2
2
2
2
2
2
2
2
2
3
3
3
3
3
3
3
3
3
3
3
3
3
3
3
3
3
3
3
3
3
3
3
3
3
3
3
3
3
3
4
4
4
4
4
4
4
4
4
4
4
4
4
4
4
4
4
4
4
4
4
4
4
4
4
4
4
4
4
4

LOOKUP_TABLE FreeFempp_table 5
1.00000000 0.00000000 0.00000000 1.00000000
1.00000000 1.00000000 0.00000000 1.00000000
1.00000000 0.00000000 1.00000000 1.00000000
0.00000000 1.00000000 0.00000000 1.00000000
0.00000000 1.00000000 1.00000000 1.00000000

POINT_DATA 961
FIELD FieldData 1
Density 1 961 float
3.01850468e-01 2.68682718e-01 2.63903171e-01 2.65292585e-01 2.70106047e-01 2.67642558e-01 2.39367723e-01 2.28077427e-01 2.13211194e-01 1.34562105e-01 1.02858134e-01 1.26745328e-01 2.69433141e-01 3.88321966e-01 4.23462927e-01 4.25257206e-01 4.00547594e-01 3.60407919e-01 3.21704924e-01 2.91196287e-01 2.42624134e-01 1.62813425e-01 9.85488221e-02 8.95247906e-02 1.53820232e-01 4.27872092e-01 8.73646021e-01 8.12698662e-01 3.94592294e-03 1.21431425e-02 2.43864745e-01 9.79801491e-02 1.37756065e-01 1.50654525e-01 1.60327494e-01 1.80409774e-01 1.50152862e-01 7.86575004e-02 4.42068502e-02 4.43164110e-02 5.44196256e-02 4.23945934e-02 4.84129153e-02 9.45155099e-02 9.39478576e-02 4.17880416e-02 3.27060148e-02 3.54093537e-02 6.40837774e-02 8.16269815e-02 8.52299258e-02 7.60252550e-02 6.25850260e-02 5.34277707e-02 4.84256558e-02 6.63065985e-02 1.46784782e-01 8.70802820e-01 7.91706264e-01 1.95692219e-02 6.58555282e-03 2.85431296e-02 9.12275724e-03 8.95133149e-03 1.00739840e-02 1.16313547e-02 1.68186594e-02 2.32787468e-02 1.50839230e-02 9.24044289e-03 8.41116719e-03 9.76202823e-03 5.21061644e-02 5.05653396e-02 1.08348802e-01 1.16305076e-01 3.96963879e-02 1.73712112e-02 1.10739823e-02 1.06172925e-02 1.24845067e-02 1.53763201e-02 1.97430011e-02 2.57788822e-02 3.29468250e-02 3.66748944e-02 5.30849621e-02 1.13185078e-01 8.48374188e-01 9.27615643e-01 9.90467146e-02 9.92220640e-03 7.75152678e-03 1.01660471e-02 5.74654201e-03 6.96463743e-03 6.43838244e-03 5.67216333e-03 7.12150568e-03 7.87519291e-03 8.05915054e-03 7.67952530e-03 5.96961519e-03 5.56894252e-03 6.89096190e-03 8.07257183e-03 8.53540748e-03 9.52307694e-03 1.34970509e-02 1.49996439e-02 1.22056995e-02 1.18458215e-02 1.23197753e-02 1.35970442e-02 1.57935265e-02 2.06918102e-02 2.30021607e-02 3.62993926e-02 1.04372926e-01 7.99187899e-01 9.42815721e-01 4.92784470e-01 1.15525313e-02 1.08553842e-02 3.63651551e-02 1.55014955e-02 1.25627285e-02 1.11999363e-02 8.97599850e-03 7.57146720e-03 8.27015191e-03 1.06760105e-02 1.86261348e-02 2.92141344e-02 9.53057874e-03 9.05237254e-03 9.41686984e-03 9.07038059e-03 8.93417560e-03 1.12025989e-02 2.48610843e-02 7.68893212e-02 7.70311505e-02 6.16432987e-02 4.37832698e-02 3.96419279e-02 3.92528661e-02 2.38411464e-02 2.33366918e-02 7.12116212e-02 7.54787207e-01 9.39679503e-01 6.59685314e-01 1.03271008e-02 1.12137608e-02 7.15842843e-02 4.44884077e-02 5.01083769e-02 5.35791256e-02 6.84394091e-02 9.46705043e-02 9.15921330e-02 9.06315446e-02 1.14246368e-01 1.51825741e-01 1.66638851e-01 2.26493299e-01 3.36325496e-01 4.00158882e-01 4.13759857e-01 4.00487185e-01 3.93706381e-01 3.87278289e-01 3.62294018e-01 3.28512639e-01 2.89621115e-01 2.00300664e-01 1.26511559e-01 5.24174608e-02 2.61700321e-02 4.02960517e-02 4.63961154e-01 8.93217146e-01 7.16344655e-01 9.67581011e-03 1.01025710e-02 1.33350104e-01 6.18248917e-02 6.19213544e-02 7.12581202e-02 1.02864847e-01 1.44282743e-01 1.62018642e-01 1.88271344e-01 2.39130929e-01 2.94640094e-01 3.42227161e-01 4.09647584e-01 4.61465925e-01 4.74296033e-01 4.74094331e-01 4.68849629e-01 4.63471651e-01 4.61612582e-01 4.64721948e-01 4.63162214e-01 4.51362133e-01 4.26597625e-01 3.31962466e-01 1.89462602e-01 5.11669628e-02 3.73719037e-02 1.17204055e-01 8.26933801e-01 7.49493062e-01 9.55590606e-03 9.74683184e-03 2.35108897e-01 7.83237591e-02 6.87766969e-02 9.49565172e-02 1.53159320e-01 2.24888459e-01 2.84153074e-01 3.50338459e-01 4.20224309e-01 4.75344062e-01 5.16234875e-01 5.49582958e-01 5.59792459e-01 5.46925664e-01 5.27153730e-01 5.07363439e-01 4.88720179e-01 4.73837882e-01 4.66039479e-01 4.62411344e-01 4.54574317e-01 4.30098921e-01 3.49497765e-01 2.65345454e-01 1.16022110e-01 6.79297522e-02 1.17163002e-01 7.64663994e-01 7.81315506e-01 9.74106230e-03 9.66108404e-03 3.86617690e-01 1.25920743e-01 1.06047168e-01 1.79183602e-01 3.19918126e-01 4.39922780e-01 5.20404279e-01 5.79067469e-01 6.17418647e-01 6.36961877e-01 6.44160867e-01 6.41919017e-01 6.27157331e-01 6.02751434e-01 5.75232685e-01 5.48456371e-01 5.24078548e-01 5.02995551e-01 4.86281961e-01 4.72350597e-01 4.55102950e-01 4.21547502e-01 3.56765896e-01 3.20271462e-01 2.19920412e-01 1.54913545e-01 1.57356292e-01 7.46989608e-01 7.94567347e-01 1.02512091e-02 9.89473797e-03 7.00006545e-01 5.15045047e-01 4.88668323e-01 5.81448793e-01 6.66644216e-01 7.09513307e-01 7.31419325e-01 7.41088510e-01 7.41090655e-01 7.33291268e-01 7.19622910e-01 7.00525224e-01 6.75732195e-01 6.47104800e-01 6.17362916e-01 5.88717937e-01 5.62908888e-01 5.40902436e-01 5.22407651e-01 5.05050719e-01 4.83883411e-01 4.51829851e-01 4.15289730e-01 4.18111533e-01 3.55630547e-01 2.02521503e-01 2.06722304e-01 7.84321249e-01 7.95566738e-01 1.11015653e-02 1.04979584e-02 8.54788959e-01 8.77002537e-01 8.62598479e-01 8.53759289e-01 8.43627691e-01 8.30976605e-01 8.19269717e-01 8.06630671e-01 7.92372108e-01 7.75785804e-01 7.56375253e-01 7.33650744e-01 7.07605183e-01 6.79232359e-01 6.50108218e-01 6.22136176e-01 5.97175837e-01 5.76296389e-01 5.58971345e-01 5.42714775e-01 5.23961842e-01 5.01248896e-01 4.89297956e-01 5.00043869e-01 4.57712561e-01 2.94549465e-01 3.92646015e-01 8.52902412e-01 7.74838805e-01 1.23802004e-02 1.15424208e-02 8.09742808e-01 9.10452843e-01 8.91190290e-01 8.82668555e-01 8.66572678e-01 8.45985115e-01 8.27894390e-01 8.11804414e-01 7.96834052e-01 7.81171620e-01 7.63717234e-01 7.43838251e-01 7.21420467e-01 6.96954250e-01 6.71489477e-01 6.46578074e-01 6.23913586e-01 6.04563534e-01 5.88273883e-01 5.73256195e-01 5.57326913e-01 5.41213810e-01 5.33633769e-01 5.24198711e-01 4.98367548e-01 4.54925001e-01 6.80234969e-01 9.03348148e-01 6.90129519e-01 1.45277716e-02 1.31654525e-02 5.61233878e-01 6.11149013e-01 6.01713955e-01 6.48684084e-01 7.07266808e-01 7.44707704e-01 7.60843694e-01 7.64292121e-01 7.61243105e-01 7.53933132e-01 7.43621290e-01 7.30857372e-01 7.15888560e-01 6.99089289e-01 6.81004703e-01 6.62484348e-01 6.44352317e-01 6.27227187e-01 6.11131191e-01 5.95345795e-01 5.79024673e-01 5.62671721e-01 5.46955705e-01 5.23994207e-01 5.33223331e-01 6.33733332e-01 8.28128994e-01 9.12428141e-01 3.05657774e-01 1.80207845e-02 1.56152006e-02 3.47114354e-01 1.69158101e-01 1.82378769e-01 2.43479088e-01 3.51803541e-01 5.04697263e-01 6.17246807e-01 6.69478357e-01 6.89495504e-01 6.95546806e-01 6.95922971e-01 6.93772197e-01 6.89944208e-01 6.84612095e-01 6.77651703e-01 6.69041336e-01 6.58686697e-01 6.46320343e-01 6.31770730e-01 6.14940703e-01 5.96232355e-01 5.76638699e-01 5.56074381e-01 5.41382909e-01 6.00009382e-01 7.76542842e-01 8.89934003e-01 8.73874962e-01 1.00170717e-01 2.12361347e-02 1.87318977e-02 2.46546954e-01 7.69219324e-02 7.19279125e-02 1.02804065e-01 1.91583171e-01 3.45717341e-01 4.96390402e-01 5.75436890e-01 6.06525123e-01 6.19679093e-01 6.28125668e-01 6.36258721e-01 6.44724786e-01 6.52871370e-01 6.59390390e-01 6.63397193e-01 6.63808227e-01 6.59848571e-01 6.50756538e-01 6.36515737e-01 6.18191779e-01 5.98535478e-01 5.83183289e-01 5.93311727e-01 6.99496388e-01 8.61315072e-01 9.13760781e-01 7.22422123e-01 5.17503843e-02 2.44804621e-02 2.38046348e-02 1.63062155e-01 4.95124310e-02 4.85957302e-02 7.60676637e-02 1.73281878e-01 3.57144564e-01 4.81436044e-01 5.29957771e-01 5.44320643e-01 5.50861299e-01 5.59476852e-01 5.72311044e-01 5.88832736e-01 6.07523441e-01 6.26279593e-01 6.43038213e-01 6.55736685e-01 6.63043082e-01 6.63973927e-01 6.58489287e-01 6.48061872e-01 6.37362182e-01 6.36680126e-01 6.68501437e-01 7.76700735e-01 8.95945132e-01 8.95151973e-01 2.39890218e-01 4.02799211e-02 2.95377336e-02 4.56056111e-02 1.14326090e-01 2.96107326e-02 3.59079354e-02 7.56873190e-02 2.67516017e-01 5.58176756e-01 5.84416151e-01 5.46948731e-01 5.19651592e-01 5.07776976e-01 5.08780062e-01 5.19302785e-01 5.36671102e-01 5.58810651e-01 5.83616614e-01 6.08909726e-01 6.32220626e-01 6.51667833e-01 6.65818751e-01 6.74815059e-01 6.80459976e-01 6.88009918e-01 7.06809044e-01 7.46993780e-01 8.12426329e-01 8.86501253e-01 7.10786223e-01 1.08043365e-01 4.81945574e-02 4.26738523e-02 1.12638503e-01 1.02536149e-01 2.01970935e-02 2.82066744e-02 9.35124829e-02 4.48727101e-01 7.34559298e-01 7.11004913e-01 6.05803609e-01 5.27474225e-01 4.91007984e-01 4.80181038e-01 4.83928084e-01 4.96735603e-01 5.15920579e-01 5.39916933e-01 5.67231596e-01 5.96186340e-01 6.25092626e-01 6.52587950e-01 6.78361654e-01 7.03519344e-01 7.31398761e-01 7.66151786e-01 8.06844175e-01 8.40360284e-01 8.23385894e-01 4.55541313e-01 9.15735811e-02 7.91927502e-02 9.13648680e-02 2.50375688e-01 9.54860598e-02 1.58305895e-02 2.20392887e-02 1.56479225e-01 5.79945624e-01 7.67282963e-01 7.42317379e-01 6.33030117e-01 5.33737123e-01 4.82053459e-01 4.62572932e-01 4.59879726e-01 4.66714174e-01 4.80193257e-01 4.99232709e-01 5.23426831e-01 5.52442849e-01 5.85908532e-01 6.23153627e-01 6.63271666e-01 7.05116570e-01 7.47744977e-01 7.89638638e-01 8.26822042e-01 8.50670576e-01 8.39564979e-01 6.63773358e-01 3.99144948e-01 4.99253839e-01 7.31629789e-01 5.78763902e-01 9.49024335e-02 1.38774002e-02 1.74638052e-02 2.68000633e-01 6.14631295e-01 7.27963090e-01 6.95358872e-01 5.99734485e-01 5.12433231e-01 4.63595480e-01 4.42993760e-01 4.37171727e-01 4.39466476e-01 4.47541028e-01 4.60871011e-01 4.79731292e-01 5.04921675e-01 5.37503958e-01 5.78187168e-01 6.26300156e-01 6.78810179e-01 7.30629921e-01 7.76270628e-01 8.12486053e-01 8.39960217e-01 8.61440480e-01 8.84733140e-01 9.24273551e-01 9.51063633e-01 9.52038348e-01 8.93931508e-01 1.23165630e-01 1.39667410e-02 1.57791078e-02 3.47048193e-01 5.78706264e-01 6.33792639e-01 5.94623864e-01 5.24473131e-01 4.66505915e-01 4.32838589e-01 4.16935116e-01 4.10812944e-01 4.10377324e-01 4.14353728e-01 4.22734618e-01 4.36169475e-01 4.55902606e-01 4.83689666e-01 5.21182358e-01 5.68657875e-01 6.23427987e-01 6.79266453e-01 7.28438199e-01 7.66891539e-01 7.97410309e-01 8.22690248e-01 8.41593862e-01 8.42547834e-01 8.38402867e-01 8.00800025e-01 8.86710346e-01 1.87513456e-01 1.41383121e-02 1.65010430e-02 3.45224440e-01 4.87577826e-01 4.99312103e-01 4.70564932e-01 4.37198907e-01 4.12187099e-01 3.96411121e-01 3.86942446e-01 3.81489277e-01 3.79224777e-01 3.80145639e-01 3.84598225e-01 3.93305331e-01 4.07546282e-01 4.29062217e-01 4.59370404e-01 4.98649389e-01 5.44917583e-01 5.93651533e-01 6.37570024e-01 6.70673847e-01 6.96772099e-01 7.17710674e-01 6.98628247e-01 5.35512269e-01 2.68033922e-01 3.51706326e-01 6.80292904e-01 2.32457578e-01 1.31656341e-02 1.53186861e-02 2.91017085e-01 3.91621143e-01 3.77826273e-01 3.68443429e-01 3.66009265e-01 3.65007758e-01 3.62154901e-01 3.57157916e-01 3.51734936e-01 3.47733647e-01 3.46234173e-01 3.47739547e-01 3.52786839e-01 3.62420678e-01 3.78099412e-01 4.00691628e-01 4.28984761e-01 4.59541082e-01 4.88100827e-01 5.07258236e-01 5.04666388e-01 4.82690662e-01 4.62965578e-01 3.89757961e-01 1.87034115e-01 5.67352995e-02 6.96220770e-02 2.87586570e-01 2.27796018e-01 1.20402994e-02 1.38606243e-02 2.71614432e-01 3.43006462e-01 3.09595138e-01 3.09377074e-01 3.21601093e-01 3.31441402e-01 3.33752155e-01 3.29682529e-01 3.23121697e-01 3.17378134e-01 3.14060122e-01 3.13600987e-01 3.16214770e-01 3.22580844e-01 3.33807588e-01 3.50141019e-01 3.68629634e-01 3.82761419e-01 3.86928380e-01 3.75699639e-01 3.33952904e-01 2.67203897e-01 2.24212214e-01 1.85487807e-01 1.13743201e-01 6.06841743e-02 5.95264398e-02 1.98376194e-01 2.41774812e-01 1.11343600e-02 1.28877331e-02 2.88368255e-01 3.21528643e-01 2.77266949e-01 2.79833168e-01 2.96228558e-01 3.07801038e-01 3.09588164e-01 3.04101974e-01 2.96177089e-01 2.89367259e-01 2.85118490e-01 2.83578992e-01 2.84671843e-01 2.88815975e-01 2.96929628e-01 3.09023231e-01 3.21000427e-01 3.23083162e-01 3.07904929e-01 2.79111087e-01 2.34591335e-01 1.75027952e-01 1.40022844e-01 1.24558888e-01 9.27006751e-02 7.04072267e-02 5.69463260e-02 1.43866077e-01 2.73582518e-01 1.03793545e-02 1.18578039e-02 2.98867673e-01 2.98321694e-01 2.55475044e-01 2.60876715e-01 2.77279347e-01 2.86604464e-01 2.86075801e-01 2.79591471e-01 2.71877289e-01 2.65687644e-01 2.61735797e-01 2.59742796e-01 2.59463727e-01 2.61340171e-01 2.66533405e-01 2.75604963e-01 2.84868628e-01 2.82677263e-01 2.57886022e-01 2.20369861e-01 1.88402534e-01 1.54533654e-01 1.20427705e-01 9.53356698e-02 8.16680491e-02 7.26219937e-02 5.98974749e-02 1.17149979e-01 2.63658375e-01 9.51016042e-03 1.08456165e-02 2.89675057e-01 2.72860795e-01 2.35447958e-01 2.42767289e-01 2.57088035e-01 2.63459742e-01 2.62088448e-01 2.57418126e-01 2.52865672e-01 2.49635443e-01 2.47406214e-01 2.45399550e-01 2.43245646e-01 2.41565973e-01 2.42135659e-01 2.46905640e-01 2.54631937e-01 2.55115956e-01 2.31395930e-01 1.86065644e-01 1.46294236e-01 1.33917317e-01 1.28483266e-01 8.33722427e-02 6.11668155e-02 6.46094084e-02 6.45390898e-02 1.17711239e-01 2.17963338e-01 1.00934030e-02 1.13385217e-02 2.61706859e-01 2.48461142e-01 2.16000751e-01 2.23928049e-01 2.35533282e-01 2.40334794e-01 2.41310880e-01 2.42100641e-01 2.43862301e-01 2.45904192e-01 2.46761709e-01 2.45089158e-01 2.40326613e-01 2.33199596e-01 2.26033032e-01 2.22393885e-01 2.24746779e-01 2.28369758e-01 2.14863628e-01 1.68608829e-01 1.11225046e-01 8.60775933e-02 1.00843474e-01 9.85321179e-02 5.32208942e-02 4.86885495e-02 6.43799305e-02 1.27718955e-01 1.68107688e-01 9.62352287e-03 6.27520122e-03 1.32999331e-01 2.29010984e-01 1.95380732e-01 2.07680076e-01 2.20073640e-01 2.26041451e-01 2.32261285e-01 2.41266996e-01 2.51695365e-01 2.60770768e-01 2.65666187e-01 2.64254540e-01 2.55584776e-01 2.40284055e-01 2.21031189e-01 2.02827483e-01 1.92235023e-01 1.94559246e-01 2.03521296e-01 1.78430676e-01 1.12112284e-01 5.68786375e-02 3.03051081e-02 5.00858165e-02 7.33413696e-02 4.56196666e-02 6.08417131e-02 1.17829412e-01 1.20081544e-01 8.65104198e-02 1.11696532e-03 8.66164919e-03 2.02060536e-01 1.83071807e-01 1.94416657e-01 2.15272740e-01 2.34094292e-01 2.58352935e-01 2.88416833e-01 3.19750667e-01 3.46748292e-01 3.65129620e-01 3.72598559e-01 3.68178576e-01 3.51424545e-01 3.22536081e-01 2.83779055e-01 2.41137728e-01 2.02770472e-01 1.72698811e-01 1.46647319e-01 1.18857019e-01 1.03639640e-01 4.55248058e-02 2.12108828e-02 7.12911189e-02 3.12242452e-02 6.18220642e-02 1.23357706e-01 1.24843583e-01 1.18440032e-01 3.63582894e-02 8.64723511e-03 2.61313230e-01 3.05244833e-01 3.16033155e-01 3.53234410e-01 3.84318411e-01 4.28102463e-01 4.78854924e-01 5.25359452e-01 5.61147511e-01 5.85320830e-01 5.99768937e-01 6.06765211e-01 6.07691944e-01 6.02332532e-01 5.88181436e-01 5.59563339e-01 5.07444382e-01 4.25045788e-01 3.29815209e-01 2.88738579e-01 4.20308709e-01 8.07021797e-01 3.09605412e-02 2.45864596e-02 7.45426565e-02 5.73290028e-02 7.87092805e-01 
