# vtk DataFile Version 2.0
results/iter0.vtk, Created by Freefem++ 
ASCII
DATASET UNSTRUCTURED_GRID
POINTS 642 float
0 0 0
0 0.10166157 0
0 0.039387864 0
0 0.059209657 0
0 0.13208985 0
0 0.079093806 0
0 0.019197966 0
0.035478936 0 0
0.030411553 0.030622894 0
0.013638155 0.10849885 0
0.018354084 0.055032842 0
0 0.1827425 0
0.086574659 0 0
0.05784198 0.017202097 0
0.022802308 0.13082259 0
0.065227485 0.040076099 0
0.037586641 0.075762187 0
0.010623739 0.19873937 0
0 0.27016917 0
0.10983986 0.017605897 0
0.16309119 0 0
0.021565206 0.21057187 0
0.033316385 0.14171971 0
0.067985148 0.066029002 0
0.11274247 0.0376801 0
0.051193382 0.11120181 0
0.015833299 0.29040851 0
0 0.35983886 0
0.19035363 0.018151023 0
0.23871755 0 0
0.033021477 0.23031575 0
0.045175197 0.16724736 0
0.099085788 0.066682826 0
0.072390913 0.096139875 0
0.13328603 0.049845385 0
0.17965352 0.034051781 0
0 0.48074608 0
0 0.44805364 0
0.38289301 0 0
0 0.41477422 0
0.29688598 0 0
0.3597614 0.0096021425 0
0.068117772 0.1439947 0
0.018150429 0.38254222 0
0.033872607 0.30564405 0
0.28053031 0.016478994 0
0.24899338 0.033341514 0
0.049898091 0.22396055 0
0.099076063 0.098485231 0
0.13777366 0.070338485 0
0.18710852 0.050543558 0
0.011702796 0.49110914 0
0 0.51784963 0
0.47389232 0.0067564576 0
0.53329778 0 0
0.46347691 0.014601799 0
0.35519715 0.020717416 0
0 0.87085521 0
0 0.55423306 0
0 0.62774724 0
0 0.98710165 0
0 0.58765376 0
0 0.97365037 0
0 0.80290131 0
0.080495025 0.16977727 0
0.064603017 0.2168249 0
0.44602221 0.024021124 0
0.10042887 0.12827246 0
0.035171949 0.40323197 0
0.023063938 0.51240894 0
0.051774352 0.31902661 0
0.31943736 0.032176457 0
0.23909897 0.053143785 0
0.29408593 0.04765839 0
0.13669453 0.095506707 0
0.19113808 0.070611721 0
0.014470041 0.62071876 0
0.63823565 0.0080054195 0
0.73884836 0 0
0.6112109 0.016941238 0
0.39241929 0.03393489 0
0.015501499 0.8775796 0
0 0.90848215 0
0 0.69864336 0
0 1 0
0.031528694 0.96725535 0
0 0.959802 0
0.017774982 0.80092964 0
0.10164796 0.16367394 0
0.082807381 0.22838642 0
0.068130459 0.28154846 0
0.57531945 0.026246036 0
0.50386956 0.033169544 0
0 0.94519352 0
0 0.92980727 0
0.030919347 0.88242929 0
0.032636854 0.52599166 0
0.066221537 0.37288756 0
0.4866273 0.042497605 0
0.13092979 0.12828423 0
0.042411926 0.50413287 0
0.052075732 0.44718574 0
0.030823528 0.64104913 0
0.35379742 0.048321405 0
0.2761923 0.066378369 0
0.1664271 0.099468223 0
0.2109012 0.081213245 0
0.02992879 0.73633461 0
0.79032988 0.011055849 0
0.86214636 0 0
0.73147746 0.021871048 0
0.029791514 0.93173923 0
0.035478936 1 0
0.062144234 0.96593151 0
0.039859019 0.84244062 0
0.1301585 0.16362434 0
0.10203862 0.19958752 0
0.082633445 0.31540283 0
0.099116683 0.25744973 0
0.68100923 0.034316691 0
0.04760678 0.90382093 0
0.041944681 0.62213186 0
0.067163121 0.49413559 0
0.08186529 0.43158831 0
0.42188382 0.053171807 0
0.62748561 0.044849724 0
0.53775912 0.054447219 0
0.8007045 0.028058878 0
0.045117568 0.81109357 0
0.058581305 0.55091826 0
0.69225441 0.053562387 0
0.1661116 0.12934891 0
0.053947298 0.61805576 0
0.049571415 0.71164476 0
0.35607965 0.065726268 0
0.3181052 0.082993054 0
0.25996708 0.085583231 0
0.2060817 0.10298743 0
0.054992345 0.79306929 0
0.85929928 0.020803919 0
0.89111152 0.010923707 0
0.92905875 0 0
0.063719364 0.93469649 0
0.086574659 1 0
0.096642085 0.97339395 0
0.099164301 0.95425079 0
0.064182289 0.8622214 0
0.066899759 0.89959987 0
0.12370286 0.20842317 0
0.16224637 0.16654837 0
0.099370676 0.34033665 0
0.11809 0.27377638 0
0.78656592 0.043360498 0
0.85874991 0.032994682 0
0.069193616 0.6445231 0
0.079062678 0.5874816 0
0.098946039 0.43813574 0
0.0890541 0.54384519 0
0.45085288 0.065127532 0
0.62966534 0.065406679 0
0.81174447 0.054818771 0
0.16309119 1 0
0.96806768 0 0
0.48755969 0.074070432 0
0.109766 0.51096021 0
0.10072576 0.58126317 0
0.79239452 0.065537293 0
0.2097606 0.13118326 0
0.071981506 0.7381642 0
0.071476697 0.7979879 0
0.39819729 0.082420263 0
0.33470185 0.10291148 0
0.2618225 0.10624959 0
0.078205223 0.85291931 0
0.92556543 0.023010272 0
0.9417899 0.010134898 0
0.092021979 0.9282446 0
0.14877303 0.98820376 0
0.14858457 0.97475209 0
0.12907256 0.94892554 0
0.16534048 0.96530728 0
0.096878227 0.89804406 0
0.15071364 0.21405725 0
0.19885283 0.17063443 0
0.1175369 0.38441188 0
0.13446505 0.27667272 0
0.88331028 0.043511431 0
0.92766883 0.034499746 0
0.087000376 0.72434999 0
0.094800888 0.67655122 0
0.53419169 0.082886183 0
0.71876048 0.075667435 0
0.90389448 0.051485166 0
0.8886086 0.059891292 0
0.23871755 1 0
1 0 0
0.98170668 0.0082280068 0
0.12189594 0.54391727 0
0.1173975 0.64035719 0
0.11082111 0.69117385 0
0.84677671 0.072800482 0
0.88628032 0.066836029 0
0.61299172 0.086982857 0
0.71589573 0.088444441 0
0.26639289 0.13529132 0
0.09458451 0.82063439 0
0.10429919 0.80435515 0
0.10005953 0.85998076 0
0.42867044 0.10008531 0
0.33911595 0.12561172 0
0.96689075 0.033729728 0
0.96940426 0.020118675 0
0.12964445 0.93189424 0
0.22986149 0.98334061 0
0.18100289 0.9512304 0
0.23519116 0.96739415 0
0.13253681 0.91640556 0
0.13073923 0.89447214 0
0.17202534 0.23573904 0
0.23168074 0.17820136 0
0.13017389 0.43955328 0
0.14051148 0.32425528 0
0.9458772 0.045032264 0
0.11453781 0.76954359 0
0.53062528 0.10247248 0
0.83247609 0.080508759 0
0.94451425 0.057220843 0
0.93455472 0.067057804 0
0.29688598 1 0
1 0.019197966 0
0.13349721 0.68065002 0
0.13340725 0.58683642 0
0.13410163 0.75420265 0
0.91169292 0.074809557 0
0.68954074 0.10019407 0
0.82021853 0.08995157 0
0.38289301 1 0
0.80574926 0.10030672 0
0.2921123 0.16890042 0
0.13337296 0.86457931 0
0.14466954 0.83619524 0
0.39384319 0.12950173 0
1 0.039387864 0
0.97647322 0.050318216 0
0.18018632 0.93504107 0
0.30422939 0.97657649 0
0.24256741 0.95094761 0
0.17073585 0.91848947 0
0.1703158 0.90108054 0
0.21166779 0.22498936 0
0.16746381 0.29934782 0
0.13995683 0.49565381 0
0.14748246 0.38759157 0
0.5388438 0.11361008 0
0.90206617 0.083647972 0
0.96900144 0.065468439 0
0.94793393 0.077551002 0
0.1619462 0.7611316 0
0.14659888 0.69116108 0
0.14710264 0.60960917 0
0.16432097 0.81934463 0
0.74261775 0.11338742 0
0.62878999 0.11472369 0
0.88367262 0.09181529 0
0.40188114 0.98798763 0
0.53329778 1 0
0.83261607 0.11258455 0
0.86744675 0.10105491 0
0.35476923 0.97213637 0
0.90686983 0.10246425 0
0.91618031 0.095131395 0
0.78372257 0.13141825 0
0.24416943 0.22743405 0
0.29602195 0.21180395 0
0.36804754 0.16526071 0
0.19731735 0.89174157 0
0.20078659 0.86461773 0
0.45149712 0.13332795 0
1 0.059209657 0
0.22737869 0.92726684 0
0.31388984 0.95210895 0
0.19695233 0.29674426 0
0.16696284 0.3880636 0
0.1549864 0.50234587 0
0.52982098 0.13645599 0
0.94376148 0.088914995 0
0.97630265 0.076670422 0
0.20247072 0.80087133 0
0.20447107 0.83076419 0
0.16471953 0.69817726 0
0.18564591 0.75653723 0
0.16741929 0.62446526 0
0.64248724 0.13307676 0
0.44585824 0.97916534 0
0.53421735 0.99141522 0
0.73884836 1 0
0.87294049 0.12201107 0
0.89177853 0.11060219 0
0.41957769 0.96544641 0
0.92801514 0.1091551 0
0.93958553 0.1004853 0
0.81854561 0.15473948 0
0.86161029 0.13553852 0
0.68969801 0.14398742 0
0.73116848 0.1681178 0
0.1749929 0.44355555 0
0.56954207 0.98408899 0
0.87482605 0.1629089 0
0.35962652 0.20748894 0
0.25187993 0.8396546 0
0.24206536 0.28949945 0
0.29943726 0.26863473 0
0.44696234 0.17128499 0
0.30013763 0.92769286 0
0.26374153 0.89724964 0
0.26113862 0.87056785 0
1 0.079093806 0
0.40945331 0.95088962 0
0.19840358 0.36428687 0
0.17536615 0.53788464 0
0.53619463 0.17023 0
0.97895789 0.090366962 0
0.96162557 0.10019449 0
0.23302171 0.79671402 0
0.20299932 0.73055871 0
0.19432287 0.65686636 0
0.61046245 0.17154527 0
0.57556265 0.97504312 0
0.71364329 0.99214678 0
0.86214636 1 0
0.90275014 0.13695935 0
0.91793793 0.12116464 0
0.57455803 0.96567126 0
0.9471127 0.11521964 0
0.83705708 0.19548226 0
0.65096332 0.20548935 0
0.75618652 0.20446388 0
0.19775151 0.46016147 0
0.72893768 0.98365493 0
0.89800498 0.20070455 0
0.908972 0.16632691 0
0.34748446 0.26991376 0
0.40542988 0.2317602 0
0.29648599 0.84156211 0
0.30792191 0.87150958 0
0.92237167 0.14646632 0
0.73686552 0.23777671 0
0.98168971 0.10395488 0
0.22993551 0.38504098 0
0.27622883 0.34545315 0
0.34678775 0.33643611 0
0.47639434 0.21660445 0
0.35131336 0.91880819 0
0.40204547 0.93355552 0
0.34011403 0.89991129 0
1 0.10166157 0
0.5911743 0.95668686 0
0.47585821 0.94573263 0
0.20792486 0.53056501 0
0.19740078 0.59347502 0
0.56481146 0.22410193 0
0.96653348 0.11637629 0
0.28690448 0.80748323 0
0.23489448 0.73739204 0
0.23143618 0.66689711 0
0.77737454 0.97662968 0
0.85803546 0.98942715 0
0.92905875 1 0
0.93474396 0.13533436 0
0.75459684 0.96637944 0
0.95309593 0.1317574 0
0.83825807 0.23694959 0
0.89480942 0.23516033 0
0.67774925 0.26109517 0
0.23289227 0.46869073 0
0.92936017 0.19570538 0
0.92980575 0.23004895 0
0.93552246 0.1644554 0
0.40621245 0.30512313 0
0.45173331 0.27689857 0
0.35730358 0.87148738 0
0.39245162 0.861275 0
0.38730783 0.89663242 0
0.81039863 0.26748754 0
0.98347281 0.12026621 0
0.96806768 1 0
0.61495591 0.94752391 0
0.47157842 0.86628885 0
0.9280055 0.26318618 0
0.27601749 0.42878317 0
0.3360008 0.39388493 0
0.4594025 0.36067117 0
0.42141441 0.39202493 0
0.52091458 0.27516962 0
0.47624077 0.91814403 0
0.53003668 0.93530242 0
1 0.13208985 0
0.77591144 0.95591283 0
0.24035957 0.59585697 0
0.25692791 0.53363464 0
0.58976737 0.27833607 0
0.96721097 0.14423938 0
0.30197926 0.78609826 0
0.37342076 0.82441007 0
0.27876951 0.72704091 0
0.27958907 0.6582191 0
0.89006403 0.97333971 0
0.92075169 0.98218954 0
0.95329837 0.99079652 0
0.95151519 0.15948324 0
0.86548135 0.96504327 0
0.88916291 0.27154677 0
0.67662088 0.30111568 0
0.77089854 0.2969081 0
0.2842681 0.49290782 0
0.94884608 0.201737 0
0.95060416 0.246956 0
0.51469679 0.32937373 0
0.45850709 0.89588696 0
0.52405004 0.89249344 0
0.8519565 0.30032754 0
0.98116055 0.14073375 0
1 1 0
0.73334538 0.94461475 0
0.44944232 0.8330511 0
0.57045138 0.88477303 0
0.55378702 0.8628618 0
0.9287842 0.29663056 0
0.95062785 0.28911231 0
0.36003943 0.50160094 0
[...]
CELL_DATA 1282
Scalars  Label int 1
LOOKUP_TABLE FreeFempp_table
0
0
0
0
0
0
0
0
0
0
0
0
0
0
0
0
0
0
0
0
0
0
0
0
0
0
0
0
0
0
0
0
0
0
0
0
0
0
0
0
0
0
0
0
0
0
0
0
0
0
0
0
0
0
0
0
0
0
0
0
0
0
0
0
0
0
0
0
0
0
0
0
0
0
0
0
0
0
0
0
0
0
0
0
0
0
0
0
0
0
0
0
0
0
0
0
0
0
0
0
0
0
0
0
0
0
0
0
0
0
0
0
0
0
0
0
0
0
0
0
0
0
0
0
0
0
0
0
0
0
0
0
0
0
0
0
0
0
0
0
0
0
0
0
0
0
0
0
0
0
0
0
0
0
0
0
0
0
0
0
0
0
0
0
0
0
0
0
0
0
0
0
0
0
0
0
0
0
0
0
0
0
0
0
0
0
0
0
0
0
0
0
0
0
0
0
0
0
0
0
0
0
0
0
0
0
0
0
0
0
0
0
0
0
0
0
0
0
0
0
0
0
0
0
0
0
0
0
0
0
0
0
0
0
0
0
0
0
0
0
0
0
0
0
0
0
0
0
0
0
0
0
0
0
0
0
0
0
0
0
0
0
0
0
0
0
0
0
0
0
0
0
0
0
0
0
0
0
0
0
0
0
0
0
0
0
0
0
0
0
0
0
0
0
0
0
0
0
0
0
0
0
0
0
0
0
0
0
0
0
0
0
0
0
0
0
0
0
0
0
0
0
0
0
0
0
0
0
0
0
0
0
0
0
0
0
0
0
0
0
0
0
0
0
0
0
0
0
0
0
0
0
0
0
0
0
0
0
0
0
0
0
0
0
0
0
0
0
0
0
0
0
0
0
0
0
0
0
0
0
0
0
0
0
0
0
0
0
0
0
0
0
0
0
0
0
0
0
0
0
0
0
0
0
0
0
0
0
0
0
0
0
0
0
0
0
0
0
0
0
0
0
0
0
0
0
0
0
0
0
0
0
0
0
0
0
0
0
0
0
0
0
0
0
0
0
0
0
0
0
0
0
0
0
0
0
0
0
0
0
0
0
0
0
0
0
0
0
0
0
0
0
0
0
0
0
0
0
0
0
0
0
0
0
0
0
0
0
0
0
0
0
0
0
0
0
0
0
0
0
0
0
0
0
0
0
0
0
0
0
0
0
0
0
0
0
0
0
0
0
0
0
0
0
0
0
0
0
0
0
0
0
0
0
0
0
0
0
0
0
0
0
0
0
0
0
0
0
0
0
0
0
0
0
0
0
0
0
0
0
0
0
0
0
0
0
0
0
0
0
0
0
0
0
0
0
0
0
0
0
0
0
0
0
0
0
0
0
0
0
0
0
0
0
0
0
0
0
0
0
0
0
0
0
0
0
0
0
0
0
0
0
0
0
0
0
0
0
0
0
0
0
0
0
0
0
0
0
0
0
0
0
0
0
0
0
0
0
0
0
0
0
0
0
0
0
0
0
0
0
0
0
0
0
0
0
0
0
0
0
0
0
0
0
0
0
0
0
0
0
0
0
0
0
0
0
0
0
0
0
0
0
0
0
0
0
0
0
0
0
0
0
0
0
0
0
0
0
0
0
0
0
0
0
0
0
0
0
0
0
0
0
0
0
0
0
0
0
0
0
0
0
0
0
0
0
0
0
0
0
0
0
0
0
0
0
0
0
0
0
0
0
0
0
0
0
0
0
0
0
0
0
0
0
0
0
0
0
0
0
0
0
0
0
0
0
0
0
0
0
0
0
0
0
0
0
0
0
0
0
0
0
0
0
0
0
0
0
0
0
0
0
0
0
0
0
0
0
0
0
0
0
0
0
0
0
0
0
0
0
0
0
0
0
0
0
0
0
0
0
0
0
0
0
0
0
0
0
0
0
0
0
0
0
0
0
0
0
0
0
0
0
0
0
0
0
0
0
0
0
0
0
0
0
0
0
0
0
0
0
0
0
0
0
0
0
0
0
0
0
0
0
0
0
0
0
0
0
0
0
0
0
0
0
0
0
0
0
0
0
0
0
0
0
0
0
0
0
0
0
0
0
0
0
0
0
0
0
0
0
0
0
0
0
0
0
0
0
0
0
0
0
0
0
0
0
0
0
0
0
0
0
0
0
0
0
0
0
0
0
0
0
0
0
0
0
0
0
0
0
0
0
0
0
0
0
0
0
0
0
0
0
0
0
0
0
0
0
0
0
0
0
0
0
0
0
0
0
0
0
0
0
0
0
0
0
0
0
0
0
0
0
0
0
0
0
0
0
0
0
0
0
0
0
0
0
0
0
0
0
0
0
0
0
0
0
0
0
0
0
0
0
0
0
0
0
0
0
0
0
0
0
0
0
0
0
0
0
0
0
0
0
0
0
0
0
0
0
0
0
0
0
0
0
0
0
0
0
0
0
0
0
0
0
0
0
0
0
0
0
0
0
0
0
0
0
0
0
0
0
0
0
0
0
0
0
0
0
0
0
0
0
0
0
0
0
0
0
0
0
0
0
0
0
0
0
0
0
0
0
0
0
0
0
0
0
0
0
0
0
0
0
0
0
0
0
0
0
0
0
0
0
0
0
0
0
0
0
0
0
0
0
0
0
0
0
0
0
0
0
0
0
0
0
0
0
0
0
0
0
0
0
0
0
0
0
0
0
0
0
0
0
0
0
0
0
0
0
0
0
0
0
0
0
0
0
0
0
0
0
0
0
0
0
0
0
0
0
0
0
0
0
0
0
0
0
1
1
1
1
1
1
1
1
1
1
1
1
3
3
3
3
3
3
3
3
3
3
3
3
2
2
2
2
2
2
2
2
2
2
2
2
2
2
2
2
2
2
2
2
2
2
2
2
2
2
4
4
4
4
4
4
4
4
4
4
4
4
4
4
4
4
4
4
4
4
4
4
4
4
4
4

LOOKUP_TABLE FreeFempp_table 5
1.00000000 0.00000000 0.00000000 1.00000000
1.00000000 1.00000000 0.00000000 1.00000000
1.00000000 0.00000000 1.00000000 1.00000000
0.00000000 1.00000000 0.00000000 1.00000000
0.00000000 1.00000000 1.00000000 1.00000000

POINT_DATA 642
FIELD FieldData 1
Density 1 642 float
2.59191240e-03 1.83984125e-03 1.79575477e-03 1.81963888e-03 1.84511056e-03 1.83274166e-03 2.09406228e-03 1.76044682e-03 6.95235154e-04 8.79316009e-04 9.14969598e-04 1.85267616e-03 1.77952589e-03 9.32826544e-04 5.33893646e-04 4.57697402e-04 4.89338185e-04 1.29193719e-03 1.86797755e-03 6.94713730e-04 1.78382720e-03 1.00095163e-03 3.14148259e-04 3.12628312e-04 3.56903038e-04 6.02221524e-04 1.75350800e-03 1.87080214e-03 1.07293786e-03 1.79664115e-03 8.44899216e-04 8.33990169e-04 6.60054560e-04 7.53556553e-04 7.13745307e-04 5.41672460e-04 1.85398071e-03 1.85996480e-03 1.85092946e-03 1.86500885e-03 1.81494548e-03 2.29651318e-03 1.95775367e-03 2.31530634e-03 1.70801324e-03 2.06258753e-03 1.38740288e-03 1.77320442e-03 2.17976724e-03 1.86185504e-03 1.52205047e-03 2.34570168e-03 1.84609287e-03 2.24502990e-03 1.90516736e-03 2.79311556e-03 2.95949075e-03 1.63765997e-03 1.83752528e-03 1.81826623e-03 2.84487754e-03 1.82916620e-03 2.03618268e-03 1.70202588e-03 3.26908613e-03 3.82501446e-03 3.59438476e-03 3.86331975e-03 2.77622277e-03 2.99302023e-03 2.25682533e-03 2.90017575e-03 2.40540365e-03 2.33221822e-03 3.72260693e-03 3.77865066e-03 2.44389963e-03 2.13878672e-03 1.90177432e-03 2.53258296e-03 4.19646176e-03 7.17653777e-04 1.62633543e-03 1.78775180e-03 3.91280372e-03 6.10959134e-04 1.69309950e-03 1.12182216e-03 3.89227411e-03 2.95175915e-03 3.56846349e-03 3.24269128e-03 4.38471045e-03 1.65793090e-03 1.62939518e-03 3.11454700e-04 3.69022181e-03 2.44869292e-03 2.68168049e-03 3.47512076e-03 3.05563980e-03 2.40993244e-03 3.29907634e-03 2.24272977e-03 3.08407820e-03 3.84600810e-03 2.97340308e-03 1.82502833e-03 1.98609731e-03 1.88694324e-03 2.27094255e-03 5.09961043e-04 1.71857409e-03 5.11262333e-04 5.97118342e-04 2.13867892e-03 2.71178992e-03 1.76854152e-03 1.53826433e-03 2.70347577e-03 3.54989606e-04 3.39505984e-03 1.88974745e-03 1.19984429e-03 1.66264176e-03 1.78778917e-03 1.23163697e-03 2.12898175e-03 1.37091393e-03 2.39376444e-03 1.04117708e-03 2.08186801e-03 3.04802228e-03 3.35055636e-03 1.46260008e-03 1.22999190e-03 1.84262032e-03 2.19284697e-03 2.91627925e-03 1.94425334e-03 1.89232861e-03 1.87452382e-03 3.17558675e-04 1.80275668e-03 4.46958031e-04 3.79919191e-04 1.70424872e-03 7.17178802e-04 1.37036433e-03 1.07282074e-03 8.35627608e-04 8.63744004e-04 1.48063689e-03 1.99703895e-03 2.59844121e-03 1.42009754e-03 6.42622414e-04 9.05213819e-04 8.41302564e-04 5.83613466e-04 8.98577098e-04 1.88412610e-03 1.93041959e-03 6.39320351e-04 5.59308450e-04 6.37733727e-04 5.67205891e-04 9.99017269e-04 4.06264234e-03 4.66443878e-03 7.33380381e-04 5.97105245e-04 9.95325507e-04 3.21548688e-03 1.86925218e-03 1.87407352e-03 6.09736890e-04 1.00037351e-03 5.05277887e-04 6.31289091e-04 4.20002383e-04 2.14805640e-03 7.80724571e-04 6.12130912e-04 5.83258807e-04 5.88650815e-04 1.34308438e-03 1.79728260e-03 2.14425894e-03 1.12460076e-03 5.68375865e-04 5.97395177e-04 9.85187595e-04 7.23618781e-04 1.87136279e-03 4.02440224e-03 2.08157510e-03 5.18872519e-04 5.95357153e-04 8.03964271e-04 6.14866265e-04 5.55948645e-04 6.03148015e-04 6.94430200e-04 5.47135947e-04 4.04890068e-03 2.87463004e-03 4.24071914e-03 4.80638409e-04 5.16055967e-04 1.86943600e-03 1.84219121e-03 1.38765690e-03 1.27448968e-03 1.15011691e-03 9.76272451e-04 2.30231369e-03 3.71154491e-03 5.15082327e-04 5.03325369e-04 4.90727718e-04 5.10085258e-04 1.24406035e-03 1.39301200e-03 5.59452572e-04 6.96611824e-04 8.01403949e-04 5.65518625e-04 1.86839292e-03 2.30700476e-03 5.12896804e-04 4.78255446e-04 7.14275462e-04 6.57824974e-04 7.45516329e-04 8.15229141e-04 1.88408233e-03 9.46775835e-04 5.27048425e-04 3.21950810e-03 1.61522254e-03 5.58459549e-04 1.66450208e-03 1.58585527e-03 2.72563775e-03 2.03359150e-03 2.05932697e-03 3.05975787e-03 3.31712421e-03 5.16247586e-04 4.90469974e-04 5.12518280e-04 5.24443807e-04 7.24328391e-04 7.76668952e-04 6.69678440e-04 7.04758393e-04 5.27871773e-04 5.06140233e-04 5.12011698e-04 8.35858635e-04 1.35386223e-03 9.94850183e-04 8.97470396e-04 2.48460844e-03 1.89637870e-03 1.60505017e-03 1.06995692e-03 2.92915083e-03 1.18358224e-03 9.79981851e-04 2.90601631e-03 6.07968715e-04 8.04621843e-04 7.50034291e-04 2.02067057e-03 9.86832893e-04 7.01974379e-04 2.21357355e-03 3.46980989e-03 2.55188532e-03 6.00000378e-04 5.80263848e-04 5.89602569e-04 1.11901422e-03 8.80966720e-04 1.20666553e-03 4.92858293e-04 5.84435009e-04 4.88620193e-04 4.87456884e-04 5.68742456e-04 1.76752394e-03 3.19247739e-03 2.33038957e-03 1.88603497e-03 2.50567403e-03 1.62752368e-03 4.02996503e-03 1.59086462e-03 1.11666368e-03 8.60631000e-03 4.21894062e-03 3.30513087e-03 1.02282492e-02 7.26155704e-04 2.69126263e-03 1.42527986e-02 1.40997639e-03 5.01528848e-04 9.58645483e-04 1.68086076e-03 1.52820011e-03 2.02813349e-03 1.00553222e-03 6.14140416e-04 3.59120290e-03 2.28163763e-03 8.14246538e-04 7.42852513e-04 3.02708964e-03 1.81258202e-03 1.11526984e-03 4.95440851e-04 5.52140235e-04 7.00758770e-04 5.51265944e-03 3.27740447e-03 2.08251970e-03 1.88513030e-03 4.85601043e-03 2.58373795e-03 3.66456900e-03 2.07586959e-03 4.92342077e-02 2.42513716e-02 4.77339402e-02 1.06490788e-03 2.25681299e-03 7.27390796e-02 1.77540984e-02 3.47588048e-03 3.80991609e-03 5.11429273e-04 5.07877732e-04 7.60537433e-03 1.33131847e-01 3.01677361e-03 1.50942127e-03 2.70004617e-03 9.00106132e-03 6.28005993e-03 1.00130844e-03 1.14351825e-03 5.97970444e-04 7.25816377e-03 2.14105239e-03 1.53915561e-03 1.30683393e-03 9.32124036e-04 2.01169718e-02 2.19979882e-03 6.06435002e-04 6.99710334e-04 1.12895260e-03 2.28975248e-03 1.98278832e-03 1.88144681e-03 4.71231760e-03 2.51620356e-03 4.10193158e-03 2.12436974e-01 2.37407744e-01 1.70169860e-01 2.12924392e-03 6.32760376e-02 2.17314184e-01 1.70707535e-02 1.60412546e-02 1.89278480e-02 5.10244572e-04 5.92284487e-04 5.13424049e-04 4.08668101e-01 6.81309588e-03 1.90956553e-03 1.21725211e-03 7.77123030e-04 4.84946489e-01 4.70532756e-03 1.32584171e-02 9.32404250e-02 6.96954429e-02 4.74151112e-02 6.27757458e-04 7.31483684e-04 2.78172232e-02 1.45915663e-03 2.02094228e-03 3.53951612e-03 1.16142690e-01 7.43104750e-03 8.58559622e-04 9.14673205e-04 1.32047513e-03 2.73633865e-03 2.04702374e-03 1.96944294e-03 1.91621226e-03 1.39503060e-02 1.98819861e-03 5.28025448e-01 3.94984782e-01 5.69239020e-01 6.60052849e-03 8.23685378e-02 3.50645959e-01 1.32156193e-01 5.14051120e-04 6.03351276e-04 7.02928245e-01 1.42263565e-02 2.73725716e-03 8.80428706e-04 1.38803432e-03 8.22365866e-04 1.28604192e-03 7.33780086e-01 6.93216622e-01 3.49105820e-02 2.53198599e-03 1.94368965e-03 4.63895239e-02 4.28088475e-03 4.85380255e-02 2.08933298e-02 1.74973011e-01 4.35479224e-01 5.46257198e-01 4.64923650e-01 5.50269266e-04 5.10024256e-04 5.85213129e-04 2.22665668e-01 1.45723671e-03 1.02922693e-03 7.60290772e-03 7.44892657e-03 2.92957816e-02 8.32178593e-02 7.36505762e-02 2.22574687e-03 3.08784773e-03 5.66135440e-03 1.83257964e-02 2.00875220e-03 1.96174718e-03 2.17173644e-03 7.98490226e-01 7.62435436e-01 5.15932143e-01 6.72700407e-04 8.66173863e-01 6.88626838e-04 4.63498151e-03 1.12513383e-03 8.79943430e-01 8.90079677e-01 8.39998960e-01 2.66456991e-01 1.22993644e-02 7.59334909e-03 2.31379271e-03 3.01221788e-01 1.51447868e-02 1.18418876e-02 4.05476093e-02 3.04823346e-03 8.33775941e-03 5.56944430e-01 8.01824868e-01 8.52923214e-01 8.73988748e-01 4.91524581e-04 5.90923999e-04 7.01014069e-04 8.95416498e-01 1.65697117e-03 1.18677330e-03 8.41980451e-04 6.66446462e-02 8.63436833e-02 3.08064580e-01 7.25440025e-01 1.64012630e-02 2.76490524e-02 1.34762511e-01 3.33565623e-01 1.70381146e-03 9.25962925e-01 9.45718348e-01 8.48329393e-04 6.07746246e-04 1.52231031e-03 9.42932546e-01 9.58621979e-01 9.47843969e-01 7.86982417e-01 8.84499848e-02 7.19881132e-02 3.31302136e-02 1.27562732e-01 2.32063189e-01 1.18995197e-02 3.60293733e-03 5.09942397e-02 1.04217033e-03 9.24257576e-01 9.46924508e-01 9.41590667e-01 9.55405831e-01 4.80676594e-04 5.75029757e-04 6.99336699e-04 8.46729323e-04 9.86431003e-01 1.59849669e-03 9.50091111e-04 6.96503557e-04 6.73748493e-01 2.85693169e-01 2.99583435e-01 6.46285772e-01 7.65067577e-01 8.37590575e-01 9.68480170e-01 9.83903587e-01 1.76829135e-03 9.73485172e-01 9.24860239e-01 4.60821211e-01 1.76054478e-01 3.96894753e-01 6.56693637e-01 1.38340294e-02 6.68061227e-02 3.91719257e-03 2.37189278e-01 1.09222485e-03 6.47510914e-03 9.69099462e-01 9.72251177e-01 9.70215142e-01 9.76251483e-01 5.87821647e-04 6.84215513e-04 7.06742343e-04 8.71739467e-04 9.93978143e-01 1.82639877e-03 9.41932797e-01 8.35391104e-01 7.55190909e-01 9.18398201e-01 9.45718884e-01 9.77624178e-01 9.83158588e-01 1.82280038e-03 4.71510023e-01 7.20079780e-01 8.40910196e-01 8.04066658e-02 1.85846128e-02 2.69802839e-01 3.40527063e-03 1.13408105e-03 1.36838080e-02 5.75582404e-03 9.74347413e-01 9.77887630e-01 9.78222787e-01 9.68211651e-01 8.09941965e-04 1.10786431e-03 2.31459737e-03 9.90097404e-01 9.20259058e-01 9.46760833e-01 9.67894733e-01 9.25554335e-01 9.42867637e-01 2.32037762e-03 6.01557970e-01 8.74408960e-01 2.23937154e-01 6.80125505e-02 4.75154012e-01 1.21996528e-03 3.09403483e-02 1.29048191e-02 9.78803158e-01 9.77064192e-01 9.74201381e-01 9.53162968e-01 9.23074722e-01 2.16287584e-03 5.01762237e-03 9.78535950e-01 9.58180606e-01 9.23922598e-01 4.11881879e-03 7.63784230e-01 9.42878544e-01 8.88999641e-01 1.64245233e-01 5.94172299e-01 3.32080596e-03 5.10431789e-02 9.78274405e-01 9.70484138e-01 9.33688223e-01 1.05037820e-02 2.45977491e-02 9.78536308e-01 9.37656522e-01 1.81743987e-02 8.51526678e-01 9.50433075e-01 5.29056013e-01 1.67450592e-01 9.78449047e-01 9.72319424e-01 2.11842835e-01 3.50894868e-01 9.91001785e-01 9.29488122e-01 7.89979696e-01 9.93882596e-01 9.83512282e-01 9.54965651e-01 9.63234544e-01 9.89159465e-01 
