# vtk DataFile Version 2.0
results_case1_non_linear/iter2.vtk, Created by Freefem++ 
ASCII
DATASET UNSTRUCTURED_GRID
POINTS 961 float
0 0 0
0.033333333 0 0
0.066666667 0 0
0.1 0 0
0.13333333 0 0
0.16666667 0 0
0.2 0 0
0.23333333 0 0
0.26666667 0 0
0.3 0 0
0.33333333 0 0
0.36666667 0 0
0.4 0 0
0.43333333 0 0
0.46666667 0 0
0.5 0 0
0.53333333 0 0
0.56666667 0 0
0.6 0 0
0.63333333 0 0
0.66666667 0 0
0.7 0 0
0.73333333 0 0
0.76666667 0 0
0.8 0 0
0.83333333 0 0
0.86666667 0 0
0.9 0 0
0.93333333 0 0
0.96666667 0 0
1 0 0
0 0.033333333 0
0.033333333 0.033333333 0
0.066666667 0.033333333 0
0.1 0.033333333 0
0.13333333 0.033333333 0
0.16666667 0.033333333 0
0.2 0.033333333 0
0.23333333 0.033333333 0
0.26666667 0.033333333 0
0.3 0.033333333 0
0.33333333 0.033333333 0
0.36666667 0.033333333 0
0.4 0.033333333 0
0.43333333 0.033333333 0
0.46666667 0.033333333 0
0.5 0.033333333 0
0.53333333 0.033333333 0
0.56666667 0.033333333 0
0.6 0.033333333 0
0.63333333 0.033333333 0
0.66666667 0.033333333 0
0.7 0.033333333 0
0.73333333 0.033333333 0
0.76666667 0.033333333 0
0.8 0.033333333 0
0.83333333 0.033333333 0
0.86666667 0.033333333 0
0.9 0.033333333 0
0.93333333 0.033333333 0
0.96666667 0.033333333 0
1 0.033333333 0
0 0.066666667 0
0.033333333 0.066666667 0
0.066666667 0.066666667 0
0.1 0.066666667 0
0.13333333 0.066666667 0
0.16666667 0.066666667 0
0.2 0.066666667 0
0.23333333 0.066666667 0
0.26666667 0.066666667 0
0.3 0.066666667 0
0.33333333 0.066666667 0
0.36666667 0.066666667 0
0.4 0.066666667 0
0.43333333 0.066666667 0
0.46666667 0.066666667 0
0.5 0.066666667 0
0.53333333 0.066666667 0
0.56666667 0.066666667 0
0.6 0.066666667 0
0.63333333 0.066666667 0
0.66666667 0.066666667 0
0.7 0.066666667 0
0.73333333 0.066666667 0
0.76666667 0.066666667 0
0.8 0.066666667 0
0.83333333 0.066666667 0
0.86666667 0.066666667 0
0.9 0.066666667 0
0.93333333 0.066666667 0
0.96666667 0.066666667 0
1 0.066666667 0
0 0.1 0
0.033333333 0.1 0
0.066666667 0.1 0
0.1 0.1 0
0.13333333 0.1 0
0.16666667 0.1 0
0.2 0.1 0
0.23333333 0.1 0
0.26666667 0.1 0
0.3 0.1 0
0.33333333 0.1 0
0.36666667 0.1 0
0.4 0.1 0
0.43333333 0.1 0
0.46666667 0.1 0
0.5 0.1 0
0.53333333 0.1 0
0.56666667 0.1 0
0.6 0.1 0
0.63333333 0.1 0
0.66666667 0.1 0
0.7 0.1 0
0.73333333 0.1 0
0.76666667 0.1 0
0.8 0.1 0
0.83333333 0.1 0
0.86666667 0.1 0
0.9 0.1 0
0.93333333 0.1 0
0.96666667 0.1 0
1 0.1 0
0 0.13333333 0
0.033333333 0.13333333 0
0.066666667 0.13333333 0
0.1 0.13333333 0
0.13333333 0.13333333 0
0.16666667 0.13333333 0
0.2 0.13333333 0
0.23333333 0.13333333 0
0.26666667 0.13333333 0
0.3 0.13333333 0
0.33333333 0.13333333 0
0.36666667 0.13333333 0
0.4 0.13333333 0
0.43333333 0.13333333 0
0.46666667 0.13333333 0
0.5 0.13333333 0
0.53333333 0.13333333 0
0.56666667 0.13333333 0
0.6 0.13333333 0
0.63333333 0.13333333 0
0.66666667 0.13333333 0
0.7 0.13333333 0
0.73333333 0.13333333 0
0.76666667 0.13333333 0
0.8 0.13333333 0
0.83333333 0.13333333 0
0.86666667 0.13333333 0
0.9 0.13333333 0
0.93333333 0.13333333 0
0.96666667 0.13333333 0
1 0.13333333 0
0 0.16666667 0
0.033333333 0.16666667 0
0.066666667 0.16666667 0
0.1 0.16666667 0
0.13333333 0.16666667 0
0.16666667 0.16666667 0
0.2 0.16666667 0
0.23333333 0.16666667 0
0.26666667 0.16666667 0
0.3 0.16666667 0
0.33333333 0.16666667 0
0.36666667 0.16666667 0
0.4 0.16666667 0
0.43333333 0.16666667 0
0.46666667 0.16666667 0
0.5 0.16666667 0
0.53333333 0.16666667 0
0.56666667 0.16666667 0
0.6 0.16666667 0
0.63333333 0.16666667 0
0.66666667 0.16666667 0
0.7 0.16666667 0
0.73333333 0.16666667 0
0.76666667 0.16666667 0
0.8 0.16666667 0
0.83333333 0.16666667 0
0.86666667 0.16666667 0
0.9 0.16666667 0
0.93333333 0.16666667 0
0.96666667 0.16666667 0
1 0.16666667 0
0 0.2 0
0.033333333 0.2 0
0.066666667 0.2 0
0.1 0.2 0
0.13333333 0.2 0
0.16666667 0.2 0
0.2 0.2 0
0.23333333 0.2 0
0.26666667 0.2 0
0.3 0.2 0
0.33333333 0.2 0
0.36666667 0.2 0
0.4 0.2 0
0.43333333 0.2 0
0.46666667 0.2 0
0.5 0.2 0
0.53333333 0.2 0
0.56666667 0.2 0
0.6 0.2 0
0.63333333 0.2 0
0.66666667 0.2 0
0.7 0.2 0
0.73333333 0.2 0
0.76666667 0.2 0
0.8 0.2 0
0.83333333 0.2 0
0.86666667 0.2 0
0.9 0.2 0
0.93333333 0.2 0
0.96666667 0.2 0
1 0.2 0
0 0.23333333 0
0.033333333 0.23333333 0
0.066666667 0.23333333 0
0.1 0.23333333 0
0.13333333 0.23333333 0
0.16666667 0.23333333 0
0.2 0.23333333 0
0.23333333 0.23333333 0
0.26666667 0.23333333 0
0.3 0.23333333 0
0.33333333 0.23333333 0
0.36666667 0.23333333 0
0.4 0.23333333 0
0.43333333 0.23333333 0
0.46666667 0.23333333 0
0.5 0.23333333 0
0.53333333 0.23333333 0
0.56666667 0.23333333 0
0.6 0.23333333 0
0.63333333 0.23333333 0
0.66666667 0.23333333 0
0.7 0.23333333 0
0.73333333 0.23333333 0
0.76666667 0.23333333 0
0.8 0.23333333 0
0.83333333 0.23333333 0
0.86666667 0.23333333 0
0.9 0.23333333 0
0.93333333 0.23333333 0
0.96666667 0.23333333 0
1 0.23333333 0
0 0.26666667 0
0.033333333 0.26666667 0
0.066666667 0.26666667 0
0.1 0.26666667 0
0.13333333 0.26666667 0
0.16666667 0.26666667 0
0.2 0.26666667 0
0.23333333 0.26666667 0
0.26666667 0.26666667 0
0.3 0.26666667 0
0.33333333 0.26666667 0
0.36666667 0.26666667 0
0.4 0.26666667 0
0.43333333 0.26666667 0
0.46666667 0.26666667 0
0.5 0.26666667 0
0.53333333 0.26666667 0
0.56666667 0.26666667 0
0.6 0.26666667 0
0.63333333 0.26666667 0
0.66666667 0.26666667 0
0.7 0.26666667 0
0.73333333 0.26666667 0
0.76666667 0.26666667 0
0.8 0.26666667 0
0.83333333 0.26666667 0
0.86666667 0.26666667 0
0.9 0.26666667 0
0.93333333 0.26666667 0
0.96666667 0.26666667 0
1 0.26666667 0
0 0.3 0
0.033333333 0.3 0
0.066666667 0.3 0
0.1 0.3 0
0.13333333 0.3 0
0.16666667 0.3 0
0.2 0.3 0
0.23333333 0.3 0
0.26666667 0.3 0
0.3 0.3 0
0.33333333 0.3 0
0.36666667 0.3 0
0.4 0.3 0
0.43333333 0.3 0
0.46666667 0.3 0
0.5 0.3 0
0.53333333 0.3 0
0.56666667 0.3 0
0.6 0.3 0
0.63333333 0.3 0
0.66666667 0.3 0
0.7 0.3 0
0.73333333 0.3 0
0.76666667 0.3 0
0.8 0.3 0
0.83333333 0.3 0
0.86666667 0.3 0
0.9 0.3 0
0.93333333 0.3 0
0.96666667 0.3 0
1 0.3 0
0 0.33333333 0
0.033333333 0.33333333 0
0.066666667 0.33333333 0
0.1 0.33333333 0
0.13333333 0.33333333 0
0.16666667 0.33333333 0
0.2 0.33333333 0
0.23333333 0.33333333 0
0.26666667 0.33333333 0
0.3 0.33333333 0
0.33333333 0.33333333 0
0.36666667 0.33333333 0
0.4 0.33333333 0
0.43333333 0.33333333 0
0.46666667 0.33333333 0
0.5 0.33333333 0
0.53333333 0.33333333 0
0.56666667 0.33333333 0
0.6 0.33333333 0
0.63333333 0.33333333 0
0.66666667 0.33333333 0
0.7 0.33333333 0
0.73333333 0.33333333 0
0.76666667 0.33333333 0
0.8 0.33333333 0
0.83333333 0.33333333 0
0.86666667 0.33333333 0
0.9 0.33333333 0
0.93333333 0.33333333 0
0.96666667 0.33333333 0
1 0.33333333 0
0 0.36666667 0
0.033333333 0.36666667 0
0.066666667 0.36666667 0
0.1 0.36666667 0
0.13333333 0.36666667 0
0.16666667 0.36666667 0
0.2 0.36666667 0
0.23333333 0.36666667 0
0.26666667 0.36666667 0
0.3 0.36666667 0
0.33333333 0.36666667 0
0.36666667 0.36666667 0
0.4 0.36666667 0
0.43333333 0.36666667 0
0.46666667 0.36666667 0
0.5 0.36666667 0
0.53333333 0.36666667 0
0.56666667 0.36666667 0
0.6 0.36666667 0
0.63333333 0.36666667 0
0.66666667 0.36666667 0
0.7 0.36666667 0
0.73333333 0.36666667 0
0.76666667 0.36666667 0
0.8 0.36666667 0
0.83333333 0.36666667 0
0.86666667 0.36666667 0
0.9 0.36666667 0
0.93333333 0.36666667 0
0.96666667 0.36666667 0
1 0.36666667 0
0 0.4 0
0.033333333 0.4 0
0.066666667 0.4 0
0.1 0.4 0
0.13333333 0.4 0
0.16666667 0.4 0
0.2 0.4 0
0.23333333 0.4 0
0.26666667 0.4 0
0.3 0.4 0
0.33333333 0.4 0
0.36666667 0.4 0
0.4 0.4 0
0.43333333 0.4 0
0.46666667 0.4 0
0.5 0.4 0
0.53333333 0.4 0
0.56666667 0.4 0
0.6 0.4 0
0.63333333 0.4 0
0.66666667 0.4 0
0.7 0.4 0
0.73333333 0.4 0
0.76666667 0.4 0
0.8 0.4 0
0.83333333 0.4 0
0.86666667 0.4 0
0.9 0.4 0
0.93333333 0.4 0
0.96666667 0.4 0
1 0.4 0
0 0.43333333 0
0.033333333 0.43333333 0
0.066666667 0.43333333 0
0.1 0.43333333 0
0.13333333 0.43333333 0
0.16666667 0.43333333 0
0.2 0.43333333 0
0.23333333 0.43333333 0
0.26666667 0.43333333 0
0.3 0.43333333 0
0.33333333 0.43333333 0
0.36666667 0.43333333 0
0.4 0.43333333 0
0.43333333 0.43333333 0
0.46666667 0.43333333 0
0.5 0.43333333 0
0.53333333 0.43333333 0
0.56666667 0.43333333 0
0.6 0.43333333 0
0.63333333 0.43333333 0
0.66666667 0.43333333 0
0.7 0.43333333 0
0.73333333 0.43333333 0
0.76666667 0.43333333 0
0.8 0.43333333 0
0.83333333 0.43333333 0
0.86666667 0.43333333 0
0.9 0.43333333 0
0.93333333 0.43333333 0
0.96666667 0.43333333 0
1 0.43333333 0
0 0.46666667 0
0.033333333 0.46666667 0
0.066666667 0.46666667 0
0.1 0.46666667 0
0.13333333 0.46666667 0
0.16666667 0.46666667 0
0.2 0.46666667 0
0.23333333 0.46666667 0
0.26666667 0.46666667 0
0.3 0.46666667 0
0.33333333 0.46666667 0
0.36666667 0.46666667 0
0.4 0.46666667 0
0.43333333 0.46666667 0
0.46666667 0.46666667 0
0.5 0.46666667 0
0.53333333 0.46666667 0
0.56666667 0.46666667 0
0.6 0.46666667 0
0.63333333 0.46666667 0
0.66666667 0.46666667 0
0.7 0.46666667 0
0.73333333 0.46666667 0
0.76666667 0.46666667 0
0.8 0.46666667 0
0.83333333 0.46666667 0
0.86666667 0.46666667 0
0.9 0.46666667 0
0.93333333 0.46666667 0
0.96666667 0.46666667 0
1 0.46666667 0
0 0.5 0
0.033333333 0.5 0
0.066666667 0.5 0
0.1 0.5 0
0.13333333 0.5 0
0.16666667 0.5 0
0.2 0.5 0
0.23333333 0.5 0
0.26666667 0.5 0
0.3 0.5 0
0.33333333 0.5 0
0.36666667 0.5 0
0.4 0.5 0
0.43333333 0.5 0
0.46666667 0.5 0
0.5 0.5 0
0.53333333 0.5 0
0.56666667 0.5 0
0.6 0.5 0
0.63333333 0.5 0
0.66666667 0.5 0
0.7 0.5 0
0.73333333 0.5 0
0.76666667 0.5 0
0.8 0.5 0
0.83333333 0.5 0
0.86666667 0.5 0
0.9 0.5 0
0.93333333 0.5 0
0.96666667 0.5 0
1 0.5 0
0 0.53333333 0
0.033333333 0.53333333 0
0.066666667 0.53333333 0
0.1 0.53333333 0
0.13333333 0.53333333 0
0.16666667 0.53333333 0
0.2 0.53333333 0
0.23333333 0.53333333 0
0.26666667 0.53333333 0
0.3 0.53333333 0
0.33333333 0.53333333 0
0.36666667 0.53333333 0
0.4 0.53333333 0
0.43333333 0.53333333 0
0.46666667 0.53333333 0
0.5 0.53333333 0
0.53333333 0.53333333 0
0.56666667 0.53333333 0
0.6 0.53333333 0
0.63333333 0.53333333 0
0.66666667 0.53333333 0
0.7 0.53333333 0
0.73333333 0.53333333 0
0.76666667 0.53333333 0
[...]
CELL_DATA 1920
Scalars  Label int 1
LOOKUP_TABLE FreeFempp_table
0
0
0
0
0
0
0
0
0
0
0
0
0
0
0
0
0
0
0
0
0
0
0
0
0
0
0
0
0
0
0
0
0
0
0
0
0
0
0
0
0
0
0
0
0
0
0
0
0
0
0
0
0
0
0
0
0
0
0
0
0
0
0
0
0
0
0
0
0
0
0
0
0
0
0
0
0
0
0
0
0
0
0
0
0
0
0
0
0
0
0
0
0
0
0
0
0
0
0
0
0
0
0
0
0
0
0
0
0
0
0
0
0
0
0
0
0
0
0
0
0
0
0
0
0
0
0
0
0
0
0
0
0
0
0
0
0
0
0
0
0
0
0
0
0
0
0
0
0
0
0
0
0
0
0
0
0
0
0
0
0
0
0
0
0
0
0
0
0
0
0
0
0
0
0
0
0
0
0
0
0
0
0
0
0
0
0
0
0
0
0
0
0
0
0
0
0
0
0
0
0
0
0
0
0
0
0
0
0
0
0
0
0
0
0
0
0
0
0
0
0
0
0
0
0
0
0
0
0
0
0
0
0
0
0
0
0
0
0
0
0
0
0
0
0
0
0
0
0
0
0
0
0
0
0
0
0
0
0
0
0
0
0
0
0
0
0
0
0
0
0
0
0
0
0
0
0
0
0
0
0
0
0
0
0
0
0
0
0
0
0
0
0
0
0
0
0
0
0
0
0
0
0
0
0
0
0
0
0
0
0
0
0
0
0
0
0
0
0
0
0
0
0
0
0
0
0
0
0
0
0
0
0
0
0
0
0
0
0
0
0
0
0
0
0
0
0
0
0
0
0
0
0
0
0
0
0
0
0
0
0
0
0
0
0
0
0
0
0
0
0
0
0
0
0
0
0
0
0
0
0
0
0
0
0
0
0
0
0
0
0
0
0
0
0
0
0
0
0
0
0
0
0
0
0
0
0
0
0
0
0
0
0
0
0
0
0
0
0
0
0
0
0
0
0
0
0
0
0
0
0
0
0
0
0
0
0
0
0
0
0
0
0
0
0
0
0
0
0
0
0
0
0
0
0
0
0
0
0
0
0
0
0
0
0
0
0
0
0
0
0
0
0
0
0
0
0
0
0
0
0
0
0
0
0
0
0
0
0
0
0
0
0
0
0
0
0
0
0
0
0
0
0
0
0
0
0
0
0
0
0
0
0
0
0
0
0
0
0
0
0
0
0
0
0
0
0
0
0
0
0
0
0
0
0
0
0
0
0
0
0
0
0
0
0
0
0
0
0
0
0
0
0
0
0
0
0
0
0
0
0
0
0
0
0
0
0
0
0
0
0
0
0
0
0
0
0
0
0
0
0
0
0
0
0
0
0
0
0
0
0
0
0
0
0
0
0
0
0
0
0
0
0
0
0
0
0
0
0
0
0
0
0
0
0
0
0
0
0
0
0
0
0
0
0
0
0
0
0
0
0
0
0
0
0
0
0
0
0
0
0
0
0
0
0
0
0
0
0
0
0
0
0
0
0
0
0
0
0
0
0
0
0
0
0
0
0
0
0
0
0
0
0
0
0
0
0
0
0
0
0
0
0
0
0
0
0
0
0
0
0
0
0
0
0
0
0
0
0
0
0
0
0
0
0
0
0
0
0
0
0
0
0
0
0
0
0
0
0
0
0
0
0
0
0
0
0
0
0
0
0
0
0
0
0
0
0
0
0
0
0
0
0
0
0
0
0
0
0
0
0
0
0
0
0
0
0
0
0
0
0
0
0
0
0
0
0
0
0
0
0
0
0
0
0
0
0
0
0
0
0
0
0
0
0
0
0
0
0
0
0
0
0
0
0
0
0
0
0
0
0
0
0
0
0
0
0
0
0
0
0
0
0
0
0
0
0
0
0
0
0
0
0
0
0
0
0
0
0
0
0
0
0
0
0
0
0
0
0
0
0
0
0
0
0
0
0
0
0
0
0
0
0
0
0
0
0
0
0
0
0
0
0
0
0
0
0
0
0
0
0
0
0
0
0
0
0
0
0
0
0
0
0
0
0
0
0
0
0
0
0
0
0
0
0
0
0
0
0
0
0
0
0
0
0
0
0
0
0
0
0
0
0
0
0
0
0
0
0
0
0
0
0
0
0
0
0
0
0
0
0
0
0
0
0
0
0
0
0
0
0
0
0
0
0
0
0
0
0
0
0
0
0
0
0
0
0
0
0
0
0
0
0
0
0
0
0
0
0
0
0
0
0
0
0
0
0
0
0
0
0
0
0
0
0
0
0
0
0
0
0
0
0
0
0
0
0
0
0
0
0
0
0
0
0
0
0
0
0
0
0
0
0
0
0
0
0
0
0
0
0
0
0
0
0
0
0
0
0
0
0
0
0
0
0
0
0
0
0
0
0
0
0
0
0
0
0
0
0
0
0
0
0
0
0
0
0
0
0
0
0
0
0
0
0
0
0
0
0
0
0
0
0
0
0
0
0
0
0
0
0
0
0
0
0
0
0
0
0
0
0
0
0
0
0
0
0
0
0
0
0
0
0
0
0
0
0
0
0
0
0
0
0
0
0
0
0
0
0
0
0
0
0
0
0
0
0
0
0
0
0
0
0
0
0
0
0
0
0
0
0
0
0
0
0
0
0
0
0
0
0
0
0
0
0
0
0
0
0
0
0
0
0
0
0
0
0
0
0
0
0
0
0
0
0
0
0
0
0
0
0
0
0
0
0
0
0
0
0
0
0
0
0
0
0
0
0
0
0
0
0
0
0
0
0
0
0
0
0
0
0
0
0
0
0
0
0
0
0
0
0
0
0
0
0
0
0
0
0
0
0
0
0
0
0
0
0
0
0
0
0
0
0
0
0
0
0
0
0
0
0
0
0
0
0
0
0
0
0
0
0
0
0
0
0
0
0
0
0
0
0
0
0
0
0
0
0
0
0
0
0
0
0
0
0
0
0
0
0
0
0
0
0
0
0
0
0
0
0
0
0
0
0
0
0
0
0
0
0
0
0
0
0
0
0
0
0
0
0
0
0
0
0
0
0
0
0
0
0
0
0
0
0
0
0
0
0
0
0
0
0
0
0
0
0
0
0
0
0
0
0
0
0
0
0
0
0
0
0
0
0
0
0
0
0
0
0
0
0
0
0
0
0
0
0
0
0
0
0
0
0
0
0
0
0
0
0
0
0
0
0
0
0
0
0
0
0
0
0
0
0
0
0
0
0
0
0
0
0
0
0
0
0
0
0
0
0
0
0
0
0
0
0
0
0
0
0
0
0
0
0
0
0
0
0
0
0
0
0
0
0
0
0
0
0
0
0
0
0
0
0
0
0
0
0
0
0
0
0
0
0
0
0
0
0
0
0
0
0
0
0
0
0
0
0
0
0
0
0
0
0
0
0
0
0
0
0
0
0
0
0
0
0
0
0
0
0
0
0
0
0
0
0
0
0
0
0
0
0
0
0
0
0
0
0
0
0
0
0
0
0
0
0
0
0
0
0
0
0
0
0
0
0
0
0
0
0
0
0
0
0
0
0
0
0
0
0
0
0
0
0
0
0
0
0
0
0
0
0
0
0
0
0
0
0
0
0
0
0
0
0
0
0
0
0
0
0
0
0
0
0
0
0
0
0
0
0
0
0
0
0
0
0
0
0
0
0
0
0
0
0
0
0
0
0
0
0
0
0
0
0
0
0
0
0
0
0
0
0
0
0
0
0
0
0
0
0
0
0
0
0
0
0
0
0
0
0
0
0
0
0
0
0
0
0
0
0
0
0
0
0
0
0
0
0
0
0
0
0
0
0
0
0
0
0
0
0
0
0
0
0
0
0
0
0
0
0
0
0
0
0
0
0
0
0
0
0
0
0
0
0
0
0
0
0
0
0
0
0
0
0
0
0
0
0
0
0
0
0
0
0
0
0
0
0
0
0
0
0
0
0
0
0
0
0
0
0
0
0
0
0
0
0
0
0
0
0
0
0
0
0
0
0
0
0
0
0
0
0
0
0
0
0
0
0
0
0
0
0
0
0
0
0
0
0
0
0
0
0
0
0
0
0
0
0
0
0
0
0
0
0
0
0
0
0
0
0
0
0
0
0
0
0
0
0
0
0
0
0
0
1
1
1
1
1
1
1
1
1
1
1
1
1
1
1
1
1
1
1
1
1
1
1
1
1
1
1
1
1
1
2
2
2
2
2
2
2
2
2
2
2
2
2
2
2
2
2
2
2
2
2
2
2
2
2
2
2
2
2
2
3
3
3
3
3
3
3
3
3
3
3
3
3
3
3
3
3
3
3
3
3
3
3
3
3
3
3
3
3
3
4
4
4
4
4
4
4
4
4
4
4
4
4
4
4
4
4
4
4
4
4
4
4
4
4
4
4
4
4
4

LOOKUP_TABLE FreeFempp_table 5
1.00000000 0.00000000 0.00000000 1.00000000
1.00000000 1.00000000 0.00000000 1.00000000
1.00000000 0.00000000 1.00000000 1.00000000
0.00000000 1.00000000 0.00000000 1.00000000
0.00000000 1.00000000 1.00000000 1.00000000

POINT_DATA 961
FIELD FieldData 1
Density 1 961 float
3.57661676e-03 5.17754350e-03 5.64211281e-03 5.94920944e-03 5.23550296e-03 4.29944415e-03 3.81873455e-03 3.16193234e-03 1.84365991e-03 1.12204254e-01 3.10868770e-01 4.23630983e-01 4.47200835e-01 4.45334613e-01 4.41355675e-01 4.35430437e-01 4.25655097e-01 4.03888106e-01 3.59586269e-01 2.95880765e-01 2.38195702e-01 2.09022149e-01 2.18086168e-01 2.94804364e-01 5.22000194e-01 8.55962753e-01 9.77352977e-01 9.71815348e-01 1.78440730e-03 1.69810641e-03 4.50797796e-01 2.59326794e-03 5.17825782e-03 4.99297120e-03 5.31518972e-03 5.16920211e-03 4.38542990e-03 3.65617475e-03 3.89377726e-03 3.70674441e-03 3.19792959e-03 2.63416837e-03 2.46933531e-02 1.93554193e-01 2.71302521e-01 2.96226710e-01 3.08593154e-01 3.10122162e-01 2.80019403e-01 1.97980613e-01 1.09747425e-01 6.29131123e-02 4.44306247e-02 4.18366939e-02 5.83127327e-02 1.66123003e-01 7.55668879e-01 9.83799517e-01 9.91434932e-01 1.78116630e-03 2.10737111e-03 5.95627874e-02 2.41476782e-02 1.04103973e-02 9.25466232e-03 1.07723996e-02 1.60379745e-02 2.49788146e-02 3.07515059e-02 2.18252838e-02 1.94061571e-03 2.48163263e-03 4.37552948e-03 4.00457578e-03 2.07298924e-03 1.71117217e-03 9.52500552e-02 1.36037380e-01 1.46783307e-01 1.33275092e-01 1.04082234e-01 7.15565160e-02 4.93505672e-02 3.83211002e-02 3.72160710e-02 5.43150716e-02 1.74894229e-01 7.82715142e-01 9.78843689e-01 9.82924640e-01 1.01873949e-01 2.07562023e-03 1.86232280e-03 2.31897067e-02 9.12071951e-03 1.07036280e-02 1.60703640e-02 2.87393723e-02 4.28236164e-02 5.48213795e-02 6.35088831e-02 6.58159479e-02 6.90685436e-02 5.18039912e-02 2.66011734e-03 2.63250642e-03 2.45159073e-03 2.28209188e-03 2.01532850e-03 3.86860929e-02 4.32438329e-02 3.62348035e-02 2.93926280e-02 2.50241309e-02 2.41860151e-02 2.65507344e-02 4.11982052e-02 1.35251209e-01 7.18614340e-01 9.72264528e-01 9.76668835e-01 4.73028570e-01 1.87660055e-03 1.89324061e-03 3.39664891e-02 1.16066821e-02 1.40128937e-02 2.24625599e-02 4.17661332e-02 5.98107912e-02 7.45138228e-02 8.67521465e-02 9.48389620e-02 9.88582820e-02 1.04783587e-01 1.01796709e-01 7.13382289e-02 1.70153880e-03 2.05132505e-03 2.50946404e-03 2.40097917e-03 1.85071363e-03 1.67296373e-03 3.50397360e-03 6.98133372e-03 9.84743051e-03 1.24545591e-02 2.26221383e-02 8.99398625e-02 6.61671102e-01 9.68461156e-01 9.75292981e-01 6.14864826e-01 1.88784313e-03 1.90729136e-03 6.41789287e-02 1.81835573e-02 2.38010716e-02 3.95018943e-02 6.78317845e-02 9.25787240e-02 1.14051916e-01 1.32838115e-01 1.47558406e-01 1.57574698e-01 1.65291145e-01 1.68207586e-01 1.66544721e-01 1.58885106e-01 1.28169954e-01 6.96664490e-03 1.95120217e-03 1.99868646e-03 1.87865109e-03 1.80092058e-03 2.20939540e-03 3.43175326e-03 4.76448098e-03 9.56707262e-03 4.60274331e-02 5.52613616e-01 9.62091565e-01 9.73992586e-01 6.82471454e-01 1.87877589e-03 1.89950073e-03 1.56082034e-01 3.88563313e-02 5.73963597e-02 9.12513658e-02 1.28812388e-01 1.64807200e-01 1.97782919e-01 2.26026863e-01 2.48202235e-01 2.64815122e-01 2.78245121e-01 2.88137287e-01 2.96731353e-01 3.10020357e-01 3.26825678e-01 2.92672604e-01 1.71758577e-01 1.12402029e-02 1.63494283e-03 1.72505970e-03 1.81107689e-03 2.57345848e-03 2.95173516e-03 4.72156936e-03 2.26826854e-02 4.39636946e-01 9.55829680e-01 9.74625230e-01 7.46057332e-01 1.86500873e-03 1.88554788e-03 3.45370501e-01 1.31705374e-01 1.99171692e-01 2.44359449e-01 2.82078505e-01 3.27036709e-01 3.66539955e-01 3.96093249e-01 4.16191757e-01 4.29635733e-01 4.39531803e-01 4.47220474e-01 4.56133366e-01 4.71993506e-01 4.99589056e-01 5.34672260e-01 5.43743432e-01 4.30202276e-01 1.61450163e-01 1.99877564e-02 6.74969656e-03 4.30066977e-03 4.12370684e-03 3.23435152e-03 1.88592225e-02 4.25059527e-01 9.48990464e-01 9.75770354e-01 8.17166269e-01 1.84202881e-03 1.86437217e-03 6.02420270e-01 4.43618506e-01 5.60898483e-01 5.72626352e-01 5.77775002e-01 5.96848011e-01 6.08786404e-01 6.12255931e-01 6.09161735e-01 6.02221131e-01 5.93652546e-01 5.84844708e-01 5.78438818e-01 5.78168690e-01 5.87374985e-01 6.07860863e-01 6.38485193e-01 6.59289539e-01 6.34678483e-01 5.25431216e-01 3.61465126e-01 2.03931212e-01 4.52473164e-02 2.37943083e-02 7.20652342e-02 5.64172626e-01 9.40358281e-01 9.76028442e-01 8.81369829e-01 1.80689245e-03 1.83572562e-03 8.21709692e-01 8.64000857e-01 8.73679996e-01 8.47215772e-01 8.22869480e-01 8.07493865e-01 7.89069057e-01 7.67828465e-01 7.43822336e-01 7.17975914e-01 6.91303313e-01 6.64832950e-01 6.40513659e-01 6.20993197e-01 6.08546376e-01 6.04596555e-01 6.09993756e-01 6.22236311e-01 6.31894112e-01 6.27695203e-01 6.14525497e-01 5.80885589e-01 4.42105532e-01 2.97102034e-01 3.91060263e-01 7.16681063e-01 9.26876783e-01 9.73854661e-01 9.20382798e-01 1.76360761e-03 1.80115562e-03 8.78085554e-01 9.40606177e-01 9.23744738e-01 9.09428120e-01 8.91877353e-01 8.75571907e-01 8.54322672e-01 8.29114258e-01 7.99784482e-01 7.66979277e-01 7.31617808e-01 6.94961607e-01 6.59086585e-01 6.26747608e-01 6.00585639e-01 5.82315028e-01 5.72106421e-01 5.68259776e-01 5.68210423e-01 5.68587661e-01 5.68505526e-01 5.68743229e-01 5.59318781e-01 5.56649506e-01 6.32672966e-01 7.83004820e-01 9.12637949e-01 9.68400538e-01 9.35853481e-01 1.72109564e-03 1.76388794e-03 7.40338802e-01 8.69733989e-01 8.57565165e-01 8.69182289e-01 8.66944730e-01 8.60223949e-01 8.45170319e-01 8.24140191e-01 7.97381103e-01 7.65724242e-01 7.30175436e-01 6.92037463e-01 6.53182149e-01 6.16439402e-01 5.85430264e-01 5.63251376e-01 5.50367415e-01 5.44094801e-01 5.41514337e-01 5.41359246e-01 5.44806361e-01 5.57189345e-01 5.84104061e-01 6.34046495e-01 7.14068830e-01 8.11164975e-01 9.00784671e-01 9.58245337e-01 9.33078468e-01 1.68574334e-03 1.72753178e-03 3.09147954e-01 3.26681376e-01 4.78146821e-01 6.44696653e-01 7.27986872e-01 7.63161957e-01 7.70759642e-01 7.63984323e-01 7.47634768e-01 7.24628747e-01 6.96903646e-01 6.65826082e-01 6.32643461e-01 6.00359976e-01 5.73824108e-01 5.55109143e-01 5.45800090e-01 5.44515371e-01 5.48038065e-01 5.54573596e-01 5.64966440e-01 5.84112406e-01 6.19828224e-01 6.77178621e-01 7.51330376e-01 8.28067064e-01 8.93016100e-01 9.41075444e-01 9.06558692e-01 1.65868097e-03 1.69481209e-03 7.76888132e-02 5.72404750e-02 1.28338978e-01 3.02634954e-01 4.77050573e-01 5.82650363e-01 6.33391261e-01 6.53961957e-01 6.57223880e-01 6.50152445e-01 6.36632264e-01 6.18566513e-01 5.97552776e-01 5.79133034e-01 5.68223119e-01 5.61523378e-01 5.59141815e-01 5.63931406e-01 5.76180518e-01 5.93670309e-01 6.13158345e-01 6.35153234e-01 6.65245831e-01 7.10872650e-01 7.73286462e-01 8.40353310e-01 8.90711069e-01 9.15045738e-01 8.20009232e-01 1.63876067e-03 1.66737335e-03 1.73873715e-02 1.44080231e-02 4.08922881e-02 1.46446675e-01 2.97140211e-01 4.16177928e-01 4.88539964e-01 5.28810620e-01 5.49330950e-01 5.57763278e-01 5.58604717e-01 5.54301739e-01 5.48151076e-01 5.48507810e-01 5.56825995e-01 5.62182903e-01 5.78500807e-01 5.93938172e-01 6.16905689e-01 6.47167861e-01 6.76425457e-01 6.99797153e-01 7.18652070e-01 7.42066503e-01 7.83797264e-01 8.43907297e-01 8.90876174e-01 8.81657898e-01 5.28437495e-01 1.62644347e-03 1.64654793e-03 5.84613066e-03 5.81595208e-03 1.67578496e-02 8.82069841e-02 2.12561637e-01 3.17490846e-01 3.86497229e-01 4.28991944e-01 4.55029726e-01 4.70850229e-01 4.80061501e-01 4.85241205e-01 4.91375923e-01 5.06914854e-01 5.25250256e-01 5.45367181e-01 5.79135716e-01 6.15920246e-01 6.55289233e-01 7.01325774e-01 7.41660178e-01 7.69655168e-01 7.83657432e-01 7.88425207e-01 8.00394416e-01 8.38840902e-01 8.75827909e-01 7.97334373e-01 6.62972778e-02 1.71510770e-03 1.65551691e-03 3.07564787e-03 3.46887903e-03 1.08193979e-02 6.84148371e-02 1.70029446e-01 2.60321021e-01 3.22616994e-01 3.61936331e-01 3.87104690e-01 4.04034108e-01 4.15928423e-01 4.25216109e-01 4.36864138e-01 4.58863676e-01 4.90738392e-01 5.23555338e-01 5.70565641e-01 6.17941678e-01 6.77016795e-01 7.40497649e-01 7.93233037e-01 8.30245197e-01 8.50715339e-01 8.55642080e-01 8.49812865e-01 8.43349159e-01 7.99296856e-01 3.14579338e-01 6.74828282e-03 1.94066961e-03 1.86491502e-03 1.98434899e-03 2.30767508e-03 1.14219515e-02 7.11978674e-02 1.53069064e-01 2.27142662e-01 2.82010406e-01 3.17996144e-01 3.41399997e-01 3.57705027e-01 3.70201766e-01 3.81213307e-01 3.94210875e-01 4.14868116e-01 4.46074158e-01 4.86973226e-01 5.36935866e-01 5.98703504e-01 6.75486624e-01 7.54155278e-01 8.19646657e-01 8.67538929e-01 8.98226500e-01 9.13727105e-01 9.14590478e-01 8.90663862e-01 7.40136504e-01 9.61737409e-02 5.82445553e-03 2.55044457e-03 2.65720813e-03 1.67821185e-03 1.71722425e-03 1.66869611e-02 9.00030807e-02 1.55468583e-01 2.12484315e-01 2.57425815e-01 2.88747638e-01 3.10079873e-01 3.25636685e-01 3.38423282e-01 3.50640476e-01 3.64651650e-01 3.83383214e-01 4.09607440e-01 4.45958883e-01 4.96291280e-01 5.63925087e-01 6.48221374e-01 7.36866236e-01 8.15451741e-01 8.76081705e-01 9.17079926e-01 9.41319287e-01 9.52297866e-01 9.47857738e-01 8.82328570e-01 2.99023002e-01 1.90743543e-02 7.58288102e-03 9.18148831e-03 1.69458601e-03 1.67478865e-03 2.77091116e-02 1.16926953e-01 1.67619914e-01 2.09022984e-01 2.42946565e-01 2.68216401e-01 2.86852539e-01 3.01579595e-01 3.14568430e-01 3.27549070e-01 3.42233270e-01 3.60364079e-01 3.83708417e-01 4.15047824e-01 4.58950907e-01 5.19814253e-01 5.98421574e-01 6.88144624e-01 7.76694953e-01 8.51967990e-01 9.06831861e-01 9.41543460e-01 9.60759759e-01 9.68740761e-01 9.65207696e-01 9.29815173e-01 8.07350397e-01 7.94225991e-01 5.11122882e-01 1.72606413e-03 1.69833470e-03 4.85806353e-02 1.46044910e-01 1.80781677e-01 2.08784118e-01 2.32561260e-01 2.51651108e-01 2.67374277e-01 2.81269997e-01 2.94482976e-01 3.07955503e-01 3.22716057e-01 3.39899957e-01 3.60777706e-01 3.87377113e-01 4.23098803e-01 4.71985310e-01 5.36758661e-01 6.15930736e-01 7.02740669e-01 7.86682010e-01 8.57018411e-01 9.07972157e-01 9.40398037e-01 9.58579659e-01 9.67025161e-01 9.68346536e-01 9.75423217e-01 9.80439246e-01 9.31329012e-01 1.77178637e-03 1.73448853e-03 8.02244917e-02 1.75729752e-01 1.91662759e-01 2.07164466e-01 2.22191706e-01 2.35902727e-01 2.49063969e-01 2.62328267e-01 2.75915682e-01 2.89930671e-01 3.04673314e-01 3.20720881e-01 3.38961959e-01 3.60885680e-01 3.88879836e-01 4.25932318e-01 4.74632084e-01 5.35638034e-01 6.06703579e-01 6.82502210e-01 7.55068302e-01 8.16358626e-01 8.61476600e-01 8.88725400e-01 8.96511674e-01 8.78687561e-01 8.86497438e-01 7.93279648e-01 8.05982411e-01 1.83820433e-03 1.78356527e-03 1.17503233e-01 2.03970328e-01 1.99876815e-01 2.03057081e-01 2.10479006e-01 2.19843328e-01 2.31036827e-01 2.43926689e-01 2.57991761e-01 2.72637248e-01 2.87524700e-01 3.02713692e-01 3.18704635e-01 3.36541653e-01 3.57877493e-01 3.84736151e-01 4.18933541e-01 4.61324215e-01 5.11325359e-01 5.66651881e-01 6.22882009e-01 6.73728943e-01 7.12401271e-01 7.31105149e-01 7.15242445e-01 6.41631305e-01 6.09902918e-01 5.60249746e-01 5.60712218e-01 1.94651901e-03 1.85157731e-03 1.53297484e-01 2.28204757e-01 2.05302194e-01 1.96961999e-01 1.97938815e-01 2.03975663e-01 2.13781759e-01 2.26453111e-01 2.40901753e-01 2.56042242e-01 2.71073222e-01 2.85636485e-01 2.99864262e-01 3.14393103e-01 3.30314100e-01 3.48954797e-01 3.71497422e-01 3.98564070e-01 4.29973245e-01 4.64575559e-01 4.99814630e-01 5.31319678e-01 5.53460836e-01 5.59485257e-01 5.36980748e-01 4.83392149e-01 4.41287518e-01 3.42626870e-01 4.89204884e-01 2.16441811e-03 1.95539696e-03 1.82054311e-01 2.46797338e-01 2.07394004e-01 1.89350456e-01 1.85543314e-01 1.89438537e-01 1.98446155e-01 2.10956678e-01 2.25492358e-01 2.40702510e-01 2.55538642e-01 2.69377559e-01 2.82057762e-01 2.93861359e-01 3.05434734e-01 3.17609340e-01 3.31137300e-01 3.46430182e-01 3.63408893e-01 3.81420046e-01 3.98960948e-01 4.13129568e-01 4.19810206e-01 4.15300369e-01 3.95407110e-01 3.82438093e-01 3.58329833e-01 2.82884091e-01 4.12069201e-01 2.71490659e-03 2.13806331e-03 2.01496735e-01 2.58698970e-01 2.04562455e-01 1.79843456e-01 1.73817277e-01 1.77190155e-01 1.86123475e-01 1.98496565e-01 2.12672129e-01 2.27281377e-01 2.41264775e-01 2.53920078e-01 2.64909744e-01 2.74237216e-01 2.82185078e-01 2.89192855e-01 2.95677960e-01 3.01848501e-01 3.07577521e-01 3.12353641e-01 3.15183997e-01 3.14155012e-01 3.05996507e-01 2.88367778e-01 2.61168450e-01 2.54854918e-01 2.39698753e-01 1.86008677e-01 3.80130708e-01 4.54149907e-03 2.34551355e-03 1.99656680e-01 2.59234428e-01 1.93333074e-01 1.67432994e-01 1.63005292e-01 1.67915061e-01 1.77512705e-01 1.89601749e-01 2.02748239e-01 2.15864301e-01 2.28118271e-01 2.38903791e-01 2.47819349e-01 2.54654884e-01 2.59371161e-01 2.62047112e-01 2.62781799e-01 2.61564285e-01 2.58153528e-01 2.52030730e-01 2.42463723e-01 2.28523135e-01 2.08586514e-01 1.81219459e-01 1.48918048e-01 1.21615581e-01 7.65489489e-02 6.07509501e-02 2.46863276e-01 1.49145424e-02 3.34627088e-03 1.05181091e-01 2.36992285e-01 1.71784893e-01 1.53190613e-01 1.54670075e-01 1.62613496e-01 1.72773778e-01 1.83697239e-01 1.94674730e-01 2.05196202e-01 2.14811206e-01 2.23082349e-01 2.29574084e-01 2.33867377e-01 2.35588744e-01 2.34435216e-01 2.30176806e-01 2.22628325e-01 2.11606905e-01 1.96939901e-01 1.78633332e-01 1.57207295e-01 1.33665770e-01 1.08464465e-01 8.30893144e-02 5.81018925e-02 2.03082170e-02 1.64036676e-02 7.59027526e-02 3.25961858e-02 5.84813068e-03 5.59741585e-03 2.24999502e-01 1.54018059e-01 1.46783963e-01 1.54247075e-01 1.62982240e-01 1.70983717e-01 1.78450495e-01 1.85630307e-01 1.92529842e-01 1.98941916e-01 2.04476297e-01 2.08579391e-01 2.10566238e-01 2.09682271e-01 2.05203146e-01 1.96570665e-01 1.83550090e-01 1.66383028e-01 1.45907909e-01 1.23617619e-01 1.01572432e-01 8.20070803e-02 6.62642121e-02 5.34275249e-02 3.96781452e-02 7.98464287e-03 4.35270136e-03 1.79591179e-02 3.57479003e-04 2.78577977e-03 2.21513882e-02 4.11414176e-01 1.92166433e-01 1.66351706e-01 1.67334199e-01 1.68176457e-01 1.69392079e-01 1.71472162e-01 1.74386710e-01 1.77922741e-01 1.81730300e-01 1.85279235e-01 1.87811553e-01 1.88329235e-01 1.85653418e-01 1.78596035e-01 1.66274160e-01 1.48545474e-01 1.26424998e-01 1.02190450e-01 7.88792297e-02 5.92445247e-02 4.48090360e-02 3.56277116e-02 3.02519463e-02 2.45650783e-02 9.76087339e-03 1.36154669e-03 5.92000596e-03 2.47583172e-04 2.09443271e-04 9.05924857e-01 7.38657534e-01 5.89772403e-01 4.42111909e-01 4.00501788e-01 3.85289431e-01 3.80628556e-01 3.80538642e-01 3.82572114e-01 3.85694087e-01 3.89307439e-01 3.92825633e-01 3.95479620e-01 3.96228075e-01 3.93728733e-01 3.86369020e-01 3.72386664e-01 3.50147039e-01 3.18672001e-01 2.78455198e-01 2.32311755e-01 1.85503915e-01 1.44266427e-01 1.13177627e-01 9.34089273e-02 8.21494162e-02 5.81615791e-02 6.59733452e-03 4.47169179e-03 
