# vtk DataFile Version 2.0
results/1_density.vtk, Created by Freefem++ 
ASCII
DATASET UNSTRUCTURED_GRID
POINTS 961 float
0 0 0
0.033333333 0 0
0.066666667 0 0
0.1 0 0
0.13333333 0 0
0.16666667 0 0
0.2 0 0
0.23333333 0 0
0.26666667 0 0
0.3 0 0
0.33333333 0 0
0.36666667 0 0
0.4 0 0
0.43333333 0 0
0.46666667 0 0
0.5 0 0
0.53333333 0 0
0.56666667 0 0
0.6 0 0
0.63333333 0 0
0.66666667 0 0
0.7 0 0
0.73333333 0 0
0.76666667 0 0
0.8 0 0
0.83333333 0 0
0.86666667 0 0
0.9 0 0
0.93333333 0 0
0.96666667 0 0
1 0 0
0 0.033333333 0
0.033333333 0.033333333 0
0.066666667 0.033333333 0
0.1 0.033333333 0
0.13333333 0.033333333 0
0.16666667 0.033333333 0
0.2 0.033333333 0
0.23333333 0.033333333 0
0.26666667 0.033333333 0
0.3 0.033333333 0
0.33333333 0.033333333 0
0.36666667 0.033333333 0
0.4 0.033333333 0
0.43333333 0.033333333 0
0.46666667 0.033333333 0
0.5 0.033333333 0
0.53333333 0.033333333 0
0.56666667 0.033333333 0
0.6 0.033333333 0
0.63333333 0.033333333 0
0.66666667 0.033333333 0
0.7 0.033333333 0
0.73333333 0.033333333 0
0.76666667 0.033333333 0
0.8 0.033333333 0
0.83333333 0.033333333 0
0.86666667 0.033333333 0
0.9 0.033333333 0
0.93333333 0.033333333 0
0.96666667 0.033333333 0
1 0.033333333 0
0 0.066666667 0
0.033333333 0.066666667 0
0.066666667 0.066666667 0
0.1 0.066666667 0
0.13333333 0.066666667 0
0.16666667 0.066666667 0
0.2 0.066666667 0
0.23333333 0.066666667 0
0.26666667 0.066666667 0
0.3 0.066666667 0
0.33333333 0.066666667 0
0.36666667 0.066666667 0
0.4 0.066666667 0
0.43333333 0.066666667 0
0.46666667 0.066666667 0
0.5 0.066666667 0
0.53333333 0.066666667 0
0.56666667 0.066666667 0
0.6 0.066666667 0
0.63333333 0.066666667 0
0.66666667 0.066666667 0
0.7 0.066666667 0
0.73333333 0.066666667 0
0.76666667 0.066666667 0
0.8 0.066666667 0
0.83333333 0.066666667 0
0.86666667 0.066666667 0
0.9 0.066666667 0
0.93333333 0.066666667 0
0.96666667 0.066666667 0
1 0.066666667 0
0 0.1 0
0.033333333 0.1 0
0.066666667 0.1 0
0.1 0.1 0
0.13333333 0.1 0
0.16666667 0.1 0
0.2 0.1 0
0.23333333 0.1 0
0.26666667 0.1 0
0.3 0.1 0
0.33333333 0.1 0
0.36666667 0.1 0
0.4 0.1 0
0.43333333 0.1 0
0.46666667 0.1 0
0.5 0.1 0
0.53333333 0.1 0
0.56666667 0.1 0
0.6 0.1 0
0.63333333 0.1 0
0.66666667 0.1 0
0.7 0.1 0
0.73333333 0.1 0
0.76666667 0.1 0
0.8 0.1 0
0.83333333 0.1 0
0.86666667 0.1 0
0.9 0.1 0
0.93333333 0.1 0
0.96666667 0.1 0
1 0.1 0
0 0.13333333 0
0.033333333 0.13333333 0
0.066666667 0.13333333 0
0.1 0.13333333 0
0.13333333 0.13333333 0
0.16666667 0.13333333 0
0.2 0.13333333 0
0.23333333 0.13333333 0
0.26666667 0.13333333 0
0.3 0.13333333 0
0.33333333 0.13333333 0
0.36666667 0.13333333 0
0.4 0.13333333 0
0.43333333 0.13333333 0
0.46666667 0.13333333 0
0.5 0.13333333 0
0.53333333 0.13333333 0
0.56666667 0.13333333 0
0.6 0.13333333 0
0.63333333 0.13333333 0
0.66666667 0.13333333 0
0.7 0.13333333 0
0.73333333 0.13333333 0
0.76666667 0.13333333 0
0.8 0.13333333 0
0.83333333 0.13333333 0
0.86666667 0.13333333 0
0.9 0.13333333 0
0.93333333 0.13333333 0
0.96666667 0.13333333 0
1 0.13333333 0
0 0.16666667 0
0.033333333 0.16666667 0
0.066666667 0.16666667 0
0.1 0.16666667 0
0.13333333 0.16666667 0
0.16666667 0.16666667 0
0.2 0.16666667 0
0.23333333 0.16666667 0
0.26666667 0.16666667 0
0.3 0.16666667 0
0.33333333 0.16666667 0
0.36666667 0.16666667 0
0.4 0.16666667 0
0.43333333 0.16666667 0
0.46666667 0.16666667 0
0.5 0.16666667 0
0.53333333 0.16666667 0
0.56666667 0.16666667 0
0.6 0.16666667 0
0.63333333 0.16666667 0
0.66666667 0.16666667 0
0.7 0.16666667 0
0.73333333 0.16666667 0
0.76666667 0.16666667 0
0.8 0.16666667 0
0.83333333 0.16666667 0
0.86666667 0.16666667 0
0.9 0.16666667 0
0.93333333 0.16666667 0
0.96666667 0.16666667 0
1 0.16666667 0
0 0.2 0
0.033333333 0.2 0
0.066666667 0.2 0
0.1 0.2 0
0.13333333 0.2 0
0.16666667 0.2 0
0.2 0.2 0
0.23333333 0.2 0
0.26666667 0.2 0
0.3 0.2 0
0.33333333 0.2 0
0.36666667 0.2 0
0.4 0.2 0
0.43333333 0.2 0
0.46666667 0.2 0
0.5 0.2 0
0.53333333 0.2 0
0.56666667 0.2 0
0.6 0.2 0
0.63333333 0.2 0
0.66666667 0.2 0
0.7 0.2 0
0.73333333 0.2 0
0.76666667 0.2 0
0.8 0.2 0
0.83333333 0.2 0
0.86666667 0.2 0
0.9 0.2 0
0.93333333 0.2 0
0.96666667 0.2 0
1 0.2 0
0 0.23333333 0
0.033333333 0.23333333 0
0.066666667 0.23333333 0
0.1 0.23333333 0
0.13333333 0.23333333 0
0.16666667 0.23333333 0
0.2 0.23333333 0
0.23333333 0.23333333 0
0.26666667 0.23333333 0
0.3 0.23333333 0
0.33333333 0.23333333 0
0.36666667 0.23333333 0
0.4 0.23333333 0
0.43333333 0.23333333 0
0.46666667 0.23333333 0
0.5 0.23333333 0
0.53333333 0.23333333 0
0.56666667 0.23333333 0
0.6 0.23333333 0
0.63333333 0.23333333 0
0.66666667 0.23333333 0
0.7 0.23333333 0
0.73333333 0.23333333 0
0.76666667 0.23333333 0
0.8 0.23333333 0
0.83333333 0.23333333 0
0.86666667 0.23333333 0
0.9 0.23333333 0
0.93333333 0.23333333 0
0.96666667 0.23333333 0
1 0.23333333 0
0 0.26666667 0
0.033333333 0.26666667 0
0.066666667 0.26666667 0
0.1 0.26666667 0
0.13333333 0.26666667 0
0.16666667 0.26666667 0
0.2 0.26666667 0
0.23333333 0.26666667 0
0.26666667 0.26666667 0
0.3 0.26666667 0
0.33333333 0.26666667 0
0.36666667 0.26666667 0
0.4 0.26666667 0
0.43333333 0.26666667 0
0.46666667 0.26666667 0
0.5 0.26666667 0
0.53333333 0.26666667 0
0.56666667 0.26666667 0
0.6 0.26666667 0
0.63333333 0.26666667 0
0.66666667 0.26666667 0
0.7 0.26666667 0
0.73333333 0.26666667 0
0.76666667 0.26666667 0
0.8 0.26666667 0
0.83333333 0.26666667 0
0.86666667 0.26666667 0
0.9 0.26666667 0
0.93333333 0.26666667 0
0.96666667 0.26666667 0
1 0.26666667 0
0 0.3 0
0.033333333 0.3 0
0.066666667 0.3 0
0.1 0.3 0
0.13333333 0.3 0
0.16666667 0.3 0
0.2 0.3 0
0.23333333 0.3 0
0.26666667 0.3 0
0.3 0.3 0
0.33333333 0.3 0
0.36666667 0.3 0
0.4 0.3 0
0.43333333 0.3 0
0.46666667 0.3 0
0.5 0.3 0
0.53333333 0.3 0
0.56666667 0.3 0
0.6 0.3 0
0.63333333 0.3 0
0.66666667 0.3 0
0.7 0.3 0
0.73333333 0.3 0
0.76666667 0.3 0
0.8 0.3 0
0.83333333 0.3 0
0.86666667 0.3 0
0.9 0.3 0
0.93333333 0.3 0
0.96666667 0.3 0
1 0.3 0
0 0.33333333 0
0.033333333 0.33333333 0
0.066666667 0.33333333 0
0.1 0.33333333 0
0.13333333 0.33333333 0
0.16666667 0.33333333 0
0.2 0.33333333 0
0.23333333 0.33333333 0
0.26666667 0.33333333 0
0.3 0.33333333 0
0.33333333 0.33333333 0
0.36666667 0.33333333 0
0.4 0.33333333 0
0.43333333 0.33333333 0
0.46666667 0.33333333 0
0.5 0.33333333 0
0.53333333 0.33333333 0
0.56666667 0.33333333 0
0.6 0.33333333 0
0.63333333 0.33333333 0
0.66666667 0.33333333 0
0.7 0.33333333 0
0.73333333 0.33333333 0
0.76666667 0.33333333 0
0.8 0.33333333 0
0.83333333 0.33333333 0
0.86666667 0.33333333 0
0.9 0.33333333 0
0.93333333 0.33333333 0
0.96666667 0.33333333 0
1 0.33333333 0
0 0.36666667 0
0.033333333 0.36666667 0
0.066666667 0.36666667 0
0.1 0.36666667 0
0.13333333 0.36666667 0
0.16666667 0.36666667 0
0.2 0.36666667 0
0.23333333 0.36666667 0
0.26666667 0.36666667 0
0.3 0.36666667 0
0.33333333 0.36666667 0
0.36666667 0.36666667 0
0.4 0.36666667 0
0.43333333 0.36666667 0
0.46666667 0.36666667 0
0.5 0.36666667 0
0.53333333 0.36666667 0
0.56666667 0.36666667 0
0.6 0.36666667 0
0.63333333 0.36666667 0
0.66666667 0.36666667 0
0.7 0.36666667 0
0.73333333 0.36666667 0
0.76666667 0.36666667 0
0.8 0.36666667 0
0.83333333 0.36666667 0
0.86666667 0.36666667 0
0.9 0.36666667 0
0.93333333 0.36666667 0
0.96666667 0.36666667 0
1 0.36666667 0
0 0.4 0
0.033333333 0.4 0
0.066666667 0.4 0
0.1 0.4 0
0.13333333 0.4 0
0.16666667 0.4 0
0.2 0.4 0
0.23333333 0.4 0
0.26666667 0.4 0
0.3 0.4 0
0.33333333 0.4 0
0.36666667 0.4 0
0.4 0.4 0
0.43333333 0.4 0
0.46666667 0.4 0
0.5 0.4 0
0.53333333 0.4 0
0.56666667 0.4 0
0.6 0.4 0
0.63333333 0.4 0
0.66666667 0.4 0
0.7 0.4 0
0.73333333 0.4 0
0.76666667 0.4 0
0.8 0.4 0
0.83333333 0.4 0
0.86666667 0.4 0
0.9 0.4 0
0.93333333 0.4 0
0.96666667 0.4 0
1 0.4 0
0 0.43333333 0
0.033333333 0.43333333 0
0.066666667 0.43333333 0
0.1 0.43333333 0
0.13333333 0.43333333 0
0.16666667 0.43333333 0
0.2 0.43333333 0
0.23333333 0.43333333 0
0.26666667 0.43333333 0
0.3 0.43333333 0
0.33333333 0.43333333 0
0.36666667 0.43333333 0
0.4 0.43333333 0
0.43333333 0.43333333 0
0.46666667 0.43333333 0
0.5 0.43333333 0
0.53333333 0.43333333 0
0.56666667 0.43333333 0
0.6 0.43333333 0
0.63333333 0.43333333 0
0.66666667 0.43333333 0
0.7 0.43333333 0
0.73333333 0.43333333 0
0.76666667 0.43333333 0
0.8 0.43333333 0
0.83333333 0.43333333 0
0.86666667 0.43333333 0
0.9 0.43333333 0
0.93333333 0.43333333 0
0.96666667 0.43333333 0
1 0.43333333 0
0 0.46666667 0
0.033333333 0.46666667 0
0.066666667 0.46666667 0
0.1 0.46666667 0
0.13333333 0.46666667 0
0.16666667 0.46666667 0
0.2 0.46666667 0
0.23333333 0.46666667 0
0.26666667 0.46666667 0
0.3 0.46666667 0
0.33333333 0.46666667 0
0.36666667 0.46666667 0
0.4 0.46666667 0
0.43333333 0.46666667 0
0.46666667 0.46666667 0
0.5 0.46666667 0
0.53333333 0.46666667 0
0.56666667 0.46666667 0
0.6 0.46666667 0
0.63333333 0.46666667 0
0.66666667 0.46666667 0
0.7 0.46666667 0
0.73333333 0.46666667 0
0.76666667 0.46666667 0
0.8 0.46666667 0
0.83333333 0.46666667 0
0.86666667 0.46666667 0
0.9 0.46666667 0
0.93333333 0.46666667 0
0.96666667 0.46666667 0
1 0.46666667 0
0 0.5 0
0.033333333 0.5 0
0.066666667 0.5 0
0.1 0.5 0
0.13333333 0.5 0
0.16666667 0.5 0
0.2 0.5 0
0.23333333 0.5 0
0.26666667 0.5 0
0.3 0.5 0
0.33333333 0.5 0
0.36666667 0.5 0
0.4 0.5 0
0.43333333 0.5 0
0.46666667 0.5 0
0.5 0.5 0
0.53333333 0.5 0
0.56666667 0.5 0
0.6 0.5 0
0.63333333 0.5 0
0.66666667 0.5 0
0.7 0.5 0
0.73333333 0.5 0
0.76666667 0.5 0
0.8 0.5 0
0.83333333 0.5 0
0.86666667 0.5 0
0.9 0.5 0
0.93333333 0.5 0
0.96666667 0.5 0
1 0.5 0
0 0.53333333 0
0.033333333 0.53333333 0
0.066666667 0.53333333 0
0.1 0.53333333 0
0.13333333 0.53333333 0
0.16666667 0.53333333 0
0.2 0.53333333 0
0.23333333 0.53333333 0
0.26666667 0.53333333 0
0.3 0.53333333 0
0.33333333 0.53333333 0
0.36666667 0.53333333 0
0.4 0.53333333 0
0.43333333 0.53333333 0
0.46666667 0.53333333 0
0.5 0.53333333 0
0.53333333 0.53333333 0
0.56666667 0.53333333 0
0.6 0.53333333 0
0.63333333 0.53333333 0
0.66666667 0.53333333 0
0.7 0.53333333 0
0.73333333 0.53333333 0
0.76666667 0.53333333 0
0.8 0.53333333 0
[...]
CELL_DATA 1920
Scalars  Label int 1
LOOKUP_TABLE FreeFempp_table
0
0
0
0
0
0
0
0
0
0
0
0
0
0
0
0
0
0
0
0
0
0
0
0
0
0
0
0
0
0
0
0
0
0
0
0
0
0
0
0
0
0
0
0
0
0
0
0
0
0
0
0
0
0
0
0
0
0
0
0
0
0
0
0
0
0
0
0
0
0
0
0
0
0
0
0
0
0
0
0
0
0
0
0
0
0
0
0
0
0
0
0
0
0
0
0
0
0
0
0
0
0
0
0
0
0
0
0
0
0
0
0
0
0
0
0
0
0
0
0
0
0
0
0
0
0
0
0
0
0
0
0
0
0
0
0
0
0
0
0
0
0
0
0
0
0
0
0
0
0
0
0
0
0
0
0
0
0
0
0
0
0
0
0
0
0
0
0
0
0
0
0
0
0
0
0
0
0
0
0
0
0
0
0
0
0
0
0
0
0
0
0
0
0
0
0
0
0
0
0
0
0
0
0
0
0
0
0
0
0
0
0
0
0
0
0
0
0
0
0
0
0
0
0
0
0
0
0
0
0
0
0
0
0
0
0
0
0
0
0
0
0
0
0
0
0
0
0
0
0
0
0
0
0
0
0
0
0
0
0
0
0
0
0
0
0
0
0
0
0
0
0
0
0
0
0
0
0
0
0
0
0
0
0
0
0
0
0
0
0
0
0
0
0
0
0
0
0
0
0
0
0
0
0
0
0
0
0
0
0
0
0
0
0
0
0
0
0
0
0
0
0
0
0
0
0
0
0
0
0
0
0
0
0
0
0
0
0
0
0
0
0
0
0
0
0
0
0
0
0
0
0
0
0
0
0
0
0
0
0
0
0
0
0
0
0
0
0
0
0
0
0
0
0
0
0
0
0
0
0
0
0
0
0
0
0
0
0
0
0
0
0
0
0
0
0
0
0
0
0
0
0
0
0
0
0
0
0
0
0
0
0
0
0
0
0
0
0
0
0
0
0
0
0
0
0
0
0
0
0
0
0
0
0
0
0
0
0
0
0
0
0
0
0
0
0
0
0
0
0
0
0
0
0
0
0
0
0
0
0
0
0
0
0
0
0
0
0
0
0
0
0
0
0
0
0
0
0
0
0
0
0
0
0
0
0
0
0
0
0
0
0
0
0
0
0
0
0
0
0
0
0
0
0
0
0
0
0
0
0
0
0
0
0
0
0
0
0
0
0
0
0
0
0
0
0
0
0
0
0
0
0
0
0
0
0
0
0
0
0
0
0
0
0
0
0
0
0
0
0
0
0
0
0
0
0
0
0
0
0
0
0
0
0
0
0
0
0
0
0
0
0
0
0
0
0
0
0
0
0
0
0
0
0
0
0
0
0
0
0
0
0
0
0
0
0
0
0
0
0
0
0
0
0
0
0
0
0
0
0
0
0
0
0
0
0
0
0
0
0
0
0
0
0
0
0
0
0
0
0
0
0
0
0
0
0
0
0
0
0
0
0
0
0
0
0
0
0
0
0
0
0
0
0
0
0
0
0
0
0
0
0
0
0
0
0
0
0
0
0
0
0
0
0
0
0
0
0
0
0
0
0
0
0
0
0
0
0
0
0
0
0
0
0
0
0
0
0
0
0
0
0
0
0
0
0
0
0
0
0
0
0
0
0
0
0
0
0
0
0
0
0
0
0
0
0
0
0
0
0
0
0
0
0
0
0
0
0
0
0
0
0
0
0
0
0
0
0
0
0
0
0
0
0
0
0
0
0
0
0
0
0
0
0
0
0
0
0
0
0
0
0
0
0
0
0
0
0
0
0
0
0
0
0
0
0
0
0
0
0
0
0
0
0
0
0
0
0
0
0
0
0
0
0
0
0
0
0
0
0
0
0
0
0
0
0
0
0
0
0
0
0
0
0
0
0
0
0
0
0
0
0
0
0
0
0
0
0
0
0
0
0
0
0
0
0
0
0
0
0
0
0
0
0
0
0
0
0
0
0
0
0
0
0
0
0
0
0
0
0
0
0
0
0
0
0
0
0
0
0
0
0
0
0
0
0
0
0
0
0
0
0
0
0
0
0
0
0
0
0
0
0
0
0
0
0
0
0
0
0
0
0
0
0
0
0
0
0
0
0
0
0
0
0
0
0
0
0
0
0
0
0
0
0
0
0
0
0
0
0
0
0
0
0
0
0
0
0
0
0
0
0
0
0
0
0
0
0
0
0
0
0
0
0
0
0
0
0
0
0
0
0
0
0
0
0
0
0
0
0
0
0
0
0
0
0
0
0
0
0
0
0
0
0
0
0
0
0
0
0
0
0
0
0
0
0
0
0
0
0
0
0
0
0
0
0
0
0
0
0
0
0
0
0
0
0
0
0
0
0
0
0
0
0
0
0
0
0
0
0
0
0
0
0
0
0
0
0
0
0
0
0
0
0
0
0
0
0
0
0
0
0
0
0
0
0
0
0
0
0
0
0
0
0
0
0
0
0
0
0
0
0
0
0
0
0
0
0
0
0
0
0
0
0
0
0
0
0
0
0
0
0
0
0
0
0
0
0
0
0
0
0
0
0
0
0
0
0
0
0
0
0
0
0
0
0
0
0
0
0
0
0
0
0
0
0
0
0
0
0
0
0
0
0
0
0
0
0
0
0
0
0
0
0
0
0
0
0
0
0
0
0
0
0
0
0
0
0
0
0
0
0
0
0
0
0
0
0
0
0
0
0
0
0
0
0
0
0
0
0
0
0
0
0
0
0
0
0
0
0
0
0
0
0
0
0
0
0
0
0
0
0
0
0
0
0
0
0
0
0
0
0
0
0
0
0
0
0
0
0
0
0
0
0
0
0
0
0
0
0
0
0
0
0
0
0
0
0
0
0
0
0
0
0
0
0
0
0
0
0
0
0
0
0
0
0
0
0
0
0
0
0
0
0
0
0
0
0
0
0
0
0
0
0
0
0
0
0
0
0
0
0
0
0
0
0
0
0
0
0
0
0
0
0
0
0
0
0
0
0
0
0
0
0
0
0
0
0
0
0
0
0
0
0
0
0
0
0
0
0
0
0
0
0
0
0
0
0
0
0
0
0
0
0
0
0
0
0
0
0
0
0
0
0
0
0
0
0
0
0
0
0
0
0
0
0
0
0
0
0
0
0
0
0
0
0
0
0
0
0
0
0
0
0
0
0
0
0
0
0
0
0
0
0
0
0
0
0
0
0
0
0
0
0
0
0
0
0
0
0
0
0
0
0
0
0
0
0
0
0
0
0
0
0
0
0
0
0
0
0
0
0
0
0
0
0
0
0
0
0
0
0
0
0
0
0
0
0
0
0
0
0
0
0
0
0
0
0
0
0
0
0
0
0
0
0
0
0
0
0
0
0
0
0
0
0
0
0
0
0
0
0
0
0
0
0
0
0
0
0
0
0
0
0
0
0
0
0
0
0
0
0
0
0
0
0
0
0
0
0
0
0
0
0
0
0
0
0
0
0
0
0
0
0
0
0
0
0
0
0
0
0
0
0
0
0
0
0
0
0
0
0
0
0
0
0
0
0
0
0
0
0
0
0
0
0
0
0
0
0
0
0
0
0
0
0
0
0
0
0
0
0
0
0
0
0
0
0
0
0
0
0
0
0
0
0
0
0
0
0
0
0
0
0
0
0
0
0
0
0
0
0
0
0
0
0
0
0
0
0
0
0
0
0
0
0
0
0
0
0
0
0
0
0
0
0
0
0
0
0
0
0
0
0
0
0
0
0
0
0
0
0
0
0
0
0
0
0
0
0
0
0
0
0
0
0
0
0
0
0
0
0
0
0
0
0
0
0
0
0
0
0
0
0
0
0
0
0
0
0
0
0
0
0
0
0
0
0
0
0
0
0
0
0
0
0
0
0
0
0
0
0
0
0
0
0
0
0
0
0
0
0
0
0
0
0
0
0
0
0
0
0
0
0
0
0
0
0
0
0
0
0
0
0
0
0
0
0
0
0
0
0
0
0
0
0
0
0
0
0
0
0
0
0
0
0
0
0
0
0
0
0
0
0
0
0
0
0
0
0
0
0
0
0
0
0
0
0
0
0
0
0
0
0
0
0
0
0
0
0
0
0
0
0
0
0
0
0
0
0
1
1
1
1
1
1
1
1
1
1
1
1
1
1
1
1
1
1
1
1
1
1
1
1
1
1
1
1
1
1
2
2
2
2
2
2
2
2
2
2
2
2
2
2
2
2
2
2
2
2
2
2
2
2
2
2
2
2
2
2
3
3
3
3
3
3
3
3
3
3
3
3
3
3
3
3
3
3
3
3
3
3
3
3
3
3
3
3
3
3
4
4
4
4
4
4
4
4
4
4
4
4
4
4
4
4
4
4
4
4
4
4
4
4
4
4
4
4
4
4

LOOKUP_TABLE FreeFempp_table 5
1.00000000 0.00000000 0.00000000 1.00000000
1.00000000 1.00000000 0.00000000 1.00000000
1.00000000 0.00000000 1.00000000 1.00000000
0.00000000 1.00000000 0.00000000 1.00000000
0.00000000 1.00000000 1.00000000 1.00000000

POINT_DATA 961
FIELD FieldData 1
Density 1 961 float
1.23903409e-01 1.25857830e-01 1.28575847e-01 1.30611867e-01 1.31664678e-01 1.31783471e-01 1.31095529e-01 1.30099356e-01 1.30284294e-01 1.34432197e-01 1.45406380e-01 1.64078504e-01 1.87249407e-01 2.11018890e-01 2.35157430e-01 2.60792404e-01 2.88570017e-01 3.16633075e-01 3.36490393e-01 3.38276476e-01 3.24266821e-01 3.06193709e-01 2.92607725e-01 2.83817917e-01 2.79072762e-01 2.79659063e-01 2.85301119e-01 2.94450253e-01 3.04696143e-01 3.11314255e-01 3.11403871e-01 1.22514203e-01 1.24806821e-01 1.27356127e-01 1.29346296e-01 1.30702272e-01 1.31370679e-01 1.31388202e-01 1.31150320e-01 1.31834522e-01 1.35722712e-01 1.45668671e-01 1.63161308e-01 1.85539946e-01 2.08321571e-01 2.31497109e-01 2.56129295e-01 2.82350957e-01 3.08832258e-01 3.27216864e-01 3.26190770e-01 3.09083343e-01 2.88441777e-01 2.72963762e-01 2.63798565e-01 2.59262592e-01 2.60289013e-01 2.67493010e-01 2.79275447e-01 2.92165607e-01 3.01018208e-01 3.03486913e-01 1.29198208e-01 1.28315702e-01 1.28509104e-01 1.29896149e-01 1.32103622e-01 1.34245172e-01 1.35947227e-01 1.37375355e-01 1.39247403e-01 1.42908901e-01 1.50439724e-01 1.64426237e-01 1.83395848e-01 2.02412874e-01 2.22870976e-01 2.45717615e-01 2.68184870e-01 2.89555818e-01 3.01873922e-01 2.92737633e-01 2.69616544e-01 2.47168213e-01 2.29964390e-01 2.18890727e-01 2.13332757e-01 2.13783398e-01 2.21535549e-01 2.37206385e-01 2.55675226e-01 2.69673645e-01 2.74873644e-01 1.54187739e-01 1.48022994e-01 1.43798277e-01 1.44810736e-01 1.49274215e-01 1.53945059e-01 1.57865539e-01 1.60999715e-01 1.63627282e-01 1.66035682e-01 1.68790698e-01 1.74340174e-01 1.84118763e-01 1.95511654e-01 2.09589034e-01 2.29850560e-01 2.48196557e-01 2.64457017e-01 2.74563819e-01 2.61611283e-01 2.38744646e-01 2.17254326e-01 2.00165451e-01 1.88034862e-01 1.80590302e-01 1.78045750e-01 1.81287110e-01 1.91997528e-01 2.10581094e-01 2.28604794e-01 2.36216307e-01 1.89049333e-01 1.83136716e-01 1.74428463e-01 1.75384656e-01 1.85121149e-01 1.94583789e-01 2.01855913e-01 2.07191810e-01 2.10729614e-01 2.11984798e-01 2.09896177e-01 2.06225768e-01 2.07198754e-01 2.09292427e-01 2.12262407e-01 2.19869241e-01 2.28937715e-01 2.39232227e-01 2.52813876e-01 2.53943384e-01 2.32674867e-01 2.10040823e-01 1.91871047e-01 1.78127825e-01 1.68331623e-01 1.62129432e-01 1.59843877e-01 1.62856922e-01 1.73220992e-01 1.89759701e-01 1.98916510e-01 2.26433799e-01 2.21176311e-01 2.11618617e-01 2.11758316e-01 2.24516824e-01 2.39027858e-01 2.50189751e-01 2.58060783e-01 2.63009459e-01 2.64916390e-01 2.63454437e-01 2.59715766e-01 2.56614655e-01 2.51986414e-01 2.42835879e-01 2.38445595e-01 2.35619500e-01 2.34159991e-01 2.39216328e-01 2.49377236e-01 2.46412575e-01 2.24707663e-01 2.03657568e-01 1.87159568e-01 1.74253047e-01 1.63796753e-01 1.55410439e-01 1.50403187e-01 1.51830092e-01 1.61102325e-01 1.70034021e-01 2.68472522e-01 2.63639122e-01 2.55180925e-01 2.54547089e-01 2.67066270e-01 2.84412086e-01 2.98729122e-01 3.08881134e-01 3.15309227e-01 3.18305761e-01 3.18093121e-01 3.15496147e-01 3.11661184e-01 3.05715024e-01 2.96122819e-01 2.85997331e-01 2.74062306e-01 2.57879704e-01 2.47339636e-01 2.42955774e-01 2.44261593e-01 2.45507240e-01 2.30377704e-01 2.12033868e-01 1.95684597e-01 1.80301040e-01 1.65308967e-01 1.51544675e-01 1.44236133e-01 1.47056341e-01 1.53871879e-01 3.17865968e-01 3.13707352e-01 3.07651699e-01 3.07184309e-01 3.17707360e-01 3.34390253e-01 3.49488467e-01 3.60606194e-01 3.67823094e-01 3.71487290e-01 3.71955335e-01 3.69770914e-01 3.65494490e-01 3.58972281e-01 3.49796712e-01 3.38530242e-01 3.24369788e-01 3.05563778e-01 2.84094423e-01 2.60348469e-01 2.45759651e-01 2.44486079e-01 2.52057970e-01 2.44048581e-01 2.26132423e-01 2.05771312e-01 1.83692977e-01 1.61740437e-01 1.45921171e-01 1.43316090e-01 1.48346409e-01 3.71349752e-01 3.68747950e-01 3.65871847e-01 3.67151767e-01 3.75506431e-01 3.88870597e-01 4.02009249e-01 4.12268430e-01 4.19149220e-01 4.22726780e-01 4.23245609e-01 4.21057940e-01 4.16493148e-01 4.09603119e-01 4.00257498e-01 3.88400525e-01 3.73500198e-01 3.54654759e-01 3.31387013e-01 3.02034736e-01 2.69499391e-01 2.50778109e-01 2.49870539e-01 2.60233015e-01 2.54503280e-01 2.34053165e-01 2.06720904e-01 1.77301943e-01 1.53370440e-01 1.45453274e-01 1.48718834e-01 4.14887547e-01 4.15173113e-01 4.16279376e-01 4.20394689e-01 4.28517848e-01 4.39410299e-01 4.50317383e-01 4.59253848e-01 4.65442687e-01 4.68699664e-01 4.69115734e-01 4.66911823e-01 4.62307543e-01 4.55389589e-01 4.46098983e-01 4.34260309e-01 4.19436663e-01 4.00947005e-01 3.78011048e-01 3.49467516e-01 3.14350724e-01 2.77380794e-01 2.56208569e-01 2.53159285e-01 2.59874046e-01 2.50567555e-01 2.27507532e-01 1.96202278e-01 1.64857507e-01 1.50578365e-01 1.51123345e-01 4.30252165e-01 4.33827341e-01 4.39882666e-01 4.48877543e-01 4.60452259e-01 4.73055005e-01 4.84818935e-01 4.94414032e-01 5.01211226e-01 5.05049825e-01 5.06030262e-01 5.04370749e-01 5.00289261e-01 4.93911833e-01 4.85234320e-01 4.74102050e-01 4.60159719e-01 4.42852795e-01 4.21465605e-01 3.95093203e-01 3.62822413e-01 3.23999494e-01 2.83351600e-01 2.58001655e-01 2.48307958e-01 2.44320512e-01 2.30092108e-01 2.12980404e-01 1.81009889e-01 1.59197286e-01 1.54325068e-01 4.10090268e-01 4.15668368e-01 4.26994324e-01 4.43185478e-01 4.62336034e-01 4.81600225e-01 4.98678654e-01 5.12342811e-01 5.22218883e-01 5.28410017e-01 5.31238079e-01 5.31089246e-01 5.28311610e-01 5.23148477e-01 5.15702069e-01 5.05909860e-01 4.93523687e-01 4.78113770e-01 4.59092766e-01 4.35743392e-01 4.07269686e-01 3.72727484e-01 3.30979943e-01 2.86336452e-01 2.55340755e-01 2.36843705e-01 2.23675698e-01 2.15940997e-01 2.02426732e-01 1.74572617e-01 1.65262699e-01 3.64494383e-01 3.69629234e-01 3.84533912e-01 4.08096999e-01 4.36884701e-01 4.66085255e-01 4.91927564e-01 5.12652695e-01 5.27964175e-01 5.38275719e-01 5.44246614e-01 5.46553731e-01 5.45782626e-01 5.42375803e-01 5.36605954e-01 5.28559864e-01 5.18129289e-01 5.05016088e-01 4.88753051e-01 4.68746275e-01 4.44337249e-01 4.14767176e-01 3.78960371e-01 3.35597754e-01 2.88822055e-01 2.54049033e-01 2.33082145e-01 2.27690369e-01 2.25130007e-01 1.94335848e-01 1.81568384e-01 3.11921120e-01 3.15946370e-01 3.31823230e-01 3.59939277e-01 3.96597654e-01 4.35521543e-01 4.70944583e-01 4.99920040e-01 5.21839917e-01 5.37262976e-01 5.47142148e-01 5.52456319e-01 5.54062307e-01 5.52641213e-01 5.48678994e-01 5.42455673e-01 5.34037292e-01 5.23273706e-01 5.09804249e-01 4.93085444e-01 4.72459137e-01 4.47240025e-01 4.16801512e-01 3.80755156e-01 3.38810623e-01 2.93781340e-01 2.59974509e-01 2.49919713e-01 2.48747826e-01 2.14807361e-01 1.99645609e-01 2.64663279e-01 2.68551707e-01 2.84804374e-01 3.15041184e-01 3.56275678e-01 4.01972711e-01 4.45045978e-01 4.81276006e-01 5.09409785e-01 5.29859602e-01 5.43679535e-01 5.52038848e-01 5.56005657e-01 5.56474626e-01 5.54145396e-01 5.49511135e-01 5.42843938e-01 5.34175754e-01 5.23279130e-01 5.09658158e-01 4.92571145e-01 4.71104413e-01 4.44366753e-01 4.12100375e-01 3.75594407e-01 3.35956752e-01 2.95846045e-01 2.78603703e-01 2.73436815e-01 2.34856054e-01 2.17695788e-01 2.27301776e-01 2.31923267e-01 2.49216989e-01 2.81119317e-01 3.25066447e-01 3.74533474e-01 4.22207147e-01 4.63325828e-01 4.96102780e-01 5.20625055e-01 5.37824094e-01 5.48877120e-01 5.54933786e-01 5.57015836e-01 5.55986106e-01 5.52533090e-01 5.47146440e-01 5.40077507e-01 5.31291664e-01 5.20426393e-01 5.06772161e-01 4.89279687e-01 4.66606796e-01 4.37454432e-01 4.02362972e-01 3.66157025e-01 3.31778884e-01 3.10140818e-01 2.97646523e-01 2.53586620e-01 2.34459728e-01 2.00800329e-01 2.06484437e-01 2.25538552e-01 2.59613961e-01 3.05782288e-01 3.57111186e-01 4.06704068e-01 4.50161636e-01 4.85610366e-01 5.12855649e-01 5.32577515e-01 5.45799494e-01 5.53608000e-01 5.57032108e-01 5.57004273e-01 5.54343402e-01 5.49727261e-01 5.43637097e-01 5.36282718e-01 5.27532578e-01 5.16878128e-01 5.03436089e-01 4.85944092e-01 4.62722301e-01 4.32327688e-01 3.98369849e-01 3.68481338e-01 3.45275611e-01 3.20681632e-01 2.69659430e-01 2.48504683e-01 1.84399024e-01 1.91196039e-01 2.12627977e-01 2.49610513e-01 2.97887534e-01 3.49810243e-01 3.99374515e-01 4.43128288e-01 4.79499966e-01 5.08160293e-01 5.29528081e-01 5.44392228e-01 5.53670943e-01 5.58290243e-01 5.59140503e-01 5.57066798e-01 5.52853405e-01 5.47173798e-01 5.40503979e-01 5.33023000e-01 5.24541140e-01 5.14472842e-01 5.01846492e-01 4.85294163e-01 4.62906569e-01 4.34336722e-01 4.06170189e-01 3.79512966e-01 3.39154184e-01 2.80785948e-01 2.57975489e-01 1.76533714e-01 1.84496909e-01 2.08955482e-01 2.49453336e-01 2.99369425e-01 3.50762248e-01 3.98962021e-01 4.41644579e-01 4.77679372e-01 5.06724954e-01 5.29000282e-01 5.45061409e-01 5.55619538e-01 5.61429620e-01 5.63246191e-01 5.61823547e-01 5.57927489e-01 5.52325666e-01 5.45735300e-01 5.38723290e-01 5.31554222e-01 5.23994625e-01 5.15183270e-01 5.03759801e-01 4.87908304e-01 4.65439528e-01 4.36256319e-01 3.99131000e-01 3.44285399e-01 2.83585131e-01 2.60909915e-01 1.75504535e-01 1.84818789e-01 2.12944001e-01 2.57053643e-01 3.07559133e-01 3.57380629e-01 4.03377354e-01 4.44201171e-01 4.79116589e-01 5.07836878e-01 5.30463278e-01 5.47371984e-01 5.59085906e-01 5.66176414e-01 5.69214940e-01 5.68774700e-01 5.65470397e-01 5.60013771e-01 5.53260982e-01 5.46194136e-01 5.39679229e-01 5.33917367e-01 5.27922511e-01 5.19702911e-01 5.06656170e-01 4.85315859e-01 4.51425880e-01 3.99757802e-01 3.31200689e-01 2.77164966e-01 2.57798791e-01 1.79610774e-01 1.90587476e-01 2.22950146e-01 2.69769460e-01 3.19657177e-01 3.67130458e-01 4.10496205e-01 4.49076414e-01 4.82435435e-01 5.10373950e-01 5.32949924e-01 5.50429046e-01 5.63198209e-01 5.71679652e-01 5.76273024e-01 5.77343881e-01 5.75271785e-01 5.70568025e-01 5.64053178e-01 5.56977510e-01 5.50747871e-01 5.45952618e-01 5.41291595e-01 5.33708990e-01 5.19218326e-01 4.92882401e-01 4.49235141e-01 3.86471599e-01 3.15604627e-01 2.69490600e-01 2.54377693e-01 1.86957359e-01 1.99775234e-01 2.36789003e-01 2.84830093e-01 3.33118021e-01 3.77892345e-01 4.18508291e-01 4.54706311e-01 4.86284614e-01 5.13154268e-01 5.35386205e-01 5.53198576e-01 5.66903234e-01 5.76836228e-01 5.83291113e-01 5.86480916e-01 5.86567760e-01 5.83803773e-01 5.78780890e-01 5.72595716e-01 5.66532850e-01 5.61062753e-01 5.54699898e-01 5.43610573e-01 5.22598326e-01 4.86788154e-01 4.33280617e-01 3.64855647e-01 3.04977149e-01 2.69152761e-01 2.57997692e-01 1.95546478e-01 2.09963605e-01 2.51083136e-01 2.99545050e-01 3.45897585e-01 3.88059318e-01 4.26018417e-01 4.59837347e-01 4.89535093e-01 5.15155494e-01 5.36821246e-01 5.54747820e-01 5.69224358e-01 5.80570281e-01 5.89072347e-01 5.94920993e-01 5.98189175e-01 5.98913014e-01 5.97232759e-01 5.93256354e-01 5.86627305e-01 5.77009976e-01 5.63756645e-01 5.44157028e-01 5.12144625e-01 4.66591269e-01 4.11290020e-01 3.51711273e-01 3.07351798e-01 2.83298582e-01 2.76329130e-01 2.03854099e-01 2.19394296e-01 2.63350517e-01 3.12057137e-01 3.56710404e-01 3.96568626e-01 4.32065368e-01 4.63584632e-01 4.91380781e-01 5.15647352e-01 5.36580503e-01 5.54418921e-01 5.69462240e-01 5.82064807e-01 5.92597842e-01 6.01371169e-01 6.08526587e-01 6.13927543e-01 6.16946816e-01 6.15715384e-01 6.05977833e-01 5.85572004e-01 5.59435725e-01 5.29740691e-01 4.89823878e-01 4.39693093e-01 3.96141052e-01 3.59155297e-01 3.32881063e-01 3.20701838e-01 3.18788946e-01 2.11114615e-01 2.27374882e-01 2.73052752e-01 3.21854085e-01 3.65083963e-01 4.02894258e-01 4.36120838e-01 4.65459704e-01 4.91394937e-01 5.14268696e-01 5.34357369e-01 5.51933944e-01 5.67315936e-01 5.80898106e-01 5.93149841e-01 6.04535401e-01 6.15304112e-01 6.25121415e-01 6.32482290e-01 6.33688271e-01 6.21453226e-01 5.88174462e-01 5.46702206e-01 5.10599494e-01 4.76204842e-01 4.42257404e-01 4.17564660e-01 4.03077722e-01 3.93130481e-01 3.89723778e-01 3.91495705e-01 2.17125520e-01 2.33854577e-01 2.80565351e-01 3.29200625e-01 3.71069521e-01 4.06958789e-01 4.38080162e-01 4.65390831e-01 4.89562511e-01 5.11064708e-01 5.30251622e-01 5.47433019e-01 5.62932312e-01 5.77137709e-01 5.90527534e-01 6.03606343e-01 6.16651356e-01 6.29213452e-01 6.39468729e-01 6.43634021e-01 6.35737121e-01 6.09114289e-01 5.67405105e-01 5.33508241e-01 5.07581592e-01 4.87748295e-01 4.78912979e-01 4.84900981e-01 4.87192452e-01 4.86622393e-01 4.84539658e-01 2.21960530e-01 2.39011556e-01 2.86346495e-01 3.34507376e-01 3.74956012e-01 4.09024537e-01 4.38233554e-01 4.63719606e-01 4.86281067e-01 5.06486237e-01 5.24763644e-01 5.41463792e-01 5.56903124e-01 5.71402848e-01 5.85318506e-01 5.99009156e-01 6.12645566e-01 6.25795543e-01 6.36938870e-01 6.43307090e-01 6.41390979e-01 6.28524184e-01 6.06859624e-01 5.87237358e-01 5.73054790e-01 5.62718093e-01 5.57913125e-01 5.59627891e-01 5.61284602e-01 5.60446203e-01 5.58565915e-01 2.25794777e-01 2.43076444e-01 2.90783107e-01 3.38185400e-01 3.77195656e-01 4.09638226e-01 4.37218785e-01 4.61155891e-01 4.82318312e-01 5.01350880e-01 5.18756330e-01 5.34936070e-01 5.50203741e-01 5.64789951e-01 5.78848541e-01 5.92450082e-01 6.05507016e-01 6.17575943e-01 6.27618909e-01 6.34020805e-01 6.35128975e-01 6.30282879e-01 6.21233046e-01 6.12297952e-01 6.05366111e-01 6.00262523e-01 5.97399056e-01 5.96640825e-01 5.96005678e-01 5.94967484e-01 5.94006777e-01 2.28835717e-01 2.46264338e-01 2.94239163e-01 3.40723217e-01 3.78446549e-01 4.09611940e-01 4.35952544e-01 4.58688438e-01 4.78724152e-01 4.96767879e-01 5.13394356e-01 5.29063225e-01 5.44103682e-01 5.58681786e-01 5.72770298e-01 5.86136162e-01 5.98345876e-01 6.08770132e-01 6.16601050e-01 6.20991766e-01 6.21461689e-01 6.18479490e-01 6.13729060e-01 6.09293759e-01 6.05925679e-01 6.03597105e-01 6.02336824e-01 6.02023900e-01 6.02079690e-01 6.02194071e-01 6.02408946e-01 2.31377408e-01 2.48599753e-01 2.97010213e-01 3.42774242e-01 3.79591286e-01 4.09958243e-01 4.35521275e-01 4.57471490e-01 4.76735413e-01 4.94068295e-01 5.10098577e-01 5.25331676e-01 5.40119350e-01 5.54605186e-01 5.68666756e-01 5.81882596e-01 5.93551934e-01 6.02787435e-01 6.08697236e-01 6.10687852e-01 6.08924687e-01 6.04802668e-01 6.00709498e-01 5.98394513e-01 5.97729445e-01 5.97789288e-01 5.98058641e-01 5.98460197e-01 5.98978698e-01 5.99624276e-01 6.00279689e-01 2.34317467e-01 2.48945355e-01 2.97894567e-01 3.44282269e-01 3.80768538e-01 4.10851866e-01 4.36139286e-01 4.57805723e-01 4.76782024e-01 4.93836522e-01 5.09611607e-01 5.24623573e-01 5.39229095e-01 5.53567648e-01 5.67498744e-01 5.80562830e-01 5.91999352e-01 6.00848854e-01 6.06166124e-01 6.07370734e-01 6.04746699e-01 5.99914014e-01 5.95560789e-01 5.93662977e-01 5.93988597e-01 5.95113993e-01 5.96125185e-01 5.96852779e-01 5.97433388e-01 5.97994626e-01 5.98388553e-01 
