# vtk DataFile Version 2.0
results_case1_non_linear/iter5.vtk, Created by Freefem++ 
ASCII
DATASET UNSTRUCTURED_GRID
POINTS 961 float
0 0 0
0.033333333 0 0
0.066666667 0 0
0.1 0 0
0.13333333 0 0
0.16666667 0 0
0.2 0 0
0.23333333 0 0
0.26666667 0 0
0.3 0 0
0.33333333 0 0
0.36666667 0 0
0.4 0 0
0.43333333 0 0
0.46666667 0 0
0.5 0 0
0.53333333 0 0
0.56666667 0 0
0.6 0 0
0.63333333 0 0
0.66666667 0 0
0.7 0 0
0.73333333 0 0
0.76666667 0 0
0.8 0 0
0.83333333 0 0
0.86666667 0 0
0.9 0 0
0.93333333 0 0
0.96666667 0 0
1 0 0
0 0.033333333 0
0.033333333 0.033333333 0
0.066666667 0.033333333 0
0.1 0.033333333 0
0.13333333 0.033333333 0
0.16666667 0.033333333 0
0.2 0.033333333 0
0.23333333 0.033333333 0
0.26666667 0.033333333 0
0.3 0.033333333 0
0.33333333 0.033333333 0
0.36666667 0.033333333 0
0.4 0.033333333 0
0.43333333 0.033333333 0
0.46666667 0.033333333 0
0.5 0.033333333 0
0.53333333 0.033333333 0
0.56666667 0.033333333 0
0.6 0.033333333 0
0.63333333 0.033333333 0
0.66666667 0.033333333 0
0.7 0.033333333 0
0.73333333 0.033333333 0
0.76666667 0.033333333 0
0.8 0.033333333 0
0.83333333 0.033333333 0
0.86666667 0.033333333 0
0.9 0.033333333 0
0.93333333 0.033333333 0
0.96666667 0.033333333 0
1 0.033333333 0
0 0.066666667 0
0.033333333 0.066666667 0
0.066666667 0.066666667 0
0.1 0.066666667 0
0.13333333 0.066666667 0
0.16666667 0.066666667 0
0.2 0.066666667 0
0.23333333 0.066666667 0
0.26666667 0.066666667 0
0.3 0.066666667 0
0.33333333 0.066666667 0
0.36666667 0.066666667 0
0.4 0.066666667 0
0.43333333 0.066666667 0
0.46666667 0.066666667 0
0.5 0.066666667 0
0.53333333 0.066666667 0
0.56666667 0.066666667 0
0.6 0.066666667 0
0.63333333 0.066666667 0
0.66666667 0.066666667 0
0.7 0.066666667 0
0.73333333 0.066666667 0
0.76666667 0.066666667 0
0.8 0.066666667 0
0.83333333 0.066666667 0
0.86666667 0.066666667 0
0.9 0.066666667 0
0.93333333 0.066666667 0
0.96666667 0.066666667 0
1 0.066666667 0
0 0.1 0
0.033333333 0.1 0
0.066666667 0.1 0
0.1 0.1 0
0.13333333 0.1 0
0.16666667 0.1 0
0.2 0.1 0
0.23333333 0.1 0
0.26666667 0.1 0
0.3 0.1 0
0.33333333 0.1 0
0.36666667 0.1 0
0.4 0.1 0
0.43333333 0.1 0
0.46666667 0.1 0
0.5 0.1 0
0.53333333 0.1 0
0.56666667 0.1 0
0.6 0.1 0
0.63333333 0.1 0
0.66666667 0.1 0
0.7 0.1 0
0.73333333 0.1 0
0.76666667 0.1 0
0.8 0.1 0
0.83333333 0.1 0
0.86666667 0.1 0
0.9 0.1 0
0.93333333 0.1 0
0.96666667 0.1 0
1 0.1 0
0 0.13333333 0
0.033333333 0.13333333 0
0.066666667 0.13333333 0
0.1 0.13333333 0
0.13333333 0.13333333 0
0.16666667 0.13333333 0
0.2 0.13333333 0
0.23333333 0.13333333 0
0.26666667 0.13333333 0
0.3 0.13333333 0
0.33333333 0.13333333 0
0.36666667 0.13333333 0
0.4 0.13333333 0
0.43333333 0.13333333 0
0.46666667 0.13333333 0
0.5 0.13333333 0
0.53333333 0.13333333 0
0.56666667 0.13333333 0
0.6 0.13333333 0
0.63333333 0.13333333 0
0.66666667 0.13333333 0
0.7 0.13333333 0
0.73333333 0.13333333 0
0.76666667 0.13333333 0
0.8 0.13333333 0
0.83333333 0.13333333 0
0.86666667 0.13333333 0
0.9 0.13333333 0
0.93333333 0.13333333 0
0.96666667 0.13333333 0
1 0.13333333 0
0 0.16666667 0
0.033333333 0.16666667 0
0.066666667 0.16666667 0
0.1 0.16666667 0
0.13333333 0.16666667 0
0.16666667 0.16666667 0
0.2 0.16666667 0
0.23333333 0.16666667 0
0.26666667 0.16666667 0
0.3 0.16666667 0
0.33333333 0.16666667 0
0.36666667 0.16666667 0
0.4 0.16666667 0
0.43333333 0.16666667 0
0.46666667 0.16666667 0
0.5 0.16666667 0
0.53333333 0.16666667 0
0.56666667 0.16666667 0
0.6 0.16666667 0
0.63333333 0.16666667 0
0.66666667 0.16666667 0
0.7 0.16666667 0
0.73333333 0.16666667 0
0.76666667 0.16666667 0
0.8 0.16666667 0
0.83333333 0.16666667 0
0.86666667 0.16666667 0
0.9 0.16666667 0
0.93333333 0.16666667 0
0.96666667 0.16666667 0
1 0.16666667 0
0 0.2 0
0.033333333 0.2 0
0.066666667 0.2 0
0.1 0.2 0
0.13333333 0.2 0
0.16666667 0.2 0
0.2 0.2 0
0.23333333 0.2 0
0.26666667 0.2 0
0.3 0.2 0
0.33333333 0.2 0
0.36666667 0.2 0
0.4 0.2 0
0.43333333 0.2 0
0.46666667 0.2 0
0.5 0.2 0
0.53333333 0.2 0
0.56666667 0.2 0
0.6 0.2 0
0.63333333 0.2 0
0.66666667 0.2 0
0.7 0.2 0
0.73333333 0.2 0
0.76666667 0.2 0
0.8 0.2 0
0.83333333 0.2 0
0.86666667 0.2 0
0.9 0.2 0
0.93333333 0.2 0
0.96666667 0.2 0
1 0.2 0
0 0.23333333 0
0.033333333 0.23333333 0
0.066666667 0.23333333 0
0.1 0.23333333 0
0.13333333 0.23333333 0
0.16666667 0.23333333 0
0.2 0.23333333 0
0.23333333 0.23333333 0
0.26666667 0.23333333 0
0.3 0.23333333 0
0.33333333 0.23333333 0
0.36666667 0.23333333 0
0.4 0.23333333 0
0.43333333 0.23333333 0
0.46666667 0.23333333 0
0.5 0.23333333 0
0.53333333 0.23333333 0
0.56666667 0.23333333 0
0.6 0.23333333 0
0.63333333 0.23333333 0
0.66666667 0.23333333 0
0.7 0.23333333 0
0.73333333 0.23333333 0
0.76666667 0.23333333 0
0.8 0.23333333 0
0.83333333 0.23333333 0
0.86666667 0.23333333 0
0.9 0.23333333 0
0.93333333 0.23333333 0
0.96666667 0.23333333 0
1 0.23333333 0
0 0.26666667 0
0.033333333 0.26666667 0
0.066666667 0.26666667 0
0.1 0.26666667 0
0.13333333 0.26666667 0
0.16666667 0.26666667 0
0.2 0.26666667 0
0.23333333 0.26666667 0
0.26666667 0.26666667 0
0.3 0.26666667 0
0.33333333 0.26666667 0
0.36666667 0.26666667 0
0.4 0.26666667 0
0.43333333 0.26666667 0
0.46666667 0.26666667 0
0.5 0.26666667 0
0.53333333 0.26666667 0
0.56666667 0.26666667 0
0.6 0.26666667 0
0.63333333 0.26666667 0
0.66666667 0.26666667 0
0.7 0.26666667 0
0.73333333 0.26666667 0
0.76666667 0.26666667 0
0.8 0.26666667 0
0.83333333 0.26666667 0
0.86666667 0.26666667 0
0.9 0.26666667 0
0.93333333 0.26666667 0
0.96666667 0.26666667 0
1 0.26666667 0
0 0.3 0
0.033333333 0.3 0
0.066666667 0.3 0
0.1 0.3 0
0.13333333 0.3 0
0.16666667 0.3 0
0.2 0.3 0
0.23333333 0.3 0
0.26666667 0.3 0
0.3 0.3 0
0.33333333 0.3 0
0.36666667 0.3 0
0.4 0.3 0
0.43333333 0.3 0
0.46666667 0.3 0
0.5 0.3 0
0.53333333 0.3 0
0.56666667 0.3 0
0.6 0.3 0
0.63333333 0.3 0
0.66666667 0.3 0
0.7 0.3 0
0.73333333 0.3 0
0.76666667 0.3 0
0.8 0.3 0
0.83333333 0.3 0
0.86666667 0.3 0
0.9 0.3 0
0.93333333 0.3 0
0.96666667 0.3 0
1 0.3 0
0 0.33333333 0
0.033333333 0.33333333 0
0.066666667 0.33333333 0
0.1 0.33333333 0
0.13333333 0.33333333 0
0.16666667 0.33333333 0
0.2 0.33333333 0
0.23333333 0.33333333 0
0.26666667 0.33333333 0
0.3 0.33333333 0
0.33333333 0.33333333 0
0.36666667 0.33333333 0
0.4 0.33333333 0
0.43333333 0.33333333 0
0.46666667 0.33333333 0
0.5 0.33333333 0
0.53333333 0.33333333 0
0.56666667 0.33333333 0
0.6 0.33333333 0
0.63333333 0.33333333 0
0.66666667 0.33333333 0
0.7 0.33333333 0
0.73333333 0.33333333 0
0.76666667 0.33333333 0
0.8 0.33333333 0
0.83333333 0.33333333 0
0.86666667 0.33333333 0
0.9 0.33333333 0
0.93333333 0.33333333 0
0.96666667 0.33333333 0
1 0.33333333 0
0 0.36666667 0
0.033333333 0.36666667 0
0.066666667 0.36666667 0
0.1 0.36666667 0
0.13333333 0.36666667 0
0.16666667 0.36666667 0
0.2 0.36666667 0
0.23333333 0.36666667 0
0.26666667 0.36666667 0
0.3 0.36666667 0
0.33333333 0.36666667 0
0.36666667 0.36666667 0
0.4 0.36666667 0
0.43333333 0.36666667 0
0.46666667 0.36666667 0
0.5 0.36666667 0
0.53333333 0.36666667 0
0.56666667 0.36666667 0
0.6 0.36666667 0
0.63333333 0.36666667 0
0.66666667 0.36666667 0
0.7 0.36666667 0
0.73333333 0.36666667 0
0.76666667 0.36666667 0
0.8 0.36666667 0
0.83333333 0.36666667 0
0.86666667 0.36666667 0
0.9 0.36666667 0
0.93333333 0.36666667 0
0.96666667 0.36666667 0
1 0.36666667 0
0 0.4 0
0.033333333 0.4 0
0.066666667 0.4 0
0.1 0.4 0
0.13333333 0.4 0
0.16666667 0.4 0
0.2 0.4 0
0.23333333 0.4 0
0.26666667 0.4 0
0.3 0.4 0
0.33333333 0.4 0
0.36666667 0.4 0
0.4 0.4 0
0.43333333 0.4 0
0.46666667 0.4 0
0.5 0.4 0
0.53333333 0.4 0
0.56666667 0.4 0
0.6 0.4 0
0.63333333 0.4 0
0.66666667 0.4 0
0.7 0.4 0
0.73333333 0.4 0
0.76666667 0.4 0
0.8 0.4 0
0.83333333 0.4 0
0.86666667 0.4 0
0.9 0.4 0
0.93333333 0.4 0
0.96666667 0.4 0
1 0.4 0
0 0.43333333 0
0.033333333 0.43333333 0
0.066666667 0.43333333 0
0.1 0.43333333 0
0.13333333 0.43333333 0
0.16666667 0.43333333 0
0.2 0.43333333 0
0.23333333 0.43333333 0
0.26666667 0.43333333 0
0.3 0.43333333 0
0.33333333 0.43333333 0
0.36666667 0.43333333 0
0.4 0.43333333 0
0.43333333 0.43333333 0
0.46666667 0.43333333 0
0.5 0.43333333 0
0.53333333 0.43333333 0
0.56666667 0.43333333 0
0.6 0.43333333 0
0.63333333 0.43333333 0
0.66666667 0.43333333 0
0.7 0.43333333 0
0.73333333 0.43333333 0
0.76666667 0.43333333 0
0.8 0.43333333 0
0.83333333 0.43333333 0
0.86666667 0.43333333 0
0.9 0.43333333 0
0.93333333 0.43333333 0
0.96666667 0.43333333 0
1 0.43333333 0
0 0.46666667 0
0.033333333 0.46666667 0
0.066666667 0.46666667 0
0.1 0.46666667 0
0.13333333 0.46666667 0
0.16666667 0.46666667 0
0.2 0.46666667 0
0.23333333 0.46666667 0
0.26666667 0.46666667 0
0.3 0.46666667 0
0.33333333 0.46666667 0
0.36666667 0.46666667 0
0.4 0.46666667 0
0.43333333 0.46666667 0
0.46666667 0.46666667 0
0.5 0.46666667 0
0.53333333 0.46666667 0
0.56666667 0.46666667 0
0.6 0.46666667 0
0.63333333 0.46666667 0
0.66666667 0.46666667 0
0.7 0.46666667 0
0.73333333 0.46666667 0
0.76666667 0.46666667 0
0.8 0.46666667 0
0.83333333 0.46666667 0
0.86666667 0.46666667 0
0.9 0.46666667 0
0.93333333 0.46666667 0
0.96666667 0.46666667 0
1 0.46666667 0
0 0.5 0
0.033333333 0.5 0
0.066666667 0.5 0
0.1 0.5 0
0.13333333 0.5 0
0.16666667 0.5 0
0.2 0.5 0
0.23333333 0.5 0
0.26666667 0.5 0
0.3 0.5 0
0.33333333 0.5 0
0.36666667 0.5 0
0.4 0.5 0
0.43333333 0.5 0
0.46666667 0.5 0
0.5 0.5 0
0.53333333 0.5 0
0.56666667 0.5 0
0.6 0.5 0
0.63333333 0.5 0
0.66666667 0.5 0
0.7 0.5 0
0.73333333 0.5 0
0.76666667 0.5 0
0.8 0.5 0
0.83333333 0.5 0
0.86666667 0.5 0
0.9 0.5 0
0.93333333 0.5 0
0.96666667 0.5 0
1 0.5 0
0 0.53333333 0
0.033333333 0.53333333 0
0.066666667 0.53333333 0
0.1 0.53333333 0
0.13333333 0.53333333 0
0.16666667 0.53333333 0
0.2 0.53333333 0
0.23333333 0.53333333 0
0.26666667 0.53333333 0
0.3 0.53333333 0
0.33333333 0.53333333 0
0.36666667 0.53333333 0
0.4 0.53333333 0
0.43333333 0.53333333 0
0.46666667 0.53333333 0
0.5 0.53333333 0
0.53333333 0.53333333 0
0.56666667 0.53333333 0
0.6 0.53333333 0
0.63333333 0.53333333 0
0.66666667 0.53333333 0
0.7 0.53333333 0
0.73333333 0.53333333 0
0.76666667 0.53333333 0
[...]
CELL_DATA 1920
Scalars  Label int 1
LOOKUP_TABLE FreeFempp_table
0
0
0
0
0
0
0
0
0
0
0
0
0
0
0
0
0
0
0
0
0
0
0
0
0
0
0
0
0
0
0
0
0
0
0
0
0
0
0
0
0
0
0
0
0
0
0
0
0
0
0
0
0
0
0
0
0
0
0
0
0
0
0
0
0
0
0
0
0
0
0
0
0
0
0
0
0
0
0
0
0
0
0
0
0
0
0
0
0
0
0
0
0
0
0
0
0
0
0
0
0
0
0
0
0
0
0
0
0
0
0
0
0
0
0
0
0
0
0
0
0
0
0
0
0
0
0
0
0
0
0
0
0
0
0
0
0
0
0
0
0
0
0
0
0
0
0
0
0
0
0
0
0
0
0
0
0
0
0
0
0
0
0
0
0
0
0
0
0
0
0
0
0
0
0
0
0
0
0
0
0
0
0
0
0
0
0
0
0
0
0
0
0
0
0
0
0
0
0
0
0
0
0
0
0
0
0
0
0
0
0
0
0
0
0
0
0
0
0
0
0
0
0
0
0
0
0
0
0
0
0
0
0
0
0
0
0
0
0
0
0
0
0
0
0
0
0
0
0
0
0
0
0
0
0
0
0
0
0
0
0
0
0
0
0
0
0
0
0
0
0
0
0
0
0
0
0
0
0
0
0
0
0
0
0
0
0
0
0
0
0
0
0
0
0
0
0
0
0
0
0
0
0
0
0
0
0
0
0
0
0
0
0
0
0
0
0
0
0
0
0
0
0
0
0
0
0
0
0
0
0
0
0
0
0
0
0
0
0
0
0
0
0
0
0
0
0
0
0
0
0
0
0
0
0
0
0
0
0
0
0
0
0
0
0
0
0
0
0
0
0
0
0
0
0
0
0
0
0
0
0
0
0
0
0
0
0
0
0
0
0
0
0
0
0
0
0
0
0
0
0
0
0
0
0
0
0
0
0
0
0
0
0
0
0
0
0
0
0
0
0
0
0
0
0
0
0
0
0
0
0
0
0
0
0
0
0
0
0
0
0
0
0
0
0
0
0
0
0
0
0
0
0
0
0
0
0
0
0
0
0
0
0
0
0
0
0
0
0
0
0
0
0
0
0
0
0
0
0
0
0
0
0
0
0
0
0
0
0
0
0
0
0
0
0
0
0
0
0
0
0
0
0
0
0
0
0
0
0
0
0
0
0
0
0
0
0
0
0
0
0
0
0
0
0
0
0
0
0
0
0
0
0
0
0
0
0
0
0
0
0
0
0
0
0
0
0
0
0
0
0
0
0
0
0
0
0
0
0
0
0
0
0
0
0
0
0
0
0
0
0
0
0
0
0
0
0
0
0
0
0
0
0
0
0
0
0
0
0
0
0
0
0
0
0
0
0
0
0
0
0
0
0
0
0
0
0
0
0
0
0
0
0
0
0
0
0
0
0
0
0
0
0
0
0
0
0
0
0
0
0
0
0
0
0
0
0
0
0
0
0
0
0
0
0
0
0
0
0
0
0
0
0
0
0
0
0
0
0
0
0
0
0
0
0
0
0
0
0
0
0
0
0
0
0
0
0
0
0
0
0
0
0
0
0
0
0
0
0
0
0
0
0
0
0
0
0
0
0
0
0
0
0
0
0
0
0
0
0
0
0
0
0
0
0
0
0
0
0
0
0
0
0
0
0
0
0
0
0
0
0
0
0
0
0
0
0
0
0
0
0
0
0
0
0
0
0
0
0
0
0
0
0
0
0
0
0
0
0
0
0
0
0
0
0
0
0
0
0
0
0
0
0
0
0
0
0
0
0
0
0
0
0
0
0
0
0
0
0
0
0
0
0
0
0
0
0
0
0
0
0
0
0
0
0
0
0
0
0
0
0
0
0
0
0
0
0
0
0
0
0
0
0
0
0
0
0
0
0
0
0
0
0
0
0
0
0
0
0
0
0
0
0
0
0
0
0
0
0
0
0
0
0
0
0
0
0
0
0
0
0
0
0
0
0
0
0
0
0
0
0
0
0
0
0
0
0
0
0
0
0
0
0
0
0
0
0
0
0
0
0
0
0
0
0
0
0
0
0
0
0
0
0
0
0
0
0
0
0
0
0
0
0
0
0
0
0
0
0
0
0
0
0
0
0
0
0
0
0
0
0
0
0
0
0
0
0
0
0
0
0
0
0
0
0
0
0
0
0
0
0
0
0
0
0
0
0
0
0
0
0
0
0
0
0
0
0
0
0
0
0
0
0
0
0
0
0
0
0
0
0
0
0
0
0
0
0
0
0
0
0
0
0
0
0
0
0
0
0
0
0
0
0
0
0
0
0
0
0
0
0
0
0
0
0
0
0
0
0
0
0
0
0
0
0
0
0
0
0
0
0
0
0
0
0
0
0
0
0
0
0
0
0
0
0
0
0
0
0
0
0
0
0
0
0
0
0
0
0
0
0
0
0
0
0
0
0
0
0
0
0
0
0
0
0
0
0
0
0
0
0
0
0
0
0
0
0
0
0
0
0
0
0
0
0
0
0
0
0
0
0
0
0
0
0
0
0
0
0
0
0
0
0
0
0
0
0
0
0
0
0
0
0
0
0
0
0
0
0
0
0
0
0
0
0
0
0
0
0
0
0
0
0
0
0
0
0
0
0
0
0
0
0
0
0
0
0
0
0
0
0
0
0
0
0
0
0
0
0
0
0
0
0
0
0
0
0
0
0
0
0
0
0
0
0
0
0
0
0
0
0
0
0
0
0
0
0
0
0
0
0
0
0
0
0
0
0
0
0
0
0
0
0
0
0
0
0
0
0
0
0
0
0
0
0
0
0
0
0
0
0
0
0
0
0
0
0
0
0
0
0
0
0
0
0
0
0
0
0
0
0
0
0
0
0
0
0
0
0
0
0
0
0
0
0
0
0
0
0
0
0
0
0
0
0
0
0
0
0
0
0
0
0
0
0
0
0
0
0
0
0
0
0
0
0
0
0
0
0
0
0
0
0
0
0
0
0
0
0
0
0
0
0
0
0
0
0
0
0
0
0
0
0
0
0
0
0
0
0
0
0
0
0
0
0
0
0
0
0
0
0
0
0
0
0
0
0
0
0
0
0
0
0
0
0
0
0
0
0
0
0
0
0
0
0
0
0
0
0
0
0
0
0
0
0
0
0
0
0
0
0
0
0
0
0
0
0
0
0
0
0
0
0
0
0
0
0
0
0
0
0
0
0
0
0
0
0
0
0
0
0
0
0
0
0
0
0
0
0
0
0
0
0
0
0
0
0
0
0
0
0
0
0
0
0
0
0
0
0
0
0
0
0
0
0
0
0
0
0
0
0
0
0
0
0
0
0
0
0
0
0
0
0
0
0
0
0
0
0
0
0
0
0
0
0
0
0
0
0
0
0
0
0
0
0
0
0
0
0
0
0
0
0
0
0
0
0
0
0
0
0
0
0
0
0
0
0
0
0
0
0
0
0
0
0
0
0
0
0
0
0
0
0
0
0
0
0
0
0
0
0
0
0
0
0
0
0
0
0
0
0
0
0
0
0
0
0
0
0
0
0
0
0
0
0
0
0
0
0
0
0
0
0
0
0
0
0
0
0
0
0
0
0
0
0
0
0
0
0
0
0
0
0
0
0
0
0
0
0
0
0
0
0
0
0
0
0
0
0
0
0
0
0
0
0
0
0
0
0
0
0
0
0
0
0
0
0
0
0
0
0
0
0
0
0
0
0
0
0
0
0
0
0
0
0
0
0
0
0
0
0
0
0
0
0
0
0
0
0
0
0
0
0
0
0
0
0
0
0
0
0
0
0
0
0
0
0
0
0
0
0
0
0
0
0
0
0
0
0
0
0
0
0
0
0
0
0
0
0
0
0
0
0
0
0
0
0
0
0
0
0
0
0
0
0
0
0
0
0
0
0
0
0
0
0
0
0
0
0
0
0
0
0
0
0
0
0
0
0
0
0
0
0
0
0
0
0
0
0
0
0
0
0
0
0
0
0
0
0
0
0
0
0
0
0
0
0
0
0
0
0
0
0
0
0
0
0
0
0
0
0
0
0
0
0
0
0
0
0
0
0
0
0
0
0
0
0
0
0
0
0
0
0
0
0
0
0
0
0
0
1
1
1
1
1
1
1
1
1
1
1
1
1
1
1
1
1
1
1
1
1
1
1
1
1
1
1
1
1
1
2
2
2
2
2
2
2
2
2
2
2
2
2
2
2
2
2
2
2
2
2
2
2
2
2
2
2
2
2
2
3
3
3
3
3
3
3
3
3
3
3
3
3
3
3
3
3
3
3
3
3
3
3
3
3
3
3
3
3
3
4
4
4
4
4
4
4
4
4
4
4
4
4
4
4
4
4
4
4
4
4
4
4
4
4
4
4
4
4
4

LOOKUP_TABLE FreeFempp_table 5
1.00000000 0.00000000 0.00000000 1.00000000
1.00000000 1.00000000 0.00000000 1.00000000
1.00000000 0.00000000 1.00000000 1.00000000
0.00000000 1.00000000 0.00000000 1.00000000
0.00000000 1.00000000 1.00000000 1.00000000

POINT_DATA 961
FIELD FieldData 1
Density 1 961 float
2.10096501e-03 2.74241646e-03 3.05240368e-03 4.23695520e-03 5.04510710e-03 5.38749294e-03 6.89875381e-03 1.39461756e-02 1.34238638e-02 9.30839125e-03 8.08436982e-03 7.86836073e-03 6.59439946e-03 6.00547716e-03 5.53926220e-03 5.75719215e-03 6.37673773e-03 6.03613677e-03 5.96136414e-03 7.94769451e-03 9.33954399e-03 6.85830787e-03 5.83945122e-03 6.37229439e-03 1.14593562e-02 1.79889560e-01 9.88283277e-01 9.91403282e-01 2.78131990e-03 2.66029383e-03 6.02173917e-02 2.14810250e-03 1.14985183e-03 2.47957883e-03 2.71467352e-03 2.79797032e-03 2.83847842e-03 2.81759421e-03 2.77962699e-03 2.83782883e-03 2.95767863e-03 3.04451957e-03 3.10654962e-03 3.18489084e-03 3.25631304e-03 3.30168731e-03 3.33793717e-03 3.36880866e-03 3.39280115e-03 3.40914563e-03 3.42065352e-03 3.42870760e-03 3.43488250e-03 3.43825365e-03 3.43956449e-03 3.75986961e-03 8.58225487e-03 9.83047903e-01 9.92766678e-01 6.37699384e-03 1.32446678e-03 3.05208098e-03 8.09450522e-02 2.98264320e-03 2.85743224e-03 2.87293294e-03 2.81781261e-03 2.78013572e-03 2.72985478e-03 2.58207973e-03 2.49512540e-03 2.58799805e-03 2.74565862e-03 2.87560420e-03 3.03035160e-03 3.17719486e-03 3.25050461e-03 3.29914084e-03 3.33896326e-03 3.37067689e-03 3.39338975e-03 3.40854120e-03 3.41888214e-03 3.42731457e-03 3.43360798e-03 3.43664782e-03 3.44008720e-03 1.11876084e-02 9.78335083e-01 9.91638124e-01 7.37426639e-01 1.29721873e-03 1.95328868e-03 4.12450194e-01 1.87203232e-02 6.02605753e-03 5.83492406e-03 5.10418089e-03 4.01607947e-03 3.98836099e-03 4.42398200e-03 5.00873104e-03 4.88431845e-03 3.33654135e-03 3.14434362e-03 3.17980140e-03 3.23140528e-03 3.26956413e-03 3.29887425e-03 3.33787384e-03 3.37339216e-03 3.39683169e-03 3.41346394e-03 3.42535903e-03 3.43337143e-03 3.43765575e-03 3.46571160e-03 4.16729134e-03 1.71124265e-02 9.70202744e-01 9.90700305e-01 9.50653374e-01 1.62064470e-03 1.58262160e-03 7.03836441e-01 1.23478010e-01 1.55218048e-02 1.90340523e-02 2.70092469e-02 4.04965132e-02 1.12779915e-01 3.17169696e-01 4.73360002e-01 4.51019257e-01 2.55585194e-01 8.08110684e-02 2.07385644e-02 7.54457293e-03 4.62496793e-03 3.86537239e-03 3.38183204e-03 3.39726522e-03 3.41450959e-03 3.42833460e-03 3.49556375e-03 3.84324160e-03 4.10771417e-03 6.16319571e-03 8.62067752e-03 5.98169751e-02 9.75918829e-01 9.90541339e-01 9.73995745e-01 1.75056851e-03 1.67562987e-03 6.90400600e-01 6.27032399e-01 3.00037503e-01 4.75627422e-01 5.46198785e-01 6.41542614e-01 7.68630803e-01 8.35026085e-01 8.41566980e-01 7.95760632e-01 6.73293710e-01 4.64408576e-01 2.58278787e-01 9.67008471e-02 5.52097559e-02 3.62099409e-02 1.54933669e-02 8.72360077e-03 5.76375052e-03 5.62198460e-03 5.34763467e-03 4.99753561e-03 5.56728384e-03 7.67627871e-03 2.08437033e-02 3.98215771e-01 9.80639517e-01 9.90025520e-01 9.82309520e-01 1.89713389e-03 1.80448615e-03 8.60796809e-01 8.81473720e-01 8.97296607e-01 9.08003867e-01 8.68566692e-01 8.43466818e-01 8.11486185e-01 7.68539906e-01 7.03062117e-01 5.77334762e-01 3.79832238e-01 2.19316378e-01 1.45882219e-01 1.04415372e-01 6.16063587e-02 3.78385931e-02 3.06993630e-02 3.01627088e-02 2.52038836e-02 1.28156589e-02 9.34695173e-03 7.64482375e-03 7.27902027e-03 1.01652406e-02 4.21442576e-02 6.81813240e-01 9.80706096e-01 9.89605784e-01 9.85870481e-01 2.05201237e-03 1.95228786e-03 9.27437603e-01 9.62014496e-01 9.68586743e-01 9.50312138e-01 8.94543886e-01 8.33879352e-01 7.34694839e-01 6.09320819e-01 4.73512679e-01 3.23258877e-01 1.91764742e-01 1.21851511e-01 9.27907750e-02 7.46216625e-02 6.14511594e-02 4.92420010e-02 3.79967317e-02 2.83985659e-02 2.09287200e-02 1.65505726e-02 1.34432288e-02 1.22176791e-02 1.27943223e-02 2.18058657e-02 7.73404762e-02 7.22681940e-01 9.78434145e-01 9.89237785e-01 9.86822903e-01 2.20780633e-03 2.10711733e-03 3.98199141e-01 7.75365949e-01 7.06610978e-01 5.50838470e-01 5.97808421e-01 6.08069420e-01 5.46784699e-01 4.42519039e-01 3.24114650e-01 2.11148575e-01 1.30584836e-01 9.08764079e-02 7.41619319e-02 6.39344528e-02 5.62061071e-02 5.02292104e-02 4.07894701e-02 2.77577452e-02 1.90922767e-02 1.59080122e-02 1.48344357e-02 1.50789805e-02 2.05396041e-02 4.59888391e-02 1.53820917e-01 6.85986936e-01 9.71916676e-01 9.88832653e-01 9.86977398e-01 2.36013927e-03 2.26165610e-03 6.34952774e-03 5.47924079e-03 5.93647081e-03 8.14337283e-03 2.17559878e-02 7.50320628e-02 1.58628732e-01 1.80710658e-01 1.56664371e-01 1.15133479e-01 8.17440972e-02 6.51562735e-02 5.95077612e-02 5.73789068e-02 5.56354709e-02 5.21651097e-02 4.40772362e-02 3.33093032e-02 2.54365765e-02 2.14672890e-02 1.91060193e-02 1.90669913e-02 2.60426849e-02 5.97811788e-02 2.05936536e-01 7.18362093e-01 9.61943388e-01 9.88362312e-01 9.86787140e-01 2.50635250e-03 2.41186796e-03 1.09261815e-02 5.69937471e-03 5.24217309e-03 5.33686159e-03 8.55645165e-03 2.21933462e-02 4.38238569e-02 6.18659370e-02 6.34897426e-02 5.49316667e-02 4.59567569e-02 4.21700031e-02 4.33034524e-02 4.68698815e-02 5.03630266e-02 5.08222431e-02 4.61741276e-02 3.89554165e-02 3.30188945e-02 2.89095007e-02 2.67444085e-02 2.84435004e-02 4.01401184e-02 8.75065327e-02 2.62101978e-01 7.34174073e-01 9.63005781e-01 9.87213910e-01 9.86401677e-01 2.64461013e-03 2.55535543e-03 3.67394418e-01 3.01118702e-01 1.43009648e-01 7.33308345e-02 6.66342452e-02 7.13335648e-02 7.69119859e-02 7.19592646e-02 5.90620004e-02 4.53854091e-02 3.69281620e-02 3.39792296e-02 3.50693651e-02 3.84823158e-02 4.22471426e-02 4.34506834e-02 4.02544700e-02 3.47016491e-02 2.99081132e-02 2.76516899e-02 2.94739269e-02 3.80842872e-02 6.21129833e-02 1.31080642e-01 3.07159752e-01 7.15688407e-01 9.60078597e-01 9.86262441e-01 9.85369086e-01 2.77353800e-03 2.69041816e-03 3.83121014e-01 1.37100190e-01 2.11739898e-01 2.45301574e-01 4.53193486e-01 4.01357859e-01 3.13705027e-01 2.20957085e-01 1.36816427e-01 8.14168602e-02 5.51583730e-02 4.49566431e-02 4.22969386e-02 4.26819772e-02 4.33499366e-02 4.20396812e-02 3.80196758e-02 3.29231620e-02 2.89335568e-02 2.75368560e-02 3.04675139e-02 4.22177128e-02 7.37068206e-02 1.50632262e-01 3.30498904e-01 7.52018809e-01 9.72558856e-01 9.86978531e-01 9.82074738e-01 2.89211306e-03 2.81578046e-03 6.24796143e-03 5.28881326e-03 6.41436735e-03 4.00082469e-02 3.04355562e-01 4.92503136e-01 5.01001239e-01 4.15224671e-01 2.92518109e-01 1.86780527e-01 1.24292955e-01 9.48659778e-02 8.29696730e-02 7.81006515e-02 7.37733021e-02 6.60859942e-02 5.59287779e-02 4.71777469e-02 4.17950414e-02 4.04868498e-02 4.45519686e-02 5.81845492e-02 9.19214487e-02 1.72579199e-01 3.85519803e-01 8.28314960e-01 9.78182733e-01 9.86722767e-01 9.59507108e-01 2.99964915e-03 2.93048332e-03 3.45431711e-03 3.45642143e-03 4.22292668e-03 3.70077677e-02 1.14378259e-01 1.68808877e-01 2.51262933e-01 2.99609303e-01 2.89781094e-01 2.50626147e-01 2.12471321e-01 1.87783614e-01 1.77059591e-01 1.73475519e-01 1.66771159e-01 1.49705648e-01 1.23210393e-01 9.93415117e-02 8.46839845e-02 8.14095810e-02 9.14064646e-02 1.23592325e-01 2.06567749e-01 3.87023509e-01 6.39174044e-01 8.82813454e-01 9.77427959e-01 9.85420525e-01 8.10393274e-01 3.09583871e-03 3.03394394e-03 3.47250048e-03 3.46952514e-03 4.41042474e-03 8.69766325e-02 9.79481116e-02 9.70664322e-02 1.18400946e-01 1.50146186e-01 1.72803730e-01 1.87048867e-01 1.99094415e-01 2.13546708e-01 2.33240023e-01 2.52943963e-01 2.60416985e-01 2.48330146e-01 2.18790472e-01 1.86343357e-01 1.61818191e-01 1.54027551e-01 1.72137231e-01 2.37667605e-01 4.04580772e-01 6.64088547e-01 8.47480893e-01 9.38374519e-01 9.76059139e-01 9.82755780e-01 4.08743382e-01 3.18047428e-03 3.12590692e-03 3.48871807e-03 3.49378446e-03 1.36023946e-02 1.20331280e-01 9.50545669e-02 8.82734209e-02 9.95145291e-02 1.10883147e-01 1.18299522e-01 1.27503410e-01 1.43258557e-01 1.67243585e-01 2.00468063e-01 2.39101365e-01 2.68025488e-01 2.76683956e-01 2.65427321e-01 2.48846263e-01 2.36726105e-01 2.38811657e-01 2.68080682e-01 3.47265601e-01 5.11399508e-01 7.33144522e-01 8.85730207e-01 9.52216327e-01 9.76991832e-01 9.79416251e-01 1.90511778e-01 3.25366249e-03 3.20596155e-03 3.46525339e-03 3.49275465e-03 4.18582521e-02 1.10647358e-01 9.73137170e-02 8.77113044e-02 9.30483118e-02 9.84730348e-02 1.01350293e-01 1.04798935e-01 1.13253012e-01 1.29118770e-01 1.54308185e-01 1.88526824e-01 2.24426731e-01 2.51043409e-01 2.65188187e-01 2.76176989e-01 2.95321226e-01 3.32515627e-01 3.97831559e-01 4.95571405e-01 6.21483088e-01 7.59008288e-01 8.75609636e-01 9.50543702e-01 9.74689424e-01 9.65706050e-01 1.60917193e-02 3.32557643e-03 3.27464286e-03 3.41904210e-03 3.45904799e-03 5.24640940e-02 1.16787910e-01 9.52394158e-02 8.39153901e-02 8.30391422e-02 8.46008509e-02 8.73232484e-02 9.17264149e-02 9.90174562e-02 1.10815354e-01 1.28890321e-01 1.54455140e-01 1.85079142e-01 2.15921834e-01 2.46083409e-01 2.83195108e-01 3.38724941e-01 4.22781706e-01 5.36703944e-01 6.59127712e-01 7.60963559e-01 8.36302400e-01 8.96373630e-01 9.34662521e-01 9.48966026e-01 7.08844304e-01 3.42441327e-03 3.38645908e-03 3.35348630e-03 3.35754873e-03 3.40561010e-03 5.26696071e-02 1.44162640e-01 9.79025140e-02 7.64355958e-02 7.12365732e-02 7.09634423e-02 7.31918216e-02 7.82853290e-02 8.65193605e-02 9.84101892e-02 1.14969529e-01 1.37294963e-01 1.65206537e-01 1.97281614e-01 2.35633612e-01 2.89661676e-01 3.72587025e-01 4.92896587e-01 6.37171984e-01 7.66063273e-01 8.54211211e-01 9.07568514e-01 9.40725982e-01 9.55364227e-01 9.21703398e-01 5.85889556e-02 3.41446348e-03 3.40538868e-03 3.40821664e-03 3.28465644e-03 3.33758467e-03 4.87449728e-02 1.76107630e-01 1.04491085e-01 7.01159090e-02 6.10334910e-02 5.94893694e-02 6.10418022e-02 6.55174479e-02 7.33325183e-02 8.49620849e-02 1.01093218e-01 1.22568622e-01 1.49941012e-01 1.83941275e-01 2.28461191e-01 2.93840975e-01 3.94644886e-01 5.36864758e-01 6.94951415e-01 8.21502328e-01 8.99298370e-01 9.41646874e-01 9.62665617e-01 9.67921257e-01 9.03871477e-01 1.66905914e-02 3.44710262e-03 3.65838269e-03 1.06028561e-02 3.20526189e-03 3.25775892e-03 4.53006178e-02 2.04149768e-01 1.11165784e-01 6.47835135e-02 5.27828187e-02 5.02611659e-02 5.11543192e-02 5.46288751e-02 6.10197932e-02 7.09221959e-02 8.50033388e-02 1.03941008e-01 1.28472775e-01 1.60259947e-01 2.04290584e-01 2.71542579e-01 3.78146797e-01 5.32230914e-01 7.04172313e-01 8.37261319e-01 9.13872361e-01 9.52271938e-01 9.69524622e-01 9.74054933e-01 9.49461222e-01 2.60045975e-01 1.38419280e-02 8.94577056e-03 7.28114605e-01 3.12849670e-03 3.16911028e-03 4.22626249e-02 2.22369552e-01 1.14038520e-01 5.93019053e-02 4.58024740e-02 4.27934378e-02 4.32252474e-02 4.58682962e-02 5.08045331e-02 5.85466325e-02 6.96735978e-02 8.46332982e-02 1.03877254e-01 1.28781483e-01 1.63540915e-01 2.17457265e-01 3.06438774e-01 4.47712570e-01 6.31124854e-01 7.95340717e-01 8.95800114e-01 9.45178151e-01 9.66838717e-01 9.75081921e-01 9.73621368e-01 9.65015709e-01 9.58607435e-01 9.82128680e-01 9.64961469e-01 3.07284389e-03 3.07596358e-03 3.88483703e-02 2.29176879e-01 1.10264592e-01 5.33159599e-02 3.98080125e-02 3.67687158e-02 3.69615927e-02 3.90626453e-02 4.29573543e-02 4.89665009e-02 5.75265698e-02 6.89029992e-02 8.32275227e-02 1.01175800e-01 1.25188887e-01 1.60690442e-01 2.17183322e-01 3.08825105e-01 4.48446453e-01 6.22029424e-01 7.77466655e-01 8.79360676e-01 9.30720687e-01 9.52861130e-01 9.53624368e-01 9.55377519e-01 9.41575229e-01 9.59233284e-01 9.48672831e-01 3.07030650e-03 2.98245461e-03 3.68657745e-02 2.21241847e-01 9.94145274e-02 4.72712182e-02 3.48651595e-02 3.20506021e-02 3.21899876e-02 3.39741483e-02 3.72047797e-02 4.20362353e-02 4.87706028e-02 5.75932302e-02 6.85155317e-02 8.18022043e-02 9.87265557e-02 1.22099325e-01 1.56320706e-01 2.07079947e-01 2.80277669e-01 3.76910925e-01 4.86057997e-01 5.98412752e-01 6.97547317e-01 7.54405320e-01 7.39140093e-01 6.96689904e-01 6.14347756e-01 6.40897036e-01 8.17300081e-01 3.24985571e-03 2.88508018e-03 3.95750888e-02 1.87277138e-01 8.33295062e-02 4.16776054e-02 3.09559107e-02 2.85537895e-02 2.88279261e-02 3.04598641e-02 3.32227685e-02 3.71792018e-02 4.25191373e-02 4.93880287e-02 5.78028895e-02 6.78979382e-02 8.03919658e-02 9.68849212e-02 1.19849496e-01 1.52463228e-01 1.98083982e-01 2.57703573e-01 3.24723303e-01 3.95437330e-01 4.59047228e-01 4.40728545e-01 3.17321032e-01 1.91216409e-01 1.10034831e-01 9.66474414e-02 6.90044761e-01 1.32904761e-03 2.44258507e-03 8.79442170e-02 1.22231402e-01 6.70782700e-02 3.63998339e-02 2.79480442e-02 2.63176709e-02 2.69324873e-02 2.85140369e-02 3.08432486e-02 3.39620560e-02 3.79699953e-02 4.29458059e-02 4.89058457e-02 5.59530295e-02 6.45159036e-02 7.53588900e-02 8.92260745e-02 1.06250681e-01 1.25379175e-01 1.43871129e-01 1.57001257e-01 1.63898289e-01 1.66801393e-01 1.11633256e-01 4.85708080e-02 1.96502246e-02 1.32497707e-02 1.25722429e-02 2.82694042e-01 2.81297462e-03 5.60231367e-03 1.23203591e-01 7.85653442e-02 4.77535650e-02 3.14052142e-02 2.62966305e-02 2.57832371e-02 2.67370716e-02 2.81582549e-02 2.99038142e-02 3.20493728e-02 3.46424058e-02 3.76527868e-02 4.09678109e-02 4.44972627e-02 4.83185053e-02 5.26579209e-02 5.76464944e-02 6.29309341e-02 6.72116131e-02 6.78298622e-02 6.16570339e-02 4.95302156e-02 3.86140607e-02 2.68425997e-02 1.21024614e-02 6.49237214e-03 4.72455565e-03 5.91939688e-03 3.99363935e-02 1.23143740e-01 2.57459772e-03 3.06941988e-03 7.43496493e-02 3.26576717e-02 2.92555913e-02 2.78838705e-02 2.79812794e-02 2.85600163e-02 2.92038172e-02 2.99138241e-02 3.08012161e-02 3.19057554e-02 3.31231132e-02 3.41739841e-02 3.46657075e-02 3.42647582e-02 3.29006314e-02 3.08990926e-02 2.89045516e-02 2.75243744e-02 2.66387369e-02 2.46799830e-02 2.01734323e-02 1.57726761e-02 1.29456231e-02 7.28449877e-03 4.09192359e-03 2.58298172e-03 3.83974193e-03 2.07346343e-02 3.59791727e-03 3.22261214e-04 6.42443192e-04 8.78859878e-01 1.99100778e-01 3.47167104e-02 3.26641835e-02 3.29300500e-02 3.22714746e-02 3.13532501e-02 3.03156916e-02 2.93817595e-02 2.87459679e-02 2.84592360e-02 2.83878371e-02 2.82204598e-02 2.75233239e-02 2.58773491e-02 2.31363662e-02 1.96711365e-02 1.62192788e-02 1.32719260e-02 1.06739532e-02 8.41351319e-03 6.95572980e-03 6.32710755e-03 5.71269728e-03 4.00933251e-03 1.82101736e-03 2.78829434e-03 2.01508123e-02 3.91696347e-03 3.12402518e-03 7.47365470e-04 9.89596546e-01 8.97661209e-01 8.39077413e-01 5.16853511e-01 2.99203992e-01 2.07086191e-01 1.63884476e-01 1.40822247e-01 1.27460420e-01 1.20343782e-01 1.18129008e-01 1.20018736e-01 1.25282675e-01 1.33055106e-01 1.42065227e-01 1.50174737e-01 1.53852940e-01 1.48037925e-01 1.27687037e-01 9.36214551e-02 5.87362275e-02 3.38192768e-02 1.89985670e-02 1.22540975e-02 9.47737135e-03 2.76313792e-03 2.15673447e-03 1.13729285e-02 
