# vtk DataFile Version 2.0
results_case1_non_linear/iter0.vtk, Created by Freefem++ 
ASCII
DATASET UNSTRUCTURED_GRID
POINTS 961 float
0 0 0
0.033333333 0 0
0.066666667 0 0
0.1 0 0
0.13333333 0 0
0.16666667 0 0
0.2 0 0
0.23333333 0 0
0.26666667 0 0
0.3 0 0
0.33333333 0 0
0.36666667 0 0
0.4 0 0
0.43333333 0 0
0.46666667 0 0
0.5 0 0
0.53333333 0 0
0.56666667 0 0
0.6 0 0
0.63333333 0 0
0.66666667 0 0
0.7 0 0
0.73333333 0 0
0.76666667 0 0
0.8 0 0
0.83333333 0 0
0.86666667 0 0
0.9 0 0
0.93333333 0 0
0.96666667 0 0
1 0 0
0 0.033333333 0
0.033333333 0.033333333 0
0.066666667 0.033333333 0
0.1 0.033333333 0
0.13333333 0.033333333 0
0.16666667 0.033333333 0
0.2 0.033333333 0
0.23333333 0.033333333 0
0.26666667 0.033333333 0
0.3 0.033333333 0
0.33333333 0.033333333 0
0.36666667 0.033333333 0
0.4 0.033333333 0
0.43333333 0.033333333 0
0.46666667 0.033333333 0
0.5 0.033333333 0
0.53333333 0.033333333 0
0.56666667 0.033333333 0
0.6 0.033333333 0
0.63333333 0.033333333 0
0.66666667 0.033333333 0
0.7 0.033333333 0
0.73333333 0.033333333 0
0.76666667 0.033333333 0
0.8 0.033333333 0
0.83333333 0.033333333 0
0.86666667 0.033333333 0
0.9 0.033333333 0
0.93333333 0.033333333 0
0.96666667 0.033333333 0
1 0.033333333 0
0 0.066666667 0
0.033333333 0.066666667 0
0.066666667 0.066666667 0
0.1 0.066666667 0
0.13333333 0.066666667 0
0.16666667 0.066666667 0
0.2 0.066666667 0
0.23333333 0.066666667 0
0.26666667 0.066666667 0
0.3 0.066666667 0
0.33333333 0.066666667 0
0.36666667 0.066666667 0
0.4 0.066666667 0
0.43333333 0.066666667 0
0.46666667 0.066666667 0
0.5 0.066666667 0
0.53333333 0.066666667 0
0.56666667 0.066666667 0
0.6 0.066666667 0
0.63333333 0.066666667 0
0.66666667 0.066666667 0
0.7 0.066666667 0
0.73333333 0.066666667 0
0.76666667 0.066666667 0
0.8 0.066666667 0
0.83333333 0.066666667 0
0.86666667 0.066666667 0
0.9 0.066666667 0
0.93333333 0.066666667 0
0.96666667 0.066666667 0
1 0.066666667 0
0 0.1 0
0.033333333 0.1 0
0.066666667 0.1 0
0.1 0.1 0
0.13333333 0.1 0
0.16666667 0.1 0
0.2 0.1 0
0.23333333 0.1 0
0.26666667 0.1 0
0.3 0.1 0
0.33333333 0.1 0
0.36666667 0.1 0
0.4 0.1 0
0.43333333 0.1 0
0.46666667 0.1 0
0.5 0.1 0
0.53333333 0.1 0
0.56666667 0.1 0
0.6 0.1 0
0.63333333 0.1 0
0.66666667 0.1 0
0.7 0.1 0
0.73333333 0.1 0
0.76666667 0.1 0
0.8 0.1 0
0.83333333 0.1 0
0.86666667 0.1 0
0.9 0.1 0
0.93333333 0.1 0
0.96666667 0.1 0
1 0.1 0
0 0.13333333 0
0.033333333 0.13333333 0
0.066666667 0.13333333 0
0.1 0.13333333 0
0.13333333 0.13333333 0
0.16666667 0.13333333 0
0.2 0.13333333 0
0.23333333 0.13333333 0
0.26666667 0.13333333 0
0.3 0.13333333 0
0.33333333 0.13333333 0
0.36666667 0.13333333 0
0.4 0.13333333 0
0.43333333 0.13333333 0
0.46666667 0.13333333 0
0.5 0.13333333 0
0.53333333 0.13333333 0
0.56666667 0.13333333 0
0.6 0.13333333 0
0.63333333 0.13333333 0
0.66666667 0.13333333 0
0.7 0.13333333 0
0.73333333 0.13333333 0
0.76666667 0.13333333 0
0.8 0.13333333 0
0.83333333 0.13333333 0
0.86666667 0.13333333 0
0.9 0.13333333 0
0.93333333 0.13333333 0
0.96666667 0.13333333 0
1 0.13333333 0
0 0.16666667 0
0.033333333 0.16666667 0
0.066666667 0.16666667 0
0.1 0.16666667 0
0.13333333 0.16666667 0
0.16666667 0.16666667 0
0.2 0.16666667 0
0.23333333 0.16666667 0
0.26666667 0.16666667 0
0.3 0.16666667 0
0.33333333 0.16666667 0
0.36666667 0.16666667 0
0.4 0.16666667 0
0.43333333 0.16666667 0
0.46666667 0.16666667 0
0.5 0.16666667 0
0.53333333 0.16666667 0
0.56666667 0.16666667 0
0.6 0.16666667 0
0.63333333 0.16666667 0
0.66666667 0.16666667 0
0.7 0.16666667 0
0.73333333 0.16666667 0
0.76666667 0.16666667 0
0.8 0.16666667 0
0.83333333 0.16666667 0
0.86666667 0.16666667 0
0.9 0.16666667 0
0.93333333 0.16666667 0
0.96666667 0.16666667 0
1 0.16666667 0
0 0.2 0
0.033333333 0.2 0
0.066666667 0.2 0
0.1 0.2 0
0.13333333 0.2 0
0.16666667 0.2 0
0.2 0.2 0
0.23333333 0.2 0
0.26666667 0.2 0
0.3 0.2 0
0.33333333 0.2 0
0.36666667 0.2 0
0.4 0.2 0
0.43333333 0.2 0
0.46666667 0.2 0
0.5 0.2 0
0.53333333 0.2 0
0.56666667 0.2 0
0.6 0.2 0
0.63333333 0.2 0
0.66666667 0.2 0
0.7 0.2 0
0.73333333 0.2 0
0.76666667 0.2 0
0.8 0.2 0
0.83333333 0.2 0
0.86666667 0.2 0
0.9 0.2 0
0.93333333 0.2 0
0.96666667 0.2 0
1 0.2 0
0 0.23333333 0
0.033333333 0.23333333 0
0.066666667 0.23333333 0
0.1 0.23333333 0
0.13333333 0.23333333 0
0.16666667 0.23333333 0
0.2 0.23333333 0
0.23333333 0.23333333 0
0.26666667 0.23333333 0
0.3 0.23333333 0
0.33333333 0.23333333 0
0.36666667 0.23333333 0
0.4 0.23333333 0
0.43333333 0.23333333 0
0.46666667 0.23333333 0
0.5 0.23333333 0
0.53333333 0.23333333 0
0.56666667 0.23333333 0
0.6 0.23333333 0
0.63333333 0.23333333 0
0.66666667 0.23333333 0
0.7 0.23333333 0
0.73333333 0.23333333 0
0.76666667 0.23333333 0
0.8 0.23333333 0
0.83333333 0.23333333 0
0.86666667 0.23333333 0
0.9 0.23333333 0
0.93333333 0.23333333 0
0.96666667 0.23333333 0
1 0.23333333 0
0 0.26666667 0
0.033333333 0.26666667 0
0.066666667 0.26666667 0
0.1 0.26666667 0
0.13333333 0.26666667 0
0.16666667 0.26666667 0
0.2 0.26666667 0
0.23333333 0.26666667 0
0.26666667 0.26666667 0
0.3 0.26666667 0
0.33333333 0.26666667 0
0.36666667 0.26666667 0
0.4 0.26666667 0
0.43333333 0.26666667 0
0.46666667 0.26666667 0
0.5 0.26666667 0
0.53333333 0.26666667 0
0.56666667 0.26666667 0
0.6 0.26666667 0
0.63333333 0.26666667 0
0.66666667 0.26666667 0
0.7 0.26666667 0
0.73333333 0.26666667 0
0.76666667 0.26666667 0
0.8 0.26666667 0
0.83333333 0.26666667 0
0.86666667 0.26666667 0
0.9 0.26666667 0
0.93333333 0.26666667 0
0.96666667 0.26666667 0
1 0.26666667 0
0 0.3 0
0.033333333 0.3 0
0.066666667 0.3 0
0.1 0.3 0
0.13333333 0.3 0
0.16666667 0.3 0
0.2 0.3 0
0.23333333 0.3 0
0.26666667 0.3 0
0.3 0.3 0
0.33333333 0.3 0
0.36666667 0.3 0
0.4 0.3 0
0.43333333 0.3 0
0.46666667 0.3 0
0.5 0.3 0
0.53333333 0.3 0
0.56666667 0.3 0
0.6 0.3 0
0.63333333 0.3 0
0.66666667 0.3 0
0.7 0.3 0
0.73333333 0.3 0
0.76666667 0.3 0
0.8 0.3 0
0.83333333 0.3 0
0.86666667 0.3 0
0.9 0.3 0
0.93333333 0.3 0
0.96666667 0.3 0
1 0.3 0
0 0.33333333 0
0.033333333 0.33333333 0
0.066666667 0.33333333 0
0.1 0.33333333 0
0.13333333 0.33333333 0
0.16666667 0.33333333 0
0.2 0.33333333 0
0.23333333 0.33333333 0
0.26666667 0.33333333 0
0.3 0.33333333 0
0.33333333 0.33333333 0
0.36666667 0.33333333 0
0.4 0.33333333 0
0.43333333 0.33333333 0
0.46666667 0.33333333 0
0.5 0.33333333 0
0.53333333 0.33333333 0
0.56666667 0.33333333 0
0.6 0.33333333 0
0.63333333 0.33333333 0
0.66666667 0.33333333 0
0.7 0.33333333 0
0.73333333 0.33333333 0
0.76666667 0.33333333 0
0.8 0.33333333 0
0.83333333 0.33333333 0
0.86666667 0.33333333 0
0.9 0.33333333 0
0.93333333 0.33333333 0
0.96666667 0.33333333 0
1 0.33333333 0
0 0.36666667 0
0.033333333 0.36666667 0
0.066666667 0.36666667 0
0.1 0.36666667 0
0.13333333 0.36666667 0
0.16666667 0.36666667 0
0.2 0.36666667 0
0.23333333 0.36666667 0
0.26666667 0.36666667 0
0.3 0.36666667 0
0.33333333 0.36666667 0
0.36666667 0.36666667 0
0.4 0.36666667 0
0.43333333 0.36666667 0
0.46666667 0.36666667 0
0.5 0.36666667 0
0.53333333 0.36666667 0
0.56666667 0.36666667 0
0.6 0.36666667 0
0.63333333 0.36666667 0
0.66666667 0.36666667 0
0.7 0.36666667 0
0.73333333 0.36666667 0
0.76666667 0.36666667 0
0.8 0.36666667 0
0.83333333 0.36666667 0
0.86666667 0.36666667 0
0.9 0.36666667 0
0.93333333 0.36666667 0
0.96666667 0.36666667 0
1 0.36666667 0
0 0.4 0
0.033333333 0.4 0
0.066666667 0.4 0
0.1 0.4 0
0.13333333 0.4 0
0.16666667 0.4 0
0.2 0.4 0
0.23333333 0.4 0
0.26666667 0.4 0
0.3 0.4 0
0.33333333 0.4 0
0.36666667 0.4 0
0.4 0.4 0
0.43333333 0.4 0
0.46666667 0.4 0
0.5 0.4 0
0.53333333 0.4 0
0.56666667 0.4 0
0.6 0.4 0
0.63333333 0.4 0
0.66666667 0.4 0
0.7 0.4 0
0.73333333 0.4 0
0.76666667 0.4 0
0.8 0.4 0
0.83333333 0.4 0
0.86666667 0.4 0
0.9 0.4 0
0.93333333 0.4 0
0.96666667 0.4 0
1 0.4 0
0 0.43333333 0
0.033333333 0.43333333 0
0.066666667 0.43333333 0
0.1 0.43333333 0
0.13333333 0.43333333 0
0.16666667 0.43333333 0
0.2 0.43333333 0
0.23333333 0.43333333 0
0.26666667 0.43333333 0
0.3 0.43333333 0
0.33333333 0.43333333 0
0.36666667 0.43333333 0
0.4 0.43333333 0
0.43333333 0.43333333 0
0.46666667 0.43333333 0
0.5 0.43333333 0
0.53333333 0.43333333 0
0.56666667 0.43333333 0
0.6 0.43333333 0
0.63333333 0.43333333 0
0.66666667 0.43333333 0
0.7 0.43333333 0
0.73333333 0.43333333 0
0.76666667 0.43333333 0
0.8 0.43333333 0
0.83333333 0.43333333 0
0.86666667 0.43333333 0
0.9 0.43333333 0
0.93333333 0.43333333 0
0.96666667 0.43333333 0
1 0.43333333 0
0 0.46666667 0
0.033333333 0.46666667 0
0.066666667 0.46666667 0
0.1 0.46666667 0
0.13333333 0.46666667 0
0.16666667 0.46666667 0
0.2 0.46666667 0
0.23333333 0.46666667 0
0.26666667 0.46666667 0
0.3 0.46666667 0
0.33333333 0.46666667 0
0.36666667 0.46666667 0
0.4 0.46666667 0
0.43333333 0.46666667 0
0.46666667 0.46666667 0
0.5 0.46666667 0
0.53333333 0.46666667 0
0.56666667 0.46666667 0
0.6 0.46666667 0
0.63333333 0.46666667 0
0.66666667 0.46666667 0
0.7 0.46666667 0
0.73333333 0.46666667 0
0.76666667 0.46666667 0
0.8 0.46666667 0
0.83333333 0.46666667 0
0.86666667 0.46666667 0
0.9 0.46666667 0
0.93333333 0.46666667 0
0.96666667 0.46666667 0
1 0.46666667 0
0 0.5 0
0.033333333 0.5 0
0.066666667 0.5 0
0.1 0.5 0
0.13333333 0.5 0
0.16666667 0.5 0
0.2 0.5 0
0.23333333 0.5 0
0.26666667 0.5 0
0.3 0.5 0
0.33333333 0.5 0
0.36666667 0.5 0
0.4 0.5 0
0.43333333 0.5 0
0.46666667 0.5 0
0.5 0.5 0
0.53333333 0.5 0
0.56666667 0.5 0
0.6 0.5 0
0.63333333 0.5 0
0.66666667 0.5 0
0.7 0.5 0
0.73333333 0.5 0
0.76666667 0.5 0
0.8 0.5 0
0.83333333 0.5 0
0.86666667 0.5 0
0.9 0.5 0
0.93333333 0.5 0
0.96666667 0.5 0
1 0.5 0
0 0.53333333 0
0.033333333 0.53333333 0
0.066666667 0.53333333 0
0.1 0.53333333 0
0.13333333 0.53333333 0
0.16666667 0.53333333 0
0.2 0.53333333 0
0.23333333 0.53333333 0
0.26666667 0.53333333 0
0.3 0.53333333 0
0.33333333 0.53333333 0
0.36666667 0.53333333 0
0.4 0.53333333 0
0.43333333 0.53333333 0
0.46666667 0.53333333 0
0.5 0.53333333 0
0.53333333 0.53333333 0
0.56666667 0.53333333 0
0.6 0.53333333 0
0.63333333 0.53333333 0
0.66666667 0.53333333 0
0.7 0.53333333 0
0.73333333 0.53333333 0
0.76666667 0.53333333 0
[...]
CELL_DATA 1920
Scalars  Label int 1
LOOKUP_TABLE FreeFempp_table
0
0
0
0
0
0
0
0
0
0
0
0
0
0
0
0
0
0
0
0
0
0
0
0
0
0
0
0
0
0
0
0
0
0
0
0
0
0
0
0
0
0
0
0
0
0
0
0
0
0
0
0
0
0
0
0
0
0
0
0
0
0
0
0
0
0
0
0
0
0
0
0
0
0
0
0
0
0
0
0
0
0
0
0
0
0
0
0
0
0
0
0
0
0
0
0
0
0
0
0
0
0
0
0
0
0
0
0
0
0
0
0
0
0
0
0
0
0
0
0
0
0
0
0
0
0
0
0
0
0
0
0
0
0
0
0
0
0
0
0
0
0
0
0
0
0
0
0
0
0
0
0
0
0
0
0
0
0
0
0
0
0
0
0
0
0
0
0
0
0
0
0
0
0
0
0
0
0
0
0
0
0
0
0
0
0
0
0
0
0
0
0
0
0
0
0
0
0
0
0
0
0
0
0
0
0
0
0
0
0
0
0
0
0
0
0
0
0
0
0
0
0
0
0
0
0
0
0
0
0
0
0
0
0
0
0
0
0
0
0
0
0
0
0
0
0
0
0
0
0
0
0
0
0
0
0
0
0
0
0
0
0
0
0
0
0
0
0
0
0
0
0
0
0
0
0
0
0
0
0
0
0
0
0
0
0
0
0
0
0
0
0
0
0
0
0
0
0
0
0
0
0
0
0
0
0
0
0
0
0
0
0
0
0
0
0
0
0
0
0
0
0
0
0
0
0
0
0
0
0
0
0
0
0
0
0
0
0
0
0
0
0
0
0
0
0
0
0
0
0
0
0
0
0
0
0
0
0
0
0
0
0
0
0
0
0
0
0
0
0
0
0
0
0
0
0
0
0
0
0
0
0
0
0
0
0
0
0
0
0
0
0
0
0
0
0
0
0
0
0
0
0
0
0
0
0
0
0
0
0
0
0
0
0
0
0
0
0
0
0
0
0
0
0
0
0
0
0
0
0
0
0
0
0
0
0
0
0
0
0
0
0
0
0
0
0
0
0
0
0
0
0
0
0
0
0
0
0
0
0
0
0
0
0
0
0
0
0
0
0
0
0
0
0
0
0
0
0
0
0
0
0
0
0
0
0
0
0
0
0
0
0
0
0
0
0
0
0
0
0
0
0
0
0
0
0
0
0
0
0
0
0
0
0
0
0
0
0
0
0
0
0
0
0
0
0
0
0
0
0
0
0
0
0
0
0
0
0
0
0
0
0
0
0
0
0
0
0
0
0
0
0
0
0
0
0
0
0
0
0
0
0
0
0
0
0
0
0
0
0
0
0
0
0
0
0
0
0
0
0
0
0
0
0
0
0
0
0
0
0
0
0
0
0
0
0
0
0
0
0
0
0
0
0
0
0
0
0
0
0
0
0
0
0
0
0
0
0
0
0
0
0
0
0
0
0
0
0
0
0
0
0
0
0
0
0
0
0
0
0
0
0
0
0
0
0
0
0
0
0
0
0
0
0
0
0
0
0
0
0
0
0
0
0
0
0
0
0
0
0
0
0
0
0
0
0
0
0
0
0
0
0
0
0
0
0
0
0
0
0
0
0
0
0
0
0
0
0
0
0
0
0
0
0
0
0
0
0
0
0
0
0
0
0
0
0
0
0
0
0
0
0
0
0
0
0
0
0
0
0
0
0
0
0
0
0
0
0
0
0
0
0
0
0
0
0
0
0
0
0
0
0
0
0
0
0
0
0
0
0
0
0
0
0
0
0
0
0
0
0
0
0
0
0
0
0
0
0
0
0
0
0
0
0
0
0
0
0
0
0
0
0
0
0
0
0
0
0
0
0
0
0
0
0
0
0
0
0
0
0
0
0
0
0
0
0
0
0
0
0
0
0
0
0
0
0
0
0
0
0
0
0
0
0
0
0
0
0
0
0
0
0
0
0
0
0
0
0
0
0
0
0
0
0
0
0
0
0
0
0
0
0
0
0
0
0
0
0
0
0
0
0
0
0
0
0
0
0
0
0
0
0
0
0
0
0
0
0
0
0
0
0
0
0
0
0
0
0
0
0
0
0
0
0
0
0
0
0
0
0
0
0
0
0
0
0
0
0
0
0
0
0
0
0
0
0
0
0
0
0
0
0
0
0
0
0
0
0
0
0
0
0
0
0
0
0
0
0
0
0
0
0
0
0
0
0
0
0
0
0
0
0
0
0
0
0
0
0
0
0
0
0
0
0
0
0
0
0
0
0
0
0
0
0
0
0
0
0
0
0
0
0
0
0
0
0
0
0
0
0
0
0
0
0
0
0
0
0
0
0
0
0
0
0
0
0
0
0
0
0
0
0
0
0
0
0
0
0
0
0
0
0
0
0
0
0
0
0
0
0
0
0
0
0
0
0
0
0
0
0
0
0
0
0
0
0
0
0
0
0
0
0
0
0
0
0
0
0
0
0
0
0
0
0
0
0
0
0
0
0
0
0
0
0
0
0
0
0
0
0
0
0
0
0
0
0
0
0
0
0
0
0
0
0
0
0
0
0
0
0
0
0
0
0
0
0
0
0
0
0
0
0
0
0
0
0
0
0
0
0
0
0
0
0
0
0
0
0
0
0
0
0
0
0
0
0
0
0
0
0
0
0
0
0
0
0
0
0
0
0
0
0
0
0
0
0
0
0
0
0
0
0
0
0
0
0
0
0
0
0
0
0
0
0
0
0
0
0
0
0
0
0
0
0
0
0
0
0
0
0
0
0
0
0
0
0
0
0
0
0
0
0
0
0
0
0
0
0
0
0
0
0
0
0
0
0
0
0
0
0
0
0
0
0
0
0
0
0
0
0
0
0
0
0
0
0
0
0
0
0
0
0
0
0
0
0
0
0
0
0
0
0
0
0
0
0
0
0
0
0
0
0
0
0
0
0
0
0
0
0
0
0
0
0
0
0
0
0
0
0
0
0
0
0
0
0
0
0
0
0
0
0
0
0
0
0
0
0
0
0
0
0
0
0
0
0
0
0
0
0
0
0
0
0
0
0
0
0
0
0
0
0
0
0
0
0
0
0
0
0
0
0
0
0
0
0
0
0
0
0
0
0
0
0
0
0
0
0
0
0
0
0
0
0
0
0
0
0
0
0
0
0
0
0
0
0
0
0
0
0
0
0
0
0
0
0
0
0
0
0
0
0
0
0
0
0
0
0
0
0
0
0
0
0
0
0
0
0
0
0
0
0
0
0
0
0
0
0
0
0
0
0
0
0
0
0
0
0
0
0
0
0
0
0
0
0
0
0
0
0
0
0
0
0
0
0
0
0
0
0
0
0
0
0
0
0
0
0
0
0
0
0
0
0
0
0
0
0
0
0
0
0
0
0
0
0
0
0
0
0
0
0
0
0
0
0
0
0
0
0
0
0
0
0
0
0
0
0
0
0
0
0
0
0
0
0
0
0
0
0
0
0
0
0
0
0
0
0
0
0
0
0
0
0
0
0
0
0
0
0
0
0
0
0
0
0
0
0
0
0
0
0
0
0
0
0
0
0
0
0
0
0
0
0
0
0
0
0
0
0
0
0
0
0
0
0
0
0
0
0
0
0
0
0
0
0
0
0
0
0
0
0
0
0
0
0
0
0
0
0
0
0
0
0
0
0
0
0
0
0
0
0
0
0
0
0
0
0
0
0
0
0
0
0
0
0
0
0
0
0
0
0
0
0
0
0
0
0
0
0
0
0
0
0
0
0
0
0
0
0
0
0
0
0
0
0
0
0
0
0
0
0
0
0
0
0
0
0
0
0
0
0
0
0
0
0
0
0
0
0
0
0
0
0
0
0
0
0
0
0
0
0
0
0
0
0
0
0
0
0
0
0
0
0
0
0
0
0
0
0
0
0
0
0
0
0
0
0
0
0
0
0
0
0
0
0
0
0
0
0
0
0
0
0
0
0
0
0
0
0
0
0
0
0
0
0
0
0
0
0
0
0
0
0
0
0
0
0
0
0
0
0
0
0
0
0
0
0
0
0
0
0
0
0
0
0
0
0
0
0
0
0
0
0
0
0
0
0
0
0
0
0
0
0
0
0
0
0
0
0
0
0
0
0
0
0
0
0
0
0
1
1
1
1
1
1
1
1
1
1
1
1
1
1
1
1
1
1
1
1
1
1
1
1
1
1
1
1
1
1
2
2
2
2
2
2
2
2
2
2
2
2
2
2
2
2
2
2
2
2
2
2
2
2
2
2
2
2
2
2
3
3
3
3
3
3
3
3
3
3
3
3
3
3
3
3
3
3
3
3
3
3
3
3
3
3
3
3
3
3
4
4
4
4
4
4
4
4
4
4
4
4
4
4
4
4
4
4
4
4
4
4
4
4
4
4
4
4
4
4

LOOKUP_TABLE FreeFempp_table 5
1.00000000 0.00000000 0.00000000 1.00000000
1.00000000 1.00000000 0.00000000 1.00000000
1.00000000 0.00000000 1.00000000 1.00000000
0.00000000 1.00000000 0.00000000 1.00000000
0.00000000 1.00000000 1.00000000 1.00000000

POINT_DATA 961
FIELD FieldData 1
Density 1 961 float
3.03325206e-01 2.56702334e-01 2.71161765e-01 3.11102033e-01 3.51520896e-01 3.88604105e-01 4.21766102e-01 4.50711757e-01 4.74739552e-01 4.92883384e-01 5.04328430e-01 5.08823454e-01 5.06861985e-01 4.99610484e-01 4.88651484e-01 4.75584000e-01 4.61745322e-01 4.48085964e-01 4.35135990e-01 4.23016995e-01 4.11469787e-01 3.99890721e-01 3.87387961e-01 3.72880548e-01 3.55269253e-01 3.33634138e-01 3.07228565e-01 2.75251448e-01 2.41437182e-01 2.77670205e-01 3.63166541e-01 2.52294362e-01 1.94309726e-01 2.27524504e-01 2.88361639e-01 3.43423009e-01 3.93364310e-01 4.37310100e-01 4.73171264e-01 4.99846280e-01 5.17600834e-01 5.27542114e-01 5.31199515e-01 5.30380487e-01 5.26880324e-01 5.21881521e-01 5.15487194e-01 5.06794453e-01 4.94405389e-01 4.77079064e-01 4.54383940e-01 4.27355617e-01 3.98913085e-01 3.72993886e-01 3.51470679e-01 3.31295341e-01 3.06602836e-01 2.73472160e-01 2.30110183e-01 1.73824757e-01 1.59633815e-01 2.76507229e-01 2.58961141e-01 2.19153419e-01 2.61522621e-01 3.48002583e-01 3.90711695e-01 4.07296866e-01 4.14050460e-01 4.17192340e-01 4.18846190e-01 4.19734150e-01 4.20132369e-01 4.20183390e-01 4.19986516e-01 4.19616014e-01 4.19114828e-01 4.18503314e-01 4.17794615e-01 4.17005152e-01 4.16160107e-01 4.15291041e-01 4.14422512e-01 4.13543910e-01 4.12556410e-01 4.11156684e-01 4.08542514e-01 4.02615547e-01 3.87728870e-01 3.48121971e-01 2.43069470e-01 1.66070014e-01 2.31799781e-01 2.86904007e-01 2.62059778e-01 3.37955981e-01 3.97089779e-01 4.11196589e-01 4.14899558e-01 4.15585250e-01 4.15260226e-01 4.14578229e-01 4.13794070e-01 4.13025886e-01 4.12335277e-01 4.11756307e-01 4.11308289e-01 4.11000997e-01 4.10837710e-01 4.10818219e-01 4.10940766e-01 4.11202401e-01 4.11598176e-01 4.12118256e-01 4.12740678e-01 4.13414836e-01 4.14026082e-01 4.14312869e-01 4.13622558e-01 4.10007238e-01 3.96110862e-01 3.31786215e-01 2.04495102e-01 2.43567571e-01 3.13811839e-01 2.90585160e-01 3.76761794e-01 4.09337640e-01 4.14325744e-01 4.15061295e-01 4.14421678e-01 4.13199037e-01 4.11803603e-01 4.10473287e-01 4.09324586e-01 4.08397406e-01 4.07692194e-01 4.07194108e-01 4.06886011e-01 4.06755269e-01 4.06797141e-01 4.07016456e-01 4.07427281e-01 4.08050328e-01 4.08906162e-01 4.10000682e-01 4.11299050e-01 4.12684321e-01 4.13906187e-01 4.14511979e-01 4.13529575e-01 4.07055289e-01 3.67598236e-01 2.28282005e-01 2.53777683e-01 3.36905539e-01 3.12144101e-01 3.92865479e-01 4.12870049e-01 4.14800584e-01 4.13939416e-01 4.12231594e-01 4.10342485e-01 4.08614486e-01 4.07190293e-01 4.06092644e-01 4.05287892e-01 4.04725015e-01 4.04355258e-01 4.04140353e-01 4.04055953e-01 4.04093057e-01 4.04258966e-01 4.04577255e-01 4.05087054e-01 4.05839980e-01 4.06891763e-01 4.08281982e-01 4.09990698e-01 4.11861122e-01 4.13479328e-01 4.13920164e-01 4.10212725e-01 3.82256508e-01 2.41484493e-01 2.63168395e-01 3.55174810e-01 3.31651956e-01 4.00071800e-01 4.13747609e-01 4.14188594e-01 4.12225008e-01 4.09806371e-01 4.07643616e-01 4.05956924e-01 4.04744655e-01 4.03925896e-01 4.03405517e-01 4.03097004e-01 4.02928948e-01 4.02846754e-01 4.02815372e-01 4.02821958e-01 4.02877301e-01 4.03014958e-01 4.03288841e-01 4.03770894e-01 4.04549241e-01 4.05721188e-01 4.07366723e-01 4.09471929e-01 4.11750346e-01 4.13256913e-01 4.11105752e-01 3.89232367e-01 2.51466095e-01 2.73120970e-01 3.68011385e-01 3.48720551e-01 4.03794289e-01 4.13643748e-01 4.13015068e-01 4.10348266e-01 4.07653689e-01 4.05562282e-01 4.04140621e-01 4.03275341e-01 4.02827650e-01 4.02673006e-01 4.02700663e-01 4.02809471e-01 4.02912825e-01 4.02950525e-01 4.02900428e-01 4.02782887e-01 4.02656525e-01 4.02606696e-01 4.02733773e-01 4.03147876e-01 4.03972447e-01 4.05341595e-01 4.07351553e-01 4.09878433e-01 4.12093937e-01 4.11143631e-01 3.93299609e-01 2.61124551e-01 2.83385098e-01 3.75424147e-01 3.61362576e-01 4.05932546e-01 4.13124502e-01 4.11637515e-01 4.08613682e-01 4.05963093e-01 4.04139906e-01 4.03085649e-01 4.02640134e-01 4.02657151e-01 4.03000593e-01 4.03520405e-01 4.04052228e-01 4.04443085e-01 4.04584765e-01 4.04437840e-01 4.04040307e-01 4.03498977e-01 4.02965486e-01 4.02602762e-01 4.02559042e-01 4.02967513e-01 4.03967917e-01 4.05703306e-01 4.08181995e-01 4.10778731e-01 4.10826951e-01 3.96142066e-01 2.71263897e-01 2.93554157e-01 3.78082752e-01 3.68764669e-01 4.07169193e-01 4.12430376e-01 4.10293162e-01 4.07166034e-01 4.04734582e-01 4.03264165e-01 4.02631968e-01 4.02694553e-01 4.03328717e-01 4.04371768e-01 4.05590266e-01 4.06715304e-01 4.07504082e-01 4.07787293e-01 4.07503068e-01 4.06712115e-01 4.05582696e-01 4.04356450e-01 4.03300524e-01 4.02646124e-01 4.02552336e-01 4.03135538e-01 4.04523462e-01 4.06795025e-01 4.09535676e-01 4.10392672e-01 3.98383558e-01 2.82045037e-01 3.03445935e-01 3.76991272e-01 3.71314466e-01 4.07781333e-01 4.11688179e-01 4.09109682e-01 4.06036377e-01 4.03893828e-01 4.02801186e-01 4.02636915e-01 4.03317571e-01 4.04736578e-01 4.06658143e-01 4.08739418e-01 4.10629004e-01 4.11984682e-01 4.12485689e-01 4.11985993e-01 4.10630792e-01 4.08740193e-01 4.06655401e-01 4.04726177e-01 4.03292894e-01 4.02587831e-01 4.02711272e-01 4.03733194e-01 4.05738235e-01 4.08480853e-01 4.09969032e-01 4.00277168e-01 2.93442816e-01 3.13053489e-01 3.73132974e-01 3.69743586e-01 4.07911777e-01 4.10973251e-01 4.08138305e-01 4.05198723e-01 4.03351426e-01 4.02630985e-01 4.02967602e-01 4.04348582e-01 4.06646043e-01 4.09547001e-01 4.12759006e-01 4.16047543e-01 4.18795347e-01 4.19914484e-01 4.18797880e-01 4.16052014e-01 4.12764579e-01 4.09552276e-01 4.06648010e-01 4.04341757e-01 4.02943462e-01 4.02575791e-01 4.03240740e-01 4.04979318e-01 4.07656997e-01 4.09626633e-01 4.01938409e-01 3.05337012e-01 3.22433561e-01 3.67313772e-01 3.64738435e-01 4.07656670e-01 4.10332292e-01 4.07388151e-01 4.04607892e-01 4.03025508e-01 4.02646273e-01 4.03476506e-01 4.05555815e-01 4.08715397e-01 4.12746668e-01 4.17955130e-01 4.24716860e-01 4.31596100e-01 4.34713185e-01 4.31599289e-01 4.24723059e-01 4.17963803e-01 4.12757397e-01 4.08726275e-01 4.05562848e-01 4.03473198e-01 4.02622402e-01 4.02963340e-01 4.04470026e-01 4.07067567e-01 4.09403086e-01 4.03424352e-01 3.17512363e-01 3.31635594e-01 3.60150427e-01 3.56941372e-01 4.07092214e-01 4.09795552e-01 4.06850994e-01 4.04219508e-01 4.02847886e-01 4.02748436e-01 4.04001027e-01 4.06671613e-01 4.10593987e-01 4.16023165e-01 4.24704105e-01 4.38778818e-01 4.55551118e-01 4.63336885e-01 4.55555022e-01 4.38786715e-01 4.24715579e-01 4.16038126e-01 4.10611659e-01 4.06689763e-01 4.04015571e-01 4.02753145e-01 4.02832687e-01 4.04164642e-01 4.06700283e-01 4.09317553e-01 4.04760540e-01 3.29646200e-01 3.40667069e-01 3.52064639e-01 3.46965820e-01 4.06280160e-01 4.09384489e-01 4.06515956e-01 4.03999180e-01 4.02766585e-01 4.02852565e-01 4.04389471e-01 4.07453954e-01 4.11940098e-01 4.18759286e-01 4.31569308e-01 4.55535382e-01 4.76913393e-01 4.76127148e-01 4.76918995e-01 4.55545723e-01 4.31583762e-01 4.18777853e-01 4.11963165e-01 4.07481253e-01 4.04419661e-01 4.02883798e-01 4.02797073e-01 4.04027998e-01 4.06540990e-01 4.09379900e-01 4.05950248e-01 3.41273397e-01 3.49459857e-01 3.43256950e-01 3.35307330e-01 4.05268013e-01 4.09116834e-01 4.06377226e-01 4.03926045e-01 4.02748257e-01 4.02899444e-01 4.04534131e-01 4.07733887e-01 4.12432939e-01 4.19866920e-01 4.34671551e-01 4.63303506e-01 4.76102978e-01 4.76101071e-01 4.76110011e-01 4.63316321e-01 4.34688985e-01 4.19888556e-01 4.12460566e-01 4.07769173e-01 4.04578716e-01 4.02956069e-01 4.02823836e-01 4.04039294e-01 4.06581640e-01 4.09597039e-01 4.06978756e-01 3.51712763e-01 3.57808530e-01 3.33712459e-01 3.22276473e-01 4.04090047e-01 4.09011811e-01 4.06438917e-01 4.03994977e-01 4.02781218e-01 4.02866930e-01 4.04395580e-01 4.07449603e-01 4.11926687e-01 4.18739647e-01 4.31544065e-01 4.55504417e-01 4.76872265e-01 4.76083219e-01 4.76879954e-01 4.55518693e-01 4.31563318e-01 4.18763757e-01 4.11958456e-01 4.07492608e-01 4.04454350e-01 4.02948976e-01 4.02902335e-01 4.04193640e-01 4.06824410e-01 4.09977347e-01 4.07815725e-01 3.60011309e-01 3.65285575e-01 3.23249429e-01 3.08038563e-01 4.02770758e-01 4.09096092e-01 4.06718701e-01 4.04217750e-01 4.02876794e-01 4.02774662e-01 4.04011071e-01 4.06661868e-01 4.10567135e-01 4.15984720e-01 4.24657345e-01 4.38723713e-01 4.55490321e-01 4.63275582e-01 4.55497772e-01 4.38737631e-01 4.24676806e-01 4.16010678e-01 4.10603046e-01 4.06712919e-01 4.04084742e-01 4.02883291e-01 4.03045058e-01 4.04503495e-01 4.07284886e-01 4.10535753e-01 4.08417612e-01 3.64967227e-01 3.71172577e-01 3.11566442e-01 2.92686939e-01 4.01332647e-01 4.09412026e-01 4.07251328e-01 4.04624552e-01 4.03068662e-01 4.02679533e-01 4.03486252e-01 4.05538887e-01 4.08675551e-01 4.12691295e-01 4.17890787e-01 4.24646676e-01 4.31521565e-01 4.34637845e-01 4.31527793e-01 4.24658984e-01 4.17909712e-01 4.12718743e-01 4.08715785e-01 4.05598760e-01 4.03576285e-01 4.02817100e-01 4.03287143e-01 4.04999822e-01 4.07995671e-01 4.11301464e-01 4.08735156e-01 3.65096986e-01 3.74421626e-01 2.98252374e-01 2.76260316e-01 3.99814248e-01 4.10031199e-01 4.08092827e-01 4.05264676e-01 4.03410524e-01 4.02664155e-01 4.02970463e-01 4.04321760e-01 4.06594515e-01 4.09478515e-01 4.12681401e-01 4.15966153e-01 4.18712765e-01 4.19832289e-01 4.18718129e-01 4.15977448e-01 4.12700146e-01 4.09507722e-01 4.06639576e-01 4.04391557e-01 4.03078854e-01 4.02833968e-01 4.03683901e-01 4.05733526e-01 4.09010977e-01 4.12331641e-01 4.08728063e-01 3.58328134e-01 3.73618901e-01 2.82774180e-01 2.58711994e-01 3.98307234e-01 4.11078632e-01 4.09325212e-01 4.06206697e-01 4.03974116e-01 4.02824700e-01 4.02623415e-01 4.03276384e-01 4.04674470e-01 4.06582057e-01 4.08655882e-01 4.10542816e-01 4.11898524e-01 4.12400812e-01 4.11903799e-01 4.10554320e-01 4.08675730e-01 4.06614155e-01 4.04725552e-01 4.03357476e-01 4.02752370e-01 4.03030753e-01 4.04308736e-01 4.06775475e-01 4.10411716e-01 4.13734943e-01 4.08384442e-01 3.41763705e-01 3.67012262e-01 2.64491081e-01 2.39890680e-01 3.97028923e-01 4.12778169e-01 4.11062002e-01 4.07534122e-01 4.04847205e-01 4.03265625e-01 4.02588934e-01 4.02631640e-01 4.03255284e-01 4.04292762e-01 4.05509263e-01 4.06634837e-01 4.07425612e-01 4.07711685e-01 4.07431692e-01 4.06648099e-01 4.05532092e-01 4.04329598e-01 4.03313875e-01 4.02725250e-01 4.02739823e-01 4.03511018e-01 4.05249804e-01 4.08211976e-01 4.12312865e-01 4.15719032e-01 4.07759637e-01 3.12917262e-01 3.52774590e-01 2.42749169e-01 2.19588265e-01 3.96455616e-01 4.15536344e-01 4.13453162e-01 4.09331143e-01 4.06127930e-01 4.04103607e-01 4.02995080e-01 4.02543694e-01 4.02567208e-01 4.02918786e-01 4.03446108e-01 4.03984547e-01 4.04381424e-01 4.04529095e-01 4.04389083e-01 4.04000968e-01 4.03473765e-01 4.02962267e-01 4.02634740e-01 4.02650088e-01 4.03166652e-01 4.04386342e-01 4.06599939e-01 4.10127759e-01 4.14874524e-01 4.18687969e-01 4.07062799e-01 2.72896171e-01 3.29461604e-01 2.17069492e-01 1.97711349e-01 3.97556037e-01 4.20095235e-01 4.16689575e-01 4.11648124e-01 4.07903373e-01 4.05470669e-01 4.03979987e-01 4.03127551e-01 4.02708352e-01 4.02579397e-01 4.02626872e-01 4.02750731e-01 4.02866155e-01 4.02914733e-01 4.02875841e-01 4.02771235e-01 4.02660668e-01 4.02631015e-01 4.02785838e-01 4.03245360e-01 4.04165268e-01 4.05775279e-01 4.08424586e-01 4.12558764e-01 4.18313473e-01 4.23433691e-01 4.06874120e-01 2.27580801e-01 2.96431810e-01 1.87319338e-01 1.74648196e-01 4.02184874e-01 4.27792042e-01 4.21013266e-01 4.14446801e-01 4.10199136e-01 4.07488227e-01 4.05704111e-01 4.04520303e-01 4.03751284e-01 4.03274357e-01 4.02999252e-01 4.02856588e-01 4.02794868e-01 4.02781785e-01 4.02806550e-01 4.02881175e-01 4.03039426e-01 4.03334588e-01 4.03838664e-01 4.04646277e-01 4.05889004e-01 4.07775313e-01 4.10692930e-01 4.15391475e-01 4.22883898e-01 4.31488365e-01 4.08787906e-01 1.84871241e-01 2.54470348e-01 1.53643072e-01 1.51590481e-01 4.13733870e-01 4.40921754e-01 4.26757425e-01 4.17586446e-01 4.12913978e-01 4.10170078e-01 4.08266544e-01 4.06854600e-01 4.05809522e-01 4.05058146e-01 4.04541165e-01 4.04209852e-01 4.04028207e-01 4.03974265e-01 4.04041141e-01 4.04237211e-01 4.04585898e-01 4.05124933e-01 4.05904680e-01 4.06984866e-01 4.08436269e-01 4.10381943e-01 4.13209796e-01 4.18239236e-01 4.28661525e-01 4.45601732e-01 4.17410702e-01 1.52871311e-01 2.06570208e-01 1.16504706e-01 1.29163742e-01 4.38046455e-01 4.62891877e-01 4.34485465e-01 4.21113253e-01 4.15883273e-01 4.13241774e-01 4.11402971e-01 4.09947276e-01 4.08790022e-01 4.07900244e-01 4.07248914e-01 4.06808078e-01 4.06555384e-01 4.06476885e-01 4.06568289e-01 4.06835496e-01 4.07294154e-01 4.07968789e-01 4.08889413e-01 4.10084188e-01 4.11569595e-01 4.13374156e-01 4.15798128e-01 4.20658201e-01 4.34704721e-01 4.69020605e-01 4.45461333e-01 1.32366508e-01 1.57317564e-01 7.88754821e-02 1.04143918e-01 4.82168287e-01 4.97023076e-01 4.45823997e-01 4.26520109e-01 4.19481605e-01 4.16070074e-01 4.13976163e-01 4.12552148e-01 4.11542445e-01 4.10813183e-01 4.10290629e-01 4.09936249e-01 4.09731239e-01 4.09667611e-01 4.09743696e-01 4.09962952e-01 4.10335720e-01 4.10884380e-01 4.11653787e-01 4.12727594e-01 4.14243162e-01 4.16383207e-01 4.19370204e-01 4.24224645e-01 4.38844353e-01 4.97246385e-01 5.24094403e-01 1.15527898e-01 1.11109957e-01 6.15089647e-02 8.14861059e-02 5.13902962e-01 5.49267709e-01 4.68505502e-01 4.39494282e-01 4.25561994e-01 4.17974919e-01 4.13951308e-01 4.11946744e-01 4.11013246e-01 4.10608351e-01 4.10446554e-01 4.10388917e-01 4.10373360e-01 4.10375476e-01 4.10390079e-01 4.10425872e-01 4.10511911e-01 4.10719126e-01 4.11205441e-01 4.12300617e-01 4.14640784e-01 4.19291496e-01 4.27449614e-01 4.38495606e-01 4.49853510e-01 5.04540145e-01 6.80670083e-01 1.08549200e-01 7.90140480e-02 7.39784166e-02 5.84002808e-02 9.87539887e-01 6.17726922e-01 5.15349627e-01 4.62529957e-01 4.30473536e-01 4.14345592e-01 4.07258391e-01 4.04475123e-01 4.03562278e-01 4.03402358e-01 4.03506011e-01 4.03664082e-01 4.03789580e-01 4.03850287e-01 4.03842390e-01 4.03785139e-01 4.03732568e-01 4.03809190e-01 4.04294133e-01 4.05806690e-01 4.09690231e-01 4.18702781e-01 4.37798649e-01 4.73059416e-01 5.26831090e-01 6.03550911e-01 4.79885668e-01 9.69707221e-02 8.08001235e-02 1.20826192e-01 9.28651243e-02 6.52800262e-01 5.78719437e-01 5.51590502e-01 4.78284478e-01 4.28862631e-01 4.07145321e-01 3.98566812e-01 3.95232886e-01 3.93912017e-01 3.93367797e-01 3.93131793e-01 3.93023729e-01 3.92972112e-01 3.92948359e-01 3.92942429e-01 3.92955542e-01 3.93002272e-01 3.93124282e-01 3.93428743e-01 3.94187659e-01 3.96090269e-01 4.00872618e-01 4.12835866e-01 4.42041725e-01 5.05665004e-01 5.83419621e-01 4.94163156e-01 1.63127780e-01 1.06429428e-01 
