# vtk DataFile Version 2.0
results_case1_non_linear/3_density.vtk, Created by Freefem++ 
ASCII
DATASET UNSTRUCTURED_GRID
POINTS 961 float
0 0 0
0.033333333 0 0
0.066666667 0 0
0.1 0 0
0.13333333 0 0
0.16666667 0 0
0.2 0 0
0.23333333 0 0
0.26666667 0 0
0.3 0 0
0.33333333 0 0
0.36666667 0 0
0.4 0 0
0.43333333 0 0
0.46666667 0 0
0.5 0 0
0.53333333 0 0
0.56666667 0 0
0.6 0 0
0.63333333 0 0
0.66666667 0 0
0.7 0 0
0.73333333 0 0
0.76666667 0 0
0.8 0 0
0.83333333 0 0
0.86666667 0 0
0.9 0 0
0.93333333 0 0
0.96666667 0 0
1 0 0
0 0.033333333 0
0.033333333 0.033333333 0
0.066666667 0.033333333 0
0.1 0.033333333 0
0.13333333 0.033333333 0
0.16666667 0.033333333 0
0.2 0.033333333 0
0.23333333 0.033333333 0
0.26666667 0.033333333 0
0.3 0.033333333 0
0.33333333 0.033333333 0
0.36666667 0.033333333 0
0.4 0.033333333 0
0.43333333 0.033333333 0
0.46666667 0.033333333 0
0.5 0.033333333 0
0.53333333 0.033333333 0
0.56666667 0.033333333 0
0.6 0.033333333 0
0.63333333 0.033333333 0
0.66666667 0.033333333 0
0.7 0.033333333 0
0.73333333 0.033333333 0
0.76666667 0.033333333 0
0.8 0.033333333 0
0.83333333 0.033333333 0
0.86666667 0.033333333 0
0.9 0.033333333 0
0.93333333 0.033333333 0
0.96666667 0.033333333 0
1 0.033333333 0
0 0.066666667 0
0.033333333 0.066666667 0
0.066666667 0.066666667 0
0.1 0.066666667 0
0.13333333 0.066666667 0
0.16666667 0.066666667 0
0.2 0.066666667 0
0.23333333 0.066666667 0
0.26666667 0.066666667 0
0.3 0.066666667 0
0.33333333 0.066666667 0
0.36666667 0.066666667 0
0.4 0.066666667 0
0.43333333 0.066666667 0
0.46666667 0.066666667 0
0.5 0.066666667 0
0.53333333 0.066666667 0
0.56666667 0.066666667 0
0.6 0.066666667 0
0.63333333 0.066666667 0
0.66666667 0.066666667 0
0.7 0.066666667 0
0.73333333 0.066666667 0
0.76666667 0.066666667 0
0.8 0.066666667 0
0.83333333 0.066666667 0
0.86666667 0.066666667 0
0.9 0.066666667 0
0.93333333 0.066666667 0
0.96666667 0.066666667 0
1 0.066666667 0
0 0.1 0
0.033333333 0.1 0
0.066666667 0.1 0
0.1 0.1 0
0.13333333 0.1 0
0.16666667 0.1 0
0.2 0.1 0
0.23333333 0.1 0
0.26666667 0.1 0
0.3 0.1 0
0.33333333 0.1 0
0.36666667 0.1 0
0.4 0.1 0
0.43333333 0.1 0
0.46666667 0.1 0
0.5 0.1 0
0.53333333 0.1 0
0.56666667 0.1 0
0.6 0.1 0
0.63333333 0.1 0
0.66666667 0.1 0
0.7 0.1 0
0.73333333 0.1 0
0.76666667 0.1 0
0.8 0.1 0
0.83333333 0.1 0
0.86666667 0.1 0
0.9 0.1 0
0.93333333 0.1 0
0.96666667 0.1 0
1 0.1 0
0 0.13333333 0
0.033333333 0.13333333 0
0.066666667 0.13333333 0
0.1 0.13333333 0
0.13333333 0.13333333 0
0.16666667 0.13333333 0
0.2 0.13333333 0
0.23333333 0.13333333 0
0.26666667 0.13333333 0
0.3 0.13333333 0
0.33333333 0.13333333 0
0.36666667 0.13333333 0
0.4 0.13333333 0
0.43333333 0.13333333 0
0.46666667 0.13333333 0
0.5 0.13333333 0
0.53333333 0.13333333 0
0.56666667 0.13333333 0
0.6 0.13333333 0
0.63333333 0.13333333 0
0.66666667 0.13333333 0
0.7 0.13333333 0
0.73333333 0.13333333 0
0.76666667 0.13333333 0
0.8 0.13333333 0
0.83333333 0.13333333 0
0.86666667 0.13333333 0
0.9 0.13333333 0
0.93333333 0.13333333 0
0.96666667 0.13333333 0
1 0.13333333 0
0 0.16666667 0
0.033333333 0.16666667 0
0.066666667 0.16666667 0
0.1 0.16666667 0
0.13333333 0.16666667 0
0.16666667 0.16666667 0
0.2 0.16666667 0
0.23333333 0.16666667 0
0.26666667 0.16666667 0
0.3 0.16666667 0
0.33333333 0.16666667 0
0.36666667 0.16666667 0
0.4 0.16666667 0
0.43333333 0.16666667 0
0.46666667 0.16666667 0
0.5 0.16666667 0
0.53333333 0.16666667 0
0.56666667 0.16666667 0
0.6 0.16666667 0
0.63333333 0.16666667 0
0.66666667 0.16666667 0
0.7 0.16666667 0
0.73333333 0.16666667 0
0.76666667 0.16666667 0
0.8 0.16666667 0
0.83333333 0.16666667 0
0.86666667 0.16666667 0
0.9 0.16666667 0
0.93333333 0.16666667 0
0.96666667 0.16666667 0
1 0.16666667 0
0 0.2 0
0.033333333 0.2 0
0.066666667 0.2 0
0.1 0.2 0
0.13333333 0.2 0
0.16666667 0.2 0
0.2 0.2 0
0.23333333 0.2 0
0.26666667 0.2 0
0.3 0.2 0
0.33333333 0.2 0
0.36666667 0.2 0
0.4 0.2 0
0.43333333 0.2 0
0.46666667 0.2 0
0.5 0.2 0
0.53333333 0.2 0
0.56666667 0.2 0
0.6 0.2 0
0.63333333 0.2 0
0.66666667 0.2 0
0.7 0.2 0
0.73333333 0.2 0
0.76666667 0.2 0
0.8 0.2 0
0.83333333 0.2 0
0.86666667 0.2 0
0.9 0.2 0
0.93333333 0.2 0
0.96666667 0.2 0
1 0.2 0
0 0.23333333 0
0.033333333 0.23333333 0
0.066666667 0.23333333 0
0.1 0.23333333 0
0.13333333 0.23333333 0
0.16666667 0.23333333 0
0.2 0.23333333 0
0.23333333 0.23333333 0
0.26666667 0.23333333 0
0.3 0.23333333 0
0.33333333 0.23333333 0
0.36666667 0.23333333 0
0.4 0.23333333 0
0.43333333 0.23333333 0
0.46666667 0.23333333 0
0.5 0.23333333 0
0.53333333 0.23333333 0
0.56666667 0.23333333 0
0.6 0.23333333 0
0.63333333 0.23333333 0
0.66666667 0.23333333 0
0.7 0.23333333 0
0.73333333 0.23333333 0
0.76666667 0.23333333 0
0.8 0.23333333 0
0.83333333 0.23333333 0
0.86666667 0.23333333 0
0.9 0.23333333 0
0.93333333 0.23333333 0
0.96666667 0.23333333 0
1 0.23333333 0
0 0.26666667 0
0.033333333 0.26666667 0
0.066666667 0.26666667 0
0.1 0.26666667 0
0.13333333 0.26666667 0
0.16666667 0.26666667 0
0.2 0.26666667 0
0.23333333 0.26666667 0
0.26666667 0.26666667 0
0.3 0.26666667 0
0.33333333 0.26666667 0
0.36666667 0.26666667 0
0.4 0.26666667 0
0.43333333 0.26666667 0
0.46666667 0.26666667 0
0.5 0.26666667 0
0.53333333 0.26666667 0
0.56666667 0.26666667 0
0.6 0.26666667 0
0.63333333 0.26666667 0
0.66666667 0.26666667 0
0.7 0.26666667 0
0.73333333 0.26666667 0
0.76666667 0.26666667 0
0.8 0.26666667 0
0.83333333 0.26666667 0
0.86666667 0.26666667 0
0.9 0.26666667 0
0.93333333 0.26666667 0
0.96666667 0.26666667 0
1 0.26666667 0
0 0.3 0
0.033333333 0.3 0
0.066666667 0.3 0
0.1 0.3 0
0.13333333 0.3 0
0.16666667 0.3 0
0.2 0.3 0
0.23333333 0.3 0
0.26666667 0.3 0
0.3 0.3 0
0.33333333 0.3 0
0.36666667 0.3 0
0.4 0.3 0
0.43333333 0.3 0
0.46666667 0.3 0
0.5 0.3 0
0.53333333 0.3 0
0.56666667 0.3 0
0.6 0.3 0
0.63333333 0.3 0
0.66666667 0.3 0
0.7 0.3 0
0.73333333 0.3 0
0.76666667 0.3 0
0.8 0.3 0
0.83333333 0.3 0
0.86666667 0.3 0
0.9 0.3 0
0.93333333 0.3 0
0.96666667 0.3 0
1 0.3 0
0 0.33333333 0
0.033333333 0.33333333 0
0.066666667 0.33333333 0
0.1 0.33333333 0
0.13333333 0.33333333 0
0.16666667 0.33333333 0
0.2 0.33333333 0
0.23333333 0.33333333 0
0.26666667 0.33333333 0
0.3 0.33333333 0
0.33333333 0.33333333 0
0.36666667 0.33333333 0
0.4 0.33333333 0
0.43333333 0.33333333 0
0.46666667 0.33333333 0
0.5 0.33333333 0
0.53333333 0.33333333 0
0.56666667 0.33333333 0
0.6 0.33333333 0
0.63333333 0.33333333 0
0.66666667 0.33333333 0
0.7 0.33333333 0
0.73333333 0.33333333 0
0.76666667 0.33333333 0
0.8 0.33333333 0
0.83333333 0.33333333 0
0.86666667 0.33333333 0
0.9 0.33333333 0
0.93333333 0.33333333 0
0.96666667 0.33333333 0
1 0.33333333 0
0 0.36666667 0
0.033333333 0.36666667 0
0.066666667 0.36666667 0
0.1 0.36666667 0
0.13333333 0.36666667 0
0.16666667 0.36666667 0
0.2 0.36666667 0
0.23333333 0.36666667 0
0.26666667 0.36666667 0
0.3 0.36666667 0
0.33333333 0.36666667 0
0.36666667 0.36666667 0
0.4 0.36666667 0
0.43333333 0.36666667 0
0.46666667 0.36666667 0
0.5 0.36666667 0
0.53333333 0.36666667 0
0.56666667 0.36666667 0
0.6 0.36666667 0
0.63333333 0.36666667 0
0.66666667 0.36666667 0
0.7 0.36666667 0
0.73333333 0.36666667 0
0.76666667 0.36666667 0
0.8 0.36666667 0
0.83333333 0.36666667 0
0.86666667 0.36666667 0
0.9 0.36666667 0
0.93333333 0.36666667 0
0.96666667 0.36666667 0
1 0.36666667 0
0 0.4 0
0.033333333 0.4 0
0.066666667 0.4 0
0.1 0.4 0
0.13333333 0.4 0
0.16666667 0.4 0
0.2 0.4 0
0.23333333 0.4 0
0.26666667 0.4 0
0.3 0.4 0
0.33333333 0.4 0
0.36666667 0.4 0
0.4 0.4 0
0.43333333 0.4 0
0.46666667 0.4 0
0.5 0.4 0
0.53333333 0.4 0
0.56666667 0.4 0
0.6 0.4 0
0.63333333 0.4 0
0.66666667 0.4 0
0.7 0.4 0
0.73333333 0.4 0
0.76666667 0.4 0
0.8 0.4 0
0.83333333 0.4 0
0.86666667 0.4 0
0.9 0.4 0
0.93333333 0.4 0
0.96666667 0.4 0
1 0.4 0
0 0.43333333 0
0.033333333 0.43333333 0
0.066666667 0.43333333 0
0.1 0.43333333 0
0.13333333 0.43333333 0
0.16666667 0.43333333 0
0.2 0.43333333 0
0.23333333 0.43333333 0
0.26666667 0.43333333 0
0.3 0.43333333 0
0.33333333 0.43333333 0
0.36666667 0.43333333 0
0.4 0.43333333 0
0.43333333 0.43333333 0
0.46666667 0.43333333 0
0.5 0.43333333 0
0.53333333 0.43333333 0
0.56666667 0.43333333 0
0.6 0.43333333 0
0.63333333 0.43333333 0
0.66666667 0.43333333 0
0.7 0.43333333 0
0.73333333 0.43333333 0
0.76666667 0.43333333 0
0.8 0.43333333 0
0.83333333 0.43333333 0
0.86666667 0.43333333 0
0.9 0.43333333 0
0.93333333 0.43333333 0
0.96666667 0.43333333 0
1 0.43333333 0
0 0.46666667 0
0.033333333 0.46666667 0
0.066666667 0.46666667 0
0.1 0.46666667 0
0.13333333 0.46666667 0
0.16666667 0.46666667 0
0.2 0.46666667 0
0.23333333 0.46666667 0
0.26666667 0.46666667 0
0.3 0.46666667 0
0.33333333 0.46666667 0
0.36666667 0.46666667 0
0.4 0.46666667 0
0.43333333 0.46666667 0
0.46666667 0.46666667 0
0.5 0.46666667 0
0.53333333 0.46666667 0
0.56666667 0.46666667 0
0.6 0.46666667 0
0.63333333 0.46666667 0
0.66666667 0.46666667 0
0.7 0.46666667 0
0.73333333 0.46666667 0
0.76666667 0.46666667 0
0.8 0.46666667 0
0.83333333 0.46666667 0
0.86666667 0.46666667 0
0.9 0.46666667 0
0.93333333 0.46666667 0
0.96666667 0.46666667 0
1 0.46666667 0
0 0.5 0
0.033333333 0.5 0
0.066666667 0.5 0
0.1 0.5 0
0.13333333 0.5 0
0.16666667 0.5 0
0.2 0.5 0
0.23333333 0.5 0
0.26666667 0.5 0
0.3 0.5 0
0.33333333 0.5 0
0.36666667 0.5 0
0.4 0.5 0
0.43333333 0.5 0
0.46666667 0.5 0
0.5 0.5 0
0.53333333 0.5 0
0.56666667 0.5 0
0.6 0.5 0
0.63333333 0.5 0
0.66666667 0.5 0
0.7 0.5 0
0.73333333 0.5 0
0.76666667 0.5 0
0.8 0.5 0
0.83333333 0.5 0
0.86666667 0.5 0
0.9 0.5 0
0.93333333 0.5 0
0.96666667 0.5 0
1 0.5 0
0 0.53333333 0
0.033333333 0.53333333 0
0.066666667 0.53333333 0
0.1 0.53333333 0
0.13333333 0.53333333 0
0.16666667 0.53333333 0
0.2 0.53333333 0
0.23333333 0.53333333 0
0.26666667 0.53333333 0
0.3 0.53333333 0
0.33333333 0.53333333 0
0.36666667 0.53333333 0
0.4 0.53333333 0
0.43333333 0.53333333 0
0.46666667 0.53333333 0
0.5 0.53333333 0
0.53333333 0.53333333 0
0.56666667 0.53333333 0
0.6 0.53333333 0
0.63333333 0.53333333 0
0.66666667 0.53333333 0
0.7 0.53333333 0
0.73333333 0.53333333 0
0.76666667 0.53333333 0
[...]
CELL_DATA 1920
Scalars  Label int 1
LOOKUP_TABLE FreeFempp_table
0
0
0
0
0
0
0
0
0
0
0
0
0
0
0
0
0
0
0
0
0
0
0
0
0
0
0
0
0
0
0
0
0
0
0
0
0
0
0
0
0
0
0
0
0
0
0
0
0
0
0
0
0
0
0
0
0
0
0
0
0
0
0
0
0
0
0
0
0
0
0
0
0
0
0
0
0
0
0
0
0
0
0
0
0
0
0
0
0
0
0
0
0
0
0
0
0
0
0
0
0
0
0
0
0
0
0
0
0
0
0
0
0
0
0
0
0
0
0
0
0
0
0
0
0
0
0
0
0
0
0
0
0
0
0
0
0
0
0
0
0
0
0
0
0
0
0
0
0
0
0
0
0
0
0
0
0
0
0
0
0
0
0
0
0
0
0
0
0
0
0
0
0
0
0
0
0
0
0
0
0
0
0
0
0
0
0
0
0
0
0
0
0
0
0
0
0
0
0
0
0
0
0
0
0
0
0
0
0
0
0
0
0
0
0
0
0
0
0
0
0
0
0
0
0
0
0
0
0
0
0
0
0
0
0
0
0
0
0
0
0
0
0
0
0
0
0
0
0
0
0
0
0
0
0
0
0
0
0
0
0
0
0
0
0
0
0
0
0
0
0
0
0
0
0
0
0
0
0
0
0
0
0
0
0
0
0
0
0
0
0
0
0
0
0
0
0
0
0
0
0
0
0
0
0
0
0
0
0
0
0
0
0
0
0
0
0
0
0
0
0
0
0
0
0
0
0
0
0
0
0
0
0
0
0
0
0
0
0
0
0
0
0
0
0
0
0
0
0
0
0
0
0
0
0
0
0
0
0
0
0
0
0
0
0
0
0
0
0
0
0
0
0
0
0
0
0
0
0
0
0
0
0
0
0
0
0
0
0
0
0
0
0
0
0
0
0
0
0
0
0
0
0
0
0
0
0
0
0
0
0
0
0
0
0
0
0
0
0
0
0
0
0
0
0
0
0
0
0
0
0
0
0
0
0
0
0
0
0
0
0
0
0
0
0
0
0
0
0
0
0
0
0
0
0
0
0
0
0
0
0
0
0
0
0
0
0
0
0
0
0
0
0
0
0
0
0
0
0
0
0
0
0
0
0
0
0
0
0
0
0
0
0
0
0
0
0
0
0
0
0
0
0
0
0
0
0
0
0
0
0
0
0
0
0
0
0
0
0
0
0
0
0
0
0
0
0
0
0
0
0
0
0
0
0
0
0
0
0
0
0
0
0
0
0
0
0
0
0
0
0
0
0
0
0
0
0
0
0
0
0
0
0
0
0
0
0
0
0
0
0
0
0
0
0
0
0
0
0
0
0
0
0
0
0
0
0
0
0
0
0
0
0
0
0
0
0
0
0
0
0
0
0
0
0
0
0
0
0
0
0
0
0
0
0
0
0
0
0
0
0
0
0
0
0
0
0
0
0
0
0
0
0
0
0
0
0
0
0
0
0
0
0
0
0
0
0
0
0
0
0
0
0
0
0
0
0
0
0
0
0
0
0
0
0
0
0
0
0
0
0
0
0
0
0
0
0
0
0
0
0
0
0
0
0
0
0
0
0
0
0
0
0
0
0
0
0
0
0
0
0
0
0
0
0
0
0
0
0
0
0
0
0
0
0
0
0
0
0
0
0
0
0
0
0
0
0
0
0
0
0
0
0
0
0
0
0
0
0
0
0
0
0
0
0
0
0
0
0
0
0
0
0
0
0
0
0
0
0
0
0
0
0
0
0
0
0
0
0
0
0
0
0
0
0
0
0
0
0
0
0
0
0
0
0
0
0
0
0
0
0
0
0
0
0
0
0
0
0
0
0
0
0
0
0
0
0
0
0
0
0
0
0
0
0
0
0
0
0
0
0
0
0
0
0
0
0
0
0
0
0
0
0
0
0
0
0
0
0
0
0
0
0
0
0
0
0
0
0
0
0
0
0
0
0
0
0
0
0
0
0
0
0
0
0
0
0
0
0
0
0
0
0
0
0
0
0
0
0
0
0
0
0
0
0
0
0
0
0
0
0
0
0
0
0
0
0
0
0
0
0
0
0
0
0
0
0
0
0
0
0
0
0
0
0
0
0
0
0
0
0
0
0
0
0
0
0
0
0
0
0
0
0
0
0
0
0
0
0
0
0
0
0
0
0
0
0
0
0
0
0
0
0
0
0
0
0
0
0
0
0
0
0
0
0
0
0
0
0
0
0
0
0
0
0
0
0
0
0
0
0
0
0
0
0
0
0
0
0
0
0
0
0
0
0
0
0
0
0
0
0
0
0
0
0
0
0
0
0
0
0
0
0
0
0
0
0
0
0
0
0
0
0
0
0
0
0
0
0
0
0
0
0
0
0
0
0
0
0
0
0
0
0
0
0
0
0
0
0
0
0
0
0
0
0
0
0
0
0
0
0
0
0
0
0
0
0
0
0
0
0
0
0
0
0
0
0
0
0
0
0
0
0
0
0
0
0
0
0
0
0
0
0
0
0
0
0
0
0
0
0
0
0
0
0
0
0
0
0
0
0
0
0
0
0
0
0
0
0
0
0
0
0
0
0
0
0
0
0
0
0
0
0
0
0
0
0
0
0
0
0
0
0
0
0
0
0
0
0
0
0
0
0
0
0
0
0
0
0
0
0
0
0
0
0
0
0
0
0
0
0
0
0
0
0
0
0
0
0
0
0
0
0
0
0
0
0
0
0
0
0
0
0
0
0
0
0
0
0
0
0
0
0
0
0
0
0
0
0
0
0
0
0
0
0
0
0
0
0
0
0
0
0
0
0
0
0
0
0
0
0
0
0
0
0
0
0
0
0
0
0
0
0
0
0
0
0
0
0
0
0
0
0
0
0
0
0
0
0
0
0
0
0
0
0
0
0
0
0
0
0
0
0
0
0
0
0
0
0
0
0
0
0
0
0
0
0
0
0
0
0
0
0
0
0
0
0
0
0
0
0
0
0
0
0
0
0
0
0
0
0
0
0
0
0
0
0
0
0
0
0
0
0
0
0
0
0
0
0
0
0
0
0
0
0
0
0
0
0
0
0
0
0
0
0
0
0
0
0
0
0
0
0
0
0
0
0
0
0
0
0
0
0
0
0
0
0
0
0
0
0
0
0
0
0
0
0
0
0
0
0
0
0
0
0
0
0
0
0
0
0
0
0
0
0
0
0
0
0
0
0
0
0
0
0
0
0
0
0
0
0
0
0
0
0
0
0
0
0
0
0
0
0
0
0
0
0
0
0
0
0
0
0
0
0
0
0
0
0
0
0
0
0
0
0
0
0
0
0
0
0
0
0
0
0
0
0
0
0
0
0
0
0
0
0
0
0
0
0
0
0
0
0
0
0
0
0
0
0
0
0
0
0
0
0
0
0
0
0
0
0
0
0
0
0
0
0
0
0
0
0
0
0
0
0
0
0
0
0
0
0
0
0
0
0
0
0
0
0
0
0
0
0
0
0
0
0
0
0
0
0
0
0
0
0
0
0
0
0
0
0
0
0
0
0
0
0
0
0
0
0
0
0
0
0
0
0
0
0
0
0
0
0
0
0
0
0
0
0
0
0
0
0
0
0
0
0
0
0
0
0
0
0
0
0
0
0
0
0
0
0
0
0
0
0
0
0
0
0
0
0
0
0
0
0
0
0
0
0
0
0
0
0
0
0
0
0
0
0
0
0
0
0
0
0
0
0
0
0
0
0
0
0
0
0
0
0
0
0
0
0
0
0
0
0
0
0
0
0
0
0
0
0
0
0
0
0
0
0
0
0
0
0
0
0
0
0
0
0
0
0
0
0
0
0
0
0
0
0
0
0
0
0
0
0
0
0
0
0
0
0
0
0
0
0
0
0
0
0
0
0
0
0
0
0
0
0
0
0
0
0
0
0
0
0
0
0
0
0
0
0
0
0
0
0
0
0
0
0
0
0
0
0
0
0
0
0
0
0
0
0
0
0
0
0
0
0
0
0
0
0
0
0
0
0
0
0
0
0
0
0
0
0
0
0
0
0
0
0
0
0
0
0
0
0
0
0
0
0
0
0
0
0
0
0
0
0
0
0
0
0
0
0
0
0
0
0
0
0
0
1
1
1
1
1
1
1
1
1
1
1
1
1
1
1
1
1
1
1
1
1
1
1
1
1
1
1
1
1
1
2
2
2
2
2
2
2
2
2
2
2
2
2
2
2
2
2
2
2
2
2
2
2
2
2
2
2
2
2
2
3
3
3
3
3
3
3
3
3
3
3
3
3
3
3
3
3
3
3
3
3
3
3
3
3
3
3
3
3
3
4
4
4
4
4
4
4
4
4
4
4
4
4
4
4
4
4
4
4
4
4
4
4
4
4
4
4
4
4
4

LOOKUP_TABLE FreeFempp_table 5
1.00000000 0.00000000 0.00000000 1.00000000
1.00000000 1.00000000 0.00000000 1.00000000
1.00000000 0.00000000 1.00000000 1.00000000
0.00000000 1.00000000 0.00000000 1.00000000
0.00000000 1.00000000 1.00000000 1.00000000

POINT_DATA 961
FIELD FieldData 1
Density 1 961 float
1.06230387e-02 1.40154054e-02 2.19494998e-02 2.76995432e-02 2.86874156e-02 2.60069948e-02 2.02185530e-02 1.27496682e-02 7.78617570e-03 7.81462155e-03 1.65828317e-02 8.28848034e-02 3.72290909e-01 5.48234642e-01 4.86581624e-01 4.95860368e-01 5.46198845e-01 5.69671869e-01 5.73501229e-01 5.74917138e-01 5.82615077e-01 6.02036476e-01 6.26065135e-01 6.41047299e-01 6.50219619e-01 6.58573389e-01 6.64887190e-01 6.68540061e-01 6.69707954e-01 6.67932510e-01 6.63355112e-01 1.06250215e-02 1.18866311e-02 1.44481650e-02 1.61534995e-02 1.59175247e-02 1.44392420e-02 1.21108368e-02 9.26901773e-03 7.15450011e-03 7.48712011e-03 1.34375067e-02 4.80816551e-02 2.72634894e-01 5.09964585e-01 3.92106563e-01 3.39302391e-01 3.79932046e-01 4.08748657e-01 4.12094027e-01 4.14391845e-01 4.32844102e-01 4.82465893e-01 5.42273939e-01 5.79180777e-01 6.04668796e-01 6.27338171e-01 6.42810285e-01 6.51989222e-01 6.56459749e-01 6.57503903e-01 6.55060649e-01 2.54694819e-02 2.37656776e-02 2.21875794e-02 1.96694173e-02 1.67985018e-02 1.44176129e-02 1.25587285e-02 1.10393949e-02 1.00502027e-02 1.03180455e-02 1.35611221e-02 2.63841208e-02 8.88340697e-02 3.34371448e-01 2.93606937e-01 1.54728577e-01 1.20350376e-01 1.15696147e-01 1.13843948e-01 1.09367490e-01 1.12484559e-01 1.50324702e-01 2.34947324e-01 3.06726545e-01 3.83985609e-01 4.77181077e-01 5.39315939e-01 5.75838208e-01 5.96375704e-01 6.07960224e-01 6.12581670e-01 1.12361595e-01 9.90316421e-02 8.31070244e-02 6.49169609e-02 4.96032424e-02 4.02804501e-02 3.53482775e-02 3.26486081e-02 3.08252070e-02 2.94768251e-02 2.94358898e-02 3.22585776e-02 4.51522022e-02 1.07862636e-01 2.57227898e-01 1.58254206e-01 1.02605335e-01 9.56496671e-02 9.74823684e-02 7.89427385e-02 5.60748801e-02 5.35344444e-02 6.35972396e-02 7.65008554e-02 1.05142891e-01 2.10588917e-01 3.38306487e-01 4.32739228e-01 4.89146411e-01 5.22058785e-01 5.37048459e-01 2.37543032e-01 2.20018864e-01 1.94299027e-01 1.68378025e-01 1.46026373e-01 1.32155225e-01 1.26026422e-01 1.24128759e-01 1.23452559e-01 1.21754244e-01 1.16480686e-01 1.00788265e-01 7.21308291e-02 6.94808885e-02 1.09379098e-01 2.23716289e-01 2.25619406e-01 2.47220069e-01 3.01512331e-01 2.59084135e-01 1.26282647e-01 8.51696283e-02 7.04213306e-02 5.55100329e-02 4.89449799e-02 6.72266632e-02 1.36025444e-01 2.51221776e-01 3.53117883e-01 4.16766077e-01 4.43877220e-01 3.36072654e-01 3.17227811e-01 2.93733597e-01 2.74671525e-01 2.59746343e-01 2.51609415e-01 2.50258058e-01 2.52889514e-01 2.56336302e-01 2.57613212e-01 2.52513975e-01 2.33133465e-01 1.90156907e-01 1.40754491e-01 8.89699683e-02 1.06616862e-01 2.18802512e-01 2.99961418e-01 3.55056643e-01 3.61033201e-01 3.00700426e-01 2.65419304e-01 2.47881338e-01 1.66837975e-01 8.78554434e-02 5.73227666e-02 5.80202155e-02 1.06766015e-01 2.09757462e-01 3.03495347e-01 3.43178481e-01 4.12239701e-01 3.94897163e-01 3.76765698e-01 3.65475148e-01 3.57908070e-01 3.54288638e-01 3.54766488e-01 3.58025044e-01 3.61963272e-01 3.64125967e-01 3.61104697e-01 3.47516894e-01 3.16603035e-01 2.63818115e-01 1.73403755e-01 8.65527317e-02 7.20709190e-02 7.99176693e-02 9.35693532e-02 1.10400409e-01 1.17867641e-01 1.40179917e-01 2.37900630e-01 3.37239355e-01 2.93859303e-01 1.51731476e-01 6.13114834e-02 5.07553220e-02 9.67475027e-02 1.88271388e-01 2.37326041e-01 4.78560150e-01 4.64653313e-01 4.51878726e-01 4.45774496e-01 4.42552894e-01 4.41299558e-01 4.41986084e-01 4.44214463e-01 4.46962625e-01 4.48658764e-01 4.47016865e-01 4.38594103e-01 4.18308556e-01 3.78155291e-01 3.02249879e-01 1.81179136e-01 7.44690523e-02 4.15287018e-02 3.26507315e-02 3.10068373e-02 3.34281400e-02 4.22416814e-02 7.62871429e-02 1.85217217e-01 3.82329881e-01 3.59738708e-01 1.32534325e-01 4.48937826e-02 4.29466814e-02 9.11478922e-02 1.35351002e-01 5.39124429e-01 5.29649973e-01 5.21624863e-01 5.18511593e-01 5.17284155e-01 5.17046988e-01 5.17713070e-01 5.19215167e-01 5.21103919e-01 5.22461951e-01 5.21883070e-01 5.17309129e-01 5.05538523e-01 4.80864078e-01 4.32104021e-01 3.42457682e-01 2.02823758e-01 8.33610818e-02 4.31259871e-02 2.67734118e-02 2.19233166e-02 2.32052952e-02 3.32534276e-02 6.92671835e-02 2.04360515e-01 4.30473298e-01 2.94291168e-01 6.65173456e-02 2.89992839e-02 3.57859172e-02 5.93031794e-02 5.91259539e-01 5.86324513e-01 5.82247198e-01 5.80877364e-01 5.80506682e-01 5.80693781e-01 5.81409693e-01 5.82650125e-01 5.84169388e-01 5.85412085e-01 5.85560799e-01 5.83529532e-01 5.77718973e-01 5.65318584e-01 5.40978253e-01 4.95267779e-01 4.13968056e-01 2.88707852e-01 1.63955986e-01 7.21115246e-02 4.18850966e-02 3.24240364e-02 3.27761136e-02 4.58443277e-02 9.92819667e-02 3.09896678e-01 4.26842690e-01 1.32211104e-01 3.17550488e-02 2.02872660e-02 2.59275027e-02 6.29346311e-01 6.28241301e-01 6.27177060e-01 6.26951993e-01 6.27120614e-01 6.27640605e-01 6.28525198e-01 6.29726589e-01 6.31016850e-01 6.31990194e-01 6.32161260e-01 6.31036162e-01 6.28029943e-01 6.22168362e-01 6.11593723e-01 5.92873693e-01 5.60035050e-01 5.04477143e-01 4.17103797e-01 2.85392374e-01 1.70364991e-01 1.08738512e-01 7.90586397e-02 7.05405101e-02 9.58594829e-02 2.30367512e-01 4.79499757e-01 2.92729199e-01 5.05577959e-02 1.73789188e-02 1.44133754e-02 6.47892296e-01 6.49360716e-01 6.50425494e-01 6.51227713e-01 6.52214825e-01 6.53488159e-01 6.54974639e-01 6.56484246e-01 6.57690644e-01 6.58198655e-01 6.57684207e-01 6.55992389e-01 6.53107107e-01 6.48990333e-01 6.43343687e-01 6.35274589e-01 6.22745693e-01 6.02286398e-01 5.69539070e-01 5.16778409e-01 4.44182694e-01 3.64569038e-01 2.76939452e-01 2.01877028e-01 1.84719220e-01 3.02057445e-01 5.40536582e-01 4.50265020e-01 9.09095779e-02 2.11911574e-02 1.36142699e-02 6.42645061e-01 6.45088792e-01 6.47538960e-01 6.49722457e-01 6.52476847e-01 6.55716300e-01 6.59030259e-01 6.61892176e-01 6.63727164e-01 6.64049685e-01 6.62632763e-01 6.59583688e-01 6.55280292e-01 6.50214016e-01 6.44798398e-01 6.39136851e-01 6.32697463e-01 6.24157131e-01 6.12283587e-01 5.97209573e-01 5.79647481e-01 5.56865513e-01 5.14574111e-01 4.50929046e-01 4.17318046e-01 5.09241760e-01 6.56037867e-01 5.80515981e-01 1.72733530e-01 3.11551355e-02 1.69348326e-02 6.10428274e-01 6.11764252e-01 6.14736676e-01 6.19130254e-01 6.25537574e-01 6.33225501e-01 6.40959918e-01 6.47456050e-01 6.51626229e-01 6.52826309e-01 6.51000679e-01 6.46629333e-01 6.40533030e-01 6.33644640e-01 6.26803756e-01 6.20560169e-01 6.14977300e-01 6.09598458e-01 6.04049265e-01 5.99184096e-01 5.96599758e-01 5.95820248e-01 5.91954768e-01 5.85087478e-01 5.99168539e-01 6.72423780e-01 7.41948783e-01 6.56083107e-01 2.63021767e-01 4.38331068e-02 2.11628210e-02 5.49652696e-01 5.47137678e-01 5.49132526e-01 5.56909382e-01 5.70016205e-01 5.86332977e-01 6.02887988e-01 6.16811633e-01 6.26079202e-01 6.29921615e-01 6.28743470e-01 6.23708129e-01 6.16283655e-01 6.07909083e-01 5.99783301e-01 5.92714727e-01 5.87011814e-01 5.82521200e-01 5.79050303e-01 5.77156007e-01 5.78393161e-01 5.84725142e-01 5.98272145e-01 6.23870492e-01 6.71375990e-01 7.39389062e-01 7.73618579e-01 6.68875158e-01 2.89691448e-01 4.97440249e-02 2.30789874e-02 4.62443560e-01 4.53297347e-01 4.52099830e-01 4.64380205e-01 4.88019764e-01 5.18532157e-01 5.49779296e-01 5.75955153e-01 5.93540013e-01 6.01902127e-01 6.02481663e-01 5.97602129e-01 5.89636266e-01 5.80608666e-01 5.72058678e-01 5.64994693e-01 5.59881568e-01 5.56725264e-01 5.55411458e-01 5.56368709e-01 5.61265171e-01 5.73458254e-01 5.98095775e-01 6.40957415e-01 7.02526689e-01 7.63132811e-01 7.72420406e-01 6.31013572e-01 2.50562608e-01 4.54726145e-02 2.15611774e-02 3.57799709e-01 3.41013283e-01 3.34998071e-01 3.51981997e-01 3.88810694e-01 4.38449174e-01 4.90025222e-01 5.32848179e-01 5.61217427e-01 5.75200319e-01 5.78095615e-01 5.73899686e-01 5.66062808e-01 5.57180524e-01 5.49069226e-01 5.42906463e-01 5.39333045e-01 5.38566470e-01 5.40664375e-01 5.46087682e-01 5.56538224e-01 5.75713336e-01 6.09069347e-01 6.60510421e-01 7.23404586e-01 7.69983470e-01 7.47512460e-01 5.42380035e-01 1.72039017e-01 3.49847451e-02 1.77991670e-02 2.52511740e-01 2.30737820e-01 2.21130759e-01 2.41265848e-01 2.89619386e-01 3.59256625e-01 4.33988154e-01 4.95591491e-01 5.35239220e-01 5.54508209e-01 5.59429288e-01 5.56008637e-01 5.48739672e-01 5.40632904e-01 5.33653200e-01 5.29099286e-01 5.27815342e-01 5.30292094e-01 5.36810577e-01 5.47851384e-01 5.64887106e-01 5.91134250e-01 6.30831122e-01 6.84587002e-01 7.39865422e-01 7.63670206e-01 6.91432238e-01 4.05799419e-01 9.85801369e-02 2.41865199e-02 1.37657830e-02 1.64232627e-01 1.42800122e-01 1.33506462e-01 1.54391676e-01 2.08734334e-01 2.94506550e-01 3.91177863e-01 4.70230639e-01 5.19009173e-01 5.41705787e-01 5.47691941e-01 5.44910312e-01 5.38587749e-01 5.31867504e-01 5.26688337e-01 5.24394453e-01 5.26013732e-01 5.32301009e-01 5.43724120e-01 5.60667157e-01 5.84076285e-01 6.16102338e-01 6.58925354e-01 7.09170818e-01 7.48790622e-01 7.37096190e-01 5.86969376e-01 2.49908224e-01 5.55641651e-02 1.70116201e-02 1.09767299e-02 1.01277173e-01 8.45247582e-02 7.87297636e-02 9.90738645e-02 1.55125156e-01 2.52851754e-01 3.67771894e-01 4.59377825e-01 5.12604892e-01 5.35838008e-01 5.41764557e-01 5.39623499e-01 5.34803927e-01 5.30228496e-01 5.27628064e-01 5.28297007e-01 5.33372402e-01 5.43796122e-01 5.60146987e-01 5.82613170e-01 6.11374676e-01 6.46997571e-01 6.88876033e-01 7.29139805e-01 7.43320942e-01 6.75910771e-01 4.29774523e-01 1.29817694e-01 3.29862759e-02 1.34194018e-02 9.94869880e-03 6.10703155e-02 5.04448265e-02 4.89028879e-02 6.92020133e-02 1.27381265e-01 2.36779839e-01 3.65480870e-01 4.61709708e-01 5.13170302e-01 5.33965766e-01 5.39127290e-01 5.38051367e-01 5.35577953e-01 5.34066737e-01 5.34896076e-01 5.39225996e-01 5.48208177e-01 5.62864423e-01 5.83810866e-01 6.11008167e-01 6.43713057e-01 6.80321157e-01 7.16426790e-01 7.38761306e-01 7.12954760e-01 5.62643349e-01 2.58317620e-01 6.88182116e-02 2.26335004e-02 1.27899284e-02 1.12036960e-02 3.67483012e-02 3.15958783e-02 3.38197276e-02 5.58175296e-02 1.20795108e-01 2.45229393e-01 3.81417662e-01 4.72343177e-01 5.16101778e-01 5.32480180e-01 5.36982596e-01 5.37860036e-01 5.38759947e-01 5.41237056e-01 5.46246886e-01 5.54775834e-01 5.67924857e-01 5.86708307e-01 6.11714005e-01 6.42654300e-01 6.77732944e-01 7.12555766e-01 7.37655878e-01 7.31826782e-01 6.44516289e-01 4.01810467e-01 1.37127653e-01 4.21370938e-02 1.97001360e-02 1.58708803e-02 1.67335700e-02 2.26798970e-02 2.14132704e-02 2.68933661e-02 5.33443950e-02 1.32805049e-01 2.75068551e-01 4.08341438e-01 4.84408855e-01 5.16782045e-01 5.28425336e-01 5.33177733e-01 5.37123442e-01 5.42346537e-01 5.49517691e-01 5.59177995e-01 5.72150290e-01 5.89474440e-01 6.12123549e-01 6.40594006e-01 6.74241245e-01 7.10018039e-01 7.40310073e-01 7.49454379e-01 7.03777730e-01 5.35228074e-01 2.49014005e-01 8.07633102e-02 3.32332738e-02 2.28759814e-02 2.56888848e-02 3.24563310e-02 1.52712250e-02 1.62960477e-02 2.50524804e-02 6.02403395e-02 1.63497880e-01 3.19516927e-01 4.36307997e-01 4.91606891e-01 5.12201250e-01 5.20347059e-01 5.26642561e-01 5.34591377e-01 5.44725776e-01 5.56922376e-01 5.71359277e-01 5.88708401e-01 6.09955847e-01 6.36037946e-01 6.67299986e-01 7.02552915e-01 7.37301886e-01 7.60864139e-01 7.51165152e-01 6.59744561e-01 4.19983894e-01 1.64577320e-01 6.33773059e-02 3.70823257e-02 3.58152278e-02 5.04777431e-02 6.96255788e-02 1.18799964e-02 1.43643022e-02 2.74468977e-02 7.84376636e-02 2.12059468e-01 3.67190808e-01 4.56423938e-01 4.90543157e-01 5.01775563e-01 5.08429527e-01 5.17311335e-01 5.29617369e-01 5.44701576e-01 5.61862290e-01 5.80953002e-01 6.02434635e-01 6.27171814e-01 6.56027198e-01 6.89149678e-01 7.24726915e-01 7.56975472e-01 7.73198485e-01 7.47225583e-01 6.22747302e-01 3.60780418e-01 1.49973556e-01 7.58057460e-02 6.08058833e-02 7.36204609e-02 1.11565799e-01 1.47482440e-01 1.08154248e-02 1.46818608e-02 3.46633717e-02 1.12276971e-01 2.71886736e-01 4.06014502e-01 4.64438021e-01 4.81610984e-01 4.87179220e-01 4.94062304e-01 5.05750716e-01 5.21940589e-01 5.41410565e-01 5.63160658e-01 5.86723030e-01 6.12176955e-01 6.40035748e-01 6.70908511e-01 7.04708695e-01 7.39232898e-01 7.68212497e-01 7.78887510e-01 7.46293902e-01 6.22185886e-01 3.90794218e-01 2.06362203e-01 1.38875589e-01 1.36778206e-01 1.75051615e-01 2.38508061e-01 2.82007575e-01 1.13693355e-02 1.71554293e-02 4.88117449e-02 1.63162857e-01 3.29752743e-01 4.29313034e-01 4.61804658e-01 4.68368828e-01 4.71542567e-01 4.79238987e-01 4.92842257e-01 5.11578977e-01 5.34302831e-01 5.60016096e-01 5.87944329e-01 6.17570400e-01 6.48688078e-01 6.81275845e-01 7.14879274e-01 7.47335196e-01 7.73117840e-01 7.81683147e-01 7.54563689e-01 6.62762761e-01 5.01829028e-01 3.59914064e-01 3.02904427e-01 3.13204318e-01 3.58752191e-01 4.12493438e-01 4.41388905e-01 1.32913981e-02 2.22562831e-02 7.45452642e-02 2.24040717e-01 3.73419642e-01 4.38739568e-01 4.54619110e-01 4.56265867e-01 4.58615988e-01 4.66234803e-01 4.79841799e-01 4.99094874e-01 5.23440361e-01 5.52173615e-01 5.84330559e-01 6.18713379e-01 6.54084980e-01 6.89331114e-01 7.23270774e-01 7.53913701e-01 7.77339935e-01 7.86682248e-01 7.71446586e-01 7.19463646e-01 6.33687556e-01 5.54057479e-01 5.15707850e-01 5.12837291e-01 5.27017832e-01 5.47447145e-01 5.58780670e-01 1.61181334e-02 2.94750147e-02 1.14827469e-01 2.82430440e-01 4.01574641e-01 4.43464488e-01 4.51632857e-01 4.51366961e-01 4.52375740e-01 4.57932830e-01 4.69190091e-01 4.86703813e-01 5.10736704e-01 5.41085482e-01 5.76839268e-01 6.16313934e-01 6.57257676e-01 6.97227240e-01 7.33879447e-01 7.64931142e-01 7.87747502e-01 7.98780978e-01 7.93355823e-01 7.67309546e-01 7.23564744e-01 6.77515864e-01 6.42842770e-01 6.19770646e-01 6.06747448e-01 6.06702685e-01 6.11110568e-01 1.91199128e-02 3.63239385e-02 1.55544370e-01 3.28561246e-01 4.24635381e-01 4.55977142e-01 4.61463749e-01 4.59616989e-01 4.58022416e-01 4.60025221e-01 4.67493773e-01 4.81737137e-01 5.03635049e-01 5.33433497e-01 5.70456028e-01 6.12927377e-01 6.58068061e-01 7.02499866e-01 7.42817342e-01 7.76059151e-01 7.99853206e-01 8.12196970e-01 8.11145723e-01 7.95212090e-01 7.65487194e-01 7.27507830e-01 6.87972605e-01 6.51681364e-01 6.25099003e-01 6.16139591e-01 6.19309068e-01 2.21819542e-02 3.82434018e-02 1.75247133e-01 3.57521176e-01 4.44511741e-01 4.72438514e-01 4.76838231e-01 4.74058360e-01 4.71070945e-01 4.71256852e-01 4.76665020e-01 4.88771290e-01 5.08577824e-01 5.36430836e-01 5.71759701e-01 6.12903059e-01 6.57166541e-01 7.01170385e-01 7.41394818e-01 7.74705350e-01 7.98636436e-01 8.11337769e-01 8.11352611e-01 7.97772825e-01 7.71334529e-01 7.35468328e-01 6.95202291e-01 6.56222820e-01 6.26499891e-01 6.14136755e-01 6.15612984e-01 
