# vtk DataFile Version 2.0
results_case1_non_linear/6_density.vtk, Created by Freefem++ 
ASCII
DATASET UNSTRUCTURED_GRID
POINTS 961 float
0 0 0
0.033333333 0 0
0.066666667 0 0
0.1 0 0
0.13333333 0 0
0.16666667 0 0
0.2 0 0
0.23333333 0 0
0.26666667 0 0
0.3 0 0
0.33333333 0 0
0.36666667 0 0
0.4 0 0
0.43333333 0 0
0.46666667 0 0
0.5 0 0
0.53333333 0 0
0.56666667 0 0
0.6 0 0
0.63333333 0 0
0.66666667 0 0
0.7 0 0
0.73333333 0 0
0.76666667 0 0
0.8 0 0
0.83333333 0 0
0.86666667 0 0
0.9 0 0
0.93333333 0 0
0.96666667 0 0
1 0 0
0 0.033333333 0
0.033333333 0.033333333 0
0.066666667 0.033333333 0
0.1 0.033333333 0
0.13333333 0.033333333 0
0.16666667 0.033333333 0
0.2 0.033333333 0
0.23333333 0.033333333 0
0.26666667 0.033333333 0
0.3 0.033333333 0
0.33333333 0.033333333 0
0.36666667 0.033333333 0
0.4 0.033333333 0
0.43333333 0.033333333 0
0.46666667 0.033333333 0
0.5 0.033333333 0
0.53333333 0.033333333 0
0.56666667 0.033333333 0
0.6 0.033333333 0
0.63333333 0.033333333 0
0.66666667 0.033333333 0
0.7 0.033333333 0
0.73333333 0.033333333 0
0.76666667 0.033333333 0
0.8 0.033333333 0
0.83333333 0.033333333 0
0.86666667 0.033333333 0
0.9 0.033333333 0
0.93333333 0.033333333 0
0.96666667 0.033333333 0
1 0.033333333 0
0 0.066666667 0
0.033333333 0.066666667 0
0.066666667 0.066666667 0
0.1 0.066666667 0
0.13333333 0.066666667 0
0.16666667 0.066666667 0
0.2 0.066666667 0
0.23333333 0.066666667 0
0.26666667 0.066666667 0
0.3 0.066666667 0
0.33333333 0.066666667 0
0.36666667 0.066666667 0
0.4 0.066666667 0
0.43333333 0.066666667 0
0.46666667 0.066666667 0
0.5 0.066666667 0
0.53333333 0.066666667 0
0.56666667 0.066666667 0
0.6 0.066666667 0
0.63333333 0.066666667 0
0.66666667 0.066666667 0
0.7 0.066666667 0
0.73333333 0.066666667 0
0.76666667 0.066666667 0
0.8 0.066666667 0
0.83333333 0.066666667 0
0.86666667 0.066666667 0
0.9 0.066666667 0
0.93333333 0.066666667 0
0.96666667 0.066666667 0
1 0.066666667 0
0 0.1 0
0.033333333 0.1 0
0.066666667 0.1 0
0.1 0.1 0
0.13333333 0.1 0
0.16666667 0.1 0
0.2 0.1 0
0.23333333 0.1 0
0.26666667 0.1 0
0.3 0.1 0
0.33333333 0.1 0
0.36666667 0.1 0
0.4 0.1 0
0.43333333 0.1 0
0.46666667 0.1 0
0.5 0.1 0
0.53333333 0.1 0
0.56666667 0.1 0
0.6 0.1 0
0.63333333 0.1 0
0.66666667 0.1 0
0.7 0.1 0
0.73333333 0.1 0
0.76666667 0.1 0
0.8 0.1 0
0.83333333 0.1 0
0.86666667 0.1 0
0.9 0.1 0
0.93333333 0.1 0
0.96666667 0.1 0
1 0.1 0
0 0.13333333 0
0.033333333 0.13333333 0
0.066666667 0.13333333 0
0.1 0.13333333 0
0.13333333 0.13333333 0
0.16666667 0.13333333 0
0.2 0.13333333 0
0.23333333 0.13333333 0
0.26666667 0.13333333 0
0.3 0.13333333 0
0.33333333 0.13333333 0
0.36666667 0.13333333 0
0.4 0.13333333 0
0.43333333 0.13333333 0
0.46666667 0.13333333 0
0.5 0.13333333 0
0.53333333 0.13333333 0
0.56666667 0.13333333 0
0.6 0.13333333 0
0.63333333 0.13333333 0
0.66666667 0.13333333 0
0.7 0.13333333 0
0.73333333 0.13333333 0
0.76666667 0.13333333 0
0.8 0.13333333 0
0.83333333 0.13333333 0
0.86666667 0.13333333 0
0.9 0.13333333 0
0.93333333 0.13333333 0
0.96666667 0.13333333 0
1 0.13333333 0
0 0.16666667 0
0.033333333 0.16666667 0
0.066666667 0.16666667 0
0.1 0.16666667 0
0.13333333 0.16666667 0
0.16666667 0.16666667 0
0.2 0.16666667 0
0.23333333 0.16666667 0
0.26666667 0.16666667 0
0.3 0.16666667 0
0.33333333 0.16666667 0
0.36666667 0.16666667 0
0.4 0.16666667 0
0.43333333 0.16666667 0
0.46666667 0.16666667 0
0.5 0.16666667 0
0.53333333 0.16666667 0
0.56666667 0.16666667 0
0.6 0.16666667 0
0.63333333 0.16666667 0
0.66666667 0.16666667 0
0.7 0.16666667 0
0.73333333 0.16666667 0
0.76666667 0.16666667 0
0.8 0.16666667 0
0.83333333 0.16666667 0
0.86666667 0.16666667 0
0.9 0.16666667 0
0.93333333 0.16666667 0
0.96666667 0.16666667 0
1 0.16666667 0
0 0.2 0
0.033333333 0.2 0
0.066666667 0.2 0
0.1 0.2 0
0.13333333 0.2 0
0.16666667 0.2 0
0.2 0.2 0
0.23333333 0.2 0
0.26666667 0.2 0
0.3 0.2 0
0.33333333 0.2 0
0.36666667 0.2 0
0.4 0.2 0
0.43333333 0.2 0
0.46666667 0.2 0
0.5 0.2 0
0.53333333 0.2 0
0.56666667 0.2 0
0.6 0.2 0
0.63333333 0.2 0
0.66666667 0.2 0
0.7 0.2 0
0.73333333 0.2 0
0.76666667 0.2 0
0.8 0.2 0
0.83333333 0.2 0
0.86666667 0.2 0
0.9 0.2 0
0.93333333 0.2 0
0.96666667 0.2 0
1 0.2 0
0 0.23333333 0
0.033333333 0.23333333 0
0.066666667 0.23333333 0
0.1 0.23333333 0
0.13333333 0.23333333 0
0.16666667 0.23333333 0
0.2 0.23333333 0
0.23333333 0.23333333 0
0.26666667 0.23333333 0
0.3 0.23333333 0
0.33333333 0.23333333 0
0.36666667 0.23333333 0
0.4 0.23333333 0
0.43333333 0.23333333 0
0.46666667 0.23333333 0
0.5 0.23333333 0
0.53333333 0.23333333 0
0.56666667 0.23333333 0
0.6 0.23333333 0
0.63333333 0.23333333 0
0.66666667 0.23333333 0
0.7 0.23333333 0
0.73333333 0.23333333 0
0.76666667 0.23333333 0
0.8 0.23333333 0
0.83333333 0.23333333 0
0.86666667 0.23333333 0
0.9 0.23333333 0
0.93333333 0.23333333 0
0.96666667 0.23333333 0
1 0.23333333 0
0 0.26666667 0
0.033333333 0.26666667 0
0.066666667 0.26666667 0
0.1 0.26666667 0
0.13333333 0.26666667 0
0.16666667 0.26666667 0
0.2 0.26666667 0
0.23333333 0.26666667 0
0.26666667 0.26666667 0
0.3 0.26666667 0
0.33333333 0.26666667 0
0.36666667 0.26666667 0
0.4 0.26666667 0
0.43333333 0.26666667 0
0.46666667 0.26666667 0
0.5 0.26666667 0
0.53333333 0.26666667 0
0.56666667 0.26666667 0
0.6 0.26666667 0
0.63333333 0.26666667 0
0.66666667 0.26666667 0
0.7 0.26666667 0
0.73333333 0.26666667 0
0.76666667 0.26666667 0
0.8 0.26666667 0
0.83333333 0.26666667 0
0.86666667 0.26666667 0
0.9 0.26666667 0
0.93333333 0.26666667 0
0.96666667 0.26666667 0
1 0.26666667 0
0 0.3 0
0.033333333 0.3 0
0.066666667 0.3 0
0.1 0.3 0
0.13333333 0.3 0
0.16666667 0.3 0
0.2 0.3 0
0.23333333 0.3 0
0.26666667 0.3 0
0.3 0.3 0
0.33333333 0.3 0
0.36666667 0.3 0
0.4 0.3 0
0.43333333 0.3 0
0.46666667 0.3 0
0.5 0.3 0
0.53333333 0.3 0
0.56666667 0.3 0
0.6 0.3 0
0.63333333 0.3 0
0.66666667 0.3 0
0.7 0.3 0
0.73333333 0.3 0
0.76666667 0.3 0
0.8 0.3 0
0.83333333 0.3 0
0.86666667 0.3 0
0.9 0.3 0
0.93333333 0.3 0
0.96666667 0.3 0
1 0.3 0
0 0.33333333 0
0.033333333 0.33333333 0
0.066666667 0.33333333 0
0.1 0.33333333 0
0.13333333 0.33333333 0
0.16666667 0.33333333 0
0.2 0.33333333 0
0.23333333 0.33333333 0
0.26666667 0.33333333 0
0.3 0.33333333 0
0.33333333 0.33333333 0
0.36666667 0.33333333 0
0.4 0.33333333 0
0.43333333 0.33333333 0
0.46666667 0.33333333 0
0.5 0.33333333 0
0.53333333 0.33333333 0
0.56666667 0.33333333 0
0.6 0.33333333 0
0.63333333 0.33333333 0
0.66666667 0.33333333 0
0.7 0.33333333 0
0.73333333 0.33333333 0
0.76666667 0.33333333 0
0.8 0.33333333 0
0.83333333 0.33333333 0
0.86666667 0.33333333 0
0.9 0.33333333 0
0.93333333 0.33333333 0
0.96666667 0.33333333 0
1 0.33333333 0
0 0.36666667 0
0.033333333 0.36666667 0
0.066666667 0.36666667 0
0.1 0.36666667 0
0.13333333 0.36666667 0
0.16666667 0.36666667 0
0.2 0.36666667 0
0.23333333 0.36666667 0
0.26666667 0.36666667 0
0.3 0.36666667 0
0.33333333 0.36666667 0
0.36666667 0.36666667 0
0.4 0.36666667 0
0.43333333 0.36666667 0
0.46666667 0.36666667 0
0.5 0.36666667 0
0.53333333 0.36666667 0
0.56666667 0.36666667 0
0.6 0.36666667 0
0.63333333 0.36666667 0
0.66666667 0.36666667 0
0.7 0.36666667 0
0.73333333 0.36666667 0
0.76666667 0.36666667 0
0.8 0.36666667 0
0.83333333 0.36666667 0
0.86666667 0.36666667 0
0.9 0.36666667 0
0.93333333 0.36666667 0
0.96666667 0.36666667 0
1 0.36666667 0
0 0.4 0
0.033333333 0.4 0
0.066666667 0.4 0
0.1 0.4 0
0.13333333 0.4 0
0.16666667 0.4 0
0.2 0.4 0
0.23333333 0.4 0
0.26666667 0.4 0
0.3 0.4 0
0.33333333 0.4 0
0.36666667 0.4 0
0.4 0.4 0
0.43333333 0.4 0
0.46666667 0.4 0
0.5 0.4 0
0.53333333 0.4 0
0.56666667 0.4 0
0.6 0.4 0
0.63333333 0.4 0
0.66666667 0.4 0
0.7 0.4 0
0.73333333 0.4 0
0.76666667 0.4 0
0.8 0.4 0
0.83333333 0.4 0
0.86666667 0.4 0
0.9 0.4 0
0.93333333 0.4 0
0.96666667 0.4 0
1 0.4 0
0 0.43333333 0
0.033333333 0.43333333 0
0.066666667 0.43333333 0
0.1 0.43333333 0
0.13333333 0.43333333 0
0.16666667 0.43333333 0
0.2 0.43333333 0
0.23333333 0.43333333 0
0.26666667 0.43333333 0
0.3 0.43333333 0
0.33333333 0.43333333 0
0.36666667 0.43333333 0
0.4 0.43333333 0
0.43333333 0.43333333 0
0.46666667 0.43333333 0
0.5 0.43333333 0
0.53333333 0.43333333 0
0.56666667 0.43333333 0
0.6 0.43333333 0
0.63333333 0.43333333 0
0.66666667 0.43333333 0
0.7 0.43333333 0
0.73333333 0.43333333 0
0.76666667 0.43333333 0
0.8 0.43333333 0
0.83333333 0.43333333 0
0.86666667 0.43333333 0
0.9 0.43333333 0
0.93333333 0.43333333 0
0.96666667 0.43333333 0
1 0.43333333 0
0 0.46666667 0
0.033333333 0.46666667 0
0.066666667 0.46666667 0
0.1 0.46666667 0
0.13333333 0.46666667 0
0.16666667 0.46666667 0
0.2 0.46666667 0
0.23333333 0.46666667 0
0.26666667 0.46666667 0
0.3 0.46666667 0
0.33333333 0.46666667 0
0.36666667 0.46666667 0
0.4 0.46666667 0
0.43333333 0.46666667 0
0.46666667 0.46666667 0
0.5 0.46666667 0
0.53333333 0.46666667 0
0.56666667 0.46666667 0
0.6 0.46666667 0
0.63333333 0.46666667 0
0.66666667 0.46666667 0
0.7 0.46666667 0
0.73333333 0.46666667 0
0.76666667 0.46666667 0
0.8 0.46666667 0
0.83333333 0.46666667 0
0.86666667 0.46666667 0
0.9 0.46666667 0
0.93333333 0.46666667 0
0.96666667 0.46666667 0
1 0.46666667 0
0 0.5 0
0.033333333 0.5 0
0.066666667 0.5 0
0.1 0.5 0
0.13333333 0.5 0
0.16666667 0.5 0
0.2 0.5 0
0.23333333 0.5 0
0.26666667 0.5 0
0.3 0.5 0
0.33333333 0.5 0
0.36666667 0.5 0
0.4 0.5 0
0.43333333 0.5 0
0.46666667 0.5 0
0.5 0.5 0
0.53333333 0.5 0
0.56666667 0.5 0
0.6 0.5 0
0.63333333 0.5 0
0.66666667 0.5 0
0.7 0.5 0
0.73333333 0.5 0
0.76666667 0.5 0
0.8 0.5 0
0.83333333 0.5 0
0.86666667 0.5 0
0.9 0.5 0
0.93333333 0.5 0
0.96666667 0.5 0
1 0.5 0
0 0.53333333 0
0.033333333 0.53333333 0
0.066666667 0.53333333 0
0.1 0.53333333 0
0.13333333 0.53333333 0
0.16666667 0.53333333 0
0.2 0.53333333 0
0.23333333 0.53333333 0
0.26666667 0.53333333 0
0.3 0.53333333 0
0.33333333 0.53333333 0
0.36666667 0.53333333 0
0.4 0.53333333 0
0.43333333 0.53333333 0
0.46666667 0.53333333 0
0.5 0.53333333 0
0.53333333 0.53333333 0
0.56666667 0.53333333 0
0.6 0.53333333 0
0.63333333 0.53333333 0
0.66666667 0.53333333 0
0.7 0.53333333 0
0.73333333 0.53333333 0
0.76666667 0.53333333 0
[...]
CELL_DATA 1920
Scalars  Label int 1
LOOKUP_TABLE FreeFempp_table
0
0
0
0
0
0
0
0
0
0
0
0
0
0
0
0
0
0
0
0
0
0
0
0
0
0
0
0
0
0
0
0
0
0
0
0
0
0
0
0
0
0
0
0
0
0
0
0
0
0
0
0
0
0
0
0
0
0
0
0
0
0
0
0
0
0
0
0
0
0
0
0
0
0
0
0
0
0
0
0
0
0
0
0
0
0
0
0
0
0
0
0
0
0
0
0
0
0
0
0
0
0
0
0
0
0
0
0
0
0
0
0
0
0
0
0
0
0
0
0
0
0
0
0
0
0
0
0
0
0
0
0
0
0
0
0
0
0
0
0
0
0
0
0
0
0
0
0
0
0
0
0
0
0
0
0
0
0
0
0
0
0
0
0
0
0
0
0
0
0
0
0
0
0
0
0
0
0
0
0
0
0
0
0
0
0
0
0
0
0
0
0
0
0
0
0
0
0
0
0
0
0
0
0
0
0
0
0
0
0
0
0
0
0
0
0
0
0
0
0
0
0
0
0
0
0
0
0
0
0
0
0
0
0
0
0
0
0
0
0
0
0
0
0
0
0
0
0
0
0
0
0
0
0
0
0
0
0
0
0
0
0
0
0
0
0
0
0
0
0
0
0
0
0
0
0
0
0
0
0
0
0
0
0
0
0
0
0
0
0
0
0
0
0
0
0
0
0
0
0
0
0
0
0
0
0
0
0
0
0
0
0
0
0
0
0
0
0
0
0
0
0
0
0
0
0
0
0
0
0
0
0
0
0
0
0
0
0
0
0
0
0
0
0
0
0
0
0
0
0
0
0
0
0
0
0
0
0
0
0
0
0
0
0
0
0
0
0
0
0
0
0
0
0
0
0
0
0
0
0
0
0
0
0
0
0
0
0
0
0
0
0
0
0
0
0
0
0
0
0
0
0
0
0
0
0
0
0
0
0
0
0
0
0
0
0
0
0
0
0
0
0
0
0
0
0
0
0
0
0
0
0
0
0
0
0
0
0
0
0
0
0
0
0
0
0
0
0
0
0
0
0
0
0
0
0
0
0
0
0
0
0
0
0
0
0
0
0
0
0
0
0
0
0
0
0
0
0
0
0
0
0
0
0
0
0
0
0
0
0
0
0
0
0
0
0
0
0
0
0
0
0
0
0
0
0
0
0
0
0
0
0
0
0
0
0
0
0
0
0
0
0
0
0
0
0
0
0
0
0
0
0
0
0
0
0
0
0
0
0
0
0
0
0
0
0
0
0
0
0
0
0
0
0
0
0
0
0
0
0
0
0
0
0
0
0
0
0
0
0
0
0
0
0
0
0
0
0
0
0
0
0
0
0
0
0
0
0
0
0
0
0
0
0
0
0
0
0
0
0
0
0
0
0
0
0
0
0
0
0
0
0
0
0
0
0
0
0
0
0
0
0
0
0
0
0
0
0
0
0
0
0
0
0
0
0
0
0
0
0
0
0
0
0
0
0
0
0
0
0
0
0
0
0
0
0
0
0
0
0
0
0
0
0
0
0
0
0
0
0
0
0
0
0
0
0
0
0
0
0
0
0
0
0
0
0
0
0
0
0
0
0
0
0
0
0
0
0
0
0
0
0
0
0
0
0
0
0
0
0
0
0
0
0
0
0
0
0
0
0
0
0
0
0
0
0
0
0
0
0
0
0
0
0
0
0
0
0
0
0
0
0
0
0
0
0
0
0
0
0
0
0
0
0
0
0
0
0
0
0
0
0
0
0
0
0
0
0
0
0
0
0
0
0
0
0
0
0
0
0
0
0
0
0
0
0
0
0
0
0
0
0
0
0
0
0
0
0
0
0
0
0
0
0
0
0
0
0
0
0
0
0
0
0
0
0
0
0
0
0
0
0
0
0
0
0
0
0
0
0
0
0
0
0
0
0
0
0
0
0
0
0
0
0
0
0
0
0
0
0
0
0
0
0
0
0
0
0
0
0
0
0
0
0
0
0
0
0
0
0
0
0
0
0
0
0
0
0
0
0
0
0
0
0
0
0
0
0
0
0
0
0
0
0
0
0
0
0
0
0
0
0
0
0
0
0
0
0
0
0
0
0
0
0
0
0
0
0
0
0
0
0
0
0
0
0
0
0
0
0
0
0
0
0
0
0
0
0
0
0
0
0
0
0
0
0
0
0
0
0
0
0
0
0
0
0
0
0
0
0
0
0
0
0
0
0
0
0
0
0
0
0
0
0
0
0
0
0
0
0
0
0
0
0
0
0
0
0
0
0
0
0
0
0
0
0
0
0
0
0
0
0
0
0
0
0
0
0
0
0
0
0
0
0
0
0
0
0
0
0
0
0
0
0
0
0
0
0
0
0
0
0
0
0
0
0
0
0
0
0
0
0
0
0
0
0
0
0
0
0
0
0
0
0
0
0
0
0
0
0
0
0
0
0
0
0
0
0
0
0
0
0
0
0
0
0
0
0
0
0
0
0
0
0
0
0
0
0
0
0
0
0
0
0
0
0
0
0
0
0
0
0
0
0
0
0
0
0
0
0
0
0
0
0
0
0
0
0
0
0
0
0
0
0
0
0
0
0
0
0
0
0
0
0
0
0
0
0
0
0
0
0
0
0
0
0
0
0
0
0
0
0
0
0
0
0
0
0
0
0
0
0
0
0
0
0
0
0
0
0
0
0
0
0
0
0
0
0
0
0
0
0
0
0
0
0
0
0
0
0
0
0
0
0
0
0
0
0
0
0
0
0
0
0
0
0
0
0
0
0
0
0
0
0
0
0
0
0
0
0
0
0
0
0
0
0
0
0
0
0
0
0
0
0
0
0
0
0
0
0
0
0
0
0
0
0
0
0
0
0
0
0
0
0
0
0
0
0
0
0
0
0
0
0
0
0
0
0
0
0
0
0
0
0
0
0
0
0
0
0
0
0
0
0
0
0
0
0
0
0
0
0
0
0
0
0
0
0
0
0
0
0
0
0
0
0
0
0
0
0
0
0
0
0
0
0
0
0
0
0
0
0
0
0
0
0
0
0
0
0
0
0
0
0
0
0
0
0
0
0
0
0
0
0
0
0
0
0
0
0
0
0
0
0
0
0
0
0
0
0
0
0
0
0
0
0
0
0
0
0
0
0
0
0
0
0
0
0
0
0
0
0
0
0
0
0
0
0
0
0
0
0
0
0
0
0
0
0
0
0
0
0
0
0
0
0
0
0
0
0
0
0
0
0
0
0
0
0
0
0
0
0
0
0
0
0
0
0
0
0
0
0
0
0
0
0
0
0
0
0
0
0
0
0
0
0
0
0
0
0
0
0
0
0
0
0
0
0
0
0
0
0
0
0
0
0
0
0
0
0
0
0
0
0
0
0
0
0
0
0
0
0
0
0
0
0
0
0
0
0
0
0
0
0
0
0
0
0
0
0
0
0
0
0
0
0
0
0
0
0
0
0
0
0
0
0
0
0
0
0
0
0
0
0
0
0
0
0
0
0
0
0
0
0
0
0
0
0
0
0
0
0
0
0
0
0
0
0
0
0
0
0
0
0
0
0
0
0
0
0
0
0
0
0
0
0
0
0
0
0
0
0
0
0
0
0
0
0
0
0
0
0
0
0
0
0
0
0
0
0
0
0
0
0
0
0
0
0
0
0
0
0
0
0
0
0
0
0
0
0
0
0
0
0
0
0
0
0
0
0
0
0
0
0
0
0
0
0
0
0
0
0
0
0
0
0
0
0
0
0
0
0
0
0
0
0
0
0
0
0
0
0
0
0
0
0
0
0
0
0
0
0
0
0
0
0
0
0
0
0
0
0
0
0
0
0
0
0
0
0
0
0
0
0
0
0
0
0
0
0
0
0
0
0
0
0
0
0
0
0
0
0
0
0
0
0
0
0
0
0
0
0
0
0
0
0
0
0
0
0
0
0
0
0
0
0
0
0
0
0
0
0
0
0
0
0
0
0
0
0
0
0
0
0
0
0
0
0
0
0
0
0
0
0
0
0
0
0
0
0
0
0
0
0
0
0
0
0
0
0
0
0
0
0
0
0
0
0
0
0
0
0
0
0
0
0
0
0
0
0
0
0
0
0
0
0
0
0
0
0
1
1
1
1
1
1
1
1
1
1
1
1
1
1
1
1
1
1
1
1
1
1
1
1
1
1
1
1
1
1
2
2
2
2
2
2
2
2
2
2
2
2
2
2
2
2
2
2
2
2
2
2
2
2
2
2
2
2
2
2
3
3
3
3
3
3
3
3
3
3
3
3
3
3
3
3
3
3
3
3
3
3
3
3
3
3
3
3
3
3
4
4
4
4
4
4
4
4
4
4
4
4
4
4
4
4
4
4
4
4
4
4
4
4
4
4
4
4
4
4

LOOKUP_TABLE FreeFempp_table 5
1.00000000 0.00000000 0.00000000 1.00000000
1.00000000 1.00000000 0.00000000 1.00000000
1.00000000 0.00000000 1.00000000 1.00000000
0.00000000 1.00000000 0.00000000 1.00000000
0.00000000 1.00000000 1.00000000 1.00000000

POINT_DATA 961
FIELD FieldData 1
Density 1 961 float
5.88635216e-04 6.21424871e-04 6.34681899e-04 6.63603656e-04 7.08882813e-04 7.55929970e-04 8.03721021e-04 9.00951505e-04 1.24217628e-03 2.96586193e-03 2.08714474e-02 1.75834939e-01 5.67554712e-01 7.40954578e-01 6.77099645e-01 5.94611824e-01 6.29732490e-01 6.73795462e-01 6.82295799e-01 6.87913537e-01 6.96912348e-01 7.04505265e-01 7.08767414e-01 7.09016562e-01 7.07029641e-01 7.05244422e-01 7.04144359e-01 7.03655541e-01 7.03449607e-01 7.02764630e-01 7.00322449e-01 1.00031670e-03 9.65357467e-04 9.31726652e-04 9.32760187e-04 9.61688755e-04 1.00595225e-03 1.06549135e-03 1.18114310e-03 1.50687073e-03 2.72049941e-03 1.05467029e-02 1.04374610e-01 4.91712213e-01 7.12793171e-01 6.05627716e-01 4.43633109e-01 4.60193515e-01 5.35119891e-01 5.68735838e-01 5.91650844e-01 6.18856311e-01 6.44947886e-01 6.65151656e-01 6.75749719e-01 6.80305958e-01 6.83937967e-01 6.86973393e-01 6.89401805e-01 6.91241384e-01 6.92612946e-01 6.92373753e-01 4.76855878e-03 3.99990287e-03 3.54450755e-03 3.40877543e-03 3.44362063e-03 3.56996362e-03 3.75975342e-03 4.04491974e-03 4.54772776e-03 5.57518099e-03 8.74139275e-03 2.95612179e-02 2.40359843e-01 5.74716985e-01 4.07194883e-01 1.56593233e-01 1.05570190e-01 1.22511782e-01 1.61707371e-01 2.03173205e-01 2.55941898e-01 3.34886491e-01 4.29640621e-01 4.99976337e-01 5.47306001e-01 5.86039543e-01 6.13307476e-01 6.31350398e-01 6.43152952e-01 6.51839972e-01 6.57149613e-01 4.13668640e-02 3.42617184e-02 2.98541375e-02 2.88498122e-02 2.95861810e-02 3.12528200e-02 3.33810821e-02 3.56135182e-02 3.72183546e-02 3.57759297e-02 2.84257606e-02 2.33000163e-02 5.49237579e-02 3.09003115e-01 4.01558936e-01 1.15695648e-01 3.61073650e-02 2.21110489e-02 1.96134523e-02 2.07536146e-02 2.55851261e-02 4.10042144e-02 8.52639154e-02 1.53661966e-01 2.47813940e-01 3.70769411e-01 4.63268578e-01 5.21531224e-01 5.57178617e-01 5.80912590e-01 5.94758630e-01 1.43070415e-01 1.25773937e-01 1.10988088e-01 1.07307456e-01 1.09448910e-01 1.14626244e-01 1.21131413e-01 1.27322510e-01 1.30467445e-01 1.24874577e-01 1.02792457e-01 6.64985254e-02 3.65756154e-02 6.84444383e-02 2.92339683e-01 2.66566038e-01 7.14634880e-02 2.51736045e-02 1.35638006e-02 1.00039439e-02 8.98118038e-03 9.61851049e-03 1.21804690e-02 1.75447389e-02 3.48905511e-02 1.15725331e-01 2.55673349e-01 3.69465888e-01 4.43136901e-01 4.90145534e-01 5.14448464e-01 2.75141716e-01 2.50144750e-01 2.26761013e-01 2.18880296e-01 2.19288468e-01 2.23718882e-01 2.29699045e-01 2.35074490e-01 2.36725450e-01 2.29015112e-01 2.03962609e-01 1.56043604e-01 8.73017237e-02 4.05961014e-02 6.08989969e-02 1.88130155e-01 2.21593410e-01 1.29767910e-01 6.11570887e-02 3.83324325e-02 2.76804250e-02 1.97477378e-02 1.25026833e-02 8.82523693e-03 9.94112995e-03 2.14332566e-02 8.70908201e-02 2.08037704e-01 3.14606875e-01 3.89065564e-01 4.24549371e-01 4.09291983e-01 3.84475708e-01 3.60141158e-01 3.49565446e-01 3.46196771e-01 3.46380323e-01 3.48074764e-01 3.49551618e-01 3.48274529e-01 3.39683264e-01 3.16592336e-01 2.70119548e-01 1.93370700e-01 9.82783586e-02 3.81691828e-02 3.53982039e-02 6.06088787e-02 1.72433347e-01 2.35810012e-01 2.71782875e-01 2.58116871e-01 1.91723183e-01 8.85141939e-02 3.10754441e-02 1.74420383e-02 1.45028755e-02 2.29274128e-02 7.94631243e-02 1.83179677e-01 2.79758841e-01 3.26424062e-01 5.36331892e-01 5.18342257e-01 4.99468982e-01 4.89348292e-01 4.83651102e-01 4.80456978e-01 4.78790551e-01 4.77666944e-01 4.75331008e-01 4.68494207e-01 4.51701075e-01 4.16774064e-01 3.52496266e-01 2.50521302e-01 1.24498211e-01 4.51957323e-02 2.92856712e-02 3.33401896e-02 5.78573048e-02 1.62116230e-01 2.14304566e-01 2.00789765e-01 1.73337027e-01 1.62997514e-01 1.21749461e-01 5.77446409e-02 2.23432779e-02 2.27266755e-02 7.18520358e-02 1.66536570e-01 2.20903799e-01 6.44472122e-01 6.35929883e-01 6.25078678e-01 6.17882669e-01 6.12703264e-01 6.09114885e-01 6.06969118e-01 6.05863571e-01 6.04757428e-01 6.01653397e-01 5.93321562e-01 5.74858129e-01 5.38727522e-01 4.74313706e-01 3.71336251e-01 2.35688329e-01 1.24462634e-01 4.59635146e-02 2.64352188e-02 2.42846701e-02 2.53600478e-02 2.50069313e-02 2.87031848e-02 5.06350249e-02 1.55801997e-01 2.14995950e-01 7.83115700e-02 1.76503807e-02 2.12195925e-02 7.53692687e-02 1.23501189e-01 7.20654309e-01 7.19990492e-01 7.15931714e-01 7.12061048e-01 7.08922744e-01 7.06832588e-01 7.05921769e-01 7.05996633e-01 7.06441760e-01 7.06175208e-01 7.03640938e-01 6.96750045e-01 6.82590246e-01 6.56959713e-01 6.14237309e-01 5.47079623e-01 4.43879962e-01 2.70952702e-01 1.13239214e-01 3.11908722e-02 1.27910767e-02 8.82320572e-03 8.72631930e-03 1.33681810e-02 4.13568839e-02 1.97763339e-01 2.29421526e-01 3.01531088e-02 1.22121554e-02 3.00808568e-02 5.75931892e-02 7.59478986e-01 7.63634682e-01 7.63942540e-01 7.62621701e-01 7.61618197e-01 7.61448860e-01 7.62167990e-01 7.63506651e-01 7.64959216e-01 7.65863061e-01 7.65504122e-01 7.63229311e-01 7.58444846e-01 7.50439167e-01 7.38071859e-01 7.18981862e-01 6.85660839e-01 6.13484561e-01 4.64061171e-01 2.16286868e-01 5.23023605e-02 2.13913862e-02 1.34018501e-02 1.29589308e-02 2.15674229e-02 8.05423260e-02 3.00276905e-01 7.84367546e-02 1.13902697e-02 1.05080856e-02 2.08334941e-02 7.60639846e-01 7.67008841e-01 7.69844592e-01 7.70407856e-01 7.71552503e-01 7.73785412e-01 7.76895940e-01 7.80305803e-01 7.83285558e-01 7.85138547e-01 7.85414040e-01 7.84098804e-01 7.81638086e-01 7.78718710e-01 7.75853276e-01 7.72791505e-01 7.67455995e-01 7.53608108e-01 7.17388630e-01 6.26486182e-01 4.40813303e-01 2.40687445e-01 1.09040059e-01 5.78281246e-02 4.71390150e-02 8.91249701e-02 3.26362550e-01 2.40020528e-01 1.74877197e-02 6.53447397e-03 9.48971603e-03 7.20830679e-01 7.26450861e-01 7.29826868e-01 7.31774449e-01 7.35834181e-01 7.42472291e-01 7.50908256e-01 7.59661913e-01 7.67060161e-01 7.71769464e-01 7.73232996e-01 7.71844804e-01 7.68789589e-01 7.65621245e-01 7.63717353e-01 7.63779044e-01 7.65538633e-01 7.67628074e-01 7.67274380e-01 7.59877622e-01 7.42716789e-01 7.13702023e-01 6.40907407e-01 4.45891351e-01 2.81328529e-01 2.95131624e-01 5.09561837e-01 3.83545637e-01 2.41126288e-02 4.83344123e-03 5.16705355e-03 6.32023275e-01 6.31008387e-01 6.29710436e-01 6.31296873e-01 6.39910698e-01 6.56018496e-01 6.77401602e-01 6.99808061e-01 7.18671322e-01 7.30988085e-01 7.36042619e-01 7.35023499e-01 7.30218351e-01 7.24204540e-01 7.19183087e-01 7.16555774e-01 7.16867268e-01 7.20052004e-01 7.25688398e-01 7.33548284e-01 7.45727897e-01 7.64829218e-01 7.80020893e-01 7.55779982e-01 7.09511697e-01 7.09260106e-01 7.54170358e-01 4.84838367e-01 2.60023642e-02 3.56694311e-03 2.51613907e-03 4.93909627e-01 4.77587104e-01 4.61481869e-01 4.58134860e-01 4.72330660e-01 5.04867256e-01 5.51317036e-01 6.01256073e-01 6.43071532e-01 6.70258284e-01 6.82471395e-01 6.82943583e-01 6.76041126e-01 6.65895045e-01 6.55750871e-01 6.47748590e-01 6.43034995e-01 6.42044663e-01 6.44704282e-01 6.50778949e-01 6.61015093e-01 6.78042293e-01 7.03426182e-01 7.34932184e-01 7.84827292e-01 8.40415120e-01 8.37245703e-01 4.92787123e-01 2.41679419e-02 3.01134819e-03 1.81172672e-03 3.34894419e-01 3.01936120e-01 2.68363088e-01 2.58265227e-01 2.75177330e-01 3.21726888e-01 3.95899445e-01 4.82009798e-01 5.56085706e-01 6.03956401e-01 6.25768602e-01 6.28365993e-01 6.19319856e-01 6.04836702e-01 5.89399397e-01 5.75965524e-01 5.66345632e-01 5.61540544e-01 5.61922431e-01 5.67555308e-01 5.79260647e-01 6.00564182e-01 6.39214098e-01 7.05007970e-01 7.96246767e-01 8.64093006e-01 8.22720647e-01 3.77671003e-01 1.84954610e-02 2.71502160e-03 1.70043041e-03 2.00944856e-01 1.63333118e-01 1.27288342e-01 1.17067434e-01 1.31982833e-01 1.77825227e-01 2.63012528e-01 3.76665682e-01 4.81413394e-01 5.49327731e-01 5.79633296e-01 5.83549142e-01 5.72303832e-01 5.54205596e-01 5.34857035e-01 5.17938972e-01 5.05940497e-01 5.00660121e-01 5.03524780e-01 5.16104460e-01 5.41247308e-01 5.84401906e-01 6.52396321e-01 7.43852079e-01 8.31826210e-01 8.63515913e-01 7.19667435e-01 1.67544901e-01 1.09763127e-02 2.49142712e-03 1.90053636e-03 1.13013417e-01 8.20604712e-02 5.58530316e-02 5.00116013e-02 6.17346950e-02 9.95309651e-02 1.82256371e-01 3.10320824e-01 4.36359197e-01 5.17198205e-01 5.51389515e-01 5.54642737e-01 5.41280389e-01 5.21063685e-01 5.00231445e-01 4.82903928e-01 4.72164631e-01 4.70756769e-01 4.81550872e-01 5.08043468e-01 5.54745317e-01 6.25669658e-01 7.17095137e-01 8.06820750e-01 8.58756244e-01 8.20652187e-01 4.82338727e-01 5.31231351e-02 6.01533614e-03 2.45550391e-03 2.52059777e-03 6.26399815e-02 4.11269143e-02 2.54821796e-02 2.33414955e-02 3.29877958e-02 6.54361993e-02 1.47430316e-01 2.86889285e-01 4.24584597e-01 5.08070648e-01 5.40084422e-01 5.40698647e-01 5.25916457e-01 5.05825222e-01 4.86620545e-01 4.72538143e-01 4.67187941e-01 4.74347115e-01 4.98315275e-01 5.43587267e-01 6.12722039e-01 7.00679481e-01 7.88357377e-01 8.47277939e-01 8.45728397e-01 6.76893413e-01 1.89288944e-01 1.91194788e-02 3.97459930e-03 2.79557263e-03 3.90457059e-03 3.51988412e-02 2.13740896e-02 1.28770927e-02 1.28580984e-02 2.18362492e-02 5.43865860e-02 1.45617664e-01 3.00204456e-01 4.39456403e-01 5.14772654e-01 5.39425015e-01 5.36596894e-01 5.22049844e-01 5.04957855e-01 4.90835011e-01 4.83793408e-01 4.87924695e-01 5.07905245e-01 5.48595428e-01 6.12554014e-01 6.94524467e-01 7.76905060e-01 8.35669875e-01 8.48225355e-01 7.57698655e-01 3.88060421e-01 5.76076768e-02 8.83993786e-03 3.43268435e-03 3.73131246e-03 6.48011081e-03 2.04077382e-02 1.17964353e-02 7.40827480e-03 8.58720858e-03 1.83296539e-02 5.75315505e-02 1.71142384e-01 3.41084659e-01 4.68594909e-01 5.27016878e-01 5.41802168e-01 5.36454737e-01 5.24620593e-01 5.13565660e-01 5.07692397e-01 5.10832489e-01 5.27355015e-01 5.62097788e-01 6.18408740e-01 6.93175077e-01 7.71537125e-01 8.30834389e-01 8.50921094e-01 7.96848476e-01 5.42869210e-01 1.39879942e-01 2.15837322e-02 5.91532467e-03 3.96186206e-03 6.05817512e-03 1.16964970e-02 1.22762639e-02 7.02856900e-03 4.89591667e-03 6.96099829e-03 1.93534754e-02 7.44668394e-02 2.22292930e-01 3.95890057e-01 4.97954816e-01 5.35580754e-01 5.41274309e-01 5.35796344e-01 5.29376030e-01 5.26828110e-01 5.31253755e-01 5.46029091e-01 5.75280488e-01 6.22723758e-01 6.88131213e-01 7.62099743e-01 8.25597882e-01 8.58726978e-01 8.38265419e-01 6.83647096e-01 2.90038109e-01 5.45999631e-02 1.26821259e-02 6.14148844e-03 6.42438792e-03 1.25957849e-02 2.44862884e-02 7.52146402e-03 4.51958086e-03 3.70424753e-03 6.78011822e-03 2.50075869e-02 1.09554186e-01 2.92344987e-01 4.47456956e-01 5.16527355e-01 5.34914672e-01 5.34817636e-01 5.32225668e-01 5.33406436e-01 5.40659845e-01 5.55778980e-01 5.81450522e-01 6.20922267e-01 6.75855815e-01 7.42369831e-01 8.08014035e-01 8.55407476e-01 8.67980421e-01 8.11074018e-01 5.61077178e-01 1.69699669e-01 3.65062803e-02 1.35177569e-02 1.03874318e-02 1.50884781e-02 3.32286656e-02 5.92814758e-02 4.56318911e-03 3.09500890e-03 3.17887682e-03 7.82139413e-03 3.78880948e-02 1.66645378e-01 3.64674807e-01 4.81770009e-01 5.19080341e-01 5.23561537e-01 5.22069216e-01 5.25043786e-01 5.34976542e-01 5.51992953e-01 5.76689661e-01 6.10859632e-01 6.56526685e-01 7.13428736e-01 7.75789261e-01 8.31586242e-01 8.66887212e-01 8.66901278e-01 7.90645003e-01 5.16705036e-01 1.64325923e-01 4.84857671e-02 2.69168988e-02 2.87250858e-02 4.89152297e-02 9.91093516e-02 1.49572194e-01 2.79506505e-03 2.26863101e-03 3.08914692e-03 1.05093895e-02 6.31961524e-02 2.40376860e-01 4.19971734e-01 4.92886633e-01 5.05844235e-01 5.03237128e-01 5.04395783e-01 5.14514506e-01 5.33139288e-01 5.58837652e-01 5.91190279e-01 6.30991399e-01 6.79082096e-01 7.34110057e-01 7.90315628e-01 8.37780178e-01 8.65605235e-01 8.60864520e-01 7.89037049e-01 5.65134525e-01 2.55968213e-01 1.14635281e-01 8.62682760e-02 1.06456704e-01 1.67865992e-01 2.62609422e-01 3.24861646e-01 1.88319443e-03 1.84834376e-03 3.44146765e-03 1.62130613e-02 1.06236756e-01 3.12735707e-01 4.47470248e-01 4.82659668e-01 4.81172860e-01 4.77746427e-01 4.84055817e-01 5.01339316e-01 5.27474284e-01 5.60210764e-01 5.98318279e-01 6.41536534e-01 6.89658880e-01 7.40969300e-01 7.90827155e-01 8.31858873e-01 8.55737746e-01 8.52363348e-01 8.00296009e-01 6.58033788e-01 4.43097144e-01 2.99452364e-01 2.68368006e-01 3.11886698e-01 3.96233022e-01 4.82505471e-01 5.22303998e-01 1.48247543e-03 1.71435357e-03 4.37392434e-03 2.82264482e-02 1.65910602e-01 3.64424199e-01 4.48531985e-01 4.58963901e-01 4.52453971e-01 4.52175319e-01 4.63808477e-01 4.86596018e-01 5.18130004e-01 5.56073964e-01 5.98607123e-01 6.44350171e-01 6.91983819e-01 7.39558458e-01 7.83747673e-01 8.19707274e-01 8.41694951e-01 8.42890501e-01 8.12633634e-01 7.36720622e-01 6.23771727e-01 5.32666385e-01 5.06665707e-01 5.34185052e-01 5.84915042e-01 6.30991638e-01 6.48476839e-01 1.33887853e-03 1.74927688e-03 5.87928761e-03 5.08521833e-02 2.29181752e-01 3.89283448e-01 4.34900492e-01 4.34325188e-01 4.28930074e-01 4.32295501e-01 4.46967304e-01 4.72142875e-01 5.06248951e-01 5.47481239e-01 5.93716800e-01 6.42465949e-01 6.91053092e-01 7.36831903e-01 7.77180314e-01 8.09307337e-01 8.30078661e-01 8.35774839e-01 8.21707010e-01 7.83855438e-01 7.27611363e-01 6.75484359e-01 6.49398923e-01 6.50987089e-01 6.69156671e-01 6.90201581e-01 6.98512912e-01 1.33149023e-03 1.85364904e-03 7.50943273e-03 7.96182454e-02 2.77596712e-01 3.98811698e-01 4.25621867e-01 4.23341691e-01 4.19984818e-01 4.24105942e-01 4.37848687e-01 4.61583972e-01 4.95101035e-01 5.37494242e-01 5.86707532e-01 6.39387071e-01 6.91391051e-01 7.38757730e-01 7.78503239e-01 8.08760822e-01 8.28305364e-01 8.35862160e-01 8.29710960e-01 8.08495581e-01 7.74389982e-01 7.36217558e-01 7.05653489e-01 6.89390719e-01 6.87448561e-01 6.95351422e-01 7.01487303e-01 1.48220407e-03 2.02125870e-03 8.90283100e-03 1.07124873e-01 3.17480743e-01 4.18553561e-01 4.40166265e-01 4.38011348e-01 4.33663636e-01 4.34685498e-01 4.44089770e-01 4.63437617e-01 4.93569314e-01 5.34338236e-01 5.84002256e-01 6.38895333e-01 6.93928361e-01 7.43918300e-01 7.84980297e-01 8.15096378e-01 8.33674550e-01 8.40632617e-01 8.35706651e-01 8.18593502e-01 7.90328503e-01 7.55116284e-01 7.20186949e-01 6.92969561e-01 6.78320050e-01 6.77650571e-01 6.83585346e-01 1.76092784e-03 2.24552536e-03 9.11655929e-03 1.24656998e-01 3.55464965e-01 4.47705269e-01 4.66432184e-01 4.62949246e-01 4.56841886e-01 4.55440283e-01 4.61968452e-01 4.78220999e-01 5.05215764e-01 5.42951703e-01 5.89846313e-01 6.42412066e-01 6.95690095e-01 7.44488239e-01 7.84759521e-01 8.14266741e-01 8.32276821e-01 8.38743925e-01 8.33660960e-01 8.17116499e-01 7.90256977e-01 7.56530881e-01 7.21770227e-01 6.92592800e-01 6.74289823e-01 6.69173896e-01 6.72349989e-01 
