# vtk DataFile Version 2.0
results_case1_non_linear/8_density.vtk, Created by Freefem++ 
ASCII
DATASET UNSTRUCTURED_GRID
POINTS 961 float
0 0 0
0.033333333 0 0
0.066666667 0 0
0.1 0 0
0.13333333 0 0
0.16666667 0 0
0.2 0 0
0.23333333 0 0
0.26666667 0 0
0.3 0 0
0.33333333 0 0
0.36666667 0 0
0.4 0 0
0.43333333 0 0
0.46666667 0 0
0.5 0 0
0.53333333 0 0
0.56666667 0 0
0.6 0 0
0.63333333 0 0
0.66666667 0 0
0.7 0 0
0.73333333 0 0
0.76666667 0 0
0.8 0 0
0.83333333 0 0
0.86666667 0 0
0.9 0 0
0.93333333 0 0
0.96666667 0 0
1 0 0
0 0.033333333 0
0.033333333 0.033333333 0
0.066666667 0.033333333 0
0.1 0.033333333 0
0.13333333 0.033333333 0
0.16666667 0.033333333 0
0.2 0.033333333 0
0.23333333 0.033333333 0
0.26666667 0.033333333 0
0.3 0.033333333 0
0.33333333 0.033333333 0
0.36666667 0.033333333 0
0.4 0.033333333 0
0.43333333 0.033333333 0
0.46666667 0.033333333 0
0.5 0.033333333 0
0.53333333 0.033333333 0
0.56666667 0.033333333 0
0.6 0.033333333 0
0.63333333 0.033333333 0
0.66666667 0.033333333 0
0.7 0.033333333 0
0.73333333 0.033333333 0
0.76666667 0.033333333 0
0.8 0.033333333 0
0.83333333 0.033333333 0
0.86666667 0.033333333 0
0.9 0.033333333 0
0.93333333 0.033333333 0
0.96666667 0.033333333 0
1 0.033333333 0
0 0.066666667 0
0.033333333 0.066666667 0
0.066666667 0.066666667 0
0.1 0.066666667 0
0.13333333 0.066666667 0
0.16666667 0.066666667 0
0.2 0.066666667 0
0.23333333 0.066666667 0
0.26666667 0.066666667 0
0.3 0.066666667 0
0.33333333 0.066666667 0
0.36666667 0.066666667 0
0.4 0.066666667 0
0.43333333 0.066666667 0
0.46666667 0.066666667 0
0.5 0.066666667 0
0.53333333 0.066666667 0
0.56666667 0.066666667 0
0.6 0.066666667 0
0.63333333 0.066666667 0
0.66666667 0.066666667 0
0.7 0.066666667 0
0.73333333 0.066666667 0
0.76666667 0.066666667 0
0.8 0.066666667 0
0.83333333 0.066666667 0
0.86666667 0.066666667 0
0.9 0.066666667 0
0.93333333 0.066666667 0
0.96666667 0.066666667 0
1 0.066666667 0
0 0.1 0
0.033333333 0.1 0
0.066666667 0.1 0
0.1 0.1 0
0.13333333 0.1 0
0.16666667 0.1 0
0.2 0.1 0
0.23333333 0.1 0
0.26666667 0.1 0
0.3 0.1 0
0.33333333 0.1 0
0.36666667 0.1 0
0.4 0.1 0
0.43333333 0.1 0
0.46666667 0.1 0
0.5 0.1 0
0.53333333 0.1 0
0.56666667 0.1 0
0.6 0.1 0
0.63333333 0.1 0
0.66666667 0.1 0
0.7 0.1 0
0.73333333 0.1 0
0.76666667 0.1 0
0.8 0.1 0
0.83333333 0.1 0
0.86666667 0.1 0
0.9 0.1 0
0.93333333 0.1 0
0.96666667 0.1 0
1 0.1 0
0 0.13333333 0
0.033333333 0.13333333 0
0.066666667 0.13333333 0
0.1 0.13333333 0
0.13333333 0.13333333 0
0.16666667 0.13333333 0
0.2 0.13333333 0
0.23333333 0.13333333 0
0.26666667 0.13333333 0
0.3 0.13333333 0
0.33333333 0.13333333 0
0.36666667 0.13333333 0
0.4 0.13333333 0
0.43333333 0.13333333 0
0.46666667 0.13333333 0
0.5 0.13333333 0
0.53333333 0.13333333 0
0.56666667 0.13333333 0
0.6 0.13333333 0
0.63333333 0.13333333 0
0.66666667 0.13333333 0
0.7 0.13333333 0
0.73333333 0.13333333 0
0.76666667 0.13333333 0
0.8 0.13333333 0
0.83333333 0.13333333 0
0.86666667 0.13333333 0
0.9 0.13333333 0
0.93333333 0.13333333 0
0.96666667 0.13333333 0
1 0.13333333 0
0 0.16666667 0
0.033333333 0.16666667 0
0.066666667 0.16666667 0
0.1 0.16666667 0
0.13333333 0.16666667 0
0.16666667 0.16666667 0
0.2 0.16666667 0
0.23333333 0.16666667 0
0.26666667 0.16666667 0
0.3 0.16666667 0
0.33333333 0.16666667 0
0.36666667 0.16666667 0
0.4 0.16666667 0
0.43333333 0.16666667 0
0.46666667 0.16666667 0
0.5 0.16666667 0
0.53333333 0.16666667 0
0.56666667 0.16666667 0
0.6 0.16666667 0
0.63333333 0.16666667 0
0.66666667 0.16666667 0
0.7 0.16666667 0
0.73333333 0.16666667 0
0.76666667 0.16666667 0
0.8 0.16666667 0
0.83333333 0.16666667 0
0.86666667 0.16666667 0
0.9 0.16666667 0
0.93333333 0.16666667 0
0.96666667 0.16666667 0
1 0.16666667 0
0 0.2 0
0.033333333 0.2 0
0.066666667 0.2 0
0.1 0.2 0
0.13333333 0.2 0
0.16666667 0.2 0
0.2 0.2 0
0.23333333 0.2 0
0.26666667 0.2 0
0.3 0.2 0
0.33333333 0.2 0
0.36666667 0.2 0
0.4 0.2 0
0.43333333 0.2 0
0.46666667 0.2 0
0.5 0.2 0
0.53333333 0.2 0
0.56666667 0.2 0
0.6 0.2 0
0.63333333 0.2 0
0.66666667 0.2 0
0.7 0.2 0
0.73333333 0.2 0
0.76666667 0.2 0
0.8 0.2 0
0.83333333 0.2 0
0.86666667 0.2 0
0.9 0.2 0
0.93333333 0.2 0
0.96666667 0.2 0
1 0.2 0
0 0.23333333 0
0.033333333 0.23333333 0
0.066666667 0.23333333 0
0.1 0.23333333 0
0.13333333 0.23333333 0
0.16666667 0.23333333 0
0.2 0.23333333 0
0.23333333 0.23333333 0
0.26666667 0.23333333 0
0.3 0.23333333 0
0.33333333 0.23333333 0
0.36666667 0.23333333 0
0.4 0.23333333 0
0.43333333 0.23333333 0
0.46666667 0.23333333 0
0.5 0.23333333 0
0.53333333 0.23333333 0
0.56666667 0.23333333 0
0.6 0.23333333 0
0.63333333 0.23333333 0
0.66666667 0.23333333 0
0.7 0.23333333 0
0.73333333 0.23333333 0
0.76666667 0.23333333 0
0.8 0.23333333 0
0.83333333 0.23333333 0
0.86666667 0.23333333 0
0.9 0.23333333 0
0.93333333 0.23333333 0
0.96666667 0.23333333 0
1 0.23333333 0
0 0.26666667 0
0.033333333 0.26666667 0
0.066666667 0.26666667 0
0.1 0.26666667 0
0.13333333 0.26666667 0
0.16666667 0.26666667 0
0.2 0.26666667 0
0.23333333 0.26666667 0
0.26666667 0.26666667 0
0.3 0.26666667 0
0.33333333 0.26666667 0
0.36666667 0.26666667 0
0.4 0.26666667 0
0.43333333 0.26666667 0
0.46666667 0.26666667 0
0.5 0.26666667 0
0.53333333 0.26666667 0
0.56666667 0.26666667 0
0.6 0.26666667 0
0.63333333 0.26666667 0
0.66666667 0.26666667 0
0.7 0.26666667 0
0.73333333 0.26666667 0
0.76666667 0.26666667 0
0.8 0.26666667 0
0.83333333 0.26666667 0
0.86666667 0.26666667 0
0.9 0.26666667 0
0.93333333 0.26666667 0
0.96666667 0.26666667 0
1 0.26666667 0
0 0.3 0
0.033333333 0.3 0
0.066666667 0.3 0
0.1 0.3 0
0.13333333 0.3 0
0.16666667 0.3 0
0.2 0.3 0
0.23333333 0.3 0
0.26666667 0.3 0
0.3 0.3 0
0.33333333 0.3 0
0.36666667 0.3 0
0.4 0.3 0
0.43333333 0.3 0
0.46666667 0.3 0
0.5 0.3 0
0.53333333 0.3 0
0.56666667 0.3 0
0.6 0.3 0
0.63333333 0.3 0
0.66666667 0.3 0
0.7 0.3 0
0.73333333 0.3 0
0.76666667 0.3 0
0.8 0.3 0
0.83333333 0.3 0
0.86666667 0.3 0
0.9 0.3 0
0.93333333 0.3 0
0.96666667 0.3 0
1 0.3 0
0 0.33333333 0
0.033333333 0.33333333 0
0.066666667 0.33333333 0
0.1 0.33333333 0
0.13333333 0.33333333 0
0.16666667 0.33333333 0
0.2 0.33333333 0
0.23333333 0.33333333 0
0.26666667 0.33333333 0
0.3 0.33333333 0
0.33333333 0.33333333 0
0.36666667 0.33333333 0
0.4 0.33333333 0
0.43333333 0.33333333 0
0.46666667 0.33333333 0
0.5 0.33333333 0
0.53333333 0.33333333 0
0.56666667 0.33333333 0
0.6 0.33333333 0
0.63333333 0.33333333 0
0.66666667 0.33333333 0
0.7 0.33333333 0
0.73333333 0.33333333 0
0.76666667 0.33333333 0
0.8 0.33333333 0
0.83333333 0.33333333 0
0.86666667 0.33333333 0
0.9 0.33333333 0
0.93333333 0.33333333 0
0.96666667 0.33333333 0
1 0.33333333 0
0 0.36666667 0
0.033333333 0.36666667 0
0.066666667 0.36666667 0
0.1 0.36666667 0
0.13333333 0.36666667 0
0.16666667 0.36666667 0
0.2 0.36666667 0
0.23333333 0.36666667 0
0.26666667 0.36666667 0
0.3 0.36666667 0
0.33333333 0.36666667 0
0.36666667 0.36666667 0
0.4 0.36666667 0
0.43333333 0.36666667 0
0.46666667 0.36666667 0
0.5 0.36666667 0
0.53333333 0.36666667 0
0.56666667 0.36666667 0
0.6 0.36666667 0
0.63333333 0.36666667 0
0.66666667 0.36666667 0
0.7 0.36666667 0
0.73333333 0.36666667 0
0.76666667 0.36666667 0
0.8 0.36666667 0
0.83333333 0.36666667 0
0.86666667 0.36666667 0
0.9 0.36666667 0
0.93333333 0.36666667 0
0.96666667 0.36666667 0
1 0.36666667 0
0 0.4 0
0.033333333 0.4 0
0.066666667 0.4 0
0.1 0.4 0
0.13333333 0.4 0
0.16666667 0.4 0
0.2 0.4 0
0.23333333 0.4 0
0.26666667 0.4 0
0.3 0.4 0
0.33333333 0.4 0
0.36666667 0.4 0
0.4 0.4 0
0.43333333 0.4 0
0.46666667 0.4 0
0.5 0.4 0
0.53333333 0.4 0
0.56666667 0.4 0
0.6 0.4 0
0.63333333 0.4 0
0.66666667 0.4 0
0.7 0.4 0
0.73333333 0.4 0
0.76666667 0.4 0
0.8 0.4 0
0.83333333 0.4 0
0.86666667 0.4 0
0.9 0.4 0
0.93333333 0.4 0
0.96666667 0.4 0
1 0.4 0
0 0.43333333 0
0.033333333 0.43333333 0
0.066666667 0.43333333 0
0.1 0.43333333 0
0.13333333 0.43333333 0
0.16666667 0.43333333 0
0.2 0.43333333 0
0.23333333 0.43333333 0
0.26666667 0.43333333 0
0.3 0.43333333 0
0.33333333 0.43333333 0
0.36666667 0.43333333 0
0.4 0.43333333 0
0.43333333 0.43333333 0
0.46666667 0.43333333 0
0.5 0.43333333 0
0.53333333 0.43333333 0
0.56666667 0.43333333 0
0.6 0.43333333 0
0.63333333 0.43333333 0
0.66666667 0.43333333 0
0.7 0.43333333 0
0.73333333 0.43333333 0
0.76666667 0.43333333 0
0.8 0.43333333 0
0.83333333 0.43333333 0
0.86666667 0.43333333 0
0.9 0.43333333 0
0.93333333 0.43333333 0
0.96666667 0.43333333 0
1 0.43333333 0
0 0.46666667 0
0.033333333 0.46666667 0
0.066666667 0.46666667 0
0.1 0.46666667 0
0.13333333 0.46666667 0
0.16666667 0.46666667 0
0.2 0.46666667 0
0.23333333 0.46666667 0
0.26666667 0.46666667 0
0.3 0.46666667 0
0.33333333 0.46666667 0
0.36666667 0.46666667 0
0.4 0.46666667 0
0.43333333 0.46666667 0
0.46666667 0.46666667 0
0.5 0.46666667 0
0.53333333 0.46666667 0
0.56666667 0.46666667 0
0.6 0.46666667 0
0.63333333 0.46666667 0
0.66666667 0.46666667 0
0.7 0.46666667 0
0.73333333 0.46666667 0
0.76666667 0.46666667 0
0.8 0.46666667 0
0.83333333 0.46666667 0
0.86666667 0.46666667 0
0.9 0.46666667 0
0.93333333 0.46666667 0
0.96666667 0.46666667 0
1 0.46666667 0
0 0.5 0
0.033333333 0.5 0
0.066666667 0.5 0
0.1 0.5 0
0.13333333 0.5 0
0.16666667 0.5 0
0.2 0.5 0
0.23333333 0.5 0
0.26666667 0.5 0
0.3 0.5 0
0.33333333 0.5 0
0.36666667 0.5 0
0.4 0.5 0
0.43333333 0.5 0
0.46666667 0.5 0
0.5 0.5 0
0.53333333 0.5 0
0.56666667 0.5 0
0.6 0.5 0
0.63333333 0.5 0
0.66666667 0.5 0
0.7 0.5 0
0.73333333 0.5 0
0.76666667 0.5 0
0.8 0.5 0
0.83333333 0.5 0
0.86666667 0.5 0
0.9 0.5 0
0.93333333 0.5 0
0.96666667 0.5 0
1 0.5 0
0 0.53333333 0
0.033333333 0.53333333 0
0.066666667 0.53333333 0
0.1 0.53333333 0
0.13333333 0.53333333 0
0.16666667 0.53333333 0
0.2 0.53333333 0
0.23333333 0.53333333 0
0.26666667 0.53333333 0
0.3 0.53333333 0
0.33333333 0.53333333 0
0.36666667 0.53333333 0
0.4 0.53333333 0
0.43333333 0.53333333 0
0.46666667 0.53333333 0
0.5 0.53333333 0
0.53333333 0.53333333 0
0.56666667 0.53333333 0
0.6 0.53333333 0
0.63333333 0.53333333 0
0.66666667 0.53333333 0
0.7 0.53333333 0
0.73333333 0.53333333 0
0.76666667 0.53333333 0
[...]
CELL_DATA 1920
Scalars  Label int 1
LOOKUP_TABLE FreeFempp_table
0
0
0
0
0
0
0
0
0
0
0
0
0
0
0
0
0
0
0
0
0
0
0
0
0
0
0
0
0
0
0
0
0
0
0
0
0
0
0
0
0
0
0
0
0
0
0
0
0
0
0
0
0
0
0
0
0
0
0
0
0
0
0
0
0
0
0
0
0
0
0
0
0
0
0
0
0
0
0
0
0
0
0
0
0
0
0
0
0
0
0
0
0
0
0
0
0
0
0
0
0
0
0
0
0
0
0
0
0
0
0
0
0
0
0
0
0
0
0
0
0
0
0
0
0
0
0
0
0
0
0
0
0
0
0
0
0
0
0
0
0
0
0
0
0
0
0
0
0
0
0
0
0
0
0
0
0
0
0
0
0
0
0
0
0
0
0
0
0
0
0
0
0
0
0
0
0
0
0
0
0
0
0
0
0
0
0
0
0
0
0
0
0
0
0
0
0
0
0
0
0
0
0
0
0
0
0
0
0
0
0
0
0
0
0
0
0
0
0
0
0
0
0
0
0
0
0
0
0
0
0
0
0
0
0
0
0
0
0
0
0
0
0
0
0
0
0
0
0
0
0
0
0
0
0
0
0
0
0
0
0
0
0
0
0
0
0
0
0
0
0
0
0
0
0
0
0
0
0
0
0
0
0
0
0
0
0
0
0
0
0
0
0
0
0
0
0
0
0
0
0
0
0
0
0
0
0
0
0
0
0
0
0
0
0
0
0
0
0
0
0
0
0
0
0
0
0
0
0
0
0
0
0
0
0
0
0
0
0
0
0
0
0
0
0
0
0
0
0
0
0
0
0
0
0
0
0
0
0
0
0
0
0
0
0
0
0
0
0
0
0
0
0
0
0
0
0
0
0
0
0
0
0
0
0
0
0
0
0
0
0
0
0
0
0
0
0
0
0
0
0
0
0
0
0
0
0
0
0
0
0
0
0
0
0
0
0
0
0
0
0
0
0
0
0
0
0
0
0
0
0
0
0
0
0
0
0
0
0
0
0
0
0
0
0
0
0
0
0
0
0
0
0
0
0
0
0
0
0
0
0
0
0
0
0
0
0
0
0
0
0
0
0
0
0
0
0
0
0
0
0
0
0
0
0
0
0
0
0
0
0
0
0
0
0
0
0
0
0
0
0
0
0
0
0
0
0
0
0
0
0
0
0
0
0
0
0
0
0
0
0
0
0
0
0
0
0
0
0
0
0
0
0
0
0
0
0
0
0
0
0
0
0
0
0
0
0
0
0
0
0
0
0
0
0
0
0
0
0
0
0
0
0
0
0
0
0
0
0
0
0
0
0
0
0
0
0
0
0
0
0
0
0
0
0
0
0
0
0
0
0
0
0
0
0
0
0
0
0
0
0
0
0
0
0
0
0
0
0
0
0
0
0
0
0
0
0
0
0
0
0
0
0
0
0
0
0
0
0
0
0
0
0
0
0
0
0
0
0
0
0
0
0
0
0
0
0
0
0
0
0
0
0
0
0
0
0
0
0
0
0
0
0
0
0
0
0
0
0
0
0
0
0
0
0
0
0
0
0
0
0
0
0
0
0
0
0
0
0
0
0
0
0
0
0
0
0
0
0
0
0
0
0
0
0
0
0
0
0
0
0
0
0
0
0
0
0
0
0
0
0
0
0
0
0
0
0
0
0
0
0
0
0
0
0
0
0
0
0
0
0
0
0
0
0
0
0
0
0
0
0
0
0
0
0
0
0
0
0
0
0
0
0
0
0
0
0
0
0
0
0
0
0
0
0
0
0
0
0
0
0
0
0
0
0
0
0
0
0
0
0
0
0
0
0
0
0
0
0
0
0
0
0
0
0
0
0
0
0
0
0
0
0
0
0
0
0
0
0
0
0
0
0
0
0
0
0
0
0
0
0
0
0
0
0
0
0
0
0
0
0
0
0
0
0
0
0
0
0
0
0
0
0
0
0
0
0
0
0
0
0
0
0
0
0
0
0
0
0
0
0
0
0
0
0
0
0
0
0
0
0
0
0
0
0
0
0
0
0
0
0
0
0
0
0
0
0
0
0
0
0
0
0
0
0
0
0
0
0
0
0
0
0
0
0
0
0
0
0
0
0
0
0
0
0
0
0
0
0
0
0
0
0
0
0
0
0
0
0
0
0
0
0
0
0
0
0
0
0
0
0
0
0
0
0
0
0
0
0
0
0
0
0
0
0
0
0
0
0
0
0
0
0
0
0
0
0
0
0
0
0
0
0
0
0
0
0
0
0
0
0
0
0
0
0
0
0
0
0
0
0
0
0
0
0
0
0
0
0
0
0
0
0
0
0
0
0
0
0
0
0
0
0
0
0
0
0
0
0
0
0
0
0
0
0
0
0
0
0
0
0
0
0
0
0
0
0
0
0
0
0
0
0
0
0
0
0
0
0
0
0
0
0
0
0
0
0
0
0
0
0
0
0
0
0
0
0
0
0
0
0
0
0
0
0
0
0
0
0
0
0
0
0
0
0
0
0
0
0
0
0
0
0
0
0
0
0
0
0
0
0
0
0
0
0
0
0
0
0
0
0
0
0
0
0
0
0
0
0
0
0
0
0
0
0
0
0
0
0
0
0
0
0
0
0
0
0
0
0
0
0
0
0
0
0
0
0
0
0
0
0
0
0
0
0
0
0
0
0
0
0
0
0
0
0
0
0
0
0
0
0
0
0
0
0
0
0
0
0
0
0
0
0
0
0
0
0
0
0
0
0
0
0
0
0
0
0
0
0
0
0
0
0
0
0
0
0
0
0
0
0
0
0
0
0
0
0
0
0
0
0
0
0
0
0
0
0
0
0
0
0
0
0
0
0
0
0
0
0
0
0
0
0
0
0
0
0
0
0
0
0
0
0
0
0
0
0
0
0
0
0
0
0
0
0
0
0
0
0
0
0
0
0
0
0
0
0
0
0
0
0
0
0
0
0
0
0
0
0
0
0
0
0
0
0
0
0
0
0
0
0
0
0
0
0
0
0
0
0
0
0
0
0
0
0
0
0
0
0
0
0
0
0
0
0
0
0
0
0
0
0
0
0
0
0
0
0
0
0
0
0
0
0
0
0
0
0
0
0
0
0
0
0
0
0
0
0
0
0
0
0
0
0
0
0
0
0
0
0
0
0
0
0
0
0
0
0
0
0
0
0
0
0
0
0
0
0
0
0
0
0
0
0
0
0
0
0
0
0
0
0
0
0
0
0
0
0
0
0
0
0
0
0
0
0
0
0
0
0
0
0
0
0
0
0
0
0
0
0
0
0
0
0
0
0
0
0
0
0
0
0
0
0
0
0
0
0
0
0
0
0
0
0
0
0
0
0
0
0
0
0
0
0
0
0
0
0
0
0
0
0
0
0
0
0
0
0
0
0
0
0
0
0
0
0
0
0
0
0
0
0
0
0
0
0
0
0
0
0
0
0
0
0
0
0
0
0
0
0
0
0
0
0
0
0
0
0
0
0
0
0
0
0
0
0
0
0
0
0
0
0
0
0
0
0
0
0
0
0
0
0
0
0
0
0
0
0
0
0
0
0
0
0
0
0
0
0
0
0
0
0
0
0
0
0
0
0
0
0
0
0
0
0
0
0
0
0
0
0
0
0
0
0
0
0
0
0
0
0
0
0
0
0
0
0
0
0
0
0
0
0
0
0
0
0
0
0
0
0
0
0
0
0
0
0
0
0
0
0
0
0
0
0
0
0
0
0
0
0
0
0
0
0
0
0
0
0
0
0
0
0
0
0
0
0
0
0
0
0
0
0
0
0
0
0
0
0
0
0
0
0
0
0
0
0
0
0
0
0
0
0
0
0
0
0
0
0
0
0
0
0
0
0
0
0
0
0
0
0
0
0
0
0
0
0
0
0
0
0
0
0
0
0
0
0
0
0
0
0
0
0
0
0
0
0
0
0
0
0
0
0
0
0
0
0
0
0
0
0
0
0
0
0
0
0
0
0
0
0
0
0
0
0
0
0
0
0
0
0
0
0
0
0
0
0
0
0
0
0
0
0
0
0
0
0
0
0
0
0
0
0
0
0
0
0
0
0
0
0
0
0
0
0
0
0
0
0
0
0
0
1
1
1
1
1
1
1
1
1
1
1
1
1
1
1
1
1
1
1
1
1
1
1
1
1
1
1
1
1
1
2
2
2
2
2
2
2
2
2
2
2
2
2
2
2
2
2
2
2
2
2
2
2
2
2
2
2
2
2
2
3
3
3
3
3
3
3
3
3
3
3
3
3
3
3
3
3
3
3
3
3
3
3
3
3
3
3
3
3
3
4
4
4
4
4
4
4
4
4
4
4
4
4
4
4
4
4
4
4
4
4
4
4
4
4
4
4
4
4
4

LOOKUP_TABLE FreeFempp_table 5
1.00000000 0.00000000 0.00000000 1.00000000
1.00000000 1.00000000 0.00000000 1.00000000
1.00000000 0.00000000 1.00000000 1.00000000
0.00000000 1.00000000 0.00000000 1.00000000
0.00000000 1.00000000 1.00000000 1.00000000

POINT_DATA 961
FIELD FieldData 1
Density 1 961 float
6.81747566e-04 8.37864063e-04 1.24151900e-03 1.58638833e-03 1.56378199e-03 1.17017480e-03 6.57842727e-04 3.74228228e-04 3.81398859e-04 9.46163142e-04 7.78075634e-03 8.68827999e-02 4.83311445e-01 8.23494196e-01 8.65069091e-01 7.78075695e-01 7.33133674e-01 7.75304139e-01 7.86874115e-01 7.75090039e-01 7.62384534e-01 7.54059970e-01 7.50209093e-01 7.45328248e-01 7.39896774e-01 7.35377312e-01 7.32463956e-01 7.31017292e-01 7.30536222e-01 7.31168568e-01 7.30780900e-01 5.83637215e-04 6.45968306e-04 7.54796492e-04 8.32264544e-04 7.95289350e-04 6.54878037e-04 4.74800501e-04 3.50922055e-04 3.58363730e-04 6.90601359e-04 3.81089468e-03 4.52924743e-02 3.84470195e-01 8.04870367e-01 8.58216107e-01 7.01500475e-01 5.79877794e-01 6.51539266e-01 6.88806772e-01 6.87660336e-01 6.87923610e-01 6.95096135e-01 7.06970811e-01 7.11583495e-01 7.12152779e-01 7.11722851e-01 7.11751044e-01 7.12478161e-01 7.13791370e-01 7.16458738e-01 7.19407022e-01 1.82503124e-03 1.65971601e-03 1.55122404e-03 1.40238460e-03 1.18657318e-03 9.34969401e-04 6.98349846e-04 5.38334367e-04 5.00200898e-04 6.58674398e-04 1.51546556e-03 8.16000067e-03 1.41076341e-01 6.80296242e-01 8.03890646e-01 4.51590389e-01 1.57210976e-01 1.62524804e-01 1.93735167e-01 2.28275180e-01 2.86832243e-01 3.81887525e-01 4.86548841e-01 5.49822271e-01 5.92710197e-01 6.20582581e-01 6.39212430e-01 6.52120531e-01 6.61772609e-01 6.71492338e-01 6.79711878e-01 2.41730567e-02 1.99148562e-02 1.61140207e-02 1.26225036e-02 9.42262448e-03 6.66542910e-03 4.44356352e-03 2.92941323e-03 2.16339412e-03 1.99106359e-03 2.23453180e-03 3.71889770e-03 2.05004960e-02 3.25442612e-01 7.34691381e-01 4.30189580e-01 5.22248112e-02 1.69701166e-02 1.23582650e-02 1.25652598e-02 1.83545891e-02 4.03520986e-02 1.04477219e-01 1.93139732e-01 3.16674978e-01 4.22495663e-01 4.95029330e-01 5.41341960e-01 5.71784139e-01 5.96094310e-01 6.13050878e-01 1.09971352e-01 9.64838341e-02 8.07317495e-02 6.82051480e-02 5.74232824e-02 4.79379185e-02 3.93999740e-02 3.21534202e-02 2.68971082e-02 2.30881721e-02 1.75515730e-02 9.99330916e-03 1.09723285e-02 4.30662259e-02 4.15302724e-01 5.55813730e-01 8.73111784e-02 1.20368386e-02 4.93397331e-03 3.55693069e-03 3.74901341e-03 5.06852847e-03 7.95178022e-03 1.49888322e-02 5.46014309e-02 1.55831605e-01 2.84662992e-01 3.84356827e-01 4.50667113e-01 4.97967273e-01 5.26236117e-01 2.33406112e-01 2.10227087e-01 1.85457423e-01 1.69102997e-01 1.56682268e-01 1.46600574e-01 1.37862027e-01 1.29989117e-01 1.22653708e-01 1.13361575e-01 9.54412073e-02 6.48803562e-02 3.97326536e-02 2.18562782e-02 5.10273129e-02 2.90601730e-01 2.52329558e-01 5.25969453e-02 1.79608855e-02 1.14159426e-02 1.06828008e-02 9.51257069e-03 6.54909806e-03 4.80747782e-03 7.69085763e-03 2.73257364e-02 1.01089522e-01 2.18662143e-01 3.20433915e-01 3.94877166e-01 4.34457153e-01 3.56983364e-01 3.30416501e-01 3.04402828e-01 2.89893627e-01 2.80469716e-01 2.73792207e-01 2.68772870e-01 2.64474750e-01 2.59378165e-01 2.49865144e-01 2.29026362e-01 1.90193132e-01 1.35668486e-01 6.51490390e-02 2.25596465e-02 2.48534754e-02 5.36778979e-02 1.25028655e-01 1.35203272e-01 1.48859009e-01 1.85339928e-01 1.60357431e-01 6.91511333e-02 1.69441309e-02 7.78381061e-03 8.01729783e-03 2.44981889e-02 9.32614654e-02 2.02598169e-01 3.00518513e-01 3.50354314e-01 4.71362859e-01 4.47476774e-01 4.25525367e-01 4.15070295e-01 4.09723043e-01 4.07041669e-01 4.05980200e-01 4.05606955e-01 4.04301941e-01 3.98886412e-01 3.83822083e-01 3.51401418e-01 2.92364687e-01 1.94668144e-01 7.78986365e-02 1.78116411e-02 9.53930523e-03 1.30931539e-02 2.89729536e-02 1.43526062e-01 2.38927960e-01 2.25386530e-01 1.48226649e-01 8.64630789e-02 4.89085279e-02 1.60643514e-02 1.06609985e-02 3.06173302e-02 1.06350482e-01 2.13638514e-01 2.73428291e-01 5.72393715e-01 5.54780304e-01 5.39430499e-01 5.33429861e-01 5.31907260e-01 5.33021629e-01 5.35898149e-01 5.39720058e-01 5.43176472e-01 5.44047534e-01 5.38782835e-01 5.21885633e-01 4.84172046e-01 4.08732235e-01 2.76039451e-01 1.07163377e-01 2.26262845e-02 9.85428877e-03 6.99581020e-03 1.09090218e-02 1.48568973e-02 1.38288662e-02 1.24095371e-02 1.43192774e-02 3.38024721e-02 1.07690707e-01 2.46921610e-02 1.20030446e-02 4.07699756e-02 1.25242501e-01 1.91825867e-01 6.52952850e-01 6.42281115e-01 6.33436739e-01 6.31199658e-01 6.32637203e-01 6.36662245e-01 6.42579854e-01 6.49621308e-01 6.56719804e-01 6.62446260e-01 6.64961815e-01 6.61752284e-01 6.48711622e-01 6.17982268e-01 5.54696441e-01 4.34018970e-01 2.47560486e-01 1.01639763e-01 2.60165744e-02 1.27833569e-02 7.21390592e-03 4.36953083e-03 3.66503163e-03 4.56009433e-03 1.24570522e-02 1.03088260e-01 1.58546284e-01 1.32166976e-02 1.09159751e-02 4.99112643e-02 9.92220640e-02 7.06637800e-01 7.01452136e-01 6.97314262e-01 6.97520971e-01 7.00751007e-01 7.06409752e-01 7.13856161e-01 7.22254694e-01 7.30597556e-01 7.37851381e-01 7.43103266e-01 7.45557129e-01 7.44271278e-01 7.37620115e-01 7.22474694e-01 6.92725122e-01 6.36929989e-01 5.39836586e-01 3.59290928e-01 1.92540795e-01 7.12286234e-02 2.25880109e-02 1.27615528e-02 1.06953010e-02 1.50646344e-02 6.94567114e-02 2.61343241e-01 2.08541583e-02 5.25810616e-03 1.43255591e-02 3.28648724e-02 7.29846716e-01 7.27924407e-01 7.26434827e-01 7.27984965e-01 7.32332349e-01 7.39028335e-01 7.47296214e-01 7.56085575e-01 7.64261305e-01 7.70875216e-01 7.75391042e-01 7.77756631e-01 7.78312087e-01 7.77595997e-01 7.76050150e-01 7.73475826e-01 7.68197060e-01 7.55935371e-01 7.25051880e-01 6.68947160e-01 5.52010536e-01 3.77945662e-01 2.42278799e-01 1.64323047e-01 1.09761536e-01 1.81668133e-01 4.36196119e-01 5.16790561e-02 4.01597517e-03 2.84641469e-03 5.52509772e-03 7.19201922e-01 7.18204796e-01 7.17686415e-01 7.20181584e-01 7.26068199e-01 7.34681547e-01 7.44778991e-01 7.54788041e-01 7.63161778e-01 7.68775582e-01 7.71198392e-01 7.70757139e-01 7.68442094e-01 7.65716791e-01 7.64181674e-01 7.64967322e-01 7.67946541e-01 7.71300495e-01 7.71793544e-01 7.66712546e-01 7.47886062e-01 7.09033549e-01 6.50901735e-01 5.91413915e-01 5.43744087e-01 5.98126471e-01 7.32899249e-01 3.06115597e-01 6.90439995e-03 1.23339437e-03 1.02040591e-03 6.67792976e-01 6.64710343e-01 6.63397014e-01 6.67248905e-01 6.76782668e-01 6.90547764e-01 7.06102490e-01 7.20640361e-01 7.31665790e-01 7.37597048e-01 7.38042533e-01 7.33735919e-01 7.26313233e-01 7.18025029e-01 7.11293280e-01 7.08015561e-01 7.08797634e-01 7.12683618e-01 7.17811584e-01 7.22440541e-01 7.24204302e-01 7.22200692e-01 7.18614697e-01 7.25076914e-01 7.59480536e-01 8.25288117e-01 8.49725008e-01 4.41307634e-01 9.86660738e-03 9.83114936e-04 5.96064143e-04 5.66638172e-01 5.56756556e-01 5.51592290e-01 5.57842195e-01 5.75395346e-01 6.00998104e-01 6.29520357e-01 6.55428886e-01 6.74297392e-01 6.83830142e-01 6.83945358e-01 6.76247060e-01 6.63443744e-01 6.48861706e-01 6.35891378e-01 6.27275407e-01 6.24454319e-01 6.27423167e-01 6.35320008e-01 6.47277951e-01 6.62914932e-01 6.83408022e-01 7.12746143e-01 7.58367300e-01 8.22039366e-01 8.78580809e-01 8.59195411e-01 3.84813219e-01 8.62172525e-03 9.08317219e-04 5.56867628e-04 4.19358611e-01 3.98140043e-01 3.85049492e-01 3.93910229e-01 4.23611790e-01 4.68815207e-01 5.20176172e-01 5.66945672e-01 6.00917459e-01 6.18743360e-01 6.21353447e-01 6.12156153e-01 5.95660985e-01 5.76682031e-01 5.59723258e-01 5.48380554e-01 5.44922948e-01 5.50309658e-01 5.64693332e-01 5.88130176e-01 6.21257544e-01 6.65858924e-01 7.24247634e-01 7.94726968e-01 8.62291098e-01 8.96748304e-01 8.18901956e-01 2.36056179e-01 6.02091337e-03 8.63172929e-04 6.15666795e-04 2.60686189e-01 2.31066793e-01 2.10911751e-01 2.19733357e-01 2.57179797e-01 3.20445150e-01 3.98478687e-01 4.72812921e-01 5.27704597e-01 5.57489634e-01 5.64869821e-01 5.56150854e-01 5.38314283e-01 5.17844141e-01 5.00213563e-01 4.89602596e-01 4.88845736e-01 4.99663562e-01 5.23130536e-01 5.60226202e-01 6.12204611e-01 6.79884791e-01 7.59883821e-01 8.38164389e-01 8.91304016e-01 8.91202331e-01 6.89878583e-01 8.86903107e-02 3.48896463e-03 8.21167137e-04 7.45326688e-04 1.37541324e-01 1.09994248e-01 9.11123753e-02 9.71394330e-02 1.29990116e-01 1.96328819e-01 2.92574018e-01 3.93527061e-01 4.70370531e-01 5.12385488e-01 5.24570465e-01 5.17016768e-01 4.99456376e-01 4.79823530e-01 4.64142770e-01 4.56788510e-01 4.60885257e-01 4.78760362e-01 5.12370586e-01 5.63516080e-01 6.33172393e-01 7.18340695e-01 8.06258798e-01 8.74412656e-01 9.02004421e-01 8.42584670e-01 4.07085657e-01 2.36295722e-02 1.88012957e-03 7.98457360e-04 9.56449599e-04 6.56629577e-02 4.65849601e-02 3.44649702e-02 3.80193330e-02 6.05137125e-02 1.17367424e-01 2.19932243e-01 3.41854423e-01 4.37105030e-01 4.87890720e-01 5.02563715e-01 4.95570838e-01 4.79121476e-01 4.62002009e-01 4.50243831e-01 4.48077530e-01 4.58762705e-01 4.85165179e-01 5.29961646e-01 5.95003366e-01 6.78640664e-01 7.70482183e-01 8.49554062e-01 8.94772410e-01 8.85217607e-01 6.94557130e-01 1.36122704e-01 7.32394494e-03 1.18465733e-03 8.52745492e-04 1.32382626e-03 3.04759461e-02 1.92699563e-02 1.30294953e-02 1.53659834e-02 3.01366281e-02 7.71421939e-02 1.82373866e-01 3.20744276e-01 4.27702367e-01 4.80982363e-01 4.94618058e-01 4.87319827e-01 4.72826600e-01 4.59891707e-01 4.54018652e-01 4.59084719e-01 4.78428006e-01 5.15298069e-01 5.72392106e-01 6.49612010e-01 7.39375889e-01 8.23444247e-01 8.80398512e-01 8.94314408e-01 8.13559771e-01 3.90271515e-01 3.28338630e-02 2.98035075e-03 9.66048043e-04 1.07404427e-03 2.07843888e-03 1.44110126e-02 8.27378593e-03 5.41614182e-03 7.20608886e-03 1.81444231e-02 6.15289360e-02 1.75092220e-01 3.27155620e-01 4.35967565e-01 4.84118491e-01 4.93605733e-01 4.85975862e-01 4.74906921e-01 4.68135178e-01 4.70242023e-01 4.84686524e-01 5.14815032e-01 5.63758910e-01 6.32706046e-01 7.16908872e-01 8.01707268e-01 8.66437614e-01 8.95359278e-01 8.64229202e-01 6.28558040e-01 1.27377570e-01 9.90224257e-03 1.77339476e-03 1.05990551e-03 1.72511383e-03 3.86359054e-03 7.16609834e-03 3.85657186e-03 2.63961102e-03 4.20031976e-03 1.41061563e-02 6.19659610e-02 1.93989396e-01 3.53914022e-01 4.52050090e-01 4.88493353e-01 4.92596596e-01 4.85964239e-01 4.80391502e-01 4.81789023e-01 4.93639827e-01 5.18992126e-01 5.60958922e-01 6.21601343e-01 6.98764086e-01 7.81934142e-01 8.52895498e-01 8.95057917e-01 8.94815624e-01 7.88948417e-01 3.52384448e-01 3.83817814e-02 4.76400973e-03 1.69144943e-03 1.70765235e-03 3.90207767e-03 8.96592811e-03 3.86405434e-03 2.03925883e-03 1.57285586e-03 3.14334664e-03 1.43928872e-02 7.68294483e-02 2.35074386e-01 3.89209628e-01 4.65157539e-01 4.86909300e-01 4.86856937e-01 4.83619273e-01 4.85684901e-01 4.96731132e-01 5.19149363e-01 5.55528581e-01 6.08298063e-01 6.77463770e-01 7.56837726e-01 8.32228839e-01 8.87127757e-01 9.10492063e-01 8.82473707e-01 6.77548051e-01 1.79474235e-01 1.97976884e-02 4.39230166e-03 2.80227163e-03 4.37364494e-03 1.22995218e-02 2.56193373e-02 2.30722921e-03 1.26543967e-03 1.15827459e-03 3.03151272e-03 1.87978987e-02 1.08538702e-01 2.88992941e-01 4.18710530e-01 4.66949642e-01 4.75553125e-01 4.74468917e-01 4.77237999e-01 4.88499820e-01 5.09763539e-01 5.42408347e-01 5.88389099e-01 6.49003923e-01 7.21936166e-01 7.98191369e-01 8.63413632e-01 9.05290961e-01 9.16128993e-01 8.67954254e-01 6.03482604e-01 1.44962505e-01 2.31022798e-02 8.73080920e-03 8.63472838e-03 1.72254369e-02 4.48107608e-02 7.74737820e-02 1.52676983e-03 9.22949635e-04 1.03627203e-03 3.69494595e-03 2.95312330e-02 1.57674313e-01 3.39226544e-01 4.31263655e-01 4.54021841e-01 4.54374760e-01 4.55908388e-01 4.66535598e-01 4.87526745e-01 5.18678367e-01 5.60409725e-01 6.13753736e-01 6.78656459e-01 7.51124322e-01 8.21517408e-01 8.77626121e-01 9.10867870e-01 9.15063918e-01 8.61958385e-01 6.22875273e-01 2.15005860e-01 6.00058027e-02 3.45172733e-02 4.23063189e-02 7.78405517e-02 1.46627575e-01 2.01423481e-01 1.13172049e-03 7.77384848e-04 1.10428361e-03 5.52242296e-03 5.07640168e-02 2.15713456e-01 3.70012105e-01 4.23429847e-01 4.28531319e-01 4.26546007e-01 4.33309466e-01 4.52150166e-01 4.82247263e-01 5.22362888e-01 5.71949959e-01 6.30744457e-01 6.97245598e-01 7.66699910e-01 8.30564082e-01 8.79536033e-01 9.07590926e-01 9.09728467e-01 8.65741849e-01 7.04881728e-01 4.07053322e-01 2.10137829e-01 1.58830926e-01 1.81779593e-01 2.49549776e-01 3.35488349e-01 3.85547727e-01 9.88191925e-04 7.54126057e-04 1.37756020e-03 9.76586808e-03 8.59735981e-02 2.66499013e-01 3.76655102e-01 4.00718063e-01 3.97592813e-01 3.97626698e-01 4.09997016e-01 4.35583204e-01 4.73055273e-01 5.20878792e-01 5.77542603e-01 6.41076148e-01 7.08275020e-01 7.74026632e-01 8.31647873e-01 8.74875844e-01 8.99760127e-01 9.02850628e-01 8.73412967e-01 7.83940017e-01 6.24510944e-01 4.77433264e-01 4.12619859e-01 4.17529643e-01 4.61059004e-01 5.14727950e-01 5.44093192e-01 1.08680874e-03 8.47933756e-04 1.91273552e-03 1.88035592e-02 1.32202148e-01 2.99503952e-01 3.68619651e-01 3.76324981e-01 3.71753782e-01 3.74667197e-01 3.90380889e-01 4.19545710e-01 4.61638570e-01 5.15490651e-01 5.78784585e-01 6.47596300e-01 7.16585338e-01 7.79905498e-01 8.32446933e-01 8.70808661e-01 8.93310249e-01 8.98432076e-01 8.81750166e-01 8.34551454e-01 7.55530357e-01 6.70134962e-01 6.10986769e-01 5.88119209e-01 5.94979107e-01 6.17887735e-01 6.33681476e-01 1.58923073e-03 1.09860126e-03 2.70756660e-03 3.35578993e-02 1.78234890e-01 3.20488274e-01 3.65290970e-01 3.66895258e-01 3.62335056e-01 3.65266621e-01 3.80163223e-01 4.08805609e-01 4.52046186e-01 5.09468734e-01 5.78324676e-01 6.52943552e-01 7.25668550e-01 7.89256573e-01 8.39155197e-01 8.74001563e-01 8.94315004e-01 9.00545597e-01 8.91448617e-01 8.63980412e-01 8.17381978e-01 7.59698927e-01 7.06038296e-01 6.69259012e-01 6.54769123e-01 6.59933925e-01 6.69583499e-01 2.88331928e-03 1.57061429e-03 3.66330333e-03 5.15658781e-02 2.23009318e-01 3.50889802e-01 3.87388051e-01 3.86755049e-01 3.79746765e-01 3.78804088e-01 3.89284581e-01 4.14140016e-01 4.55142468e-01 5.12371302e-01 5.82944572e-01 6.60269916e-01 7.35258639e-01 7.99539685e-01 8.48435998e-01 8.81387711e-01 9.00066197e-01 9.06095624e-01 8.99617732e-01 8.79160583e-01 8.43575776e-01 7.95757651e-01 7.44488716e-01 7.01427579e-01 6.75672770e-01 6.70404315e-01 6.77010536e-01 3.66633781e-03 2.06274423e-03 3.95743176e-03 6.36278689e-02 2.62715220e-01 3.86895865e-01 4.20715481e-01 4.18517381e-01 4.09365118e-01 4.05697942e-01 4.13276583e-01 4.35290754e-01 4.73507434e-01 5.27844906e-01 5.95278263e-01 6.69283509e-01 7.41098940e-01 8.02736163e-01 8.49700630e-01 8.81380498e-01 8.99324954e-01 9.05146718e-01 8.99212182e-01 8.80499303e-01 8.48081887e-01 8.04047883e-01 7.55407274e-01 7.12408125e-01 6.84134126e-01 6.74602687e-01 6.78605914e-01 
