# vtk DataFile Version 2.0
results_case1_non_linear/9_density.vtk, Created by Freefem++ 
ASCII
DATASET UNSTRUCTURED_GRID
POINTS 961 float
0 0 0
0.033333333 0 0
0.066666667 0 0
0.1 0 0
0.13333333 0 0
0.16666667 0 0
0.2 0 0
0.23333333 0 0
0.26666667 0 0
0.3 0 0
0.33333333 0 0
0.36666667 0 0
0.4 0 0
0.43333333 0 0
0.46666667 0 0
0.5 0 0
0.53333333 0 0
0.56666667 0 0
0.6 0 0
0.63333333 0 0
0.66666667 0 0
0.7 0 0
0.73333333 0 0
0.76666667 0 0
0.8 0 0
0.83333333 0 0
0.86666667 0 0
0.9 0 0
0.93333333 0 0
0.96666667 0 0
1 0 0
0 0.033333333 0
0.033333333 0.033333333 0
0.066666667 0.033333333 0
0.1 0.033333333 0
0.13333333 0.033333333 0
0.16666667 0.033333333 0
0.2 0.033333333 0
0.23333333 0.033333333 0
0.26666667 0.033333333 0
0.3 0.033333333 0
0.33333333 0.033333333 0
0.36666667 0.033333333 0
0.4 0.033333333 0
0.43333333 0.033333333 0
0.46666667 0.033333333 0
0.5 0.033333333 0
0.53333333 0.033333333 0
0.56666667 0.033333333 0
0.6 0.033333333 0
0.63333333 0.033333333 0
0.66666667 0.033333333 0
0.7 0.033333333 0
0.73333333 0.033333333 0
0.76666667 0.033333333 0
0.8 0.033333333 0
0.83333333 0.033333333 0
0.86666667 0.033333333 0
0.9 0.033333333 0
0.93333333 0.033333333 0
0.96666667 0.033333333 0
1 0.033333333 0
0 0.066666667 0
0.033333333 0.066666667 0
0.066666667 0.066666667 0
0.1 0.066666667 0
0.13333333 0.066666667 0
0.16666667 0.066666667 0
0.2 0.066666667 0
0.23333333 0.066666667 0
0.26666667 0.066666667 0
0.3 0.066666667 0
0.33333333 0.066666667 0
0.36666667 0.066666667 0
0.4 0.066666667 0
0.43333333 0.066666667 0
0.46666667 0.066666667 0
0.5 0.066666667 0
0.53333333 0.066666667 0
0.56666667 0.066666667 0
0.6 0.066666667 0
0.63333333 0.066666667 0
0.66666667 0.066666667 0
0.7 0.066666667 0
0.73333333 0.066666667 0
0.76666667 0.066666667 0
0.8 0.066666667 0
0.83333333 0.066666667 0
0.86666667 0.066666667 0
0.9 0.066666667 0
0.93333333 0.066666667 0
0.96666667 0.066666667 0
1 0.066666667 0
0 0.1 0
0.033333333 0.1 0
0.066666667 0.1 0
0.1 0.1 0
0.13333333 0.1 0
0.16666667 0.1 0
0.2 0.1 0
0.23333333 0.1 0
0.26666667 0.1 0
0.3 0.1 0
0.33333333 0.1 0
0.36666667 0.1 0
0.4 0.1 0
0.43333333 0.1 0
0.46666667 0.1 0
0.5 0.1 0
0.53333333 0.1 0
0.56666667 0.1 0
0.6 0.1 0
0.63333333 0.1 0
0.66666667 0.1 0
0.7 0.1 0
0.73333333 0.1 0
0.76666667 0.1 0
0.8 0.1 0
0.83333333 0.1 0
0.86666667 0.1 0
0.9 0.1 0
0.93333333 0.1 0
0.96666667 0.1 0
1 0.1 0
0 0.13333333 0
0.033333333 0.13333333 0
0.066666667 0.13333333 0
0.1 0.13333333 0
0.13333333 0.13333333 0
0.16666667 0.13333333 0
0.2 0.13333333 0
0.23333333 0.13333333 0
0.26666667 0.13333333 0
0.3 0.13333333 0
0.33333333 0.13333333 0
0.36666667 0.13333333 0
0.4 0.13333333 0
0.43333333 0.13333333 0
0.46666667 0.13333333 0
0.5 0.13333333 0
0.53333333 0.13333333 0
0.56666667 0.13333333 0
0.6 0.13333333 0
0.63333333 0.13333333 0
0.66666667 0.13333333 0
0.7 0.13333333 0
0.73333333 0.13333333 0
0.76666667 0.13333333 0
0.8 0.13333333 0
0.83333333 0.13333333 0
0.86666667 0.13333333 0
0.9 0.13333333 0
0.93333333 0.13333333 0
0.96666667 0.13333333 0
1 0.13333333 0
0 0.16666667 0
0.033333333 0.16666667 0
0.066666667 0.16666667 0
0.1 0.16666667 0
0.13333333 0.16666667 0
0.16666667 0.16666667 0
0.2 0.16666667 0
0.23333333 0.16666667 0
0.26666667 0.16666667 0
0.3 0.16666667 0
0.33333333 0.16666667 0
0.36666667 0.16666667 0
0.4 0.16666667 0
0.43333333 0.16666667 0
0.46666667 0.16666667 0
0.5 0.16666667 0
0.53333333 0.16666667 0
0.56666667 0.16666667 0
0.6 0.16666667 0
0.63333333 0.16666667 0
0.66666667 0.16666667 0
0.7 0.16666667 0
0.73333333 0.16666667 0
0.76666667 0.16666667 0
0.8 0.16666667 0
0.83333333 0.16666667 0
0.86666667 0.16666667 0
0.9 0.16666667 0
0.93333333 0.16666667 0
0.96666667 0.16666667 0
1 0.16666667 0
0 0.2 0
0.033333333 0.2 0
0.066666667 0.2 0
0.1 0.2 0
0.13333333 0.2 0
0.16666667 0.2 0
0.2 0.2 0
0.23333333 0.2 0
0.26666667 0.2 0
0.3 0.2 0
0.33333333 0.2 0
0.36666667 0.2 0
0.4 0.2 0
0.43333333 0.2 0
0.46666667 0.2 0
0.5 0.2 0
0.53333333 0.2 0
0.56666667 0.2 0
0.6 0.2 0
0.63333333 0.2 0
0.66666667 0.2 0
0.7 0.2 0
0.73333333 0.2 0
0.76666667 0.2 0
0.8 0.2 0
0.83333333 0.2 0
0.86666667 0.2 0
0.9 0.2 0
0.93333333 0.2 0
0.96666667 0.2 0
1 0.2 0
0 0.23333333 0
0.033333333 0.23333333 0
0.066666667 0.23333333 0
0.1 0.23333333 0
0.13333333 0.23333333 0
0.16666667 0.23333333 0
0.2 0.23333333 0
0.23333333 0.23333333 0
0.26666667 0.23333333 0
0.3 0.23333333 0
0.33333333 0.23333333 0
0.36666667 0.23333333 0
0.4 0.23333333 0
0.43333333 0.23333333 0
0.46666667 0.23333333 0
0.5 0.23333333 0
0.53333333 0.23333333 0
0.56666667 0.23333333 0
0.6 0.23333333 0
0.63333333 0.23333333 0
0.66666667 0.23333333 0
0.7 0.23333333 0
0.73333333 0.23333333 0
0.76666667 0.23333333 0
0.8 0.23333333 0
0.83333333 0.23333333 0
0.86666667 0.23333333 0
0.9 0.23333333 0
0.93333333 0.23333333 0
0.96666667 0.23333333 0
1 0.23333333 0
0 0.26666667 0
0.033333333 0.26666667 0
0.066666667 0.26666667 0
0.1 0.26666667 0
0.13333333 0.26666667 0
0.16666667 0.26666667 0
0.2 0.26666667 0
0.23333333 0.26666667 0
0.26666667 0.26666667 0
0.3 0.26666667 0
0.33333333 0.26666667 0
0.36666667 0.26666667 0
0.4 0.26666667 0
0.43333333 0.26666667 0
0.46666667 0.26666667 0
0.5 0.26666667 0
0.53333333 0.26666667 0
0.56666667 0.26666667 0
0.6 0.26666667 0
0.63333333 0.26666667 0
0.66666667 0.26666667 0
0.7 0.26666667 0
0.73333333 0.26666667 0
0.76666667 0.26666667 0
0.8 0.26666667 0
0.83333333 0.26666667 0
0.86666667 0.26666667 0
0.9 0.26666667 0
0.93333333 0.26666667 0
0.96666667 0.26666667 0
1 0.26666667 0
0 0.3 0
0.033333333 0.3 0
0.066666667 0.3 0
0.1 0.3 0
0.13333333 0.3 0
0.16666667 0.3 0
0.2 0.3 0
0.23333333 0.3 0
0.26666667 0.3 0
0.3 0.3 0
0.33333333 0.3 0
0.36666667 0.3 0
0.4 0.3 0
0.43333333 0.3 0
0.46666667 0.3 0
0.5 0.3 0
0.53333333 0.3 0
0.56666667 0.3 0
0.6 0.3 0
0.63333333 0.3 0
0.66666667 0.3 0
0.7 0.3 0
0.73333333 0.3 0
0.76666667 0.3 0
0.8 0.3 0
0.83333333 0.3 0
0.86666667 0.3 0
0.9 0.3 0
0.93333333 0.3 0
0.96666667 0.3 0
1 0.3 0
0 0.33333333 0
0.033333333 0.33333333 0
0.066666667 0.33333333 0
0.1 0.33333333 0
0.13333333 0.33333333 0
0.16666667 0.33333333 0
0.2 0.33333333 0
0.23333333 0.33333333 0
0.26666667 0.33333333 0
0.3 0.33333333 0
0.33333333 0.33333333 0
0.36666667 0.33333333 0
0.4 0.33333333 0
0.43333333 0.33333333 0
0.46666667 0.33333333 0
0.5 0.33333333 0
0.53333333 0.33333333 0
0.56666667 0.33333333 0
0.6 0.33333333 0
0.63333333 0.33333333 0
0.66666667 0.33333333 0
0.7 0.33333333 0
0.73333333 0.33333333 0
0.76666667 0.33333333 0
0.8 0.33333333 0
0.83333333 0.33333333 0
0.86666667 0.33333333 0
0.9 0.33333333 0
0.93333333 0.33333333 0
0.96666667 0.33333333 0
1 0.33333333 0
0 0.36666667 0
0.033333333 0.36666667 0
0.066666667 0.36666667 0
0.1 0.36666667 0
0.13333333 0.36666667 0
0.16666667 0.36666667 0
0.2 0.36666667 0
0.23333333 0.36666667 0
0.26666667 0.36666667 0
0.3 0.36666667 0
0.33333333 0.36666667 0
0.36666667 0.36666667 0
0.4 0.36666667 0
0.43333333 0.36666667 0
0.46666667 0.36666667 0
0.5 0.36666667 0
0.53333333 0.36666667 0
0.56666667 0.36666667 0
0.6 0.36666667 0
0.63333333 0.36666667 0
0.66666667 0.36666667 0
0.7 0.36666667 0
0.73333333 0.36666667 0
0.76666667 0.36666667 0
0.8 0.36666667 0
0.83333333 0.36666667 0
0.86666667 0.36666667 0
0.9 0.36666667 0
0.93333333 0.36666667 0
0.96666667 0.36666667 0
1 0.36666667 0
0 0.4 0
0.033333333 0.4 0
0.066666667 0.4 0
0.1 0.4 0
0.13333333 0.4 0
0.16666667 0.4 0
0.2 0.4 0
0.23333333 0.4 0
0.26666667 0.4 0
0.3 0.4 0
0.33333333 0.4 0
0.36666667 0.4 0
0.4 0.4 0
0.43333333 0.4 0
0.46666667 0.4 0
0.5 0.4 0
0.53333333 0.4 0
0.56666667 0.4 0
0.6 0.4 0
0.63333333 0.4 0
0.66666667 0.4 0
0.7 0.4 0
0.73333333 0.4 0
0.76666667 0.4 0
0.8 0.4 0
0.83333333 0.4 0
0.86666667 0.4 0
0.9 0.4 0
0.93333333 0.4 0
0.96666667 0.4 0
1 0.4 0
0 0.43333333 0
0.033333333 0.43333333 0
0.066666667 0.43333333 0
0.1 0.43333333 0
0.13333333 0.43333333 0
0.16666667 0.43333333 0
0.2 0.43333333 0
0.23333333 0.43333333 0
0.26666667 0.43333333 0
0.3 0.43333333 0
0.33333333 0.43333333 0
0.36666667 0.43333333 0
0.4 0.43333333 0
0.43333333 0.43333333 0
0.46666667 0.43333333 0
0.5 0.43333333 0
0.53333333 0.43333333 0
0.56666667 0.43333333 0
0.6 0.43333333 0
0.63333333 0.43333333 0
0.66666667 0.43333333 0
0.7 0.43333333 0
0.73333333 0.43333333 0
0.76666667 0.43333333 0
0.8 0.43333333 0
0.83333333 0.43333333 0
0.86666667 0.43333333 0
0.9 0.43333333 0
0.93333333 0.43333333 0
0.96666667 0.43333333 0
1 0.43333333 0
0 0.46666667 0
0.033333333 0.46666667 0
0.066666667 0.46666667 0
0.1 0.46666667 0
0.13333333 0.46666667 0
0.16666667 0.46666667 0
0.2 0.46666667 0
0.23333333 0.46666667 0
0.26666667 0.46666667 0
0.3 0.46666667 0
0.33333333 0.46666667 0
0.36666667 0.46666667 0
0.4 0.46666667 0
0.43333333 0.46666667 0
0.46666667 0.46666667 0
0.5 0.46666667 0
0.53333333 0.46666667 0
0.56666667 0.46666667 0
0.6 0.46666667 0
0.63333333 0.46666667 0
0.66666667 0.46666667 0
0.7 0.46666667 0
0.73333333 0.46666667 0
0.76666667 0.46666667 0
0.8 0.46666667 0
0.83333333 0.46666667 0
0.86666667 0.46666667 0
0.9 0.46666667 0
0.93333333 0.46666667 0
0.96666667 0.46666667 0
1 0.46666667 0
0 0.5 0
0.033333333 0.5 0
0.066666667 0.5 0
0.1 0.5 0
0.13333333 0.5 0
0.16666667 0.5 0
0.2 0.5 0
0.23333333 0.5 0
0.26666667 0.5 0
0.3 0.5 0
0.33333333 0.5 0
0.36666667 0.5 0
0.4 0.5 0
0.43333333 0.5 0
0.46666667 0.5 0
0.5 0.5 0
0.53333333 0.5 0
0.56666667 0.5 0
0.6 0.5 0
0.63333333 0.5 0
0.66666667 0.5 0
0.7 0.5 0
0.73333333 0.5 0
0.76666667 0.5 0
0.8 0.5 0
0.83333333 0.5 0
0.86666667 0.5 0
0.9 0.5 0
0.93333333 0.5 0
0.96666667 0.5 0
1 0.5 0
0 0.53333333 0
0.033333333 0.53333333 0
0.066666667 0.53333333 0
0.1 0.53333333 0
0.13333333 0.53333333 0
0.16666667 0.53333333 0
0.2 0.53333333 0
0.23333333 0.53333333 0
0.26666667 0.53333333 0
0.3 0.53333333 0
0.33333333 0.53333333 0
0.36666667 0.53333333 0
0.4 0.53333333 0
0.43333333 0.53333333 0
0.46666667 0.53333333 0
0.5 0.53333333 0
0.53333333 0.53333333 0
0.56666667 0.53333333 0
0.6 0.53333333 0
0.63333333 0.53333333 0
0.66666667 0.53333333 0
0.7 0.53333333 0
0.73333333 0.53333333 0
0.76666667 0.53333333 0
[...]
CELL_DATA 1920
Scalars  Label int 1
LOOKUP_TABLE FreeFempp_table
0
0
0
0
0
0
0
0
0
0
0
0
0
0
0
0
0
0
0
0
0
0
0
0
0
0
0
0
0
0
0
0
0
0
0
0
0
0
0
0
0
0
0
0
0
0
0
0
0
0
0
0
0
0
0
0
0
0
0
0
0
0
0
0
0
0
0
0
0
0
0
0
0
0
0
0
0
0
0
0
0
0
0
0
0
0
0
0
0
0
0
0
0
0
0
0
0
0
0
0
0
0
0
0
0
0
0
0
0
0
0
0
0
0
0
0
0
0
0
0
0
0
0
0
0
0
0
0
0
0
0
0
0
0
0
0
0
0
0
0
0
0
0
0
0
0
0
0
0
0
0
0
0
0
0
0
0
0
0
0
0
0
0
0
0
0
0
0
0
0
0
0
0
0
0
0
0
0
0
0
0
0
0
0
0
0
0
0
0
0
0
0
0
0
0
0
0
0
0
0
0
0
0
0
0
0
0
0
0
0
0
0
0
0
0
0
0
0
0
0
0
0
0
0
0
0
0
0
0
0
0
0
0
0
0
0
0
0
0
0
0
0
0
0
0
0
0
0
0
0
0
0
0
0
0
0
0
0
0
0
0
0
0
0
0
0
0
0
0
0
0
0
0
0
0
0
0
0
0
0
0
0
0
0
0
0
0
0
0
0
0
0
0
0
0
0
0
0
0
0
0
0
0
0
0
0
0
0
0
0
0
0
0
0
0
0
0
0
0
0
0
0
0
0
0
0
0
0
0
0
0
0
0
0
0
0
0
0
0
0
0
0
0
0
0
0
0
0
0
0
0
0
0
0
0
0
0
0
0
0
0
0
0
0
0
0
0
0
0
0
0
0
0
0
0
0
0
0
0
0
0
0
0
0
0
0
0
0
0
0
0
0
0
0
0
0
0
0
0
0
0
0
0
0
0
0
0
0
0
0
0
0
0
0
0
0
0
0
0
0
0
0
0
0
0
0
0
0
0
0
0
0
0
0
0
0
0
0
0
0
0
0
0
0
0
0
0
0
0
0
0
0
0
0
0
0
0
0
0
0
0
0
0
0
0
0
0
0
0
0
0
0
0
0
0
0
0
0
0
0
0
0
0
0
0
0
0
0
0
0
0
0
0
0
0
0
0
0
0
0
0
0
0
0
0
0
0
0
0
0
0
0
0
0
0
0
0
0
0
0
0
0
0
0
0
0
0
0
0
0
0
0
0
0
0
0
0
0
0
0
0
0
0
0
0
0
0
0
0
0
0
0
0
0
0
0
0
0
0
0
0
0
0
0
0
0
0
0
0
0
0
0
0
0
0
0
0
0
0
0
0
0
0
0
0
0
0
0
0
0
0
0
0
0
0
0
0
0
0
0
0
0
0
0
0
0
0
0
0
0
0
0
0
0
0
0
0
0
0
0
0
0
0
0
0
0
0
0
0
0
0
0
0
0
0
0
0
0
0
0
0
0
0
0
0
0
0
0
0
0
0
0
0
0
0
0
0
0
0
0
0
0
0
0
0
0
0
0
0
0
0
0
0
0
0
0
0
0
0
0
0
0
0
0
0
0
0
0
0
0
0
0
0
0
0
0
0
0
0
0
0
0
0
0
0
0
0
0
0
0
0
0
0
0
0
0
0
0
0
0
0
0
0
0
0
0
0
0
0
0
0
0
0
0
0
0
0
0
0
0
0
0
0
0
0
0
0
0
0
0
0
0
0
0
0
0
0
0
0
0
0
0
0
0
0
0
0
0
0
0
0
0
0
0
0
0
0
0
0
0
0
0
0
0
0
0
0
0
0
0
0
0
0
0
0
0
0
0
0
0
0
0
0
0
0
0
0
0
0
0
0
0
0
0
0
0
0
0
0
0
0
0
0
0
0
0
0
0
0
0
0
0
0
0
0
0
0
0
0
0
0
0
0
0
0
0
0
0
0
0
0
0
0
0
0
0
0
0
0
0
0
0
0
0
0
0
0
0
0
0
0
0
0
0
0
0
0
0
0
0
0
0
0
0
0
0
0
0
0
0
0
0
0
0
0
0
0
0
0
0
0
0
0
0
0
0
0
0
0
0
0
0
0
0
0
0
0
0
0
0
0
0
0
0
0
0
0
0
0
0
0
0
0
0
0
0
0
0
0
0
0
0
0
0
0
0
0
0
0
0
0
0
0
0
0
0
0
0
0
0
0
0
0
0
0
0
0
0
0
0
0
0
0
0
0
0
0
0
0
0
0
0
0
0
0
0
0
0
0
0
0
0
0
0
0
0
0
0
0
0
0
0
0
0
0
0
0
0
0
0
0
0
0
0
0
0
0
0
0
0
0
0
0
0
0
0
0
0
0
0
0
0
0
0
0
0
0
0
0
0
0
0
0
0
0
0
0
0
0
0
0
0
0
0
0
0
0
0
0
0
0
0
0
0
0
0
0
0
0
0
0
0
0
0
0
0
0
0
0
0
0
0
0
0
0
0
0
0
0
0
0
0
0
0
0
0
0
0
0
0
0
0
0
0
0
0
0
0
0
0
0
0
0
0
0
0
0
0
0
0
0
0
0
0
0
0
0
0
0
0
0
0
0
0
0
0
0
0
0
0
0
0
0
0
0
0
0
0
0
0
0
0
0
0
0
0
0
0
0
0
0
0
0
0
0
0
0
0
0
0
0
0
0
0
0
0
0
0
0
0
0
0
0
0
0
0
0
0
0
0
0
0
0
0
0
0
0
0
0
0
0
0
0
0
0
0
0
0
0
0
0
0
0
0
0
0
0
0
0
0
0
0
0
0
0
0
0
0
0
0
0
0
0
0
0
0
0
0
0
0
0
0
0
0
0
0
0
0
0
0
0
0
0
0
0
0
0
0
0
0
0
0
0
0
0
0
0
0
0
0
0
0
0
0
0
0
0
0
0
0
0
0
0
0
0
0
0
0
0
0
0
0
0
0
0
0
0
0
0
0
0
0
0
0
0
0
0
0
0
0
0
0
0
0
0
0
0
0
0
0
0
0
0
0
0
0
0
0
0
0
0
0
0
0
0
0
0
0
0
0
0
0
0
0
0
0
0
0
0
0
0
0
0
0
0
0
0
0
0
0
0
0
0
0
0
0
0
0
0
0
0
0
0
0
0
0
0
0
0
0
0
0
0
0
0
0
0
0
0
0
0
0
0
0
0
0
0
0
0
0
0
0
0
0
0
0
0
0
0
0
0
0
0
0
0
0
0
0
0
0
0
0
0
0
0
0
0
0
0
0
0
0
0
0
0
0
0
0
0
0
0
0
0
0
0
0
0
0
0
0
0
0
0
0
0
0
0
0
0
0
0
0
0
0
0
0
0
0
0
0
0
0
0
0
0
0
0
0
0
0
0
0
0
0
0
0
0
0
0
0
0
0
0
0
0
0
0
0
0
0
0
0
0
0
0
0
0
0
0
0
0
0
0
0
0
0
0
0
0
0
0
0
0
0
0
0
0
0
0
0
0
0
0
0
0
0
0
0
0
0
0
0
0
0
0
0
0
0
0
0
0
0
0
0
0
0
0
0
0
0
0
0
0
0
0
0
0
0
0
0
0
0
0
0
0
0
0
0
0
0
0
0
0
0
0
0
0
0
0
0
0
0
0
0
0
0
0
0
0
0
0
0
0
0
0
0
0
0
0
0
0
0
0
0
0
0
0
0
0
0
0
0
0
0
0
0
0
0
0
0
0
0
0
0
0
0
0
0
0
0
0
0
0
0
0
0
0
0
0
0
0
0
0
0
0
0
0
0
0
0
0
0
0
0
0
0
0
0
0
0
0
0
0
0
0
0
0
0
0
0
0
0
0
0
0
0
0
0
0
0
0
0
0
0
0
0
0
0
0
0
0
0
0
0
0
0
0
0
0
0
0
0
0
0
0
0
0
0
0
0
0
0
0
0
0
0
0
0
0
0
0
0
0
0
0
0
0
0
0
0
0
0
0
0
0
0
0
0
0
0
0
0
0
0
0
0
0
0
0
0
0
0
0
0
0
0
0
0
0
0
0
0
0
0
0
0
0
0
0
0
0
0
0
0
0
0
0
0
0
0
0
0
0
0
0
0
0
0
0
0
1
1
1
1
1
1
1
1
1
1
1
1
1
1
1
1
1
1
1
1
1
1
1
1
1
1
1
1
1
1
2
2
2
2
2
2
2
2
2
2
2
2
2
2
2
2
2
2
2
2
2
2
2
2
2
2
2
2
2
2
3
3
3
3
3
3
3
3
3
3
3
3
3
3
3
3
3
3
3
3
3
3
3
3
3
3
3
3
3
3
4
4
4
4
4
4
4
4
4
4
4
4
4
4
4
4
4
4
4
4
4
4
4
4
4
4
4
4
4
4

LOOKUP_TABLE FreeFempp_table 5
1.00000000 0.00000000 0.00000000 1.00000000
1.00000000 1.00000000 0.00000000 1.00000000
1.00000000 0.00000000 1.00000000 1.00000000
0.00000000 1.00000000 0.00000000 1.00000000
0.00000000 1.00000000 1.00000000 1.00000000

POINT_DATA 961
FIELD FieldData 1
Density 1 961 float
4.27942898e-04 5.12384751e-04 7.36950722e-04 9.40484984e-04 9.60152014e-04 7.79590744e-04 4.83172393e-04 2.64104601e-04 2.40827430e-04 5.17523731e-04 5.32847177e-03 1.04186587e-01 6.14562154e-01 8.32201838e-01 7.64039755e-01 6.45324707e-01 6.41263306e-01 7.07418978e-01 7.68569469e-01 7.92908430e-01 7.95131683e-01 7.91774094e-01 7.87361860e-01 7.82426059e-01 7.77826011e-01 7.73328125e-01 7.68592417e-01 7.63809979e-01 7.60369837e-01 7.60820210e-01 7.61355102e-01 3.43205815e-04 3.74236901e-04 4.26423969e-04 4.64519690e-04 4.49867628e-04 3.87219014e-04 3.01020365e-04 2.29797995e-04 2.25274285e-04 3.94606264e-04 2.47593713e-03 4.95410450e-02 5.07141948e-01 8.00633729e-01 6.75845683e-01 4.57487464e-01 4.35408801e-01 5.26921093e-01 6.29560471e-01 6.85148180e-01 7.08173394e-01 7.24052191e-01 7.35308111e-01 7.41750360e-01 7.45981872e-01 7.47804403e-01 7.47266233e-01 7.44948387e-01 7.42856443e-01 7.44656444e-01 7.48671532e-01 9.17025900e-04 8.19190522e-04 7.45802652e-04 6.61397295e-04 5.55202889e-04 4.42862482e-04 3.44888947e-04 2.81786371e-04 2.72568403e-04 3.56790726e-04 8.54626647e-04 6.19265437e-03 1.63353324e-01 6.14805758e-01 3.81132782e-01 1.03563048e-01 6.22486509e-02 7.67667741e-02 1.15924083e-01 1.69160560e-01 2.44875997e-01 3.54298562e-01 4.56677228e-01 5.36001801e-01 5.98779798e-01 6.40640914e-01 6.66454256e-01 6.80402160e-01 6.88023388e-01 6.96699500e-01 7.05756545e-01 1.25500625e-02 9.63388570e-03 7.16953678e-03 5.24190767e-03 3.67846410e-03 2.48660869e-03 1.64900988e-03 1.14221184e-03 9.19957296e-04 8.74557241e-04 9.83151491e-04 1.85125740e-03 1.33512160e-02 2.39483282e-01 2.90302247e-01 4.56919484e-02 1.07089384e-02 5.97604411e-03 5.53855253e-03 6.72526099e-03 1.11578293e-02 2.91098412e-02 6.90978840e-02 1.44531965e-01 2.74461687e-01 3.99453998e-01 4.93505090e-01 5.52635252e-01 5.87356031e-01 6.12899840e-01 6.31213725e-01 6.70588240e-02 5.58560081e-02 4.30115238e-02 3.36037874e-02 2.65236869e-02 2.13373192e-02 1.74968559e-02 1.46081056e-02 1.23852771e-02 9.82840173e-03 6.13494404e-03 3.33995768e-03 4.36202576e-03 1.97764318e-02 1.63900092e-01 8.15317705e-02 1.44589245e-02 4.14552726e-03 2.36921781e-03 1.94180838e-03 2.01624841e-03 2.67216424e-03 4.08706022e-03 8.75479542e-03 3.62111926e-02 1.14485048e-01 2.44395092e-01 3.63175511e-01 4.44282413e-01 4.98514801e-01 5.29400408e-01 1.64703995e-01 1.42447263e-01 1.18364714e-01 1.02047741e-01 9.01139304e-02 8.19488466e-02 7.67232552e-02 7.30170086e-02 6.87197596e-02 5.99492155e-02 4.34343368e-02 2.42216438e-02 1.26577662e-02 8.30747932e-03 2.02745721e-02 1.09629788e-01 7.45071471e-02 2.17365567e-02 1.14658717e-02 8.19366053e-03 5.86542953e-03 3.78583418e-03 2.35587964e-03 2.07539811e-03 3.60460626e-03 1.19858757e-02 5.83369173e-02 1.66839406e-01 2.83577353e-01 3.71752322e-01 4.16047275e-01 2.93728948e-01 2.63360918e-01 2.32729927e-01 2.14013159e-01 2.00606614e-01 1.91017345e-01 1.84764832e-01 1.80470854e-01 1.75156981e-01 1.63406655e-01 1.39227778e-01 1.02854639e-01 6.31183907e-02 2.86356676e-02 1.09828236e-02 1.51446462e-02 5.38759083e-02 1.09028563e-01 1.32757708e-01 1.46914288e-01 1.14113003e-01 5.64296953e-02 1.77403484e-02 5.90748759e-03 3.18526989e-03 3.01377941e-03 8.06661043e-03 4.37245592e-02 1.39596209e-01 2.50837535e-01 3.07884127e-01 4.48205233e-01 4.18240428e-01 3.88513803e-01 3.71389449e-01 3.59309793e-01 3.49946439e-01 3.43035460e-01 3.38033944e-01 3.32674265e-01 3.21958929e-01 2.98751056e-01 2.57362604e-01 1.97121978e-01 1.22004561e-01 4.82627265e-02 1.11862123e-02 7.97563139e-03 1.53749594e-02 6.13566078e-02 1.06557608e-01 9.05091837e-02 6.83434233e-02 6.84996769e-02 6.38258979e-02 2.89501008e-02 6.30806386e-03 3.26291216e-03 7.67656835e-03 4.51840274e-02 1.48944587e-01 2.16022104e-01 6.03342295e-01 5.82885265e-01 5.62296510e-01 5.50440431e-01 5.42098999e-01 5.35582185e-01 5.30792654e-01 5.27699769e-01 5.24989724e-01 5.19120455e-01 5.04211068e-01 4.72910285e-01 4.17110234e-01 3.27579677e-01 2.00794995e-01 6.91341683e-02 1.44607918e-02 7.03970762e-03 6.22283388e-03 6.58298237e-03 5.53413201e-03 5.44059882e-03 8.35743546e-03 2.31613554e-02 9.26434249e-02 6.65341988e-02 7.59582315e-03 3.28161079e-03 1.11258458e-02 7.65818581e-02 1.48053974e-01 7.24156678e-01 7.15148985e-01 7.05541968e-01 6.99660718e-01 6.95502162e-01 6.92610681e-01 6.91040576e-01 6.90775871e-01 6.91041827e-01 6.89841449e-01 6.83906853e-01 6.68840885e-01 6.38680220e-01 5.83887756e-01 4.88361418e-01 3.36942345e-01 1.63732275e-01 6.04771525e-02 1.32942703e-02 4.74861357e-03 2.19164835e-03 1.58632000e-03 1.86043873e-03 4.29438520e-03 2.87171770e-02 1.97728053e-01 5.85981235e-02 4.58571222e-03 5.13038086e-03 3.94565314e-02 9.67437401e-02 7.95980871e-01 7.94515133e-01 7.92043149e-01 7.90028334e-01 7.88656831e-01 7.88197458e-01 7.88715959e-01 7.90047646e-01 7.91600883e-01 7.92267621e-01 7.90527761e-01 7.84599543e-01 7.72337914e-01 7.50588953e-01 7.13881969e-01 6.53275192e-01 5.58327854e-01 4.18953747e-01 2.10609987e-01 6.55003041e-02 1.33582912e-02 4.60311724e-03 2.66596652e-03 3.16650327e-03 1.08199678e-02 1.30373999e-01 2.06448898e-01 1.01100849e-02 4.26563993e-03 2.40897462e-02 5.60096726e-02 8.23551595e-01 8.25753987e-01 8.26873720e-01 8.27022672e-01 8.27578425e-01 8.29032004e-01 8.31282198e-01 8.33912849e-01 8.36256802e-01 8.37494373e-01 8.36826921e-01 8.33631933e-01 8.27493012e-01 8.18079948e-01 8.04938436e-01 7.87308931e-01 7.63740242e-01 7.28655934e-01 6.60441697e-01 5.29907405e-01 3.01564604e-01 1.10523649e-01 3.02143432e-02 1.35080889e-02 1.58751383e-02 7.39495158e-02 3.25262994e-01 2.66362857e-02 3.61479819e-03 8.15839693e-03 1.79647822e-02 8.10280383e-01 8.13735366e-01 8.16762924e-01 8.18891704e-01 8.22203457e-01 8.27050090e-01 8.32805395e-01 8.38461041e-01 8.42920423e-01 8.45242977e-01 8.44851434e-01 8.41642737e-01 8.35989714e-01 8.28660071e-01 8.20661545e-01 8.12962592e-01 8.05991292e-01 7.98762918e-01 7.87711740e-01 7.66974211e-01 7.19094872e-01 6.15478218e-01 4.17380154e-01 2.08576992e-01 1.07299052e-01 1.99964181e-01 5.24756014e-01 1.49993941e-01 4.22698027e-03 1.59930158e-03 2.30161683e-03 7.44533002e-01 7.46203840e-01 7.49663591e-01 7.55177259e-01 7.65075564e-01 7.78747916e-01 7.93918729e-01 8.07935059e-01 8.18540573e-01 8.24324012e-01 8.24840069e-01 8.20505917e-01 8.12446594e-01 8.02340150e-01 7.92147219e-01 7.83586800e-01 7.77428687e-01 7.73027122e-01 7.68507004e-01 7.61381567e-01 7.47729480e-01 7.23348796e-01 6.83049560e-01 6.34431303e-01 6.09170318e-01 7.23674655e-01 7.93691158e-01 2.92824030e-01 5.21729002e-03 7.04571372e-04 5.29127312e-04 6.00362003e-01 5.93052506e-01 5.91907740e-01 6.02873325e-01 6.27518594e-01 6.62394643e-01 7.00784802e-01 7.35526443e-01 7.61386514e-01 7.76086271e-01 7.79806912e-01 7.74203718e-01 7.61803865e-01 7.45756209e-01 7.29466498e-01 7.15828419e-01 7.06273854e-01 7.00295448e-01 6.95893109e-01 6.90768063e-01 6.84167564e-01 6.80839300e-01 6.95323348e-01 7.49454200e-01 8.39241207e-01 9.11436737e-01 8.76934350e-01 2.78722644e-01 4.54825349e-03 5.68448508e-04 3.88437329e-04 3.84136111e-01 3.61231655e-01 3.47834200e-01 3.61016184e-01 4.01931673e-01 4.66546267e-01 5.43561995e-01 6.16542697e-01 6.71835840e-01 7.04225183e-01 7.15333223e-01 7.09634006e-01 6.92433238e-01 6.69439852e-01 6.46357894e-01 6.27908468e-01 6.16737425e-01 6.13004863e-01 6.15083337e-01 6.21358097e-01 6.33225620e-01 6.59163654e-01 7.15891540e-01 8.11081231e-01 9.03959215e-01 9.40146267e-01 8.41066360e-01 1.36107594e-01 3.01140966e-03 5.92142867e-04 5.24710049e-04 1.87508717e-01 1.59455895e-01 1.40197992e-01 1.47885129e-01 1.84556335e-01 2.55338937e-01 3.58352393e-01 4.72354084e-01 5.66396177e-01 6.23902023e-01 6.46387458e-01 6.42580867e-01 6.22088075e-01 5.94190657e-01 5.67367136e-01 5.48247993e-01 5.40709555e-01 5.45823693e-01 5.62816501e-01 5.91009021e-01 6.32523835e-01 6.93916500e-01 7.80204594e-01 8.73930991e-01 9.33454216e-01 9.31847453e-01 6.65524364e-01 3.90485190e-02 1.68806897e-03 6.39757025e-04 8.72750825e-04 7.72686228e-02 5.70532642e-02 4.34196219e-02 4.59933579e-02 6.63098842e-02 1.16383798e-01 2.12436110e-01 3.47138941e-01 4.75032896e-01 5.57704985e-01 5.91956019e-01 5.91006875e-01 5.69460452e-01 5.40301442e-01 5.14393151e-01 4.99729365e-01 5.01107395e-01 5.20522594e-01 5.58000088e-01 6.12678766e-01 6.83571637e-01 7.67698705e-01 8.53281081e-01 9.17050898e-01 9.39750314e-01 8.72854888e-01 3.06674927e-01 1.02090314e-02 9.76940151e-04 6.55145908e-04 1.22248719e-03 3.12247034e-02 1.97165888e-02 1.27129378e-02 1.34497108e-02 2.27474291e-02 5.24395257e-02 1.29341140e-01 2.68113673e-01 4.19487834e-01 5.20858347e-01 5.62959969e-01 5.63963890e-01 5.43202043e-01 5.16466260e-01 4.95980561e-01 4.90425497e-01 5.05261719e-01 5.43044865e-01 6.03084624e-01 6.80524111e-01 7.65751898e-01 8.45237732e-01 9.04839516e-01 9.34349835e-01 9.15517688e-01 6.64546907e-01 7.20001534e-02 3.23412148e-03 6.81446923e-04 6.97867654e-04 1.53705652e-03 1.38699552e-02 7.60583999e-03 4.32301452e-03 4.64527681e-03 9.22721345e-03 2.80560516e-02 9.27522704e-02 2.36074433e-01 4.04510766e-01 5.14857769e-01 5.58314741e-01 5.59582591e-01 5.41528583e-01 5.21079838e-01 5.10501504e-01 5.18441141e-01 5.50393581e-01 6.07777596e-01 6.85451210e-01 7.70421743e-01 8.46148610e-01 9.00683463e-01 9.29624259e-01 9.25578952e-01 8.12072515e-01 2.68734425e-01 1.48394406e-02 1.42001244e-03 6.10083458e-04 8.95842270e-04 2.15452630e-03 7.10576493e-03 3.50320362e-03 1.92719407e-03 2.21101381e-03 5.19821420e-03 2.04732455e-02 8.55985731e-02 2.44441494e-01 4.24075633e-01 5.30903399e-01 5.68977952e-01 5.69827259e-01 5.57403922e-01 5.47598600e-01 5.51238656e-01 5.75819790e-01 6.25134647e-01 6.96373641e-01 7.77347922e-01 8.50318849e-01 9.02439415e-01 9.30454314e-01 9.32205260e-01 8.72158349e-01 5.19250870e-01 5.86238988e-02 4.34688479e-03 9.49859328e-04 7.39187119e-04 1.58406293e-03 3.91163724e-03 4.15482745e-03 1.90365687e-03 1.10606605e-03 1.46017701e-03 4.26332559e-03 2.14100834e-02 1.02413081e-01 2.87727147e-01 4.64805603e-01 5.54791033e-01 5.83418012e-01 5.85450768e-01 5.82575798e-01 5.87403536e-01 6.07779324e-01 6.48414373e-01 7.09212720e-01 7.81968653e-01 8.51297677e-01 9.03449357e-01 9.33661580e-01 9.41749215e-01 9.12614465e-01 7.22346723e-01 1.85126394e-01 1.47890830e-02 2.17010989e-03 9.83712031e-04 1.26346399e-03 3.83558101e-03 9.15998220e-03 2.70034513e-03 1.18919148e-03 7.68890197e-04 1.25274609e-03 4.90941294e-03 3.07108648e-02 1.46829367e-01 3.55302483e-01 5.07647574e-01 5.72350562e-01 5.92175245e-01 5.99186122e-01 6.09682739e-01 6.31198168e-01 6.67350769e-01 7.18910694e-01 7.81759441e-01 8.45569193e-01 8.98100913e-01 9.32528853e-01 9.48244333e-01 9.41532910e-01 8.68445098e-01 4.88933891e-01 6.25561103e-02 6.92911446e-03 2.02372950e-03 1.63211033e-03 3.15679493e-03 1.10947592e-02 2.43358221e-02 1.92904240e-03 8.47541378e-04 6.35483884e-04 1.35432137e-03 7.52835022e-03 5.41621745e-02 2.21158028e-01 4.25071567e-01 5.34877002e-01 5.74540079e-01 5.90315282e-01 6.06849909e-01 6.33079529e-01 6.70629799e-01 7.18638957e-01 7.74502099e-01 8.32535326e-01 8.84400725e-01 9.23084557e-01 9.46181297e-01 9.53455150e-01 9.35593128e-01 8.16720545e-01 3.40256661e-01 3.97777148e-02 7.07439752e-03 3.65089695e-03 4.63057263e-03 1.14627983e-02 3.62265296e-02 6.75128028e-02 1.49226224e-03 6.87603955e-04 6.14441524e-04 1.83736999e-03 1.43581834e-02 1.01593487e-01 3.10215026e-01 4.72868651e-01 5.37607193e-01 5.59317946e-01 5.77321351e-01 6.06713235e-01 6.48805797e-01 6.99804544e-01 7.55309999e-01 8.11099350e-01 8.62412751e-01 9.04406846e-01 9.34055746e-01 9.50796247e-01 9.53627706e-01 9.30137932e-01 7.98689902e-01 3.47708762e-01 5.91376796e-02 1.68489907e-02 1.30807282e-02 2.17414889e-02 5.24705015e-02 1.22180663e-01 1.81573778e-01 1.22030941e-03 6.16999634e-04 6.86302374e-04 3.08168284e-03 3.05091944e-02 1.75916508e-01 3.83448005e-01 4.87588584e-01 5.17337143e-01 5.30665517e-01 5.55641294e-01 5.98367870e-01 6.54261708e-01 7.15703785e-01 7.76066840e-01 8.30751538e-01 8.76719058e-01 9.12154078e-01 9.36522543e-01 9.50026274e-01 9.51309443e-01 9.29482400e-01 8.28347087e-01 5.00988007e-01 1.70311838e-01 7.82862157e-02 7.54627585e-02 1.19134456e-01 2.13040009e-01 3.34676176e-01 4.00458306e-01 1.06137746e-03 6.02968736e-04 8.70943244e-04 6.11557392e-03 6.35160431e-02 2.58225232e-01 4.21215802e-01 4.74359274e-01 4.83979583e-01 4.96701717e-01 5.29401720e-01 5.82323790e-01 6.48207009e-01 7.17632353e-01 7.82450914e-01 8.37543786e-01 8.80926430e-01 9.12807703e-01 9.34357584e-01 9.46508348e-01 9.48419333e-01 9.33475852e-01 8.75796497e-01 7.13333011e-01 4.71228898e-01 3.35515946e-01 3.30842316e-01 4.02702689e-01 5.03872633e-01 5.91662645e-01 6.26684964e-01 1.02139101e-03 6.37256657e-04 1.19630585e-03 1.27330692e-02 1.15553446e-01 3.20781529e-01 4.28318977e-01 4.50317502e-01 4.52805459e-01 4.67639178e-01 5.04077971e-01 5.60861349e-01 6.31554067e-01 7.06870556e-01 7.77189076e-01 8.35662425e-01 8.79901946e-01 9.11061585e-01 9.31626260e-01 9.43586707e-01 9.47317064e-01 9.40213203e-01 9.13610697e-01 8.51372063e-01 7.54199743e-01 6.73207223e-01 6.47932708e-01 6.64567709e-01 6.98199809e-01 7.32042611e-01 7.46353567e-01 1.18620147e-03 7.37310678e-04 1.68292446e-03 2.46566776e-02 1.75280899e-01 3.59832466e-01 4.29073572e-01 4.38826412e-01 4.40111011e-01 4.53956813e-01 4.87021327e-01 5.39956152e-01 6.09493673e-01 6.88014865e-01 7.64598131e-01 8.29397261e-01 8.77937198e-01 9.11170304e-01 9.32465017e-01 9.44957793e-01 9.50382054e-01 9.48645592e-01 9.37414825e-01 9.12491739e-01 8.72656047e-01 8.27124953e-01 7.89632201e-01 7.66506493e-01 7.59263217e-01 7.67447114e-01 7.76616991e-01 1.65247044e-03 9.27486515e-04 2.29064329e-03 4.24174182e-02 2.35342249e-01 4.00546014e-01 4.53190506e-01 4.59461808e-01 4.58015025e-01 4.65465784e-01 4.89267170e-01 5.32809854e-01 5.95894098e-01 6.72963619e-01 7.52769887e-01 8.22881043e-01 8.76149178e-01 9.12419260e-01 9.35263634e-01 9.48519289e-01 9.54779208e-01 9.55108762e-01 9.49053228e-01 9.34804559e-01 9.10202444e-01 8.74909818e-01 8.32330704e-01 7.90373206e-01 7.60776937e-01 7.54146874e-01 7.62782991e-01 1.92152534e-03 1.14186830e-03 2.45935423e-03 5.42362183e-02 2.82129079e-01 4.40685689e-01 4.87251997e-01 4.91202027e-01 4.86894280e-01 4.89741594e-01 5.07639885e-01 5.44799984e-01 6.01862311e-01 6.74120963e-01 7.50974119e-01 8.19988906e-01 8.73366594e-01 9.10203755e-01 9.33620930e-01 9.47303712e-01 9.53884363e-01 9.54613090e-01 9.49400485e-01 9.36959684e-01 9.15297866e-01 8.82895708e-01 8.40780616e-01 7.95399606e-01 7.59374261e-01 7.45196104e-01 7.49551952e-01 
