# vtk DataFile Version 2.0
results_case1_non_linear/iter0.vtk, Created by Freefem++ 
ASCII
DATASET UNSTRUCTURED_GRID
POINTS 961 float
0 0 0
0.033333333 0 0
0.066666667 0 0
0.1 0 0
0.13333333 0 0
0.16666667 0 0
0.2 0 0
0.23333333 0 0
0.26666667 0 0
0.3 0 0
0.33333333 0 0
0.36666667 0 0
0.4 0 0
0.43333333 0 0
0.46666667 0 0
0.5 0 0
0.53333333 0 0
0.56666667 0 0
0.6 0 0
0.63333333 0 0
0.66666667 0 0
0.7 0 0
0.73333333 0 0
0.76666667 0 0
0.8 0 0
0.83333333 0 0
0.86666667 0 0
0.9 0 0
0.93333333 0 0
0.96666667 0 0
1 0 0
0 0.033333333 0
0.033333333 0.033333333 0
0.066666667 0.033333333 0
0.1 0.033333333 0
0.13333333 0.033333333 0
0.16666667 0.033333333 0
0.2 0.033333333 0
0.23333333 0.033333333 0
0.26666667 0.033333333 0
0.3 0.033333333 0
0.33333333 0.033333333 0
0.36666667 0.033333333 0
0.4 0.033333333 0
0.43333333 0.033333333 0
0.46666667 0.033333333 0
0.5 0.033333333 0
0.53333333 0.033333333 0
0.56666667 0.033333333 0
0.6 0.033333333 0
0.63333333 0.033333333 0
0.66666667 0.033333333 0
0.7 0.033333333 0
0.73333333 0.033333333 0
0.76666667 0.033333333 0
0.8 0.033333333 0
0.83333333 0.033333333 0
0.86666667 0.033333333 0
0.9 0.033333333 0
0.93333333 0.033333333 0
0.96666667 0.033333333 0
1 0.033333333 0
0 0.066666667 0
0.033333333 0.066666667 0
0.066666667 0.066666667 0
0.1 0.066666667 0
0.13333333 0.066666667 0
0.16666667 0.066666667 0
0.2 0.066666667 0
0.23333333 0.066666667 0
0.26666667 0.066666667 0
0.3 0.066666667 0
0.33333333 0.066666667 0
0.36666667 0.066666667 0
0.4 0.066666667 0
0.43333333 0.066666667 0
0.46666667 0.066666667 0
0.5 0.066666667 0
0.53333333 0.066666667 0
0.56666667 0.066666667 0
0.6 0.066666667 0
0.63333333 0.066666667 0
0.66666667 0.066666667 0
0.7 0.066666667 0
0.73333333 0.066666667 0
0.76666667 0.066666667 0
0.8 0.066666667 0
0.83333333 0.066666667 0
0.86666667 0.066666667 0
0.9 0.066666667 0
0.93333333 0.066666667 0
0.96666667 0.066666667 0
1 0.066666667 0
0 0.1 0
0.033333333 0.1 0
0.066666667 0.1 0
0.1 0.1 0
0.13333333 0.1 0
0.16666667 0.1 0
0.2 0.1 0
0.23333333 0.1 0
0.26666667 0.1 0
0.3 0.1 0
0.33333333 0.1 0
0.36666667 0.1 0
0.4 0.1 0
0.43333333 0.1 0
0.46666667 0.1 0
0.5 0.1 0
0.53333333 0.1 0
0.56666667 0.1 0
0.6 0.1 0
0.63333333 0.1 0
0.66666667 0.1 0
0.7 0.1 0
0.73333333 0.1 0
0.76666667 0.1 0
0.8 0.1 0
0.83333333 0.1 0
0.86666667 0.1 0
0.9 0.1 0
0.93333333 0.1 0
0.96666667 0.1 0
1 0.1 0
0 0.13333333 0
0.033333333 0.13333333 0
0.066666667 0.13333333 0
0.1 0.13333333 0
0.13333333 0.13333333 0
0.16666667 0.13333333 0
0.2 0.13333333 0
0.23333333 0.13333333 0
0.26666667 0.13333333 0
0.3 0.13333333 0
0.33333333 0.13333333 0
0.36666667 0.13333333 0
0.4 0.13333333 0
0.43333333 0.13333333 0
0.46666667 0.13333333 0
0.5 0.13333333 0
0.53333333 0.13333333 0
0.56666667 0.13333333 0
0.6 0.13333333 0
0.63333333 0.13333333 0
0.66666667 0.13333333 0
0.7 0.13333333 0
0.73333333 0.13333333 0
0.76666667 0.13333333 0
0.8 0.13333333 0
0.83333333 0.13333333 0
0.86666667 0.13333333 0
0.9 0.13333333 0
0.93333333 0.13333333 0
0.96666667 0.13333333 0
1 0.13333333 0
0 0.16666667 0
0.033333333 0.16666667 0
0.066666667 0.16666667 0
0.1 0.16666667 0
0.13333333 0.16666667 0
0.16666667 0.16666667 0
0.2 0.16666667 0
0.23333333 0.16666667 0
0.26666667 0.16666667 0
0.3 0.16666667 0
0.33333333 0.16666667 0
0.36666667 0.16666667 0
0.4 0.16666667 0
0.43333333 0.16666667 0
0.46666667 0.16666667 0
0.5 0.16666667 0
0.53333333 0.16666667 0
0.56666667 0.16666667 0
0.6 0.16666667 0
0.63333333 0.16666667 0
0.66666667 0.16666667 0
0.7 0.16666667 0
0.73333333 0.16666667 0
0.76666667 0.16666667 0
0.8 0.16666667 0
0.83333333 0.16666667 0
0.86666667 0.16666667 0
0.9 0.16666667 0
0.93333333 0.16666667 0
0.96666667 0.16666667 0
1 0.16666667 0
0 0.2 0
0.033333333 0.2 0
0.066666667 0.2 0
0.1 0.2 0
0.13333333 0.2 0
0.16666667 0.2 0
0.2 0.2 0
0.23333333 0.2 0
0.26666667 0.2 0
0.3 0.2 0
0.33333333 0.2 0
0.36666667 0.2 0
0.4 0.2 0
0.43333333 0.2 0
0.46666667 0.2 0
0.5 0.2 0
0.53333333 0.2 0
0.56666667 0.2 0
0.6 0.2 0
0.63333333 0.2 0
0.66666667 0.2 0
0.7 0.2 0
0.73333333 0.2 0
0.76666667 0.2 0
0.8 0.2 0
0.83333333 0.2 0
0.86666667 0.2 0
0.9 0.2 0
0.93333333 0.2 0
0.96666667 0.2 0
1 0.2 0
0 0.23333333 0
0.033333333 0.23333333 0
0.066666667 0.23333333 0
0.1 0.23333333 0
0.13333333 0.23333333 0
0.16666667 0.23333333 0
0.2 0.23333333 0
0.23333333 0.23333333 0
0.26666667 0.23333333 0
0.3 0.23333333 0
0.33333333 0.23333333 0
0.36666667 0.23333333 0
0.4 0.23333333 0
0.43333333 0.23333333 0
0.46666667 0.23333333 0
0.5 0.23333333 0
0.53333333 0.23333333 0
0.56666667 0.23333333 0
0.6 0.23333333 0
0.63333333 0.23333333 0
0.66666667 0.23333333 0
0.7 0.23333333 0
0.73333333 0.23333333 0
0.76666667 0.23333333 0
0.8 0.23333333 0
0.83333333 0.23333333 0
0.86666667 0.23333333 0
0.9 0.23333333 0
0.93333333 0.23333333 0
0.96666667 0.23333333 0
1 0.23333333 0
0 0.26666667 0
0.033333333 0.26666667 0
0.066666667 0.26666667 0
0.1 0.26666667 0
0.13333333 0.26666667 0
0.16666667 0.26666667 0
0.2 0.26666667 0
0.23333333 0.26666667 0
0.26666667 0.26666667 0
0.3 0.26666667 0
0.33333333 0.26666667 0
0.36666667 0.26666667 0
0.4 0.26666667 0
0.43333333 0.26666667 0
0.46666667 0.26666667 0
0.5 0.26666667 0
0.53333333 0.26666667 0
0.56666667 0.26666667 0
0.6 0.26666667 0
0.63333333 0.26666667 0
0.66666667 0.26666667 0
0.7 0.26666667 0
0.73333333 0.26666667 0
0.76666667 0.26666667 0
0.8 0.26666667 0
0.83333333 0.26666667 0
0.86666667 0.26666667 0
0.9 0.26666667 0
0.93333333 0.26666667 0
0.96666667 0.26666667 0
1 0.26666667 0
0 0.3 0
0.033333333 0.3 0
0.066666667 0.3 0
0.1 0.3 0
0.13333333 0.3 0
0.16666667 0.3 0
0.2 0.3 0
0.23333333 0.3 0
0.26666667 0.3 0
0.3 0.3 0
0.33333333 0.3 0
0.36666667 0.3 0
0.4 0.3 0
0.43333333 0.3 0
0.46666667 0.3 0
0.5 0.3 0
0.53333333 0.3 0
0.56666667 0.3 0
0.6 0.3 0
0.63333333 0.3 0
0.66666667 0.3 0
0.7 0.3 0
0.73333333 0.3 0
0.76666667 0.3 0
0.8 0.3 0
0.83333333 0.3 0
0.86666667 0.3 0
0.9 0.3 0
0.93333333 0.3 0
0.96666667 0.3 0
1 0.3 0
0 0.33333333 0
0.033333333 0.33333333 0
0.066666667 0.33333333 0
0.1 0.33333333 0
0.13333333 0.33333333 0
0.16666667 0.33333333 0
0.2 0.33333333 0
0.23333333 0.33333333 0
0.26666667 0.33333333 0
0.3 0.33333333 0
0.33333333 0.33333333 0
0.36666667 0.33333333 0
0.4 0.33333333 0
0.43333333 0.33333333 0
0.46666667 0.33333333 0
0.5 0.33333333 0
0.53333333 0.33333333 0
0.56666667 0.33333333 0
0.6 0.33333333 0
0.63333333 0.33333333 0
0.66666667 0.33333333 0
0.7 0.33333333 0
0.73333333 0.33333333 0
0.76666667 0.33333333 0
0.8 0.33333333 0
0.83333333 0.33333333 0
0.86666667 0.33333333 0
0.9 0.33333333 0
0.93333333 0.33333333 0
0.96666667 0.33333333 0
1 0.33333333 0
0 0.36666667 0
0.033333333 0.36666667 0
0.066666667 0.36666667 0
0.1 0.36666667 0
0.13333333 0.36666667 0
0.16666667 0.36666667 0
0.2 0.36666667 0
0.23333333 0.36666667 0
0.26666667 0.36666667 0
0.3 0.36666667 0
0.33333333 0.36666667 0
0.36666667 0.36666667 0
0.4 0.36666667 0
0.43333333 0.36666667 0
0.46666667 0.36666667 0
0.5 0.36666667 0
0.53333333 0.36666667 0
0.56666667 0.36666667 0
0.6 0.36666667 0
0.63333333 0.36666667 0
0.66666667 0.36666667 0
0.7 0.36666667 0
0.73333333 0.36666667 0
0.76666667 0.36666667 0
0.8 0.36666667 0
0.83333333 0.36666667 0
0.86666667 0.36666667 0
0.9 0.36666667 0
0.93333333 0.36666667 0
0.96666667 0.36666667 0
1 0.36666667 0
0 0.4 0
0.033333333 0.4 0
0.066666667 0.4 0
0.1 0.4 0
0.13333333 0.4 0
0.16666667 0.4 0
0.2 0.4 0
0.23333333 0.4 0
0.26666667 0.4 0
0.3 0.4 0
0.33333333 0.4 0
0.36666667 0.4 0
0.4 0.4 0
0.43333333 0.4 0
0.46666667 0.4 0
0.5 0.4 0
0.53333333 0.4 0
0.56666667 0.4 0
0.6 0.4 0
0.63333333 0.4 0
0.66666667 0.4 0
0.7 0.4 0
0.73333333 0.4 0
0.76666667 0.4 0
0.8 0.4 0
0.83333333 0.4 0
0.86666667 0.4 0
0.9 0.4 0
0.93333333 0.4 0
0.96666667 0.4 0
1 0.4 0
0 0.43333333 0
0.033333333 0.43333333 0
0.066666667 0.43333333 0
0.1 0.43333333 0
0.13333333 0.43333333 0
0.16666667 0.43333333 0
0.2 0.43333333 0
0.23333333 0.43333333 0
0.26666667 0.43333333 0
0.3 0.43333333 0
0.33333333 0.43333333 0
0.36666667 0.43333333 0
0.4 0.43333333 0
0.43333333 0.43333333 0
0.46666667 0.43333333 0
0.5 0.43333333 0
0.53333333 0.43333333 0
0.56666667 0.43333333 0
0.6 0.43333333 0
0.63333333 0.43333333 0
0.66666667 0.43333333 0
0.7 0.43333333 0
0.73333333 0.43333333 0
0.76666667 0.43333333 0
0.8 0.43333333 0
0.83333333 0.43333333 0
0.86666667 0.43333333 0
0.9 0.43333333 0
0.93333333 0.43333333 0
0.96666667 0.43333333 0
1 0.43333333 0
0 0.46666667 0
0.033333333 0.46666667 0
0.066666667 0.46666667 0
0.1 0.46666667 0
0.13333333 0.46666667 0
0.16666667 0.46666667 0
0.2 0.46666667 0
0.23333333 0.46666667 0
0.26666667 0.46666667 0
0.3 0.46666667 0
0.33333333 0.46666667 0
0.36666667 0.46666667 0
0.4 0.46666667 0
0.43333333 0.46666667 0
0.46666667 0.46666667 0
0.5 0.46666667 0
0.53333333 0.46666667 0
0.56666667 0.46666667 0
0.6 0.46666667 0
0.63333333 0.46666667 0
0.66666667 0.46666667 0
0.7 0.46666667 0
0.73333333 0.46666667 0
0.76666667 0.46666667 0
0.8 0.46666667 0
0.83333333 0.46666667 0
0.86666667 0.46666667 0
0.9 0.46666667 0
0.93333333 0.46666667 0
0.96666667 0.46666667 0
1 0.46666667 0
0 0.5 0
0.033333333 0.5 0
0.066666667 0.5 0
0.1 0.5 0
0.13333333 0.5 0
0.16666667 0.5 0
0.2 0.5 0
0.23333333 0.5 0
0.26666667 0.5 0
0.3 0.5 0
0.33333333 0.5 0
0.36666667 0.5 0
0.4 0.5 0
0.43333333 0.5 0
0.46666667 0.5 0
0.5 0.5 0
0.53333333 0.5 0
0.56666667 0.5 0
0.6 0.5 0
0.63333333 0.5 0
0.66666667 0.5 0
0.7 0.5 0
0.73333333 0.5 0
0.76666667 0.5 0
0.8 0.5 0
0.83333333 0.5 0
0.86666667 0.5 0
0.9 0.5 0
0.93333333 0.5 0
0.96666667 0.5 0
1 0.5 0
0 0.53333333 0
0.033333333 0.53333333 0
0.066666667 0.53333333 0
0.1 0.53333333 0
0.13333333 0.53333333 0
0.16666667 0.53333333 0
0.2 0.53333333 0
0.23333333 0.53333333 0
0.26666667 0.53333333 0
0.3 0.53333333 0
0.33333333 0.53333333 0
0.36666667 0.53333333 0
0.4 0.53333333 0
0.43333333 0.53333333 0
0.46666667 0.53333333 0
0.5 0.53333333 0
0.53333333 0.53333333 0
0.56666667 0.53333333 0
0.6 0.53333333 0
0.63333333 0.53333333 0
0.66666667 0.53333333 0
0.7 0.53333333 0
0.73333333 0.53333333 0
0.76666667 0.53333333 0
[...]
CELL_DATA 1920
Scalars  Label int 1
LOOKUP_TABLE FreeFempp_table
0
0
0
0
0
0
0
0
0
0
0
0
0
0
0
0
0
0
0
0
0
0
0
0
0
0
0
0
0
0
0
0
0
0
0
0
0
0
0
0
0
0
0
0
0
0
0
0
0
0
0
0
0
0
0
0
0
0
0
0
0
0
0
0
0
0
0
0
0
0
0
0
0
0
0
0
0
0
0
0
0
0
0
0
0
0
0
0
0
0
0
0
0
0
0
0
0
0
0
0
0
0
0
0
0
0
0
0
0
0
0
0
0
0
0
0
0
0
0
0
0
0
0
0
0
0
0
0
0
0
0
0
0
0
0
0
0
0
0
0
0
0
0
0
0
0
0
0
0
0
0
0
0
0
0
0
0
0
0
0
0
0
0
0
0
0
0
0
0
0
0
0
0
0
0
0
0
0
0
0
0
0
0
0
0
0
0
0
0
0
0
0
0
0
0
0
0
0
0
0
0
0
0
0
0
0
0
0
0
0
0
0
0
0
0
0
0
0
0
0
0
0
0
0
0
0
0
0
0
0
0
0
0
0
0
0
0
0
0
0
0
0
0
0
0
0
0
0
0
0
0
0
0
0
0
0
0
0
0
0
0
0
0
0
0
0
0
0
0
0
0
0
0
0
0
0
0
0
0
0
0
0
0
0
0
0
0
0
0
0
0
0
0
0
0
0
0
0
0
0
0
0
0
0
0
0
0
0
0
0
0
0
0
0
0
0
0
0
0
0
0
0
0
0
0
0
0
0
0
0
0
0
0
0
0
0
0
0
0
0
0
0
0
0
0
0
0
0
0
0
0
0
0
0
0
0
0
0
0
0
0
0
0
0
0
0
0
0
0
0
0
0
0
0
0
0
0
0
0
0
0
0
0
0
0
0
0
0
0
0
0
0
0
0
0
0
0
0
0
0
0
0
0
0
0
0
0
0
0
0
0
0
0
0
0
0
0
0
0
0
0
0
0
0
0
0
0
0
0
0
0
0
0
0
0
0
0
0
0
0
0
0
0
0
0
0
0
0
0
0
0
0
0
0
0
0
0
0
0
0
0
0
0
0
0
0
0
0
0
0
0
0
0
0
0
0
0
0
0
0
0
0
0
0
0
0
0
0
0
0
0
0
0
0
0
0
0
0
0
0
0
0
0
0
0
0
0
0
0
0
0
0
0
0
0
0
0
0
0
0
0
0
0
0
0
0
0
0
0
0
0
0
0
0
0
0
0
0
0
0
0
0
0
0
0
0
0
0
0
0
0
0
0
0
0
0
0
0
0
0
0
0
0
0
0
0
0
0
0
0
0
0
0
0
0
0
0
0
0
0
0
0
0
0
0
0
0
0
0
0
0
0
0
0
0
0
0
0
0
0
0
0
0
0
0
0
0
0
0
0
0
0
0
0
0
0
0
0
0
0
0
0
0
0
0
0
0
0
0
0
0
0
0
0
0
0
0
0
0
0
0
0
0
0
0
0
0
0
0
0
0
0
0
0
0
0
0
0
0
0
0
0
0
0
0
0
0
0
0
0
0
0
0
0
0
0
0
0
0
0
0
0
0
0
0
0
0
0
0
0
0
0
0
0
0
0
0
0
0
0
0
0
0
0
0
0
0
0
0
0
0
0
0
0
0
0
0
0
0
0
0
0
0
0
0
0
0
0
0
0
0
0
0
0
0
0
0
0
0
0
0
0
0
0
0
0
0
0
0
0
0
0
0
0
0
0
0
0
0
0
0
0
0
0
0
0
0
0
0
0
0
0
0
0
0
0
0
0
0
0
0
0
0
0
0
0
0
0
0
0
0
0
0
0
0
0
0
0
0
0
0
0
0
0
0
0
0
0
0
0
0
0
0
0
0
0
0
0
0
0
0
0
0
0
0
0
0
0
0
0
0
0
0
0
0
0
0
0
0
0
0
0
0
0
0
0
0
0
0
0
0
0
0
0
0
0
0
0
0
0
0
0
0
0
0
0
0
0
0
0
0
0
0
0
0
0
0
0
0
0
0
0
0
0
0
0
0
0
0
0
0
0
0
0
0
0
0
0
0
0
0
0
0
0
0
0
0
0
0
0
0
0
0
0
0
0
0
0
0
0
0
0
0
0
0
0
0
0
0
0
0
0
0
0
0
0
0
0
0
0
0
0
0
0
0
0
0
0
0
0
0
0
0
0
0
0
0
0
0
0
0
0
0
0
0
0
0
0
0
0
0
0
0
0
0
0
0
0
0
0
0
0
0
0
0
0
0
0
0
0
0
0
0
0
0
0
0
0
0
0
0
0
0
0
0
0
0
0
0
0
0
0
0
0
0
0
0
0
0
0
0
0
0
0
0
0
0
0
0
0
0
0
0
0
0
0
0
0
0
0
0
0
0
0
0
0
0
0
0
0
0
0
0
0
0
0
0
0
0
0
0
0
0
0
0
0
0
0
0
0
0
0
0
0
0
0
0
0
0
0
0
0
0
0
0
0
0
0
0
0
0
0
0
0
0
0
0
0
0
0
0
0
0
0
0
0
0
0
0
0
0
0
0
0
0
0
0
0
0
0
0
0
0
0
0
0
0
0
0
0
0
0
0
0
0
0
0
0
0
0
0
0
0
0
0
0
0
0
0
0
0
0
0
0
0
0
0
0
0
0
0
0
0
0
0
0
0
0
0
0
0
0
0
0
0
0
0
0
0
0
0
0
0
0
0
0
0
0
0
0
0
0
0
0
0
0
0
0
0
0
0
0
0
0
0
0
0
0
0
0
0
0
0
0
0
0
0
0
0
0
0
0
0
0
0
0
0
0
0
0
0
0
0
0
0
0
0
0
0
0
0
0
0
0
0
0
0
0
0
0
0
0
0
0
0
0
0
0
0
0
0
0
0
0
0
0
0
0
0
0
0
0
0
0
0
0
0
0
0
0
0
0
0
0
0
0
0
0
0
0
0
0
0
0
0
0
0
0
0
0
0
0
0
0
0
0
0
0
0
0
0
0
0
0
0
0
0
0
0
0
0
0
0
0
0
0
0
0
0
0
0
0
0
0
0
0
0
0
0
0
0
0
0
0
0
0
0
0
0
0
0
0
0
0
0
0
0
0
0
0
0
0
0
0
0
0
0
0
0
0
0
0
0
0
0
0
0
0
0
0
0
0
0
0
0
0
0
0
0
0
0
0
0
0
0
0
0
0
0
0
0
0
0
0
0
0
0
0
0
0
0
0
0
0
0
0
0
0
0
0
0
0
0
0
0
0
0
0
0
0
0
0
0
0
0
0
0
0
0
0
0
0
0
0
0
0
0
0
0
0
0
0
0
0
0
0
0
0
0
0
0
0
0
0
0
0
0
0
0
0
0
0
0
0
0
0
0
0
0
0
0
0
0
0
0
0
0
0
0
0
0
0
0
0
0
0
0
0
0
0
0
0
0
0
0
0
0
0
0
0
0
0
0
0
0
0
0
0
0
0
0
0
0
0
0
0
0
0
0
0
0
0
0
0
0
0
0
0
0
0
0
0
0
0
0
0
0
0
0
0
0
0
0
0
0
0
0
0
0
0
0
0
0
0
0
0
0
0
0
0
0
0
0
0
0
0
0
0
0
0
0
0
0
0
0
0
0
0
0
0
0
0
0
0
0
0
0
0
0
0
0
0
0
0
0
0
0
0
0
0
0
0
0
0
0
0
0
0
0
0
0
0
0
0
0
0
0
0
0
0
0
0
0
0
0
0
0
0
0
0
0
0
0
0
0
0
0
0
0
0
0
0
0
0
0
0
0
0
0
0
0
0
0
0
0
0
0
0
0
0
0
0
0
0
0
0
0
0
0
0
0
0
0
0
0
0
0
0
0
0
0
0
0
0
0
0
0
0
0
0
0
0
0
0
0
0
0
0
0
0
0
0
0
0
0
0
0
0
0
0
0
0
0
0
0
0
0
0
0
0
0
0
0
0
0
0
0
0
0
0
0
0
0
0
0
0
0
0
0
0
0
0
0
0
0
0
0
0
0
0
0
0
0
0
0
0
0
0
0
0
0
0
0
0
0
0
0
0
0
0
0
0
0
0
0
0
0
0
0
0
0
0
0
0
0
0
0
0
0
0
1
1
1
1
1
1
1
1
1
1
1
1
1
1
1
1
1
1
1
1
1
1
1
1
1
1
1
1
1
1
2
2
2
2
2
2
2
2
2
2
2
2
2
2
2
2
2
2
2
2
2
2
2
2
2
2
2
2
2
2
3
3
3
3
3
3
3
3
3
3
3
3
3
3
3
3
3
3
3
3
3
3
3
3
3
3
3
3
3
3
4
4
4
4
4
4
4
4
4
4
4
4
4
4
4
4
4
4
4
4
4
4
4
4
4
4
4
4
4
4

LOOKUP_TABLE FreeFempp_table 5
1.00000000 0.00000000 0.00000000 1.00000000
1.00000000 1.00000000 0.00000000 1.00000000
1.00000000 0.00000000 1.00000000 1.00000000
0.00000000 1.00000000 0.00000000 1.00000000
0.00000000 1.00000000 1.00000000 1.00000000

POINT_DATA 961
FIELD FieldData 1
Density 1 961 float
3.29973325e-02 2.15014834e-02 2.14723572e-02 2.14862861e-02 2.15037744e-02 2.16876138e-02 2.18240395e-02 2.13202555e-02 2.16577947e-02 2.14986820e-02 2.14772969e-02 2.14867331e-02 2.15371326e-02 2.15334520e-02 2.15928219e-02 2.15562321e-02 2.15916857e-02 2.09184904e-02 2.11212039e-02 2.13375594e-02 2.24945620e-02 2.60057282e-02 2.31672283e-02 2.13375594e-02 2.19407845e-02 2.14845333e-02 2.12784335e-02 2.16466822e-02 2.18355246e-02 2.15609465e-02 4.79743443e-02 2.14812513e-02 2.75361934e-04 2.24501811e-04 2.93397432e-04 1.90110400e-03 6.33980799e-03 1.22883432e-02 1.84767172e-02 2.46990379e-02 3.06127984e-02 3.55177298e-02 3.99105735e-02 4.39944677e-02 4.66889963e-02 4.91687469e-02 5.07545024e-02 5.44154309e-02 5.41104041e-02 5.36154844e-02 5.36631718e-02 5.60441129e-02 6.31542355e-02 6.41306713e-02 5.76163456e-02 5.77910803e-02 5.76490611e-02 5.73572218e-02 5.75117692e-02 5.81045449e-02 5.80877997e-02 9.51934084e-02 2.16022823e-02 2.31815284e-04 1.87387830e-03 1.23470882e-02 2.55642291e-02 3.71299461e-02 4.55758423e-02 5.09665832e-02 5.41272201e-02 5.57952560e-02 5.75862899e-02 5.90646453e-02 6.12659566e-02 6.37798607e-02 6.66137487e-02 6.98088557e-02 7.33353645e-02 7.79479668e-02 7.85431489e-02 8.37123990e-02 8.71410742e-02 9.02532563e-02 9.44743976e-02 9.55631882e-02 9.73127112e-02 1.01798169e-01 1.02505550e-01 1.04397453e-01 1.05652489e-01 1.05949298e-01 1.66038498e-01 2.14925073e-02 3.05090536e-04 1.19511522e-02 3.12833078e-02 4.60497029e-02 5.30040227e-02 5.60741425e-02 5.85197359e-02 6.22212030e-02 6.72075003e-02 7.34327510e-02 8.07008967e-02 8.85600448e-02 9.67703015e-02 1.05457969e-01 1.13954931e-01 1.22573584e-01 1.31808937e-01 1.35520443e-01 1.45463765e-01 1.53317168e-01 1.57217741e-01 1.65710449e-01 1.70183912e-01 1.74634993e-01 1.79083288e-01 1.82986617e-01 1.86268911e-01 1.87530756e-01 1.88653529e-01 2.53930718e-01 2.14452855e-02 1.50708074e-03 2.42053606e-02 4.50610593e-02 5.36681227e-02 5.75797893e-02 6.20883107e-02 6.91978410e-02 7.89337009e-02 8.99769738e-02 1.03133112e-01 1.16293050e-01 1.29998788e-01 1.43735245e-01 1.57062992e-01 1.70465574e-01 1.82993948e-01 1.96775883e-01 2.08433002e-01 2.16680259e-01 2.27288589e-01 2.37153739e-01 2.45462358e-01 2.53029227e-01 2.56904006e-01 2.68535078e-01 2.70808429e-01 2.73673505e-01 2.75842249e-01 2.77215511e-01 3.44959140e-01 2.17684731e-02 5.64432377e-03 3.52118649e-02 5.21045104e-02 5.74623309e-02 6.27976879e-02 7.36740232e-02 8.70082155e-02 1.03031047e-01 1.20333888e-01 1.38481021e-01 1.57255635e-01 1.75691932e-01 1.94180116e-01 2.11905047e-01 2.28931025e-01 2.45770127e-01 2.61204928e-01 2.76332527e-01 2.90241808e-01 3.01703930e-01 3.13843966e-01 3.25316727e-01 3.34517092e-01 3.41030419e-01 3.44891161e-01 3.57717156e-01 3.59664202e-01 3.62835914e-01 3.64775866e-01 4.32971150e-01 2.14957055e-02 1.04334690e-02 4.36806120e-02 5.54909259e-02 6.12982064e-02 7.13545308e-02 8.82897452e-02 1.08325496e-01 1.29908442e-01 1.52593985e-01 1.75813392e-01 1.98831946e-01 2.21489713e-01 2.44264588e-01 2.65429139e-01 2.85785615e-01 3.05707335e-01 3.25033426e-01 3.42475832e-01 3.58817875e-01 3.74765009e-01 3.88076276e-01 4.00579900e-01 4.11776572e-01 4.22606438e-01 4.28506911e-01 4.37528342e-01 4.42315012e-01 4.45821971e-01 4.48175162e-01 5.16183853e-01 2.14261021e-02 1.52262943e-02 4.89059202e-02 5.77964373e-02 6.75398409e-02 8.42023939e-02 1.05914347e-01 1.30348668e-01 1.57391191e-01 1.84254304e-01 2.11866632e-01 2.38606676e-01 2.65314788e-01 2.91122675e-01 3.16276670e-01 3.40233624e-01 3.62909198e-01 3.84441257e-01 4.04567927e-01 4.23456490e-01 4.41683263e-01 4.57881898e-01 4.70809162e-01 4.83433753e-01 4.95228171e-01 5.05362451e-01 5.11782527e-01 5.18001258e-01 5.23038745e-01 5.25153995e-01 5.93104184e-01 2.15245523e-02 2.00300496e-02 5.17051183e-02 5.97993098e-02 7.33392388e-02 9.57999602e-02 1.23375840e-01 1.50717422e-01 1.82956219e-01 2.13868305e-01 2.45525196e-01 2.76086867e-01 3.06028128e-01 3.35154921e-01 3.62906128e-01 3.89873743e-01 4.15266126e-01 4.39419627e-01 4.61453915e-01 4.82891977e-01 5.02015114e-01 5.19660473e-01 5.35651207e-01 5.49020290e-01 5.61742485e-01 5.72211444e-01 5.80761671e-01 5.87369800e-01 5.92031777e-01 5.95046878e-01 6.62105918e-01 2.15150937e-02 2.45828666e-02 5.39964512e-02 6.23708740e-02 8.05047825e-02 1.07294723e-01 1.39803588e-01 1.71239123e-01 2.07644045e-01 2.42316782e-01 2.75274962e-01 3.09544265e-01 3.42450052e-01 3.74329299e-01 4.04786408e-01 4.34030235e-01 4.61679488e-01 4.88018304e-01 5.12253642e-01 5.35073876e-01 5.55986226e-01 5.74700534e-01 5.91763079e-01 6.07570171e-01 6.20332837e-01 6.31777346e-01 6.40550554e-01 6.47797644e-01 6.52920961e-01 6.55874610e-01 7.22486079e-01 2.14213282e-02 2.76606251e-02 5.48135899e-02 6.51579201e-02 8.75662640e-02 1.18338257e-01 1.54631287e-01 1.90168813e-01 2.25525916e-01 2.66238481e-01 3.02598566e-01 3.38669300e-01 3.74088883e-01 4.08268660e-01 4.41070408e-01 4.72184479e-01 5.02023697e-01 5.29784262e-01 5.55991590e-01 5.80130994e-01 6.02369666e-01 6.22714639e-01 6.40263557e-01 6.56169713e-01 6.70226634e-01 6.81699157e-01 6.91207469e-01 6.98558331e-01 7.03693151e-01 7.06787944e-01 7.71924198e-01 2.14702394e-02 3.06374542e-02 5.55420481e-02 6.81748167e-02 9.39518362e-02 1.27709866e-01 1.65496096e-01 2.07826510e-01 2.45405361e-01 2.84901977e-01 3.24348301e-01 3.62962157e-01 4.00587946e-01 4.36759323e-01 4.71061945e-01 5.04094541e-01 5.35371244e-01 5.64819753e-01 5.92132449e-01 6.17476165e-01 6.40505910e-01 6.61465049e-01 6.80001974e-01 6.96174443e-01 7.10248768e-01 7.21874297e-01 7.31195867e-01 7.38287091e-01 7.43186653e-01 7.46006489e-01 8.10626447e-01 2.14816164e-02 3.28353047e-02 5.84615208e-02 7.04452395e-02 9.91793275e-02 1.35088429e-01 1.75535083e-01 2.16492683e-01 2.60236859e-01 3.00718099e-01 3.43229830e-01 3.82255822e-01 4.21475232e-01 4.59108889e-01 4.95289445e-01 5.29117048e-01 5.61956227e-01 5.92187762e-01 6.20388448e-01 6.46501780e-01 6.70176148e-01 6.91432655e-01 7.10233152e-01 7.26469576e-01 7.40069926e-01 7.50819981e-01 7.58761406e-01 7.64075518e-01 7.67145216e-01 7.68489659e-01 8.37894022e-01 2.15421040e-02 3.54571082e-02 5.67480251e-02 7.53010139e-02 1.02934673e-01 1.41293511e-01 1.82853073e-01 2.26191878e-01 2.69219130e-01 3.13155830e-01 3.55817735e-01 3.96745712e-01 4.36502755e-01 4.75096762e-01 5.12362242e-01 5.47440231e-01 5.80673039e-01 6.11942530e-01 6.40694916e-01 6.67186499e-01 6.91241503e-01 7.12538779e-01 7.31145561e-01 7.46666968e-01 7.58755744e-01 7.66736209e-01 7.69767642e-01 7.67778695e-01 7.62220740e-01 7.56730497e-01 8.47527742e-01 2.07222402e-02 3.52219194e-02 5.53537048e-02 7.12994635e-02 1.05425447e-01 1.44639790e-01 1.87527835e-01 2.31190994e-01 2.75644839e-01 3.19986433e-01 3.62955421e-01 4.04423356e-01 4.45667237e-01 4.85579491e-01 5.22746265e-01 5.58468878e-01 5.92102885e-01 6.23612881e-01 6.52768373e-01 6.79601312e-01 7.03679025e-01 7.25011289e-01 7.43187070e-01 7.57574320e-01 7.66994774e-01 7.69548237e-01 7.62170911e-01 7.46772110e-01 7.42547154e-01 7.44064927e-01 8.46297741e-01 2.15657987e-02 3.65520939e-02 5.88825494e-02 7.49739856e-02 1.07019819e-01 1.45617723e-01 1.88960075e-01 2.33197421e-01 2.77644008e-01 3.21899951e-01 3.65361601e-01 4.07876372e-01 4.48422849e-01 4.88765240e-01 5.26371658e-01 5.62261701e-01 5.95904231e-01 6.27519190e-01 6.56867146e-01 6.83668554e-01 7.07806647e-01 7.29100406e-01 7.47012913e-01 7.60808825e-01 7.68750429e-01 7.67863095e-01 7.54565239e-01 7.41668224e-01 7.44005561e-01 7.44086385e-01 8.46283078e-01 2.22213287e-02 3.12818773e-02 6.02906458e-02 7.27331564e-02 1.05032057e-01 1.43954173e-01 1.87885746e-01 2.31721297e-01 2.76390642e-01 3.19884390e-01 3.62688184e-01 4.05387849e-01 4.45975155e-01 4.85125959e-01 5.22649765e-01 5.58538198e-01 5.92139423e-01 6.23625875e-01 6.52809978e-01 6.79565251e-01 7.03637660e-01 7.24987686e-01 7.43167162e-01 7.57597387e-01 7.67099082e-01 7.69548774e-01 7.62318492e-01 7.47424066e-01 7.42546797e-01 7.44049251e-01 8.46326590e-01 2.61605345e-02 3.47599275e-02 4.97791730e-02 7.49202669e-02 1.02195546e-01 1.42735362e-01 1.82476178e-01 2.26307228e-01 2.69642055e-01 3.13001126e-01 3.55193824e-01 3.96769524e-01 4.37074810e-01 4.75509614e-01 5.12306333e-01 5.47636151e-01 5.80735505e-01 6.11814320e-01 6.40655875e-01 6.67118549e-01 6.91187799e-01 7.12554812e-01 7.31173158e-01 7.46717572e-01 7.58803546e-01 7.66673744e-01 7.69717157e-01 7.67773092e-01 7.62115836e-01 7.56689131e-01 8.47475946e-01 2.06780843e-02 3.67621779e-02 5.40107712e-02 7.26209208e-02 1.02002315e-01 1.38319120e-01 1.76052079e-01 2.16626465e-01 2.59437829e-01 3.00831109e-01 3.42171520e-01 3.82917196e-01 4.21366006e-01 4.59085733e-01 4.94916230e-01 5.29408455e-01 5.61743021e-01 5.92174411e-01 6.20375752e-01 6.46516204e-01 6.70155466e-01 6.91494465e-01 7.10250676e-01 7.26468503e-01 7.40004539e-01 7.50767112e-01 7.58746743e-01 7.64090717e-01 7.67100632e-01 7.68457532e-01 8.37881029e-01 2.09108386e-02 2.82572191e-02 5.67383915e-02 6.91617280e-02 9.31719616e-02 1.28361449e-01 1.65455058e-01 2.05089465e-01 2.45150626e-01 2.85457850e-01 3.24329138e-01 3.63034964e-01 4.00725394e-01 4.36883330e-01 4.71223205e-01 5.04362822e-01 5.35822451e-01 5.64609647e-01 5.91782391e-01 6.17448449e-01 6.40665293e-01 6.61249220e-01 6.80132687e-01 6.96301162e-01 7.10261047e-01 7.21866250e-01 7.31170237e-01 7.38233447e-01 7.43151844e-01 7.46000707e-01 8.10606360e-01 4.29579876e-02 4.08412889e-02 5.03900200e-02 6.79951832e-02 8.30844864e-02 1.46129817e-01 1.59626752e-01 1.89890057e-01 2.29058102e-01 2.66072869e-01 3.02515090e-01 3.38546246e-01 3.73952270e-01 4.08253789e-01 4.42210764e-01 4.72616047e-01 5.02071559e-01 5.30474842e-01 5.55109024e-01 5.80430746e-01 6.02300584e-01 6.22265160e-01 6.40311539e-01 6.56472027e-01 6.70172930e-01 6.81742191e-01 6.91176891e-01 6.98490798e-01 7.03747571e-01 7.06796765e-01 7.71892309e-01 1.90254357e-02 4.57337536e-02 5.42395376e-02 6.89029247e-02 7.74890184e-02 7.76997134e-02 1.35912269e-01 1.76322669e-01 2.08314180e-01 2.42140263e-01 2.75435805e-01 3.09673697e-01 3.42469066e-01 3.74314189e-01 4.04395759e-01 4.33791012e-01 4.61026430e-01 4.87574309e-01 5.12140572e-01 5.34687042e-01 5.55959821e-01 5.75105309e-01 5.92141211e-01 6.07190073e-01 6.20558679e-01 6.31542921e-01 6.40619457e-01 6.47781909e-01 6.52900517e-01 6.55902028e-01 7.22263396e-01 2.58976445e-02 2.03895140e-02 4.74157594e-02 5.86983375e-02 7.48775229e-02 1.02793299e-01 1.00886747e-01 1.62866294e-01 1.83151960e-01 2.13141888e-01 2.44478345e-01 2.75717139e-01 3.06134641e-01 3.35071146e-01 3.63172203e-01 3.86612058e-01 4.16775674e-01 4.38343465e-01 4.61733699e-01 4.83381659e-01 5.01873791e-01 5.19608080e-01 5.35478294e-01 5.49429655e-01 5.61747313e-01 5.72248757e-01 5.80774665e-01 5.87369561e-01 5.92176497e-01 5.95029354e-01 6.62347972e-01 2.25874837e-02 1.68079417e-02 4.89930697e-02 5.65684997e-02 6.46529570e-02 8.14903751e-02 1.14196405e-01 1.29730627e-01 1.56459644e-01 1.84831366e-01 2.11032435e-01 2.38196164e-01 2.65267849e-01 2.91580349e-01 3.17180306e-01 3.38837028e-01 3.62507343e-01 3.85369003e-01 4.04399127e-01 4.23883826e-01 4.41343486e-01 4.56988841e-01 4.71358925e-01 4.84135956e-01 4.95121717e-01 5.04465103e-01 5.12344956e-01 5.18401027e-01 5.22704184e-01 5.25299370e-01 5.93213558e-01 2.14340854e-02 1.08489329e-02 4.39484678e-02 5.54416850e-02 6.13531619e-02 7.28753507e-02 8.86375457e-02 1.08245879e-01 1.29981861e-01 1.52493849e-01 1.76953062e-01 1.99279204e-01 2.22290322e-01 2.43921027e-01 2.64929801e-01 2.86590487e-01 3.06615293e-01 3.24707627e-01 3.42720717e-01 3.58713329e-01 3.74101013e-01 3.88009220e-01 4.00842994e-01 4.11802083e-01 4.21517700e-01 4.29771572e-01 4.36693937e-01 4.42084223e-01 4.45780247e-01 4.48207080e-01 5.16174257e-01 2.25471314e-02 6.03037840e-03 3.57514657e-02 5.20011857e-02 5.73477633e-02 6.43165857e-02 7.36837983e-02 8.69325027e-02 1.02968439e-01 1.20462820e-01 1.38679281e-01 1.57741219e-01 1.75640687e-01 1.94219619e-01 2.14587361e-01 2.28582487e-01 2.46274590e-01 2.61249214e-01 2.75899887e-01 2.89323807e-01 3.02407920e-01 3.14779520e-01 3.24425071e-01 3.35999191e-01 3.42417210e-01 3.49428862e-01 3.55156034e-01 3.59717578e-01 3.63095731e-01 3.64857584e-01 4.32764947e-01 2.22387444e-02 2.14008708e-03 2.43644100e-02 4.47883494e-02 5.30723482e-02 5.77043183e-02 6.24594986e-02 6.94313571e-02 7.89021105e-02 9.04355943e-02 1.03071362e-01 1.16475135e-01 1.29940912e-01 1.43357173e-01 1.56718224e-01 1.70516059e-01 1.82383448e-01 1.97748408e-01 2.05282554e-01 2.15899006e-01 2.27962792e-01 2.37183034e-01 2.45600432e-01 2.51643002e-01 2.57546604e-01 2.65091270e-01 2.69659847e-01 2.73109049e-01 2.75772333e-01 2.77404696e-01 3.44485283e-01 2.14567222e-02 2.29748781e-04 1.03136376e-02 3.12779956e-02 4.36104760e-02 5.21733724e-02 5.64265810e-02 5.61189242e-02 6.41608089e-02 6.83911294e-02 7.34890550e-02 8.05494487e-02 8.89367759e-02 9.58860442e-02 1.05833590e-01 1.13377407e-01 1.23117886e-01 1.30322412e-01 1.38278231e-01 1.45593747e-01 1.52986795e-01 1.59928188e-01 1.65865973e-01 1.73000336e-01 1.74374953e-01 1.80525035e-01 1.83126718e-01 1.85824618e-01 1.87591299e-01 1.88633189e-01 2.53962696e-01 2.22155731e-02 1.08842542e-02 7.09514017e-04 1.04444819e-02 2.62628831e-02 3.70475911e-02 4.96977009e-02 5.11418842e-02 5.26484288e-02 5.77882938e-02 5.55947199e-02 5.95855415e-02 6.14502318e-02 6.36805072e-02 6.65630251e-02 6.99527711e-02 7.31385276e-02 7.72142485e-02 7.96334818e-02 8.77656192e-02 7.38692731e-02 9.48526785e-02 9.23041776e-02 9.60861817e-02 9.87380147e-02 1.01055667e-01 1.03191219e-01 1.04446441e-01 1.05417438e-01 1.06166676e-01 1.65981695e-01 1.91229694e-02 2.58628521e-02 1.27647340e-03 1.02569385e-04 8.93875607e-04 6.72109611e-03 1.20023312e-02 2.11002957e-02 2.13168543e-02 2.88424641e-02 3.30043733e-02 4.04210947e-02 4.38040458e-02 4.60476018e-02 4.91440706e-02 5.06538078e-02 5.19271791e-02 5.31859845e-02 5.38697280e-02 5.52654229e-02 5.88725321e-02 5.73955923e-02 5.63938469e-02 5.63532747e-02 5.61994798e-02 5.68918288e-02 5.72046079e-02 5.72313815e-02 5.73594607e-02 5.75079247e-02 9.50187519e-02 4.65189368e-02 2.03971788e-02 2.27910168e-02 2.34449189e-02 1.99703537e-02 2.20165886e-02 2.19211690e-02 2.27043610e-02 2.12368444e-02 2.04251520e-02 2.10034177e-02 2.14404222e-02 2.13460270e-02 2.13631261e-02 2.14781761e-02 2.14681551e-02 2.16313247e-02 2.14695875e-02 2.15029437e-02 2.26559062e-02 3.47563252e-02 5.95632792e-02 1.99069995e-02 2.13547461e-02 2.15481296e-02 2.14113165e-02 2.14493014e-02 2.14718971e-02 2.14537978e-02 2.15337090e-02 3.29899937e-02 
