# vtk DataFile Version 2.0
results_case1_non_linear/10_density.vtk, Created by Freefem++ 
ASCII
DATASET UNSTRUCTURED_GRID
POINTS 961 float
0 0 0
0.033333333 0 0
0.066666667 0 0
0.1 0 0
0.13333333 0 0
0.16666667 0 0
0.2 0 0
0.23333333 0 0
0.26666667 0 0
0.3 0 0
0.33333333 0 0
0.36666667 0 0
0.4 0 0
0.43333333 0 0
0.46666667 0 0
0.5 0 0
0.53333333 0 0
0.56666667 0 0
0.6 0 0
0.63333333 0 0
0.66666667 0 0
0.7 0 0
0.73333333 0 0
0.76666667 0 0
0.8 0 0
0.83333333 0 0
0.86666667 0 0
0.9 0 0
0.93333333 0 0
0.96666667 0 0
1 0 0
0 0.033333333 0
0.033333333 0.033333333 0
0.066666667 0.033333333 0
0.1 0.033333333 0
0.13333333 0.033333333 0
0.16666667 0.033333333 0
0.2 0.033333333 0
0.23333333 0.033333333 0
0.26666667 0.033333333 0
0.3 0.033333333 0
0.33333333 0.033333333 0
0.36666667 0.033333333 0
0.4 0.033333333 0
0.43333333 0.033333333 0
0.46666667 0.033333333 0
0.5 0.033333333 0
0.53333333 0.033333333 0
0.56666667 0.033333333 0
0.6 0.033333333 0
0.63333333 0.033333333 0
0.66666667 0.033333333 0
0.7 0.033333333 0
0.73333333 0.033333333 0
0.76666667 0.033333333 0
0.8 0.033333333 0
0.83333333 0.033333333 0
0.86666667 0.033333333 0
0.9 0.033333333 0
0.93333333 0.033333333 0
0.96666667 0.033333333 0
1 0.033333333 0
0 0.066666667 0
0.033333333 0.066666667 0
0.066666667 0.066666667 0
0.1 0.066666667 0
0.13333333 0.066666667 0
0.16666667 0.066666667 0
0.2 0.066666667 0
0.23333333 0.066666667 0
0.26666667 0.066666667 0
0.3 0.066666667 0
0.33333333 0.066666667 0
0.36666667 0.066666667 0
0.4 0.066666667 0
0.43333333 0.066666667 0
0.46666667 0.066666667 0
0.5 0.066666667 0
0.53333333 0.066666667 0
0.56666667 0.066666667 0
0.6 0.066666667 0
0.63333333 0.066666667 0
0.66666667 0.066666667 0
0.7 0.066666667 0
0.73333333 0.066666667 0
0.76666667 0.066666667 0
0.8 0.066666667 0
0.83333333 0.066666667 0
0.86666667 0.066666667 0
0.9 0.066666667 0
0.93333333 0.066666667 0
0.96666667 0.066666667 0
1 0.066666667 0
0 0.1 0
0.033333333 0.1 0
0.066666667 0.1 0
0.1 0.1 0
0.13333333 0.1 0
0.16666667 0.1 0
0.2 0.1 0
0.23333333 0.1 0
0.26666667 0.1 0
0.3 0.1 0
0.33333333 0.1 0
0.36666667 0.1 0
0.4 0.1 0
0.43333333 0.1 0
0.46666667 0.1 0
0.5 0.1 0
0.53333333 0.1 0
0.56666667 0.1 0
0.6 0.1 0
0.63333333 0.1 0
0.66666667 0.1 0
0.7 0.1 0
0.73333333 0.1 0
0.76666667 0.1 0
0.8 0.1 0
0.83333333 0.1 0
0.86666667 0.1 0
0.9 0.1 0
0.93333333 0.1 0
0.96666667 0.1 0
1 0.1 0
0 0.13333333 0
0.033333333 0.13333333 0
0.066666667 0.13333333 0
0.1 0.13333333 0
0.13333333 0.13333333 0
0.16666667 0.13333333 0
0.2 0.13333333 0
0.23333333 0.13333333 0
0.26666667 0.13333333 0
0.3 0.13333333 0
0.33333333 0.13333333 0
0.36666667 0.13333333 0
0.4 0.13333333 0
0.43333333 0.13333333 0
0.46666667 0.13333333 0
0.5 0.13333333 0
0.53333333 0.13333333 0
0.56666667 0.13333333 0
0.6 0.13333333 0
0.63333333 0.13333333 0
0.66666667 0.13333333 0
0.7 0.13333333 0
0.73333333 0.13333333 0
0.76666667 0.13333333 0
0.8 0.13333333 0
0.83333333 0.13333333 0
0.86666667 0.13333333 0
0.9 0.13333333 0
0.93333333 0.13333333 0
0.96666667 0.13333333 0
1 0.13333333 0
0 0.16666667 0
0.033333333 0.16666667 0
0.066666667 0.16666667 0
0.1 0.16666667 0
0.13333333 0.16666667 0
0.16666667 0.16666667 0
0.2 0.16666667 0
0.23333333 0.16666667 0
0.26666667 0.16666667 0
0.3 0.16666667 0
0.33333333 0.16666667 0
0.36666667 0.16666667 0
0.4 0.16666667 0
0.43333333 0.16666667 0
0.46666667 0.16666667 0
0.5 0.16666667 0
0.53333333 0.16666667 0
0.56666667 0.16666667 0
0.6 0.16666667 0
0.63333333 0.16666667 0
0.66666667 0.16666667 0
0.7 0.16666667 0
0.73333333 0.16666667 0
0.76666667 0.16666667 0
0.8 0.16666667 0
0.83333333 0.16666667 0
0.86666667 0.16666667 0
0.9 0.16666667 0
0.93333333 0.16666667 0
0.96666667 0.16666667 0
1 0.16666667 0
0 0.2 0
0.033333333 0.2 0
0.066666667 0.2 0
0.1 0.2 0
0.13333333 0.2 0
0.16666667 0.2 0
0.2 0.2 0
0.23333333 0.2 0
0.26666667 0.2 0
0.3 0.2 0
0.33333333 0.2 0
0.36666667 0.2 0
0.4 0.2 0
0.43333333 0.2 0
0.46666667 0.2 0
0.5 0.2 0
0.53333333 0.2 0
0.56666667 0.2 0
0.6 0.2 0
0.63333333 0.2 0
0.66666667 0.2 0
0.7 0.2 0
0.73333333 0.2 0
0.76666667 0.2 0
0.8 0.2 0
0.83333333 0.2 0
0.86666667 0.2 0
0.9 0.2 0
0.93333333 0.2 0
0.96666667 0.2 0
1 0.2 0
0 0.23333333 0
0.033333333 0.23333333 0
0.066666667 0.23333333 0
0.1 0.23333333 0
0.13333333 0.23333333 0
0.16666667 0.23333333 0
0.2 0.23333333 0
0.23333333 0.23333333 0
0.26666667 0.23333333 0
0.3 0.23333333 0
0.33333333 0.23333333 0
0.36666667 0.23333333 0
0.4 0.23333333 0
0.43333333 0.23333333 0
0.46666667 0.23333333 0
0.5 0.23333333 0
0.53333333 0.23333333 0
0.56666667 0.23333333 0
0.6 0.23333333 0
0.63333333 0.23333333 0
0.66666667 0.23333333 0
0.7 0.23333333 0
0.73333333 0.23333333 0
0.76666667 0.23333333 0
0.8 0.23333333 0
0.83333333 0.23333333 0
0.86666667 0.23333333 0
0.9 0.23333333 0
0.93333333 0.23333333 0
0.96666667 0.23333333 0
1 0.23333333 0
0 0.26666667 0
0.033333333 0.26666667 0
0.066666667 0.26666667 0
0.1 0.26666667 0
0.13333333 0.26666667 0
0.16666667 0.26666667 0
0.2 0.26666667 0
0.23333333 0.26666667 0
0.26666667 0.26666667 0
0.3 0.26666667 0
0.33333333 0.26666667 0
0.36666667 0.26666667 0
0.4 0.26666667 0
0.43333333 0.26666667 0
0.46666667 0.26666667 0
0.5 0.26666667 0
0.53333333 0.26666667 0
0.56666667 0.26666667 0
0.6 0.26666667 0
0.63333333 0.26666667 0
0.66666667 0.26666667 0
0.7 0.26666667 0
0.73333333 0.26666667 0
0.76666667 0.26666667 0
0.8 0.26666667 0
0.83333333 0.26666667 0
0.86666667 0.26666667 0
0.9 0.26666667 0
0.93333333 0.26666667 0
0.96666667 0.26666667 0
1 0.26666667 0
0 0.3 0
0.033333333 0.3 0
0.066666667 0.3 0
0.1 0.3 0
0.13333333 0.3 0
0.16666667 0.3 0
0.2 0.3 0
0.23333333 0.3 0
0.26666667 0.3 0
0.3 0.3 0
0.33333333 0.3 0
0.36666667 0.3 0
0.4 0.3 0
0.43333333 0.3 0
0.46666667 0.3 0
0.5 0.3 0
0.53333333 0.3 0
0.56666667 0.3 0
0.6 0.3 0
0.63333333 0.3 0
0.66666667 0.3 0
0.7 0.3 0
0.73333333 0.3 0
0.76666667 0.3 0
0.8 0.3 0
0.83333333 0.3 0
0.86666667 0.3 0
0.9 0.3 0
0.93333333 0.3 0
0.96666667 0.3 0
1 0.3 0
0 0.33333333 0
0.033333333 0.33333333 0
0.066666667 0.33333333 0
0.1 0.33333333 0
0.13333333 0.33333333 0
0.16666667 0.33333333 0
0.2 0.33333333 0
0.23333333 0.33333333 0
0.26666667 0.33333333 0
0.3 0.33333333 0
0.33333333 0.33333333 0
0.36666667 0.33333333 0
0.4 0.33333333 0
0.43333333 0.33333333 0
0.46666667 0.33333333 0
0.5 0.33333333 0
0.53333333 0.33333333 0
0.56666667 0.33333333 0
0.6 0.33333333 0
0.63333333 0.33333333 0
0.66666667 0.33333333 0
0.7 0.33333333 0
0.73333333 0.33333333 0
0.76666667 0.33333333 0
0.8 0.33333333 0
0.83333333 0.33333333 0
0.86666667 0.33333333 0
0.9 0.33333333 0
0.93333333 0.33333333 0
0.96666667 0.33333333 0
1 0.33333333 0
0 0.36666667 0
0.033333333 0.36666667 0
0.066666667 0.36666667 0
0.1 0.36666667 0
0.13333333 0.36666667 0
0.16666667 0.36666667 0
0.2 0.36666667 0
0.23333333 0.36666667 0
0.26666667 0.36666667 0
0.3 0.36666667 0
0.33333333 0.36666667 0
0.36666667 0.36666667 0
0.4 0.36666667 0
0.43333333 0.36666667 0
0.46666667 0.36666667 0
0.5 0.36666667 0
0.53333333 0.36666667 0
0.56666667 0.36666667 0
0.6 0.36666667 0
0.63333333 0.36666667 0
0.66666667 0.36666667 0
0.7 0.36666667 0
0.73333333 0.36666667 0
0.76666667 0.36666667 0
0.8 0.36666667 0
0.83333333 0.36666667 0
0.86666667 0.36666667 0
0.9 0.36666667 0
0.93333333 0.36666667 0
0.96666667 0.36666667 0
1 0.36666667 0
0 0.4 0
0.033333333 0.4 0
0.066666667 0.4 0
0.1 0.4 0
0.13333333 0.4 0
0.16666667 0.4 0
0.2 0.4 0
0.23333333 0.4 0
0.26666667 0.4 0
0.3 0.4 0
0.33333333 0.4 0
0.36666667 0.4 0
0.4 0.4 0
0.43333333 0.4 0
0.46666667 0.4 0
0.5 0.4 0
0.53333333 0.4 0
0.56666667 0.4 0
0.6 0.4 0
0.63333333 0.4 0
0.66666667 0.4 0
0.7 0.4 0
0.73333333 0.4 0
0.76666667 0.4 0
0.8 0.4 0
0.83333333 0.4 0
0.86666667 0.4 0
0.9 0.4 0
0.93333333 0.4 0
0.96666667 0.4 0
1 0.4 0
0 0.43333333 0
0.033333333 0.43333333 0
0.066666667 0.43333333 0
0.1 0.43333333 0
0.13333333 0.43333333 0
0.16666667 0.43333333 0
0.2 0.43333333 0
0.23333333 0.43333333 0
0.26666667 0.43333333 0
0.3 0.43333333 0
0.33333333 0.43333333 0
0.36666667 0.43333333 0
0.4 0.43333333 0
0.43333333 0.43333333 0
0.46666667 0.43333333 0
0.5 0.43333333 0
0.53333333 0.43333333 0
0.56666667 0.43333333 0
0.6 0.43333333 0
0.63333333 0.43333333 0
0.66666667 0.43333333 0
0.7 0.43333333 0
0.73333333 0.43333333 0
0.76666667 0.43333333 0
0.8 0.43333333 0
0.83333333 0.43333333 0
0.86666667 0.43333333 0
0.9 0.43333333 0
0.93333333 0.43333333 0
0.96666667 0.43333333 0
1 0.43333333 0
0 0.46666667 0
0.033333333 0.46666667 0
0.066666667 0.46666667 0
0.1 0.46666667 0
0.13333333 0.46666667 0
0.16666667 0.46666667 0
0.2 0.46666667 0
0.23333333 0.46666667 0
0.26666667 0.46666667 0
0.3 0.46666667 0
0.33333333 0.46666667 0
0.36666667 0.46666667 0
0.4 0.46666667 0
0.43333333 0.46666667 0
0.46666667 0.46666667 0
0.5 0.46666667 0
0.53333333 0.46666667 0
0.56666667 0.46666667 0
0.6 0.46666667 0
0.63333333 0.46666667 0
0.66666667 0.46666667 0
0.7 0.46666667 0
0.73333333 0.46666667 0
0.76666667 0.46666667 0
0.8 0.46666667 0
0.83333333 0.46666667 0
0.86666667 0.46666667 0
0.9 0.46666667 0
0.93333333 0.46666667 0
0.96666667 0.46666667 0
1 0.46666667 0
0 0.5 0
0.033333333 0.5 0
0.066666667 0.5 0
0.1 0.5 0
0.13333333 0.5 0
0.16666667 0.5 0
0.2 0.5 0
0.23333333 0.5 0
0.26666667 0.5 0
0.3 0.5 0
0.33333333 0.5 0
0.36666667 0.5 0
0.4 0.5 0
0.43333333 0.5 0
0.46666667 0.5 0
0.5 0.5 0
0.53333333 0.5 0
0.56666667 0.5 0
0.6 0.5 0
0.63333333 0.5 0
0.66666667 0.5 0
0.7 0.5 0
0.73333333 0.5 0
0.76666667 0.5 0
0.8 0.5 0
0.83333333 0.5 0
0.86666667 0.5 0
0.9 0.5 0
0.93333333 0.5 0
0.96666667 0.5 0
1 0.5 0
0 0.53333333 0
0.033333333 0.53333333 0
0.066666667 0.53333333 0
0.1 0.53333333 0
0.13333333 0.53333333 0
0.16666667 0.53333333 0
0.2 0.53333333 0
0.23333333 0.53333333 0
0.26666667 0.53333333 0
0.3 0.53333333 0
0.33333333 0.53333333 0
0.36666667 0.53333333 0
0.4 0.53333333 0
0.43333333 0.53333333 0
0.46666667 0.53333333 0
0.5 0.53333333 0
0.53333333 0.53333333 0
0.56666667 0.53333333 0
0.6 0.53333333 0
0.63333333 0.53333333 0
0.66666667 0.53333333 0
0.7 0.53333333 0
0.73333333 0.53333333 0
0.76666667 0.53333333 0
[...]
CELL_DATA 1920
Scalars  Label int 1
LOOKUP_TABLE FreeFempp_table
0
0
0
0
0
0
0
0
0
0
0
0
0
0
0
0
0
0
0
0
0
0
0
0
0
0
0
0
0
0
0
0
0
0
0
0
0
0
0
0
0
0
0
0
0
0
0
0
0
0
0
0
0
0
0
0
0
0
0
0
0
0
0
0
0
0
0
0
0
0
0
0
0
0
0
0
0
0
0
0
0
0
0
0
0
0
0
0
0
0
0
0
0
0
0
0
0
0
0
0
0
0
0
0
0
0
0
0
0
0
0
0
0
0
0
0
0
0
0
0
0
0
0
0
0
0
0
0
0
0
0
0
0
0
0
0
0
0
0
0
0
0
0
0
0
0
0
0
0
0
0
0
0
0
0
0
0
0
0
0
0
0
0
0
0
0
0
0
0
0
0
0
0
0
0
0
0
0
0
0
0
0
0
0
0
0
0
0
0
0
0
0
0
0
0
0
0
0
0
0
0
0
0
0
0
0
0
0
0
0
0
0
0
0
0
0
0
0
0
0
0
0
0
0
0
0
0
0
0
0
0
0
0
0
0
0
0
0
0
0
0
0
0
0
0
0
0
0
0
0
0
0
0
0
0
0
0
0
0
0
0
0
0
0
0
0
0
0
0
0
0
0
0
0
0
0
0
0
0
0
0
0
0
0
0
0
0
0
0
0
0
0
0
0
0
0
0
0
0
0
0
0
0
0
0
0
0
0
0
0
0
0
0
0
0
0
0
0
0
0
0
0
0
0
0
0
0
0
0
0
0
0
0
0
0
0
0
0
0
0
0
0
0
0
0
0
0
0
0
0
0
0
0
0
0
0
0
0
0
0
0
0
0
0
0
0
0
0
0
0
0
0
0
0
0
0
0
0
0
0
0
0
0
0
0
0
0
0
0
0
0
0
0
0
0
0
0
0
0
0
0
0
0
0
0
0
0
0
0
0
0
0
0
0
0
0
0
0
0
0
0
0
0
0
0
0
0
0
0
0
0
0
0
0
0
0
0
0
0
0
0
0
0
0
0
0
0
0
0
0
0
0
0
0
0
0
0
0
0
0
0
0
0
0
0
0
0
0
0
0
0
0
0
0
0
0
0
0
0
0
0
0
0
0
0
0
0
0
0
0
0
0
0
0
0
0
0
0
0
0
0
0
0
0
0
0
0
0
0
0
0
0
0
0
0
0
0
0
0
0
0
0
0
0
0
0
0
0
0
0
0
0
0
0
0
0
0
0
0
0
0
0
0
0
0
0
0
0
0
0
0
0
0
0
0
0
0
0
0
0
0
0
0
0
0
0
0
0
0
0
0
0
0
0
0
0
0
0
0
0
0
0
0
0
0
0
0
0
0
0
0
0
0
0
0
0
0
0
0
0
0
0
0
0
0
0
0
0
0
0
0
0
0
0
0
0
0
0
0
0
0
0
0
0
0
0
0
0
0
0
0
0
0
0
0
0
0
0
0
0
0
0
0
0
0
0
0
0
0
0
0
0
0
0
0
0
0
0
0
0
0
0
0
0
0
0
0
0
0
0
0
0
0
0
0
0
0
0
0
0
0
0
0
0
0
0
0
0
0
0
0
0
0
0
0
0
0
0
0
0
0
0
0
0
0
0
0
0
0
0
0
0
0
0
0
0
0
0
0
0
0
0
0
0
0
0
0
0
0
0
0
0
0
0
0
0
0
0
0
0
0
0
0
0
0
0
0
0
0
0
0
0
0
0
0
0
0
0
0
0
0
0
0
0
0
0
0
0
0
0
0
0
0
0
0
0
0
0
0
0
0
0
0
0
0
0
0
0
0
0
0
0
0
0
0
0
0
0
0
0
0
0
0
0
0
0
0
0
0
0
0
0
0
0
0
0
0
0
0
0
0
0
0
0
0
0
0
0
0
0
0
0
0
0
0
0
0
0
0
0
0
0
0
0
0
0
0
0
0
0
0
0
0
0
0
0
0
0
0
0
0
0
0
0
0
0
0
0
0
0
0
0
0
0
0
0
0
0
0
0
0
0
0
0
0
0
0
0
0
0
0
0
0
0
0
0
0
0
0
0
0
0
0
0
0
0
0
0
0
0
0
0
0
0
0
0
0
0
0
0
0
0
0
0
0
0
0
0
0
0
0
0
0
0
0
0
0
0
0
0
0
0
0
0
0
0
0
0
0
0
0
0
0
0
0
0
0
0
0
0
0
0
0
0
0
0
0
0
0
0
0
0
0
0
0
0
0
0
0
0
0
0
0
0
0
0
0
0
0
0
0
0
0
0
0
0
0
0
0
0
0
0
0
0
0
0
0
0
0
0
0
0
0
0
0
0
0
0
0
0
0
0
0
0
0
0
0
0
0
0
0
0
0
0
0
0
0
0
0
0
0
0
0
0
0
0
0
0
0
0
0
0
0
0
0
0
0
0
0
0
0
0
0
0
0
0
0
0
0
0
0
0
0
0
0
0
0
0
0
0
0
0
0
0
0
0
0
0
0
0
0
0
0
0
0
0
0
0
0
0
0
0
0
0
0
0
0
0
0
0
0
0
0
0
0
0
0
0
0
0
0
0
0
0
0
0
0
0
0
0
0
0
0
0
0
0
0
0
0
0
0
0
0
0
0
0
0
0
0
0
0
0
0
0
0
0
0
0
0
0
0
0
0
0
0
0
0
0
0
0
0
0
0
0
0
0
0
0
0
0
0
0
0
0
0
0
0
0
0
0
0
0
0
0
0
0
0
0
0
0
0
0
0
0
0
0
0
0
0
0
0
0
0
0
0
0
0
0
0
0
0
0
0
0
0
0
0
0
0
0
0
0
0
0
0
0
0
0
0
0
0
0
0
0
0
0
0
0
0
0
0
0
0
0
0
0
0
0
0
0
0
0
0
0
0
0
0
0
0
0
0
0
0
0
0
0
0
0
0
0
0
0
0
0
0
0
0
0
0
0
0
0
0
0
0
0
0
0
0
0
0
0
0
0
0
0
0
0
0
0
0
0
0
0
0
0
0
0
0
0
0
0
0
0
0
0
0
0
0
0
0
0
0
0
0
0
0
0
0
0
0
0
0
0
0
0
0
0
0
0
0
0
0
0
0
0
0
0
0
0
0
0
0
0
0
0
0
0
0
0
0
0
0
0
0
0
0
0
0
0
0
0
0
0
0
0
0
0
0
0
0
0
0
0
0
0
0
0
0
0
0
0
0
0
0
0
0
0
0
0
0
0
0
0
0
0
0
0
0
0
0
0
0
0
0
0
0
0
0
0
0
0
0
0
0
0
0
0
0
0
0
0
0
0
0
0
0
0
0
0
0
0
0
0
0
0
0
0
0
0
0
0
0
0
0
0
0
0
0
0
0
0
0
0
0
0
0
0
0
0
0
0
0
0
0
0
0
0
0
0
0
0
0
0
0
0
0
0
0
0
0
0
0
0
0
0
0
0
0
0
0
0
0
0
0
0
0
0
0
0
0
0
0
0
0
0
0
0
0
0
0
0
0
0
0
0
0
0
0
0
0
0
0
0
0
0
0
0
0
0
0
0
0
0
0
0
0
0
0
0
0
0
0
0
0
0
0
0
0
0
0
0
0
0
0
0
0
0
0
0
0
0
0
0
0
0
0
0
0
0
0
0
0
0
0
0
0
0
0
0
0
0
0
0
0
0
0
0
0
0
0
0
0
0
0
0
0
0
0
0
0
0
0
0
0
0
0
0
0
0
0
0
0
0
0
0
0
0
0
0
0
0
0
0
0
0
0
0
0
0
0
0
0
0
0
0
0
0
0
0
0
0
0
0
0
0
0
0
0
0
0
0
0
0
0
0
0
0
0
0
0
0
0
0
0
0
0
0
0
0
0
0
0
0
0
0
0
0
0
0
0
0
0
0
0
0
0
0
0
0
0
0
0
0
0
0
0
0
0
0
0
0
0
0
0
0
0
0
0
0
0
0
0
0
0
0
0
0
0
0
0
0
0
0
0
0
0
0
0
0
0
0
0
0
0
0
0
0
0
0
0
0
0
0
0
0
0
0
0
0
0
0
0
0
0
0
0
0
0
0
0
0
0
0
0
0
0
0
0
0
0
0
0
0
0
0
0
0
0
0
1
1
1
1
1
1
1
1
1
1
1
1
1
1
1
1
1
1
1
1
1
1
1
1
1
1
1
1
1
1
2
2
2
2
2
2
2
2
2
2
2
2
2
2
2
2
2
2
2
2
2
2
2
2
2
2
2
2
2
2
3
3
3
3
3
3
3
3
3
3
3
3
3
3
3
3
3
3
3
3
3
3
3
3
3
3
3
3
3
3
4
4
4
4
4
4
4
4
4
4
4
4
4
4
4
4
4
4
4
4
4
4
4
4
4
4
4
4
4
4

LOOKUP_TABLE FreeFempp_table 5
1.00000000 0.00000000 0.00000000 1.00000000
1.00000000 1.00000000 0.00000000 1.00000000
1.00000000 0.00000000 1.00000000 1.00000000
0.00000000 1.00000000 0.00000000 1.00000000
0.00000000 1.00000000 1.00000000 1.00000000

POINT_DATA 961
FIELD FieldData 1
Density 1 961 float
8.15199465e-02 5.37812859e-02 8.47817659e-02 1.75522074e-01 2.80325621e-01 4.93685335e-01 6.15100861e-01 4.99832898e-01 3.89485091e-01 2.81164497e-01 2.64698684e-01 2.69090474e-01 2.77602732e-01 2.85032928e-01 2.90658921e-01 2.95013607e-01 2.98491776e-01 3.00769478e-01 3.00702214e-01 2.95651585e-01 2.85550088e-01 2.82094806e-01 2.82211065e-01 2.82318711e-01 2.83465087e-01 2.89363414e-01 2.98936903e-01 2.98947930e-01 3.56050104e-01 4.68095392e-01 4.74038452e-01 2.14990880e-02 1.79580115e-02 2.50071269e-02 4.85367067e-02 9.49402675e-02 3.13932657e-01 6.21023417e-01 4.32794154e-01 2.95246214e-01 1.02546901e-01 6.17401190e-02 5.83531037e-02 6.14358969e-02 6.35276660e-02 6.49253204e-02 6.59290031e-02 6.66545555e-02 6.71518296e-02 6.72573969e-02 6.67224228e-02 6.58657923e-02 6.53704181e-02 6.30035773e-02 6.13710992e-02 6.25106394e-02 6.39212579e-02 6.66415468e-02 7.13641271e-02 1.18505828e-01 3.35932553e-01 3.96121502e-01 3.00011132e-03 8.23058095e-03 2.34779138e-02 2.26386301e-02 5.72838001e-02 1.86162561e-01 5.59677422e-01 1.80849761e-01 5.75706027e-02 1.50773926e-02 -2.48899683e-03 1.68685671e-02 5.49801923e-02 6.41825572e-02 6.58075884e-02 6.52592331e-02 6.39729276e-02 6.24017343e-02 6.08273745e-02 5.95750324e-02 5.49003445e-02 3.42149511e-02 8.73942114e-03 2.01262720e-02 5.04615046e-02 5.83942942e-02 6.02004342e-02 5.86777404e-02 4.01577987e-02 5.05802743e-02 8.20673630e-02 -4.80481843e-03 3.23237479e-02 1.65584192e-01 1.97903976e-01 1.86928242e-01 2.93541759e-01 1.54914841e-01 4.58631217e-02 5.60782477e-03 4.62073721e-02 6.71145171e-02 1.12797029e-01 2.96778411e-01 3.61687511e-01 3.73613030e-01 3.71772319e-01 3.65238905e-01 3.56592178e-01 3.46774220e-01 3.35564047e-01 3.13575417e-01 2.18366280e-01 7.20840171e-02 9.52839926e-02 2.65954971e-01 3.25394094e-01 3.36201072e-01 3.23383361e-01 2.56472498e-01 9.01406854e-02 5.18582575e-02 1.31423818e-04 9.28812474e-02 4.42316383e-01 5.82233191e-01 5.51104605e-01 1.56841323e-01 3.45107988e-02 1.13756536e-02 8.68098512e-02 2.64777154e-01 3.55755717e-01 3.86835098e-01 4.34063047e-01 4.64867800e-01 4.68053550e-01 4.64603752e-01 4.57039595e-01 4.45683390e-01 4.30571824e-01 4.12020534e-01 3.87412876e-01 3.06425780e-01 1.10476837e-01 1.05161436e-01 2.96395808e-01 3.81578803e-01 3.99253607e-01 3.93975854e-01 3.61757278e-01 3.08364719e-01 2.96106577e-01 7.86279794e-03 1.02262340e-01 5.92460096e-01 6.39450490e-01 2.34039262e-01 5.40960431e-02 1.03708040e-02 9.29381326e-02 3.05090040e-01 4.17575032e-01 4.67373490e-01 4.80559379e-01 4.84141797e-01 4.83375162e-01 4.80678886e-01 4.77505505e-01 4.71908748e-01 4.62265462e-01 4.46836889e-01 4.24189508e-01 3.91592860e-01 3.21909517e-01 1.48608595e-01 1.06445976e-01 2.67215729e-01 3.66330683e-01 3.95923376e-01 4.04669255e-01 3.95028085e-01 3.80767792e-01 3.94523233e-01 -5.94652351e-03 6.38227090e-02 2.39984959e-01 1.69532582e-01 5.28218001e-02 -5.21947443e-03 5.83582632e-02 2.90248275e-01 4.29041386e-01 4.83102471e-01 4.91831899e-01 4.92692709e-01 4.93700415e-01 4.95260894e-01 4.96376693e-01 4.96193409e-01 4.93820995e-01 4.87782896e-01 4.75531727e-01 4.53279436e-01 4.14488077e-01 3.42775851e-01 2.05707029e-01 9.87130329e-02 1.63927421e-01 3.35226476e-01 4.11146730e-01 4.43536460e-01 4.56443638e-01 4.54095811e-01 4.54426467e-01 -2.99431221e-03 1.31132722e-01 5.30438542e-01 1.15752190e-01 6.59838086e-03 2.96031069e-02 1.29012078e-01 3.91137332e-01 4.86081332e-01 4.99549180e-01 5.00856400e-01 5.03712952e-01 5.07892132e-01 5.12768090e-01 5.17404735e-01 5.21133304e-01 5.23437262e-01 5.23243785e-01 5.18378854e-01 5.04812360e-01 4.74772573e-01 4.13936079e-01 3.05989206e-01 1.87192217e-01 1.80518389e-01 3.59234899e-01 4.74234790e-01 5.23088455e-01 5.47760308e-01 5.50312698e-01 5.32773077e-01 -5.08668367e-03 1.39692575e-01 6.13530576e-01 1.56568557e-01 2.62252055e-02 1.08137511e-01 3.45552325e-01 4.68733698e-01 5.07711768e-01 5.08995771e-01 5.12435257e-01 5.18133044e-01 5.24898350e-01 5.32337248e-01 5.40025055e-01 5.47648311e-01 5.54937243e-01 5.61338723e-01 5.65714836e-01 5.65898478e-01 5.57880461e-01 5.35390198e-01 4.92105544e-01 4.35854882e-01 4.19707716e-01 5.16484916e-01 5.95316112e-01 6.28082633e-01 6.44191444e-01 6.41474068e-01 6.06344700e-01 -1.20506214e-03 1.50318056e-01 6.44457638e-01 1.71094015e-01 5.92812784e-02 2.20760792e-01 4.35550809e-01 5.06388724e-01 5.12616456e-01 5.16225696e-01 5.23571372e-01 5.31932235e-01 5.40869415e-01 5.50303400e-01 5.60084999e-01 5.70127904e-01 5.80392361e-01 5.90752125e-01 6.00894570e-01 6.10310137e-01 6.18560433e-01 6.26430631e-01 6.35035157e-01 6.39942288e-01 6.42609537e-01 6.67209327e-01 6.87465549e-01 6.92989051e-01 6.94149792e-01 6.84410393e-01 6.43216908e-01 -1.05330771e-04 1.38235539e-01 6.33606970e-01 1.79604277e-01 8.59466195e-02 3.09873879e-01 4.58773345e-01 5.01932323e-01 5.10450125e-01 5.21137357e-01 5.32559395e-01 5.43419719e-01 5.53880930e-01 5.64018071e-01 5.73844671e-01 5.83416283e-01 5.92781663e-01 6.01892710e-01 6.10552907e-01 6.18539929e-01 6.26142561e-01 6.34859145e-01 6.42582119e-01 6.33647084e-01 6.14106178e-01 6.26264930e-01 6.47399545e-01 6.55724227e-01 6.56471431e-01 6.49255753e-01 6.19902790e-01 5.97224047e-04 1.26519933e-01 5.45567453e-01 1.45484477e-01 7.32307211e-02 3.06536049e-01 4.39664364e-01 4.86176819e-01 5.08588493e-01 5.26246011e-01 5.40841401e-01 5.53042948e-01 5.63281953e-01 5.71782827e-01 5.78781724e-01 5.84508955e-01 5.89051604e-01 5.92249811e-01 5.93633771e-01 5.92501521e-01 5.88430583e-01 5.81736207e-01 5.66145182e-01 5.10262787e-01 4.16259736e-01 4.06195313e-01 4.80664045e-01 5.35282016e-01 5.56644082e-01 5.62282562e-01 5.54410756e-01 1.00529622e-02 1.21505573e-01 5.92082500e-01 2.03851819e-01 7.97298104e-02 2.66350210e-01 3.99490446e-01 4.66723025e-01 5.07043242e-01 5.32139301e-01 5.48748016e-01 5.60212970e-01 5.67709446e-01 5.71936488e-01 5.73626280e-01 5.73421359e-01 5.71637750e-01 5.68182111e-01 5.62562823e-01 5.53936124e-01 5.41474283e-01 5.25218189e-01 5.02019048e-01 4.38183069e-01 2.98205733e-01 2.03796476e-01 2.89061546e-01 4.08211529e-01 4.67044562e-01 4.87886876e-01 4.95782495e-01 4.55375761e-02 6.51611164e-02 4.60557342e-01 5.27250171e-01 2.11927399e-01 2.48861507e-01 3.62878680e-01 4.48755473e-01 5.05071580e-01 5.36936402e-01 5.54038405e-01 5.62485576e-01 5.64939618e-01 5.63175917e-01 5.58862686e-01 5.53344488e-01 5.47320068e-01 5.40827274e-01 5.33429265e-01 5.24321795e-01 5.12512863e-01 4.97459948e-01 4.77943748e-01 4.31772053e-01 2.81298965e-01 1.10794306e-01 1.27622068e-01 2.88625479e-01 4.11686987e-01 4.53084588e-01 4.68598425e-01 2.32193604e-01 5.52693233e-02 1.99356526e-01 7.04380870e-01 5.20457804e-01 3.48677993e-01 3.76221538e-01 4.47094500e-01 5.05269349e-01 5.39106190e-01 5.54337740e-01 5.57743013e-01 5.53768456e-01 5.45981586e-01 5.37316680e-01 5.29722929e-01 5.23973584e-01 5.19805849e-01 5.16318202e-01 5.12258649e-01 5.06202817e-01 4.97044265e-01 4.84243065e-01 4.60528791e-01 3.70300531e-01 1.34740278e-01 5.74647151e-02 1.61745921e-01 3.63949627e-01 4.46105868e-01 4.66446519e-01 3.30086231e-01 1.11979589e-01 9.86407325e-02 6.18640721e-01 7.22592652e-01 5.43197036e-01 4.66215700e-01 4.80149955e-01 5.15302598e-01 5.40948629e-01 5.50308108e-01 5.46522796e-01 5.35454035e-01 5.23077786e-01 5.13440013e-01 5.08256137e-01 5.07520020e-01 5.09980977e-01 5.13632953e-01 5.16239166e-01 5.15723765e-01 5.10710478e-01 5.01206398e-01 4.87282068e-01 4.56298798e-01 3.35764974e-01 1.01863638e-01 7.10276365e-02 2.75867313e-01 4.36545789e-01 4.71604049e-01 4.31176186e-01 2.77509063e-01 4.65586148e-02 2.12994888e-01 7.01134384e-01 6.88010275e-01 5.90731680e-01 5.46863735e-01 5.42733729e-01 5.48594415e-01 5.46222508e-01 5.32230675e-01 5.13351142e-01 4.98317540e-01 4.91532654e-01 4.93018180e-01 5.00786245e-01 5.11923075e-01 5.23020387e-01 5.30854106e-01 5.33039093e-01 5.28568089e-01 5.18349409e-01 5.04905581e-01 4.88577515e-01 4.47511673e-01 2.80635297e-01 6.14281558e-02 1.07703075e-01 3.67276728e-01 4.57992554e-01 4.74330276e-01 3.67228866e-01 7.13721812e-02 1.10384010e-01 5.89442492e-01 7.29952157e-01 6.79549158e-01 6.21885180e-01 5.86041987e-01 5.66769123e-01 5.46853364e-01 5.18936396e-01 4.91211444e-01 4.75252837e-01 4.74563509e-01 4.85920429e-01 5.04092276e-01 5.23834229e-01 5.40479183e-01 5.50552905e-01 5.52274942e-01 5.45758247e-01 5.33075929e-01 5.17778516e-01 5.02698481e-01 4.81995791e-01 3.91366601e-01 1.15869924e-01 4.57313731e-02 2.28364930e-01 3.96008134e-01 4.91606236e-01 4.26167607e-01 1.23854518e-01 6.47553876e-02 4.06088263e-01 6.63162291e-01 7.05206573e-01 6.79685831e-01 6.38580680e-01 5.99945307e-01 5.58725059e-01 5.11572897e-01 4.72559303e-01 4.56820250e-01 4.64586794e-01 4.87740755e-01 5.16627133e-01 5.43134868e-01 5.61981618e-01 5.70764899e-01 5.69426239e-01 5.59667945e-01 5.44550896e-01 5.27876675e-01 5.12651742e-01 4.97919023e-01 4.60773945e-01 2.84984767e-01 5.13605550e-02 1.05067991e-01 3.16678047e-01 5.29848218e-01 5.16796350e-01 3.91435325e-01 1.14792317e-01 1.26609012e-01 4.63772446e-01 6.53710365e-01 7.01023340e-01 6.91758394e-01 6.60502136e-01 6.06774628e-01 5.31624854e-01 4.70780671e-01 4.51073498e-01 4.65933412e-01 5.00426173e-01 5.38037300e-01 5.67351162e-01 5.83832324e-01 5.87717295e-01 5.81481040e-01 5.68366647e-01 5.51835179e-01 5.35187662e-01 5.20692468e-01 5.08111417e-01 4.86153990e-01 3.63573283e-01 7.71372020e-02 7.46731311e-02 2.68903047e-01 5.94911039e-01 6.04077458e-01 5.79682052e-01 4.48134601e-01 1.39424190e-01 1.29202664e-01 3.99467230e-01 5.86077690e-01 6.96318388e-01 7.29955018e-01 7.09631145e-01 6.12536192e-01 5.19128978e-01 4.87667143e-01 4.95333552e-01 5.31331062e-01 5.69746971e-01 5.94228745e-01 6.02323949e-01 5.97895324e-01 5.85812032e-01 5.70083797e-01 5.53696632e-01 5.38794875e-01 5.26457191e-01 5.15804410e-01 4.97955650e-01 4.06260699e-01 1.11041881e-01 4.59249914e-02 1.85386822e-01 6.70228124e-01 6.99919224e-01 7.02861369e-01 6.83139086e-01 5.45943022e-01 1.67014837e-01 7.49191642e-02 1.64815232e-01 4.43292737e-01 5.97269118e-01 6.49163246e-01 5.82186878e-01 5.37221789e-01 5.83398342e-01 5.81297576e-01 5.94046712e-01 6.13508105e-01 6.20100141e-01 6.12764239e-01 5.97620487e-01 5.80088019e-01 5.63350618e-01 5.48944890e-01 5.37464499e-01 5.28710425e-01 5.21191955e-01 5.09351015e-01 4.61522341e-01 2.62600869e-01 4.46160212e-02 4.17834930e-02 7.12350190e-01 7.58373201e-01 7.73072958e-01 7.84422398e-01 7.89904654e-01 6.67341590e-01 2.39086673e-01 1.17240965e-01 7.49793574e-02 1.18010923e-01 1.38193205e-01 1.37700438e-01 2.07824662e-01 5.85850179e-01 6.98485970e-01 6.81999803e-01 6.59949124e-01 6.35232866e-01 6.08204961e-01 5.83214760e-01 5.62896788e-01 5.47771931e-01 5.37343621e-01 5.30791819e-01 5.26974797e-01 5.23938656e-01 5.18104136e-01 4.94943887e-01 3.56960386e-01 6.92442283e-02 1.49464430e-02 7.00151563e-01 7.53992260e-01 7.72683501e-01 7.89060950e-01 8.16602767e-01 8.46434414e-01 7.99528539e-01 6.91749215e-01 2.56523281e-01 1.69655919e-01 1.64608315e-01 1.47656381e-01 1.75891727e-01 4.83994842e-01 7.50046909e-01 7.38273025e-01 6.75134718e-01 6.21172071e-01 5.80699027e-01 5.52786291e-01 5.35046279e-01 5.24863601e-01 5.20169556e-01 5.19496381e-01 5.21478593e-01 5.23999155e-01 5.23569286e-01 5.09855032e-01 3.90836656e-01 7.65743256e-02 9.77415312e-03 6.41443312e-01 6.90561235e-01 7.06843138e-01 7.13584185e-01 7.23573983e-01 7.40136027e-01 7.82423854e-01 8.47052038e-01 8.18181396e-01 7.97125101e-01 7.90212214e-01 7.38439381e-01 6.32228673e-01 7.36371279e-01 7.71648765e-01 7.07526922e-01 6.23542368e-01 5.65244019e-01 5.29714108e-01 5.10176897e-01 5.01009583e-01 4.98398781e-01 5.00162899e-01 5.05191982e-01 5.12675285e-01 5.20997345e-01 5.26627123e-01 5.18676460e-01 4.03509855e-01 7.82857612e-02 7.84814730e-03 5.71176350e-01 6.02064550e-01 6.11186564e-01 5.99697590e-01 5.67197740e-01 5.03989041e-01 4.65904355e-01 5.27141035e-01 6.39400661e-01 7.37580359e-01 7.54823983e-01 7.40501046e-01 7.13344276e-01 7.01562107e-01 6.38430238e-01 5.65124571e-01 5.13739824e-01 4.84567225e-01 4.70802724e-01 4.66885924e-01 4.68700230e-01 4.73780751e-01 4.81045663e-01 4.90284890e-01 5.01607656e-01 5.14583230e-01 5.26615500e-01 5.25670946e-01 4.12574977e-01 7.93945193e-02 7.08956318e-03 5.23658037e-01 5.35743415e-01 5.40059149e-01 5.25351226e-01 4.83872026e-01 3.85872096e-01 2.56318152e-01 1.94857106e-01 2.09556282e-01 2.63119817e-01 3.02008212e-01 3.32905710e-01 3.96904349e-01 4.47619200e-01 4.43922222e-01 4.27619785e-01 4.20792073e-01 4.21682388e-01 4.27780569e-01 4.36681449e-01 4.46564168e-01 4.56611067e-01 4.66841459e-01 4.77788419e-01 4.90280747e-01 5.05269229e-01 5.22622406e-01 5.31051874e-01 4.22481090e-01 8.08512568e-02 6.56697107e-03 5.02258956e-01 5.03931522e-01 5.07111669e-01 5.02195477e-01 4.85771894e-01 4.37953264e-01 3.37165713e-01 2.17380330e-01 1.44307047e-01 1.18943438e-01 1.26387864e-01 1.66684777e-01 2.58809447e-01 3.35134655e-01 3.58756036e-01 3.66355002e-01 3.79655689e-01 3.96166533e-01 4.12683666e-01 4.27580267e-01 4.40395802e-01 4.51410800e-01 4.61310208e-01 4.70986545e-01 4.81542528e-01 4.94764000e-01 5.13945520e-01 5.33968329e-01 4.35822010e-01 8.30939114e-02 6.02644822e-03 4.95380968e-01 4.93667811e-01 4.97000933e-01 4.99841928e-01 5.00774026e-01 4.94500846e-01 4.64991033e-01 4.00218695e-01 3.12613517e-01 2.33073428e-01 1.91550374e-01 1.99706569e-01 2.57517755e-01 2.76055425e-01 3.11319411e-01 3.45539838e-01 3.74223411e-01 4.01055872e-01 4.22902763e-01 4.39317256e-01 4.51299220e-01 4.60084975e-01 4.66844827e-01 4.72688407e-01 4.78800237e-01 4.87100631e-01 5.02882600e-01 5.32654464e-01 4.54564422e-01 8.66396725e-02 5.20182634e-03 4.95565683e-01 4.93646771e-01 4.97609049e-01 5.03763855e-01 5.10397255e-01 5.18022478e-01 5.23215353e-01 5.16870677e-01 4.89538789e-01 4.42977339e-01 3.92379254e-01 3.45913500e-01 3.07136655e-01 1.86067745e-01 1.97769865e-01 3.12878042e-01 3.78133327e-01 4.17474866e-01 4.44256634e-01 4.61669952e-01 4.72328782e-01 4.78338838e-01 4.81359810e-01 4.82832670e-01 4.84199494e-01 4.87369686e-01 4.96604323e-01 5.20062566e-01 4.65946913e-01 8.97898003e-02 2.75642588e-03 4.98038769e-01 4.96907890e-01 5.00414312e-01 5.06489515e-01 5.12677610e-01 5.20097733e-01 5.29738605e-01 5.39345145e-01 5.41414917e-01 5.26167691e-01 4.89716232e-01 4.35167342e-01 3.56116116e-01 2.04972208e-01 1.49603084e-01 2.91399181e-01 3.89828086e-01 4.34472948e-01 4.60780144e-01 4.76791114e-01 4.85934436e-01 4.90413189e-01 4.91855204e-01 4.91659790e-01 4.91215616e-01 4.92118388e-01 4.96325284e-01 5.02659798e-01 4.46365625e-01 8.93832073e-02 -9.05034319e-03 
