# vtk DataFile Version 2.0
results_case1_non_linear/3_density.vtk, Created by Freefem++ 
ASCII
DATASET UNSTRUCTURED_GRID
POINTS 961 float
0 0 0
0.033333333 0 0
0.066666667 0 0
0.1 0 0
0.13333333 0 0
0.16666667 0 0
0.2 0 0
0.23333333 0 0
0.26666667 0 0
0.3 0 0
0.33333333 0 0
0.36666667 0 0
0.4 0 0
0.43333333 0 0
0.46666667 0 0
0.5 0 0
0.53333333 0 0
0.56666667 0 0
0.6 0 0
0.63333333 0 0
0.66666667 0 0
0.7 0 0
0.73333333 0 0
0.76666667 0 0
0.8 0 0
0.83333333 0 0
0.86666667 0 0
0.9 0 0
0.93333333 0 0
0.96666667 0 0
1 0 0
0 0.033333333 0
0.033333333 0.033333333 0
0.066666667 0.033333333 0
0.1 0.033333333 0
0.13333333 0.033333333 0
0.16666667 0.033333333 0
0.2 0.033333333 0
0.23333333 0.033333333 0
0.26666667 0.033333333 0
0.3 0.033333333 0
0.33333333 0.033333333 0
0.36666667 0.033333333 0
0.4 0.033333333 0
0.43333333 0.033333333 0
0.46666667 0.033333333 0
0.5 0.033333333 0
0.53333333 0.033333333 0
0.56666667 0.033333333 0
0.6 0.033333333 0
0.63333333 0.033333333 0
0.66666667 0.033333333 0
0.7 0.033333333 0
0.73333333 0.033333333 0
0.76666667 0.033333333 0
0.8 0.033333333 0
0.83333333 0.033333333 0
0.86666667 0.033333333 0
0.9 0.033333333 0
0.93333333 0.033333333 0
0.96666667 0.033333333 0
1 0.033333333 0
0 0.066666667 0
0.033333333 0.066666667 0
0.066666667 0.066666667 0
0.1 0.066666667 0
0.13333333 0.066666667 0
0.16666667 0.066666667 0
0.2 0.066666667 0
0.23333333 0.066666667 0
0.26666667 0.066666667 0
0.3 0.066666667 0
0.33333333 0.066666667 0
0.36666667 0.066666667 0
0.4 0.066666667 0
0.43333333 0.066666667 0
0.46666667 0.066666667 0
0.5 0.066666667 0
0.53333333 0.066666667 0
0.56666667 0.066666667 0
0.6 0.066666667 0
0.63333333 0.066666667 0
0.66666667 0.066666667 0
0.7 0.066666667 0
0.73333333 0.066666667 0
0.76666667 0.066666667 0
0.8 0.066666667 0
0.83333333 0.066666667 0
0.86666667 0.066666667 0
0.9 0.066666667 0
0.93333333 0.066666667 0
0.96666667 0.066666667 0
1 0.066666667 0
0 0.1 0
0.033333333 0.1 0
0.066666667 0.1 0
0.1 0.1 0
0.13333333 0.1 0
0.16666667 0.1 0
0.2 0.1 0
0.23333333 0.1 0
0.26666667 0.1 0
0.3 0.1 0
0.33333333 0.1 0
0.36666667 0.1 0
0.4 0.1 0
0.43333333 0.1 0
0.46666667 0.1 0
0.5 0.1 0
0.53333333 0.1 0
0.56666667 0.1 0
0.6 0.1 0
0.63333333 0.1 0
0.66666667 0.1 0
0.7 0.1 0
0.73333333 0.1 0
0.76666667 0.1 0
0.8 0.1 0
0.83333333 0.1 0
0.86666667 0.1 0
0.9 0.1 0
0.93333333 0.1 0
0.96666667 0.1 0
1 0.1 0
0 0.13333333 0
0.033333333 0.13333333 0
0.066666667 0.13333333 0
0.1 0.13333333 0
0.13333333 0.13333333 0
0.16666667 0.13333333 0
0.2 0.13333333 0
0.23333333 0.13333333 0
0.26666667 0.13333333 0
0.3 0.13333333 0
0.33333333 0.13333333 0
0.36666667 0.13333333 0
0.4 0.13333333 0
0.43333333 0.13333333 0
0.46666667 0.13333333 0
0.5 0.13333333 0
0.53333333 0.13333333 0
0.56666667 0.13333333 0
0.6 0.13333333 0
0.63333333 0.13333333 0
0.66666667 0.13333333 0
0.7 0.13333333 0
0.73333333 0.13333333 0
0.76666667 0.13333333 0
0.8 0.13333333 0
0.83333333 0.13333333 0
0.86666667 0.13333333 0
0.9 0.13333333 0
0.93333333 0.13333333 0
0.96666667 0.13333333 0
1 0.13333333 0
0 0.16666667 0
0.033333333 0.16666667 0
0.066666667 0.16666667 0
0.1 0.16666667 0
0.13333333 0.16666667 0
0.16666667 0.16666667 0
0.2 0.16666667 0
0.23333333 0.16666667 0
0.26666667 0.16666667 0
0.3 0.16666667 0
0.33333333 0.16666667 0
0.36666667 0.16666667 0
0.4 0.16666667 0
0.43333333 0.16666667 0
0.46666667 0.16666667 0
0.5 0.16666667 0
0.53333333 0.16666667 0
0.56666667 0.16666667 0
0.6 0.16666667 0
0.63333333 0.16666667 0
0.66666667 0.16666667 0
0.7 0.16666667 0
0.73333333 0.16666667 0
0.76666667 0.16666667 0
0.8 0.16666667 0
0.83333333 0.16666667 0
0.86666667 0.16666667 0
0.9 0.16666667 0
0.93333333 0.16666667 0
0.96666667 0.16666667 0
1 0.16666667 0
0 0.2 0
0.033333333 0.2 0
0.066666667 0.2 0
0.1 0.2 0
0.13333333 0.2 0
0.16666667 0.2 0
0.2 0.2 0
0.23333333 0.2 0
0.26666667 0.2 0
0.3 0.2 0
0.33333333 0.2 0
0.36666667 0.2 0
0.4 0.2 0
0.43333333 0.2 0
0.46666667 0.2 0
0.5 0.2 0
0.53333333 0.2 0
0.56666667 0.2 0
0.6 0.2 0
0.63333333 0.2 0
0.66666667 0.2 0
0.7 0.2 0
0.73333333 0.2 0
0.76666667 0.2 0
0.8 0.2 0
0.83333333 0.2 0
0.86666667 0.2 0
0.9 0.2 0
0.93333333 0.2 0
0.96666667 0.2 0
1 0.2 0
0 0.23333333 0
0.033333333 0.23333333 0
0.066666667 0.23333333 0
0.1 0.23333333 0
0.13333333 0.23333333 0
0.16666667 0.23333333 0
0.2 0.23333333 0
0.23333333 0.23333333 0
0.26666667 0.23333333 0
0.3 0.23333333 0
0.33333333 0.23333333 0
0.36666667 0.23333333 0
0.4 0.23333333 0
0.43333333 0.23333333 0
0.46666667 0.23333333 0
0.5 0.23333333 0
0.53333333 0.23333333 0
0.56666667 0.23333333 0
0.6 0.23333333 0
0.63333333 0.23333333 0
0.66666667 0.23333333 0
0.7 0.23333333 0
0.73333333 0.23333333 0
0.76666667 0.23333333 0
0.8 0.23333333 0
0.83333333 0.23333333 0
0.86666667 0.23333333 0
0.9 0.23333333 0
0.93333333 0.23333333 0
0.96666667 0.23333333 0
1 0.23333333 0
0 0.26666667 0
0.033333333 0.26666667 0
0.066666667 0.26666667 0
0.1 0.26666667 0
0.13333333 0.26666667 0
0.16666667 0.26666667 0
0.2 0.26666667 0
0.23333333 0.26666667 0
0.26666667 0.26666667 0
0.3 0.26666667 0
0.33333333 0.26666667 0
0.36666667 0.26666667 0
0.4 0.26666667 0
0.43333333 0.26666667 0
0.46666667 0.26666667 0
0.5 0.26666667 0
0.53333333 0.26666667 0
0.56666667 0.26666667 0
0.6 0.26666667 0
0.63333333 0.26666667 0
0.66666667 0.26666667 0
0.7 0.26666667 0
0.73333333 0.26666667 0
0.76666667 0.26666667 0
0.8 0.26666667 0
0.83333333 0.26666667 0
0.86666667 0.26666667 0
0.9 0.26666667 0
0.93333333 0.26666667 0
0.96666667 0.26666667 0
1 0.26666667 0
0 0.3 0
0.033333333 0.3 0
0.066666667 0.3 0
0.1 0.3 0
0.13333333 0.3 0
0.16666667 0.3 0
0.2 0.3 0
0.23333333 0.3 0
0.26666667 0.3 0
0.3 0.3 0
0.33333333 0.3 0
0.36666667 0.3 0
0.4 0.3 0
0.43333333 0.3 0
0.46666667 0.3 0
0.5 0.3 0
0.53333333 0.3 0
0.56666667 0.3 0
0.6 0.3 0
0.63333333 0.3 0
0.66666667 0.3 0
0.7 0.3 0
0.73333333 0.3 0
0.76666667 0.3 0
0.8 0.3 0
0.83333333 0.3 0
0.86666667 0.3 0
0.9 0.3 0
0.93333333 0.3 0
0.96666667 0.3 0
1 0.3 0
0 0.33333333 0
0.033333333 0.33333333 0
0.066666667 0.33333333 0
0.1 0.33333333 0
0.13333333 0.33333333 0
0.16666667 0.33333333 0
0.2 0.33333333 0
0.23333333 0.33333333 0
0.26666667 0.33333333 0
0.3 0.33333333 0
0.33333333 0.33333333 0
0.36666667 0.33333333 0
0.4 0.33333333 0
0.43333333 0.33333333 0
0.46666667 0.33333333 0
0.5 0.33333333 0
0.53333333 0.33333333 0
0.56666667 0.33333333 0
0.6 0.33333333 0
0.63333333 0.33333333 0
0.66666667 0.33333333 0
0.7 0.33333333 0
0.73333333 0.33333333 0
0.76666667 0.33333333 0
0.8 0.33333333 0
0.83333333 0.33333333 0
0.86666667 0.33333333 0
0.9 0.33333333 0
0.93333333 0.33333333 0
0.96666667 0.33333333 0
1 0.33333333 0
0 0.36666667 0
0.033333333 0.36666667 0
0.066666667 0.36666667 0
0.1 0.36666667 0
0.13333333 0.36666667 0
0.16666667 0.36666667 0
0.2 0.36666667 0
0.23333333 0.36666667 0
0.26666667 0.36666667 0
0.3 0.36666667 0
0.33333333 0.36666667 0
0.36666667 0.36666667 0
0.4 0.36666667 0
0.43333333 0.36666667 0
0.46666667 0.36666667 0
0.5 0.36666667 0
0.53333333 0.36666667 0
0.56666667 0.36666667 0
0.6 0.36666667 0
0.63333333 0.36666667 0
0.66666667 0.36666667 0
0.7 0.36666667 0
0.73333333 0.36666667 0
0.76666667 0.36666667 0
0.8 0.36666667 0
0.83333333 0.36666667 0
0.86666667 0.36666667 0
0.9 0.36666667 0
0.93333333 0.36666667 0
0.96666667 0.36666667 0
1 0.36666667 0
0 0.4 0
0.033333333 0.4 0
0.066666667 0.4 0
0.1 0.4 0
0.13333333 0.4 0
0.16666667 0.4 0
0.2 0.4 0
0.23333333 0.4 0
0.26666667 0.4 0
0.3 0.4 0
0.33333333 0.4 0
0.36666667 0.4 0
0.4 0.4 0
0.43333333 0.4 0
0.46666667 0.4 0
0.5 0.4 0
0.53333333 0.4 0
0.56666667 0.4 0
0.6 0.4 0
0.63333333 0.4 0
0.66666667 0.4 0
0.7 0.4 0
0.73333333 0.4 0
0.76666667 0.4 0
0.8 0.4 0
0.83333333 0.4 0
0.86666667 0.4 0
0.9 0.4 0
0.93333333 0.4 0
0.96666667 0.4 0
1 0.4 0
0 0.43333333 0
0.033333333 0.43333333 0
0.066666667 0.43333333 0
0.1 0.43333333 0
0.13333333 0.43333333 0
0.16666667 0.43333333 0
0.2 0.43333333 0
0.23333333 0.43333333 0
0.26666667 0.43333333 0
0.3 0.43333333 0
0.33333333 0.43333333 0
0.36666667 0.43333333 0
0.4 0.43333333 0
0.43333333 0.43333333 0
0.46666667 0.43333333 0
0.5 0.43333333 0
0.53333333 0.43333333 0
0.56666667 0.43333333 0
0.6 0.43333333 0
0.63333333 0.43333333 0
0.66666667 0.43333333 0
0.7 0.43333333 0
0.73333333 0.43333333 0
0.76666667 0.43333333 0
0.8 0.43333333 0
0.83333333 0.43333333 0
0.86666667 0.43333333 0
0.9 0.43333333 0
0.93333333 0.43333333 0
0.96666667 0.43333333 0
1 0.43333333 0
0 0.46666667 0
0.033333333 0.46666667 0
0.066666667 0.46666667 0
0.1 0.46666667 0
0.13333333 0.46666667 0
0.16666667 0.46666667 0
0.2 0.46666667 0
0.23333333 0.46666667 0
0.26666667 0.46666667 0
0.3 0.46666667 0
0.33333333 0.46666667 0
0.36666667 0.46666667 0
0.4 0.46666667 0
0.43333333 0.46666667 0
0.46666667 0.46666667 0
0.5 0.46666667 0
0.53333333 0.46666667 0
0.56666667 0.46666667 0
0.6 0.46666667 0
0.63333333 0.46666667 0
0.66666667 0.46666667 0
0.7 0.46666667 0
0.73333333 0.46666667 0
0.76666667 0.46666667 0
0.8 0.46666667 0
0.83333333 0.46666667 0
0.86666667 0.46666667 0
0.9 0.46666667 0
0.93333333 0.46666667 0
0.96666667 0.46666667 0
1 0.46666667 0
0 0.5 0
0.033333333 0.5 0
0.066666667 0.5 0
0.1 0.5 0
0.13333333 0.5 0
0.16666667 0.5 0
0.2 0.5 0
0.23333333 0.5 0
0.26666667 0.5 0
0.3 0.5 0
0.33333333 0.5 0
0.36666667 0.5 0
0.4 0.5 0
0.43333333 0.5 0
0.46666667 0.5 0
0.5 0.5 0
0.53333333 0.5 0
0.56666667 0.5 0
0.6 0.5 0
0.63333333 0.5 0
0.66666667 0.5 0
0.7 0.5 0
0.73333333 0.5 0
0.76666667 0.5 0
0.8 0.5 0
0.83333333 0.5 0
0.86666667 0.5 0
0.9 0.5 0
0.93333333 0.5 0
0.96666667 0.5 0
1 0.5 0
0 0.53333333 0
0.033333333 0.53333333 0
0.066666667 0.53333333 0
0.1 0.53333333 0
0.13333333 0.53333333 0
0.16666667 0.53333333 0
0.2 0.53333333 0
0.23333333 0.53333333 0
0.26666667 0.53333333 0
0.3 0.53333333 0
0.33333333 0.53333333 0
0.36666667 0.53333333 0
0.4 0.53333333 0
0.43333333 0.53333333 0
0.46666667 0.53333333 0
0.5 0.53333333 0
0.53333333 0.53333333 0
0.56666667 0.53333333 0
0.6 0.53333333 0
0.63333333 0.53333333 0
0.66666667 0.53333333 0
0.7 0.53333333 0
0.73333333 0.53333333 0
0.76666667 0.53333333 0
[...]
CELL_DATA 1920
Scalars  Label int 1
LOOKUP_TABLE FreeFempp_table
0
0
0
0
0
0
0
0
0
0
0
0
0
0
0
0
0
0
0
0
0
0
0
0
0
0
0
0
0
0
0
0
0
0
0
0
0
0
0
0
0
0
0
0
0
0
0
0
0
0
0
0
0
0
0
0
0
0
0
0
0
0
0
0
0
0
0
0
0
0
0
0
0
0
0
0
0
0
0
0
0
0
0
0
0
0
0
0
0
0
0
0
0
0
0
0
0
0
0
0
0
0
0
0
0
0
0
0
0
0
0
0
0
0
0
0
0
0
0
0
0
0
0
0
0
0
0
0
0
0
0
0
0
0
0
0
0
0
0
0
0
0
0
0
0
0
0
0
0
0
0
0
0
0
0
0
0
0
0
0
0
0
0
0
0
0
0
0
0
0
0
0
0
0
0
0
0
0
0
0
0
0
0
0
0
0
0
0
0
0
0
0
0
0
0
0
0
0
0
0
0
0
0
0
0
0
0
0
0
0
0
0
0
0
0
0
0
0
0
0
0
0
0
0
0
0
0
0
0
0
0
0
0
0
0
0
0
0
0
0
0
0
0
0
0
0
0
0
0
0
0
0
0
0
0
0
0
0
0
0
0
0
0
0
0
0
0
0
0
0
0
0
0
0
0
0
0
0
0
0
0
0
0
0
0
0
0
0
0
0
0
0
0
0
0
0
0
0
0
0
0
0
0
0
0
0
0
0
0
0
0
0
0
0
0
0
0
0
0
0
0
0
0
0
0
0
0
0
0
0
0
0
0
0
0
0
0
0
0
0
0
0
0
0
0
0
0
0
0
0
0
0
0
0
0
0
0
0
0
0
0
0
0
0
0
0
0
0
0
0
0
0
0
0
0
0
0
0
0
0
0
0
0
0
0
0
0
0
0
0
0
0
0
0
0
0
0
0
0
0
0
0
0
0
0
0
0
0
0
0
0
0
0
0
0
0
0
0
0
0
0
0
0
0
0
0
0
0
0
0
0
0
0
0
0
0
0
0
0
0
0
0
0
0
0
0
0
0
0
0
0
0
0
0
0
0
0
0
0
0
0
0
0
0
0
0
0
0
0
0
0
0
0
0
0
0
0
0
0
0
0
0
0
0
0
0
0
0
0
0
0
0
0
0
0
0
0
0
0
0
0
0
0
0
0
0
0
0
0
0
0
0
0
0
0
0
0
0
0
0
0
0
0
0
0
0
0
0
0
0
0
0
0
0
0
0
0
0
0
0
0
0
0
0
0
0
0
0
0
0
0
0
0
0
0
0
0
0
0
0
0
0
0
0
0
0
0
0
0
0
0
0
0
0
0
0
0
0
0
0
0
0
0
0
0
0
0
0
0
0
0
0
0
0
0
0
0
0
0
0
0
0
0
0
0
0
0
0
0
0
0
0
0
0
0
0
0
0
0
0
0
0
0
0
0
0
0
0
0
0
0
0
0
0
0
0
0
0
0
0
0
0
0
0
0
0
0
0
0
0
0
0
0
0
0
0
0
0
0
0
0
0
0
0
0
0
0
0
0
0
0
0
0
0
0
0
0
0
0
0
0
0
0
0
0
0
0
0
0
0
0
0
0
0
0
0
0
0
0
0
0
0
0
0
0
0
0
0
0
0
0
0
0
0
0
0
0
0
0
0
0
0
0
0
0
0
0
0
0
0
0
0
0
0
0
0
0
0
0
0
0
0
0
0
0
0
0
0
0
0
0
0
0
0
0
0
0
0
0
0
0
0
0
0
0
0
0
0
0
0
0
0
0
0
0
0
0
0
0
0
0
0
0
0
0
0
0
0
0
0
0
0
0
0
0
0
0
0
0
0
0
0
0
0
0
0
0
0
0
0
0
0
0
0
0
0
0
0
0
0
0
0
0
0
0
0
0
0
0
0
0
0
0
0
0
0
0
0
0
0
0
0
0
0
0
0
0
0
0
0
0
0
0
0
0
0
0
0
0
0
0
0
0
0
0
0
0
0
0
0
0
0
0
0
0
0
0
0
0
0
0
0
0
0
0
0
0
0
0
0
0
0
0
0
0
0
0
0
0
0
0
0
0
0
0
0
0
0
0
0
0
0
0
0
0
0
0
0
0
0
0
0
0
0
0
0
0
0
0
0
0
0
0
0
0
0
0
0
0
0
0
0
0
0
0
0
0
0
0
0
0
0
0
0
0
0
0
0
0
0
0
0
0
0
0
0
0
0
0
0
0
0
0
0
0
0
0
0
0
0
0
0
0
0
0
0
0
0
0
0
0
0
0
0
0
0
0
0
0
0
0
0
0
0
0
0
0
0
0
0
0
0
0
0
0
0
0
0
0
0
0
0
0
0
0
0
0
0
0
0
0
0
0
0
0
0
0
0
0
0
0
0
0
0
0
0
0
0
0
0
0
0
0
0
0
0
0
0
0
0
0
0
0
0
0
0
0
0
0
0
0
0
0
0
0
0
0
0
0
0
0
0
0
0
0
0
0
0
0
0
0
0
0
0
0
0
0
0
0
0
0
0
0
0
0
0
0
0
0
0
0
0
0
0
0
0
0
0
0
0
0
0
0
0
0
0
0
0
0
0
0
0
0
0
0
0
0
0
0
0
0
0
0
0
0
0
0
0
0
0
0
0
0
0
0
0
0
0
0
0
0
0
0
0
0
0
0
0
0
0
0
0
0
0
0
0
0
0
0
0
0
0
0
0
0
0
0
0
0
0
0
0
0
0
0
0
0
0
0
0
0
0
0
0
0
0
0
0
0
0
0
0
0
0
0
0
0
0
0
0
0
0
0
0
0
0
0
0
0
0
0
0
0
0
0
0
0
0
0
0
0
0
0
0
0
0
0
0
0
0
0
0
0
0
0
0
0
0
0
0
0
0
0
0
0
0
0
0
0
0
0
0
0
0
0
0
0
0
0
0
0
0
0
0
0
0
0
0
0
0
0
0
0
0
0
0
0
0
0
0
0
0
0
0
0
0
0
0
0
0
0
0
0
0
0
0
0
0
0
0
0
0
0
0
0
0
0
0
0
0
0
0
0
0
0
0
0
0
0
0
0
0
0
0
0
0
0
0
0
0
0
0
0
0
0
0
0
0
0
0
0
0
0
0
0
0
0
0
0
0
0
0
0
0
0
0
0
0
0
0
0
0
0
0
0
0
0
0
0
0
0
0
0
0
0
0
0
0
0
0
0
0
0
0
0
0
0
0
0
0
0
0
0
0
0
0
0
0
0
0
0
0
0
0
0
0
0
0
0
0
0
0
0
0
0
0
0
0
0
0
0
0
0
0
0
0
0
0
0
0
0
0
0
0
0
0
0
0
0
0
0
0
0
0
0
0
0
0
0
0
0
0
0
0
0
0
0
0
0
0
0
0
0
0
0
0
0
0
0
0
0
0
0
0
0
0
0
0
0
0
0
0
0
0
0
0
0
0
0
0
0
0
0
0
0
0
0
0
0
0
0
0
0
0
0
0
0
0
0
0
0
0
0
0
0
0
0
0
0
0
0
0
0
0
0
0
0
0
0
0
0
0
0
0
0
0
0
0
0
0
0
0
0
0
0
0
0
0
0
0
0
0
0
0
0
0
0
0
0
0
0
0
0
0
0
0
0
0
0
0
0
0
0
0
0
0
0
0
0
0
0
0
0
0
0
0
0
0
0
0
0
0
0
0
0
0
0
0
0
0
0
0
0
0
0
0
0
0
0
0
0
0
0
0
0
0
0
0
0
0
0
0
0
0
0
0
0
0
0
0
0
0
0
0
0
0
0
0
0
0
0
0
0
0
0
0
0
0
0
0
0
0
0
0
0
0
0
0
0
0
0
0
0
0
0
0
0
0
0
0
0
0
0
0
0
0
0
0
0
0
0
0
0
0
0
0
0
0
0
0
0
0
0
0
0
0
0
0
0
0
0
0
0
0
0
0
0
0
0
0
0
0
0
0
0
0
0
0
0
0
0
0
0
0
0
0
0
0
0
0
0
0
0
0
0
0
0
0
0
0
0
0
0
0
0
0
0
0
0
0
0
0
0
0
0
0
0
0
0
0
0
0
0
0
0
0
0
0
0
0
0
0
0
0
0
0
0
0
0
0
1
1
1
1
1
1
1
1
1
1
1
1
1
1
1
1
1
1
1
1
1
1
1
1
1
1
1
1
1
1
2
2
2
2
2
2
2
2
2
2
2
2
2
2
2
2
2
2
2
2
2
2
2
2
2
2
2
2
2
2
3
3
3
3
3
3
3
3
3
3
3
3
3
3
3
3
3
3
3
3
3
3
3
3
3
3
3
3
3
3
4
4
4
4
4
4
4
4
4
4
4
4
4
4
4
4
4
4
4
4
4
4
4
4
4
4
4
4
4
4

LOOKUP_TABLE FreeFempp_table 5
1.00000000 0.00000000 0.00000000 1.00000000
1.00000000 1.00000000 0.00000000 1.00000000
1.00000000 0.00000000 1.00000000 1.00000000
0.00000000 1.00000000 0.00000000 1.00000000
0.00000000 1.00000000 1.00000000 1.00000000

POINT_DATA 961
FIELD FieldData 1
Density 1 961 float
5.81251085e-02 9.79006737e-02 2.44027942e-01 3.70381832e-01 4.36755121e-01 5.00406444e-01 5.53596616e-01 5.28206766e-01 5.01669347e-01 4.94621396e-01 4.95380014e-01 4.97836381e-01 5.03033996e-01 5.07375956e-01 5.05587459e-01 4.79664028e-01 3.59198481e-01 7.40522146e-02 6.19626790e-03 -3.76122794e-03 -6.06586749e-04 5.00731810e-04 9.11264855e-04 1.29972922e-03 1.43144105e-03 8.66496994e-04 2.17697976e-04 5.33595541e-03 5.32040186e-02 2.87302732e-01 3.29324365e-01 4.58861105e-02 5.51189445e-02 1.23183519e-01 2.26974636e-01 2.93996722e-01 3.91644746e-01 5.45966387e-01 5.43150842e-01 5.05718172e-01 4.93716657e-01 4.96474147e-01 5.00713587e-01 4.99056518e-01 4.71282423e-01 4.26106960e-01 3.92490476e-01 2.45827794e-01 5.13160378e-02 -2.72757886e-03 2.20536273e-02 6.81640059e-02 7.56878704e-02 7.42603317e-02 7.04236478e-02 6.48375750e-02 5.95389418e-02 5.88345751e-02 6.37345612e-02 4.95014116e-02 6.25769570e-02 1.03172146e-01 1.82750132e-02 1.83042120e-02 3.03370655e-02 5.06208539e-02 7.38204271e-02 1.49103194e-01 4.30648208e-01 5.22359133e-01 4.98830646e-01 4.92119104e-01 4.91786748e-01 4.65313911e-01 4.17389154e-01 3.40551913e-01 1.29704461e-01 7.79427588e-02 4.47257757e-02 4.95851273e-03 2.08075903e-02 1.17063545e-01 3.38980496e-01 3.99056882e-01 3.95527482e-01 3.76951247e-01 3.48754466e-01 3.18209261e-01 3.05196792e-01 3.13482583e-01 2.78997660e-01 9.33304057e-02 4.85719927e-02 6.20217668e-03 2.01250874e-02 6.11876436e-02 9.24702361e-02 1.33142605e-01 1.82993129e-01 2.45830879e-01 3.91557157e-01 3.98837894e-01 4.05480981e-01 4.01291639e-01 3.23176712e-01 1.26152650e-01 6.98403120e-02 1.80206727e-02 -3.35462438e-03 2.23978609e-02 7.32516050e-02 1.26501814e-01 3.45797658e-01 4.58071411e-01 4.91709292e-01 4.86334950e-01 4.70836043e-01 4.43537027e-01 4.06660020e-01 3.77575845e-01 3.72878164e-01 3.67787063e-01 2.99453080e-01 2.68746763e-01 3.68332071e-03 5.81436530e-02 2.82280713e-01 4.34859306e-01 5.21429896e-01 5.83821118e-01 5.43091118e-01 1.63907066e-01 8.37025791e-02 7.31181279e-02 7.44454712e-02 6.24939092e-02 1.89634282e-02 -2.83975597e-03 2.32396256e-02 8.22789818e-02 1.47938222e-01 3.84458184e-01 4.45923448e-01 4.98365521e-01 5.34155726e-01 5.37551224e-01 5.36198854e-01 5.32317340e-01 5.20950198e-01 5.00930250e-01 4.80004698e-01 4.71777469e-01 4.74300802e-01 4.46966618e-01 4.07970101e-01 1.00843282e-03 8.76950473e-02 4.62343961e-01 6.42243266e-01 6.09214365e-01 2.38770217e-01 1.45665452e-01 4.83696759e-02 -1.43441721e-03 1.98900681e-02 6.22202381e-02 7.88674206e-02 8.48932490e-02 9.70671996e-02 1.59774184e-01 4.08210337e-01 4.84295636e-01 5.45766354e-01 5.78268647e-01 5.85773289e-01 5.92222929e-01 5.97480655e-01 6.04300678e-01 6.10982180e-01 6.16798520e-01 6.22886658e-01 6.31737173e-01 6.40524387e-01 6.45857692e-01 6.35711968e-01 5.83291829e-01 3.50365485e-03 1.22119874e-01 5.77634215e-01 6.40871763e-01 2.47767672e-01 6.69800416e-02 2.30428413e-03 9.89372656e-03 5.64695895e-02 1.33189380e-01 3.29843670e-01 4.31854874e-01 4.72381264e-01 4.97929364e-01 5.24113059e-01 5.82990527e-01 6.13434494e-01 6.18530631e-01 6.20318413e-01 6.24015808e-01 6.31150603e-01 6.39475763e-01 6.48802340e-01 6.59038424e-01 6.70799494e-01 6.85602725e-01 7.00515330e-01 7.04002380e-01 6.97744608e-01 6.91791177e-01 6.60793662e-01 5.52709168e-03 1.23216547e-01 6.22210443e-01 5.43902099e-01 1.35629728e-01 9.93384048e-03 2.75137071e-02 1.07486211e-01 2.79890209e-01 4.28949118e-01 5.21914780e-01 5.75737298e-01 5.98792493e-01 6.13665879e-01 6.24377966e-01 6.31324768e-01 6.28592670e-01 6.27169788e-01 6.29332781e-01 6.33203745e-01 6.38230383e-01 6.44279718e-01 6.50778294e-01 6.56574726e-01 6.60483539e-01 6.59738421e-01 6.43652737e-01 5.89029074e-01 5.33364713e-01 5.43277442e-01 5.57813346e-01 -3.33927991e-03 9.86048281e-02 4.01138186e-01 1.91998780e-01 4.64995801e-02 1.87220480e-02 9.99998525e-02 3.29851717e-01 4.83003706e-01 5.63044548e-01 5.99817872e-01 6.13104820e-01 6.18276000e-01 6.20229900e-01 6.18486643e-01 6.14143074e-01 6.09602451e-01 6.07551813e-01 6.06914699e-01 6.07137561e-01 6.07763469e-01 6.08407795e-01 6.07399702e-01 6.02097273e-01 5.89743435e-01 5.64982593e-01 5.10797620e-01 4.20272171e-01 3.45793724e-01 3.72196317e-01 4.24701631e-01 1.57430966e-03 1.41224548e-01 5.78899682e-01 1.58607006e-01 2.86366288e-02 7.22934008e-02 2.22303167e-01 4.70864296e-01 5.75618267e-01 6.08165503e-01 6.16929233e-01 6.17280424e-01 6.13053143e-01 6.05132699e-01 5.94011664e-01 5.81675291e-01 5.71282744e-01 5.64336300e-01 5.59447169e-01 5.55705130e-01 5.52078784e-01 5.47464371e-01 5.39856076e-01 5.27164400e-01 5.09221137e-01 4.87127125e-01 4.45853055e-01 3.48394811e-01 2.35369056e-01 2.54849762e-01 3.32654834e-01 2.23301677e-03 1.43915623e-01 6.11147046e-01 1.86820999e-01 8.06847662e-02 2.07827285e-01 4.37143028e-01 5.64052403e-01 6.13932908e-01 6.20174527e-01 6.15194559e-01 6.04493856e-01 5.90505660e-01 5.74414670e-01 5.57156622e-01 5.40517688e-01 5.26899815e-01 5.17359018e-01 5.10825396e-01 5.05939305e-01 5.01127064e-01 4.94974911e-01 4.86007005e-01 4.73579526e-01 4.59726185e-01 4.49184209e-01 4.34817374e-01 3.54251206e-01 1.92312136e-01 1.53042346e-01 2.27877393e-01 4.02254192e-03 1.47333562e-01 6.18052721e-01 1.84642449e-01 1.14283383e-01 3.76566470e-01 5.39767683e-01 6.12075627e-01 6.22545242e-01 6.10823333e-01 5.94291866e-01 5.77772617e-01 5.61067641e-01 5.43528259e-01 5.26134491e-01 5.10729432e-01 4.98814493e-01 4.90769178e-01 4.85598296e-01 4.81722713e-01 4.77365762e-01 4.71168816e-01 4.62365568e-01 4.51477170e-01 4.41516817e-01 4.37766969e-01 4.39440906e-01 3.97593260e-01 2.13382706e-01 9.66839865e-02 1.19722337e-01 5.19146025e-03 1.41623154e-01 6.12517655e-01 1.89834505e-01 1.30191475e-01 4.70458180e-01 5.97985148e-01 6.22638643e-01 6.01634026e-01 5.71179569e-01 5.55236220e-01 5.50928831e-01 5.45065761e-01 5.32630563e-01 5.17961383e-01 5.06034255e-01 4.98180240e-01 4.93466288e-01 4.90286171e-01 4.86924589e-01 4.81796980e-01 4.73965108e-01 4.63430941e-01 4.51631725e-01 4.42097574e-01 4.39789355e-01 4.45818424e-01 4.35209900e-01 2.95568198e-01 8.78534466e-02 6.63022995e-02 9.53331776e-03 1.32916659e-01 5.49078405e-01 1.99508026e-01 1.51704654e-01 4.86235023e-01 5.91951489e-01 5.54433703e-01 4.94540274e-01 4.61330861e-01 4.80649322e-01 5.23197412e-01 5.48547864e-01 5.46157002e-01 5.33082128e-01 5.23813069e-01 5.20001829e-01 5.18336594e-01 5.16003489e-01 5.11332989e-01 5.03381550e-01 4.91946697e-01 4.77772295e-01 4.62951124e-01 4.51280743e-01 4.47336942e-01 4.52534944e-01 4.55201507e-01 3.57473820e-01 9.40878019e-02 4.50973101e-02 4.85642627e-02 1.01079620e-01 5.43997824e-01 3.17432225e-01 2.46674299e-01 4.62862343e-01 4.64697480e-01 2.86555916e-01 2.10456178e-01 2.07242459e-01 2.78054982e-01 4.00221974e-01 5.08609951e-01 5.48775911e-01 5.48929632e-01 5.47581136e-01 5.50153017e-01 5.51664293e-01 5.49188197e-01 5.42021632e-01 5.30354977e-01 5.14846504e-01 4.96788472e-01 4.78571534e-01 4.63976294e-01 4.57176596e-01 4.59469706e-01 4.64552104e-01 3.84190887e-01 9.58930776e-02 3.41907851e-02 2.93760777e-01 1.12551846e-01 1.90338612e-01 5.79170108e-01 5.34379363e-01 5.11946321e-01 4.38306719e-01 2.29642957e-01 1.12155132e-01 6.80839494e-02 7.51470998e-02 1.24094136e-01 2.92061746e-01 4.43354726e-01 5.13334274e-01 5.49759924e-01 5.71650565e-01 5.80466211e-01 5.78758657e-01 5.69483399e-01 5.54834783e-01 5.36395490e-01 5.15741646e-01 4.95196462e-01 4.78241414e-01 4.68577743e-01 4.67188686e-01 4.69953120e-01 3.93685490e-01 9.45748314e-02 2.79074870e-02 4.70824718e-01 3.82697850e-01 1.23445086e-01 1.94056362e-01 6.46135688e-01 7.09147096e-01 6.17339015e-01 4.24746811e-01 2.58761942e-01 1.51046515e-01 1.44236043e-01 9.59384888e-02 8.78712162e-02 2.13565469e-01 3.75379443e-01 5.03471911e-01 5.71861088e-01 5.96383274e-01 5.97744167e-01 5.87727010e-01 5.71858227e-01 5.52655816e-01 5.31648934e-01 5.10724783e-01 4.92776841e-01 4.80893433e-01 4.75606680e-01 4.73852217e-01 3.96486342e-01 9.26332697e-02 2.39689443e-02 5.46605647e-01 5.36320150e-01 4.17390019e-01 1.39527515e-01 1.97504640e-01 5.95155478e-01 6.64823532e-01 6.43863857e-01 5.48440993e-01 3.23158354e-01 5.11421502e-01 4.70030338e-01 1.67187601e-01 8.23793858e-02 1.91941246e-01 4.10843939e-01 5.50793529e-01 5.97168684e-01 6.02247953e-01 5.92566073e-01 5.77617824e-01 5.60376167e-01 5.41823447e-01 5.23030937e-01 5.06010950e-01 4.93051887e-01 4.84164059e-01 4.77071226e-01 3.96689981e-01 9.07198712e-02 2.12255698e-02 6.30366743e-01 6.49250150e-01 6.33274436e-01 5.06027043e-01 1.65477186e-01 1.04572184e-01 1.38925061e-01 1.41712815e-01 1.40551865e-01 1.01514228e-01 2.43772462e-01 6.79029763e-01 5.46283245e-01 1.58930719e-01 1.28329843e-01 3.44914556e-01 5.27088523e-01 5.84871173e-01 5.89539111e-01 5.80655575e-01 5.69092691e-01 5.56848049e-01 5.43781638e-01 5.29908419e-01 5.16166449e-01 5.03860772e-01 4.92420942e-01 4.80321616e-01 3.96354705e-01 8.90765265e-02 1.92025099e-02 6.86490059e-01 7.21422195e-01 7.31988490e-01 7.31475830e-01 6.22825980e-01 2.27235287e-01 1.51427969e-01 1.43929318e-01 1.48090482e-01 1.63965911e-01 2.48662472e-01 5.86159647e-01 7.13272274e-01 4.17839706e-01 2.35458344e-01 4.08047467e-01 5.33498228e-01 5.61499834e-01 5.57092488e-01 5.50138950e-01 5.45032144e-01 5.40775776e-01 5.35884619e-01 5.29481113e-01 5.21493375e-01 5.12131453e-01 5.00105560e-01 4.84432846e-01 3.96941751e-01 8.78839195e-02 1.76620763e-02 6.93444967e-01 7.38018513e-01 7.52259493e-01 7.67428458e-01 7.90808678e-01 7.53848374e-01 7.33808994e-01 7.28093386e-01 7.20471919e-01 7.40288377e-01 7.41074979e-01 7.51251817e-01 7.71736085e-01 6.73342407e-01 5.23414135e-01 5.17853498e-01 5.31921387e-01 5.15523732e-01 5.03927410e-01 5.03140152e-01 5.07722139e-01 5.13482451e-01 5.18217564e-01 5.20816088e-01 5.20588934e-01 5.16685188e-01 5.06851196e-01 4.90067124e-01 3.99562240e-01 8.72956589e-02 1.64625011e-02 6.56267881e-01 7.05372155e-01 7.16427028e-01 7.22027302e-01 7.34837890e-01 7.56906927e-01 7.93526173e-01 8.08546722e-01 8.09388816e-01 8.17024231e-01 8.15643847e-01 7.90523887e-01 7.71299005e-01 7.29198933e-01 6.37686908e-01 5.45906425e-01 4.81277317e-01 4.45280015e-01 4.38006192e-01 4.47918385e-01 4.63610291e-01 4.79303151e-01 4.93113875e-01 5.04531801e-01 5.12885213e-01 5.16533494e-01 5.12025595e-01 4.97384369e-01 4.04864818e-01 8.74095187e-02 1.55085335e-02 5.96355677e-01 6.40591979e-01 6.44396722e-01 6.32512569e-01 6.16895378e-01 6.07128382e-01 6.19302571e-01 6.40757501e-01 6.55185759e-01 6.63833857e-01 6.78909123e-01 6.86702371e-01 6.87250018e-01 6.53461099e-01 5.71392596e-01 4.72773701e-01 3.99696380e-01 3.69795501e-01 3.74193281e-01 3.95725131e-01 4.21045899e-01 4.44330096e-01 4.64779019e-01 4.83057708e-01 4.99177873e-01 5.11309147e-01 5.14856219e-01 5.05894899e-01 4.12876904e-01 8.82281438e-02 1.47309285e-02 5.48258841e-01 5.75997293e-01 5.75218201e-01 5.50194442e-01 5.11017740e-01 4.68242705e-01 4.45010394e-01 4.44395185e-01 4.49797839e-01 4.54909295e-01 4.77891415e-01 5.21599829e-01 5.48024058e-01 5.22737682e-01 4.53034401e-01 3.75314534e-01 3.23513001e-01 3.09999615e-01 3.26474071e-01 3.56553525e-01 3.87439847e-01 4.14449543e-01 4.38113838e-01 4.60241288e-01 4.81845886e-01 5.01728833e-01 5.14810622e-01 5.14621556e-01 4.23000365e-01 8.96425843e-02 1.40797859e-02 5.24365842e-01 5.38385034e-01 5.38266182e-01 5.17139435e-01 4.80456710e-01 4.34909552e-01 4.00004238e-01 3.87701899e-01 3.88009638e-01 3.87030065e-01 3.95763427e-01 4.29229915e-01 4.53854620e-01 4.28575486e-01 3.67791414e-01 3.09545636e-01 2.78438151e-01 2.79481918e-01 3.03719431e-01 3.36480111e-01 3.67384136e-01 3.93811435e-01 4.17345047e-01 4.40303922e-01 4.64403570e-01 4.89689916e-01 5.11938751e-01 5.22499621e-01 4.34278518e-01 9.14635882e-02 1.35224089e-02 5.15380442e-01 5.22228241e-01 5.22504687e-01 5.09305954e-01 4.83128905e-01 4.46293563e-01 4.11461264e-01 3.94205332e-01 3.95292819e-01 3.99598360e-01 4.03418720e-01 4.18263376e-01 4.23223138e-01 3.88305306e-01 3.31373215e-01 2.86885798e-01 2.70803779e-01 2.81424105e-01 3.07516634e-01 3.36603075e-01 3.62389535e-01 3.84657651e-01 4.05441970e-01 4.26817298e-01 4.50524300e-01 4.77791935e-01 5.06812751e-01 5.28703094e-01 4.45915014e-01 9.35112312e-02 1.30396951e-02 5.11715591e-01 5.15661955e-01 5.15659571e-01 5.08064628e-01 4.90826994e-01 4.61584985e-01 4.26485479e-01 4.02454734e-01 3.98367524e-01 4.05534416e-01 4.17420894e-01 4.29209441e-01 4.20818806e-01 3.79265070e-01 3.28312963e-01 2.97050238e-01 2.93299228e-01 3.09255689e-01 3.32278341e-01 3.53833288e-01 3.71987998e-01 3.88254970e-01 4.04584348e-01 4.22486454e-01 4.43268239e-01 4.68619883e-01 5.00010788e-01 5.32495141e-01 4.57874179e-01 9.57454666e-02 1.26170265e-02 5.07295549e-01 5.09994686e-01 5.10291696e-01 5.06713927e-01 4.97496516e-01 4.77458388e-01 4.43686426e-01 4.09951955e-01 3.95293206e-01 3.90732467e-01 3.97157162e-01 4.20216709e-01 4.23067272e-01 3.88094068e-01 3.45433474e-01 3.26312155e-01 3.31910640e-01 3.49649847e-01 3.68047923e-01 3.82709831e-01 3.94324601e-01 4.04960304e-01 4.16271538e-01 4.29331243e-01 4.44976211e-01 4.64574873e-01 4.92180645e-01 5.32867551e-01 4.71277863e-01 9.83760729e-02 1.21915564e-02 4.98164058e-01 4.98920143e-01 4.99084383e-01 4.97657567e-01 4.94709373e-01 4.87347245e-01 4.67961818e-01 4.34453368e-01 4.07004327e-01 3.87435466e-01 3.68700534e-01 3.72947097e-01 3.94753665e-01 3.96848828e-01 3.71714026e-01 3.61663848e-01 3.72310638e-01 3.89872521e-01 4.05274212e-01 4.16576415e-01 4.25039649e-01 4.32311475e-01 4.39608544e-01 4.47738796e-01 4.57313389e-01 4.69307303e-01 4.88090068e-01 5.29321790e-01 4.86196578e-01 1.01703025e-01 1.15405591e-02 4.88568842e-01 4.85099852e-01 4.82788205e-01 4.79921311e-01 4.77511913e-01 4.77421254e-01 4.79337454e-01 4.75833893e-01 4.56884354e-01 4.16019022e-01 3.78112137e-01 3.41957182e-01 3.34303856e-01 3.64131570e-01 3.86994630e-01 3.94640148e-01 4.08345699e-01 4.24717456e-01 4.38519388e-01 4.49019939e-01 4.57041591e-01 4.63352948e-01 4.68516976e-01 4.73082930e-01 4.77794439e-01 4.83934999e-01 4.94815230e-01 5.22107720e-01 4.89435732e-01 1.05547674e-01 9.89972986e-03 4.89106983e-01 4.84257489e-01 4.80702400e-01 4.77081358e-01 4.73578364e-01 4.72828984e-01 4.78741467e-01 4.92026746e-01 5.01938343e-01 4.70967203e-01 4.28145528e-01 3.81552011e-01 3.36770624e-01 3.49353909e-01 3.90020430e-01 4.18425083e-01 4.36425328e-01 4.50973600e-01 4.62032169e-01 4.70422238e-01 4.76987392e-01 4.82092649e-01 4.85893160e-01 4.88665730e-01 4.91064131e-01 4.94321883e-01 5.00238419e-01 5.09327948e-01 4.68103230e-01 1.13202341e-01 1.96142215e-03 
