# vtk DataFile Version 2.0
results_case1_non_linear/7_density.vtk, Created by Freefem++ 
ASCII
DATASET UNSTRUCTURED_GRID
POINTS 961 float
0 0 0
0.033333333 0 0
0.066666667 0 0
0.1 0 0
0.13333333 0 0
0.16666667 0 0
0.2 0 0
0.23333333 0 0
0.26666667 0 0
0.3 0 0
0.33333333 0 0
0.36666667 0 0
0.4 0 0
0.43333333 0 0
0.46666667 0 0
0.5 0 0
0.53333333 0 0
0.56666667 0 0
0.6 0 0
0.63333333 0 0
0.66666667 0 0
0.7 0 0
0.73333333 0 0
0.76666667 0 0
0.8 0 0
0.83333333 0 0
0.86666667 0 0
0.9 0 0
0.93333333 0 0
0.96666667 0 0
1 0 0
0 0.033333333 0
0.033333333 0.033333333 0
0.066666667 0.033333333 0
0.1 0.033333333 0
0.13333333 0.033333333 0
0.16666667 0.033333333 0
0.2 0.033333333 0
0.23333333 0.033333333 0
0.26666667 0.033333333 0
0.3 0.033333333 0
0.33333333 0.033333333 0
0.36666667 0.033333333 0
0.4 0.033333333 0
0.43333333 0.033333333 0
0.46666667 0.033333333 0
0.5 0.033333333 0
0.53333333 0.033333333 0
0.56666667 0.033333333 0
0.6 0.033333333 0
0.63333333 0.033333333 0
0.66666667 0.033333333 0
0.7 0.033333333 0
0.73333333 0.033333333 0
0.76666667 0.033333333 0
0.8 0.033333333 0
0.83333333 0.033333333 0
0.86666667 0.033333333 0
0.9 0.033333333 0
0.93333333 0.033333333 0
0.96666667 0.033333333 0
1 0.033333333 0
0 0.066666667 0
0.033333333 0.066666667 0
0.066666667 0.066666667 0
0.1 0.066666667 0
0.13333333 0.066666667 0
0.16666667 0.066666667 0
0.2 0.066666667 0
0.23333333 0.066666667 0
0.26666667 0.066666667 0
0.3 0.066666667 0
0.33333333 0.066666667 0
0.36666667 0.066666667 0
0.4 0.066666667 0
0.43333333 0.066666667 0
0.46666667 0.066666667 0
0.5 0.066666667 0
0.53333333 0.066666667 0
0.56666667 0.066666667 0
0.6 0.066666667 0
0.63333333 0.066666667 0
0.66666667 0.066666667 0
0.7 0.066666667 0
0.73333333 0.066666667 0
0.76666667 0.066666667 0
0.8 0.066666667 0
0.83333333 0.066666667 0
0.86666667 0.066666667 0
0.9 0.066666667 0
0.93333333 0.066666667 0
0.96666667 0.066666667 0
1 0.066666667 0
0 0.1 0
0.033333333 0.1 0
0.066666667 0.1 0
0.1 0.1 0
0.13333333 0.1 0
0.16666667 0.1 0
0.2 0.1 0
0.23333333 0.1 0
0.26666667 0.1 0
0.3 0.1 0
0.33333333 0.1 0
0.36666667 0.1 0
0.4 0.1 0
0.43333333 0.1 0
0.46666667 0.1 0
0.5 0.1 0
0.53333333 0.1 0
0.56666667 0.1 0
0.6 0.1 0
0.63333333 0.1 0
0.66666667 0.1 0
0.7 0.1 0
0.73333333 0.1 0
0.76666667 0.1 0
0.8 0.1 0
0.83333333 0.1 0
0.86666667 0.1 0
0.9 0.1 0
0.93333333 0.1 0
0.96666667 0.1 0
1 0.1 0
0 0.13333333 0
0.033333333 0.13333333 0
0.066666667 0.13333333 0
0.1 0.13333333 0
0.13333333 0.13333333 0
0.16666667 0.13333333 0
0.2 0.13333333 0
0.23333333 0.13333333 0
0.26666667 0.13333333 0
0.3 0.13333333 0
0.33333333 0.13333333 0
0.36666667 0.13333333 0
0.4 0.13333333 0
0.43333333 0.13333333 0
0.46666667 0.13333333 0
0.5 0.13333333 0
0.53333333 0.13333333 0
0.56666667 0.13333333 0
0.6 0.13333333 0
0.63333333 0.13333333 0
0.66666667 0.13333333 0
0.7 0.13333333 0
0.73333333 0.13333333 0
0.76666667 0.13333333 0
0.8 0.13333333 0
0.83333333 0.13333333 0
0.86666667 0.13333333 0
0.9 0.13333333 0
0.93333333 0.13333333 0
0.96666667 0.13333333 0
1 0.13333333 0
0 0.16666667 0
0.033333333 0.16666667 0
0.066666667 0.16666667 0
0.1 0.16666667 0
0.13333333 0.16666667 0
0.16666667 0.16666667 0
0.2 0.16666667 0
0.23333333 0.16666667 0
0.26666667 0.16666667 0
0.3 0.16666667 0
0.33333333 0.16666667 0
0.36666667 0.16666667 0
0.4 0.16666667 0
0.43333333 0.16666667 0
0.46666667 0.16666667 0
0.5 0.16666667 0
0.53333333 0.16666667 0
0.56666667 0.16666667 0
0.6 0.16666667 0
0.63333333 0.16666667 0
0.66666667 0.16666667 0
0.7 0.16666667 0
0.73333333 0.16666667 0
0.76666667 0.16666667 0
0.8 0.16666667 0
0.83333333 0.16666667 0
0.86666667 0.16666667 0
0.9 0.16666667 0
0.93333333 0.16666667 0
0.96666667 0.16666667 0
1 0.16666667 0
0 0.2 0
0.033333333 0.2 0
0.066666667 0.2 0
0.1 0.2 0
0.13333333 0.2 0
0.16666667 0.2 0
0.2 0.2 0
0.23333333 0.2 0
0.26666667 0.2 0
0.3 0.2 0
0.33333333 0.2 0
0.36666667 0.2 0
0.4 0.2 0
0.43333333 0.2 0
0.46666667 0.2 0
0.5 0.2 0
0.53333333 0.2 0
0.56666667 0.2 0
0.6 0.2 0
0.63333333 0.2 0
0.66666667 0.2 0
0.7 0.2 0
0.73333333 0.2 0
0.76666667 0.2 0
0.8 0.2 0
0.83333333 0.2 0
0.86666667 0.2 0
0.9 0.2 0
0.93333333 0.2 0
0.96666667 0.2 0
1 0.2 0
0 0.23333333 0
0.033333333 0.23333333 0
0.066666667 0.23333333 0
0.1 0.23333333 0
0.13333333 0.23333333 0
0.16666667 0.23333333 0
0.2 0.23333333 0
0.23333333 0.23333333 0
0.26666667 0.23333333 0
0.3 0.23333333 0
0.33333333 0.23333333 0
0.36666667 0.23333333 0
0.4 0.23333333 0
0.43333333 0.23333333 0
0.46666667 0.23333333 0
0.5 0.23333333 0
0.53333333 0.23333333 0
0.56666667 0.23333333 0
0.6 0.23333333 0
0.63333333 0.23333333 0
0.66666667 0.23333333 0
0.7 0.23333333 0
0.73333333 0.23333333 0
0.76666667 0.23333333 0
0.8 0.23333333 0
0.83333333 0.23333333 0
0.86666667 0.23333333 0
0.9 0.23333333 0
0.93333333 0.23333333 0
0.96666667 0.23333333 0
1 0.23333333 0
0 0.26666667 0
0.033333333 0.26666667 0
0.066666667 0.26666667 0
0.1 0.26666667 0
0.13333333 0.26666667 0
0.16666667 0.26666667 0
0.2 0.26666667 0
0.23333333 0.26666667 0
0.26666667 0.26666667 0
0.3 0.26666667 0
0.33333333 0.26666667 0
0.36666667 0.26666667 0
0.4 0.26666667 0
0.43333333 0.26666667 0
0.46666667 0.26666667 0
0.5 0.26666667 0
0.53333333 0.26666667 0
0.56666667 0.26666667 0
0.6 0.26666667 0
0.63333333 0.26666667 0
0.66666667 0.26666667 0
0.7 0.26666667 0
0.73333333 0.26666667 0
0.76666667 0.26666667 0
0.8 0.26666667 0
0.83333333 0.26666667 0
0.86666667 0.26666667 0
0.9 0.26666667 0
0.93333333 0.26666667 0
0.96666667 0.26666667 0
1 0.26666667 0
0 0.3 0
0.033333333 0.3 0
0.066666667 0.3 0
0.1 0.3 0
0.13333333 0.3 0
0.16666667 0.3 0
0.2 0.3 0
0.23333333 0.3 0
0.26666667 0.3 0
0.3 0.3 0
0.33333333 0.3 0
0.36666667 0.3 0
0.4 0.3 0
0.43333333 0.3 0
0.46666667 0.3 0
0.5 0.3 0
0.53333333 0.3 0
0.56666667 0.3 0
0.6 0.3 0
0.63333333 0.3 0
0.66666667 0.3 0
0.7 0.3 0
0.73333333 0.3 0
0.76666667 0.3 0
0.8 0.3 0
0.83333333 0.3 0
0.86666667 0.3 0
0.9 0.3 0
0.93333333 0.3 0
0.96666667 0.3 0
1 0.3 0
0 0.33333333 0
0.033333333 0.33333333 0
0.066666667 0.33333333 0
0.1 0.33333333 0
0.13333333 0.33333333 0
0.16666667 0.33333333 0
0.2 0.33333333 0
0.23333333 0.33333333 0
0.26666667 0.33333333 0
0.3 0.33333333 0
0.33333333 0.33333333 0
0.36666667 0.33333333 0
0.4 0.33333333 0
0.43333333 0.33333333 0
0.46666667 0.33333333 0
0.5 0.33333333 0
0.53333333 0.33333333 0
0.56666667 0.33333333 0
0.6 0.33333333 0
0.63333333 0.33333333 0
0.66666667 0.33333333 0
0.7 0.33333333 0
0.73333333 0.33333333 0
0.76666667 0.33333333 0
0.8 0.33333333 0
0.83333333 0.33333333 0
0.86666667 0.33333333 0
0.9 0.33333333 0
0.93333333 0.33333333 0
0.96666667 0.33333333 0
1 0.33333333 0
0 0.36666667 0
0.033333333 0.36666667 0
0.066666667 0.36666667 0
0.1 0.36666667 0
0.13333333 0.36666667 0
0.16666667 0.36666667 0
0.2 0.36666667 0
0.23333333 0.36666667 0
0.26666667 0.36666667 0
0.3 0.36666667 0
0.33333333 0.36666667 0
0.36666667 0.36666667 0
0.4 0.36666667 0
0.43333333 0.36666667 0
0.46666667 0.36666667 0
0.5 0.36666667 0
0.53333333 0.36666667 0
0.56666667 0.36666667 0
0.6 0.36666667 0
0.63333333 0.36666667 0
0.66666667 0.36666667 0
0.7 0.36666667 0
0.73333333 0.36666667 0
0.76666667 0.36666667 0
0.8 0.36666667 0
0.83333333 0.36666667 0
0.86666667 0.36666667 0
0.9 0.36666667 0
0.93333333 0.36666667 0
0.96666667 0.36666667 0
1 0.36666667 0
0 0.4 0
0.033333333 0.4 0
0.066666667 0.4 0
0.1 0.4 0
0.13333333 0.4 0
0.16666667 0.4 0
0.2 0.4 0
0.23333333 0.4 0
0.26666667 0.4 0
0.3 0.4 0
0.33333333 0.4 0
0.36666667 0.4 0
0.4 0.4 0
0.43333333 0.4 0
0.46666667 0.4 0
0.5 0.4 0
0.53333333 0.4 0
0.56666667 0.4 0
0.6 0.4 0
0.63333333 0.4 0
0.66666667 0.4 0
0.7 0.4 0
0.73333333 0.4 0
0.76666667 0.4 0
0.8 0.4 0
0.83333333 0.4 0
0.86666667 0.4 0
0.9 0.4 0
0.93333333 0.4 0
0.96666667 0.4 0
1 0.4 0
0 0.43333333 0
0.033333333 0.43333333 0
0.066666667 0.43333333 0
0.1 0.43333333 0
0.13333333 0.43333333 0
0.16666667 0.43333333 0
0.2 0.43333333 0
0.23333333 0.43333333 0
0.26666667 0.43333333 0
0.3 0.43333333 0
0.33333333 0.43333333 0
0.36666667 0.43333333 0
0.4 0.43333333 0
0.43333333 0.43333333 0
0.46666667 0.43333333 0
0.5 0.43333333 0
0.53333333 0.43333333 0
0.56666667 0.43333333 0
0.6 0.43333333 0
0.63333333 0.43333333 0
0.66666667 0.43333333 0
0.7 0.43333333 0
0.73333333 0.43333333 0
0.76666667 0.43333333 0
0.8 0.43333333 0
0.83333333 0.43333333 0
0.86666667 0.43333333 0
0.9 0.43333333 0
0.93333333 0.43333333 0
0.96666667 0.43333333 0
1 0.43333333 0
0 0.46666667 0
0.033333333 0.46666667 0
0.066666667 0.46666667 0
0.1 0.46666667 0
0.13333333 0.46666667 0
0.16666667 0.46666667 0
0.2 0.46666667 0
0.23333333 0.46666667 0
0.26666667 0.46666667 0
0.3 0.46666667 0
0.33333333 0.46666667 0
0.36666667 0.46666667 0
0.4 0.46666667 0
0.43333333 0.46666667 0
0.46666667 0.46666667 0
0.5 0.46666667 0
0.53333333 0.46666667 0
0.56666667 0.46666667 0
0.6 0.46666667 0
0.63333333 0.46666667 0
0.66666667 0.46666667 0
0.7 0.46666667 0
0.73333333 0.46666667 0
0.76666667 0.46666667 0
0.8 0.46666667 0
0.83333333 0.46666667 0
0.86666667 0.46666667 0
0.9 0.46666667 0
0.93333333 0.46666667 0
0.96666667 0.46666667 0
1 0.46666667 0
0 0.5 0
0.033333333 0.5 0
0.066666667 0.5 0
0.1 0.5 0
0.13333333 0.5 0
0.16666667 0.5 0
0.2 0.5 0
0.23333333 0.5 0
0.26666667 0.5 0
0.3 0.5 0
0.33333333 0.5 0
0.36666667 0.5 0
0.4 0.5 0
0.43333333 0.5 0
0.46666667 0.5 0
0.5 0.5 0
0.53333333 0.5 0
0.56666667 0.5 0
0.6 0.5 0
0.63333333 0.5 0
0.66666667 0.5 0
0.7 0.5 0
0.73333333 0.5 0
0.76666667 0.5 0
0.8 0.5 0
0.83333333 0.5 0
0.86666667 0.5 0
0.9 0.5 0
0.93333333 0.5 0
0.96666667 0.5 0
1 0.5 0
0 0.53333333 0
0.033333333 0.53333333 0
0.066666667 0.53333333 0
0.1 0.53333333 0
0.13333333 0.53333333 0
0.16666667 0.53333333 0
0.2 0.53333333 0
0.23333333 0.53333333 0
0.26666667 0.53333333 0
0.3 0.53333333 0
0.33333333 0.53333333 0
0.36666667 0.53333333 0
0.4 0.53333333 0
0.43333333 0.53333333 0
0.46666667 0.53333333 0
0.5 0.53333333 0
0.53333333 0.53333333 0
0.56666667 0.53333333 0
0.6 0.53333333 0
0.63333333 0.53333333 0
0.66666667 0.53333333 0
0.7 0.53333333 0
0.73333333 0.53333333 0
0.76666667 0.53333333 0
[...]
CELL_DATA 1920
Scalars  Label int 1
LOOKUP_TABLE FreeFempp_table
0
0
0
0
0
0
0
0
0
0
0
0
0
0
0
0
0
0
0
0
0
0
0
0
0
0
0
0
0
0
0
0
0
0
0
0
0
0
0
0
0
0
0
0
0
0
0
0
0
0
0
0
0
0
0
0
0
0
0
0
0
0
0
0
0
0
0
0
0
0
0
0
0
0
0
0
0
0
0
0
0
0
0
0
0
0
0
0
0
0
0
0
0
0
0
0
0
0
0
0
0
0
0
0
0
0
0
0
0
0
0
0
0
0
0
0
0
0
0
0
0
0
0
0
0
0
0
0
0
0
0
0
0
0
0
0
0
0
0
0
0
0
0
0
0
0
0
0
0
0
0
0
0
0
0
0
0
0
0
0
0
0
0
0
0
0
0
0
0
0
0
0
0
0
0
0
0
0
0
0
0
0
0
0
0
0
0
0
0
0
0
0
0
0
0
0
0
0
0
0
0
0
0
0
0
0
0
0
0
0
0
0
0
0
0
0
0
0
0
0
0
0
0
0
0
0
0
0
0
0
0
0
0
0
0
0
0
0
0
0
0
0
0
0
0
0
0
0
0
0
0
0
0
0
0
0
0
0
0
0
0
0
0
0
0
0
0
0
0
0
0
0
0
0
0
0
0
0
0
0
0
0
0
0
0
0
0
0
0
0
0
0
0
0
0
0
0
0
0
0
0
0
0
0
0
0
0
0
0
0
0
0
0
0
0
0
0
0
0
0
0
0
0
0
0
0
0
0
0
0
0
0
0
0
0
0
0
0
0
0
0
0
0
0
0
0
0
0
0
0
0
0
0
0
0
0
0
0
0
0
0
0
0
0
0
0
0
0
0
0
0
0
0
0
0
0
0
0
0
0
0
0
0
0
0
0
0
0
0
0
0
0
0
0
0
0
0
0
0
0
0
0
0
0
0
0
0
0
0
0
0
0
0
0
0
0
0
0
0
0
0
0
0
0
0
0
0
0
0
0
0
0
0
0
0
0
0
0
0
0
0
0
0
0
0
0
0
0
0
0
0
0
0
0
0
0
0
0
0
0
0
0
0
0
0
0
0
0
0
0
0
0
0
0
0
0
0
0
0
0
0
0
0
0
0
0
0
0
0
0
0
0
0
0
0
0
0
0
0
0
0
0
0
0
0
0
0
0
0
0
0
0
0
0
0
0
0
0
0
0
0
0
0
0
0
0
0
0
0
0
0
0
0
0
0
0
0
0
0
0
0
0
0
0
0
0
0
0
0
0
0
0
0
0
0
0
0
0
0
0
0
0
0
0
0
0
0
0
0
0
0
0
0
0
0
0
0
0
0
0
0
0
0
0
0
0
0
0
0
0
0
0
0
0
0
0
0
0
0
0
0
0
0
0
0
0
0
0
0
0
0
0
0
0
0
0
0
0
0
0
0
0
0
0
0
0
0
0
0
0
0
0
0
0
0
0
0
0
0
0
0
0
0
0
0
0
0
0
0
0
0
0
0
0
0
0
0
0
0
0
0
0
0
0
0
0
0
0
0
0
0
0
0
0
0
0
0
0
0
0
0
0
0
0
0
0
0
0
0
0
0
0
0
0
0
0
0
0
0
0
0
0
0
0
0
0
0
0
0
0
0
0
0
0
0
0
0
0
0
0
0
0
0
0
0
0
0
0
0
0
0
0
0
0
0
0
0
0
0
0
0
0
0
0
0
0
0
0
0
0
0
0
0
0
0
0
0
0
0
0
0
0
0
0
0
0
0
0
0
0
0
0
0
0
0
0
0
0
0
0
0
0
0
0
0
0
0
0
0
0
0
0
0
0
0
0
0
0
0
0
0
0
0
0
0
0
0
0
0
0
0
0
0
0
0
0
0
0
0
0
0
0
0
0
0
0
0
0
0
0
0
0
0
0
0
0
0
0
0
0
0
0
0
0
0
0
0
0
0
0
0
0
0
0
0
0
0
0
0
0
0
0
0
0
0
0
0
0
0
0
0
0
0
0
0
0
0
0
0
0
0
0
0
0
0
0
0
0
0
0
0
0
0
0
0
0
0
0
0
0
0
0
0
0
0
0
0
0
0
0
0
0
0
0
0
0
0
0
0
0
0
0
0
0
0
0
0
0
0
0
0
0
0
0
0
0
0
0
0
0
0
0
0
0
0
0
0
0
0
0
0
0
0
0
0
0
0
0
0
0
0
0
0
0
0
0
0
0
0
0
0
0
0
0
0
0
0
0
0
0
0
0
0
0
0
0
0
0
0
0
0
0
0
0
0
0
0
0
0
0
0
0
0
0
0
0
0
0
0
0
0
0
0
0
0
0
0
0
0
0
0
0
0
0
0
0
0
0
0
0
0
0
0
0
0
0
0
0
0
0
0
0
0
0
0
0
0
0
0
0
0
0
0
0
0
0
0
0
0
0
0
0
0
0
0
0
0
0
0
0
0
0
0
0
0
0
0
0
0
0
0
0
0
0
0
0
0
0
0
0
0
0
0
0
0
0
0
0
0
0
0
0
0
0
0
0
0
0
0
0
0
0
0
0
0
0
0
0
0
0
0
0
0
0
0
0
0
0
0
0
0
0
0
0
0
0
0
0
0
0
0
0
0
0
0
0
0
0
0
0
0
0
0
0
0
0
0
0
0
0
0
0
0
0
0
0
0
0
0
0
0
0
0
0
0
0
0
0
0
0
0
0
0
0
0
0
0
0
0
0
0
0
0
0
0
0
0
0
0
0
0
0
0
0
0
0
0
0
0
0
0
0
0
0
0
0
0
0
0
0
0
0
0
0
0
0
0
0
0
0
0
0
0
0
0
0
0
0
0
0
0
0
0
0
0
0
0
0
0
0
0
0
0
0
0
0
0
0
0
0
0
0
0
0
0
0
0
0
0
0
0
0
0
0
0
0
0
0
0
0
0
0
0
0
0
0
0
0
0
0
0
0
0
0
0
0
0
0
0
0
0
0
0
0
0
0
0
0
0
0
0
0
0
0
0
0
0
0
0
0
0
0
0
0
0
0
0
0
0
0
0
0
0
0
0
0
0
0
0
0
0
0
0
0
0
0
0
0
0
0
0
0
0
0
0
0
0
0
0
0
0
0
0
0
0
0
0
0
0
0
0
0
0
0
0
0
0
0
0
0
0
0
0
0
0
0
0
0
0
0
0
0
0
0
0
0
0
0
0
0
0
0
0
0
0
0
0
0
0
0
0
0
0
0
0
0
0
0
0
0
0
0
0
0
0
0
0
0
0
0
0
0
0
0
0
0
0
0
0
0
0
0
0
0
0
0
0
0
0
0
0
0
0
0
0
0
0
0
0
0
0
0
0
0
0
0
0
0
0
0
0
0
0
0
0
0
0
0
0
0
0
0
0
0
0
0
0
0
0
0
0
0
0
0
0
0
0
0
0
0
0
0
0
0
0
0
0
0
0
0
0
0
0
0
0
0
0
0
0
0
0
0
0
0
0
0
0
0
0
0
0
0
0
0
0
0
0
0
0
0
0
0
0
0
0
0
0
0
0
0
0
0
0
0
0
0
0
0
0
0
0
0
0
0
0
0
0
0
0
0
0
0
0
0
0
0
0
0
0
0
0
0
0
0
0
0
0
0
0
0
0
0
0
0
0
0
0
0
0
0
0
0
0
0
0
0
0
0
0
0
0
0
0
0
0
0
0
0
0
0
0
0
0
0
0
0
0
0
0
0
0
0
0
0
0
0
0
0
0
0
0
0
0
0
0
0
0
0
0
0
0
0
0
0
0
0
0
0
0
0
0
0
0
0
0
0
0
0
0
0
0
0
0
0
0
0
0
0
0
0
0
0
0
0
0
0
0
0
0
0
0
0
0
0
0
0
0
0
0
0
0
0
0
0
0
0
0
0
0
0
0
0
0
0
0
0
0
0
0
0
0
0
0
0
0
0
0
0
0
0
0
0
0
0
0
0
0
0
0
0
0
0
0
0
0
0
0
0
0
0
0
0
0
0
0
0
0
0
0
0
0
0
0
0
0
0
0
0
0
0
0
0
0
0
0
0
0
0
0
0
0
0
0
0
0
0
0
0
0
0
0
0
0
0
0
0
0
0
0
0
1
1
1
1
1
1
1
1
1
1
1
1
1
1
1
1
1
1
1
1
1
1
1
1
1
1
1
1
1
1
2
2
2
2
2
2
2
2
2
2
2
2
2
2
2
2
2
2
2
2
2
2
2
2
2
2
2
2
2
2
3
3
3
3
3
3
3
3
3
3
3
3
3
3
3
3
3
3
3
3
3
3
3
3
3
3
3
3
3
3
4
4
4
4
4
4
4
4
4
4
4
4
4
4
4
4
4
4
4
4
4
4
4
4
4
4
4
4
4
4

LOOKUP_TABLE FreeFempp_table 5
1.00000000 0.00000000 0.00000000 1.00000000
1.00000000 1.00000000 0.00000000 1.00000000
1.00000000 0.00000000 1.00000000 1.00000000
0.00000000 1.00000000 0.00000000 1.00000000
0.00000000 1.00000000 1.00000000 1.00000000

POINT_DATA 961
FIELD FieldData 1
Density 1 961 float
5.21050751e-01 5.28521419e-01 5.29378057e-01 5.40111959e-01 5.19161761e-01 4.60486144e-01 4.63339746e-01 4.60463703e-01 4.54948813e-01 4.36847687e-01 4.58132327e-01 5.54350615e-01 5.28888285e-01 5.12220979e-01 5.06612897e-01 4.52240735e-01 3.08815002e-01 6.05723560e-02 4.72592161e-04 2.29786220e-03 2.90835742e-03 2.85430113e-03 2.75134272e-03 2.68637622e-03 2.65584281e-03 2.60314532e-03 2.59817345e-03 8.58499389e-03 5.63328601e-02 2.87102044e-01 3.31321597e-01 5.18060803e-01 4.97839898e-01 4.57160354e-01 4.46882457e-01 3.96133542e-01 1.60978034e-01 1.14572681e-01 1.21768050e-01 1.32947981e-01 1.50785416e-01 2.41739720e-01 5.27622700e-01 5.40199816e-01 4.83986646e-01 4.25112545e-01 3.61809105e-01 1.26307115e-01 2.53223516e-02 2.02897787e-02 7.46764541e-02 8.12892392e-02 8.15095752e-02 8.12043697e-02 8.08717608e-02 8.06014091e-02 8.04664493e-02 8.07989463e-02 8.34517851e-02 6.20683096e-02 6.51305690e-02 1.07759304e-01 3.90725881e-01 3.64974469e-01 1.58892095e-01 9.70719457e-02 7.95797929e-02 2.77803428e-02 4.25431468e-02 1.34826392e-01 1.65976629e-01 1.61911771e-01 1.87639266e-01 3.99629951e-01 4.39218849e-01 3.66775215e-01 1.38651043e-01 7.73043185e-02 2.18305178e-02 -1.35430120e-04 7.96084851e-02 3.59451562e-01 4.17754024e-01 4.20933127e-01 4.20141518e-01 4.18896079e-01 4.17629957e-01 4.16630000e-01 4.16029125e-01 4.13517416e-01 3.63138884e-01 1.32485479e-01 7.57449418e-02 6.61136210e-02 6.76454008e-02 3.18349712e-02 6.26046350e-03 3.70709188e-02 1.08036377e-01 2.13633314e-01 5.39612174e-01 6.18622124e-01 5.78282297e-01 4.20476735e-01 3.06449473e-01 1.33448824e-01 7.76744857e-02 2.31102668e-02 -2.17723733e-04 2.39933524e-02 8.13371837e-02 1.57713294e-01 4.29387540e-01 5.00485122e-01 5.00592232e-01 5.00009656e-01 4.99276161e-01 4.98269349e-01 4.97121960e-01 4.95907873e-01 4.94262725e-01 4.87085104e-01 4.34297889e-01 4.00659859e-01 3.42385424e-03 4.99059334e-02 1.31435409e-01 1.24543212e-01 1.98947266e-01 5.11082590e-01 5.91031253e-01 5.77759504e-01 2.35492513e-01 1.44431114e-01 1.05458282e-01 6.90579563e-02 2.24427506e-02 1.10868830e-03 2.54062191e-02 8.15069973e-02 1.44046530e-01 3.73836666e-01 4.36710775e-01 4.90385532e-01 5.10537982e-01 5.05337954e-01 5.04807353e-01 5.04561186e-01 5.04137516e-01 5.03496051e-01 5.02638698e-01 5.01609802e-01 5.00477433e-01 4.96588469e-01 4.99100387e-01 1.35590257e-02 1.23406053e-01 5.74570894e-01 5.83160162e-01 6.10610425e-01 6.45001173e-01 5.54768384e-01 2.11363032e-01 5.04739098e-02 2.25541182e-02 7.08139837e-02 7.95561001e-02 8.23936388e-02 9.28381011e-02 1.52717143e-01 3.86660188e-01 4.48042244e-01 4.99795645e-01 5.24009228e-01 5.23694038e-01 5.19474208e-01 5.16033828e-01 5.15142620e-01 5.14372408e-01 5.13761342e-01 5.13235509e-01 5.12763917e-01 5.12428045e-01 5.12715995e-01 5.12044072e-01 5.08247554e-01 4.91655152e-03 9.92575735e-02 3.82454425e-01 3.02876502e-01 5.50831795e-01 4.80504006e-01 1.85161442e-01 4.35757115e-02 2.54109222e-02 1.28843978e-01 3.66757482e-01 4.32884604e-01 4.46608275e-01 4.57244724e-01 4.73099381e-01 5.21052718e-01 5.42244315e-01 5.40395677e-01 5.34943581e-01 5.30958831e-01 5.29304564e-01 5.27902842e-01 5.26391208e-01 5.24853289e-01 5.23630857e-01 5.22747755e-01 5.22217870e-01 5.22099197e-01 5.22731602e-01 5.21937191e-01 5.15661657e-01 1.04831299e-02 1.42804921e-01 6.04704142e-01 2.19215155e-01 1.13330163e-01 1.13525376e-01 3.82872559e-02 3.37462202e-02 1.40834481e-01 3.82057905e-01 4.98885512e-01 5.36124527e-01 5.42059779e-01 5.47689199e-01 5.52225113e-01 5.54351807e-01 5.47733247e-01 5.42895257e-01 5.40666223e-01 5.39419889e-01 5.38436830e-01 5.37142754e-01 5.35419703e-01 5.33523858e-01 5.31781435e-01 5.30387402e-01 5.29483557e-01 5.29155076e-01 5.29578328e-01 5.28189421e-01 5.20431757e-01 1.23829767e-02 1.42352968e-01 6.70275092e-01 5.41207552e-01 1.83032617e-01 1.23572610e-01 1.14314228e-01 1.70273557e-01 4.18346822e-01 5.23846507e-01 5.56046546e-01 5.53400636e-01 5.50985456e-01 5.50524890e-01 5.49075186e-01 5.46927631e-01 5.44719160e-01 5.43760896e-01 5.43198049e-01 5.42825639e-01 5.42355835e-01 5.41498184e-01 5.40076911e-01 5.38203776e-01 5.36170602e-01 5.34307659e-01 5.32911897e-01 5.32150567e-01 5.32103419e-01 5.30280232e-01 5.22197366e-01 1.45761324e-02 1.41639814e-01 6.67897344e-01 6.39535606e-01 5.06272435e-01 5.13753891e-01 5.25179386e-01 5.33543527e-01 5.63467026e-01 5.73895693e-01 5.60961246e-01 5.53355575e-01 5.50077319e-01 5.46940804e-01 5.43425977e-01 5.40530026e-01 5.39161026e-01 5.39151847e-01 5.39513111e-01 5.40041268e-01 5.40414095e-01 5.40277481e-01 5.39374709e-01 5.37704110e-01 5.35497010e-01 5.33163965e-01 5.31196296e-01 5.29917359e-01 5.29339135e-01 5.27505696e-01 5.20502329e-01 1.67972073e-02 1.37565613e-01 6.51968360e-01 6.58613205e-01 5.23077250e-01 5.23612857e-01 5.55611312e-01 5.65762937e-01 5.63518405e-01 5.49536109e-01 5.41782498e-01 5.39323568e-01 5.37330568e-01 5.34601629e-01 5.31660378e-01 5.29460728e-01 5.28737187e-01 5.29327869e-01 5.30555606e-01 5.32017112e-01 5.33267736e-01 5.33882320e-01 5.33513784e-01 5.32015026e-01 5.29498518e-01 5.26415348e-01 5.23601770e-01 5.21762192e-01 5.20824730e-01 5.19669235e-01 5.15265644e-01 1.92004126e-02 1.31311387e-01 6.22559726e-01 6.76528633e-01 5.60799658e-01 5.12023151e-01 5.13193727e-01 5.20701289e-01 5.22155643e-01 5.20179331e-01 5.19571006e-01 5.19565046e-01 5.18919766e-01 5.17645061e-01 5.16150892e-01 5.15166044e-01 5.15315652e-01 5.16606867e-01 5.18598437e-01 5.20833433e-01 5.22803545e-01 5.24011075e-01 5.23992062e-01 5.22386551e-01 5.19045472e-01 5.14315367e-01 5.09704471e-01 5.07055163e-01 5.06217599e-01 5.06903708e-01 5.06761849e-01 2.19668336e-02 1.23549737e-01 5.80740511e-01 6.75890565e-01 6.03287697e-01 5.45419097e-01 5.20367146e-01 5.12688458e-01 5.08497477e-01 5.04725933e-01 5.02468228e-01 5.01499116e-01 5.01163542e-01 5.00917792e-01 5.00699222e-01 5.00904500e-01 5.01970887e-01 5.03955066e-01 5.06548285e-01 5.09310246e-01 5.11725783e-01 5.13252437e-01 5.13294697e-01 5.11156023e-01 5.06063759e-01 4.97743160e-01 4.88819659e-01 4.84412849e-01 4.84667450e-01 4.89150673e-01 4.95113909e-01 2.73744185e-02 1.15806952e-01 5.27716935e-01 6.58506215e-01 6.27376735e-01 5.76961815e-01 5.39858460e-01 5.19114852e-01 5.06220698e-01 4.96687829e-01 4.90284353e-01 4.87500310e-01 4.87280339e-01 4.87811059e-01 4.88563478e-01 4.89723831e-01 4.91544366e-01 4.94053543e-01 4.97007430e-01 5.00007808e-01 5.02568305e-01 5.04140317e-01 5.04023194e-01 5.01091361e-01 4.93381083e-01 4.78740931e-01 4.60853577e-01 4.52163547e-01 4.55256522e-01 4.66754943e-01 4.80649382e-01 6.44915029e-02 8.41973647e-02 4.29198027e-01 6.24727190e-01 6.38565004e-01 6.03657722e-01 5.62407792e-01 5.30839503e-01 5.09000540e-01 4.93212521e-01 4.82324123e-01 4.77379411e-01 4.77907330e-01 4.79962468e-01 4.81656194e-01 4.83434081e-01 4.85665023e-01 4.88387614e-01 4.91401464e-01 4.94352996e-01 4.96797442e-01 4.98210788e-01 4.97868210e-01 4.94359374e-01 4.84314650e-01 4.61731106e-01 4.28782701e-01 4.09921855e-01 4.17092085e-01 4.40530032e-01 4.64415461e-01 3.28800112e-01 1.26858234e-01 1.49286598e-01 4.95356202e-01 6.34531856e-01 6.31339490e-01 5.92905641e-01 5.50239086e-01 5.17923772e-01 4.96460110e-01 4.81942207e-01 4.73485857e-01 4.72975582e-01 4.77146327e-01 4.80328530e-01 4.82402802e-01 4.84549344e-01 4.87062275e-01 4.89804685e-01 4.92453635e-01 4.94593233e-01 4.95732009e-01 4.95201379e-01 4.91657317e-01 4.81099695e-01 4.52803612e-01 4.00259286e-01 3.59713167e-01 3.68462533e-01 4.09879327e-01 4.47257429e-01 4.78416204e-01 3.98617893e-01 1.32522777e-01 1.60025001e-01 5.13098061e-01 6.44514978e-01 6.36892080e-01 5.91346383e-01 5.44701159e-01 5.13660133e-01 4.95011359e-01 4.82500166e-01 4.75857735e-01 4.78473634e-01 4.83287454e-01 4.85759079e-01 4.87361640e-01 4.89210248e-01 4.91363496e-01 4.93515223e-01 4.95246530e-01 4.96082306e-01 4.95434940e-01 4.92275447e-01 4.83243853e-01 4.55488384e-01 3.87227386e-01 3.11304212e-01 3.08614522e-01 3.70956272e-01 4.27700818e-01 5.05819261e-01 4.98170555e-01 4.02903110e-01 1.41055077e-01 1.69830069e-01 4.87912893e-01 6.10204339e-01 6.43331289e-01 6.06130183e-01 5.60207546e-01 5.27947664e-01 5.07294595e-01 4.92382884e-01 4.86243635e-01 4.88839537e-01 4.91570920e-01 4.92591888e-01 4.93487239e-01 4.94830906e-01 4.96378511e-01 4.97683287e-01 4.98264581e-01 4.97596800e-01 4.94970858e-01 4.88320619e-01 4.66964304e-01 3.97143960e-01 2.83045769e-01 2.45604515e-01 3.19113791e-01 4.00518388e-01 5.24715304e-01 5.29891312e-01 5.20466626e-01 4.28891659e-01 1.55197501e-01 1.30973354e-01 2.53746182e-01 5.27805448e-01 6.46923900e-01 6.30274236e-01 5.82081854e-01 5.44688582e-01 5.19016206e-01 5.02393246e-01 4.97402340e-01 4.97973859e-01 4.98381346e-01 4.98413771e-01 4.98933673e-01 4.99892116e-01 5.00830352e-01 5.01259267e-01 5.00696421e-01 4.98631805e-01 4.94050592e-01 4.80477214e-01 4.23939496e-01 2.87432611e-01 1.98005795e-01 2.54569530e-01 3.56730521e-01 5.41000247e-01 5.54954767e-01 5.58162332e-01 5.55792272e-01 4.71158981e-01 2.09630385e-01 1.63462281e-01 2.51830339e-01 5.45019567e-01 6.62937403e-01 6.35338843e-01 5.84951878e-01 5.46777666e-01 5.20623446e-01 5.07310033e-01 5.04257441e-01 5.03407001e-01 5.02767444e-01 5.02665937e-01 5.03157675e-01 5.03836274e-01 5.04227996e-01 5.03900230e-01 5.02446949e-01 4.99364465e-01 4.91583556e-01 4.54987377e-01 3.25159878e-01 1.78794235e-01 1.91356212e-01 2.92488098e-01 5.46878994e-01 5.65903008e-01 5.70731401e-01 5.74269354e-01 5.82631767e-01 5.50885677e-01 4.85587120e-01 3.50354493e-01 4.46367383e-01 6.33019269e-01 6.53963387e-01 6.09623194e-01 5.65878749e-01 5.35007894e-01 5.16359150e-01 5.08567929e-01 5.07169902e-01 5.06032526e-01 5.05560160e-01 5.05710542e-01 5.06198406e-01 5.06611884e-01 5.06592393e-01 5.05815625e-01 5.03947616e-01 4.99705255e-01 4.80139285e-01 3.79470229e-01 1.88540414e-01 1.43150598e-01 2.13169768e-01 5.42393982e-01 5.61255991e-01 5.64201355e-01 5.61354339e-01 5.62593043e-01 5.71477652e-01 5.86689353e-01 5.71241140e-01 5.86688697e-01 6.31781816e-01 6.41190350e-01 6.09686017e-01 5.71699679e-01 5.41821420e-01 5.22102416e-01 5.12188554e-01 5.09267747e-01 5.08066773e-01 5.07587969e-01 5.07498384e-01 5.07760227e-01 5.08139372e-01 5.08390069e-01 5.08301497e-01 5.07616639e-01 5.05665600e-01 4.96163428e-01 4.28131491e-01 2.25780666e-01 1.14890546e-01 1.39917940e-01 5.34080625e-01 5.49720645e-01 5.50764620e-01 5.43822646e-01 5.36734402e-01 5.32286286e-01 5.34899712e-01 5.45532107e-01 5.70633113e-01 5.97659886e-01 6.05232179e-01 5.92182279e-01 5.67528605e-01 5.43569088e-01 5.26016831e-01 5.15628517e-01 5.11082828e-01 5.09318590e-01 5.08873463e-01 5.08593023e-01 5.08535266e-01 5.08728564e-01 5.09093285e-01 5.09585500e-01 5.10072768e-01 5.09999156e-01 5.05729675e-01 4.64201987e-01 2.86708832e-01 1.07475899e-01 9.57369655e-02 5.27052999e-01 5.39234102e-01 5.39575219e-01 5.32224417e-01 5.23759305e-01 5.16075134e-01 5.12000561e-01 5.15289307e-01 5.30326426e-01 5.54612756e-01 5.72349012e-01 5.73216915e-01 5.59972465e-01 5.42733610e-01 5.28544545e-01 5.18639505e-01 5.12995183e-01 5.10198772e-01 5.09452522e-01 5.08938789e-01 5.08500397e-01 5.08349121e-01 5.08601844e-01 5.09428620e-01 5.10940909e-01 5.12745976e-01 5.12169123e-01 4.88723487e-01 3.46446306e-01 1.10718809e-01 7.34344646e-02 5.22635639e-01 5.32428265e-01 5.32954991e-01 5.27131557e-01 5.20475566e-01 5.14747798e-01 5.12059331e-01 5.14897406e-01 5.25489926e-01 5.42657793e-01 5.56953132e-01 5.60206354e-01 5.52645922e-01 5.40458143e-01 5.29194832e-01 5.20309567e-01 5.14360785e-01 5.10799050e-01 5.09428799e-01 5.08504689e-01 5.07614315e-01 5.06991327e-01 5.06890595e-01 5.07682979e-01 5.09820461e-01 5.13386667e-01 5.16440630e-01 5.04610717e-01 3.85538071e-01 1.13820262e-01 6.08251356e-02 5.20063937e-01 5.28525054e-01 5.29600561e-01 5.25721371e-01 5.21459997e-01 5.18317997e-01 5.17808974e-01 5.21318734e-01 5.29495418e-01 5.40743053e-01 5.49660385e-01 5.51618636e-01 5.46505511e-01 5.37625968e-01 5.28464794e-01 5.20554364e-01 5.14671385e-01 5.11018991e-01 5.08998513e-01 5.07439971e-01 5.05963147e-01 5.04752934e-01 5.04087090e-01 5.04429340e-01 5.06536782e-01 5.11272967e-01 5.18047929e-01 5.15790820e-01 4.10004765e-01 1.14760458e-01 5.28196879e-02 5.18157065e-01 5.25881469e-01 5.27615249e-01 5.25549531e-01 5.23457468e-01 5.22417188e-01 5.23362160e-01 5.26895046e-01 5.32891691e-01 5.39908409e-01 5.44980824e-01 5.45697331e-01 5.41893840e-01 5.35226345e-01 5.27714729e-01 5.20729005e-01 5.15104294e-01 5.11125505e-01 5.08308291e-01 5.05927384e-01 5.03749907e-01 5.01894236e-01 5.00558257e-01 5.00136435e-01 5.01467288e-01 5.06147027e-01 5.15890419e-01 5.23612022e-01 4.28758532e-01 1.15196325e-01 4.72875014e-02 5.15951455e-01 5.23094475e-01 5.25525033e-01 5.25125444e-01 5.24979234e-01 5.25705814e-01 5.27739525e-01 5.31181276e-01 5.35614312e-01 5.39970040e-01 5.42669296e-01 5.42512178e-01 5.39376915e-01 5.34068763e-01 5.27722061e-01 5.21359742e-01 5.15731096e-01 5.11121750e-01 5.07334173e-01 5.04060090e-01 5.01201153e-01 4.98804331e-01 4.96928781e-01 4.95748192e-01 4.95837420e-01 4.98884916e-01 5.09123266e-01 5.27043760e-01 4.45932597e-01 1.15947410e-01 4.29304652e-02 5.12903631e-01 5.19287348e-01 5.22397757e-01 5.23560107e-01 5.25222123e-01 5.27617216e-01 5.30810177e-01 5.34613073e-01 5.38522720e-01 5.41753113e-01 5.43405354e-01 5.42845070e-01 5.39972365e-01 5.35178006e-01 5.29133320e-01 5.22615016e-01 5.16330063e-01 5.10696173e-01 5.05820572e-01 5.01697063e-01 4.98345912e-01 4.95773941e-01 4.93922740e-01 4.92727846e-01 4.92311805e-01 4.93647605e-01 5.01242697e-01 5.24552763e-01 4.60534960e-01 1.16714694e-01 3.88648063e-02 5.08099020e-01 5.13410091e-01 5.16804874e-01 5.18927872e-01 5.21677077e-01 5.25068104e-01 5.28998911e-01 5.33225656e-01 5.37316084e-01 5.40653110e-01 5.42540550e-01 5.42426467e-01 5.40096402e-01 5.35714030e-01 5.29748976e-01 5.22884786e-01 5.15889883e-01 5.09402573e-01 5.03796875e-01 4.99252975e-01 4.95861381e-01 4.93639708e-01 4.92536068e-01 4.92466509e-01 4.93407130e-01 4.95704174e-01 5.01557946e-01 5.18358886e-01 4.67259496e-01 1.18867360e-01 3.46928351e-02 5.04558623e-01 5.07459402e-01 5.10338724e-01 5.12036204e-01 5.14274716e-01 5.16968608e-01 5.20024180e-01 5.23293078e-01 5.26528895e-01 5.29340804e-01 5.31215727e-01 5.31660676e-01 5.30387521e-01 5.27410328e-01 5.23025036e-01 5.17735362e-01 5.12161016e-01 5.06891727e-01 5.02336860e-01 4.98707563e-01 4.96095002e-01 4.94526625e-01 4.93998587e-01 4.94512260e-01 4.96130228e-01 4.99065012e-01 5.03708363e-01 5.08817434e-01 4.60317880e-01 1.31661847e-01 2.88613308e-02 
