# vtk DataFile Version 2.0
results_case1_non_linear/9_density.vtk, Created by Freefem++ 
ASCII
DATASET UNSTRUCTURED_GRID
POINTS 961 float
0 0 0
0.033333333 0 0
0.066666667 0 0
0.1 0 0
0.13333333 0 0
0.16666667 0 0
0.2 0 0
0.23333333 0 0
0.26666667 0 0
0.3 0 0
0.33333333 0 0
0.36666667 0 0
0.4 0 0
0.43333333 0 0
0.46666667 0 0
0.5 0 0
0.53333333 0 0
0.56666667 0 0
0.6 0 0
0.63333333 0 0
0.66666667 0 0
0.7 0 0
0.73333333 0 0
0.76666667 0 0
0.8 0 0
0.83333333 0 0
0.86666667 0 0
0.9 0 0
0.93333333 0 0
0.96666667 0 0
1 0 0
0 0.033333333 0
0.033333333 0.033333333 0
0.066666667 0.033333333 0
0.1 0.033333333 0
0.13333333 0.033333333 0
0.16666667 0.033333333 0
0.2 0.033333333 0
0.23333333 0.033333333 0
0.26666667 0.033333333 0
0.3 0.033333333 0
0.33333333 0.033333333 0
0.36666667 0.033333333 0
0.4 0.033333333 0
0.43333333 0.033333333 0
0.46666667 0.033333333 0
0.5 0.033333333 0
0.53333333 0.033333333 0
0.56666667 0.033333333 0
0.6 0.033333333 0
0.63333333 0.033333333 0
0.66666667 0.033333333 0
0.7 0.033333333 0
0.73333333 0.033333333 0
0.76666667 0.033333333 0
0.8 0.033333333 0
0.83333333 0.033333333 0
0.86666667 0.033333333 0
0.9 0.033333333 0
0.93333333 0.033333333 0
0.96666667 0.033333333 0
1 0.033333333 0
0 0.066666667 0
0.033333333 0.066666667 0
0.066666667 0.066666667 0
0.1 0.066666667 0
0.13333333 0.066666667 0
0.16666667 0.066666667 0
0.2 0.066666667 0
0.23333333 0.066666667 0
0.26666667 0.066666667 0
0.3 0.066666667 0
0.33333333 0.066666667 0
0.36666667 0.066666667 0
0.4 0.066666667 0
0.43333333 0.066666667 0
0.46666667 0.066666667 0
0.5 0.066666667 0
0.53333333 0.066666667 0
0.56666667 0.066666667 0
0.6 0.066666667 0
0.63333333 0.066666667 0
0.66666667 0.066666667 0
0.7 0.066666667 0
0.73333333 0.066666667 0
0.76666667 0.066666667 0
0.8 0.066666667 0
0.83333333 0.066666667 0
0.86666667 0.066666667 0
0.9 0.066666667 0
0.93333333 0.066666667 0
0.96666667 0.066666667 0
1 0.066666667 0
0 0.1 0
0.033333333 0.1 0
0.066666667 0.1 0
0.1 0.1 0
0.13333333 0.1 0
0.16666667 0.1 0
0.2 0.1 0
0.23333333 0.1 0
0.26666667 0.1 0
0.3 0.1 0
0.33333333 0.1 0
0.36666667 0.1 0
0.4 0.1 0
0.43333333 0.1 0
0.46666667 0.1 0
0.5 0.1 0
0.53333333 0.1 0
0.56666667 0.1 0
0.6 0.1 0
0.63333333 0.1 0
0.66666667 0.1 0
0.7 0.1 0
0.73333333 0.1 0
0.76666667 0.1 0
0.8 0.1 0
0.83333333 0.1 0
0.86666667 0.1 0
0.9 0.1 0
0.93333333 0.1 0
0.96666667 0.1 0
1 0.1 0
0 0.13333333 0
0.033333333 0.13333333 0
0.066666667 0.13333333 0
0.1 0.13333333 0
0.13333333 0.13333333 0
0.16666667 0.13333333 0
0.2 0.13333333 0
0.23333333 0.13333333 0
0.26666667 0.13333333 0
0.3 0.13333333 0
0.33333333 0.13333333 0
0.36666667 0.13333333 0
0.4 0.13333333 0
0.43333333 0.13333333 0
0.46666667 0.13333333 0
0.5 0.13333333 0
0.53333333 0.13333333 0
0.56666667 0.13333333 0
0.6 0.13333333 0
0.63333333 0.13333333 0
0.66666667 0.13333333 0
0.7 0.13333333 0
0.73333333 0.13333333 0
0.76666667 0.13333333 0
0.8 0.13333333 0
0.83333333 0.13333333 0
0.86666667 0.13333333 0
0.9 0.13333333 0
0.93333333 0.13333333 0
0.96666667 0.13333333 0
1 0.13333333 0
0 0.16666667 0
0.033333333 0.16666667 0
0.066666667 0.16666667 0
0.1 0.16666667 0
0.13333333 0.16666667 0
0.16666667 0.16666667 0
0.2 0.16666667 0
0.23333333 0.16666667 0
0.26666667 0.16666667 0
0.3 0.16666667 0
0.33333333 0.16666667 0
0.36666667 0.16666667 0
0.4 0.16666667 0
0.43333333 0.16666667 0
0.46666667 0.16666667 0
0.5 0.16666667 0
0.53333333 0.16666667 0
0.56666667 0.16666667 0
0.6 0.16666667 0
0.63333333 0.16666667 0
0.66666667 0.16666667 0
0.7 0.16666667 0
0.73333333 0.16666667 0
0.76666667 0.16666667 0
0.8 0.16666667 0
0.83333333 0.16666667 0
0.86666667 0.16666667 0
0.9 0.16666667 0
0.93333333 0.16666667 0
0.96666667 0.16666667 0
1 0.16666667 0
0 0.2 0
0.033333333 0.2 0
0.066666667 0.2 0
0.1 0.2 0
0.13333333 0.2 0
0.16666667 0.2 0
0.2 0.2 0
0.23333333 0.2 0
0.26666667 0.2 0
0.3 0.2 0
0.33333333 0.2 0
0.36666667 0.2 0
0.4 0.2 0
0.43333333 0.2 0
0.46666667 0.2 0
0.5 0.2 0
0.53333333 0.2 0
0.56666667 0.2 0
0.6 0.2 0
0.63333333 0.2 0
0.66666667 0.2 0
0.7 0.2 0
0.73333333 0.2 0
0.76666667 0.2 0
0.8 0.2 0
0.83333333 0.2 0
0.86666667 0.2 0
0.9 0.2 0
0.93333333 0.2 0
0.96666667 0.2 0
1 0.2 0
0 0.23333333 0
0.033333333 0.23333333 0
0.066666667 0.23333333 0
0.1 0.23333333 0
0.13333333 0.23333333 0
0.16666667 0.23333333 0
0.2 0.23333333 0
0.23333333 0.23333333 0
0.26666667 0.23333333 0
0.3 0.23333333 0
0.33333333 0.23333333 0
0.36666667 0.23333333 0
0.4 0.23333333 0
0.43333333 0.23333333 0
0.46666667 0.23333333 0
0.5 0.23333333 0
0.53333333 0.23333333 0
0.56666667 0.23333333 0
0.6 0.23333333 0
0.63333333 0.23333333 0
0.66666667 0.23333333 0
0.7 0.23333333 0
0.73333333 0.23333333 0
0.76666667 0.23333333 0
0.8 0.23333333 0
0.83333333 0.23333333 0
0.86666667 0.23333333 0
0.9 0.23333333 0
0.93333333 0.23333333 0
0.96666667 0.23333333 0
1 0.23333333 0
0 0.26666667 0
0.033333333 0.26666667 0
0.066666667 0.26666667 0
0.1 0.26666667 0
0.13333333 0.26666667 0
0.16666667 0.26666667 0
0.2 0.26666667 0
0.23333333 0.26666667 0
0.26666667 0.26666667 0
0.3 0.26666667 0
0.33333333 0.26666667 0
0.36666667 0.26666667 0
0.4 0.26666667 0
0.43333333 0.26666667 0
0.46666667 0.26666667 0
0.5 0.26666667 0
0.53333333 0.26666667 0
0.56666667 0.26666667 0
0.6 0.26666667 0
0.63333333 0.26666667 0
0.66666667 0.26666667 0
0.7 0.26666667 0
0.73333333 0.26666667 0
0.76666667 0.26666667 0
0.8 0.26666667 0
0.83333333 0.26666667 0
0.86666667 0.26666667 0
0.9 0.26666667 0
0.93333333 0.26666667 0
0.96666667 0.26666667 0
1 0.26666667 0
0 0.3 0
0.033333333 0.3 0
0.066666667 0.3 0
0.1 0.3 0
0.13333333 0.3 0
0.16666667 0.3 0
0.2 0.3 0
0.23333333 0.3 0
0.26666667 0.3 0
0.3 0.3 0
0.33333333 0.3 0
0.36666667 0.3 0
0.4 0.3 0
0.43333333 0.3 0
0.46666667 0.3 0
0.5 0.3 0
0.53333333 0.3 0
0.56666667 0.3 0
0.6 0.3 0
0.63333333 0.3 0
0.66666667 0.3 0
0.7 0.3 0
0.73333333 0.3 0
0.76666667 0.3 0
0.8 0.3 0
0.83333333 0.3 0
0.86666667 0.3 0
0.9 0.3 0
0.93333333 0.3 0
0.96666667 0.3 0
1 0.3 0
0 0.33333333 0
0.033333333 0.33333333 0
0.066666667 0.33333333 0
0.1 0.33333333 0
0.13333333 0.33333333 0
0.16666667 0.33333333 0
0.2 0.33333333 0
0.23333333 0.33333333 0
0.26666667 0.33333333 0
0.3 0.33333333 0
0.33333333 0.33333333 0
0.36666667 0.33333333 0
0.4 0.33333333 0
0.43333333 0.33333333 0
0.46666667 0.33333333 0
0.5 0.33333333 0
0.53333333 0.33333333 0
0.56666667 0.33333333 0
0.6 0.33333333 0
0.63333333 0.33333333 0
0.66666667 0.33333333 0
0.7 0.33333333 0
0.73333333 0.33333333 0
0.76666667 0.33333333 0
0.8 0.33333333 0
0.83333333 0.33333333 0
0.86666667 0.33333333 0
0.9 0.33333333 0
0.93333333 0.33333333 0
0.96666667 0.33333333 0
1 0.33333333 0
0 0.36666667 0
0.033333333 0.36666667 0
0.066666667 0.36666667 0
0.1 0.36666667 0
0.13333333 0.36666667 0
0.16666667 0.36666667 0
0.2 0.36666667 0
0.23333333 0.36666667 0
0.26666667 0.36666667 0
0.3 0.36666667 0
0.33333333 0.36666667 0
0.36666667 0.36666667 0
0.4 0.36666667 0
0.43333333 0.36666667 0
0.46666667 0.36666667 0
0.5 0.36666667 0
0.53333333 0.36666667 0
0.56666667 0.36666667 0
0.6 0.36666667 0
0.63333333 0.36666667 0
0.66666667 0.36666667 0
0.7 0.36666667 0
0.73333333 0.36666667 0
0.76666667 0.36666667 0
0.8 0.36666667 0
0.83333333 0.36666667 0
0.86666667 0.36666667 0
0.9 0.36666667 0
0.93333333 0.36666667 0
0.96666667 0.36666667 0
1 0.36666667 0
0 0.4 0
0.033333333 0.4 0
0.066666667 0.4 0
0.1 0.4 0
0.13333333 0.4 0
0.16666667 0.4 0
0.2 0.4 0
0.23333333 0.4 0
0.26666667 0.4 0
0.3 0.4 0
0.33333333 0.4 0
0.36666667 0.4 0
0.4 0.4 0
0.43333333 0.4 0
0.46666667 0.4 0
0.5 0.4 0
0.53333333 0.4 0
0.56666667 0.4 0
0.6 0.4 0
0.63333333 0.4 0
0.66666667 0.4 0
0.7 0.4 0
0.73333333 0.4 0
0.76666667 0.4 0
0.8 0.4 0
0.83333333 0.4 0
0.86666667 0.4 0
0.9 0.4 0
0.93333333 0.4 0
0.96666667 0.4 0
1 0.4 0
0 0.43333333 0
0.033333333 0.43333333 0
0.066666667 0.43333333 0
0.1 0.43333333 0
0.13333333 0.43333333 0
0.16666667 0.43333333 0
0.2 0.43333333 0
0.23333333 0.43333333 0
0.26666667 0.43333333 0
0.3 0.43333333 0
0.33333333 0.43333333 0
0.36666667 0.43333333 0
0.4 0.43333333 0
0.43333333 0.43333333 0
0.46666667 0.43333333 0
0.5 0.43333333 0
0.53333333 0.43333333 0
0.56666667 0.43333333 0
0.6 0.43333333 0
0.63333333 0.43333333 0
0.66666667 0.43333333 0
0.7 0.43333333 0
0.73333333 0.43333333 0
0.76666667 0.43333333 0
0.8 0.43333333 0
0.83333333 0.43333333 0
0.86666667 0.43333333 0
0.9 0.43333333 0
0.93333333 0.43333333 0
0.96666667 0.43333333 0
1 0.43333333 0
0 0.46666667 0
0.033333333 0.46666667 0
0.066666667 0.46666667 0
0.1 0.46666667 0
0.13333333 0.46666667 0
0.16666667 0.46666667 0
0.2 0.46666667 0
0.23333333 0.46666667 0
0.26666667 0.46666667 0
0.3 0.46666667 0
0.33333333 0.46666667 0
0.36666667 0.46666667 0
0.4 0.46666667 0
0.43333333 0.46666667 0
0.46666667 0.46666667 0
0.5 0.46666667 0
0.53333333 0.46666667 0
0.56666667 0.46666667 0
0.6 0.46666667 0
0.63333333 0.46666667 0
0.66666667 0.46666667 0
0.7 0.46666667 0
0.73333333 0.46666667 0
0.76666667 0.46666667 0
0.8 0.46666667 0
0.83333333 0.46666667 0
0.86666667 0.46666667 0
0.9 0.46666667 0
0.93333333 0.46666667 0
0.96666667 0.46666667 0
1 0.46666667 0
0 0.5 0
0.033333333 0.5 0
0.066666667 0.5 0
0.1 0.5 0
0.13333333 0.5 0
0.16666667 0.5 0
0.2 0.5 0
0.23333333 0.5 0
0.26666667 0.5 0
0.3 0.5 0
0.33333333 0.5 0
0.36666667 0.5 0
0.4 0.5 0
0.43333333 0.5 0
0.46666667 0.5 0
0.5 0.5 0
0.53333333 0.5 0
0.56666667 0.5 0
0.6 0.5 0
0.63333333 0.5 0
0.66666667 0.5 0
0.7 0.5 0
0.73333333 0.5 0
0.76666667 0.5 0
0.8 0.5 0
0.83333333 0.5 0
0.86666667 0.5 0
0.9 0.5 0
0.93333333 0.5 0
0.96666667 0.5 0
1 0.5 0
0 0.53333333 0
0.033333333 0.53333333 0
0.066666667 0.53333333 0
0.1 0.53333333 0
0.13333333 0.53333333 0
0.16666667 0.53333333 0
0.2 0.53333333 0
0.23333333 0.53333333 0
0.26666667 0.53333333 0
0.3 0.53333333 0
0.33333333 0.53333333 0
0.36666667 0.53333333 0
0.4 0.53333333 0
0.43333333 0.53333333 0
0.46666667 0.53333333 0
0.5 0.53333333 0
0.53333333 0.53333333 0
0.56666667 0.53333333 0
0.6 0.53333333 0
0.63333333 0.53333333 0
0.66666667 0.53333333 0
0.7 0.53333333 0
0.73333333 0.53333333 0
0.76666667 0.53333333 0
[...]
CELL_DATA 1920
Scalars  Label int 1
LOOKUP_TABLE FreeFempp_table
0
0
0
0
0
0
0
0
0
0
0
0
0
0
0
0
0
0
0
0
0
0
0
0
0
0
0
0
0
0
0
0
0
0
0
0
0
0
0
0
0
0
0
0
0
0
0
0
0
0
0
0
0
0
0
0
0
0
0
0
0
0
0
0
0
0
0
0
0
0
0
0
0
0
0
0
0
0
0
0
0
0
0
0
0
0
0
0
0
0
0
0
0
0
0
0
0
0
0
0
0
0
0
0
0
0
0
0
0
0
0
0
0
0
0
0
0
0
0
0
0
0
0
0
0
0
0
0
0
0
0
0
0
0
0
0
0
0
0
0
0
0
0
0
0
0
0
0
0
0
0
0
0
0
0
0
0
0
0
0
0
0
0
0
0
0
0
0
0
0
0
0
0
0
0
0
0
0
0
0
0
0
0
0
0
0
0
0
0
0
0
0
0
0
0
0
0
0
0
0
0
0
0
0
0
0
0
0
0
0
0
0
0
0
0
0
0
0
0
0
0
0
0
0
0
0
0
0
0
0
0
0
0
0
0
0
0
0
0
0
0
0
0
0
0
0
0
0
0
0
0
0
0
0
0
0
0
0
0
0
0
0
0
0
0
0
0
0
0
0
0
0
0
0
0
0
0
0
0
0
0
0
0
0
0
0
0
0
0
0
0
0
0
0
0
0
0
0
0
0
0
0
0
0
0
0
0
0
0
0
0
0
0
0
0
0
0
0
0
0
0
0
0
0
0
0
0
0
0
0
0
0
0
0
0
0
0
0
0
0
0
0
0
0
0
0
0
0
0
0
0
0
0
0
0
0
0
0
0
0
0
0
0
0
0
0
0
0
0
0
0
0
0
0
0
0
0
0
0
0
0
0
0
0
0
0
0
0
0
0
0
0
0
0
0
0
0
0
0
0
0
0
0
0
0
0
0
0
0
0
0
0
0
0
0
0
0
0
0
0
0
0
0
0
0
0
0
0
0
0
0
0
0
0
0
0
0
0
0
0
0
0
0
0
0
0
0
0
0
0
0
0
0
0
0
0
0
0
0
0
0
0
0
0
0
0
0
0
0
0
0
0
0
0
0
0
0
0
0
0
0
0
0
0
0
0
0
0
0
0
0
0
0
0
0
0
0
0
0
0
0
0
0
0
0
0
0
0
0
0
0
0
0
0
0
0
0
0
0
0
0
0
0
0
0
0
0
0
0
0
0
0
0
0
0
0
0
0
0
0
0
0
0
0
0
0
0
0
0
0
0
0
0
0
0
0
0
0
0
0
0
0
0
0
0
0
0
0
0
0
0
0
0
0
0
0
0
0
0
0
0
0
0
0
0
0
0
0
0
0
0
0
0
0
0
0
0
0
0
0
0
0
0
0
0
0
0
0
0
0
0
0
0
0
0
0
0
0
0
0
0
0
0
0
0
0
0
0
0
0
0
0
0
0
0
0
0
0
0
0
0
0
0
0
0
0
0
0
0
0
0
0
0
0
0
0
0
0
0
0
0
0
0
0
0
0
0
0
0
0
0
0
0
0
0
0
0
0
0
0
0
0
0
0
0
0
0
0
0
0
0
0
0
0
0
0
0
0
0
0
0
0
0
0
0
0
0
0
0
0
0
0
0
0
0
0
0
0
0
0
0
0
0
0
0
0
0
0
0
0
0
0
0
0
0
0
0
0
0
0
0
0
0
0
0
0
0
0
0
0
0
0
0
0
0
0
0
0
0
0
0
0
0
0
0
0
0
0
0
0
0
0
0
0
0
0
0
0
0
0
0
0
0
0
0
0
0
0
0
0
0
0
0
0
0
0
0
0
0
0
0
0
0
0
0
0
0
0
0
0
0
0
0
0
0
0
0
0
0
0
0
0
0
0
0
0
0
0
0
0
0
0
0
0
0
0
0
0
0
0
0
0
0
0
0
0
0
0
0
0
0
0
0
0
0
0
0
0
0
0
0
0
0
0
0
0
0
0
0
0
0
0
0
0
0
0
0
0
0
0
0
0
0
0
0
0
0
0
0
0
0
0
0
0
0
0
0
0
0
0
0
0
0
0
0
0
0
0
0
0
0
0
0
0
0
0
0
0
0
0
0
0
0
0
0
0
0
0
0
0
0
0
0
0
0
0
0
0
0
0
0
0
0
0
0
0
0
0
0
0
0
0
0
0
0
0
0
0
0
0
0
0
0
0
0
0
0
0
0
0
0
0
0
0
0
0
0
0
0
0
0
0
0
0
0
0
0
0
0
0
0
0
0
0
0
0
0
0
0
0
0
0
0
0
0
0
0
0
0
0
0
0
0
0
0
0
0
0
0
0
0
0
0
0
0
0
0
0
0
0
0
0
0
0
0
0
0
0
0
0
0
0
0
0
0
0
0
0
0
0
0
0
0
0
0
0
0
0
0
0
0
0
0
0
0
0
0
0
0
0
0
0
0
0
0
0
0
0
0
0
0
0
0
0
0
0
0
0
0
0
0
0
0
0
0
0
0
0
0
0
0
0
0
0
0
0
0
0
0
0
0
0
0
0
0
0
0
0
0
0
0
0
0
0
0
0
0
0
0
0
0
0
0
0
0
0
0
0
0
0
0
0
0
0
0
0
0
0
0
0
0
0
0
0
0
0
0
0
0
0
0
0
0
0
0
0
0
0
0
0
0
0
0
0
0
0
0
0
0
0
0
0
0
0
0
0
0
0
0
0
0
0
0
0
0
0
0
0
0
0
0
0
0
0
0
0
0
0
0
0
0
0
0
0
0
0
0
0
0
0
0
0
0
0
0
0
0
0
0
0
0
0
0
0
0
0
0
0
0
0
0
0
0
0
0
0
0
0
0
0
0
0
0
0
0
0
0
0
0
0
0
0
0
0
0
0
0
0
0
0
0
0
0
0
0
0
0
0
0
0
0
0
0
0
0
0
0
0
0
0
0
0
0
0
0
0
0
0
0
0
0
0
0
0
0
0
0
0
0
0
0
0
0
0
0
0
0
0
0
0
0
0
0
0
0
0
0
0
0
0
0
0
0
0
0
0
0
0
0
0
0
0
0
0
0
0
0
0
0
0
0
0
0
0
0
0
0
0
0
0
0
0
0
0
0
0
0
0
0
0
0
0
0
0
0
0
0
0
0
0
0
0
0
0
0
0
0
0
0
0
0
0
0
0
0
0
0
0
0
0
0
0
0
0
0
0
0
0
0
0
0
0
0
0
0
0
0
0
0
0
0
0
0
0
0
0
0
0
0
0
0
0
0
0
0
0
0
0
0
0
0
0
0
0
0
0
0
0
0
0
0
0
0
0
0
0
0
0
0
0
0
0
0
0
0
0
0
0
0
0
0
0
0
0
0
0
0
0
0
0
0
0
0
0
0
0
0
0
0
0
0
0
0
0
0
0
0
0
0
0
0
0
0
0
0
0
0
0
0
0
0
0
0
0
0
0
0
0
0
0
0
0
0
0
0
0
0
0
0
0
0
0
0
0
0
0
0
0
0
0
0
0
0
0
0
0
0
0
0
0
0
0
0
0
0
0
0
0
0
0
0
0
0
0
0
0
0
0
0
0
0
0
0
0
0
0
0
0
0
0
0
0
0
0
0
0
0
0
0
0
0
0
0
0
0
0
0
0
0
0
0
0
0
0
0
0
0
0
0
0
0
0
0
0
0
0
0
0
0
0
0
0
0
0
0
0
0
0
0
0
0
0
0
0
0
0
0
0
0
0
0
0
0
0
0
0
0
0
0
0
0
0
0
0
0
0
0
0
0
0
0
0
0
0
0
0
0
0
0
0
0
0
0
0
0
0
0
0
0
0
0
0
0
0
0
0
0
0
0
0
0
0
0
0
0
0
0
0
0
0
0
0
0
0
0
0
0
0
0
0
0
0
0
0
0
0
0
0
0
0
0
0
0
0
0
0
0
0
0
0
0
0
0
0
0
0
0
0
0
0
0
0
0
0
0
0
0
0
0
0
0
0
0
0
0
0
0
0
0
0
0
0
0
0
0
0
0
0
0
0
0
0
0
0
0
0
0
0
0
0
0
0
0
0
0
0
0
0
0
0
0
0
0
0
0
0
0
0
0
0
1
1
1
1
1
1
1
1
1
1
1
1
1
1
1
1
1
1
1
1
1
1
1
1
1
1
1
1
1
1
2
2
2
2
2
2
2
2
2
2
2
2
2
2
2
2
2
2
2
2
2
2
2
2
2
2
2
2
2
2
3
3
3
3
3
3
3
3
3
3
3
3
3
3
3
3
3
3
3
3
3
3
3
3
3
3
3
3
3
3
4
4
4
4
4
4
4
4
4
4
4
4
4
4
4
4
4
4
4
4
4
4
4
4
4
4
4
4
4
4

LOOKUP_TABLE FreeFempp_table 5
1.00000000 0.00000000 0.00000000 1.00000000
1.00000000 1.00000000 0.00000000 1.00000000
1.00000000 0.00000000 1.00000000 1.00000000
0.00000000 1.00000000 0.00000000 1.00000000
0.00000000 1.00000000 1.00000000 1.00000000

POINT_DATA 961
FIELD FieldData 1
Density 1 961 float
1.95812304e-02 4.55437787e-02 9.34614018e-02 3.40383112e-01 5.71680903e-01 5.27751863e-01 4.89622682e-01 4.74159658e-01 4.10798699e-01 3.50416303e-01 3.42809051e-01 3.42654765e-01 3.43509704e-01 3.44389319e-01 3.45108718e-01 3.45640689e-01 3.45656872e-01 3.44139218e-01 3.37397993e-01 3.09497237e-01 2.35551476e-01 2.02412695e-01 1.96598858e-01 1.96750984e-01 2.06276447e-01 2.54959345e-01 3.24532598e-01 3.36230159e-01 3.87328118e-01 4.83824432e-01 4.85024959e-01 1.86062288e-02 2.36416608e-02 4.43085693e-02 1.61573768e-01 5.22055268e-01 5.00398278e-01 4.06691313e-01 3.79212707e-01 2.66242951e-01 1.15995102e-01 8.29813257e-02 7.76546896e-02 7.75053054e-02 7.83147961e-02 7.86244050e-02 7.88032860e-02 7.89028108e-02 7.87549466e-02 7.77451396e-02 7.33149350e-02 5.79168350e-02 4.72743437e-02 4.50748391e-02 4.46806625e-02 4.59090210e-02 5.49995974e-02 7.24577978e-02 8.27957615e-02 1.31515801e-01 3.59531730e-01 4.16475624e-01 1.94869637e-02 2.26150248e-02 6.32152259e-02 1.47724718e-01 3.75009477e-01 3.26373190e-01 1.30466968e-01 7.89046660e-02 5.17860241e-02 1.36799822e-02 1.25949481e-03 1.39075974e-02 4.64122035e-02 6.61764592e-02 6.96458071e-02 6.85924217e-02 6.55512437e-02 6.11410961e-02 5.55572771e-02 4.87528294e-02 3.96656170e-02 2.84200013e-02 2.10194699e-02 2.77664382e-02 4.11783271e-02 5.07390685e-02 5.74873202e-02 5.36142103e-02 3.26231159e-02 5.42438030e-02 8.95280913e-02 -4.41454770e-03 2.66290568e-02 1.69362545e-01 3.89268368e-01 4.90453899e-01 1.55926272e-01 3.17980982e-02 3.18911322e-03 6.08396437e-03 3.29842344e-02 7.34109357e-02 1.11568093e-01 2.48070389e-01 3.54417324e-01 3.80703956e-01 3.77922446e-01 3.63626987e-01 3.41153890e-01 3.11486989e-01 2.74827659e-01 2.29210421e-01 1.69216692e-01 1.16953433e-01 1.36947498e-01 2.09049344e-01 2.60784745e-01 2.94159442e-01 2.86268860e-01 1.97711572e-01 7.25684315e-02 5.01303598e-02 -2.06493167e-03 8.63682404e-02 4.35646206e-01 6.19240046e-01 3.59088480e-01 8.59657153e-02 2.34424649e-03 2.15799715e-02 7.76940435e-02 1.80954516e-01 3.53120923e-01 3.98696810e-01 4.22924399e-01 4.47495222e-01 4.54836756e-01 4.50156450e-01 4.37904090e-01 4.16600257e-01 3.84991378e-01 3.42412531e-01 2.88702637e-01 2.22108334e-01 1.52856916e-01 1.46254689e-01 2.21088544e-01 2.84831107e-01 3.22440267e-01 3.25983554e-01 2.76212066e-01 2.35819370e-01 2.73557097e-01 3.60162929e-03 1.14997767e-01 5.67400753e-01 6.19984925e-01 1.81481659e-01 1.99579038e-02 1.63879022e-02 9.71085876e-02 2.78010368e-01 3.98586780e-01 4.57737356e-01 4.77026850e-01 4.75459367e-01 4.72759694e-01 4.69536752e-01 4.65437979e-01 4.58146065e-01 4.44495469e-01 4.20882314e-01 3.83900583e-01 3.31992567e-01 2.67640173e-01 2.03284219e-01 1.78717673e-01 2.30227053e-01 2.94654310e-01 3.38885486e-01 3.59330267e-01 3.48858893e-01 3.26954186e-01 3.60370576e-01 -1.28831342e-03 9.93139669e-02 4.36519086e-01 2.14095786e-01 5.60274273e-02 4.00297297e-03 6.81987703e-02 2.69465834e-01 4.21704412e-01 4.76112396e-01 4.87827957e-01 4.87753838e-01 4.88479048e-01 4.91746098e-01 4.94643837e-01 4.95496482e-01 4.93753225e-01 4.88078207e-01 4.75449890e-01 4.51974720e-01 4.14608687e-01 3.64629865e-01 3.13878238e-01 2.89542913e-01 3.19048077e-01 3.74903381e-01 4.22930062e-01 4.54865754e-01 4.70506370e-01 4.66049165e-01 4.55925405e-01 -3.42602562e-03 1.17908061e-01 4.86487031e-01 1.40708089e-01 2.15213615e-02 5.49980700e-02 1.67356595e-01 4.05315459e-01 4.84373808e-01 4.97830212e-01 4.99998868e-01 5.04376829e-01 5.10293305e-01 5.17315030e-01 5.24405897e-01 5.30545354e-01 5.35381079e-01 5.38267255e-01 5.37672639e-01 5.31625509e-01 5.18560708e-01 4.98917103e-01 4.78455037e-01 4.70241368e-01 4.87435460e-01 5.22187114e-01 5.56160450e-01 5.80802917e-01 5.96847773e-01 5.96069753e-01 5.59258699e-01 -2.08498142e-03 1.42728165e-01 6.03673697e-01 1.70917287e-01 7.17815161e-02 1.80877104e-01 3.92105937e-01 4.82852191e-01 5.08696020e-01 5.10284364e-01 5.16332984e-01 5.24276733e-01 5.32873034e-01 5.42292356e-01 5.52251518e-01 5.62284589e-01 5.72109938e-01 5.81351817e-01 5.89514077e-01 5.96487999e-01 6.02956831e-01 6.10311568e-01 6.19399548e-01 6.28983200e-01 6.39910579e-01 6.52828813e-01 6.64399564e-01 6.72017455e-01 6.76376164e-01 6.69398725e-01 6.22595251e-01 -1.44104764e-03 1.48039132e-01 6.45983815e-01 1.92962810e-01 1.02194265e-01 3.29185903e-01 4.80667830e-01 5.13788640e-01 5.14057577e-01 5.20130992e-01 5.30063748e-01 5.40322006e-01 5.50766766e-01 5.61519444e-01 5.72467566e-01 5.83437681e-01 5.94255149e-01 6.04675710e-01 6.14606440e-01 6.24791443e-01 6.37041628e-01 6.52613819e-01 6.67852521e-01 6.74835861e-01 6.76263809e-01 6.78368330e-01 6.78547025e-01 6.76139295e-01 6.71970904e-01 6.61703944e-01 6.24029815e-01 -1.38369075e-03 1.44944593e-01 6.39734864e-01 2.08600000e-01 1.13117278e-01 3.28628302e-01 4.76003498e-01 5.04523695e-01 5.12869596e-01 5.25966227e-01 5.39189816e-01 5.51314712e-01 5.62426805e-01 5.72592676e-01 5.81876993e-01 5.90280473e-01 5.97649992e-01 6.03673577e-01 6.08097434e-01 6.11411035e-01 6.15249753e-01 6.18865073e-01 6.09554589e-01 5.73255122e-01 5.48638999e-01 5.62222898e-01 5.80790162e-01 5.89278579e-01 5.88760018e-01 5.84249258e-01 5.70695281e-01 7.51617458e-03 1.46660745e-01 6.34193599e-01 2.31495857e-01 1.49702355e-01 3.13869506e-01 4.24825072e-01 4.79546517e-01 5.08710265e-01 5.29777348e-01 5.46047091e-01 5.58795214e-01 5.68514049e-01 5.75624585e-01 5.80603838e-01 5.83756864e-01 5.85054994e-01 5.84179044e-01 5.80617666e-01 5.73926449e-01 5.64073265e-01 5.48392117e-01 5.09025455e-01 4.18881595e-01 3.38016629e-01 3.57729852e-01 4.22406524e-01 4.68703628e-01 4.86788660e-01 4.94161338e-01 5.03436685e-01 5.83807155e-02 1.05291232e-01 6.17709756e-01 4.08757806e-01 2.03308895e-01 2.89592892e-01 3.76318127e-01 4.49563265e-01 5.01935661e-01 5.32852113e-01 5.51553249e-01 5.62975049e-01 5.69024384e-01 5.71062684e-01 5.70366979e-01 5.67838013e-01 5.63774884e-01 5.58027804e-01 5.50163269e-01 5.39356530e-01 5.24191380e-01 5.01121163e-01 4.54751730e-01 3.54255646e-01 2.25397900e-01 1.98929176e-01 2.81500995e-01 3.74943316e-01 4.22062933e-01 4.41180348e-01 4.61220324e-01 2.82111645e-01 6.32003620e-02 2.36649171e-01 6.73900306e-01 4.10806417e-01 3.06891620e-01 3.51583630e-01 4.30043697e-01 4.95519757e-01 5.34060240e-01 5.53700268e-01 5.61917245e-01 5.62758029e-01 5.59146345e-01 5.53498387e-01 5.47445714e-01 5.41555882e-01 5.35600364e-01 5.29007971e-01 5.20860612e-01 5.09621084e-01 4.92825896e-01 4.62423325e-01 3.84624124e-01 2.12205634e-01 1.10493228e-01 1.67894766e-01 3.10743481e-01 4.00361836e-01 4.30926561e-01 4.51677501e-01 3.37496310e-01 8.80079865e-02 1.52760342e-01 7.39291787e-01 6.83511198e-01 4.62256938e-01 4.06743556e-01 4.45062280e-01 4.98595625e-01 5.35048306e-01 5.51848888e-01 5.54765761e-01 5.49681783e-01 5.41404068e-01 5.33364415e-01 5.27509570e-01 5.24209380e-01 5.22567868e-01 5.21183252e-01 5.18547773e-01 5.13024926e-01 5.03127456e-01 4.87498045e-01 4.56740588e-01 3.59895915e-01 1.41079307e-01 8.31876770e-02 2.31547490e-01 3.91999245e-01 4.44778919e-01 4.62333739e-01 3.66676390e-01 1.15846381e-01 9.69339311e-02 6.32887661e-01 7.86160231e-01 6.36647046e-01 5.26692688e-01 5.02598763e-01 5.21195889e-01 5.42179227e-01 5.49593925e-01 5.44113517e-01 5.32607555e-01 5.21537125e-01 5.14508724e-01 5.12650847e-01 5.15317798e-01 5.20467341e-01 5.25443494e-01 5.27821779e-01 5.25760770e-01 5.18413782e-01 5.06649077e-01 4.92161036e-01 4.67417210e-01 3.68300974e-01 1.21454507e-01 9.49077681e-02 3.20504129e-01 4.51957643e-01 4.76129353e-01 4.39118803e-01 2.55483657e-01 4.30029035e-02 2.21381679e-01 7.20421135e-01 7.32888818e-01 6.41704917e-01 5.81921816e-01 5.62785923e-01 5.59709072e-01 5.51331878e-01 5.34335911e-01 5.16264498e-01 5.04523098e-01 5.01675606e-01 5.06621480e-01 5.16697168e-01 5.28485358e-01 5.38355410e-01 5.43354154e-01 5.41827202e-01 5.33767283e-01 5.21184564e-01 5.07692218e-01 4.95509773e-01 4.71243113e-01 3.25702101e-01 7.66530484e-02 1.16549380e-01 3.82868588e-01 4.72710490e-01 4.85241592e-01 3.78887802e-01 7.55541399e-02 1.10874169e-01 5.92761099e-01 7.54613996e-01 7.11147845e-01 6.52862728e-01 6.10958576e-01 5.83851993e-01 5.56778133e-01 5.27680159e-01 5.04858494e-01 4.95018929e-01 4.98616904e-01 5.11567950e-01 5.28528154e-01 5.44689894e-01 5.56249797e-01 5.60734749e-01 5.57330906e-01 5.47049046e-01 5.32704175e-01 5.18195629e-01 5.06428301e-01 4.94230419e-01 4.24416512e-01 1.38629600e-01 4.07821126e-02 1.85467601e-01 4.04157311e-01 4.97556180e-01 4.43212748e-01 1.35424793e-01 5.58453277e-02 3.51288706e-01 6.77725911e-01 7.29146898e-01 7.01244175e-01 6.56746745e-01 6.09738529e-01 5.61660290e-01 5.22254050e-01 5.00018477e-01 4.96144205e-01 5.07641792e-01 5.27894676e-01 5.49308479e-01 5.66242158e-01 5.75682938e-01 5.76669157e-01 5.69767892e-01 5.56910336e-01 5.41228950e-01 5.26296735e-01 5.14503956e-01 5.04852533e-01 4.81482536e-01 3.18562478e-01 5.93481027e-02 1.08677827e-01 3.50555003e-01 5.29394090e-01 5.24185598e-01 4.17249471e-01 1.25023976e-01 1.22380927e-01 4.94496554e-01 6.90601826e-01 7.20481157e-01 7.05401659e-01 6.53394163e-01 5.75398743e-01 5.20761847e-01 5.03850758e-01 5.10227025e-01 5.30106843e-01 5.54889977e-01 5.76334774e-01 5.89502394e-01 5.93194067e-01 5.88468254e-01 5.77336669e-01 5.62305033e-01 5.46269298e-01 5.32014072e-01 5.21115482e-01 5.12894273e-01 5.01786649e-01 3.97392303e-01 8.74033570e-02 9.21450257e-02 3.28080148e-01 5.92762649e-01 6.06576920e-01 5.89576781e-01 4.73420233e-01 1.51882514e-01 1.53802365e-01 4.78868663e-01 6.40195370e-01 7.39593685e-01 7.32385099e-01 6.29607201e-01 5.49363494e-01 5.33763528e-01 5.45367897e-01 5.68534970e-01 5.91412008e-01 6.06173098e-01 6.10312283e-01 6.05174184e-01 5.93608081e-01 5.78476906e-01 5.62247753e-01 5.47080755e-01 5.34682214e-01 5.25709748e-01 5.19242287e-01 5.10709167e-01 4.28369075e-01 1.08676173e-01 5.86748235e-02 2.44936690e-01 6.68436050e-01 7.02428937e-01 7.04307079e-01 6.88990712e-01 5.65508902e-01 1.76191434e-01 9.55347717e-02 2.03981206e-01 5.48541427e-01 6.47728562e-01 5.84100962e-01 5.60686171e-01 6.06583714e-01 6.17481291e-01 6.27441108e-01 6.35132253e-01 6.33877993e-01 6.23668075e-01 6.07785940e-01 5.89676261e-01 5.71845412e-01 5.55900335e-01 5.42893708e-01 5.33404887e-01 5.27217984e-01 5.22950470e-01 5.16490102e-01 4.69978452e-01 2.10187048e-01 3.55544128e-02 5.40066734e-02 7.09184885e-01 7.55107343e-01 7.67307758e-01 7.75207579e-01 7.80111492e-01 6.57794535e-01 2.41253436e-01 1.24765731e-01 1.03626467e-01 1.53921723e-01 1.72652006e-01 2.89558113e-01 6.14659727e-01 7.09053993e-01 6.98664665e-01 6.76226556e-01 6.50161147e-01 6.22783780e-01 5.97050846e-01 5.74843287e-01 5.56848288e-01 5.43137372e-01 5.33596039e-01 5.27955711e-01 5.25454640e-01 5.24419010e-01 5.21767199e-01 5.09030521e-01 3.74790162e-01 7.05580041e-02 2.00942047e-02 6.99215591e-01 7.53413558e-01 7.68807054e-01 7.82667220e-01 8.07599962e-01 8.35674763e-01 7.80774057e-01 6.76309109e-01 2.61894375e-01 1.79060936e-01 1.64820686e-01 2.16421396e-01 5.35637498e-01 7.52967417e-01 7.43355930e-01 6.89080298e-01 6.39397919e-01 5.99844217e-01 5.70267200e-01 5.49079299e-01 5.34489155e-01 5.25123656e-01 5.20132601e-01 5.18942416e-01 5.20759881e-01 5.23910940e-01 5.25152028e-01 5.20174921e-01 4.21998024e-01 8.71900544e-02 1.30818048e-02 6.45358682e-01 7.02268720e-01 7.15260565e-01 7.21095622e-01 7.31327295e-01 7.48705745e-01 7.82335341e-01 8.28320682e-01 7.92410195e-01 7.72191644e-01 7.49135494e-01 6.57153606e-01 7.42319584e-01 7.75079429e-01 7.18848944e-01 6.44142568e-01 5.89170039e-01 5.52775800e-01 5.29800057e-01 5.15878499e-01 5.08003950e-01 5.04441321e-01 5.04373968e-01 5.07462442e-01 5.13340175e-01 5.20838201e-01 5.26766717e-01 5.26536345e-01 4.33419615e-01 8.74403641e-02 9.07193590e-03 5.77383578e-01 6.21100068e-01 6.27534926e-01 6.14593863e-01 5.87244213e-01 5.40762603e-01 5.13758838e-01 5.58511257e-01 6.47759974e-01 7.20744491e-01 7.48294234e-01 7.36720860e-01 7.26054370e-01 6.65994227e-01 5.93931496e-01 5.42342782e-01 5.11430264e-01 4.94327426e-01 4.85870987e-01 4.82638657e-01 4.82573688e-01 4.84719872e-01 4.88857359e-01 4.95134056e-01 5.03773570e-01 5.14595151e-01 5.25438190e-01 5.31324148e-01 4.41137284e-01 8.81410837e-02 8.18532053e-03 5.28614581e-01 5.50785840e-01 5.54647386e-01 5.34963369e-01 4.91231889e-01 4.06354636e-01 3.05063576e-01 2.54859924e-01 2.67119288e-01 3.08519363e-01 3.66105050e-01 4.35079485e-01 4.77319241e-01 4.72369999e-01 4.54562902e-01 4.45349038e-01 4.43874836e-01 4.46862012e-01 4.52005029e-01 4.57888067e-01 4.63861436e-01 4.69924480e-01 4.76489455e-01 4.84137654e-01 4.93530869e-01 5.05502224e-01 5.20168781e-01 5.34156859e-01 4.49412376e-01 8.94747227e-02 7.73600908e-03 5.04613638e-01 5.11731327e-01 5.16398132e-01 5.06814480e-01 4.81632262e-01 4.25985873e-01 3.33792567e-01 2.39879698e-01 1.86233222e-01 1.74338430e-01 2.06392959e-01 2.80545324e-01 3.38325948e-01 3.59647572e-01 3.72744411e-01 3.89469713e-01 4.07088906e-01 4.23146188e-01 4.36686248e-01 4.47626740e-01 4.56364185e-01 4.63601679e-01 4.70189840e-01 4.76983786e-01 4.84839529e-01 4.95024621e-01 5.10261059e-01 5.33644021e-01 4.59899724e-01 9.20817629e-02 7.96539150e-03 4.95601565e-01 4.96016026e-01 5.01511633e-01 5.02946854e-01 4.98158395e-01 4.80792403e-01 4.39289272e-01 3.71248573e-01 2.96186358e-01 2.43888661e-01 2.38697991e-01 2.74787635e-01 2.86652535e-01 3.04446965e-01 3.33745182e-01 3.67241889e-01 3.98360044e-01 4.22937274e-01 4.40885246e-01 4.53426361e-01 4.61947203e-01 4.67760295e-01 4.72066849e-01 4.75935102e-01 4.80338633e-01 4.86516356e-01 4.98141915e-01 5.27974188e-01 4.73009825e-01 9.63172913e-02 8.94958619e-03 4.95118290e-01 4.94046658e-01 5.00254452e-01 5.07947147e-01 5.14339447e-01 5.17473578e-01 5.12088001e-01 4.89794940e-01 4.43271279e-01 3.81785423e-01 3.50908637e-01 3.47738296e-01 2.56745785e-01 2.26372361e-01 2.93608725e-01 3.56627047e-01 4.03377384e-01 4.36037660e-01 4.57253993e-01 4.70154822e-01 4.77301598e-01 4.80666310e-01 4.81820941e-01 4.82087851e-01 4.82668728e-01 4.84906614e-01 4.91680264e-01 5.14228404e-01 4.77676570e-01 9.96103734e-02 7.58371688e-03 4.97586966e-01 4.97008175e-01 5.02116382e-01 5.09861112e-01 5.17487228e-01 5.24285495e-01 5.28581321e-01 5.26576102e-01 5.09958148e-01 4.67950910e-01 4.22387958e-01 4.06545937e-01 3.06700826e-01 2.17156485e-01 2.80212432e-01 3.66988778e-01 4.19814527e-01 4.52297419e-01 4.71923798e-01 4.83127385e-01 4.88784790e-01 4.90860671e-01 4.90808994e-01 4.89817232e-01 4.88979399e-01 4.89465445e-01 4.92712229e-01 4.99661058e-01 4.58259851e-01 1.00805975e-01 -5.39130997e-03 
