# vtk DataFile Version 2.0
results/iter5.vtk, Created by Freefem++ 
ASCII
DATASET UNSTRUCTURED_GRID
POINTS 961 float
0 0 0
0.033333333 0 0
0.066666667 0 0
0.1 0 0
0.13333333 0 0
0.16666667 0 0
0.2 0 0
0.23333333 0 0
0.26666667 0 0
0.3 0 0
0.33333333 0 0
0.36666667 0 0
0.4 0 0
0.43333333 0 0
0.46666667 0 0
0.5 0 0
0.53333333 0 0
0.56666667 0 0
0.6 0 0
0.63333333 0 0
0.66666667 0 0
0.7 0 0
0.73333333 0 0
0.76666667 0 0
0.8 0 0
0.83333333 0 0
0.86666667 0 0
0.9 0 0
0.93333333 0 0
0.96666667 0 0
1 0 0
0 0.033333333 0
0.033333333 0.033333333 0
0.066666667 0.033333333 0
0.1 0.033333333 0
0.13333333 0.033333333 0
0.16666667 0.033333333 0
0.2 0.033333333 0
0.23333333 0.033333333 0
0.26666667 0.033333333 0
0.3 0.033333333 0
0.33333333 0.033333333 0
0.36666667 0.033333333 0
0.4 0.033333333 0
0.43333333 0.033333333 0
0.46666667 0.033333333 0
0.5 0.033333333 0
0.53333333 0.033333333 0
0.56666667 0.033333333 0
0.6 0.033333333 0
0.63333333 0.033333333 0
0.66666667 0.033333333 0
0.7 0.033333333 0
0.73333333 0.033333333 0
0.76666667 0.033333333 0
0.8 0.033333333 0
0.83333333 0.033333333 0
0.86666667 0.033333333 0
0.9 0.033333333 0
0.93333333 0.033333333 0
0.96666667 0.033333333 0
1 0.033333333 0
0 0.066666667 0
0.033333333 0.066666667 0
0.066666667 0.066666667 0
0.1 0.066666667 0
0.13333333 0.066666667 0
0.16666667 0.066666667 0
0.2 0.066666667 0
0.23333333 0.066666667 0
0.26666667 0.066666667 0
0.3 0.066666667 0
0.33333333 0.066666667 0
0.36666667 0.066666667 0
0.4 0.066666667 0
0.43333333 0.066666667 0
0.46666667 0.066666667 0
0.5 0.066666667 0
0.53333333 0.066666667 0
0.56666667 0.066666667 0
0.6 0.066666667 0
0.63333333 0.066666667 0
0.66666667 0.066666667 0
0.7 0.066666667 0
0.73333333 0.066666667 0
0.76666667 0.066666667 0
0.8 0.066666667 0
0.83333333 0.066666667 0
0.86666667 0.066666667 0
0.9 0.066666667 0
0.93333333 0.066666667 0
0.96666667 0.066666667 0
1 0.066666667 0
0 0.1 0
0.033333333 0.1 0
0.066666667 0.1 0
0.1 0.1 0
0.13333333 0.1 0
0.16666667 0.1 0
0.2 0.1 0
0.23333333 0.1 0
0.26666667 0.1 0
0.3 0.1 0
0.33333333 0.1 0
0.36666667 0.1 0
0.4 0.1 0
0.43333333 0.1 0
0.46666667 0.1 0
0.5 0.1 0
0.53333333 0.1 0
0.56666667 0.1 0
0.6 0.1 0
0.63333333 0.1 0
0.66666667 0.1 0
0.7 0.1 0
0.73333333 0.1 0
0.76666667 0.1 0
0.8 0.1 0
0.83333333 0.1 0
0.86666667 0.1 0
0.9 0.1 0
0.93333333 0.1 0
0.96666667 0.1 0
1 0.1 0
0 0.13333333 0
0.033333333 0.13333333 0
0.066666667 0.13333333 0
0.1 0.13333333 0
0.13333333 0.13333333 0
0.16666667 0.13333333 0
0.2 0.13333333 0
0.23333333 0.13333333 0
0.26666667 0.13333333 0
0.3 0.13333333 0
0.33333333 0.13333333 0
0.36666667 0.13333333 0
0.4 0.13333333 0
0.43333333 0.13333333 0
0.46666667 0.13333333 0
0.5 0.13333333 0
0.53333333 0.13333333 0
0.56666667 0.13333333 0
0.6 0.13333333 0
0.63333333 0.13333333 0
0.66666667 0.13333333 0
0.7 0.13333333 0
0.73333333 0.13333333 0
0.76666667 0.13333333 0
0.8 0.13333333 0
0.83333333 0.13333333 0
0.86666667 0.13333333 0
0.9 0.13333333 0
0.93333333 0.13333333 0
0.96666667 0.13333333 0
1 0.13333333 0
0 0.16666667 0
0.033333333 0.16666667 0
0.066666667 0.16666667 0
0.1 0.16666667 0
0.13333333 0.16666667 0
0.16666667 0.16666667 0
0.2 0.16666667 0
0.23333333 0.16666667 0
0.26666667 0.16666667 0
0.3 0.16666667 0
0.33333333 0.16666667 0
0.36666667 0.16666667 0
0.4 0.16666667 0
0.43333333 0.16666667 0
0.46666667 0.16666667 0
0.5 0.16666667 0
0.53333333 0.16666667 0
0.56666667 0.16666667 0
0.6 0.16666667 0
0.63333333 0.16666667 0
0.66666667 0.16666667 0
0.7 0.16666667 0
0.73333333 0.16666667 0
0.76666667 0.16666667 0
0.8 0.16666667 0
0.83333333 0.16666667 0
0.86666667 0.16666667 0
0.9 0.16666667 0
0.93333333 0.16666667 0
0.96666667 0.16666667 0
1 0.16666667 0
0 0.2 0
0.033333333 0.2 0
0.066666667 0.2 0
0.1 0.2 0
0.13333333 0.2 0
0.16666667 0.2 0
0.2 0.2 0
0.23333333 0.2 0
0.26666667 0.2 0
0.3 0.2 0
0.33333333 0.2 0
0.36666667 0.2 0
0.4 0.2 0
0.43333333 0.2 0
0.46666667 0.2 0
0.5 0.2 0
0.53333333 0.2 0
0.56666667 0.2 0
0.6 0.2 0
0.63333333 0.2 0
0.66666667 0.2 0
0.7 0.2 0
0.73333333 0.2 0
0.76666667 0.2 0
0.8 0.2 0
0.83333333 0.2 0
0.86666667 0.2 0
0.9 0.2 0
0.93333333 0.2 0
0.96666667 0.2 0
1 0.2 0
0 0.23333333 0
0.033333333 0.23333333 0
0.066666667 0.23333333 0
0.1 0.23333333 0
0.13333333 0.23333333 0
0.16666667 0.23333333 0
0.2 0.23333333 0
0.23333333 0.23333333 0
0.26666667 0.23333333 0
0.3 0.23333333 0
0.33333333 0.23333333 0
0.36666667 0.23333333 0
0.4 0.23333333 0
0.43333333 0.23333333 0
0.46666667 0.23333333 0
0.5 0.23333333 0
0.53333333 0.23333333 0
0.56666667 0.23333333 0
0.6 0.23333333 0
0.63333333 0.23333333 0
0.66666667 0.23333333 0
0.7 0.23333333 0
0.73333333 0.23333333 0
0.76666667 0.23333333 0
0.8 0.23333333 0
0.83333333 0.23333333 0
0.86666667 0.23333333 0
0.9 0.23333333 0
0.93333333 0.23333333 0
0.96666667 0.23333333 0
1 0.23333333 0
0 0.26666667 0
0.033333333 0.26666667 0
0.066666667 0.26666667 0
0.1 0.26666667 0
0.13333333 0.26666667 0
0.16666667 0.26666667 0
0.2 0.26666667 0
0.23333333 0.26666667 0
0.26666667 0.26666667 0
0.3 0.26666667 0
0.33333333 0.26666667 0
0.36666667 0.26666667 0
0.4 0.26666667 0
0.43333333 0.26666667 0
0.46666667 0.26666667 0
0.5 0.26666667 0
0.53333333 0.26666667 0
0.56666667 0.26666667 0
0.6 0.26666667 0
0.63333333 0.26666667 0
0.66666667 0.26666667 0
0.7 0.26666667 0
0.73333333 0.26666667 0
0.76666667 0.26666667 0
0.8 0.26666667 0
0.83333333 0.26666667 0
0.86666667 0.26666667 0
0.9 0.26666667 0
0.93333333 0.26666667 0
0.96666667 0.26666667 0
1 0.26666667 0
0 0.3 0
0.033333333 0.3 0
0.066666667 0.3 0
0.1 0.3 0
0.13333333 0.3 0
0.16666667 0.3 0
0.2 0.3 0
0.23333333 0.3 0
0.26666667 0.3 0
0.3 0.3 0
0.33333333 0.3 0
0.36666667 0.3 0
0.4 0.3 0
0.43333333 0.3 0
0.46666667 0.3 0
0.5 0.3 0
0.53333333 0.3 0
0.56666667 0.3 0
0.6 0.3 0
0.63333333 0.3 0
0.66666667 0.3 0
0.7 0.3 0
0.73333333 0.3 0
0.76666667 0.3 0
0.8 0.3 0
0.83333333 0.3 0
0.86666667 0.3 0
0.9 0.3 0
0.93333333 0.3 0
0.96666667 0.3 0
1 0.3 0
0 0.33333333 0
0.033333333 0.33333333 0
0.066666667 0.33333333 0
0.1 0.33333333 0
0.13333333 0.33333333 0
0.16666667 0.33333333 0
0.2 0.33333333 0
0.23333333 0.33333333 0
0.26666667 0.33333333 0
0.3 0.33333333 0
0.33333333 0.33333333 0
0.36666667 0.33333333 0
0.4 0.33333333 0
0.43333333 0.33333333 0
0.46666667 0.33333333 0
0.5 0.33333333 0
0.53333333 0.33333333 0
0.56666667 0.33333333 0
0.6 0.33333333 0
0.63333333 0.33333333 0
0.66666667 0.33333333 0
0.7 0.33333333 0
0.73333333 0.33333333 0
0.76666667 0.33333333 0
0.8 0.33333333 0
0.83333333 0.33333333 0
0.86666667 0.33333333 0
0.9 0.33333333 0
0.93333333 0.33333333 0
0.96666667 0.33333333 0
1 0.33333333 0
0 0.36666667 0
0.033333333 0.36666667 0
0.066666667 0.36666667 0
0.1 0.36666667 0
0.13333333 0.36666667 0
0.16666667 0.36666667 0
0.2 0.36666667 0
0.23333333 0.36666667 0
0.26666667 0.36666667 0
0.3 0.36666667 0
0.33333333 0.36666667 0
0.36666667 0.36666667 0
0.4 0.36666667 0
0.43333333 0.36666667 0
0.46666667 0.36666667 0
0.5 0.36666667 0
0.53333333 0.36666667 0
0.56666667 0.36666667 0
0.6 0.36666667 0
0.63333333 0.36666667 0
0.66666667 0.36666667 0
0.7 0.36666667 0
0.73333333 0.36666667 0
0.76666667 0.36666667 0
0.8 0.36666667 0
0.83333333 0.36666667 0
0.86666667 0.36666667 0
0.9 0.36666667 0
0.93333333 0.36666667 0
0.96666667 0.36666667 0
1 0.36666667 0
0 0.4 0
0.033333333 0.4 0
0.066666667 0.4 0
0.1 0.4 0
0.13333333 0.4 0
0.16666667 0.4 0
0.2 0.4 0
0.23333333 0.4 0
0.26666667 0.4 0
0.3 0.4 0
0.33333333 0.4 0
0.36666667 0.4 0
0.4 0.4 0
0.43333333 0.4 0
0.46666667 0.4 0
0.5 0.4 0
0.53333333 0.4 0
0.56666667 0.4 0
0.6 0.4 0
0.63333333 0.4 0
0.66666667 0.4 0
0.7 0.4 0
0.73333333 0.4 0
0.76666667 0.4 0
0.8 0.4 0
0.83333333 0.4 0
0.86666667 0.4 0
0.9 0.4 0
0.93333333 0.4 0
0.96666667 0.4 0
1 0.4 0
0 0.43333333 0
0.033333333 0.43333333 0
0.066666667 0.43333333 0
0.1 0.43333333 0
0.13333333 0.43333333 0
0.16666667 0.43333333 0
0.2 0.43333333 0
0.23333333 0.43333333 0
0.26666667 0.43333333 0
0.3 0.43333333 0
0.33333333 0.43333333 0
0.36666667 0.43333333 0
0.4 0.43333333 0
0.43333333 0.43333333 0
0.46666667 0.43333333 0
0.5 0.43333333 0
0.53333333 0.43333333 0
0.56666667 0.43333333 0
0.6 0.43333333 0
0.63333333 0.43333333 0
0.66666667 0.43333333 0
0.7 0.43333333 0
0.73333333 0.43333333 0
0.76666667 0.43333333 0
0.8 0.43333333 0
0.83333333 0.43333333 0
0.86666667 0.43333333 0
0.9 0.43333333 0
0.93333333 0.43333333 0
0.96666667 0.43333333 0
1 0.43333333 0
0 0.46666667 0
0.033333333 0.46666667 0
0.066666667 0.46666667 0
0.1 0.46666667 0
0.13333333 0.46666667 0
0.16666667 0.46666667 0
0.2 0.46666667 0
0.23333333 0.46666667 0
0.26666667 0.46666667 0
0.3 0.46666667 0
0.33333333 0.46666667 0
0.36666667 0.46666667 0
0.4 0.46666667 0
0.43333333 0.46666667 0
0.46666667 0.46666667 0
0.5 0.46666667 0
0.53333333 0.46666667 0
0.56666667 0.46666667 0
0.6 0.46666667 0
0.63333333 0.46666667 0
0.66666667 0.46666667 0
0.7 0.46666667 0
0.73333333 0.46666667 0
0.76666667 0.46666667 0
0.8 0.46666667 0
0.83333333 0.46666667 0
0.86666667 0.46666667 0
0.9 0.46666667 0
0.93333333 0.46666667 0
0.96666667 0.46666667 0
1 0.46666667 0
0 0.5 0
0.033333333 0.5 0
0.066666667 0.5 0
0.1 0.5 0
0.13333333 0.5 0
0.16666667 0.5 0
0.2 0.5 0
0.23333333 0.5 0
0.26666667 0.5 0
0.3 0.5 0
0.33333333 0.5 0
0.36666667 0.5 0
0.4 0.5 0
0.43333333 0.5 0
0.46666667 0.5 0
0.5 0.5 0
0.53333333 0.5 0
0.56666667 0.5 0
0.6 0.5 0
0.63333333 0.5 0
0.66666667 0.5 0
0.7 0.5 0
0.73333333 0.5 0
0.76666667 0.5 0
0.8 0.5 0
0.83333333 0.5 0
0.86666667 0.5 0
0.9 0.5 0
0.93333333 0.5 0
0.96666667 0.5 0
1 0.5 0
0 0.53333333 0
0.033333333 0.53333333 0
0.066666667 0.53333333 0
0.1 0.53333333 0
0.13333333 0.53333333 0
0.16666667 0.53333333 0
0.2 0.53333333 0
0.23333333 0.53333333 0
0.26666667 0.53333333 0
0.3 0.53333333 0
0.33333333 0.53333333 0
0.36666667 0.53333333 0
0.4 0.53333333 0
0.43333333 0.53333333 0
0.46666667 0.53333333 0
0.5 0.53333333 0
0.53333333 0.53333333 0
0.56666667 0.53333333 0
0.6 0.53333333 0
0.63333333 0.53333333 0
0.66666667 0.53333333 0
0.7 0.53333333 0
0.73333333 0.53333333 0
0.76666667 0.53333333 0
0.8 0.53333333 0
[...]
CELL_DATA 1920
Scalars  Label int 1
LOOKUP_TABLE FreeFempp_table
0
0
0
0
0
0
0
0
0
0
0
0
0
0
0
0
0
0
0
0
0
0
0
0
0
0
0
0
0
0
0
0
0
0
0
0
0
0
0
0
0
0
0
0
0
0
0
0
0
0
0
0
0
0
0
0
0
0
0
0
0
0
0
0
0
0
0
0
0
0
0
0
0
0
0
0
0
0
0
0
0
0
0
0
0
0
0
0
0
0
0
0
0
0
0
0
0
0
0
0
0
0
0
0
0
0
0
0
0
0
0
0
0
0
0
0
0
0
0
0
0
0
0
0
0
0
0
0
0
0
0
0
0
0
0
0
0
0
0
0
0
0
0
0
0
0
0
0
0
0
0
0
0
0
0
0
0
0
0
0
0
0
0
0
0
0
0
0
0
0
0
0
0
0
0
0
0
0
0
0
0
0
0
0
0
0
0
0
0
0
0
0
0
0
0
0
0
0
0
0
0
0
0
0
0
0
0
0
0
0
0
0
0
0
0
0
0
0
0
0
0
0
0
0
0
0
0
0
0
0
0
0
0
0
0
0
0
0
0
0
0
0
0
0
0
0
0
0
0
0
0
0
0
0
0
0
0
0
0
0
0
0
0
0
0
0
0
0
0
0
0
0
0
0
0
0
0
0
0
0
0
0
0
0
0
0
0
0
0
0
0
0
0
0
0
0
0
0
0
0
0
0
0
0
0
0
0
0
0
0
0
0
0
0
0
0
0
0
0
0
0
0
0
0
0
0
0
0
0
0
0
0
0
0
0
0
0
0
0
0
0
0
0
0
0
0
0
0
0
0
0
0
0
0
0
0
0
0
0
0
0
0
0
0
0
0
0
0
0
0
0
0
0
0
0
0
0
0
0
0
0
0
0
0
0
0
0
0
0
0
0
0
0
0
0
0
0
0
0
0
0
0
0
0
0
0
0
0
0
0
0
0
0
0
0
0
0
0
0
0
0
0
0
0
0
0
0
0
0
0
0
0
0
0
0
0
0
0
0
0
0
0
0
0
0
0
0
0
0
0
0
0
0
0
0
0
0
0
0
0
0
0
0
0
0
0
0
0
0
0
0
0
0
0
0
0
0
0
0
0
0
0
0
0
0
0
0
0
0
0
0
0
0
0
0
0
0
0
0
0
0
0
0
0
0
0
0
0
0
0
0
0
0
0
0
0
0
0
0
0
0
0
0
0
0
0
0
0
0
0
0
0
0
0
0
0
0
0
0
0
0
0
0
0
0
0
0
0
0
0
0
0
0
0
0
0
0
0
0
0
0
0
0
0
0
0
0
0
0
0
0
0
0
0
0
0
0
0
0
0
0
0
0
0
0
0
0
0
0
0
0
0
0
0
0
0
0
0
0
0
0
0
0
0
0
0
0
0
0
0
0
0
0
0
0
0
0
0
0
0
0
0
0
0
0
0
0
0
0
0
0
0
0
0
0
0
0
0
0
0
0
0
0
0
0
0
0
0
0
0
0
0
0
0
0
0
0
0
0
0
0
0
0
0
0
0
0
0
0
0
0
0
0
0
0
0
0
0
0
0
0
0
0
0
0
0
0
0
0
0
0
0
0
0
0
0
0
0
0
0
0
0
0
0
0
0
0
0
0
0
0
0
0
0
0
0
0
0
0
0
0
0
0
0
0
0
0
0
0
0
0
0
0
0
0
0
0
0
0
0
0
0
0
0
0
0
0
0
0
0
0
0
0
0
0
0
0
0
0
0
0
0
0
0
0
0
0
0
0
0
0
0
0
0
0
0
0
0
0
0
0
0
0
0
0
0
0
0
0
0
0
0
0
0
0
0
0
0
0
0
0
0
0
0
0
0
0
0
0
0
0
0
0
0
0
0
0
0
0
0
0
0
0
0
0
0
0
0
0
0
0
0
0
0
0
0
0
0
0
0
0
0
0
0
0
0
0
0
0
0
0
0
0
0
0
0
0
0
0
0
0
0
0
0
0
0
0
0
0
0
0
0
0
0
0
0
0
0
0
0
0
0
0
0
0
0
0
0
0
0
0
0
0
0
0
0
0
0
0
0
0
0
0
0
0
0
0
0
0
0
0
0
0
0
0
0
0
0
0
0
0
0
0
0
0
0
0
0
0
0
0
0
0
0
0
0
0
0
0
0
0
0
0
0
0
0
0
0
0
0
0
0
0
0
0
0
0
0
0
0
0
0
0
0
0
0
0
0
0
0
0
0
0
0
0
0
0
0
0
0
0
0
0
0
0
0
0
0
0
0
0
0
0
0
0
0
0
0
0
0
0
0
0
0
0
0
0
0
0
0
0
0
0
0
0
0
0
0
0
0
0
0
0
0
0
0
0
0
0
0
0
0
0
0
0
0
0
0
0
0
0
0
0
0
0
0
0
0
0
0
0
0
0
0
0
0
0
0
0
0
0
0
0
0
0
0
0
0
0
0
0
0
0
0
0
0
0
0
0
0
0
0
0
0
0
0
0
0
0
0
0
0
0
0
0
0
0
0
0
0
0
0
0
0
0
0
0
0
0
0
0
0
0
0
0
0
0
0
0
0
0
0
0
0
0
0
0
0
0
0
0
0
0
0
0
0
0
0
0
0
0
0
0
0
0
0
0
0
0
0
0
0
0
0
0
0
0
0
0
0
0
0
0
0
0
0
0
0
0
0
0
0
0
0
0
0
0
0
0
0
0
0
0
0
0
0
0
0
0
0
0
0
0
0
0
0
0
0
0
0
0
0
0
0
0
0
0
0
0
0
0
0
0
0
0
0
0
0
0
0
0
0
0
0
0
0
0
0
0
0
0
0
0
0
0
0
0
0
0
0
0
0
0
0
0
0
0
0
0
0
0
0
0
0
0
0
0
0
0
0
0
0
0
0
0
0
0
0
0
0
0
0
0
0
0
0
0
0
0
0
0
0
0
0
0
0
0
0
0
0
0
0
0
0
0
0
0
0
0
0
0
0
0
0
0
0
0
0
0
0
0
0
0
0
0
0
0
0
0
0
0
0
0
0
0
0
0
0
0
0
0
0
0
0
0
0
0
0
0
0
0
0
0
0
0
0
0
0
0
0
0
0
0
0
0
0
0
0
0
0
0
0
0
0
0
0
0
0
0
0
0
0
0
0
0
0
0
0
0
0
0
0
0
0
0
0
0
0
0
0
0
0
0
0
0
0
0
0
0
0
0
0
0
0
0
0
0
0
0
0
0
0
0
0
0
0
0
0
0
0
0
0
0
0
0
0
0
0
0
0
0
0
0
0
0
0
0
0
0
0
0
0
0
0
0
0
0
0
0
0
0
0
0
0
0
0
0
0
0
0
0
0
0
0
0
0
0
0
0
0
0
0
0
0
0
0
0
0
0
0
0
0
0
0
0
0
0
0
0
0
0
0
0
0
0
0
0
0
0
0
0
0
0
0
0
0
0
0
0
0
0
0
0
0
0
0
0
0
0
0
0
0
0
0
0
0
0
0
0
0
0
0
0
0
0
0
0
0
0
0
0
0
0
0
0
0
0
0
0
0
0
0
0
0
0
0
0
0
0
0
0
0
0
0
0
0
0
0
0
0
0
0
0
0
0
0
0
0
0
0
0
0
0
0
0
0
0
0
0
0
0
0
0
0
0
0
0
0
0
0
0
0
0
0
0
0
0
0
0
0
0
0
0
0
0
0
0
0
0
0
0
0
0
0
0
0
0
0
0
0
0
0
0
0
0
0
0
0
0
0
0
0
0
0
0
0
0
0
0
0
0
0
0
0
0
0
0
0
0
0
0
0
0
0
0
0
0
0
0
0
0
0
0
0
0
0
0
0
0
0
0
0
0
0
0
0
0
0
0
0
0
0
0
0
0
0
0
0
0
0
0
0
0
0
0
0
0
0
0
0
0
0
0
0
0
0
0
0
0
0
0
0
0
0
0
0
0
0
0
0
0
0
0
0
0
0
0
0
0
0
0
0
0
0
0
0
0
0
0
0
0
0
0
0
0
0
0
0
0
0
0
0
0
0
0
0
0
0
0
0
0
0
0
0
0
0
0
0
0
0
0
0
0
0
0
0
0
0
0
0
0
0
0
0
0
0
0
0
0
0
1
1
1
1
1
1
1
1
1
1
1
1
1
1
1
1
1
1
1
1
1
1
1
1
1
1
1
1
1
1
2
2
2
2
2
2
2
2
2
2
2
2
2
2
2
2
2
2
2
2
2
2
2
2
2
2
2
2
2
2
3
3
3
3
3
3
3
3
3
3
3
3
3
3
3
3
3
3
3
3
3
3
3
3
3
3
3
3
3
3
4
4
4
4
4
4
4
4
4
4
4
4
4
4
4
4
4
4
4
4
4
4
4
4
4
4
4
4
4
4

LOOKUP_TABLE FreeFempp_table 5
1.00000000 0.00000000 0.00000000 1.00000000
1.00000000 1.00000000 0.00000000 1.00000000
1.00000000 0.00000000 1.00000000 1.00000000
0.00000000 1.00000000 0.00000000 1.00000000
0.00000000 1.00000000 1.00000000 1.00000000

POINT_DATA 961
FIELD FieldData 1
Density 1 961 float
7.10918963e-01 5.36064386e-01 5.07055640e-01 4.79096562e-01 4.90472436e-01 5.55718362e-01 5.92268765e-01 5.94669282e-01 5.77965856e-01 5.59689939e-01 5.47660410e-01 4.50988919e-01 5.10205142e-02 5.53039229e-03 6.06464082e-03 3.98192294e-02 2.71563917e-01 4.80204165e-01 6.01065099e-01 6.81346834e-01 7.37621367e-01 7.77693033e-01 8.06844890e-01 8.29618037e-01 8.49958777e-01 8.69995534e-01 8.89357746e-01 9.06054437e-01 9.18307006e-01 9.23811376e-01 8.97278368e-01 5.45642138e-01 1.27867267e-01 8.55485871e-02 7.10363910e-02 8.83560926e-02 1.37526274e-01 2.04907194e-01 2.19258711e-01 1.98752701e-01 1.72525302e-01 1.45135820e-01 8.84367302e-02 1.61083322e-02 3.24245309e-03 2.21309485e-03 5.86444931e-03 3.87247428e-02 1.09163396e-01 2.06273273e-01 3.36225480e-01 4.77903843e-01 6.01066351e-01 6.93055153e-01 7.58933127e-01 8.09424281e-01 8.51196826e-01 8.84051681e-01 9.05951619e-01 9.17678237e-01 9.21838701e-01 9.22299147e-01 1.44355130e-04 1.47018844e-04 1.48207735e-04 1.69659470e-04 2.69267097e-04 1.54521933e-03 1.76024303e-01 2.47768581e-01 2.21925437e-01 1.91676527e-01 1.54057533e-01 7.48411715e-02 1.31870480e-02 2.48188851e-03 1.34216005e-03 3.77185782e-03 3.97613682e-02 1.16837002e-01 1.92530841e-01 2.95241207e-01 4.24547166e-01 5.50916433e-01 6.51818395e-01 7.25735247e-01 7.83700347e-01 8.33731413e-01 8.74142349e-01 9.01164234e-01 9.15740430e-01 9.21214759e-01 9.16536808e-01 1.67645805e-04 1.38788877e-04 1.49710511e-04 1.51694650e-04 1.59746211e-04 1.60489173e-04 1.61686548e-04 1.63643213e-04 1.67063874e-04 1.68026614e-04 1.68519415e-04 1.73840206e-04 1.85282188e-04 1.84867196e-04 1.97903049e-04 2.22976261e-04 3.99269387e-02 1.50751024e-01 1.86276510e-01 2.49466017e-01 3.55387002e-01 4.79176193e-01 5.87901354e-01 6.70535505e-01 7.38534093e-01 8.02738786e-01 8.57801378e-01 8.94785762e-01 9.14223135e-01 9.21305656e-01 9.12931442e-01 8.94601941e-01 8.23374808e-01 7.51497388e-01 3.27830017e-02 3.81653022e-04 1.92170031e-04 1.67363411e-04 1.61683551e-04 1.65021498e-04 1.67290156e-04 1.67648672e-04 1.70628497e-04 1.80370713e-04 1.85583471e-04 1.83199780e-04 1.63067423e-04 1.53696965e-04 1.61374778e-01 1.91983789e-01 2.13046953e-01 2.88338870e-01 4.00595486e-01 5.10997593e-01 5.97049296e-01 6.72864139e-01 7.55138755e-01 8.32837880e-01 8.85435641e-01 9.11983728e-01 9.21135485e-01 9.09009516e-01 9.62704957e-01 9.62118447e-01 9.62071598e-01 9.59253311e-01 9.43296015e-01 8.68089199e-01 7.41882801e-01 6.57923520e-01 6.05739534e-01 5.58396995e-01 4.99804169e-01 4.16692048e-01 3.08957398e-01 1.75098166e-01 1.60915963e-02 5.78511448e-04 1.43206693e-04 1.40211545e-04 1.76102072e-01 1.97066769e-01 2.39779115e-01 3.38801473e-01 4.40835238e-01 5.16247451e-01 5.90708971e-01 6.90054655e-01 7.98592865e-01 8.73760760e-01 9.09696102e-01 9.21261728e-01 9.05516386e-01 9.75452662e-01 9.59637880e-01 9.56703067e-01 9.55634773e-01 9.55699146e-01 9.57970917e-01 9.56280768e-01 9.43614125e-01 9.16836202e-01 8.74785185e-01 8.11300695e-01 7.23845482e-01 6.23386383e-01 5.33949733e-01 4.49425966e-01 3.33035499e-01 1.33078009e-01 1.41538432e-04 1.44258418e-04 1.68431446e-01 2.13468403e-01 3.10421646e-01 3.93935263e-01 4.48500663e-01 5.07374108e-01 6.12891316e-01 7.56650686e-01 8.61433685e-01 9.08557355e-01 9.22552049e-01 9.03308630e-01 9.73617673e-01 9.64501262e-01 9.52093959e-01 9.45947289e-01 9.46751773e-01 9.43919122e-01 9.41784382e-01 9.44961786e-01 9.48953807e-01 9.46678877e-01 9.31257069e-01 8.94024074e-01 8.24687302e-01 7.23725617e-01 6.07096255e-01 4.91833568e-01 3.95226628e-01 1.23263195e-01 1.52210516e-04 1.79131966e-04 1.87539324e-01 2.91581690e-01 3.45223308e-01 3.63826305e-01 4.21757549e-01 5.36338151e-01 7.12132633e-01 8.51391912e-01 9.09877479e-01 9.25852716e-01 9.03079808e-01 9.56679761e-01 9.39670146e-01 9.28437293e-01 9.23326015e-01 9.33456600e-01 9.25169468e-01 9.26492274e-01 9.34282303e-01 9.40422833e-01 9.43953454e-01 9.46473122e-01 9.43634629e-01 9.25607443e-01 8.79284859e-01 7.92770445e-01 6.67984068e-01 5.26052117e-01 3.49924088e-01 3.14591278e-04 1.97047717e-04 6.51287381e-04 2.88176894e-01 3.42739761e-01 3.47496152e-01 3.37361634e-01 4.62076187e-01 6.66603684e-01 8.46797526e-01 9.14479971e-01 9.31390345e-01 9.05111313e-01 9.21891630e-01 9.39861894e-01 7.68966973e-01 2.71116048e-01 5.00526667e-01 8.43358696e-01 9.40579593e-01 9.38638210e-01 9.42975163e-01 9.46549892e-01 9.42556620e-01 9.41112041e-01 9.41335797e-01 9.33631241e-01 9.05699611e-01 8.40021312e-01 7.20814526e-01 5.41737556e-01 9.92264017e-04 2.06258293e-04 3.04255751e-04 2.61667401e-01 3.87404293e-01 3.30652177e-01 2.99241513e-01 3.89674604e-01 6.43588543e-01 8.46893668e-01 9.22052741e-01 9.38567877e-01 9.09173310e-01 8.97347808e-01 9.18736577e-01 3.11206073e-01 1.21501265e-02 1.30368480e-02 2.76194084e-02 1.38794050e-01 8.82049799e-01 9.55474138e-01 9.53745127e-01 9.47580278e-01 9.39098716e-01 9.35549974e-01 9.35861468e-01 9.33614075e-01 9.18116331e-01 8.70029151e-01 7.53122747e-01 2.70294935e-01 2.22615563e-04 2.08760306e-04 8.82332921e-02 4.50093240e-01 2.87582994e-01 1.91649765e-01 2.93600470e-01 6.02820456e-01 8.51438105e-01 9.30731595e-01 9.46249485e-01 9.14721608e-01 8.90582561e-01 9.09231067e-01 2.89656490e-01 6.54623611e-03 5.78844734e-03 8.05268809e-03 2.31230184e-02 5.94814360e-01 9.48577344e-01 9.54706013e-01 9.50316668e-01 9.42284405e-01 9.36521292e-01 9.33144927e-01 9.32356358e-01 9.32187200e-01 9.25900400e-01 8.99374962e-01 7.62108922e-01 4.59032104e-04 2.12946965e-04 5.68731746e-04 4.31513578e-01 2.72405952e-01 8.21218863e-02 8.13193470e-02 5.28611600e-01 8.65815818e-01 9.39566076e-01 9.53241646e-01 9.21180725e-01 8.89494419e-01 9.04670596e-01 4.01898861e-01 4.03502351e-03 2.87550152e-03 5.89813665e-03 2.90813558e-02 8.77499402e-01 9.46766853e-01 9.37469304e-01 9.34090912e-01 9.36576307e-01 9.40217912e-01 9.40107286e-01 9.36957181e-01 9.33402359e-01 9.31651354e-01 9.30994928e-01 9.21731293e-01 3.77093069e-03 2.52450816e-04 2.62925401e-04 6.61272332e-02 3.10629129e-01 4.57002558e-02 1.64743662e-02 1.29179701e-01 8.94527137e-01 9.49272752e-01 9.59031880e-01 9.28128839e-01 8.88592839e-01 9.02415097e-01 5.32094002e-01 2.25715106e-03 1.48422155e-03 3.88904102e-03 3.85100514e-01 9.79304671e-01 9.29631650e-01 8.67474854e-01 8.42093110e-01 8.77557516e-01 9.19066608e-01 9.41377759e-01 9.47998881e-01 9.45398152e-01 9.38251615e-01 9.31881070e-01 9.28541243e-01 9.08405602e-01 6.68677327e-04 2.48188619e-04 4.41983255e-04 4.59681690e-01 5.52377328e-02 8.11145175e-03 1.20620281e-02 8.18887711e-01 9.59914446e-01 9.64481771e-01 9.35869098e-01 8.86179030e-01 8.99105370e-01 5.97351134e-01 1.44351867e-03 9.80661367e-04 2.72167195e-03 9.77715969e-01 9.63264406e-01 8.40477824e-01 6.21933937e-01 5.91829598e-01 7.05671132e-01 8.29817891e-01 9.06579137e-01 9.43181872e-01 9.55499887e-01 9.54229832e-01 9.44955051e-01 9.35534298e-01 9.38354433e-01 2.08425317e-02 4.30444197e-04 3.36673809e-04 8.45301431e-04 2.31071204e-01 7.86617212e-03 6.66746125e-03 5.16638160e-02 9.67323601e-01 9.70458269e-01 9.46617544e-01 8.82600904e-01 8.93675327e-01 6.28705263e-01 1.11287646e-03 7.66576675e-04 2.11168127e-03 9.90651965e-01 9.54447031e-01 5.35169482e-01 3.43474030e-01 3.76989543e-01 5.09529114e-01 6.73468947e-01 8.09145689e-01 8.97447765e-01 9.43470716e-01 9.60720658e-01 9.60760355e-01 9.50354040e-01 9.69149172e-01 9.50076163e-01 3.22683062e-03 3.94558447e-04 3.96988966e-04 1.58195314e-03 9.47154872e-03 5.45162428e-03 9.08997282e-03 9.66647685e-01 9.75871742e-01 9.61123109e-01 8.78410637e-01 8.86556923e-01 6.49163663e-01 1.00553886e-03 6.51054957e-04 1.67699333e-03 9.97422874e-01 7.55484164e-01 2.70634025e-01 3.77539307e-01 3.54126871e-01 4.24778581e-01 5.40680647e-01 6.73037171e-01 7.95988858e-01 8.88616323e-01 9.42558169e-01 9.63940740e-01 9.63449001e-01 9.61986959e-01 9.82529044e-01 9.60533261e-01 1.91150664e-03 5.74159320e-04 8.81574000e-04 2.76010530e-03 3.78713803e-03 6.46000030e-03 9.55979705e-01 9.80580866e-01 9.74047899e-01 8.73960972e-01 8.78469706e-01 6.64319634e-01 1.02168997e-03 5.81311178e-04 1.33466115e-03 9.97078657e-01 2.49359552e-02 2.48641819e-02 6.11941397e-01 5.88117838e-01 5.12449205e-01 5.20763934e-01 5.84953845e-01 6.82465315e-01 7.90022373e-01 8.83084834e-01 9.42455947e-01 9.66248930e-01 9.63773131e-01 9.80074406e-01 9.87375081e-01 9.21281219e-01 2.71969219e-03 1.53600401e-03 2.37321574e-03 2.73052254e-03 3.98272229e-03 1.16447665e-01 9.89944100e-01 9.81747389e-01 8.69620383e-01 8.70392203e-01 6.74657285e-01 1.15175301e-03 5.47621457e-04 1.02807488e-03 9.94061053e-01 1.16589498e-02 3.31572955e-03 3.11536761e-03 4.04906273e-01 6.25955403e-01 5.95420122e-01 5.74745417e-01 6.13418996e-01 6.91635132e-01 7.89914787e-01 8.82321417e-01 9.43876326e-01 9.67270553e-01 9.64715183e-01 9.87718046e-01 9.92434204e-01 5.06929398e-01 6.04648795e-03 3.95981129e-03 2.88321543e-03 3.08703119e-03 9.18347947e-03 9.93181765e-01 9.87927616e-01 8.65418911e-01 8.63035858e-01 6.83134615e-01 1.44404033e-03 5.57492487e-04 8.22269532e-04 9.02703941e-01 9.84136045e-01 1.99095975e-03 5.34096558e-04 8.47286719e-04 1.38558382e-02 4.47196364e-01 5.68473577e-01 5.81395745e-01 6.18961871e-01 6.94644153e-01 7.90625095e-01 8.83833408e-01 9.44971204e-01 9.65496600e-01 9.68505025e-01 9.90618825e-01 9.94594812e-01 9.17758107e-01 2.77200136e-02 4.80812415e-03 2.76834867e-03 6.96842978e-03 9.92648542e-01 9.90062296e-01 8.60602260e-01 8.56058538e-01 6.94991052e-01 2.05306080e-03 6.53108931e-04 7.00967095e-04 3.76791134e-02 9.59395170e-01 9.87275124e-01 9.73951537e-04 3.54719319e-04 4.31314198e-04 1.28561410e-03 8.67039412e-02 4.49249625e-01 5.41094959e-01 6.03730023e-01 6.95962667e-01 7.99855590e-01 8.86192977e-01 9.44670022e-01 9.59907115e-01 9.73756373e-01 9.90633309e-01 9.94419694e-01 9.88219619e-01 1.52960569e-01 4.22182167e-03 5.06053772e-03 9.92399871e-01 9.90682542e-01 8.53712380e-01 8.48057210e-01 7.11375415e-01 3.19791283e-03 9.69789515e-04 7.45656027e-04 4.45333915e-03 8.19510370e-02 9.76400197e-01 9.82071638e-01 1.25434832e-03 3.46851331e-04 2.94918369e-04 3.99095938e-04 2.52142968e-03 1.22755952e-01 3.94790411e-01 5.36880851e-01 6.58738136e-01 7.94019401e-01 8.95991027e-01 9.44193065e-01 9.51090634e-01 9.81059790e-01 9.89036322e-01 9.94636357e-01 9.92867768e-01 1.93841718e-02 5.83098549e-03 9.85744298e-01 9.91322696e-01 8.42838049e-01 8.36803079e-01 7.35259354e-01 4.77910740e-03 1.70282112e-03 1.21314090e-03 2.79230135e-03 1.23981480e-02 1.58061877e-01 9.76516664e-01 9.70762253e-01 3.27619561e-03 3.70773661e-04 2.45899224e-04 2.48631230e-04 4.04699938e-04 1.38537085e-03 2.22589467e-02 1.69817820e-01 4.39651161e-01 7.34090030e-01 8.98188412e-01 9.40280914e-01 9.45341587e-01 9.86114502e-01 9.89000380e-01 9.95975494e-01 9.95582759e-01 8.61390769e-01 9.93141890e-01 9.93002713e-01 8.26344192e-01 8.18417907e-01 7.71725595e-01 6.46355189e-03 2.87668034e-03 2.36196513e-03 3.47316754e-03 8.38862173e-03 2.65753120e-02 4.92456824e-01 9.55647230e-01 9.16297615e-01 1.32519603e-01 6.55315933e-04 2.73866113e-04 2.29823534e-04 2.26506862e-04 2.41427784e-04 2.81427638e-04 3.93476686e-04 7.15972157e-04 2.10081530e-03 4.29634809e-01 8.92830610e-01 9.52726066e-01 9.85117555e-01 9.95522797e-01 9.96860027e-01 9.96897817e-01 9.97213483e-01 9.93894398e-01 8.05070937e-01 7.85198689e-01 8.13616991e-01 9.70205944e-03 4.30693012e-03 3.74640152e-03 4.79708938e-03 9.98723134e-03 2.26731710e-02 1.22530766e-01 7.83449173e-01 9.39024389e-01 9.31693017e-01 7.16618478e-01 2.11000373e-03 5.01323317e-04 2.82234570e-04 2.28384029e-04 2.06559635e-04 1.95761895e-04 1.89996630e-04 1.88003731e-04 2.00513430e-04 2.33627929e-04 3.16883990e-04 5.41219662e-04 5.78164589e-03 9.85334814e-01 9.94207382e-01 9.95079398e-01 9.92680013e-01 7.85078704e-01 7.26759136e-01 8.22024405e-01 2.89205499e-02 6.06172951e-03 4.95387940e-03 5.85525716e-03 1.28927175e-02 3.05967927e-02 1.07544452e-01 5.21454573e-01 8.46557021e-01 8.94861162e-01 8.38244021e-01 3.65462750e-01 1.34197567e-02 2.28648447e-03 9.71303147e-04 5.14975225e-04 3.09165829e-04 2.29810510e-04 1.95968692e-04 1.83904267e-04 1.82118558e-04 1.77201000e-04 1.67814535e-04 1.58783121e-04 2.03720629e-04 2.95446790e-03 9.41556215e-01 9.62722301e-01 7.75421739e-01 6.63802922e-01 7.43356109e-01 1.86031520e-01 8.36805813e-03 6.37845276e-03 6.88431785e-03 1.28539437e-02 3.64539139e-02 1.19253583e-01 4.24054027e-01 7.43001938e-01 8.37559223e-01 8.09908092e-01 4.35795605e-01 5.43545708e-02 2.13988032e-02 2.60902774e-02 5.61377555e-02 5.69797345e-02 1.76599510e-02 2.70669069e-03 7.46214879e-04 3.95702460e-04 2.57170876e-04 1.98099355e-04 1.62169221e-04 1.47854560e-04 1.52925873e-04 3.02537344e-04 1.03985406e-02 7.86396325e-01 6.53622866e-01 6.22335970e-01 3.57055575e-01 1.50826843e-02 8.76429491e-03 8.34722817e-03 1.20486794e-02 4.01513390e-02 1.48345307e-01 4.36776042e-01 6.90571666e-01 7.81888843e-01 7.92124569e-01 6.56065226e-01 2.29870752e-01 6.68052360e-02 6.46972209e-02 1.52077481e-01 3.80593061e-01 6.21007979e-01 7.45525301e-01 7.92439878e-01 8.15394104e-01 8.22759807e-01 7.88001895e-01 7.61488557e-01 3.30394076e-04 1.56254537e-04 1.46366219e-04 1.88221733e-04 8.75817120e-01 8.01994085e-01 7.58137822e-01 5.09957790e-01 2.03494266e-01 2.02701688e-02 1.37872444e-02 2.71724295e-02 1.24108642e-01 4.48938847e-01 7.34750509e-01 8.37828040e-01 8.60430479e-01 8.53891373e-01 8.19728136e-01 7.06032276e-01 5.09022832e-01 4.13806200e-01 3.98004860e-01 3.13534617e-01 2.02213883e-01 1.38207912e-01 1.22207247e-01 1.32412389e-01 1.66877136e-01 2.06597626e-01 1.92142755e-01 3.67793798e-01 7.00420082e-01 2.40592926e-04 1.93801359e-04 9.77032721e-01 9.67773139e-01 9.65915620e-01 9.58827257e-01 9.03204083e-01 9.33859229e-01 9.07917500e-01 9.46273685e-01 8.75074387e-01 8.73431325e-01 9.09105241e-01 9.26067293e-01 9.31752205e-01 9.36922967e-01 9.41264629e-01 9.27013516e-01 8.52737725e-01 6.35831475e-01 3.08047265e-01 1.17001414e-01 5.71728908e-02 3.80839929e-02 3.11163701e-02 2.89130881e-02 2.87352093e-02 2.66455784e-02 1.69745497e-02 8.29347409e-03 5.52035216e-03 7.87508488e-02 9.94751155e-01 9.63418186e-01 9.85742092e-01 9.82055724e-01 9.77981627e-01 9.64814544e-01 9.62906182e-01 9.74191666e-01 9.78940487e-01 9.81623828e-01 9.85168338e-01 9.86726344e-01 9.86922324e-01 9.86169338e-01 9.84023809e-01 9.78615105e-01 9.65744674e-01 9.30598378e-01 8.30202460e-01 6.10983193e-01 3.52414846e-01 1.98262170e-01 1.33538678e-01 1.09022170e-01 1.08000740e-01 1.08644612e-01 1.03758529e-01 7.80628771e-02 3.01357210e-02 7.21560465e-03 7.71053135e-03 2.33455617e-02 
