# vtk DataFile Version 2.0
results/iter6.vtk, Created by Freefem++ 
ASCII
DATASET UNSTRUCTURED_GRID
POINTS 961 float
0 0 0
0.033333333 0 0
0.066666667 0 0
0.1 0 0
0.13333333 0 0
0.16666667 0 0
0.2 0 0
0.23333333 0 0
0.26666667 0 0
0.3 0 0
0.33333333 0 0
0.36666667 0 0
0.4 0 0
0.43333333 0 0
0.46666667 0 0
0.5 0 0
0.53333333 0 0
0.56666667 0 0
0.6 0 0
0.63333333 0 0
0.66666667 0 0
0.7 0 0
0.73333333 0 0
0.76666667 0 0
0.8 0 0
0.83333333 0 0
0.86666667 0 0
0.9 0 0
0.93333333 0 0
0.96666667 0 0
1 0 0
0 0.033333333 0
0.033333333 0.033333333 0
0.066666667 0.033333333 0
0.1 0.033333333 0
0.13333333 0.033333333 0
0.16666667 0.033333333 0
0.2 0.033333333 0
0.23333333 0.033333333 0
0.26666667 0.033333333 0
0.3 0.033333333 0
0.33333333 0.033333333 0
0.36666667 0.033333333 0
0.4 0.033333333 0
0.43333333 0.033333333 0
0.46666667 0.033333333 0
0.5 0.033333333 0
0.53333333 0.033333333 0
0.56666667 0.033333333 0
0.6 0.033333333 0
0.63333333 0.033333333 0
0.66666667 0.033333333 0
0.7 0.033333333 0
0.73333333 0.033333333 0
0.76666667 0.033333333 0
0.8 0.033333333 0
0.83333333 0.033333333 0
0.86666667 0.033333333 0
0.9 0.033333333 0
0.93333333 0.033333333 0
0.96666667 0.033333333 0
1 0.033333333 0
0 0.066666667 0
0.033333333 0.066666667 0
0.066666667 0.066666667 0
0.1 0.066666667 0
0.13333333 0.066666667 0
0.16666667 0.066666667 0
0.2 0.066666667 0
0.23333333 0.066666667 0
0.26666667 0.066666667 0
0.3 0.066666667 0
0.33333333 0.066666667 0
0.36666667 0.066666667 0
0.4 0.066666667 0
0.43333333 0.066666667 0
0.46666667 0.066666667 0
0.5 0.066666667 0
0.53333333 0.066666667 0
0.56666667 0.066666667 0
0.6 0.066666667 0
0.63333333 0.066666667 0
0.66666667 0.066666667 0
0.7 0.066666667 0
0.73333333 0.066666667 0
0.76666667 0.066666667 0
0.8 0.066666667 0
0.83333333 0.066666667 0
0.86666667 0.066666667 0
0.9 0.066666667 0
0.93333333 0.066666667 0
0.96666667 0.066666667 0
1 0.066666667 0
0 0.1 0
0.033333333 0.1 0
0.066666667 0.1 0
0.1 0.1 0
0.13333333 0.1 0
0.16666667 0.1 0
0.2 0.1 0
0.23333333 0.1 0
0.26666667 0.1 0
0.3 0.1 0
0.33333333 0.1 0
0.36666667 0.1 0
0.4 0.1 0
0.43333333 0.1 0
0.46666667 0.1 0
0.5 0.1 0
0.53333333 0.1 0
0.56666667 0.1 0
0.6 0.1 0
0.63333333 0.1 0
0.66666667 0.1 0
0.7 0.1 0
0.73333333 0.1 0
0.76666667 0.1 0
0.8 0.1 0
0.83333333 0.1 0
0.86666667 0.1 0
0.9 0.1 0
0.93333333 0.1 0
0.96666667 0.1 0
1 0.1 0
0 0.13333333 0
0.033333333 0.13333333 0
0.066666667 0.13333333 0
0.1 0.13333333 0
0.13333333 0.13333333 0
0.16666667 0.13333333 0
0.2 0.13333333 0
0.23333333 0.13333333 0
0.26666667 0.13333333 0
0.3 0.13333333 0
0.33333333 0.13333333 0
0.36666667 0.13333333 0
0.4 0.13333333 0
0.43333333 0.13333333 0
0.46666667 0.13333333 0
0.5 0.13333333 0
0.53333333 0.13333333 0
0.56666667 0.13333333 0
0.6 0.13333333 0
0.63333333 0.13333333 0
0.66666667 0.13333333 0
0.7 0.13333333 0
0.73333333 0.13333333 0
0.76666667 0.13333333 0
0.8 0.13333333 0
0.83333333 0.13333333 0
0.86666667 0.13333333 0
0.9 0.13333333 0
0.93333333 0.13333333 0
0.96666667 0.13333333 0
1 0.13333333 0
0 0.16666667 0
0.033333333 0.16666667 0
0.066666667 0.16666667 0
0.1 0.16666667 0
0.13333333 0.16666667 0
0.16666667 0.16666667 0
0.2 0.16666667 0
0.23333333 0.16666667 0
0.26666667 0.16666667 0
0.3 0.16666667 0
0.33333333 0.16666667 0
0.36666667 0.16666667 0
0.4 0.16666667 0
0.43333333 0.16666667 0
0.46666667 0.16666667 0
0.5 0.16666667 0
0.53333333 0.16666667 0
0.56666667 0.16666667 0
0.6 0.16666667 0
0.63333333 0.16666667 0
0.66666667 0.16666667 0
0.7 0.16666667 0
0.73333333 0.16666667 0
0.76666667 0.16666667 0
0.8 0.16666667 0
0.83333333 0.16666667 0
0.86666667 0.16666667 0
0.9 0.16666667 0
0.93333333 0.16666667 0
0.96666667 0.16666667 0
1 0.16666667 0
0 0.2 0
0.033333333 0.2 0
0.066666667 0.2 0
0.1 0.2 0
0.13333333 0.2 0
0.16666667 0.2 0
0.2 0.2 0
0.23333333 0.2 0
0.26666667 0.2 0
0.3 0.2 0
0.33333333 0.2 0
0.36666667 0.2 0
0.4 0.2 0
0.43333333 0.2 0
0.46666667 0.2 0
0.5 0.2 0
0.53333333 0.2 0
0.56666667 0.2 0
0.6 0.2 0
0.63333333 0.2 0
0.66666667 0.2 0
0.7 0.2 0
0.73333333 0.2 0
0.76666667 0.2 0
0.8 0.2 0
0.83333333 0.2 0
0.86666667 0.2 0
0.9 0.2 0
0.93333333 0.2 0
0.96666667 0.2 0
1 0.2 0
0 0.23333333 0
0.033333333 0.23333333 0
0.066666667 0.23333333 0
0.1 0.23333333 0
0.13333333 0.23333333 0
0.16666667 0.23333333 0
0.2 0.23333333 0
0.23333333 0.23333333 0
0.26666667 0.23333333 0
0.3 0.23333333 0
0.33333333 0.23333333 0
0.36666667 0.23333333 0
0.4 0.23333333 0
0.43333333 0.23333333 0
0.46666667 0.23333333 0
0.5 0.23333333 0
0.53333333 0.23333333 0
0.56666667 0.23333333 0
0.6 0.23333333 0
0.63333333 0.23333333 0
0.66666667 0.23333333 0
0.7 0.23333333 0
0.73333333 0.23333333 0
0.76666667 0.23333333 0
0.8 0.23333333 0
0.83333333 0.23333333 0
0.86666667 0.23333333 0
0.9 0.23333333 0
0.93333333 0.23333333 0
0.96666667 0.23333333 0
1 0.23333333 0
0 0.26666667 0
0.033333333 0.26666667 0
0.066666667 0.26666667 0
0.1 0.26666667 0
0.13333333 0.26666667 0
0.16666667 0.26666667 0
0.2 0.26666667 0
0.23333333 0.26666667 0
0.26666667 0.26666667 0
0.3 0.26666667 0
0.33333333 0.26666667 0
0.36666667 0.26666667 0
0.4 0.26666667 0
0.43333333 0.26666667 0
0.46666667 0.26666667 0
0.5 0.26666667 0
0.53333333 0.26666667 0
0.56666667 0.26666667 0
0.6 0.26666667 0
0.63333333 0.26666667 0
0.66666667 0.26666667 0
0.7 0.26666667 0
0.73333333 0.26666667 0
0.76666667 0.26666667 0
0.8 0.26666667 0
0.83333333 0.26666667 0
0.86666667 0.26666667 0
0.9 0.26666667 0
0.93333333 0.26666667 0
0.96666667 0.26666667 0
1 0.26666667 0
0 0.3 0
0.033333333 0.3 0
0.066666667 0.3 0
0.1 0.3 0
0.13333333 0.3 0
0.16666667 0.3 0
0.2 0.3 0
0.23333333 0.3 0
0.26666667 0.3 0
0.3 0.3 0
0.33333333 0.3 0
0.36666667 0.3 0
0.4 0.3 0
0.43333333 0.3 0
0.46666667 0.3 0
0.5 0.3 0
0.53333333 0.3 0
0.56666667 0.3 0
0.6 0.3 0
0.63333333 0.3 0
0.66666667 0.3 0
0.7 0.3 0
0.73333333 0.3 0
0.76666667 0.3 0
0.8 0.3 0
0.83333333 0.3 0
0.86666667 0.3 0
0.9 0.3 0
0.93333333 0.3 0
0.96666667 0.3 0
1 0.3 0
0 0.33333333 0
0.033333333 0.33333333 0
0.066666667 0.33333333 0
0.1 0.33333333 0
0.13333333 0.33333333 0
0.16666667 0.33333333 0
0.2 0.33333333 0
0.23333333 0.33333333 0
0.26666667 0.33333333 0
0.3 0.33333333 0
0.33333333 0.33333333 0
0.36666667 0.33333333 0
0.4 0.33333333 0
0.43333333 0.33333333 0
0.46666667 0.33333333 0
0.5 0.33333333 0
0.53333333 0.33333333 0
0.56666667 0.33333333 0
0.6 0.33333333 0
0.63333333 0.33333333 0
0.66666667 0.33333333 0
0.7 0.33333333 0
0.73333333 0.33333333 0
0.76666667 0.33333333 0
0.8 0.33333333 0
0.83333333 0.33333333 0
0.86666667 0.33333333 0
0.9 0.33333333 0
0.93333333 0.33333333 0
0.96666667 0.33333333 0
1 0.33333333 0
0 0.36666667 0
0.033333333 0.36666667 0
0.066666667 0.36666667 0
0.1 0.36666667 0
0.13333333 0.36666667 0
0.16666667 0.36666667 0
0.2 0.36666667 0
0.23333333 0.36666667 0
0.26666667 0.36666667 0
0.3 0.36666667 0
0.33333333 0.36666667 0
0.36666667 0.36666667 0
0.4 0.36666667 0
0.43333333 0.36666667 0
0.46666667 0.36666667 0
0.5 0.36666667 0
0.53333333 0.36666667 0
0.56666667 0.36666667 0
0.6 0.36666667 0
0.63333333 0.36666667 0
0.66666667 0.36666667 0
0.7 0.36666667 0
0.73333333 0.36666667 0
0.76666667 0.36666667 0
0.8 0.36666667 0
0.83333333 0.36666667 0
0.86666667 0.36666667 0
0.9 0.36666667 0
0.93333333 0.36666667 0
0.96666667 0.36666667 0
1 0.36666667 0
0 0.4 0
0.033333333 0.4 0
0.066666667 0.4 0
0.1 0.4 0
0.13333333 0.4 0
0.16666667 0.4 0
0.2 0.4 0
0.23333333 0.4 0
0.26666667 0.4 0
0.3 0.4 0
0.33333333 0.4 0
0.36666667 0.4 0
0.4 0.4 0
0.43333333 0.4 0
0.46666667 0.4 0
0.5 0.4 0
0.53333333 0.4 0
0.56666667 0.4 0
0.6 0.4 0
0.63333333 0.4 0
0.66666667 0.4 0
0.7 0.4 0
0.73333333 0.4 0
0.76666667 0.4 0
0.8 0.4 0
0.83333333 0.4 0
0.86666667 0.4 0
0.9 0.4 0
0.93333333 0.4 0
0.96666667 0.4 0
1 0.4 0
0 0.43333333 0
0.033333333 0.43333333 0
0.066666667 0.43333333 0
0.1 0.43333333 0
0.13333333 0.43333333 0
0.16666667 0.43333333 0
0.2 0.43333333 0
0.23333333 0.43333333 0
0.26666667 0.43333333 0
0.3 0.43333333 0
0.33333333 0.43333333 0
0.36666667 0.43333333 0
0.4 0.43333333 0
0.43333333 0.43333333 0
0.46666667 0.43333333 0
0.5 0.43333333 0
0.53333333 0.43333333 0
0.56666667 0.43333333 0
0.6 0.43333333 0
0.63333333 0.43333333 0
0.66666667 0.43333333 0
0.7 0.43333333 0
0.73333333 0.43333333 0
0.76666667 0.43333333 0
0.8 0.43333333 0
0.83333333 0.43333333 0
0.86666667 0.43333333 0
0.9 0.43333333 0
0.93333333 0.43333333 0
0.96666667 0.43333333 0
1 0.43333333 0
0 0.46666667 0
0.033333333 0.46666667 0
0.066666667 0.46666667 0
0.1 0.46666667 0
0.13333333 0.46666667 0
0.16666667 0.46666667 0
0.2 0.46666667 0
0.23333333 0.46666667 0
0.26666667 0.46666667 0
0.3 0.46666667 0
0.33333333 0.46666667 0
0.36666667 0.46666667 0
0.4 0.46666667 0
0.43333333 0.46666667 0
0.46666667 0.46666667 0
0.5 0.46666667 0
0.53333333 0.46666667 0
0.56666667 0.46666667 0
0.6 0.46666667 0
0.63333333 0.46666667 0
0.66666667 0.46666667 0
0.7 0.46666667 0
0.73333333 0.46666667 0
0.76666667 0.46666667 0
0.8 0.46666667 0
0.83333333 0.46666667 0
0.86666667 0.46666667 0
0.9 0.46666667 0
0.93333333 0.46666667 0
0.96666667 0.46666667 0
1 0.46666667 0
0 0.5 0
0.033333333 0.5 0
0.066666667 0.5 0
0.1 0.5 0
0.13333333 0.5 0
0.16666667 0.5 0
0.2 0.5 0
0.23333333 0.5 0
0.26666667 0.5 0
0.3 0.5 0
0.33333333 0.5 0
0.36666667 0.5 0
0.4 0.5 0
0.43333333 0.5 0
0.46666667 0.5 0
0.5 0.5 0
0.53333333 0.5 0
0.56666667 0.5 0
0.6 0.5 0
0.63333333 0.5 0
0.66666667 0.5 0
0.7 0.5 0
0.73333333 0.5 0
0.76666667 0.5 0
0.8 0.5 0
0.83333333 0.5 0
0.86666667 0.5 0
0.9 0.5 0
0.93333333 0.5 0
0.96666667 0.5 0
1 0.5 0
0 0.53333333 0
0.033333333 0.53333333 0
0.066666667 0.53333333 0
0.1 0.53333333 0
0.13333333 0.53333333 0
0.16666667 0.53333333 0
0.2 0.53333333 0
0.23333333 0.53333333 0
0.26666667 0.53333333 0
0.3 0.53333333 0
0.33333333 0.53333333 0
0.36666667 0.53333333 0
0.4 0.53333333 0
0.43333333 0.53333333 0
0.46666667 0.53333333 0
0.5 0.53333333 0
0.53333333 0.53333333 0
0.56666667 0.53333333 0
0.6 0.53333333 0
0.63333333 0.53333333 0
0.66666667 0.53333333 0
0.7 0.53333333 0
0.73333333 0.53333333 0
0.76666667 0.53333333 0
0.8 0.53333333 0
[...]
CELL_DATA 1920
Scalars  Label int 1
LOOKUP_TABLE FreeFempp_table
0
0
0
0
0
0
0
0
0
0
0
0
0
0
0
0
0
0
0
0
0
0
0
0
0
0
0
0
0
0
0
0
0
0
0
0
0
0
0
0
0
0
0
0
0
0
0
0
0
0
0
0
0
0
0
0
0
0
0
0
0
0
0
0
0
0
0
0
0
0
0
0
0
0
0
0
0
0
0
0
0
0
0
0
0
0
0
0
0
0
0
0
0
0
0
0
0
0
0
0
0
0
0
0
0
0
0
0
0
0
0
0
0
0
0
0
0
0
0
0
0
0
0
0
0
0
0
0
0
0
0
0
0
0
0
0
0
0
0
0
0
0
0
0
0
0
0
0
0
0
0
0
0
0
0
0
0
0
0
0
0
0
0
0
0
0
0
0
0
0
0
0
0
0
0
0
0
0
0
0
0
0
0
0
0
0
0
0
0
0
0
0
0
0
0
0
0
0
0
0
0
0
0
0
0
0
0
0
0
0
0
0
0
0
0
0
0
0
0
0
0
0
0
0
0
0
0
0
0
0
0
0
0
0
0
0
0
0
0
0
0
0
0
0
0
0
0
0
0
0
0
0
0
0
0
0
0
0
0
0
0
0
0
0
0
0
0
0
0
0
0
0
0
0
0
0
0
0
0
0
0
0
0
0
0
0
0
0
0
0
0
0
0
0
0
0
0
0
0
0
0
0
0
0
0
0
0
0
0
0
0
0
0
0
0
0
0
0
0
0
0
0
0
0
0
0
0
0
0
0
0
0
0
0
0
0
0
0
0
0
0
0
0
0
0
0
0
0
0
0
0
0
0
0
0
0
0
0
0
0
0
0
0
0
0
0
0
0
0
0
0
0
0
0
0
0
0
0
0
0
0
0
0
0
0
0
0
0
0
0
0
0
0
0
0
0
0
0
0
0
0
0
0
0
0
0
0
0
0
0
0
0
0
0
0
0
0
0
0
0
0
0
0
0
0
0
0
0
0
0
0
0
0
0
0
0
0
0
0
0
0
0
0
0
0
0
0
0
0
0
0
0
0
0
0
0
0
0
0
0
0
0
0
0
0
0
0
0
0
0
0
0
0
0
0
0
0
0
0
0
0
0
0
0
0
0
0
0
0
0
0
0
0
0
0
0
0
0
0
0
0
0
0
0
0
0
0
0
0
0
0
0
0
0
0
0
0
0
0
0
0
0
0
0
0
0
0
0
0
0
0
0
0
0
0
0
0
0
0
0
0
0
0
0
0
0
0
0
0
0
0
0
0
0
0
0
0
0
0
0
0
0
0
0
0
0
0
0
0
0
0
0
0
0
0
0
0
0
0
0
0
0
0
0
0
0
0
0
0
0
0
0
0
0
0
0
0
0
0
0
0
0
0
0
0
0
0
0
0
0
0
0
0
0
0
0
0
0
0
0
0
0
0
0
0
0
0
0
0
0
0
0
0
0
0
0
0
0
0
0
0
0
0
0
0
0
0
0
0
0
0
0
0
0
0
0
0
0
0
0
0
0
0
0
0
0
0
0
0
0
0
0
0
0
0
0
0
0
0
0
0
0
0
0
0
0
0
0
0
0
0
0
0
0
0
0
0
0
0
0
0
0
0
0
0
0
0
0
0
0
0
0
0
0
0
0
0
0
0
0
0
0
0
0
0
0
0
0
0
0
0
0
0
0
0
0
0
0
0
0
0
0
0
0
0
0
0
0
0
0
0
0
0
0
0
0
0
0
0
0
0
0
0
0
0
0
0
0
0
0
0
0
0
0
0
0
0
0
0
0
0
0
0
0
0
0
0
0
0
0
0
0
0
0
0
0
0
0
0
0
0
0
0
0
0
0
0
0
0
0
0
0
0
0
0
0
0
0
0
0
0
0
0
0
0
0
0
0
0
0
0
0
0
0
0
0
0
0
0
0
0
0
0
0
0
0
0
0
0
0
0
0
0
0
0
0
0
0
0
0
0
0
0
0
0
0
0
0
0
0
0
0
0
0
0
0
0
0
0
0
0
0
0
0
0
0
0
0
0
0
0
0
0
0
0
0
0
0
0
0
0
0
0
0
0
0
0
0
0
0
0
0
0
0
0
0
0
0
0
0
0
0
0
0
0
0
0
0
0
0
0
0
0
0
0
0
0
0
0
0
0
0
0
0
0
0
0
0
0
0
0
0
0
0
0
0
0
0
0
0
0
0
0
0
0
0
0
0
0
0
0
0
0
0
0
0
0
0
0
0
0
0
0
0
0
0
0
0
0
0
0
0
0
0
0
0
0
0
0
0
0
0
0
0
0
0
0
0
0
0
0
0
0
0
0
0
0
0
0
0
0
0
0
0
0
0
0
0
0
0
0
0
0
0
0
0
0
0
0
0
0
0
0
0
0
0
0
0
0
0
0
0
0
0
0
0
0
0
0
0
0
0
0
0
0
0
0
0
0
0
0
0
0
0
0
0
0
0
0
0
0
0
0
0
0
0
0
0
0
0
0
0
0
0
0
0
0
0
0
0
0
0
0
0
0
0
0
0
0
0
0
0
0
0
0
0
0
0
0
0
0
0
0
0
0
0
0
0
0
0
0
0
0
0
0
0
0
0
0
0
0
0
0
0
0
0
0
0
0
0
0
0
0
0
0
0
0
0
0
0
0
0
0
0
0
0
0
0
0
0
0
0
0
0
0
0
0
0
0
0
0
0
0
0
0
0
0
0
0
0
0
0
0
0
0
0
0
0
0
0
0
0
0
0
0
0
0
0
0
0
0
0
0
0
0
0
0
0
0
0
0
0
0
0
0
0
0
0
0
0
0
0
0
0
0
0
0
0
0
0
0
0
0
0
0
0
0
0
0
0
0
0
0
0
0
0
0
0
0
0
0
0
0
0
0
0
0
0
0
0
0
0
0
0
0
0
0
0
0
0
0
0
0
0
0
0
0
0
0
0
0
0
0
0
0
0
0
0
0
0
0
0
0
0
0
0
0
0
0
0
0
0
0
0
0
0
0
0
0
0
0
0
0
0
0
0
0
0
0
0
0
0
0
0
0
0
0
0
0
0
0
0
0
0
0
0
0
0
0
0
0
0
0
0
0
0
0
0
0
0
0
0
0
0
0
0
0
0
0
0
0
0
0
0
0
0
0
0
0
0
0
0
0
0
0
0
0
0
0
0
0
0
0
0
0
0
0
0
0
0
0
0
0
0
0
0
0
0
0
0
0
0
0
0
0
0
0
0
0
0
0
0
0
0
0
0
0
0
0
0
0
0
0
0
0
0
0
0
0
0
0
0
0
0
0
0
0
0
0
0
0
0
0
0
0
0
0
0
0
0
0
0
0
0
0
0
0
0
0
0
0
0
0
0
0
0
0
0
0
0
0
0
0
0
0
0
0
0
0
0
0
0
0
0
0
0
0
0
0
0
0
0
0
0
0
0
0
0
0
0
0
0
0
0
0
0
0
0
0
0
0
0
0
0
0
0
0
0
0
0
0
0
0
0
0
0
0
0
0
0
0
0
0
0
0
0
0
0
0
0
0
0
0
0
0
0
0
0
0
0
0
0
0
0
0
0
0
0
0
0
0
0
0
0
0
0
0
0
0
0
0
0
0
0
0
0
0
0
0
0
0
0
0
0
0
0
0
0
0
0
0
0
0
0
0
0
0
0
0
0
0
0
0
0
0
0
0
0
0
0
0
0
0
0
0
0
0
0
0
0
0
0
0
0
0
0
0
0
0
0
0
0
0
0
0
0
0
0
0
0
0
0
0
0
0
0
0
0
0
0
0
0
0
0
0
0
0
0
0
0
0
0
0
0
0
0
0
0
0
0
0
0
0
0
0
0
0
0
0
0
0
0
0
0
0
0
0
0
0
0
0
0
0
0
0
0
0
0
0
0
0
0
0
0
0
0
0
0
0
0
0
0
0
0
0
0
0
0
0
0
0
0
0
0
0
0
0
0
0
0
0
0
0
0
0
0
0
0
0
0
0
0
0
0
0
0
0
0
0
0
0
0
0
0
0
0
0
0
0
0
0
0
0
0
0
0
0
0
0
0
0
0
0
0
0
0
0
0
0
0
0
0
0
0
0
0
0
0
0
0
1
1
1
1
1
1
1
1
1
1
1
1
1
1
1
1
1
1
1
1
1
1
1
1
1
1
1
1
1
1
2
2
2
2
2
2
2
2
2
2
2
2
2
2
2
2
2
2
2
2
2
2
2
2
2
2
2
2
2
2
3
3
3
3
3
3
3
3
3
3
3
3
3
3
3
3
3
3
3
3
3
3
3
3
3
3
3
3
3
3
4
4
4
4
4
4
4
4
4
4
4
4
4
4
4
4
4
4
4
4
4
4
4
4
4
4
4
4
4
4

LOOKUP_TABLE FreeFempp_table 5
1.00000000 0.00000000 0.00000000 1.00000000
1.00000000 1.00000000 0.00000000 1.00000000
1.00000000 0.00000000 1.00000000 1.00000000
0.00000000 1.00000000 0.00000000 1.00000000
0.00000000 1.00000000 1.00000000 1.00000000

POINT_DATA 961
FIELD FieldData 1
Density 1 961 float
7.66050458e-01 7.04356551e-01 6.99932575e-01 6.60678148e-01 6.19962513e-01 6.18357897e-01 6.12409294e-01 5.78139007e-01 5.27373791e-01 4.67984200e-01 3.56035292e-01 1.97571531e-01 9.82435197e-02 1.17554545e-01 7.80386701e-02 3.19318622e-02 3.35070081e-02 7.37809017e-02 2.12286264e-01 4.16058809e-01 5.73262632e-01 6.68060541e-01 7.27211416e-01 7.72738397e-01 8.15348804e-01 8.55439365e-01 8.89134407e-01 9.13984120e-01 9.29837227e-01 9.37697709e-01 8.84460688e-01 6.27134383e-01 4.35531408e-01 4.65382457e-01 3.26743335e-01 2.94065803e-01 3.00187290e-01 3.31181139e-01 3.03220779e-01 2.50998914e-01 2.03090042e-01 1.37049943e-01 7.21836761e-02 4.99567837e-02 3.55416127e-02 2.13118326e-02 1.54950852e-02 1.37694115e-02 2.53331847e-02 6.30362928e-02 1.42690301e-01 2.69092619e-01 4.13554490e-01 5.41310251e-01 6.50125802e-01 7.51568019e-01 8.40437829e-01 9.03805375e-01 9.41217184e-01 9.60264921e-01 9.68897820e-01 9.37991142e-01 1.39108990e-04 1.32755711e-04 1.23328151e-04 1.26995044e-04 1.61232267e-04 4.96227061e-03 3.34754944e-01 3.86086136e-01 3.28370541e-01 2.67926991e-01 1.73536092e-01 8.00841600e-02 5.86416870e-02 3.67926173e-02 1.50071299e-02 1.18634878e-02 1.51428087e-02 2.84091979e-02 7.07005039e-02 1.54995143e-01 2.70104438e-01 3.90655190e-01 4.94403720e-01 5.89917183e-01 6.97613537e-01 8.08172345e-01 8.89241576e-01 9.34441090e-01 9.56149459e-01 9.65585530e-01 9.34109330e-01 1.58512907e-04 1.37124502e-04 1.29043794e-04 1.20029305e-04 1.19629862e-04 1.19532946e-04 1.22926605e-04 1.24425904e-04 1.26249099e-04 1.28400541e-04 1.29221749e-04 1.29074833e-04 1.28357555e-04 1.29925858e-04 1.42280231e-04 1.99437622e-04 1.83605216e-02 4.13007922e-02 9.09034163e-02 1.69654533e-01 2.64126092e-01 3.60364109e-01 4.39365923e-01 5.14304161e-01 6.20888710e-01 7.57754385e-01 8.65810335e-01 9.23476696e-01 9.49953556e-01 9.60992157e-01 9.28778470e-01 8.44024181e-01 7.49900758e-01 6.95519030e-01 1.67187098e-02 1.97883419e-04 1.28053027e-04 1.23450125e-04 1.23510123e-04 1.25227554e-04 1.27238280e-04 1.28672691e-04 1.29176638e-04 1.28504485e-04 1.26750849e-04 1.26232961e-04 1.25633349e-04 1.21914491e-04 6.91960827e-02 1.30118459e-01 1.82281524e-01 2.50353754e-01 3.24817538e-01 3.81497622e-01 4.31199640e-01 5.26710391e-01 6.89856052e-01 8.36465478e-01 9.10721540e-01 9.43055987e-01 9.56017196e-01 9.23174143e-01 9.29168165e-01 9.49234188e-01 9.45122182e-01 9.44188893e-01 9.27482545e-01 8.56638908e-01 7.73713589e-01 6.85588598e-01 6.03529930e-01 5.10261774e-01 3.97578329e-01 2.65176952e-01 6.16387539e-02 8.56176484e-03 6.73572009e-04 1.78132890e-04 1.16419658e-04 1.15266863e-04 1.62539989e-01 2.01871917e-01 2.41396457e-01 2.98195660e-01 3.30716342e-01 3.50411206e-01 4.26809937e-01 6.08147204e-01 8.03526163e-01 8.98034692e-01 9.36192513e-01 9.51076269e-01 9.17599678e-01 9.46686029e-01 9.82208252e-01 9.79283452e-01 9.77246284e-01 9.77119923e-01 9.70962644e-01 9.59702969e-01 9.40949559e-01 9.09121692e-01 8.64514351e-01 8.05568516e-01 7.20717251e-01 6.08774841e-01 4.42092419e-01 2.94072688e-01 2.10555121e-01 8.29627365e-02 1.16306292e-04 1.16461481e-04 1.85714915e-01 2.43207395e-01 2.80116975e-01 2.82533407e-01 2.73889512e-01 3.32275122e-01 5.21814883e-01 7.70971656e-01 8.88471425e-01 9.30664778e-01 9.46983695e-01 9.12705839e-01 9.50484991e-01 9.88053322e-01 9.86454606e-01 9.85055208e-01 9.84224379e-01 9.83371258e-01 9.81251001e-01 9.77422476e-01 9.71520305e-01 9.60946202e-01 9.39220369e-01 8.97914648e-01 8.37472022e-01 7.32180595e-01 5.73581636e-01 4.30670619e-01 3.32462519e-01 8.68694037e-02 1.18498414e-04 1.24433995e-04 1.74397692e-01 2.61787176e-01 2.19688848e-01 1.86942145e-01 2.39286706e-01 4.38147455e-01 7.43336499e-01 8.84981036e-01 9.28131700e-01 9.44737136e-01 9.09234405e-01 9.41180348e-01 9.82309520e-01 9.79154587e-01 9.78925467e-01 9.81096089e-01 9.82612073e-01 9.83428359e-01 9.83947694e-01 9.83517647e-01 9.81264770e-01 9.76086140e-01 9.65408146e-01 9.42252457e-01 8.95254433e-01 8.07414770e-01 6.43495619e-01 4.54952866e-01 2.59902000e-01 2.08074140e-04 1.28652377e-04 2.00172042e-04 1.72926351e-01 1.69738561e-01 1.15093783e-01 1.46710500e-01 3.43797714e-01 7.18678594e-01 8.88663292e-01 9.29859281e-01 9.45153236e-01 9.07848537e-01 9.10383821e-01 9.59419429e-01 9.31574583e-01 7.93825269e-01 8.96541059e-01 9.52768147e-01 9.68912184e-01 9.77748752e-01 9.83932614e-01 9.85891104e-01 9.85243261e-01 9.82578754e-01 9.76990044e-01 9.64399815e-01 9.32898164e-01 8.62423897e-01 7.06484079e-01 4.43893015e-01 3.72731755e-03 1.35885406e-04 1.38695730e-04 1.81393810e-02 1.19026572e-01 7.09962770e-02 7.78560340e-02 2.19452113e-01 6.89769328e-01 8.96991253e-01 9.36000466e-01 9.48377192e-01 9.08955872e-01 8.88873637e-01 9.24375892e-01 6.43634021e-01 5.70321918e-01 6.17308319e-01 6.00254238e-01 6.45834148e-01 9.20399606e-01 9.67451453e-01 9.80763733e-01 9.85400915e-01 9.86640573e-01 9.85963225e-01 9.83191848e-01 9.75984693e-01 9.56021428e-01 9.00715530e-01 7.43944347e-01 1.34728909e-01 1.92063249e-04 1.35217881e-04 2.45845906e-04 3.58022600e-02 4.68405113e-02 4.72181663e-02 9.54302326e-02 6.00291133e-01 9.06581581e-01 9.45289731e-01 9.53861833e-01 9.12688732e-01 8.84301841e-01 8.86485159e-01 3.27425450e-01 1.75388947e-01 2.13308007e-01 3.72466058e-01 4.44548994e-01 7.81586170e-01 9.25111651e-01 9.58286643e-01 9.75982547e-01 9.83924210e-01 9.87175941e-01 9.87892389e-01 9.86744046e-01 9.82671201e-01 9.70495403e-01 9.29298043e-01 6.92341805e-01 2.75052572e-03 1.47544197e-04 1.51332308e-04 1.34792808e-03 2.66000461e-02 3.28178778e-02 4.58191298e-02 2.97663510e-01 9.14456487e-01 9.56422091e-01 9.60824668e-01 9.19105291e-01 8.88315737e-01 8.62318277e-01 1.21964172e-01 8.47665872e-03 1.04918396e-02 4.23120856e-02 1.50612190e-01 7.75662005e-01 8.89426231e-01 9.21420932e-01 9.51994896e-01 9.72346187e-01 9.82542336e-01 9.87027526e-01 9.88828659e-01 9.89033818e-01 9.87370312e-01 9.81315076e-01 9.49888647e-01 7.05472380e-02 3.08864808e-04 1.52023335e-04 2.02138239e-04 4.30050353e-03 1.72447953e-02 2.96992417e-02 6.72957972e-02 8.94144535e-01 9.67647731e-01 9.68432724e-01 9.27926064e-01 8.97732258e-01 8.69584620e-01 6.82203621e-02 6.13153970e-04 8.37371044e-04 4.38054139e-03 7.89692923e-02 6.39013827e-01 8.35031092e-01 8.76054704e-01 9.17537689e-01 9.43408132e-01 9.62717950e-01 9.76715922e-01 9.84482586e-01 9.88628089e-01 9.90646482e-01 9.91276324e-01 9.89972651e-01 9.15414155e-01 7.86073599e-03 1.97568341e-04 1.69995154e-04 3.31400253e-04 4.45885304e-03 1.45055559e-02 3.91244814e-02 6.34149313e-01 9.76096153e-01 9.75686312e-01 9.37987328e-01 9.07070696e-01 8.93525243e-01 7.82879218e-02 8.28218646e-04 9.50582908e-04 2.19952129e-03 1.04374684e-01 6.07182384e-01 7.62626767e-01 8.27285230e-01 8.79971802e-01 8.91475499e-01 8.90870571e-01 9.15759861e-01 9.55637634e-01 9.77116883e-01 9.87120330e-01 9.91968513e-01 9.94792402e-01 9.95171368e-01 1.21616378e-01 1.16522913e-03 2.00393173e-04 2.08696743e-04 6.06616493e-04 4.29805880e-03 1.81920622e-02 9.58494693e-02 9.80966866e-01 9.81585264e-01 9.47873056e-01 9.13634062e-01 9.11837816e-01 1.13576360e-01 1.40408287e-03 1.48009975e-03 3.14030121e-03 1.80464312e-01 5.72543025e-01 6.22591555e-01 7.83783913e-01 8.48037243e-01 7.20155954e-01 5.33226430e-01 5.62701941e-01 7.34758556e-01 9.01036084e-01 9.63607728e-01 9.84650970e-01 9.93108332e-01 9.97293830e-01 9.96195138e-01 3.96713689e-02 5.03742427e-04 2.25088676e-04 2.58005195e-04 7.33173394e-04 5.64837083e-03 5.95831275e-02 9.76631224e-01 9.87524331e-01 9.55147862e-01 9.17018771e-01 9.22102153e-01 1.54285565e-01 1.30208523e-03 8.59606138e-04 3.14414827e-03 3.41268599e-01 4.45472270e-01 4.82749790e-01 8.21838558e-01 7.96639025e-01 2.58484751e-01 5.11987954e-02 5.64229935e-02 1.57514453e-01 4.55410957e-01 8.25493574e-01 9.50998902e-01 9.83812273e-01 9.95030761e-01 9.98081505e-01 9.92055058e-01 1.71095282e-02 3.87731416e-04 2.55950610e-04 3.04614019e-04 9.22051666e-04 2.32733730e-02 9.66082752e-01 9.90369678e-01 9.60219204e-01 9.17246342e-01 9.26585495e-01 2.11757392e-01 1.36607909e-03 5.17285080e-04 1.57776044e-03 2.11343035e-01 3.08099926e-01 6.10191584e-01 9.27850962e-01 5.97519517e-01 1.81789398e-02 2.51919683e-03 5.15548280e-03 1.60937086e-02 7.29781464e-02 3.36243719e-01 8.00371706e-01 9.52262342e-01 9.87520397e-01 9.96245444e-01 9.98431027e-01 9.82596099e-01 9.62404162e-03 3.38085229e-04 2.94448662e-04 3.43022490e-04 5.78372320e-03 6.36160612e-01 9.94887531e-01 9.57024097e-01 9.14371252e-01 9.26498353e-01 2.75078505e-01 2.20307615e-03 4.29748121e-04 6.52160263e-04 8.54760781e-02 3.38554829e-01 8.79845023e-01 9.60208535e-01 2.28688434e-01 1.36086892e-03 1.03527878e-03 2.24179891e-03 6.27035089e-03 1.76943094e-02 7.63192475e-02 3.79507005e-01 8.45388532e-01 9.65870678e-01 9.91240859e-01 9.97441888e-01 9.98113334e-01 9.51845407e-01 3.97763588e-03 3.53769719e-04 3.73729068e-04 1.24732475e-03 6.07919753e-01 9.96572137e-01 9.50100720e-01 9.07927990e-01 9.21901822e-01 3.38945121e-01 6.34631095e-03 4.89033991e-04 3.94211616e-04 6.02478720e-03 1.38539240e-01 7.82278121e-01 9.75961745e-01 2.16426328e-01 1.16894860e-03 2.85403850e-03 1.22034142e-03 3.54063860e-03 8.89655482e-03 2.41668988e-02 1.26170993e-01 5.52146971e-01 9.09658492e-01 9.78553653e-01 9.93818283e-01 9.97232139e-01 9.97721434e-01 9.66316640e-01 9.62756458e-04 3.10132309e-04 9.94690927e-04 1.28996655e-01 9.96013820e-01 9.58893061e-01 8.98082078e-01 9.13305104e-01 4.08675313e-01 1.94012057e-02 9.84026236e-04 3.64370295e-04 6.68688794e-04 4.50350121e-02 6.69673920e-01 9.71207798e-01 6.65170372e-01 1.95827475e-03 7.57010188e-04 3.36298166e-04 5.60944318e-04 2.80689169e-03 8.32047127e-03 3.71893309e-02 2.88370162e-01 7.60731101e-01 9.49982345e-01 9.86633301e-01 9.95449245e-01 9.97345924e-01 9.96528745e-01 8.97652626e-01 9.14893812e-04 7.69179605e-04 4.40295227e-03 9.97520268e-01 9.58222330e-01 8.84723186e-01 9.00515139e-01 4.73694563e-01 3.87424454e-02 3.93066462e-03 5.04614844e-04 3.91171401e-04 1.77253003e-03 2.06504300e-01 9.57244992e-01 8.76302421e-01 3.10143661e-02 1.02661969e-03 2.77687475e-04 2.62335612e-04 3.44398402e-04 1.14537904e-03 6.76610554e-03 6.45135492e-02 5.05536556e-01 8.60159695e-01 9.66843128e-01 9.90594864e-01 9.96514380e-01 9.98223960e-01 9.96373415e-01 6.33486986e-01 2.89773307e-04 3.46118264e-04 9.32880759e-01 9.61235642e-01 8.67550492e-01 8.83311510e-01 5.33146739e-01 5.94155602e-02 1.25959488e-02 1.65098836e-03 4.13783098e-04 5.18317567e-04 7.21023371e-03 8.31847548e-01 9.70410764e-01 6.11135304e-01 1.28993737e-02 4.73317137e-04 2.27601879e-04 1.95721906e-04 2.11483624e-04 2.89896358e-04 1.73023983e-03 4.72541489e-02 4.37585682e-01 8.56651127e-01 9.67551470e-01 9.91234720e-01 9.97373998e-01 9.98793840e-01 9.98349965e-01 9.77284431e-01 5.86680055e-01 9.98634815e-01 9.82964694e-01 8.45515966e-01 8.61492097e-01 5.84274948e-01 8.11185688e-02 2.46797055e-02 7.94215035e-03 9.70100402e-04 4.49496729e-04 1.00747054e-03 6.07777126e-02 9.55072999e-01 9.62920725e-01 3.93807083e-01 1.26153277e-02 6.81725447e-04 2.48126918e-04 1.80848350e-04 1.55184622e-04 1.53836110e-04 1.94278560e-04 1.21093227e-03 2.63340715e-02 2.32266501e-01 8.68563294e-01 9.79311705e-01 9.96539056e-01 9.98745501e-01 9.99244571e-01 9.99057293e-01 9.99489129e-01 9.95664597e-01 8.19921076e-01 8.34238291e-01 6.51712298e-01 1.03609018e-01 3.84236537e-02 2.13199314e-02 5.92318643e-03 7.17076764e-04 6.43334643e-04 5.43104531e-03 7.01870143e-01 9.48632360e-01 9.64090049e-01 3.29279989e-01 1.87574849e-02 2.74553546e-03 5.51772013e-04 2.21850743e-04 1.52172172e-04 1.34807036e-04 1.28130298e-04 1.27103776e-04 1.28301195e-04 1.50027015e-04 2.34187828e-04 2.25544721e-03 5.73645055e-01 9.95148361e-01 9.98224378e-01 9.99128819e-01 9.95711088e-01 8.00934613e-01 7.92405903e-01 7.18999088e-01 1.06493928e-01 5.52487634e-02 4.19483669e-02 2.45477520e-02 3.03253089e-03 7.69043399e-04 1.65041687e-03 6.89874217e-02 7.95372307e-01 9.46876824e-01 9.28698421e-01 7.07839504e-02 1.11167906e-02 6.21341448e-03 4.18169191e-03 1.28246646e-03 2.36107036e-04 1.42584206e-04 1.30912871e-04 1.24231563e-04 1.24810496e-04 1.23061385e-04 1.26687766e-04 1.29190550e-04 1.19656448e-04 1.60703987e-01 9.58319962e-01 9.67664182e-01 7.94831395e-01 7.53413737e-01 7.30482876e-01 1.55887321e-01 8.55501145e-02 8.17317814e-02 7.02438280e-02 1.91153642e-02 1.93788682e-03 1.38261740e-03 6.63936650e-03 3.50594819e-01 8.69056225e-01 9.56900597e-01 4.40287888e-01 1.00069512e-02 5.36635378e-03 8.22673086e-03 1.46926604e-02 2.51227301e-02 3.31481397e-02 1.83173288e-02 2.49659480e-03 2.79627624e-04 1.52388922e-04 1.29814434e-04 1.46457969e-04 1.15003742e-04 1.11579706e-04 1.15704635e-04 1.35229595e-04 8.00671279e-01 7.42447197e-01 6.98741913e-01 3.15599263e-01 1.56946599e-01 1.87208027e-01 2.01645643e-01 1.02272615e-01 1.40467817e-02 2.77518155e-03 3.37420474e-03 6.75600767e-02 7.19011426e-01 9.08910334e-01 7.18090773e-01 2.08964273e-02 6.46313885e-03 1.56510230e-02 5.20202070e-02 1.29678205e-01 3.82547736e-01 6.05580449e-01 7.33957112e-01 8.65540445e-01 9.47296202e-01 9.53285396e-01 8.57629418e-01 7.22196519e-01 1.18861317e-04 1.25624909e-04 1.20492718e-04 8.72451544e-01 8.38075757e-01 8.08160543e-01 6.22815967e-01 3.79486501e-01 4.29210544e-01 5.19381404e-01 3.59539419e-01 1.41838089e-01 2.56395601e-02 1.20854303e-02 1.31780788e-01 7.10214853e-01 8.58307064e-01 7.51444399e-01 1.54228851e-01 3.24097946e-02 1.09337486e-01 3.80048543e-01 3.85301828e-01 2.66973972e-01 1.38312086e-01 8.40700045e-02 1.09002598e-01 3.11220706e-01 4.48063135e-01 1.61680914e-02 1.96283706e-03 1.41000703e-01 1.46900555e-02 7.64785474e-03 9.51714694e-01 9.73287582e-01 9.60171580e-01 9.36983943e-01 8.95561635e-01 9.23344612e-01 9.37868178e-01 9.57871556e-01 9.56644475e-01 9.53959048e-01 9.64941978e-01 9.88317668e-01 9.94077563e-01 9.93080139e-01 9.85079646e-01 9.24421668e-01 6.30446613e-01 5.07486343e-01 3.56368154e-01 1.42231375e-01 5.65341227e-02 2.66530998e-02 1.97190885e-02 3.30223776e-02 1.03359528e-01 3.06298107e-01 2.34436076e-02 7.89089070e-04 9.87584353e-04 1.94210708e-02 9.47753191e-01 9.31924760e-01 9.51239407e-01 9.43274975e-01 9.22970533e-01 9.08790767e-01 8.95190775e-01 8.92829895e-01 9.09225225e-01 9.48978543e-01 9.78307724e-01 9.90214705e-01 9.94153798e-01 9.95462000e-01 9.95571434e-01 9.94423747e-01 9.89391863e-01 9.63966489e-01 8.46680880e-01 5.53015411e-01 2.28522375e-01 8.37557316e-02 4.23123650e-02 3.43493782e-02 6.20253012e-02 2.20381930e-01 5.46901286e-01 6.45304620e-01 2.14198139e-03 9.92621179e-04 6.86985860e-03 5.77507198e-01 
