# vtk DataFile Version 2.0
results/iter1.vtk, Created by Freefem++ 
ASCII
DATASET UNSTRUCTURED_GRID
POINTS 961 float
0 0 0
0.033333333 0 0
0.066666667 0 0
0.1 0 0
0.13333333 0 0
0.16666667 0 0
0.2 0 0
0.23333333 0 0
0.26666667 0 0
0.3 0 0
0.33333333 0 0
0.36666667 0 0
0.4 0 0
0.43333333 0 0
0.46666667 0 0
0.5 0 0
0.53333333 0 0
0.56666667 0 0
0.6 0 0
0.63333333 0 0
0.66666667 0 0
0.7 0 0
0.73333333 0 0
0.76666667 0 0
0.8 0 0
0.83333333 0 0
0.86666667 0 0
0.9 0 0
0.93333333 0 0
0.96666667 0 0
1 0 0
0 0.033333333 0
0.033333333 0.033333333 0
0.066666667 0.033333333 0
0.1 0.033333333 0
0.13333333 0.033333333 0
0.16666667 0.033333333 0
0.2 0.033333333 0
0.23333333 0.033333333 0
0.26666667 0.033333333 0
0.3 0.033333333 0
0.33333333 0.033333333 0
0.36666667 0.033333333 0
0.4 0.033333333 0
0.43333333 0.033333333 0
0.46666667 0.033333333 0
0.5 0.033333333 0
0.53333333 0.033333333 0
0.56666667 0.033333333 0
0.6 0.033333333 0
0.63333333 0.033333333 0
0.66666667 0.033333333 0
0.7 0.033333333 0
0.73333333 0.033333333 0
0.76666667 0.033333333 0
0.8 0.033333333 0
0.83333333 0.033333333 0
0.86666667 0.033333333 0
0.9 0.033333333 0
0.93333333 0.033333333 0
0.96666667 0.033333333 0
1 0.033333333 0
0 0.066666667 0
0.033333333 0.066666667 0
0.066666667 0.066666667 0
0.1 0.066666667 0
0.13333333 0.066666667 0
0.16666667 0.066666667 0
0.2 0.066666667 0
0.23333333 0.066666667 0
0.26666667 0.066666667 0
0.3 0.066666667 0
0.33333333 0.066666667 0
0.36666667 0.066666667 0
0.4 0.066666667 0
0.43333333 0.066666667 0
0.46666667 0.066666667 0
0.5 0.066666667 0
0.53333333 0.066666667 0
0.56666667 0.066666667 0
0.6 0.066666667 0
0.63333333 0.066666667 0
0.66666667 0.066666667 0
0.7 0.066666667 0
0.73333333 0.066666667 0
0.76666667 0.066666667 0
0.8 0.066666667 0
0.83333333 0.066666667 0
0.86666667 0.066666667 0
0.9 0.066666667 0
0.93333333 0.066666667 0
0.96666667 0.066666667 0
1 0.066666667 0
0 0.1 0
0.033333333 0.1 0
0.066666667 0.1 0
0.1 0.1 0
0.13333333 0.1 0
0.16666667 0.1 0
0.2 0.1 0
0.23333333 0.1 0
0.26666667 0.1 0
0.3 0.1 0
0.33333333 0.1 0
0.36666667 0.1 0
0.4 0.1 0
0.43333333 0.1 0
0.46666667 0.1 0
0.5 0.1 0
0.53333333 0.1 0
0.56666667 0.1 0
0.6 0.1 0
0.63333333 0.1 0
0.66666667 0.1 0
0.7 0.1 0
0.73333333 0.1 0
0.76666667 0.1 0
0.8 0.1 0
0.83333333 0.1 0
0.86666667 0.1 0
0.9 0.1 0
0.93333333 0.1 0
0.96666667 0.1 0
1 0.1 0
0 0.13333333 0
0.033333333 0.13333333 0
0.066666667 0.13333333 0
0.1 0.13333333 0
0.13333333 0.13333333 0
0.16666667 0.13333333 0
0.2 0.13333333 0
0.23333333 0.13333333 0
0.26666667 0.13333333 0
0.3 0.13333333 0
0.33333333 0.13333333 0
0.36666667 0.13333333 0
0.4 0.13333333 0
0.43333333 0.13333333 0
0.46666667 0.13333333 0
0.5 0.13333333 0
0.53333333 0.13333333 0
0.56666667 0.13333333 0
0.6 0.13333333 0
0.63333333 0.13333333 0
0.66666667 0.13333333 0
0.7 0.13333333 0
0.73333333 0.13333333 0
0.76666667 0.13333333 0
0.8 0.13333333 0
0.83333333 0.13333333 0
0.86666667 0.13333333 0
0.9 0.13333333 0
0.93333333 0.13333333 0
0.96666667 0.13333333 0
1 0.13333333 0
0 0.16666667 0
0.033333333 0.16666667 0
0.066666667 0.16666667 0
0.1 0.16666667 0
0.13333333 0.16666667 0
0.16666667 0.16666667 0
0.2 0.16666667 0
0.23333333 0.16666667 0
0.26666667 0.16666667 0
0.3 0.16666667 0
0.33333333 0.16666667 0
0.36666667 0.16666667 0
0.4 0.16666667 0
0.43333333 0.16666667 0
0.46666667 0.16666667 0
0.5 0.16666667 0
0.53333333 0.16666667 0
0.56666667 0.16666667 0
0.6 0.16666667 0
0.63333333 0.16666667 0
0.66666667 0.16666667 0
0.7 0.16666667 0
0.73333333 0.16666667 0
0.76666667 0.16666667 0
0.8 0.16666667 0
0.83333333 0.16666667 0
0.86666667 0.16666667 0
0.9 0.16666667 0
0.93333333 0.16666667 0
0.96666667 0.16666667 0
1 0.16666667 0
0 0.2 0
0.033333333 0.2 0
0.066666667 0.2 0
0.1 0.2 0
0.13333333 0.2 0
0.16666667 0.2 0
0.2 0.2 0
0.23333333 0.2 0
0.26666667 0.2 0
0.3 0.2 0
0.33333333 0.2 0
0.36666667 0.2 0
0.4 0.2 0
0.43333333 0.2 0
0.46666667 0.2 0
0.5 0.2 0
0.53333333 0.2 0
0.56666667 0.2 0
0.6 0.2 0
0.63333333 0.2 0
0.66666667 0.2 0
0.7 0.2 0
0.73333333 0.2 0
0.76666667 0.2 0
0.8 0.2 0
0.83333333 0.2 0
0.86666667 0.2 0
0.9 0.2 0
0.93333333 0.2 0
0.96666667 0.2 0
1 0.2 0
0 0.23333333 0
0.033333333 0.23333333 0
0.066666667 0.23333333 0
0.1 0.23333333 0
0.13333333 0.23333333 0
0.16666667 0.23333333 0
0.2 0.23333333 0
0.23333333 0.23333333 0
0.26666667 0.23333333 0
0.3 0.23333333 0
0.33333333 0.23333333 0
0.36666667 0.23333333 0
0.4 0.23333333 0
0.43333333 0.23333333 0
0.46666667 0.23333333 0
0.5 0.23333333 0
0.53333333 0.23333333 0
0.56666667 0.23333333 0
0.6 0.23333333 0
0.63333333 0.23333333 0
0.66666667 0.23333333 0
0.7 0.23333333 0
0.73333333 0.23333333 0
0.76666667 0.23333333 0
0.8 0.23333333 0
0.83333333 0.23333333 0
0.86666667 0.23333333 0
0.9 0.23333333 0
0.93333333 0.23333333 0
0.96666667 0.23333333 0
1 0.23333333 0
0 0.26666667 0
0.033333333 0.26666667 0
0.066666667 0.26666667 0
0.1 0.26666667 0
0.13333333 0.26666667 0
0.16666667 0.26666667 0
0.2 0.26666667 0
0.23333333 0.26666667 0
0.26666667 0.26666667 0
0.3 0.26666667 0
0.33333333 0.26666667 0
0.36666667 0.26666667 0
0.4 0.26666667 0
0.43333333 0.26666667 0
0.46666667 0.26666667 0
0.5 0.26666667 0
0.53333333 0.26666667 0
0.56666667 0.26666667 0
0.6 0.26666667 0
0.63333333 0.26666667 0
0.66666667 0.26666667 0
0.7 0.26666667 0
0.73333333 0.26666667 0
0.76666667 0.26666667 0
0.8 0.26666667 0
0.83333333 0.26666667 0
0.86666667 0.26666667 0
0.9 0.26666667 0
0.93333333 0.26666667 0
0.96666667 0.26666667 0
1 0.26666667 0
0 0.3 0
0.033333333 0.3 0
0.066666667 0.3 0
0.1 0.3 0
0.13333333 0.3 0
0.16666667 0.3 0
0.2 0.3 0
0.23333333 0.3 0
0.26666667 0.3 0
0.3 0.3 0
0.33333333 0.3 0
0.36666667 0.3 0
0.4 0.3 0
0.43333333 0.3 0
0.46666667 0.3 0
0.5 0.3 0
0.53333333 0.3 0
0.56666667 0.3 0
0.6 0.3 0
0.63333333 0.3 0
0.66666667 0.3 0
0.7 0.3 0
0.73333333 0.3 0
0.76666667 0.3 0
0.8 0.3 0
0.83333333 0.3 0
0.86666667 0.3 0
0.9 0.3 0
0.93333333 0.3 0
0.96666667 0.3 0
1 0.3 0
0 0.33333333 0
0.033333333 0.33333333 0
0.066666667 0.33333333 0
0.1 0.33333333 0
0.13333333 0.33333333 0
0.16666667 0.33333333 0
0.2 0.33333333 0
0.23333333 0.33333333 0
0.26666667 0.33333333 0
0.3 0.33333333 0
0.33333333 0.33333333 0
0.36666667 0.33333333 0
0.4 0.33333333 0
0.43333333 0.33333333 0
0.46666667 0.33333333 0
0.5 0.33333333 0
0.53333333 0.33333333 0
0.56666667 0.33333333 0
0.6 0.33333333 0
0.63333333 0.33333333 0
0.66666667 0.33333333 0
0.7 0.33333333 0
0.73333333 0.33333333 0
0.76666667 0.33333333 0
0.8 0.33333333 0
0.83333333 0.33333333 0
0.86666667 0.33333333 0
0.9 0.33333333 0
0.93333333 0.33333333 0
0.96666667 0.33333333 0
1 0.33333333 0
0 0.36666667 0
0.033333333 0.36666667 0
0.066666667 0.36666667 0
0.1 0.36666667 0
0.13333333 0.36666667 0
0.16666667 0.36666667 0
0.2 0.36666667 0
0.23333333 0.36666667 0
0.26666667 0.36666667 0
0.3 0.36666667 0
0.33333333 0.36666667 0
0.36666667 0.36666667 0
0.4 0.36666667 0
0.43333333 0.36666667 0
0.46666667 0.36666667 0
0.5 0.36666667 0
0.53333333 0.36666667 0
0.56666667 0.36666667 0
0.6 0.36666667 0
0.63333333 0.36666667 0
0.66666667 0.36666667 0
0.7 0.36666667 0
0.73333333 0.36666667 0
0.76666667 0.36666667 0
0.8 0.36666667 0
0.83333333 0.36666667 0
0.86666667 0.36666667 0
0.9 0.36666667 0
0.93333333 0.36666667 0
0.96666667 0.36666667 0
1 0.36666667 0
0 0.4 0
0.033333333 0.4 0
0.066666667 0.4 0
0.1 0.4 0
0.13333333 0.4 0
0.16666667 0.4 0
0.2 0.4 0
0.23333333 0.4 0
0.26666667 0.4 0
0.3 0.4 0
0.33333333 0.4 0
0.36666667 0.4 0
0.4 0.4 0
0.43333333 0.4 0
0.46666667 0.4 0
0.5 0.4 0
0.53333333 0.4 0
0.56666667 0.4 0
0.6 0.4 0
0.63333333 0.4 0
0.66666667 0.4 0
0.7 0.4 0
0.73333333 0.4 0
0.76666667 0.4 0
0.8 0.4 0
0.83333333 0.4 0
0.86666667 0.4 0
0.9 0.4 0
0.93333333 0.4 0
0.96666667 0.4 0
1 0.4 0
0 0.43333333 0
0.033333333 0.43333333 0
0.066666667 0.43333333 0
0.1 0.43333333 0
0.13333333 0.43333333 0
0.16666667 0.43333333 0
0.2 0.43333333 0
0.23333333 0.43333333 0
0.26666667 0.43333333 0
0.3 0.43333333 0
0.33333333 0.43333333 0
0.36666667 0.43333333 0
0.4 0.43333333 0
0.43333333 0.43333333 0
0.46666667 0.43333333 0
0.5 0.43333333 0
0.53333333 0.43333333 0
0.56666667 0.43333333 0
0.6 0.43333333 0
0.63333333 0.43333333 0
0.66666667 0.43333333 0
0.7 0.43333333 0
0.73333333 0.43333333 0
0.76666667 0.43333333 0
0.8 0.43333333 0
0.83333333 0.43333333 0
0.86666667 0.43333333 0
0.9 0.43333333 0
0.93333333 0.43333333 0
0.96666667 0.43333333 0
1 0.43333333 0
0 0.46666667 0
0.033333333 0.46666667 0
0.066666667 0.46666667 0
0.1 0.46666667 0
0.13333333 0.46666667 0
0.16666667 0.46666667 0
0.2 0.46666667 0
0.23333333 0.46666667 0
0.26666667 0.46666667 0
0.3 0.46666667 0
0.33333333 0.46666667 0
0.36666667 0.46666667 0
0.4 0.46666667 0
0.43333333 0.46666667 0
0.46666667 0.46666667 0
0.5 0.46666667 0
0.53333333 0.46666667 0
0.56666667 0.46666667 0
0.6 0.46666667 0
0.63333333 0.46666667 0
0.66666667 0.46666667 0
0.7 0.46666667 0
0.73333333 0.46666667 0
0.76666667 0.46666667 0
0.8 0.46666667 0
0.83333333 0.46666667 0
0.86666667 0.46666667 0
0.9 0.46666667 0
0.93333333 0.46666667 0
0.96666667 0.46666667 0
1 0.46666667 0
0 0.5 0
0.033333333 0.5 0
0.066666667 0.5 0
0.1 0.5 0
0.13333333 0.5 0
0.16666667 0.5 0
0.2 0.5 0
0.23333333 0.5 0
0.26666667 0.5 0
0.3 0.5 0
0.33333333 0.5 0
0.36666667 0.5 0
0.4 0.5 0
0.43333333 0.5 0
0.46666667 0.5 0
0.5 0.5 0
0.53333333 0.5 0
0.56666667 0.5 0
0.6 0.5 0
0.63333333 0.5 0
0.66666667 0.5 0
0.7 0.5 0
0.73333333 0.5 0
0.76666667 0.5 0
0.8 0.5 0
0.83333333 0.5 0
0.86666667 0.5 0
0.9 0.5 0
0.93333333 0.5 0
0.96666667 0.5 0
1 0.5 0
0 0.53333333 0
0.033333333 0.53333333 0
0.066666667 0.53333333 0
0.1 0.53333333 0
0.13333333 0.53333333 0
0.16666667 0.53333333 0
0.2 0.53333333 0
0.23333333 0.53333333 0
0.26666667 0.53333333 0
0.3 0.53333333 0
0.33333333 0.53333333 0
0.36666667 0.53333333 0
0.4 0.53333333 0
0.43333333 0.53333333 0
0.46666667 0.53333333 0
0.5 0.53333333 0
0.53333333 0.53333333 0
0.56666667 0.53333333 0
0.6 0.53333333 0
0.63333333 0.53333333 0
0.66666667 0.53333333 0
0.7 0.53333333 0
0.73333333 0.53333333 0
0.76666667 0.53333333 0
0.8 0.53333333 0
[...]
CELL_DATA 1920
Scalars  Label int 1
LOOKUP_TABLE FreeFempp_table
0
0
0
0
0
0
0
0
0
0
0
0
0
0
0
0
0
0
0
0
0
0
0
0
0
0
0
0
0
0
0
0
0
0
0
0
0
0
0
0
0
0
0
0
0
0
0
0
0
0
0
0
0
0
0
0
0
0
0
0
0
0
0
0
0
0
0
0
0
0
0
0
0
0
0
0
0
0
0
0
0
0
0
0
0
0
0
0
0
0
0
0
0
0
0
0
0
0
0
0
0
0
0
0
0
0
0
0
0
0
0
0
0
0
0
0
0
0
0
0
0
0
0
0
0
0
0
0
0
0
0
0
0
0
0
0
0
0
0
0
0
0
0
0
0
0
0
0
0
0
0
0
0
0
0
0
0
0
0
0
0
0
0
0
0
0
0
0
0
0
0
0
0
0
0
0
0
0
0
0
0
0
0
0
0
0
0
0
0
0
0
0
0
0
0
0
0
0
0
0
0
0
0
0
0
0
0
0
0
0
0
0
0
0
0
0
0
0
0
0
0
0
0
0
0
0
0
0
0
0
0
0
0
0
0
0
0
0
0
0
0
0
0
0
0
0
0
0
0
0
0
0
0
0
0
0
0
0
0
0
0
0
0
0
0
0
0
0
0
0
0
0
0
0
0
0
0
0
0
0
0
0
0
0
0
0
0
0
0
0
0
0
0
0
0
0
0
0
0
0
0
0
0
0
0
0
0
0
0
0
0
0
0
0
0
0
0
0
0
0
0
0
0
0
0
0
0
0
0
0
0
0
0
0
0
0
0
0
0
0
0
0
0
0
0
0
0
0
0
0
0
0
0
0
0
0
0
0
0
0
0
0
0
0
0
0
0
0
0
0
0
0
0
0
0
0
0
0
0
0
0
0
0
0
0
0
0
0
0
0
0
0
0
0
0
0
0
0
0
0
0
0
0
0
0
0
0
0
0
0
0
0
0
0
0
0
0
0
0
0
0
0
0
0
0
0
0
0
0
0
0
0
0
0
0
0
0
0
0
0
0
0
0
0
0
0
0
0
0
0
0
0
0
0
0
0
0
0
0
0
0
0
0
0
0
0
0
0
0
0
0
0
0
0
0
0
0
0
0
0
0
0
0
0
0
0
0
0
0
0
0
0
0
0
0
0
0
0
0
0
0
0
0
0
0
0
0
0
0
0
0
0
0
0
0
0
0
0
0
0
0
0
0
0
0
0
0
0
0
0
0
0
0
0
0
0
0
0
0
0
0
0
0
0
0
0
0
0
0
0
0
0
0
0
0
0
0
0
0
0
0
0
0
0
0
0
0
0
0
0
0
0
0
0
0
0
0
0
0
0
0
0
0
0
0
0
0
0
0
0
0
0
0
0
0
0
0
0
0
0
0
0
0
0
0
0
0
0
0
0
0
0
0
0
0
0
0
0
0
0
0
0
0
0
0
0
0
0
0
0
0
0
0
0
0
0
0
0
0
0
0
0
0
0
0
0
0
0
0
0
0
0
0
0
0
0
0
0
0
0
0
0
0
0
0
0
0
0
0
0
0
0
0
0
0
0
0
0
0
0
0
0
0
0
0
0
0
0
0
0
0
0
0
0
0
0
0
0
0
0
0
0
0
0
0
0
0
0
0
0
0
0
0
0
0
0
0
0
0
0
0
0
0
0
0
0
0
0
0
0
0
0
0
0
0
0
0
0
0
0
0
0
0
0
0
0
0
0
0
0
0
0
0
0
0
0
0
0
0
0
0
0
0
0
0
0
0
0
0
0
0
0
0
0
0
0
0
0
0
0
0
0
0
0
0
0
0
0
0
0
0
0
0
0
0
0
0
0
0
0
0
0
0
0
0
0
0
0
0
0
0
0
0
0
0
0
0
0
0
0
0
0
0
0
0
0
0
0
0
0
0
0
0
0
0
0
0
0
0
0
0
0
0
0
0
0
0
0
0
0
0
0
0
0
0
0
0
0
0
0
0
0
0
0
0
0
0
0
0
0
0
0
0
0
0
0
0
0
0
0
0
0
0
0
0
0
0
0
0
0
0
0
0
0
0
0
0
0
0
0
0
0
0
0
0
0
0
0
0
0
0
0
0
0
0
0
0
0
0
0
0
0
0
0
0
0
0
0
0
0
0
0
0
0
0
0
0
0
0
0
0
0
0
0
0
0
0
0
0
0
0
0
0
0
0
0
0
0
0
0
0
0
0
0
0
0
0
0
0
0
0
0
0
0
0
0
0
0
0
0
0
0
0
0
0
0
0
0
0
0
0
0
0
0
0
0
0
0
0
0
0
0
0
0
0
0
0
0
0
0
0
0
0
0
0
0
0
0
0
0
0
0
0
0
0
0
0
0
0
0
0
0
0
0
0
0
0
0
0
0
0
0
0
0
0
0
0
0
0
0
0
0
0
0
0
0
0
0
0
0
0
0
0
0
0
0
0
0
0
0
0
0
0
0
0
0
0
0
0
0
0
0
0
0
0
0
0
0
0
0
0
0
0
0
0
0
0
0
0
0
0
0
0
0
0
0
0
0
0
0
0
0
0
0
0
0
0
0
0
0
0
0
0
0
0
0
0
0
0
0
0
0
0
0
0
0
0
0
0
0
0
0
0
0
0
0
0
0
0
0
0
0
0
0
0
0
0
0
0
0
0
0
0
0
0
0
0
0
0
0
0
0
0
0
0
0
0
0
0
0
0
0
0
0
0
0
0
0
0
0
0
0
0
0
0
0
0
0
0
0
0
0
0
0
0
0
0
0
0
0
0
0
0
0
0
0
0
0
0
0
0
0
0
0
0
0
0
0
0
0
0
0
0
0
0
0
0
0
0
0
0
0
0
0
0
0
0
0
0
0
0
0
0
0
0
0
0
0
0
0
0
0
0
0
0
0
0
0
0
0
0
0
0
0
0
0
0
0
0
0
0
0
0
0
0
0
0
0
0
0
0
0
0
0
0
0
0
0
0
0
0
0
0
0
0
0
0
0
0
0
0
0
0
0
0
0
0
0
0
0
0
0
0
0
0
0
0
0
0
0
0
0
0
0
0
0
0
0
0
0
0
0
0
0
0
0
0
0
0
0
0
0
0
0
0
0
0
0
0
0
0
0
0
0
0
0
0
0
0
0
0
0
0
0
0
0
0
0
0
0
0
0
0
0
0
0
0
0
0
0
0
0
0
0
0
0
0
0
0
0
0
0
0
0
0
0
0
0
0
0
0
0
0
0
0
0
0
0
0
0
0
0
0
0
0
0
0
0
0
0
0
0
0
0
0
0
0
0
0
0
0
0
0
0
0
0
0
0
0
0
0
0
0
0
0
0
0
0
0
0
0
0
0
0
0
0
0
0
0
0
0
0
0
0
0
0
0
0
0
0
0
0
0
0
0
0
0
0
0
0
0
0
0
0
0
0
0
0
0
0
0
0
0
0
0
0
0
0
0
0
0
0
0
0
0
0
0
0
0
0
0
0
0
0
0
0
0
0
0
0
0
0
0
0
0
0
0
0
0
0
0
0
0
0
0
0
0
0
0
0
0
0
0
0
0
0
0
0
0
0
0
0
0
0
0
0
0
0
0
0
0
0
0
0
0
0
0
0
0
0
0
0
0
0
0
0
0
0
0
0
0
0
0
0
0
0
0
0
0
0
0
0
0
0
0
0
0
0
0
0
0
0
0
0
0
0
0
0
0
0
0
0
0
0
0
0
0
0
0
0
0
0
0
0
0
0
0
0
0
0
0
0
0
0
0
0
0
0
0
0
0
0
0
0
0
0
0
0
0
0
0
0
0
0
0
0
0
0
0
0
0
0
0
0
0
0
0
0
0
0
0
0
0
0
0
0
0
0
0
0
0
0
0
0
0
0
0
0
0
0
0
0
0
0
0
0
0
0
0
0
0
0
0
0
0
0
0
0
0
0
0
0
0
0
0
0
0
0
0
0
0
0
0
0
0
0
0
0
0
0
0
0
0
0
0
0
0
0
0
0
0
0
0
0
0
0
0
0
0
0
0
0
0
0
0
0
0
0
0
0
0
0
0
0
0
0
0
0
0
0
0
0
0
0
0
0
0
0
0
0
0
0
0
0
0
0
0
0
0
0
1
1
1
1
1
1
1
1
1
1
1
1
1
1
1
1
1
1
1
1
1
1
1
1
1
1
1
1
1
1
2
2
2
2
2
2
2
2
2
2
2
2
2
2
2
2
2
2
2
2
2
2
2
2
2
2
2
2
2
2
3
3
3
3
3
3
3
3
3
3
3
3
3
3
3
3
3
3
3
3
3
3
3
3
3
3
3
3
3
3
4
4
4
4
4
4
4
4
4
4
4
4
4
4
4
4
4
4
4
4
4
4
4
4
4
4
4
4
4
4

LOOKUP_TABLE FreeFempp_table 5
1.00000000 0.00000000 0.00000000 1.00000000
1.00000000 1.00000000 0.00000000 1.00000000
1.00000000 0.00000000 1.00000000 1.00000000
0.00000000 1.00000000 0.00000000 1.00000000
0.00000000 1.00000000 1.00000000 1.00000000

POINT_DATA 961
FIELD FieldData 1
Density 1 961 float
4.21163678e-01 3.95567298e-01 4.24519092e-01 4.28388089e-01 4.20372933e-01 4.04340357e-01 3.67922783e-01 2.19413668e-01 1.29687833e-02 5.22054825e-03 1.10718710e-02 1.74922645e-01 3.67817104e-01 4.22912598e-01 4.87351120e-01 6.69813395e-01 8.36230934e-01 8.02128673e-01 7.24746764e-01 7.97858715e-01 8.12288582e-01 7.96949565e-01 7.87225664e-01 7.73668230e-01 7.55927861e-01 7.39884675e-01 7.24432051e-01 7.04801381e-01 6.98048890e-01 7.00379848e-01 6.50507867e-01 6.92011905e-04 2.42487505e-01 3.31275165e-01 3.35884273e-01 3.25712919e-01 3.09919208e-01 2.80436128e-01 1.91555157e-01 1.73134208e-02 4.23664181e-03 4.81330324e-03 7.68702775e-02 2.73074538e-01 3.21231902e-01 3.57340932e-01 5.76872587e-01 9.04445052e-01 7.63034105e-01 2.99610823e-01 6.96857750e-01 8.41970146e-01 8.40407252e-01 8.27211797e-01 8.22406113e-01 8.11766684e-01 7.97100306e-01 7.78139412e-01 7.54824817e-01 7.43268251e-01 7.33576477e-01 6.95121527e-01 4.83671378e-04 4.09300061e-04 6.36499142e-04 6.23800093e-04 6.29477436e-04 6.39564358e-04 6.52956602e-04 6.68714696e-04 6.74000359e-04 6.76052354e-04 5.77777217e-04 3.20837498e-02 3.06854099e-01 3.52647275e-01 3.42082769e-01 4.02996719e-01 8.43043089e-01 4.88874167e-02 1.08782658e-02 1.39798680e-02 1.26152514e-02 2.09629647e-02 6.71399757e-02 2.03790084e-01 3.51100832e-01 4.58174706e-01 5.23536265e-01 5.74340701e-01 6.06318295e-01 6.00924134e-01 6.33054614e-01 4.59718496e-01 6.10936549e-04 6.62980136e-04 6.17478217e-04 6.25229208e-04 6.32150332e-04 6.43710664e-04 6.57827535e-04 6.73136790e-04 6.98137737e-04 4.12867026e-04 4.07008716e-04 5.79700340e-04 6.19074854e-04 6.37512596e-04 2.30360836e-01 4.78818715e-01 9.37559605e-01 1.14007546e-02 1.09492438e-02 5.30604552e-03 3.49964737e-03 2.58740969e-03 2.69440515e-03 4.31253389e-03 2.67699957e-02 1.94487810e-01 3.45354557e-01 4.16439325e-01 4.50524807e-01 5.47518373e-01 4.55205053e-01 2.37002626e-01 1.32715225e-01 1.56458005e-01 2.39912108e-01 2.86721289e-01 3.13531667e-01 3.38568866e-01 3.61025006e-01 3.70294422e-01 3.09232920e-01 6.06399903e-04 6.21808576e-04 5.32966224e-04 6.30782277e-04 5.48012846e-04 7.69406266e-04 1.89762074e-03 9.93529022e-01 2.66166124e-02 1.23327654e-02 5.70147717e-03 3.27459583e-03 2.22010119e-03 1.74202106e-03 1.60706998e-03 8.39175191e-03 1.12359114e-01 2.52381980e-01 2.94270635e-01 4.40124571e-01 4.51539844e-01 2.71474093e-01 1.73871338e-01 1.63901240e-01 2.35267952e-01 2.96790361e-01 3.26995164e-01 3.49579066e-01 3.69611710e-01 3.85093242e-01 3.89294833e-01 3.85773271e-01 3.82276118e-01 3.21918368e-01 8.21019523e-03 7.96705717e-04 6.12001284e-04 6.47381763e-04 7.18295691e-04 9.86983299e-01 5.20407081e-01 2.54327536e-01 1.84713438e-01 4.48123179e-02 5.91451954e-03 1.39629305e-03 1.24630774e-03 7.20164971e-03 1.04601227e-01 1.78948939e-01 2.68214911e-01 4.80462343e-01 3.25609714e-01 2.79818147e-01 2.65249044e-01 3.00738871e-01 3.55804384e-01 3.84627759e-01 4.02354717e-01 4.16707247e-01 4.28739160e-01 4.36197817e-01 4.37173694e-01 4.39022571e-01 4.44855660e-01 4.37230766e-01 4.21022534e-01 3.61582667e-01 2.07625586e-03 6.20793959e-04 6.32399344e-04 9.70377743e-01 9.46498692e-01 9.07929242e-01 7.84133255e-01 3.86819661e-01 5.26708290e-02 1.35561533e-03 1.21836993e-03 1.28888832e-02 1.35591045e-01 1.96774170e-01 5.37115753e-01 4.15418386e-01 3.98487478e-01 3.88761729e-01 4.04076666e-01 4.40814823e-01 4.62972403e-01 4.76761043e-01 4.87341613e-01 4.95661795e-01 5.00767052e-01 5.02063990e-01 5.01983762e-01 5.02361298e-01 5.01096427e-01 4.99496907e-01 4.93942529e-01 4.76493895e-01 3.95087302e-01 7.38963368e-04 8.16190382e-04 6.99189544e-01 9.16376889e-01 9.00439620e-01 9.19112504e-01 7.14920640e-01 1.98189281e-02 1.31410721e-03 2.05396791e-03 1.22282341e-01 2.49483377e-01 6.27046168e-01 5.68657935e-01 5.64027667e-01 5.55697501e-01 5.56678057e-01 5.67046404e-01 5.71739852e-01 5.74621975e-01 5.76455116e-01 5.76862693e-01 5.75318635e-01 5.71945906e-01 5.67946672e-01 5.64004064e-01 5.60230672e-01 5.57678342e-01 5.54929674e-01 5.49037457e-01 5.36573946e-01 4.91223752e-01 7.85778044e-04 5.92670112e-04 7.22469389e-03 1.00001357e-01 1.53556108e-01 9.03762400e-01 9.68484640e-01 1.95660768e-03 1.04763592e-03 7.13364780e-02 3.88304949e-01 7.10678816e-01 7.39872694e-01 7.34654546e-01 7.23755658e-01 7.11076975e-01 6.96663260e-01 6.82806253e-01 6.71601057e-01 6.61909163e-01 6.52760625e-01 6.43619716e-01 6.34606898e-01 6.26279354e-01 6.18941367e-01 6.13062263e-01 6.09404802e-01 6.07475579e-01 6.06674075e-01 6.06951177e-01 6.03919089e-01 5.56686819e-01 1.02024176e-03 1.40649057e-03 2.14772997e-03 4.94416757e-03 2.94696223e-02 9.84938562e-01 8.76348000e-03 1.03832083e-03 2.06393283e-03 4.33301210e-01 7.30748773e-01 8.02134037e-01 7.92549968e-01 7.83723712e-01 7.71788538e-01 7.56991208e-01 7.41026878e-01 7.25843847e-01 7.11612523e-01 6.98159337e-01 6.85338616e-01 6.73345089e-01 6.62531555e-01 6.53139472e-01 6.45597398e-01 6.40431464e-01 6.37736082e-01 6.37984633e-01 6.42416656e-01 6.52909815e-01 6.69423103e-01 6.51070714e-01 3.59670050e-03 1.71862636e-03 2.63247103e-03 4.84863296e-03 3.17291841e-02 9.95738924e-01 1.23342592e-03 9.02258442e-04 3.84188026e-01 6.65077090e-01 7.46900856e-01 7.41551578e-01 7.45416760e-01 7.45793343e-01 7.42310405e-01 7.35418499e-01 7.26359725e-01 7.16001034e-01 7.04882324e-01 6.93423688e-01 6.82148933e-01 6.71537519e-01 6.61905944e-01 6.53573036e-01 6.46841228e-01 6.42003357e-01 6.39984846e-01 6.42762601e-01 6.53759003e-01 6.77880406e-01 7.27981329e-01 7.70720482e-01 9.83087420e-02 1.98411588e-02 6.75299810e-03 8.57421756e-03 2.46370897e-01 9.86616731e-01 7.70390616e-04 1.05188682e-03 5.32427609e-01 5.21322072e-01 5.42707980e-01 5.81533730e-01 6.22245491e-01 6.53605402e-01 6.72931671e-01 6.82295203e-01 6.84349895e-01 6.81422889e-01 6.75373316e-01 6.67697132e-01 6.59473538e-01 6.51367962e-01 6.43759966e-01 6.36784971e-01 6.30491793e-01 6.25324130e-01 6.22596383e-01 6.25148118e-01 6.38260007e-01 6.71953738e-01 7.64098287e-01 8.27370822e-01 2.91278154e-01 7.44171888e-02 8.07533134e-03 1.02419723e-02 9.72963989e-01 1.58516143e-03 1.18597504e-03 4.04994607e-01 3.00865293e-01 3.17312509e-01 3.63398224e-01 4.31558639e-01 5.07477045e-01 5.69619656e-01 6.10429168e-01 6.32893085e-01 6.42637491e-01 6.44419193e-01 6.41639173e-01 6.36566460e-01 6.30630970e-01 6.24665380e-01 6.19014800e-01 6.13650620e-01 6.08328164e-01 6.02662385e-01 5.96375167e-01 5.90210795e-01 5.88917673e-01 6.09817803e-01 6.94123745e-01 7.39201307e-01 3.86634827e-01 6.23956807e-02 1.28857896e-01 9.74958122e-01 1.68431411e-03 1.51240639e-03 3.02696317e-01 1.58621967e-01 1.58856079e-01 1.98357984e-01 2.68710732e-01 3.66571546e-01 4.64382261e-01 5.36896646e-01 5.80865681e-01 6.03739500e-01 6.13234758e-01 6.14811182e-01 6.12029016e-01 6.07207894e-01 6.01873934e-01 5.96978247e-01 5.92994213e-01 5.89862764e-01 5.86690664e-01 5.81252337e-01 5.69498718e-01 5.46953082e-01 5.15104890e-01 4.98102367e-01 5.30670822e-01 6.10130429e-01 4.40805346e-01 6.83337867e-01 9.80662107e-01 1.92863611e-03 1.72521698e-03 2.26259559e-01 8.41766521e-02 7.67452493e-02 1.01832882e-01 1.61946490e-01 2.67420620e-01 3.88426900e-01 4.83193606e-01 5.42503119e-01 5.74909270e-01 5.90036750e-01 5.94564319e-01 5.92783153e-01 5.87564528e-01 5.80977976e-01 5.74607134e-01 5.69662690e-01 5.66887200e-01 5.66231549e-01 5.66361368e-01 5.63873053e-01 5.52608073e-01 5.24897993e-01 4.85204846e-01 4.59901035e-01 5.18622756e-01 6.16246462e-01 8.38132262e-01 9.66855347e-01 2.17356742e-03 1.96719239e-03 1.64595500e-01 4.73429561e-02 4.16015238e-02 5.86786158e-02 1.08953275e-01 2.15378955e-01 3.49573135e-01 4.55832630e-01 5.22104859e-01 5.59101105e-01 5.77343643e-01 5.83650470e-01 5.82295895e-01 5.76194227e-01 5.67605376e-01 5.58513105e-01 5.50761402e-01 5.45913756e-01 5.44906914e-01 5.47760665e-01 5.53422928e-01 5.59652746e-01 5.62647045e-01 5.59308529e-01 5.54458499e-01 5.88740647e-01 7.21191287e-01 8.86552393e-01 9.34513807e-01 2.43507139e-03 2.22426932e-03 1.04626283e-01 2.75247693e-02 2.55538654e-02 4.02641557e-02 9.21370387e-02 2.06506103e-01 3.46045047e-01 4.51699197e-01 5.16797304e-01 5.54025590e-01 5.73371649e-01 5.80851912e-01 5.80162108e-01 5.73870003e-01 5.64113855e-01 5.53015053e-01 5.42853713e-01 5.35913467e-01 5.33975482e-01 5.37892759e-01 5.47643423e-01 5.62604368e-01 5.81560194e-01 6.03491604e-01 6.36651099e-01 6.82155609e-01 7.98935950e-01 9.16359842e-01 8.53873730e-01 2.72111106e-03 2.49155588e-03 5.27885966e-02 1.71259716e-02 1.76869165e-02 3.36564481e-02 1.00462183e-01 2.35312149e-01 3.70993078e-01 4.63947326e-01 5.21092117e-01 5.55266023e-01 5.74369848e-01 5.82916141e-01 5.83649874e-01 5.78533828e-01 5.69377422e-01 5.58236122e-01 5.47556043e-01 5.39996862e-01 5.37893832e-01 5.42649269e-01 5.54666638e-01 5.73692322e-01 5.97821116e-01 6.27686143e-01 6.77622080e-01 7.62477994e-01 8.60058784e-01 9.08207476e-01 5.78644037e-01 3.07834288e-03 2.78728129e-03 2.39698421e-02 1.16965305e-02 1.35220410e-02 3.56519744e-02 1.36919573e-01 2.94418007e-01 4.11448270e-01 4.83820975e-01 5.29293597e-01 5.58481514e-01 5.76604545e-01 5.86449564e-01 5.89627445e-01 5.87309778e-01 5.80790460e-01 5.71900487e-01 5.63069224e-01 5.56842148e-01 5.55206835e-01 5.59599161e-01 5.71319282e-01 5.91866493e-01 6.20230317e-01 6.58752739e-01 7.25081027e-01 8.12853336e-01 8.77004266e-01 8.30077946e-01 5.26165105e-02 3.61105893e-03 3.12874978e-03 1.17382379e-02 8.88369046e-03 1.17205530e-02 4.92177941e-02 2.08982468e-01 3.66299093e-01 4.52835381e-01 5.03327668e-01 5.36733806e-01 5.60445905e-01 5.77377319e-01 5.88815212e-01 5.95317543e-01 5.97247601e-01 5.95231533e-01 5.90610266e-01 5.85595727e-01 5.82424700e-01 5.82106233e-01 5.85499227e-01 5.97086847e-01 6.20923519e-01 6.54469669e-01 7.04219937e-01 7.80420899e-01 8.42785716e-01 8.51100445e-01 4.47074890e-01 1.54507915e-02 4.87502990e-03 4.00123047e-03 6.63960353e-03 6.96327072e-03 1.21626332e-02 8.72398615e-02 3.05759519e-01 4.30238515e-01 4.85669136e-01 5.17532647e-01 5.40543437e-01 5.59372902e-01 5.75290263e-01 5.88469028e-01 5.98746002e-01 6.05974555e-01 6.10248983e-01 6.12149417e-01 6.12924874e-01 6.13879025e-01 6.15493000e-01 6.20963633e-01 6.39922321e-01 6.74637854e-01 7.11355805e-01 7.57578433e-01 8.16166639e-01 8.28325152e-01 6.44417763e-01 3.23885456e-02 7.89148454e-03 6.24470552e-03 6.60519535e-03 4.32167016e-03 5.16948570e-03 1.62629616e-02 1.69072315e-01 3.96270484e-01 4.76315677e-01 5.06770432e-01 5.24464667e-01 5.39575160e-01 5.54747045e-01 5.70059955e-01 5.84923148e-01 5.98811984e-01 6.11414671e-01 6.22493863e-01 6.31659806e-01 6.38332844e-01 6.42349422e-01 6.46083295e-01 6.59750700e-01 7.00215697e-01 7.56737292e-01 7.84711778e-01 7.89908051e-01 7.73136139e-01 6.08268917e-01 5.17740250e-02 1.30891427e-02 7.61578698e-03 7.98592158e-03 1.70535445e-02 3.24488082e-03 3.81457666e-03 2.94651799e-02 2.85203457e-01 4.61778581e-01 5.04261672e-01 5.16258776e-01 5.23918569e-01 5.33788741e-01 5.46744466e-01 5.61868787e-01 5.78069091e-01 5.94658494e-01 6.11309290e-01 6.27720952e-01 6.43307447e-01 6.57486796e-01 6.71532691e-01 6.92340255e-01 7.30109870e-01 7.87033856e-01 8.34799767e-01 8.30973506e-01 7.33996868e-01 1.53663158e-01 1.80910248e-02 1.17659224e-02 1.01537742e-02 1.06345462e-02 1.68636907e-02 1.12055473e-01 2.72623100e-03 3.05745564e-03 7.22566396e-02 3.94399524e-01 5.02440393e-01 5.16025543e-01 5.14945328e-01 5.16477764e-01 5.23665786e-01 5.35654783e-01 5.50762415e-01 5.67667484e-01 5.85642874e-01 6.04429364e-01 6.24101043e-01 6.45116389e-01 6.68745816e-01 6.97844982e-01 7.37015009e-01 7.83473849e-01 8.31472337e-01 8.19913328e-01 7.96156526e-01 4.95833844e-01 7.27678612e-02 2.36271620e-02 1.30051784e-02 1.29227508e-02 2.25926582e-02 1.18425809e-01 4.27727133e-01 2.43770820e-03 2.64070998e-03 1.68318570e-01 4.72921431e-01 5.21960676e-01 5.13428390e-01 5.04252672e-01 5.03360808e-01 5.09948790e-01 5.21651685e-01 5.36524415e-01 5.53398967e-01 5.71661294e-01 5.91122985e-01 6.12256706e-01 6.36624992e-01 6.66823030e-01 7.05057919e-01 7.50369787e-01 7.97338724e-01 8.33923757e-01 8.61825764e-01 7.93652475e-01 6.40089810e-01 1.89571202e-01 6.09720014e-02 1.01773717e-01 4.27211016e-01 7.09036529e-01 7.82411158e-01 6.92200184e-01 2.24925904e-03 2.39145453e-03 2.85235077e-01 5.20218432e-01 5.22032917e-01 4.98658329e-01 4.86710489e-01 4.86453772e-01 4.93535548e-01 5.04814863e-01 5.18803716e-01 5.34941971e-01 5.52930415e-01 5.72552860e-01 5.94100475e-01 6.19080007e-01 6.50145411e-01 6.88968778e-01 7.32971132e-01 7.75549054e-01 8.11249316e-01 8.35232139e-01 8.52834642e-01 8.40126574e-01 7.68560112e-01 7.66044915e-01 8.51760924e-01 8.87281954e-01 8.72659326e-01 8.65080357e-01 7.79729545e-01 2.09435914e-03 2.22262484e-03 3.89778763e-01 5.39534092e-01 5.04111350e-01 4.75279480e-01 4.65915918e-01 4.68076110e-01 4.75432009e-01 4.85314697e-01 4.97363955e-01 5.11982381e-01 5.29439867e-01 5.49559116e-01 5.71917355e-01 5.96499085e-01 6.24247849e-01 6.56316400e-01 6.91909194e-01 7.27771401e-01 7.61087120e-01 7.91433692e-01 8.17486227e-01 8.36951792e-01 8.40533555e-01 8.46946120e-01 8.53830874e-01 8.48889649e-01 8.33678126e-01 8.28998625e-01 7.61036456e-01 1.88616244e-03 2.09107436e-03 4.76662934e-01 5.29830992e-01 4.74360138e-01 4.50521737e-01 4.46999758e-01 4.51059341e-01 4.56991464e-01 4.63743210e-01 4.72248197e-01 4.83852535e-01 4.99616563e-01 5.19924402e-01 5.44190824e-01 5.70873916e-01 5.98125875e-01 6.24824166e-01 6.50901139e-01 6.76645637e-01 7.01803565e-01 7.25022256e-01 7.44980037e-01 7.56407440e-01 7.51289427e-01 7.35448599e-01 7.17562079e-01 7.05046892e-01 7.03361928e-01 7.10834324e-01 6.92591012e-01 1.62909937e-03 1.85552915e-03 5.53197563e-01 5.03792048e-01 4.51355577e-01 4.35560375e-01 4.33835000e-01 4.34775949e-01 4.35475498e-01 4.36481744e-01 4.39450741e-01 4.46351528e-01 4.59175915e-01 4.79587436e-01 5.08273304e-01 5.44053853e-01 5.83302259e-01 6.20602131e-01 6.50697589e-01 6.70162320e-01 6.77390754e-01 6.72610581e-01 6.61479533e-01 6.49566174e-01 6.35971129e-01 6.19979858e-01 6.04139686e-01 5.92502117e-01 5.85219383e-01 5.88449359e-01 6.25506699e-01 2.98744440e-03 2.13006069e-03 7.44621694e-01 5.67816615e-01 5.44036508e-01 5.31673491e-01 5.26447535e-01 5.23484051e-01 5.20934701e-01 5.18822551e-01 5.17971516e-01 5.19630134e-01 5.25234699e-01 5.36079109e-01 5.52855313e-01 5.75139284e-01 6.01011515e-01 6.27059758e-01 6.48875117e-01 6.61877275e-01 6.62344098e-01 6.49560571e-01 6.29188955e-01 6.09940052e-01 5.97630799e-01 5.92459738e-01 5.91603816e-01 5.89134753e-01 5.83038151e-01 5.76989412e-01 5.97726703e-01 
