# vtk DataFile Version 2.0
results_case1_non_linear/4_density.vtk, Created by Freefem++ 
ASCII
DATASET UNSTRUCTURED_GRID
POINTS 961 float
0 0 0
0.033333333 0 0
0.066666667 0 0
0.1 0 0
0.13333333 0 0
0.16666667 0 0
0.2 0 0
0.23333333 0 0
0.26666667 0 0
0.3 0 0
0.33333333 0 0
0.36666667 0 0
0.4 0 0
0.43333333 0 0
0.46666667 0 0
0.5 0 0
0.53333333 0 0
0.56666667 0 0
0.6 0 0
0.63333333 0 0
0.66666667 0 0
0.7 0 0
0.73333333 0 0
0.76666667 0 0
0.8 0 0
0.83333333 0 0
0.86666667 0 0
0.9 0 0
0.93333333 0 0
0.96666667 0 0
1 0 0
0 0.033333333 0
0.033333333 0.033333333 0
0.066666667 0.033333333 0
0.1 0.033333333 0
0.13333333 0.033333333 0
0.16666667 0.033333333 0
0.2 0.033333333 0
0.23333333 0.033333333 0
0.26666667 0.033333333 0
0.3 0.033333333 0
0.33333333 0.033333333 0
0.36666667 0.033333333 0
0.4 0.033333333 0
0.43333333 0.033333333 0
0.46666667 0.033333333 0
0.5 0.033333333 0
0.53333333 0.033333333 0
0.56666667 0.033333333 0
0.6 0.033333333 0
0.63333333 0.033333333 0
0.66666667 0.033333333 0
0.7 0.033333333 0
0.73333333 0.033333333 0
0.76666667 0.033333333 0
0.8 0.033333333 0
0.83333333 0.033333333 0
0.86666667 0.033333333 0
0.9 0.033333333 0
0.93333333 0.033333333 0
0.96666667 0.033333333 0
1 0.033333333 0
0 0.066666667 0
0.033333333 0.066666667 0
0.066666667 0.066666667 0
0.1 0.066666667 0
0.13333333 0.066666667 0
0.16666667 0.066666667 0
0.2 0.066666667 0
0.23333333 0.066666667 0
0.26666667 0.066666667 0
0.3 0.066666667 0
0.33333333 0.066666667 0
0.36666667 0.066666667 0
0.4 0.066666667 0
0.43333333 0.066666667 0
0.46666667 0.066666667 0
0.5 0.066666667 0
0.53333333 0.066666667 0
0.56666667 0.066666667 0
0.6 0.066666667 0
0.63333333 0.066666667 0
0.66666667 0.066666667 0
0.7 0.066666667 0
0.73333333 0.066666667 0
0.76666667 0.066666667 0
0.8 0.066666667 0
0.83333333 0.066666667 0
0.86666667 0.066666667 0
0.9 0.066666667 0
0.93333333 0.066666667 0
0.96666667 0.066666667 0
1 0.066666667 0
0 0.1 0
0.033333333 0.1 0
0.066666667 0.1 0
0.1 0.1 0
0.13333333 0.1 0
0.16666667 0.1 0
0.2 0.1 0
0.23333333 0.1 0
0.26666667 0.1 0
0.3 0.1 0
0.33333333 0.1 0
0.36666667 0.1 0
0.4 0.1 0
0.43333333 0.1 0
0.46666667 0.1 0
0.5 0.1 0
0.53333333 0.1 0
0.56666667 0.1 0
0.6 0.1 0
0.63333333 0.1 0
0.66666667 0.1 0
0.7 0.1 0
0.73333333 0.1 0
0.76666667 0.1 0
0.8 0.1 0
0.83333333 0.1 0
0.86666667 0.1 0
0.9 0.1 0
0.93333333 0.1 0
0.96666667 0.1 0
1 0.1 0
0 0.13333333 0
0.033333333 0.13333333 0
0.066666667 0.13333333 0
0.1 0.13333333 0
0.13333333 0.13333333 0
0.16666667 0.13333333 0
0.2 0.13333333 0
0.23333333 0.13333333 0
0.26666667 0.13333333 0
0.3 0.13333333 0
0.33333333 0.13333333 0
0.36666667 0.13333333 0
0.4 0.13333333 0
0.43333333 0.13333333 0
0.46666667 0.13333333 0
0.5 0.13333333 0
0.53333333 0.13333333 0
0.56666667 0.13333333 0
0.6 0.13333333 0
0.63333333 0.13333333 0
0.66666667 0.13333333 0
0.7 0.13333333 0
0.73333333 0.13333333 0
0.76666667 0.13333333 0
0.8 0.13333333 0
0.83333333 0.13333333 0
0.86666667 0.13333333 0
0.9 0.13333333 0
0.93333333 0.13333333 0
0.96666667 0.13333333 0
1 0.13333333 0
0 0.16666667 0
0.033333333 0.16666667 0
0.066666667 0.16666667 0
0.1 0.16666667 0
0.13333333 0.16666667 0
0.16666667 0.16666667 0
0.2 0.16666667 0
0.23333333 0.16666667 0
0.26666667 0.16666667 0
0.3 0.16666667 0
0.33333333 0.16666667 0
0.36666667 0.16666667 0
0.4 0.16666667 0
0.43333333 0.16666667 0
0.46666667 0.16666667 0
0.5 0.16666667 0
0.53333333 0.16666667 0
0.56666667 0.16666667 0
0.6 0.16666667 0
0.63333333 0.16666667 0
0.66666667 0.16666667 0
0.7 0.16666667 0
0.73333333 0.16666667 0
0.76666667 0.16666667 0
0.8 0.16666667 0
0.83333333 0.16666667 0
0.86666667 0.16666667 0
0.9 0.16666667 0
0.93333333 0.16666667 0
0.96666667 0.16666667 0
1 0.16666667 0
0 0.2 0
0.033333333 0.2 0
0.066666667 0.2 0
0.1 0.2 0
0.13333333 0.2 0
0.16666667 0.2 0
0.2 0.2 0
0.23333333 0.2 0
0.26666667 0.2 0
0.3 0.2 0
0.33333333 0.2 0
0.36666667 0.2 0
0.4 0.2 0
0.43333333 0.2 0
0.46666667 0.2 0
0.5 0.2 0
0.53333333 0.2 0
0.56666667 0.2 0
0.6 0.2 0
0.63333333 0.2 0
0.66666667 0.2 0
0.7 0.2 0
0.73333333 0.2 0
0.76666667 0.2 0
0.8 0.2 0
0.83333333 0.2 0
0.86666667 0.2 0
0.9 0.2 0
0.93333333 0.2 0
0.96666667 0.2 0
1 0.2 0
0 0.23333333 0
0.033333333 0.23333333 0
0.066666667 0.23333333 0
0.1 0.23333333 0
0.13333333 0.23333333 0
0.16666667 0.23333333 0
0.2 0.23333333 0
0.23333333 0.23333333 0
0.26666667 0.23333333 0
0.3 0.23333333 0
0.33333333 0.23333333 0
0.36666667 0.23333333 0
0.4 0.23333333 0
0.43333333 0.23333333 0
0.46666667 0.23333333 0
0.5 0.23333333 0
0.53333333 0.23333333 0
0.56666667 0.23333333 0
0.6 0.23333333 0
0.63333333 0.23333333 0
0.66666667 0.23333333 0
0.7 0.23333333 0
0.73333333 0.23333333 0
0.76666667 0.23333333 0
0.8 0.23333333 0
0.83333333 0.23333333 0
0.86666667 0.23333333 0
0.9 0.23333333 0
0.93333333 0.23333333 0
0.96666667 0.23333333 0
1 0.23333333 0
0 0.26666667 0
0.033333333 0.26666667 0
0.066666667 0.26666667 0
0.1 0.26666667 0
0.13333333 0.26666667 0
0.16666667 0.26666667 0
0.2 0.26666667 0
0.23333333 0.26666667 0
0.26666667 0.26666667 0
0.3 0.26666667 0
0.33333333 0.26666667 0
0.36666667 0.26666667 0
0.4 0.26666667 0
0.43333333 0.26666667 0
0.46666667 0.26666667 0
0.5 0.26666667 0
0.53333333 0.26666667 0
0.56666667 0.26666667 0
0.6 0.26666667 0
0.63333333 0.26666667 0
0.66666667 0.26666667 0
0.7 0.26666667 0
0.73333333 0.26666667 0
0.76666667 0.26666667 0
0.8 0.26666667 0
0.83333333 0.26666667 0
0.86666667 0.26666667 0
0.9 0.26666667 0
0.93333333 0.26666667 0
0.96666667 0.26666667 0
1 0.26666667 0
0 0.3 0
0.033333333 0.3 0
0.066666667 0.3 0
0.1 0.3 0
0.13333333 0.3 0
0.16666667 0.3 0
0.2 0.3 0
0.23333333 0.3 0
0.26666667 0.3 0
0.3 0.3 0
0.33333333 0.3 0
0.36666667 0.3 0
0.4 0.3 0
0.43333333 0.3 0
0.46666667 0.3 0
0.5 0.3 0
0.53333333 0.3 0
0.56666667 0.3 0
0.6 0.3 0
0.63333333 0.3 0
0.66666667 0.3 0
0.7 0.3 0
0.73333333 0.3 0
0.76666667 0.3 0
0.8 0.3 0
0.83333333 0.3 0
0.86666667 0.3 0
0.9 0.3 0
0.93333333 0.3 0
0.96666667 0.3 0
1 0.3 0
0 0.33333333 0
0.033333333 0.33333333 0
0.066666667 0.33333333 0
0.1 0.33333333 0
0.13333333 0.33333333 0
0.16666667 0.33333333 0
0.2 0.33333333 0
0.23333333 0.33333333 0
0.26666667 0.33333333 0
0.3 0.33333333 0
0.33333333 0.33333333 0
0.36666667 0.33333333 0
0.4 0.33333333 0
0.43333333 0.33333333 0
0.46666667 0.33333333 0
0.5 0.33333333 0
0.53333333 0.33333333 0
0.56666667 0.33333333 0
0.6 0.33333333 0
0.63333333 0.33333333 0
0.66666667 0.33333333 0
0.7 0.33333333 0
0.73333333 0.33333333 0
0.76666667 0.33333333 0
0.8 0.33333333 0
0.83333333 0.33333333 0
0.86666667 0.33333333 0
0.9 0.33333333 0
0.93333333 0.33333333 0
0.96666667 0.33333333 0
1 0.33333333 0
0 0.36666667 0
0.033333333 0.36666667 0
0.066666667 0.36666667 0
0.1 0.36666667 0
0.13333333 0.36666667 0
0.16666667 0.36666667 0
0.2 0.36666667 0
0.23333333 0.36666667 0
0.26666667 0.36666667 0
0.3 0.36666667 0
0.33333333 0.36666667 0
0.36666667 0.36666667 0
0.4 0.36666667 0
0.43333333 0.36666667 0
0.46666667 0.36666667 0
0.5 0.36666667 0
0.53333333 0.36666667 0
0.56666667 0.36666667 0
0.6 0.36666667 0
0.63333333 0.36666667 0
0.66666667 0.36666667 0
0.7 0.36666667 0
0.73333333 0.36666667 0
0.76666667 0.36666667 0
0.8 0.36666667 0
0.83333333 0.36666667 0
0.86666667 0.36666667 0
0.9 0.36666667 0
0.93333333 0.36666667 0
0.96666667 0.36666667 0
1 0.36666667 0
0 0.4 0
0.033333333 0.4 0
0.066666667 0.4 0
0.1 0.4 0
0.13333333 0.4 0
0.16666667 0.4 0
0.2 0.4 0
0.23333333 0.4 0
0.26666667 0.4 0
0.3 0.4 0
0.33333333 0.4 0
0.36666667 0.4 0
0.4 0.4 0
0.43333333 0.4 0
0.46666667 0.4 0
0.5 0.4 0
0.53333333 0.4 0
0.56666667 0.4 0
0.6 0.4 0
0.63333333 0.4 0
0.66666667 0.4 0
0.7 0.4 0
0.73333333 0.4 0
0.76666667 0.4 0
0.8 0.4 0
0.83333333 0.4 0
0.86666667 0.4 0
0.9 0.4 0
0.93333333 0.4 0
0.96666667 0.4 0
1 0.4 0
0 0.43333333 0
0.033333333 0.43333333 0
0.066666667 0.43333333 0
0.1 0.43333333 0
0.13333333 0.43333333 0
0.16666667 0.43333333 0
0.2 0.43333333 0
0.23333333 0.43333333 0
0.26666667 0.43333333 0
0.3 0.43333333 0
0.33333333 0.43333333 0
0.36666667 0.43333333 0
0.4 0.43333333 0
0.43333333 0.43333333 0
0.46666667 0.43333333 0
0.5 0.43333333 0
0.53333333 0.43333333 0
0.56666667 0.43333333 0
0.6 0.43333333 0
0.63333333 0.43333333 0
0.66666667 0.43333333 0
0.7 0.43333333 0
0.73333333 0.43333333 0
0.76666667 0.43333333 0
0.8 0.43333333 0
0.83333333 0.43333333 0
0.86666667 0.43333333 0
0.9 0.43333333 0
0.93333333 0.43333333 0
0.96666667 0.43333333 0
1 0.43333333 0
0 0.46666667 0
0.033333333 0.46666667 0
0.066666667 0.46666667 0
0.1 0.46666667 0
0.13333333 0.46666667 0
0.16666667 0.46666667 0
0.2 0.46666667 0
0.23333333 0.46666667 0
0.26666667 0.46666667 0
0.3 0.46666667 0
0.33333333 0.46666667 0
0.36666667 0.46666667 0
0.4 0.46666667 0
0.43333333 0.46666667 0
0.46666667 0.46666667 0
0.5 0.46666667 0
0.53333333 0.46666667 0
0.56666667 0.46666667 0
0.6 0.46666667 0
0.63333333 0.46666667 0
0.66666667 0.46666667 0
0.7 0.46666667 0
0.73333333 0.46666667 0
0.76666667 0.46666667 0
0.8 0.46666667 0
0.83333333 0.46666667 0
0.86666667 0.46666667 0
0.9 0.46666667 0
0.93333333 0.46666667 0
0.96666667 0.46666667 0
1 0.46666667 0
0 0.5 0
0.033333333 0.5 0
0.066666667 0.5 0
0.1 0.5 0
0.13333333 0.5 0
0.16666667 0.5 0
0.2 0.5 0
0.23333333 0.5 0
0.26666667 0.5 0
0.3 0.5 0
0.33333333 0.5 0
0.36666667 0.5 0
0.4 0.5 0
0.43333333 0.5 0
0.46666667 0.5 0
0.5 0.5 0
0.53333333 0.5 0
0.56666667 0.5 0
0.6 0.5 0
0.63333333 0.5 0
0.66666667 0.5 0
0.7 0.5 0
0.73333333 0.5 0
0.76666667 0.5 0
0.8 0.5 0
0.83333333 0.5 0
0.86666667 0.5 0
0.9 0.5 0
0.93333333 0.5 0
0.96666667 0.5 0
1 0.5 0
0 0.53333333 0
0.033333333 0.53333333 0
0.066666667 0.53333333 0
0.1 0.53333333 0
0.13333333 0.53333333 0
0.16666667 0.53333333 0
0.2 0.53333333 0
0.23333333 0.53333333 0
0.26666667 0.53333333 0
0.3 0.53333333 0
0.33333333 0.53333333 0
0.36666667 0.53333333 0
0.4 0.53333333 0
0.43333333 0.53333333 0
0.46666667 0.53333333 0
0.5 0.53333333 0
0.53333333 0.53333333 0
0.56666667 0.53333333 0
0.6 0.53333333 0
0.63333333 0.53333333 0
0.66666667 0.53333333 0
0.7 0.53333333 0
0.73333333 0.53333333 0
0.76666667 0.53333333 0
[...]
CELL_DATA 1920
Scalars  Label int 1
LOOKUP_TABLE FreeFempp_table
0
0
0
0
0
0
0
0
0
0
0
0
0
0
0
0
0
0
0
0
0
0
0
0
0
0
0
0
0
0
0
0
0
0
0
0
0
0
0
0
0
0
0
0
0
0
0
0
0
0
0
0
0
0
0
0
0
0
0
0
0
0
0
0
0
0
0
0
0
0
0
0
0
0
0
0
0
0
0
0
0
0
0
0
0
0
0
0
0
0
0
0
0
0
0
0
0
0
0
0
0
0
0
0
0
0
0
0
0
0
0
0
0
0
0
0
0
0
0
0
0
0
0
0
0
0
0
0
0
0
0
0
0
0
0
0
0
0
0
0
0
0
0
0
0
0
0
0
0
0
0
0
0
0
0
0
0
0
0
0
0
0
0
0
0
0
0
0
0
0
0
0
0
0
0
0
0
0
0
0
0
0
0
0
0
0
0
0
0
0
0
0
0
0
0
0
0
0
0
0
0
0
0
0
0
0
0
0
0
0
0
0
0
0
0
0
0
0
0
0
0
0
0
0
0
0
0
0
0
0
0
0
0
0
0
0
0
0
0
0
0
0
0
0
0
0
0
0
0
0
0
0
0
0
0
0
0
0
0
0
0
0
0
0
0
0
0
0
0
0
0
0
0
0
0
0
0
0
0
0
0
0
0
0
0
0
0
0
0
0
0
0
0
0
0
0
0
0
0
0
0
0
0
0
0
0
0
0
0
0
0
0
0
0
0
0
0
0
0
0
0
0
0
0
0
0
0
0
0
0
0
0
0
0
0
0
0
0
0
0
0
0
0
0
0
0
0
0
0
0
0
0
0
0
0
0
0
0
0
0
0
0
0
0
0
0
0
0
0
0
0
0
0
0
0
0
0
0
0
0
0
0
0
0
0
0
0
0
0
0
0
0
0
0
0
0
0
0
0
0
0
0
0
0
0
0
0
0
0
0
0
0
0
0
0
0
0
0
0
0
0
0
0
0
0
0
0
0
0
0
0
0
0
0
0
0
0
0
0
0
0
0
0
0
0
0
0
0
0
0
0
0
0
0
0
0
0
0
0
0
0
0
0
0
0
0
0
0
0
0
0
0
0
0
0
0
0
0
0
0
0
0
0
0
0
0
0
0
0
0
0
0
0
0
0
0
0
0
0
0
0
0
0
0
0
0
0
0
0
0
0
0
0
0
0
0
0
0
0
0
0
0
0
0
0
0
0
0
0
0
0
0
0
0
0
0
0
0
0
0
0
0
0
0
0
0
0
0
0
0
0
0
0
0
0
0
0
0
0
0
0
0
0
0
0
0
0
0
0
0
0
0
0
0
0
0
0
0
0
0
0
0
0
0
0
0
0
0
0
0
0
0
0
0
0
0
0
0
0
0
0
0
0
0
0
0
0
0
0
0
0
0
0
0
0
0
0
0
0
0
0
0
0
0
0
0
0
0
0
0
0
0
0
0
0
0
0
0
0
0
0
0
0
0
0
0
0
0
0
0
0
0
0
0
0
0
0
0
0
0
0
0
0
0
0
0
0
0
0
0
0
0
0
0
0
0
0
0
0
0
0
0
0
0
0
0
0
0
0
0
0
0
0
0
0
0
0
0
0
0
0
0
0
0
0
0
0
0
0
0
0
0
0
0
0
0
0
0
0
0
0
0
0
0
0
0
0
0
0
0
0
0
0
0
0
0
0
0
0
0
0
0
0
0
0
0
0
0
0
0
0
0
0
0
0
0
0
0
0
0
0
0
0
0
0
0
0
0
0
0
0
0
0
0
0
0
0
0
0
0
0
0
0
0
0
0
0
0
0
0
0
0
0
0
0
0
0
0
0
0
0
0
0
0
0
0
0
0
0
0
0
0
0
0
0
0
0
0
0
0
0
0
0
0
0
0
0
0
0
0
0
0
0
0
0
0
0
0
0
0
0
0
0
0
0
0
0
0
0
0
0
0
0
0
0
0
0
0
0
0
0
0
0
0
0
0
0
0
0
0
0
0
0
0
0
0
0
0
0
0
0
0
0
0
0
0
0
0
0
0
0
0
0
0
0
0
0
0
0
0
0
0
0
0
0
0
0
0
0
0
0
0
0
0
0
0
0
0
0
0
0
0
0
0
0
0
0
0
0
0
0
0
0
0
0
0
0
0
0
0
0
0
0
0
0
0
0
0
0
0
0
0
0
0
0
0
0
0
0
0
0
0
0
0
0
0
0
0
0
0
0
0
0
0
0
0
0
0
0
0
0
0
0
0
0
0
0
0
0
0
0
0
0
0
0
0
0
0
0
0
0
0
0
0
0
0
0
0
0
0
0
0
0
0
0
0
0
0
0
0
0
0
0
0
0
0
0
0
0
0
0
0
0
0
0
0
0
0
0
0
0
0
0
0
0
0
0
0
0
0
0
0
0
0
0
0
0
0
0
0
0
0
0
0
0
0
0
0
0
0
0
0
0
0
0
0
0
0
0
0
0
0
0
0
0
0
0
0
0
0
0
0
0
0
0
0
0
0
0
0
0
0
0
0
0
0
0
0
0
0
0
0
0
0
0
0
0
0
0
0
0
0
0
0
0
0
0
0
0
0
0
0
0
0
0
0
0
0
0
0
0
0
0
0
0
0
0
0
0
0
0
0
0
0
0
0
0
0
0
0
0
0
0
0
0
0
0
0
0
0
0
0
0
0
0
0
0
0
0
0
0
0
0
0
0
0
0
0
0
0
0
0
0
0
0
0
0
0
0
0
0
0
0
0
0
0
0
0
0
0
0
0
0
0
0
0
0
0
0
0
0
0
0
0
0
0
0
0
0
0
0
0
0
0
0
0
0
0
0
0
0
0
0
0
0
0
0
0
0
0
0
0
0
0
0
0
0
0
0
0
0
0
0
0
0
0
0
0
0
0
0
0
0
0
0
0
0
0
0
0
0
0
0
0
0
0
0
0
0
0
0
0
0
0
0
0
0
0
0
0
0
0
0
0
0
0
0
0
0
0
0
0
0
0
0
0
0
0
0
0
0
0
0
0
0
0
0
0
0
0
0
0
0
0
0
0
0
0
0
0
0
0
0
0
0
0
0
0
0
0
0
0
0
0
0
0
0
0
0
0
0
0
0
0
0
0
0
0
0
0
0
0
0
0
0
0
0
0
0
0
0
0
0
0
0
0
0
0
0
0
0
0
0
0
0
0
0
0
0
0
0
0
0
0
0
0
0
0
0
0
0
0
0
0
0
0
0
0
0
0
0
0
0
0
0
0
0
0
0
0
0
0
0
0
0
0
0
0
0
0
0
0
0
0
0
0
0
0
0
0
0
0
0
0
0
0
0
0
0
0
0
0
0
0
0
0
0
0
0
0
0
0
0
0
0
0
0
0
0
0
0
0
0
0
0
0
0
0
0
0
0
0
0
0
0
0
0
0
0
0
0
0
0
0
0
0
0
0
0
0
0
0
0
0
0
0
0
0
0
0
0
0
0
0
0
0
0
0
0
0
0
0
0
0
0
0
0
0
0
0
0
0
0
0
0
0
0
0
0
0
0
0
0
0
0
0
0
0
0
0
0
0
0
0
0
0
0
0
0
0
0
0
0
0
0
0
0
0
0
0
0
0
0
0
0
0
0
0
0
0
0
0
0
0
0
0
0
0
0
0
0
0
0
0
0
0
0
0
0
0
0
0
0
0
0
0
0
0
0
0
0
0
0
0
0
0
0
0
0
0
0
0
0
0
0
0
0
0
0
0
0
0
0
0
0
0
0
0
0
0
0
0
0
0
0
0
0
0
0
0
0
0
0
0
0
0
0
0
0
0
0
0
0
0
0
0
0
0
0
0
0
0
0
0
0
0
0
0
0
0
0
0
0
0
0
0
0
0
0
0
0
0
0
0
0
0
0
0
0
0
0
0
0
0
0
0
0
0
0
0
0
0
0
0
0
0
0
0
0
0
0
0
0
0
0
0
0
0
0
0
0
0
0
0
0
0
0
0
0
0
0
0
0
0
0
0
0
0
0
0
0
0
0
0
0
0
0
0
0
0
0
0
0
0
0
0
0
0
0
0
0
0
0
0
0
0
0
0
0
0
0
0
0
0
0
0
0
0
0
0
1
1
1
1
1
1
1
1
1
1
1
1
1
1
1
1
1
1
1
1
1
1
1
1
1
1
1
1
1
1
2
2
2
2
2
2
2
2
2
2
2
2
2
2
2
2
2
2
2
2
2
2
2
2
2
2
2
2
2
2
3
3
3
3
3
3
3
3
3
3
3
3
3
3
3
3
3
3
3
3
3
3
3
3
3
3
3
3
3
3
4
4
4
4
4
4
4
4
4
4
4
4
4
4
4
4
4
4
4
4
4
4
4
4
4
4
4
4
4
4

LOOKUP_TABLE FreeFempp_table 5
1.00000000 0.00000000 0.00000000 1.00000000
1.00000000 1.00000000 0.00000000 1.00000000
1.00000000 0.00000000 1.00000000 1.00000000
0.00000000 1.00000000 0.00000000 1.00000000
0.00000000 1.00000000 1.00000000 1.00000000

POINT_DATA 961
FIELD FieldData 1
Density 1 961 float
4.36432697e-02 2.17190832e-02 4.24578637e-02 4.77122404e-02 4.26957160e-02 3.29411104e-02 1.63818393e-02 1.35187630e-03 6.57342607e-04 6.38759229e-04 6.43929176e-04 8.14811967e-04 9.10751708e-03 2.75433827e-02 2.13671222e-01 9.89338398e-01 9.98257697e-01 9.97452319e-01 9.97611642e-01 9.97603238e-01 9.96478558e-01 9.95489717e-01 9.94302928e-01 9.92502153e-01 9.89836633e-01 9.85896587e-01 9.81106102e-01 9.74766374e-01 9.70638216e-01 9.72449183e-01 9.48907435e-01 2.02457974e-04 5.58692962e-04 4.04040469e-03 4.67020366e-03 4.20359103e-03 3.50359734e-03 2.31173285e-03 6.91886817e-04 5.43256348e-04 5.28110075e-04 5.12218452e-04 6.19095284e-04 1.79621659e-03 3.29623325e-03 6.79189991e-03 9.61893201e-01 9.98736560e-01 4.43047404e-01 7.19086733e-03 9.96989548e-01 9.97813284e-01 9.97179031e-01 9.96755242e-01 9.96131718e-01 9.95159090e-01 9.93384719e-01 9.90037620e-01 9.84647572e-01 9.79458153e-01 9.75770891e-01 9.70220149e-01 1.82353688e-04 1.72712535e-04 3.22200038e-04 3.71108472e-04 2.97327089e-04 2.59803375e-04 2.51116813e-04 2.72056088e-04 3.52090836e-04 3.76974989e-04 3.10592324e-04 3.43211228e-04 2.34844047e-03 4.98487288e-03 4.05358290e-03 1.68806091e-02 9.98778999e-01 6.61370053e-04 6.71519723e-04 6.71721064e-04 6.68048277e-04 6.65143365e-04 6.82479818e-04 2.65184604e-03 2.86126398e-02 2.25408182e-01 5.05660713e-01 5.65997422e-01 6.42791450e-01 5.76988578e-01 8.84082019e-01 1.42363347e-02 2.67464493e-04 2.84861773e-04 3.58726189e-04 3.28293245e-04 2.77976796e-04 2.52671744e-04 2.52770988e-04 3.09204537e-04 4.19043121e-04 3.28841386e-04 1.85145109e-04 1.68343657e-04 1.87198137e-04 3.87164153e-04 1.06879568e-03 9.90476012e-01 9.98243988e-01 6.70200039e-04 6.70133741e-04 6.62431645e-04 6.50825561e-04 6.36402925e-04 6.31157251e-04 6.34250231e-04 6.54480420e-04 1.27752312e-03 1.15970233e-02 2.38212813e-02 2.87546255e-02 4.19170499e-01 2.33206265e-02 7.78052665e-04 5.33630955e-04 5.61229768e-04 6.82251819e-04 1.03870698e-03 1.53141236e-03 2.22848728e-03 3.20354709e-03 4.03996743e-03 2.44091474e-03 4.69701132e-04 2.01433810e-04 1.77369409e-04 1.71028441e-04 1.90378603e-04 2.11250735e-04 4.47270082e-04 9.99199450e-01 6.76735304e-04 6.70961570e-04 6.63301791e-04 6.44300831e-04 6.15329831e-04 5.90882497e-04 6.09838113e-04 6.28155656e-04 6.64893189e-04 2.31599039e-03 3.38276336e-03 4.95686866e-02 1.98663268e-02 9.91386594e-04 6.56861288e-04 6.36757060e-04 7.48365477e-04 1.19067333e-03 1.75364723e-03 2.40882579e-03 3.27082956e-03 4.27764235e-03 4.70918510e-03 4.32566507e-03 4.61485144e-03 3.80249927e-03 4.26892337e-04 2.27999437e-04 2.27446348e-04 1.86707417e-04 1.86133722e-04 9.99171853e-01 1.48950785e-01 1.75089464e-01 3.71826021e-03 6.57926954e-04 6.20239822e-04 6.00031693e-04 6.10976713e-04 6.13120093e-04 6.28662820e-04 8.73655197e-04 3.51264444e-03 4.17396836e-02 1.60093699e-03 1.07009383e-03 9.41831560e-04 1.25851750e-03 2.25540972e-03 3.61177884e-03 4.99223359e-03 6.55825436e-03 8.39172490e-03 9.96484980e-03 1.01496745e-02 1.02372393e-02 1.26051977e-02 1.24988677e-02 1.00953775e-02 4.57014795e-03 4.09294880e-04 1.74833272e-04 1.69340754e-04 9.99163270e-01 9.99121249e-01 9.98902559e-01 9.98381138e-01 2.75030620e-02 6.44350832e-04 6.13785640e-04 6.09958253e-04 6.02614600e-04 5.98298793e-04 1.35343021e-03 2.15336666e-01 5.82087273e-03 4.39129584e-03 4.45218151e-03 5.42615447e-03 9.07514710e-03 1.47810197e-02 2.11396888e-02 2.81998627e-02 3.59117649e-02 4.24449816e-02 4.48224992e-02 4.46200445e-02 4.51052748e-02 4.31301482e-02 4.09333296e-02 3.74420360e-02 2.37297118e-02 3.01758433e-03 1.65930207e-04 1.66361380e-04 4.97793108e-02 9.93777931e-01 9.94555056e-01 9.98813212e-01 9.60861623e-01 6.47189387e-04 6.01448293e-04 5.97975333e-04 6.11113675e-04 1.75281765e-03 8.64454031e-01 2.51447260e-01 2.23771989e-01 2.01606289e-01 2.02866644e-01 2.33778194e-01 2.62453496e-01 2.89844304e-01 3.11817676e-01 3.24304760e-01 3.21876854e-01 3.02944094e-01 2.75912046e-01 2.47930750e-01 2.19492510e-01 1.97176114e-01 1.76703840e-01 1.41168162e-01 8.23827907e-02 5.99806849e-03 1.81604555e-04 2.02676107e-04 6.53928146e-04 6.87186781e-04 6.96403382e-04 9.94327009e-01 9.99158323e-01 6.21532265e-04 5.71862969e-04 6.23590313e-04 1.30254310e-02 9.87140357e-01 9.88719940e-01 9.86803651e-01 9.82837558e-01 9.76075351e-01 9.64495540e-01 9.47916389e-01 9.28967297e-01 9.07599688e-01 8.82360101e-01 8.50756824e-01 8.11204612e-01 7.65262425e-01 7.15885401e-01 6.67974293e-01 6.30098224e-01 6.02488816e-01 5.79744101e-01 5.63329816e-01 5.06593108e-01 1.00422911e-01 3.56421195e-04 5.40262496e-04 6.82416023e-04 7.03799771e-04 6.98564458e-04 9.99184489e-01 6.96336094e-04 5.60337445e-04 5.74316306e-04 5.60636185e-02 9.93292451e-01 9.97318208e-01 9.96728063e-01 9.96108651e-01 9.95039582e-01 9.93201017e-01 9.90250349e-01 9.85954702e-01 9.79929268e-01 9.71598327e-01 9.60096478e-01 9.44606960e-01 9.24906969e-01 9.01606798e-01 8.77018213e-01 8.55369747e-01 8.40260029e-01 8.36149275e-01 8.49067986e-01 8.80786002e-01 9.12695587e-01 8.46871078e-01 6.83367893e-04 6.90181158e-04 7.03206344e-04 7.03365076e-04 7.16877112e-04 9.99417067e-01 5.99250081e-04 2.95989565e-04 1.78647190e-02 9.79016244e-01 9.95392084e-01 9.94378686e-01 9.94397521e-01 9.93969321e-01 9.92970109e-01 9.91225839e-01 9.88581836e-01 9.84791458e-01 9.79452848e-01 9.71975982e-01 9.61761653e-01 9.48419213e-01 9.31934595e-01 9.13097620e-01 8.93734157e-01 8.76779914e-01 8.68109763e-01 8.76190484e-01 9.05288458e-01 9.44776416e-01 9.77929413e-01 9.88735318e-01 1.16823090e-03 6.89446868e-04 6.95843133e-04 6.85301435e-04 7.11064495e-04 9.99175489e-01 2.61084235e-04 4.23942955e-04 5.19990683e-01 5.13378084e-01 6.24604523e-01 8.21374416e-01 9.23596144e-01 9.58459377e-01 9.69671905e-01 9.72553194e-01 9.71364856e-01 9.67142642e-01 9.59842443e-01 9.49137986e-01 9.34758186e-01 9.16644573e-01 8.95099521e-01 8.70721698e-01 8.44869912e-01 8.22029114e-01 8.12083662e-01 8.29200387e-01 8.80499542e-01 9.45646644e-01 9.89984632e-01 9.97410953e-01 6.26223758e-02 6.81014440e-04 6.79868273e-04 7.02286779e-04 9.99203503e-01 5.55361388e-04 5.03619318e-04 2.52920203e-02 3.70079535e-03 4.79500042e-03 9.81809944e-03 3.41439582e-02 1.83391050e-01 5.73141694e-01 8.14143300e-01 8.89530122e-01 9.10487056e-01 9.11174357e-01 9.00901437e-01 8.82804036e-01 8.58651519e-01 8.30142975e-01 7.98792303e-01 7.65760541e-01 7.32386172e-01 7.00515628e-01 6.74280047e-01 6.66311264e-01 7.10354507e-01 8.56800854e-01 9.87122834e-01 9.97967780e-01 9.40463126e-01 6.83788094e-04 7.03014608e-04 9.99334991e-01 5.91377029e-04 5.84067835e-04 4.03024396e-03 8.13151593e-04 8.19260895e-04 1.03016791e-03 1.81543501e-03 5.80342393e-03 3.74215543e-02 2.33135760e-01 5.62955678e-01 7.32661784e-01 7.86514819e-01 7.91230738e-01 7.71076262e-01 7.36318946e-01 6.94252074e-01 6.51495397e-01 6.13410830e-01 5.82539558e-01 5.55943370e-01 5.22501111e-01 4.62089032e-01 3.59201074e-01 2.45956331e-01 2.44775444e-01 6.47770107e-01 9.52028215e-01 5.97573280e-01 9.68990982e-01 9.99192417e-01 5.65837836e-04 5.63870417e-04 1.61101797e-03 6.71451678e-04 6.72533934e-04 6.76064636e-04 7.65504490e-04 1.40502141e-03 5.99166891e-03 4.38458659e-02 2.22627923e-01 4.71528322e-01 6.03710234e-01 6.38842821e-01 6.20526850e-01 5.71758986e-01 5.08623302e-01 4.45682108e-01 3.94501776e-01 3.61312687e-01 3.46167266e-01 3.42045844e-01 3.30758303e-01 2.80180007e-01 1.71395630e-01 7.80042484e-02 5.24665304e-02 1.48559213e-01 8.26980591e-01 9.98639166e-01 9.99163866e-01 5.69329830e-04 5.66862174e-04 9.24553897e-04 6.74821960e-04 6.74758398e-04 6.74800132e-04 6.73419156e-04 8.98126455e-04 2.96724588e-03 1.92165338e-02 1.11751273e-01 3.09993148e-01 4.64819163e-01 5.20520389e-01 5.05645752e-01 4.47283119e-01 3.68380308e-01 2.90861368e-01 2.30299115e-01 1.92385748e-01 1.76395208e-01 1.80366218e-01 2.02255756e-01 2.33807459e-01 2.47724369e-01 2.15579480e-01 2.05272004e-01 5.20891786e-01 9.82689500e-01 9.98940289e-01 9.99147952e-01 5.86790557e-04 5.89130970e-04 7.08145904e-04 6.74544775e-04 6.74502808e-04 6.74588489e-04 6.73215720e-04 8.39112501e-04 2.78861308e-03 1.70341562e-02 9.06286985e-02 2.54747361e-01 4.03333604e-01 4.67338830e-01 4.57802296e-01 3.97772461e-01 3.12003940e-01 2.27589175e-01 1.63820148e-01 1.25632152e-01 1.09778874e-01 1.13959886e-01 1.42532110e-01 2.08953246e-01 3.27573419e-01 4.91441458e-01 7.29768991e-01 9.45969760e-01 9.96288478e-01 9.98983085e-01 9.98263717e-01 6.04473229e-04 6.09401963e-04 6.94930786e-04 6.74203970e-04 6.74226962e-04 6.74378301e-04 6.72815891e-04 9.82741942e-04 4.19443147e-03 2.41452791e-02 1.03211850e-01 2.53146112e-01 3.90980393e-01 4.59993392e-01 4.60975438e-01 4.08791661e-01 3.23696852e-01 2.33747423e-01 1.63492724e-01 1.21423900e-01 1.04629785e-01 1.10953525e-01 1.49655133e-01 2.54936785e-01 4.73137677e-01 7.55621552e-01 9.41676140e-01 9.91811454e-01 9.98258412e-01 9.98840451e-01 3.67298007e-01 6.22438325e-04 6.27941394e-04 6.94560818e-04 6.73649018e-04 6.73733244e-04 6.74215262e-04 6.76313182e-04 1.64355431e-03 9.13869869e-03 4.33880761e-02 1.34494394e-01 2.71236956e-01 3.96422625e-01 4.71975476e-01 4.91849303e-01 4.61422473e-01 3.91579926e-01 3.03882957e-01 2.26127937e-01 1.75825775e-01 1.55989677e-01 1.67105377e-01 2.24589884e-01 3.85595053e-01 6.86406314e-01 9.20602322e-01 9.86620724e-01 9.96900558e-01 9.98471320e-01 9.96215045e-01 6.74243609e-04 6.44713291e-04 6.47863839e-04 6.93805458e-04 6.72596390e-04 6.72807277e-04 6.73989765e-04 8.11097794e-04 4.30122763e-03 2.34564170e-02 7.70696849e-02 1.69614568e-01 2.85502762e-01 3.97530198e-01 4.82491970e-01 5.28885543e-01 5.34317076e-01 5.01783013e-01 4.42187011e-01 3.77771676e-01 3.32908690e-01 3.21054667e-01 3.47818404e-01 4.39316422e-01 6.41065121e-01 8.76394868e-01 9.78825271e-01 9.95508194e-01 9.97915626e-01 9.97675598e-01 4.62728459e-03 6.72962575e-04 6.67183776e-04 6.76531461e-04 6.92112197e-04 6.70246198e-04 6.71694346e-04 6.73720671e-04 1.78734364e-03 1.41985817e-02 5.34136258e-02 1.14571936e-01 1.90771922e-01 2.81961650e-01 3.82606119e-01 4.78757918e-01 5.55358708e-01 6.04349792e-01 6.25730455e-01 6.25849843e-01 6.17998898e-01 6.19712114e-01 6.43943131e-01 7.02419579e-01 8.09732378e-01 9.14741397e-01 9.71297920e-01 9.93578196e-01 9.97441173e-01 9.97321606e-01 4.70569134e-01 6.74821204e-04 6.72686729e-04 6.70908659e-04 6.92309754e-04 6.88421074e-04 6.64261868e-04 6.69803412e-04 7.10863969e-04 6.98301801e-03 4.10786755e-02 9.04689357e-02 1.36546969e-01 1.88246042e-01 2.57711560e-01 3.49274039e-01 4.55760151e-01 5.61591625e-01 6.52617097e-01 7.22779036e-01 7.73113668e-01 8.08626175e-01 8.37448001e-01 8.71641815e-01 9.21943605e-01 9.70589757e-01 9.89494026e-01 9.94073868e-01 9.96280670e-01 9.95466650e-01 3.16494852e-01 6.74754847e-04 6.73218572e-04 6.72159193e-04 6.71559945e-04 6.93652139e-04 6.82001992e-04 6.54077914e-04 6.65530039e-04 1.54577009e-03 2.81347036e-02 8.20406824e-02 1.12216756e-01 1.33019805e-01 1.64136574e-01 2.17476606e-01 3.00135881e-01 4.11545485e-01 5.39667428e-01 6.64488673e-01 7.68404663e-01 8.44216406e-01 8.95695806e-01 9.32900488e-01 9.64164197e-01 9.85698342e-01 9.94975984e-01 9.97346938e-01 9.95819688e-01 6.51000738e-01 6.74863928e-04 6.73488423e-04 6.71078218e-04 6.71875838e-04 6.72636030e-04 6.73299597e-04 6.95893832e-04 6.68646069e-04 6.44210493e-04 6.60576567e-04 7.21264863e-03 7.72335678e-02 1.08647235e-01 1.05835125e-01 1.08802266e-01 1.27853498e-01 1.68958813e-01 2.39370644e-01 3.44815373e-01 4.81557816e-01 6.30172372e-01 7.63043582e-01 8.62285614e-01 9.27159786e-01 9.65824962e-01 9.86263692e-01 9.94547963e-01 9.97541010e-01 9.98086929e-01 9.95427430e-01 1.26748823e-03 6.73985342e-04 6.74409210e-04 6.71790156e-04 6.72067923e-04 6.74311188e-04 6.72335504e-04 2.05016360e-02 6.25090674e-04 6.26493362e-04 6.77162199e-04 3.72397639e-02 1.26658618e-01 9.97105464e-02 7.91302994e-02 7.71723837e-02 9.03558657e-02 1.20310485e-01 1.73422530e-01 2.59393483e-01 3.85273337e-01 5.43252289e-01 7.05375850e-01 8.39160562e-01 9.26929116e-01 9.71587002e-01 9.89423990e-01 9.95624602e-01 9.97620642e-01 9.98349011e-01 9.96996820e-01 1.80076957e-01 6.73466013e-04 6.75327959e-04 6.74310664e-04 6.85470179e-03 9.71925855e-01 9.94478881e-01 9.72954631e-01 5.45711082e-04 5.74285456e-04 1.40991574e-03 1.21884771e-01 1.26930922e-01 6.76117539e-02 5.03074713e-02 5.00296205e-02 5.93949743e-02 7.85004720e-02 1.11888364e-01 1.69181779e-01 2.64519960e-01 4.08003837e-01 5.87758780e-01 7.64062047e-01 8.92884195e-01 9.59738076e-01 9.85250592e-01 9.93726432e-01 9.96670842e-01 9.97688115e-01 9.97927606e-01 9.95870531e-01 9.77893829e-01 9.95036483e-01 9.98776436e-01 9.98981953e-01 9.98792946e-01 9.98641610e-01 9.96179938e-01 4.75161098e-04 5.01824252e-04 5.41523565e-03 2.01996744e-01 8.12422037e-02 3.79422121e-02 3.02564353e-02 3.17240916e-02 3.75949554e-02 4.76073064e-02 6.43076077e-02 9.42086130e-02 1.50509804e-01 2.54313260e-01 4.20994282e-01 6.25312686e-01 8.02761734e-01 9.12617803e-01 9.63942230e-01 9.84279335e-01 9.92228210e-01 9.95585978e-01 9.96978581e-01 9.97505248e-01 9.97792721e-01 9.98392463e-01 9.98606145e-01 9.98445511e-01 9.98091280e-01 9.97952580e-01 9.95323777e-01 4.34187299e-04 4.49617713e-04 2.77087223e-02 1.66348770e-01 3.96015570e-02 2.15890687e-02 1.95887182e-02 2.11969186e-02 2.40475386e-02 2.79624574e-02 3.41772735e-02 4.57133241e-02 6.94598034e-02 1.21500254e-01 2.33007059e-01 4.27111894e-01 6.49405897e-01 8.11711669e-01 9.02210355e-01 9.48880851e-01 9.72852707e-01 9.84814942e-01 9.90397573e-01 9.92140234e-01 9.91210163e-01 9.88740265e-01 9.85194445e-01 9.81307745e-01 9.80208933e-01 9.83163893e-01 9.81877744e-01 4.00109566e-04 4.16872994e-04 1.83323756e-01 8.78808796e-02 2.36486569e-02 1.57451630e-02 1.47365369e-02 1.48302885e-02 1.49590643e-02 1.52421547e-02 1.62457731e-02 1.89663041e-02 2.56344136e-02 4.26993370e-02 9.16450322e-02 2.36163810e-01 5.31474233e-01 7.93930054e-01 9.06542420e-01 9.43869889e-01 9.53158498e-01 9.45987344e-01 9.19989586e-01 8.69153321e-01 7.92402625e-01 7.03583777e-01 6.29421175e-01 5.87696314e-01 5.60677826e-01 5.92882693e-01 8.92913520e-01 5.62049565e-04 4.68565442e-04 9.89489675e-01 5.78133821e-01 3.75503898e-01 2.73288399e-01 2.35179007e-01 2.17000797e-01 2.03406081e-01 1.93014383e-01 1.89350754e-01 1.98441774e-01 2.29918852e-01 2.99954116e-01 4.28895324e-01 6.12197697e-01 7.85530746e-01 8.91242087e-01 9.39112842e-01 9.56708848e-01 9.57345128e-01 9.38746750e-01 8.79395545e-01 7.55975068e-01 6.41561627e-01 6.23661816e-01 6.63309455e-01 6.83006465e-01 6.61294520e-01 6.25813961e-01 7.99951851e-01 
