# vtk DataFile Version 2.0
results_case1_non_linear/iter1.vtk, Created by Freefem++ 
ASCII
DATASET UNSTRUCTURED_GRID
POINTS 961 float
0 0 0
0.033333333 0 0
0.066666667 0 0
0.1 0 0
0.13333333 0 0
0.16666667 0 0
0.2 0 0
0.23333333 0 0
0.26666667 0 0
0.3 0 0
0.33333333 0 0
0.36666667 0 0
0.4 0 0
0.43333333 0 0
0.46666667 0 0
0.5 0 0
0.53333333 0 0
0.56666667 0 0
0.6 0 0
0.63333333 0 0
0.66666667 0 0
0.7 0 0
0.73333333 0 0
0.76666667 0 0
0.8 0 0
0.83333333 0 0
0.86666667 0 0
0.9 0 0
0.93333333 0 0
0.96666667 0 0
1 0 0
0 0.033333333 0
0.033333333 0.033333333 0
0.066666667 0.033333333 0
0.1 0.033333333 0
0.13333333 0.033333333 0
0.16666667 0.033333333 0
0.2 0.033333333 0
0.23333333 0.033333333 0
0.26666667 0.033333333 0
0.3 0.033333333 0
0.33333333 0.033333333 0
0.36666667 0.033333333 0
0.4 0.033333333 0
0.43333333 0.033333333 0
0.46666667 0.033333333 0
0.5 0.033333333 0
0.53333333 0.033333333 0
0.56666667 0.033333333 0
0.6 0.033333333 0
0.63333333 0.033333333 0
0.66666667 0.033333333 0
0.7 0.033333333 0
0.73333333 0.033333333 0
0.76666667 0.033333333 0
0.8 0.033333333 0
0.83333333 0.033333333 0
0.86666667 0.033333333 0
0.9 0.033333333 0
0.93333333 0.033333333 0
0.96666667 0.033333333 0
1 0.033333333 0
0 0.066666667 0
0.033333333 0.066666667 0
0.066666667 0.066666667 0
0.1 0.066666667 0
0.13333333 0.066666667 0
0.16666667 0.066666667 0
0.2 0.066666667 0
0.23333333 0.066666667 0
0.26666667 0.066666667 0
0.3 0.066666667 0
0.33333333 0.066666667 0
0.36666667 0.066666667 0
0.4 0.066666667 0
0.43333333 0.066666667 0
0.46666667 0.066666667 0
0.5 0.066666667 0
0.53333333 0.066666667 0
0.56666667 0.066666667 0
0.6 0.066666667 0
0.63333333 0.066666667 0
0.66666667 0.066666667 0
0.7 0.066666667 0
0.73333333 0.066666667 0
0.76666667 0.066666667 0
0.8 0.066666667 0
0.83333333 0.066666667 0
0.86666667 0.066666667 0
0.9 0.066666667 0
0.93333333 0.066666667 0
0.96666667 0.066666667 0
1 0.066666667 0
0 0.1 0
0.033333333 0.1 0
0.066666667 0.1 0
0.1 0.1 0
0.13333333 0.1 0
0.16666667 0.1 0
0.2 0.1 0
0.23333333 0.1 0
0.26666667 0.1 0
0.3 0.1 0
0.33333333 0.1 0
0.36666667 0.1 0
0.4 0.1 0
0.43333333 0.1 0
0.46666667 0.1 0
0.5 0.1 0
0.53333333 0.1 0
0.56666667 0.1 0
0.6 0.1 0
0.63333333 0.1 0
0.66666667 0.1 0
0.7 0.1 0
0.73333333 0.1 0
0.76666667 0.1 0
0.8 0.1 0
0.83333333 0.1 0
0.86666667 0.1 0
0.9 0.1 0
0.93333333 0.1 0
0.96666667 0.1 0
1 0.1 0
0 0.13333333 0
0.033333333 0.13333333 0
0.066666667 0.13333333 0
0.1 0.13333333 0
0.13333333 0.13333333 0
0.16666667 0.13333333 0
0.2 0.13333333 0
0.23333333 0.13333333 0
0.26666667 0.13333333 0
0.3 0.13333333 0
0.33333333 0.13333333 0
0.36666667 0.13333333 0
0.4 0.13333333 0
0.43333333 0.13333333 0
0.46666667 0.13333333 0
0.5 0.13333333 0
0.53333333 0.13333333 0
0.56666667 0.13333333 0
0.6 0.13333333 0
0.63333333 0.13333333 0
0.66666667 0.13333333 0
0.7 0.13333333 0
0.73333333 0.13333333 0
0.76666667 0.13333333 0
0.8 0.13333333 0
0.83333333 0.13333333 0
0.86666667 0.13333333 0
0.9 0.13333333 0
0.93333333 0.13333333 0
0.96666667 0.13333333 0
1 0.13333333 0
0 0.16666667 0
0.033333333 0.16666667 0
0.066666667 0.16666667 0
0.1 0.16666667 0
0.13333333 0.16666667 0
0.16666667 0.16666667 0
0.2 0.16666667 0
0.23333333 0.16666667 0
0.26666667 0.16666667 0
0.3 0.16666667 0
0.33333333 0.16666667 0
0.36666667 0.16666667 0
0.4 0.16666667 0
0.43333333 0.16666667 0
0.46666667 0.16666667 0
0.5 0.16666667 0
0.53333333 0.16666667 0
0.56666667 0.16666667 0
0.6 0.16666667 0
0.63333333 0.16666667 0
0.66666667 0.16666667 0
0.7 0.16666667 0
0.73333333 0.16666667 0
0.76666667 0.16666667 0
0.8 0.16666667 0
0.83333333 0.16666667 0
0.86666667 0.16666667 0
0.9 0.16666667 0
0.93333333 0.16666667 0
0.96666667 0.16666667 0
1 0.16666667 0
0 0.2 0
0.033333333 0.2 0
0.066666667 0.2 0
0.1 0.2 0
0.13333333 0.2 0
0.16666667 0.2 0
0.2 0.2 0
0.23333333 0.2 0
0.26666667 0.2 0
0.3 0.2 0
0.33333333 0.2 0
0.36666667 0.2 0
0.4 0.2 0
0.43333333 0.2 0
0.46666667 0.2 0
0.5 0.2 0
0.53333333 0.2 0
0.56666667 0.2 0
0.6 0.2 0
0.63333333 0.2 0
0.66666667 0.2 0
0.7 0.2 0
0.73333333 0.2 0
0.76666667 0.2 0
0.8 0.2 0
0.83333333 0.2 0
0.86666667 0.2 0
0.9 0.2 0
0.93333333 0.2 0
0.96666667 0.2 0
1 0.2 0
0 0.23333333 0
0.033333333 0.23333333 0
0.066666667 0.23333333 0
0.1 0.23333333 0
0.13333333 0.23333333 0
0.16666667 0.23333333 0
0.2 0.23333333 0
0.23333333 0.23333333 0
0.26666667 0.23333333 0
0.3 0.23333333 0
0.33333333 0.23333333 0
0.36666667 0.23333333 0
0.4 0.23333333 0
0.43333333 0.23333333 0
0.46666667 0.23333333 0
0.5 0.23333333 0
0.53333333 0.23333333 0
0.56666667 0.23333333 0
0.6 0.23333333 0
0.63333333 0.23333333 0
0.66666667 0.23333333 0
0.7 0.23333333 0
0.73333333 0.23333333 0
0.76666667 0.23333333 0
0.8 0.23333333 0
0.83333333 0.23333333 0
0.86666667 0.23333333 0
0.9 0.23333333 0
0.93333333 0.23333333 0
0.96666667 0.23333333 0
1 0.23333333 0
0 0.26666667 0
0.033333333 0.26666667 0
0.066666667 0.26666667 0
0.1 0.26666667 0
0.13333333 0.26666667 0
0.16666667 0.26666667 0
0.2 0.26666667 0
0.23333333 0.26666667 0
0.26666667 0.26666667 0
0.3 0.26666667 0
0.33333333 0.26666667 0
0.36666667 0.26666667 0
0.4 0.26666667 0
0.43333333 0.26666667 0
0.46666667 0.26666667 0
0.5 0.26666667 0
0.53333333 0.26666667 0
0.56666667 0.26666667 0
0.6 0.26666667 0
0.63333333 0.26666667 0
0.66666667 0.26666667 0
0.7 0.26666667 0
0.73333333 0.26666667 0
0.76666667 0.26666667 0
0.8 0.26666667 0
0.83333333 0.26666667 0
0.86666667 0.26666667 0
0.9 0.26666667 0
0.93333333 0.26666667 0
0.96666667 0.26666667 0
1 0.26666667 0
0 0.3 0
0.033333333 0.3 0
0.066666667 0.3 0
0.1 0.3 0
0.13333333 0.3 0
0.16666667 0.3 0
0.2 0.3 0
0.23333333 0.3 0
0.26666667 0.3 0
0.3 0.3 0
0.33333333 0.3 0
0.36666667 0.3 0
0.4 0.3 0
0.43333333 0.3 0
0.46666667 0.3 0
0.5 0.3 0
0.53333333 0.3 0
0.56666667 0.3 0
0.6 0.3 0
0.63333333 0.3 0
0.66666667 0.3 0
0.7 0.3 0
0.73333333 0.3 0
0.76666667 0.3 0
0.8 0.3 0
0.83333333 0.3 0
0.86666667 0.3 0
0.9 0.3 0
0.93333333 0.3 0
0.96666667 0.3 0
1 0.3 0
0 0.33333333 0
0.033333333 0.33333333 0
0.066666667 0.33333333 0
0.1 0.33333333 0
0.13333333 0.33333333 0
0.16666667 0.33333333 0
0.2 0.33333333 0
0.23333333 0.33333333 0
0.26666667 0.33333333 0
0.3 0.33333333 0
0.33333333 0.33333333 0
0.36666667 0.33333333 0
0.4 0.33333333 0
0.43333333 0.33333333 0
0.46666667 0.33333333 0
0.5 0.33333333 0
0.53333333 0.33333333 0
0.56666667 0.33333333 0
0.6 0.33333333 0
0.63333333 0.33333333 0
0.66666667 0.33333333 0
0.7 0.33333333 0
0.73333333 0.33333333 0
0.76666667 0.33333333 0
0.8 0.33333333 0
0.83333333 0.33333333 0
0.86666667 0.33333333 0
0.9 0.33333333 0
0.93333333 0.33333333 0
0.96666667 0.33333333 0
1 0.33333333 0
0 0.36666667 0
0.033333333 0.36666667 0
0.066666667 0.36666667 0
0.1 0.36666667 0
0.13333333 0.36666667 0
0.16666667 0.36666667 0
0.2 0.36666667 0
0.23333333 0.36666667 0
0.26666667 0.36666667 0
0.3 0.36666667 0
0.33333333 0.36666667 0
0.36666667 0.36666667 0
0.4 0.36666667 0
0.43333333 0.36666667 0
0.46666667 0.36666667 0
0.5 0.36666667 0
0.53333333 0.36666667 0
0.56666667 0.36666667 0
0.6 0.36666667 0
0.63333333 0.36666667 0
0.66666667 0.36666667 0
0.7 0.36666667 0
0.73333333 0.36666667 0
0.76666667 0.36666667 0
0.8 0.36666667 0
0.83333333 0.36666667 0
0.86666667 0.36666667 0
0.9 0.36666667 0
0.93333333 0.36666667 0
0.96666667 0.36666667 0
1 0.36666667 0
0 0.4 0
0.033333333 0.4 0
0.066666667 0.4 0
0.1 0.4 0
0.13333333 0.4 0
0.16666667 0.4 0
0.2 0.4 0
0.23333333 0.4 0
0.26666667 0.4 0
0.3 0.4 0
0.33333333 0.4 0
0.36666667 0.4 0
0.4 0.4 0
0.43333333 0.4 0
0.46666667 0.4 0
0.5 0.4 0
0.53333333 0.4 0
0.56666667 0.4 0
0.6 0.4 0
0.63333333 0.4 0
0.66666667 0.4 0
0.7 0.4 0
0.73333333 0.4 0
0.76666667 0.4 0
0.8 0.4 0
0.83333333 0.4 0
0.86666667 0.4 0
0.9 0.4 0
0.93333333 0.4 0
0.96666667 0.4 0
1 0.4 0
0 0.43333333 0
0.033333333 0.43333333 0
0.066666667 0.43333333 0
0.1 0.43333333 0
0.13333333 0.43333333 0
0.16666667 0.43333333 0
0.2 0.43333333 0
0.23333333 0.43333333 0
0.26666667 0.43333333 0
0.3 0.43333333 0
0.33333333 0.43333333 0
0.36666667 0.43333333 0
0.4 0.43333333 0
0.43333333 0.43333333 0
0.46666667 0.43333333 0
0.5 0.43333333 0
0.53333333 0.43333333 0
0.56666667 0.43333333 0
0.6 0.43333333 0
0.63333333 0.43333333 0
0.66666667 0.43333333 0
0.7 0.43333333 0
0.73333333 0.43333333 0
0.76666667 0.43333333 0
0.8 0.43333333 0
0.83333333 0.43333333 0
0.86666667 0.43333333 0
0.9 0.43333333 0
0.93333333 0.43333333 0
0.96666667 0.43333333 0
1 0.43333333 0
0 0.46666667 0
0.033333333 0.46666667 0
0.066666667 0.46666667 0
0.1 0.46666667 0
0.13333333 0.46666667 0
0.16666667 0.46666667 0
0.2 0.46666667 0
0.23333333 0.46666667 0
0.26666667 0.46666667 0
0.3 0.46666667 0
0.33333333 0.46666667 0
0.36666667 0.46666667 0
0.4 0.46666667 0
0.43333333 0.46666667 0
0.46666667 0.46666667 0
0.5 0.46666667 0
0.53333333 0.46666667 0
0.56666667 0.46666667 0
0.6 0.46666667 0
0.63333333 0.46666667 0
0.66666667 0.46666667 0
0.7 0.46666667 0
0.73333333 0.46666667 0
0.76666667 0.46666667 0
0.8 0.46666667 0
0.83333333 0.46666667 0
0.86666667 0.46666667 0
0.9 0.46666667 0
0.93333333 0.46666667 0
0.96666667 0.46666667 0
1 0.46666667 0
0 0.5 0
0.033333333 0.5 0
0.066666667 0.5 0
0.1 0.5 0
0.13333333 0.5 0
0.16666667 0.5 0
0.2 0.5 0
0.23333333 0.5 0
0.26666667 0.5 0
0.3 0.5 0
0.33333333 0.5 0
0.36666667 0.5 0
0.4 0.5 0
0.43333333 0.5 0
0.46666667 0.5 0
0.5 0.5 0
0.53333333 0.5 0
0.56666667 0.5 0
0.6 0.5 0
0.63333333 0.5 0
0.66666667 0.5 0
0.7 0.5 0
0.73333333 0.5 0
0.76666667 0.5 0
0.8 0.5 0
0.83333333 0.5 0
0.86666667 0.5 0
0.9 0.5 0
0.93333333 0.5 0
0.96666667 0.5 0
1 0.5 0
0 0.53333333 0
0.033333333 0.53333333 0
0.066666667 0.53333333 0
0.1 0.53333333 0
0.13333333 0.53333333 0
0.16666667 0.53333333 0
0.2 0.53333333 0
0.23333333 0.53333333 0
0.26666667 0.53333333 0
0.3 0.53333333 0
0.33333333 0.53333333 0
0.36666667 0.53333333 0
0.4 0.53333333 0
0.43333333 0.53333333 0
0.46666667 0.53333333 0
0.5 0.53333333 0
0.53333333 0.53333333 0
0.56666667 0.53333333 0
0.6 0.53333333 0
0.63333333 0.53333333 0
0.66666667 0.53333333 0
0.7 0.53333333 0
0.73333333 0.53333333 0
0.76666667 0.53333333 0
[...]
CELL_DATA 1920
Scalars  Label int 1
LOOKUP_TABLE FreeFempp_table
0
0
0
0
0
0
0
0
0
0
0
0
0
0
0
0
0
0
0
0
0
0
0
0
0
0
0
0
0
0
0
0
0
0
0
0
0
0
0
0
0
0
0
0
0
0
0
0
0
0
0
0
0
0
0
0
0
0
0
0
0
0
0
0
0
0
0
0
0
0
0
0
0
0
0
0
0
0
0
0
0
0
0
0
0
0
0
0
0
0
0
0
0
0
0
0
0
0
0
0
0
0
0
0
0
0
0
0
0
0
0
0
0
0
0
0
0
0
0
0
0
0
0
0
0
0
0
0
0
0
0
0
0
0
0
0
0
0
0
0
0
0
0
0
0
0
0
0
0
0
0
0
0
0
0
0
0
0
0
0
0
0
0
0
0
0
0
0
0
0
0
0
0
0
0
0
0
0
0
0
0
0
0
0
0
0
0
0
0
0
0
0
0
0
0
0
0
0
0
0
0
0
0
0
0
0
0
0
0
0
0
0
0
0
0
0
0
0
0
0
0
0
0
0
0
0
0
0
0
0
0
0
0
0
0
0
0
0
0
0
0
0
0
0
0
0
0
0
0
0
0
0
0
0
0
0
0
0
0
0
0
0
0
0
0
0
0
0
0
0
0
0
0
0
0
0
0
0
0
0
0
0
0
0
0
0
0
0
0
0
0
0
0
0
0
0
0
0
0
0
0
0
0
0
0
0
0
0
0
0
0
0
0
0
0
0
0
0
0
0
0
0
0
0
0
0
0
0
0
0
0
0
0
0
0
0
0
0
0
0
0
0
0
0
0
0
0
0
0
0
0
0
0
0
0
0
0
0
0
0
0
0
0
0
0
0
0
0
0
0
0
0
0
0
0
0
0
0
0
0
0
0
0
0
0
0
0
0
0
0
0
0
0
0
0
0
0
0
0
0
0
0
0
0
0
0
0
0
0
0
0
0
0
0
0
0
0
0
0
0
0
0
0
0
0
0
0
0
0
0
0
0
0
0
0
0
0
0
0
0
0
0
0
0
0
0
0
0
0
0
0
0
0
0
0
0
0
0
0
0
0
0
0
0
0
0
0
0
0
0
0
0
0
0
0
0
0
0
0
0
0
0
0
0
0
0
0
0
0
0
0
0
0
0
0
0
0
0
0
0
0
0
0
0
0
0
0
0
0
0
0
0
0
0
0
0
0
0
0
0
0
0
0
0
0
0
0
0
0
0
0
0
0
0
0
0
0
0
0
0
0
0
0
0
0
0
0
0
0
0
0
0
0
0
0
0
0
0
0
0
0
0
0
0
0
0
0
0
0
0
0
0
0
0
0
0
0
0
0
0
0
0
0
0
0
0
0
0
0
0
0
0
0
0
0
0
0
0
0
0
0
0
0
0
0
0
0
0
0
0
0
0
0
0
0
0
0
0
0
0
0
0
0
0
0
0
0
0
0
0
0
0
0
0
0
0
0
0
0
0
0
0
0
0
0
0
0
0
0
0
0
0
0
0
0
0
0
0
0
0
0
0
0
0
0
0
0
0
0
0
0
0
0
0
0
0
0
0
0
0
0
0
0
0
0
0
0
0
0
0
0
0
0
0
0
0
0
0
0
0
0
0
0
0
0
0
0
0
0
0
0
0
0
0
0
0
0
0
0
0
0
0
0
0
0
0
0
0
0
0
0
0
0
0
0
0
0
0
0
0
0
0
0
0
0
0
0
0
0
0
0
0
0
0
0
0
0
0
0
0
0
0
0
0
0
0
0
0
0
0
0
0
0
0
0
0
0
0
0
0
0
0
0
0
0
0
0
0
0
0
0
0
0
0
0
0
0
0
0
0
0
0
0
0
0
0
0
0
0
0
0
0
0
0
0
0
0
0
0
0
0
0
0
0
0
0
0
0
0
0
0
0
0
0
0
0
0
0
0
0
0
0
0
0
0
0
0
0
0
0
0
0
0
0
0
0
0
0
0
0
0
0
0
0
0
0
0
0
0
0
0
0
0
0
0
0
0
0
0
0
0
0
0
0
0
0
0
0
0
0
0
0
0
0
0
0
0
0
0
0
0
0
0
0
0
0
0
0
0
0
0
0
0
0
0
0
0
0
0
0
0
0
0
0
0
0
0
0
0
0
0
0
0
0
0
0
0
0
0
0
0
0
0
0
0
0
0
0
0
0
0
0
0
0
0
0
0
0
0
0
0
0
0
0
0
0
0
0
0
0
0
0
0
0
0
0
0
0
0
0
0
0
0
0
0
0
0
0
0
0
0
0
0
0
0
0
0
0
0
0
0
0
0
0
0
0
0
0
0
0
0
0
0
0
0
0
0
0
0
0
0
0
0
0
0
0
0
0
0
0
0
0
0
0
0
0
0
0
0
0
0
0
0
0
0
0
0
0
0
0
0
0
0
0
0
0
0
0
0
0
0
0
0
0
0
0
0
0
0
0
0
0
0
0
0
0
0
0
0
0
0
0
0
0
0
0
0
0
0
0
0
0
0
0
0
0
0
0
0
0
0
0
0
0
0
0
0
0
0
0
0
0
0
0
0
0
0
0
0
0
0
0
0
0
0
0
0
0
0
0
0
0
0
0
0
0
0
0
0
0
0
0
0
0
0
0
0
0
0
0
0
0
0
0
0
0
0
0
0
0
0
0
0
0
0
0
0
0
0
0
0
0
0
0
0
0
0
0
0
0
0
0
0
0
0
0
0
0
0
0
0
0
0
0
0
0
0
0
0
0
0
0
0
0
0
0
0
0
0
0
0
0
0
0
0
0
0
0
0
0
0
0
0
0
0
0
0
0
0
0
0
0
0
0
0
0
0
0
0
0
0
0
0
0
0
0
0
0
0
0
0
0
0
0
0
0
0
0
0
0
0
0
0
0
0
0
0
0
0
0
0
0
0
0
0
0
0
0
0
0
0
0
0
0
0
0
0
0
0
0
0
0
0
0
0
0
0
0
0
0
0
0
0
0
0
0
0
0
0
0
0
0
0
0
0
0
0
0
0
0
0
0
0
0
0
0
0
0
0
0
0
0
0
0
0
0
0
0
0
0
0
0
0
0
0
0
0
0
0
0
0
0
0
0
0
0
0
0
0
0
0
0
0
0
0
0
0
0
0
0
0
0
0
0
0
0
0
0
0
0
0
0
0
0
0
0
0
0
0
0
0
0
0
0
0
0
0
0
0
0
0
0
0
0
0
0
0
0
0
0
0
0
0
0
0
0
0
0
0
0
0
0
0
0
0
0
0
0
0
0
0
0
0
0
0
0
0
0
0
0
0
0
0
0
0
0
0
0
0
0
0
0
0
0
0
0
0
0
0
0
0
0
0
0
0
0
0
0
0
0
0
0
0
0
0
0
0
0
0
0
0
0
0
0
0
0
0
0
0
0
0
0
0
0
0
0
0
0
0
0
0
0
0
0
0
0
0
0
0
0
0
0
0
0
0
0
0
0
0
0
0
0
0
0
0
0
0
0
0
0
0
0
0
0
0
0
0
0
0
0
0
0
0
0
0
0
0
0
0
0
0
0
0
0
0
0
0
0
0
0
0
0
0
0
0
0
0
0
0
0
0
0
0
0
0
0
0
0
0
0
0
0
0
0
0
0
0
0
0
0
0
0
0
0
0
0
0
0
0
0
0
0
0
0
0
0
0
0
0
0
0
0
0
0
0
0
0
0
0
0
0
0
0
0
0
0
0
0
0
0
0
0
0
0
0
0
0
0
0
0
0
0
0
0
0
0
0
0
0
0
0
0
0
0
0
0
0
0
0
0
0
0
0
0
0
0
0
0
0
0
0
0
0
0
0
0
0
0
0
0
0
0
0
0
0
0
0
0
0
0
0
0
0
0
0
0
0
0
0
0
0
0
0
0
0
0
0
0
0
0
0
0
0
0
0
0
0
0
0
0
0
0
0
0
0
0
0
0
0
0
0
0
0
0
0
0
0
0
0
0
0
0
0
0
0
0
0
0
0
0
0
0
0
0
0
0
0
0
0
0
0
0
0
0
0
0
0
0
0
0
0
0
0
0
0
0
0
0
0
0
0
0
0
0
0
0
0
0
0
0
0
0
0
0
0
0
0
0
0
0
1
1
1
1
1
1
1
1
1
1
1
1
1
1
1
1
1
1
1
1
1
1
1
1
1
1
1
1
1
1
2
2
2
2
2
2
2
2
2
2
2
2
2
2
2
2
2
2
2
2
2
2
2
2
2
2
2
2
2
2
3
3
3
3
3
3
3
3
3
3
3
3
3
3
3
3
3
3
3
3
3
3
3
3
3
3
3
3
3
3
4
4
4
4
4
4
4
4
4
4
4
4
4
4
4
4
4
4
4
4
4
4
4
4
4
4
4
4
4
4

LOOKUP_TABLE FreeFempp_table 5
1.00000000 0.00000000 0.00000000 1.00000000
1.00000000 1.00000000 0.00000000 1.00000000
1.00000000 0.00000000 1.00000000 1.00000000
0.00000000 1.00000000 0.00000000 1.00000000
0.00000000 1.00000000 1.00000000 1.00000000

POINT_DATA 961
FIELD FieldData 1
Density 1 961 float
1.64200980e-02 1.61321182e-02 2.08734758e-02 2.62658447e-02 4.15080935e-02 1.33049026e-01 4.61050659e-01 6.02102458e-01 6.35673702e-01 6.42051041e-01 6.39558494e-01 6.26090169e-01 6.01078093e-01 5.75663447e-01 5.56449890e-01 5.39584696e-01 5.17924547e-01 4.89626169e-01 4.60306972e-01 4.42098260e-01 4.49665785e-01 4.93128598e-01 5.72945714e-01 6.79986715e-01 7.95864522e-01 8.89077663e-01 9.45901215e-01 9.34127808e-01 1.50834667e-02 2.06324533e-02 8.19853842e-01 2.01367214e-02 1.04449848e-02 1.25035532e-02 1.31192142e-02 1.25274649e-02 1.21955052e-02 1.27499560e-02 1.32054817e-02 1.38968537e-02 1.65836681e-02 4.42011133e-02 1.17179357e-01 1.38749927e-01 1.31359428e-01 1.25085890e-01 1.21225551e-01 1.12997256e-01 9.95647237e-02 8.56490061e-02 7.68719986e-02 7.76946619e-02 9.64265391e-02 1.57240644e-01 3.16411674e-01 6.03185058e-01 8.58048677e-01 9.54192817e-01 9.64610398e-01 1.36056095e-02 8.82256776e-03 5.89131951e-01 3.22294354e-01 5.03071435e-02 2.88039204e-02 2.31341999e-02 1.88328233e-02 1.43088559e-02 1.29689574e-02 1.29282530e-02 1.29876649e-02 1.14932777e-02 9.95581597e-03 6.62998436e-03 3.40317492e-03 9.52960365e-03 1.99506171e-02 3.00073344e-02 3.42280529e-02 3.18875872e-02 2.48519480e-02 1.75820459e-02 1.72163267e-02 3.45165990e-02 9.65047777e-02 2.67660826e-01 5.83803058e-01 8.54238153e-01 9.43323374e-01 9.40986753e-01 4.95610356e-01 9.50290263e-03 1.56499315e-02 4.97343868e-01 1.74729258e-01 1.28354013e-01 1.38374314e-01 1.66038975e-01 2.01960534e-01 2.31002644e-01 2.31808379e-01 1.80333570e-01 8.11944902e-02 1.97927337e-02 8.07973742e-03 1.62243540e-03 1.15401112e-03 6.36082981e-03 1.27062360e-02 1.51475361e-02 1.17736245e-02 5.39975706e-03 3.02875228e-03 1.15023749e-02 4.10871208e-02 1.19992360e-01 3.06170970e-01 6.10847890e-01 8.55605602e-01 9.38456774e-01 9.30535316e-01 7.23773122e-01 1.24717522e-02 1.38553139e-02 5.21128297e-01 1.85694233e-01 1.22233570e-01 1.22825071e-01 1.47363186e-01 1.86283588e-01 2.24843666e-01 2.48252049e-01 2.50800967e-01 2.37957299e-01 2.11780518e-01 1.54073372e-01 6.98768720e-02 2.88757812e-02 2.01383792e-02 1.94739383e-02 1.65600516e-02 1.29178502e-02 1.14485612e-02 1.64824892e-02 3.47557776e-02 7.85833672e-02 1.73916176e-01 3.62699419e-01 6.37502789e-01 8.52527201e-01 9.31558073e-01 9.28613186e-01 7.52732813e-01 1.21915052e-02 1.36681339e-02 5.46931803e-01 2.13760659e-01 1.56990498e-01 1.54357761e-01 1.70798019e-01 1.98541760e-01 2.27687314e-01 2.47203752e-01 2.52139717e-01 2.43555591e-01 2.26130188e-01 2.03570709e-01 1.77833155e-01 1.50103301e-01 1.22279286e-01 9.73192155e-02 7.58464187e-02 5.96623048e-02 5.22227101e-02 5.73389605e-02 8.03822130e-02 1.32222071e-01 2.34645024e-01 4.15787816e-01 6.58484757e-01 8.48046124e-01 9.25018668e-01 9.28678989e-01 7.87301540e-01 1.20066646e-02 1.37446318e-02 5.70519686e-01 2.47957647e-01 2.00001717e-01 1.97855502e-01 2.07203403e-01 2.22402617e-01 2.40001127e-01 2.53832757e-01 2.58938402e-01 2.53376365e-01 2.37749383e-01 2.15080291e-01 1.92928016e-01 1.78987175e-01 1.69595197e-01 1.54907122e-01 1.33514315e-01 1.12686045e-01 1.01576768e-01 1.06588826e-01 1.33026332e-01 1.89979881e-01 2.94085801e-01 4.62368369e-01 6.74151361e-01 8.42377424e-01 9.18658733e-01 9.29699302e-01 8.15842211e-01 1.21475505e-02 1.39189614e-02 5.89925885e-01 2.83416241e-01 2.46755838e-01 2.42887512e-01 2.45289639e-01 2.50362068e-01 2.58115202e-01 2.66023517e-01 2.69653201e-01 2.65482336e-01 2.52462029e-01 2.32616290e-01 2.11768255e-01 1.96467385e-01 1.86901763e-01 1.76947445e-01 1.62808314e-01 1.48517445e-01 1.42723903e-01 1.53071254e-01 1.85410500e-01 2.47243896e-01 3.50216627e-01 5.03264368e-01 6.86723530e-01 8.36705208e-01 9.12793636e-01 9.30807948e-01 8.38392079e-01 1.24893179e-02 1.42388418e-02 6.06512487e-01 3.17798108e-01 2.94404656e-01 2.88586885e-01 2.85923153e-01 2.85048544e-01 2.86945909e-01 2.90706247e-01 2.92783737e-01 2.89297491e-01 2.78357059e-01 2.61104107e-01 2.41833553e-01 2.25533724e-01 2.13446960e-01 2.02850059e-01 1.91837102e-01 1.83465168e-01 1.84455574e-01 2.01409310e-01 2.39508793e-01 3.04357886e-01 4.03265327e-01 5.39819658e-01 6.97693288e-01 8.31629694e-01 9.07497287e-01 9.31579649e-01 8.54964375e-01 1.28712803e-02 1.46295894e-02 6.24102712e-01 3.54192436e-01 3.45734179e-01 3.39727640e-01 3.35468858e-01 3.32565099e-01 3.31976742e-01 3.33142638e-01 3.33319515e-01 3.29104602e-01 3.18549156e-01 3.02301198e-01 2.83583611e-01 2.66329229e-01 2.52256721e-01 2.40619659e-01 2.31144726e-01 2.26826921e-01 2.33071089e-01 2.55024999e-01 2.96533465e-01 3.61206651e-01 4.52979237e-01 5.72424591e-01 7.07454503e-01 8.27178061e-01 9.02626395e-01 9.31808412e-01 8.66489530e-01 1.32934609e-02 1.50692994e-02 6.47507489e-01 3.99828881e-01 4.08420771e-01 4.03679043e-01 4.00640041e-01 3.97939473e-01 3.96086365e-01 3.94461930e-01 3.91119421e-01 3.83694917e-01 3.70892614e-01 3.53402138e-01 3.33873957e-01 3.15561920e-01 3.00285965e-01 2.88321793e-01 2.80272335e-01 2.78974295e-01 2.88734466e-01 3.13311785e-01 3.55202824e-01 4.16367799e-01 4.98514593e-01 6.01013958e-01 7.15957463e-01 8.23121190e-01 8.97945464e-01 9.31408525e-01 8.73993278e-01 1.37775866e-02 1.55715924e-02 6.80449307e-01 4.63783473e-01 4.91105258e-01 4.86635655e-01 4.84618038e-01 4.81361091e-01 4.76856440e-01 4.70508009e-01 4.61336195e-01 4.48299289e-01 4.31079328e-01 4.10663694e-01 3.89399946e-01 3.70105803e-01 3.54432255e-01 3.42996359e-01 3.36532176e-01 3.37399781e-01 3.48877370e-01 3.73569787e-01 4.12973881e-01 4.67987984e-01 5.39116442e-01 6.25615895e-01 7.23130465e-01 8.19197059e-01 8.93190682e-01 9.30333257e-01 8.78377318e-01 1.42880790e-02 1.61177535e-02 7.23155022e-01 5.53072453e-01 5.96658349e-01 5.87575257e-01 5.82258701e-01 5.74728668e-01 5.64640641e-01 5.51490426e-01 5.35181940e-01 5.15796006e-01 4.93811965e-01 4.70402688e-01 4.47549075e-01 4.27719623e-01 4.12418634e-01 4.01976556e-01 3.96924168e-01 3.98793638e-01 4.10029531e-01 4.32545066e-01 4.67291832e-01 5.14612675e-01 5.74473023e-01 6.46468580e-01 7.28992105e-01 8.15221429e-01 8.88127923e-01 9.28505361e-01 8.80395174e-01 1.48534840e-02 1.67031847e-02 7.70277917e-01 6.62826836e-01 7.10861206e-01 6.90171957e-01 6.76194847e-01 6.61248744e-01 6.44176602e-01 6.24188364e-01 6.01633430e-01 5.77270269e-01 5.52042723e-01 5.27139246e-01 5.04166961e-01 4.85265493e-01 4.71951753e-01 4.63148326e-01 4.58419561e-01 4.59529489e-01 4.68627393e-01 4.87338454e-01 5.16300499e-01 5.55509806e-01 6.04716778e-01 6.63957238e-01 7.33638227e-01 8.11098039e-01 8.82592022e-01 9.25799191e-01 8.80571544e-01 1.55356452e-02 1.73728354e-02 8.10138345e-01 7.63953507e-01 7.99662471e-01 7.64400423e-01 7.42648661e-01 7.22801507e-01 7.01621234e-01 6.77682042e-01 6.51649892e-01 6.24831140e-01 5.98548651e-01 5.74064553e-01 5.52714825e-01 5.36657035e-01 5.28057873e-01 5.20010233e-01 5.16991496e-01 5.15172839e-01 5.21248281e-01 5.35774350e-01 5.58960736e-01 5.90534389e-01 6.30218506e-01 6.78486049e-01 7.37163603e-01 8.06730866e-01 8.76480401e-01 9.22104716e-01 8.79207134e-01 1.63466670e-02 1.81636438e-02 8.24092507e-01 8.09871733e-01 8.24495971e-01 7.79619694e-01 7.62401164e-01 7.48234093e-01 7.30356634e-01 7.07630336e-01 6.81950748e-01 6.55564547e-01 6.30350471e-01 6.07897401e-01 5.89620292e-01 5.77243388e-01 5.69878399e-01 5.63015163e-01 5.61526000e-01 5.60459197e-01 5.64731836e-01 5.76359570e-01 5.94784617e-01 6.19794190e-01 6.51348829e-01 6.90356433e-01 7.39574492e-01 8.01898718e-01 8.69660795e-01 9.17406082e-01 8.76434445e-01 1.73053797e-02 1.90918185e-02 7.76814103e-01 7.20133245e-01 7.03607500e-01 6.90987647e-01 7.16993451e-01 7.32023001e-01 7.29274273e-01 7.14498639e-01 6.93751574e-01 6.71137512e-01 6.49326980e-01 6.30275011e-01 6.15618408e-01 6.06328845e-01 6.02668703e-01 5.97917080e-01 5.96548080e-01 5.93984604e-01 5.98439395e-01 6.08666241e-01 6.23711646e-01 6.43493474e-01 6.68406904e-01 6.99757695e-01 7.40793943e-01 7.96235383e-01 8.61833215e-01 9.11740839e-01 8.72265697e-01 1.84914470e-02 2.01974306e-02 5.77783465e-01 3.48551542e-01 3.38386029e-01 4.61508304e-01 5.97135782e-01 6.74391329e-01 7.00136244e-01 7.00329065e-01 6.89345360e-01 6.74200714e-01 6.58593357e-01 6.44791484e-01 6.34298325e-01 6.27603471e-01 6.23548985e-01 6.20889664e-01 6.18900537e-01 6.19302332e-01 6.24545455e-01 6.33851767e-01 6.46385252e-01 6.62139535e-01 6.81808531e-01 7.06924140e-01 7.40805924e-01 7.89393961e-01 8.52464318e-01 9.04950798e-01 8.66605341e-01 2.00670045e-02 2.15584673e-02 2.21951380e-01 1.13643192e-01 1.32786348e-01 2.73694366e-01 4.67157662e-01 5.95604181e-01 6.51081383e-01 6.69548392e-01 6.71624839e-01 6.66800022e-01 6.59703732e-01 6.52859926e-01 6.47613406e-01 6.44178510e-01 6.41637921e-01 6.39339983e-01 6.38460636e-01 6.40191972e-01 6.45530283e-01 6.53765202e-01 6.64171040e-01 6.76784039e-01 6.92346692e-01 7.12368667e-01 7.39870846e-01 7.81323493e-01 8.40926945e-01 8.96399796e-01 8.59124780e-01 2.23466549e-02 2.33298335e-02 7.46062472e-02 5.47045432e-02 8.82973596e-02 2.25613520e-01 4.04183388e-01 5.31043649e-01 5.98800540e-01 6.31082118e-01 6.45588458e-01 6.51561737e-01 6.53687835e-01 6.54441655e-01 6.55023992e-01 6.55640900e-01 6.55876040e-01 6.55675888e-01 6.56093895e-01 6.58478558e-01 6.63394213e-01 6.70375466e-01 6.78900719e-01 6.88981116e-01 7.01262891e-01 7.17023849e-01 7.38699555e-01 7.72533715e-01 8.26887488e-01 8.85004044e-01 8.49034429e-01 2.56428272e-02 2.57519279e-02 4.40960713e-02 3.80414091e-02 9.81948674e-02 2.68258452e-01 4.01294678e-01 4.97489423e-01 5.58460891e-01 5.94996989e-01 6.17371440e-01 6.31985545e-01 6.42311275e-01 6.50200367e-01 6.56555355e-01 6.61625028e-01 6.65389657e-01 6.68170691e-01 6.70869112e-01 6.74446523e-01 6.79364145e-01 6.85421765e-01 6.92397833e-01 7.00420797e-01 7.10037231e-01 7.22181201e-01 7.38490999e-01 7.64225423e-01 8.10753107e-01 8.69568050e-01 8.34844530e-01 2.97578014e-02 2.89000534e-02 3.50949802e-02 3.26743424e-02 1.66262448e-01 3.39576811e-01 4.22975510e-01 4.87270445e-01 5.33505321e-01 5.66573799e-01 5.91438234e-01 6.11312926e-01 6.27804577e-01 6.41677976e-01 6.53303266e-01 6.62847221e-01 6.70498908e-01 6.76742435e-01 6.82339132e-01 6.87937915e-01 6.93796217e-01 6.99823499e-01 7.05991209e-01 7.12571025e-01 7.20123231e-01 7.29308665e-01 7.40847707e-01 7.58255005e-01 7.93908000e-01 8.49038541e-01 8.13937187e-01 3.42125110e-02 3.26325856e-02 3.07883583e-02 2.94456482e-02 2.70649582e-01 4.06078994e-01 4.50042129e-01 4.88494247e-01 5.19722044e-01 5.46016634e-01 5.69749117e-01 5.91901302e-01 6.12391472e-01 6.30825639e-01 6.46912873e-01 6.60582483e-01 6.72042370e-01 6.81807756e-01 6.90542042e-01 6.98738039e-01 7.06534266e-01 7.13794768e-01 7.20420539e-01 7.26603985e-01 7.32904375e-01 7.39949226e-01 7.47718453e-01 7.57222354e-01 7.78926551e-01 8.22475195e-01 7.81331837e-01 3.91134284e-02 3.71359996e-02 2.76579279e-02 2.64908727e-02 3.65348130e-01 4.61596042e-01 4.74898666e-01 4.93270457e-01 5.11912465e-01 5.31402826e-01 5.52660644e-01 5.75296223e-01 5.98057449e-01 6.19654000e-01 6.39206946e-01 6.56342804e-01 6.71154678e-01 6.84101224e-01 6.95795655e-01 7.06732988e-01 7.17112243e-01 7.26818264e-01 7.35561132e-01 7.43119538e-01 7.49668837e-01 7.55807042e-01 7.61379838e-01 7.64949560e-01 7.70976841e-01 7.89335728e-01 7.23861933e-01 4.54549938e-02 4.31259945e-02 2.52075717e-02 2.36994252e-02 4.44944173e-01 5.05977273e-01 4.94422078e-01 4.97256339e-01 5.06461024e-01 5.20813406e-01 5.39940953e-01 5.62454402e-01 5.86391687e-01 6.09964848e-01 6.31947219e-01 6.51729226e-01 6.69235349e-01 6.84790850e-01 6.98939264e-01 7.12243795e-01 7.25133359e-01 7.37779796e-01 7.49989092e-01 7.61185288e-01 7.70725787e-01 7.78513074e-01 7.84416378e-01 7.86168277e-01 7.81352520e-01 7.57735550e-01 6.08382046e-01 5.49210384e-02 5.25315180e-02 2.34867260e-02 2.14009508e-02 5.08934677e-01 5.38466692e-01 5.06288350e-01 4.97766048e-01 5.01198113e-01 5.13026655e-01 5.31361938e-01 5.53964794e-01 5.78532994e-01 6.03192627e-01 6.26688004e-01 6.48338675e-01 6.67925835e-01 6.85577214e-01 7.01657355e-01 7.16684222e-01 7.31280267e-01 7.46090233e-01 7.61558533e-01 7.77559936e-01 7.93164015e-01 8.07142437e-01 8.18567634e-01 8.25246334e-01 8.23955417e-01 7.74656236e-01 4.44988281e-01 7.35401958e-02 7.18973577e-02 9.94177256e-03 2.00872328e-02 5.59123337e-01 5.56504607e-01 5.08311152e-01 4.93666559e-01 4.95811820e-01 5.08203506e-01 5.27372003e-01 5.50518811e-01 5.75411260e-01 6.00483477e-01 6.24759495e-01 6.47684038e-01 6.68978393e-01 6.88552737e-01 7.06466019e-01 7.22942412e-01 7.38454998e-01 7.53822982e-01 7.70188272e-01 7.88685143e-01 8.09706092e-01 8.32218468e-01 8.54278803e-01 8.72349858e-01 8.83827269e-01 8.62493813e-01 6.05197787e-01 1.90572187e-01 1.49762824e-01 1.96508188e-02 1.92134511e-02 5.99787772e-01 5.58636427e-01 5.01224995e-01 4.87897873e-01 4.93640155e-01 5.09119511e-01 5.29956698e-01 5.53482115e-01 5.78057706e-01 6.02772474e-01 6.27151012e-01 6.50909007e-01 6.73805535e-01 6.95580542e-01 7.15953052e-01 7.34679759e-01 7.51688838e-01 7.67283201e-01 7.82369852e-01 7.98608005e-01 8.18217456e-01 8.42960894e-01 8.72670412e-01 9.03238952e-01 9.27284956e-01 9.38915491e-01 9.22250330e-01 9.54168975e-01 8.05219591e-01 4.32818849e-03 1.32724540e-02 6.11373365e-01 5.52651048e-01 4.96788889e-01 4.92204309e-01 5.03724396e-01 5.21623611e-01 5.42310297e-01 5.64249992e-01 5.86853683e-01 6.09997153e-01 6.33715928e-01 6.58003867e-01 6.82703197e-01 7.07461894e-01 7.31739700e-01 7.54864752e-01 7.76148021e-01 7.95046568e-01 8.11356187e-01 8.25437665e-01 8.38516831e-01 8.53003144e-01 8.72111082e-01 8.97857785e-01 9.20182347e-01 9.46211159e-01 9.70153332e-01 9.84826148e-01 9.89205480e-01 1.40890025e-03 1.79013296e-03 7.55703092e-01 5.51554024e-01 5.36196709e-01 5.32328546e-01 5.40185928e-01 5.52576125e-01 5.67546129e-01 5.84559560e-01 6.03544414e-01 6.24620676e-01 6.47924602e-01 6.73467159e-01 7.01027393e-01 7.30087280e-01 7.59815097e-01 7.89114356e-01 8.16750884e-01 8.41535628e-01 8.62488687e-01 8.78899455e-01 8.90228093e-01 8.95826697e-01 8.94352376e-01 8.81653726e-01 8.41282129e-01 7.61303782e-01 8.68834734e-01 1.04279637e-01 2.99405903e-01 7.89603218e-02 1.05435951e-02 9.52968776e-01 7.95094252e-01 7.78766155e-01 7.62822509e-01 7.54159629e-01 7.52999604e-01 7.55532801e-01 7.60343373e-01 7.66815186e-01 7.74677753e-01 7.83803225e-01 7.94096291e-01 8.05433035e-01 8.17631245e-01 8.30439329e-01 8.43535721e-01 8.56533349e-01 8.68988216e-01 8.80405068e-01 8.90224278e-01 8.97757292e-01 9.01996672e-01 9.01134849e-01 8.91250789e-01 8.62168670e-01 7.95480311e-01 7.76049554e-01 1.96571290e-01 1.65930048e-01 
