# vtk DataFile Version 2.0
results/iter9.vtk, Created by Freefem++ 
ASCII
DATASET UNSTRUCTURED_GRID
POINTS 961 float
0 0 0
0.033333333 0 0
0.066666667 0 0
0.1 0 0
0.13333333 0 0
0.16666667 0 0
0.2 0 0
0.23333333 0 0
0.26666667 0 0
0.3 0 0
0.33333333 0 0
0.36666667 0 0
0.4 0 0
0.43333333 0 0
0.46666667 0 0
0.5 0 0
0.53333333 0 0
0.56666667 0 0
0.6 0 0
0.63333333 0 0
0.66666667 0 0
0.7 0 0
0.73333333 0 0
0.76666667 0 0
0.8 0 0
0.83333333 0 0
0.86666667 0 0
0.9 0 0
0.93333333 0 0
0.96666667 0 0
1 0 0
0 0.033333333 0
0.033333333 0.033333333 0
0.066666667 0.033333333 0
0.1 0.033333333 0
0.13333333 0.033333333 0
0.16666667 0.033333333 0
0.2 0.033333333 0
0.23333333 0.033333333 0
0.26666667 0.033333333 0
0.3 0.033333333 0
0.33333333 0.033333333 0
0.36666667 0.033333333 0
0.4 0.033333333 0
0.43333333 0.033333333 0
0.46666667 0.033333333 0
0.5 0.033333333 0
0.53333333 0.033333333 0
0.56666667 0.033333333 0
0.6 0.033333333 0
0.63333333 0.033333333 0
0.66666667 0.033333333 0
0.7 0.033333333 0
0.73333333 0.033333333 0
0.76666667 0.033333333 0
0.8 0.033333333 0
0.83333333 0.033333333 0
0.86666667 0.033333333 0
0.9 0.033333333 0
0.93333333 0.033333333 0
0.96666667 0.033333333 0
1 0.033333333 0
0 0.066666667 0
0.033333333 0.066666667 0
0.066666667 0.066666667 0
0.1 0.066666667 0
0.13333333 0.066666667 0
0.16666667 0.066666667 0
0.2 0.066666667 0
0.23333333 0.066666667 0
0.26666667 0.066666667 0
0.3 0.066666667 0
0.33333333 0.066666667 0
0.36666667 0.066666667 0
0.4 0.066666667 0
0.43333333 0.066666667 0
0.46666667 0.066666667 0
0.5 0.066666667 0
0.53333333 0.066666667 0
0.56666667 0.066666667 0
0.6 0.066666667 0
0.63333333 0.066666667 0
0.66666667 0.066666667 0
0.7 0.066666667 0
0.73333333 0.066666667 0
0.76666667 0.066666667 0
0.8 0.066666667 0
0.83333333 0.066666667 0
0.86666667 0.066666667 0
0.9 0.066666667 0
0.93333333 0.066666667 0
0.96666667 0.066666667 0
1 0.066666667 0
0 0.1 0
0.033333333 0.1 0
0.066666667 0.1 0
0.1 0.1 0
0.13333333 0.1 0
0.16666667 0.1 0
0.2 0.1 0
0.23333333 0.1 0
0.26666667 0.1 0
0.3 0.1 0
0.33333333 0.1 0
0.36666667 0.1 0
0.4 0.1 0
0.43333333 0.1 0
0.46666667 0.1 0
0.5 0.1 0
0.53333333 0.1 0
0.56666667 0.1 0
0.6 0.1 0
0.63333333 0.1 0
0.66666667 0.1 0
0.7 0.1 0
0.73333333 0.1 0
0.76666667 0.1 0
0.8 0.1 0
0.83333333 0.1 0
0.86666667 0.1 0
0.9 0.1 0
0.93333333 0.1 0
0.96666667 0.1 0
1 0.1 0
0 0.13333333 0
0.033333333 0.13333333 0
0.066666667 0.13333333 0
0.1 0.13333333 0
0.13333333 0.13333333 0
0.16666667 0.13333333 0
0.2 0.13333333 0
0.23333333 0.13333333 0
0.26666667 0.13333333 0
0.3 0.13333333 0
0.33333333 0.13333333 0
0.36666667 0.13333333 0
0.4 0.13333333 0
0.43333333 0.13333333 0
0.46666667 0.13333333 0
0.5 0.13333333 0
0.53333333 0.13333333 0
0.56666667 0.13333333 0
0.6 0.13333333 0
0.63333333 0.13333333 0
0.66666667 0.13333333 0
0.7 0.13333333 0
0.73333333 0.13333333 0
0.76666667 0.13333333 0
0.8 0.13333333 0
0.83333333 0.13333333 0
0.86666667 0.13333333 0
0.9 0.13333333 0
0.93333333 0.13333333 0
0.96666667 0.13333333 0
1 0.13333333 0
0 0.16666667 0
0.033333333 0.16666667 0
0.066666667 0.16666667 0
0.1 0.16666667 0
0.13333333 0.16666667 0
0.16666667 0.16666667 0
0.2 0.16666667 0
0.23333333 0.16666667 0
0.26666667 0.16666667 0
0.3 0.16666667 0
0.33333333 0.16666667 0
0.36666667 0.16666667 0
0.4 0.16666667 0
0.43333333 0.16666667 0
0.46666667 0.16666667 0
0.5 0.16666667 0
0.53333333 0.16666667 0
0.56666667 0.16666667 0
0.6 0.16666667 0
0.63333333 0.16666667 0
0.66666667 0.16666667 0
0.7 0.16666667 0
0.73333333 0.16666667 0
0.76666667 0.16666667 0
0.8 0.16666667 0
0.83333333 0.16666667 0
0.86666667 0.16666667 0
0.9 0.16666667 0
0.93333333 0.16666667 0
0.96666667 0.16666667 0
1 0.16666667 0
0 0.2 0
0.033333333 0.2 0
0.066666667 0.2 0
0.1 0.2 0
0.13333333 0.2 0
0.16666667 0.2 0
0.2 0.2 0
0.23333333 0.2 0
0.26666667 0.2 0
0.3 0.2 0
0.33333333 0.2 0
0.36666667 0.2 0
0.4 0.2 0
0.43333333 0.2 0
0.46666667 0.2 0
0.5 0.2 0
0.53333333 0.2 0
0.56666667 0.2 0
0.6 0.2 0
0.63333333 0.2 0
0.66666667 0.2 0
0.7 0.2 0
0.73333333 0.2 0
0.76666667 0.2 0
0.8 0.2 0
0.83333333 0.2 0
0.86666667 0.2 0
0.9 0.2 0
0.93333333 0.2 0
0.96666667 0.2 0
1 0.2 0
0 0.23333333 0
0.033333333 0.23333333 0
0.066666667 0.23333333 0
0.1 0.23333333 0
0.13333333 0.23333333 0
0.16666667 0.23333333 0
0.2 0.23333333 0
0.23333333 0.23333333 0
0.26666667 0.23333333 0
0.3 0.23333333 0
0.33333333 0.23333333 0
0.36666667 0.23333333 0
0.4 0.23333333 0
0.43333333 0.23333333 0
0.46666667 0.23333333 0
0.5 0.23333333 0
0.53333333 0.23333333 0
0.56666667 0.23333333 0
0.6 0.23333333 0
0.63333333 0.23333333 0
0.66666667 0.23333333 0
0.7 0.23333333 0
0.73333333 0.23333333 0
0.76666667 0.23333333 0
0.8 0.23333333 0
0.83333333 0.23333333 0
0.86666667 0.23333333 0
0.9 0.23333333 0
0.93333333 0.23333333 0
0.96666667 0.23333333 0
1 0.23333333 0
0 0.26666667 0
0.033333333 0.26666667 0
0.066666667 0.26666667 0
0.1 0.26666667 0
0.13333333 0.26666667 0
0.16666667 0.26666667 0
0.2 0.26666667 0
0.23333333 0.26666667 0
0.26666667 0.26666667 0
0.3 0.26666667 0
0.33333333 0.26666667 0
0.36666667 0.26666667 0
0.4 0.26666667 0
0.43333333 0.26666667 0
0.46666667 0.26666667 0
0.5 0.26666667 0
0.53333333 0.26666667 0
0.56666667 0.26666667 0
0.6 0.26666667 0
0.63333333 0.26666667 0
0.66666667 0.26666667 0
0.7 0.26666667 0
0.73333333 0.26666667 0
0.76666667 0.26666667 0
0.8 0.26666667 0
0.83333333 0.26666667 0
0.86666667 0.26666667 0
0.9 0.26666667 0
0.93333333 0.26666667 0
0.96666667 0.26666667 0
1 0.26666667 0
0 0.3 0
0.033333333 0.3 0
0.066666667 0.3 0
0.1 0.3 0
0.13333333 0.3 0
0.16666667 0.3 0
0.2 0.3 0
0.23333333 0.3 0
0.26666667 0.3 0
0.3 0.3 0
0.33333333 0.3 0
0.36666667 0.3 0
0.4 0.3 0
0.43333333 0.3 0
0.46666667 0.3 0
0.5 0.3 0
0.53333333 0.3 0
0.56666667 0.3 0
0.6 0.3 0
0.63333333 0.3 0
0.66666667 0.3 0
0.7 0.3 0
0.73333333 0.3 0
0.76666667 0.3 0
0.8 0.3 0
0.83333333 0.3 0
0.86666667 0.3 0
0.9 0.3 0
0.93333333 0.3 0
0.96666667 0.3 0
1 0.3 0
0 0.33333333 0
0.033333333 0.33333333 0
0.066666667 0.33333333 0
0.1 0.33333333 0
0.13333333 0.33333333 0
0.16666667 0.33333333 0
0.2 0.33333333 0
0.23333333 0.33333333 0
0.26666667 0.33333333 0
0.3 0.33333333 0
0.33333333 0.33333333 0
0.36666667 0.33333333 0
0.4 0.33333333 0
0.43333333 0.33333333 0
0.46666667 0.33333333 0
0.5 0.33333333 0
0.53333333 0.33333333 0
0.56666667 0.33333333 0
0.6 0.33333333 0
0.63333333 0.33333333 0
0.66666667 0.33333333 0
0.7 0.33333333 0
0.73333333 0.33333333 0
0.76666667 0.33333333 0
0.8 0.33333333 0
0.83333333 0.33333333 0
0.86666667 0.33333333 0
0.9 0.33333333 0
0.93333333 0.33333333 0
0.96666667 0.33333333 0
1 0.33333333 0
0 0.36666667 0
0.033333333 0.36666667 0
0.066666667 0.36666667 0
0.1 0.36666667 0
0.13333333 0.36666667 0
0.16666667 0.36666667 0
0.2 0.36666667 0
0.23333333 0.36666667 0
0.26666667 0.36666667 0
0.3 0.36666667 0
0.33333333 0.36666667 0
0.36666667 0.36666667 0
0.4 0.36666667 0
0.43333333 0.36666667 0
0.46666667 0.36666667 0
0.5 0.36666667 0
0.53333333 0.36666667 0
0.56666667 0.36666667 0
0.6 0.36666667 0
0.63333333 0.36666667 0
0.66666667 0.36666667 0
0.7 0.36666667 0
0.73333333 0.36666667 0
0.76666667 0.36666667 0
0.8 0.36666667 0
0.83333333 0.36666667 0
0.86666667 0.36666667 0
0.9 0.36666667 0
0.93333333 0.36666667 0
0.96666667 0.36666667 0
1 0.36666667 0
0 0.4 0
0.033333333 0.4 0
0.066666667 0.4 0
0.1 0.4 0
0.13333333 0.4 0
0.16666667 0.4 0
0.2 0.4 0
0.23333333 0.4 0
0.26666667 0.4 0
0.3 0.4 0
0.33333333 0.4 0
0.36666667 0.4 0
0.4 0.4 0
0.43333333 0.4 0
0.46666667 0.4 0
0.5 0.4 0
0.53333333 0.4 0
0.56666667 0.4 0
0.6 0.4 0
0.63333333 0.4 0
0.66666667 0.4 0
0.7 0.4 0
0.73333333 0.4 0
0.76666667 0.4 0
0.8 0.4 0
0.83333333 0.4 0
0.86666667 0.4 0
0.9 0.4 0
0.93333333 0.4 0
0.96666667 0.4 0
1 0.4 0
0 0.43333333 0
0.033333333 0.43333333 0
0.066666667 0.43333333 0
0.1 0.43333333 0
0.13333333 0.43333333 0
0.16666667 0.43333333 0
0.2 0.43333333 0
0.23333333 0.43333333 0
0.26666667 0.43333333 0
0.3 0.43333333 0
0.33333333 0.43333333 0
0.36666667 0.43333333 0
0.4 0.43333333 0
0.43333333 0.43333333 0
0.46666667 0.43333333 0
0.5 0.43333333 0
0.53333333 0.43333333 0
0.56666667 0.43333333 0
0.6 0.43333333 0
0.63333333 0.43333333 0
0.66666667 0.43333333 0
0.7 0.43333333 0
0.73333333 0.43333333 0
0.76666667 0.43333333 0
0.8 0.43333333 0
0.83333333 0.43333333 0
0.86666667 0.43333333 0
0.9 0.43333333 0
0.93333333 0.43333333 0
0.96666667 0.43333333 0
1 0.43333333 0
0 0.46666667 0
0.033333333 0.46666667 0
0.066666667 0.46666667 0
0.1 0.46666667 0
0.13333333 0.46666667 0
0.16666667 0.46666667 0
0.2 0.46666667 0
0.23333333 0.46666667 0
0.26666667 0.46666667 0
0.3 0.46666667 0
0.33333333 0.46666667 0
0.36666667 0.46666667 0
0.4 0.46666667 0
0.43333333 0.46666667 0
0.46666667 0.46666667 0
0.5 0.46666667 0
0.53333333 0.46666667 0
0.56666667 0.46666667 0
0.6 0.46666667 0
0.63333333 0.46666667 0
0.66666667 0.46666667 0
0.7 0.46666667 0
0.73333333 0.46666667 0
0.76666667 0.46666667 0
0.8 0.46666667 0
0.83333333 0.46666667 0
0.86666667 0.46666667 0
0.9 0.46666667 0
0.93333333 0.46666667 0
0.96666667 0.46666667 0
1 0.46666667 0
0 0.5 0
0.033333333 0.5 0
0.066666667 0.5 0
0.1 0.5 0
0.13333333 0.5 0
0.16666667 0.5 0
0.2 0.5 0
0.23333333 0.5 0
0.26666667 0.5 0
0.3 0.5 0
0.33333333 0.5 0
0.36666667 0.5 0
0.4 0.5 0
0.43333333 0.5 0
0.46666667 0.5 0
0.5 0.5 0
0.53333333 0.5 0
0.56666667 0.5 0
0.6 0.5 0
0.63333333 0.5 0
0.66666667 0.5 0
0.7 0.5 0
0.73333333 0.5 0
0.76666667 0.5 0
0.8 0.5 0
0.83333333 0.5 0
0.86666667 0.5 0
0.9 0.5 0
0.93333333 0.5 0
0.96666667 0.5 0
1 0.5 0
0 0.53333333 0
0.033333333 0.53333333 0
0.066666667 0.53333333 0
0.1 0.53333333 0
0.13333333 0.53333333 0
0.16666667 0.53333333 0
0.2 0.53333333 0
0.23333333 0.53333333 0
0.26666667 0.53333333 0
0.3 0.53333333 0
0.33333333 0.53333333 0
0.36666667 0.53333333 0
0.4 0.53333333 0
0.43333333 0.53333333 0
0.46666667 0.53333333 0
0.5 0.53333333 0
0.53333333 0.53333333 0
0.56666667 0.53333333 0
0.6 0.53333333 0
0.63333333 0.53333333 0
0.66666667 0.53333333 0
0.7 0.53333333 0
0.73333333 0.53333333 0
0.76666667 0.53333333 0
0.8 0.53333333 0
[...]
CELL_DATA 1920
Scalars  Label int 1
LOOKUP_TABLE FreeFempp_table
0
0
0
0
0
0
0
0
0
0
0
0
0
0
0
0
0
0
0
0
0
0
0
0
0
0
0
0
0
0
0
0
0
0
0
0
0
0
0
0
0
0
0
0
0
0
0
0
0
0
0
0
0
0
0
0
0
0
0
0
0
0
0
0
0
0
0
0
0
0
0
0
0
0
0
0
0
0
0
0
0
0
0
0
0
0
0
0
0
0
0
0
0
0
0
0
0
0
0
0
0
0
0
0
0
0
0
0
0
0
0
0
0
0
0
0
0
0
0
0
0
0
0
0
0
0
0
0
0
0
0
0
0
0
0
0
0
0
0
0
0
0
0
0
0
0
0
0
0
0
0
0
0
0
0
0
0
0
0
0
0
0
0
0
0
0
0
0
0
0
0
0
0
0
0
0
0
0
0
0
0
0
0
0
0
0
0
0
0
0
0
0
0
0
0
0
0
0
0
0
0
0
0
0
0
0
0
0
0
0
0
0
0
0
0
0
0
0
0
0
0
0
0
0
0
0
0
0
0
0
0
0
0
0
0
0
0
0
0
0
0
0
0
0
0
0
0
0
0
0
0
0
0
0
0
0
0
0
0
0
0
0
0
0
0
0
0
0
0
0
0
0
0
0
0
0
0
0
0
0
0
0
0
0
0
0
0
0
0
0
0
0
0
0
0
0
0
0
0
0
0
0
0
0
0
0
0
0
0
0
0
0
0
0
0
0
0
0
0
0
0
0
0
0
0
0
0
0
0
0
0
0
0
0
0
0
0
0
0
0
0
0
0
0
0
0
0
0
0
0
0
0
0
0
0
0
0
0
0
0
0
0
0
0
0
0
0
0
0
0
0
0
0
0
0
0
0
0
0
0
0
0
0
0
0
0
0
0
0
0
0
0
0
0
0
0
0
0
0
0
0
0
0
0
0
0
0
0
0
0
0
0
0
0
0
0
0
0
0
0
0
0
0
0
0
0
0
0
0
0
0
0
0
0
0
0
0
0
0
0
0
0
0
0
0
0
0
0
0
0
0
0
0
0
0
0
0
0
0
0
0
0
0
0
0
0
0
0
0
0
0
0
0
0
0
0
0
0
0
0
0
0
0
0
0
0
0
0
0
0
0
0
0
0
0
0
0
0
0
0
0
0
0
0
0
0
0
0
0
0
0
0
0
0
0
0
0
0
0
0
0
0
0
0
0
0
0
0
0
0
0
0
0
0
0
0
0
0
0
0
0
0
0
0
0
0
0
0
0
0
0
0
0
0
0
0
0
0
0
0
0
0
0
0
0
0
0
0
0
0
0
0
0
0
0
0
0
0
0
0
0
0
0
0
0
0
0
0
0
0
0
0
0
0
0
0
0
0
0
0
0
0
0
0
0
0
0
0
0
0
0
0
0
0
0
0
0
0
0
0
0
0
0
0
0
0
0
0
0
0
0
0
0
0
0
0
0
0
0
0
0
0
0
0
0
0
0
0
0
0
0
0
0
0
0
0
0
0
0
0
0
0
0
0
0
0
0
0
0
0
0
0
0
0
0
0
0
0
0
0
0
0
0
0
0
0
0
0
0
0
0
0
0
0
0
0
0
0
0
0
0
0
0
0
0
0
0
0
0
0
0
0
0
0
0
0
0
0
0
0
0
0
0
0
0
0
0
0
0
0
0
0
0
0
0
0
0
0
0
0
0
0
0
0
0
0
0
0
0
0
0
0
0
0
0
0
0
0
0
0
0
0
0
0
0
0
0
0
0
0
0
0
0
0
0
0
0
0
0
0
0
0
0
0
0
0
0
0
0
0
0
0
0
0
0
0
0
0
0
0
0
0
0
0
0
0
0
0
0
0
0
0
0
0
0
0
0
0
0
0
0
0
0
0
0
0
0
0
0
0
0
0
0
0
0
0
0
0
0
0
0
0
0
0
0
0
0
0
0
0
0
0
0
0
0
0
0
0
0
0
0
0
0
0
0
0
0
0
0
0
0
0
0
0
0
0
0
0
0
0
0
0
0
0
0
0
0
0
0
0
0
0
0
0
0
0
0
0
0
0
0
0
0
0
0
0
0
0
0
0
0
0
0
0
0
0
0
0
0
0
0
0
0
0
0
0
0
0
0
0
0
0
0
0
0
0
0
0
0
0
0
0
0
0
0
0
0
0
0
0
0
0
0
0
0
0
0
0
0
0
0
0
0
0
0
0
0
0
0
0
0
0
0
0
0
0
0
0
0
0
0
0
0
0
0
0
0
0
0
0
0
0
0
0
0
0
0
0
0
0
0
0
0
0
0
0
0
0
0
0
0
0
0
0
0
0
0
0
0
0
0
0
0
0
0
0
0
0
0
0
0
0
0
0
0
0
0
0
0
0
0
0
0
0
0
0
0
0
0
0
0
0
0
0
0
0
0
0
0
0
0
0
0
0
0
0
0
0
0
0
0
0
0
0
0
0
0
0
0
0
0
0
0
0
0
0
0
0
0
0
0
0
0
0
0
0
0
0
0
0
0
0
0
0
0
0
0
0
0
0
0
0
0
0
0
0
0
0
0
0
0
0
0
0
0
0
0
0
0
0
0
0
0
0
0
0
0
0
0
0
0
0
0
0
0
0
0
0
0
0
0
0
0
0
0
0
0
0
0
0
0
0
0
0
0
0
0
0
0
0
0
0
0
0
0
0
0
0
0
0
0
0
0
0
0
0
0
0
0
0
0
0
0
0
0
0
0
0
0
0
0
0
0
0
0
0
0
0
0
0
0
0
0
0
0
0
0
0
0
0
0
0
0
0
0
0
0
0
0
0
0
0
0
0
0
0
0
0
0
0
0
0
0
0
0
0
0
0
0
0
0
0
0
0
0
0
0
0
0
0
0
0
0
0
0
0
0
0
0
0
0
0
0
0
0
0
0
0
0
0
0
0
0
0
0
0
0
0
0
0
0
0
0
0
0
0
0
0
0
0
0
0
0
0
0
0
0
0
0
0
0
0
0
0
0
0
0
0
0
0
0
0
0
0
0
0
0
0
0
0
0
0
0
0
0
0
0
0
0
0
0
0
0
0
0
0
0
0
0
0
0
0
0
0
0
0
0
0
0
0
0
0
0
0
0
0
0
0
0
0
0
0
0
0
0
0
0
0
0
0
0
0
0
0
0
0
0
0
0
0
0
0
0
0
0
0
0
0
0
0
0
0
0
0
0
0
0
0
0
0
0
0
0
0
0
0
0
0
0
0
0
0
0
0
0
0
0
0
0
0
0
0
0
0
0
0
0
0
0
0
0
0
0
0
0
0
0
0
0
0
0
0
0
0
0
0
0
0
0
0
0
0
0
0
0
0
0
0
0
0
0
0
0
0
0
0
0
0
0
0
0
0
0
0
0
0
0
0
0
0
0
0
0
0
0
0
0
0
0
0
0
0
0
0
0
0
0
0
0
0
0
0
0
0
0
0
0
0
0
0
0
0
0
0
0
0
0
0
0
0
0
0
0
0
0
0
0
0
0
0
0
0
0
0
0
0
0
0
0
0
0
0
0
0
0
0
0
0
0
0
0
0
0
0
0
0
0
0
0
0
0
0
0
0
0
0
0
0
0
0
0
0
0
0
0
0
0
0
0
0
0
0
0
0
0
0
0
0
0
0
0
0
0
0
0
0
0
0
0
0
0
0
0
0
0
0
0
0
0
0
0
0
0
0
0
0
0
0
0
0
0
0
0
0
0
0
0
0
0
0
0
0
0
0
0
0
0
0
0
0
0
0
0
0
0
0
0
0
0
0
0
0
0
0
0
0
0
0
0
0
0
0
0
0
0
0
0
0
0
0
0
0
0
0
0
0
0
0
0
0
0
0
0
0
0
0
0
0
0
0
0
0
0
0
0
0
0
0
0
0
0
0
0
0
0
0
0
0
0
0
0
0
0
0
0
0
0
0
0
0
0
0
0
0
0
0
0
0
0
0
0
0
0
0
0
0
0
0
0
0
0
0
0
0
0
0
0
0
0
0
0
0
0
0
0
0
0
0
0
0
0
0
0
0
0
0
0
0
0
0
0
0
0
0
0
0
0
0
0
0
0
0
0
0
0
0
0
0
0
0
1
1
1
1
1
1
1
1
1
1
1
1
1
1
1
1
1
1
1
1
1
1
1
1
1
1
1
1
1
1
2
2
2
2
2
2
2
2
2
2
2
2
2
2
2
2
2
2
2
2
2
2
2
2
2
2
2
2
2
2
3
3
3
3
3
3
3
3
3
3
3
3
3
3
3
3
3
3
3
3
3
3
3
3
3
3
3
3
3
3
4
4
4
4
4
4
4
4
4
4
4
4
4
4
4
4
4
4
4
4
4
4
4
4
4
4
4
4
4
4

LOOKUP_TABLE FreeFempp_table 5
1.00000000 0.00000000 0.00000000 1.00000000
1.00000000 1.00000000 0.00000000 1.00000000
1.00000000 0.00000000 1.00000000 1.00000000
0.00000000 1.00000000 0.00000000 1.00000000
0.00000000 1.00000000 1.00000000 1.00000000

POINT_DATA 961
FIELD FieldData 1
Density 1 961 float
5.52225709e-01 5.38208604e-01 4.82641309e-01 4.61528122e-01 4.51806337e-01 4.39985961e-01 4.23759311e-01 4.03241664e-01 3.79874021e-01 3.54989409e-01 2.78742403e-01 1.50098996e-02 1.18112162e-04 1.23978883e-04 1.10257510e-03 2.27234855e-01 3.37830514e-01 3.93593997e-01 5.98528862e-01 8.87791157e-01 9.82555628e-01 9.69725966e-01 6.03649020e-01 4.22539681e-01 7.36575484e-01 8.45508158e-01 8.42618763e-01 8.25557768e-01 8.10863495e-01 7.94844568e-01 7.56065011e-01 1.01179903e-04 1.00661200e-04 1.00521902e-04 1.00683646e-04 1.01079771e-04 1.01658668e-04 1.02077996e-04 1.02493934e-04 1.02877515e-04 1.03196558e-04 1.03850733e-04 1.05285799e-04 1.05628729e-04 1.06303341e-04 1.65057674e-04 8.20608810e-02 1.85334578e-01 2.00924695e-01 3.76249433e-01 8.86780202e-01 9.98141348e-01 9.98331070e-01 7.95332611e-01 9.87802669e-02 5.41808009e-01 8.51587296e-01 8.40041220e-01 8.26581061e-01 8.15729558e-01 8.00370216e-01 7.77068853e-01 1.01950747e-04 1.00831450e-04 1.00530830e-04 1.00556092e-04 1.00841833e-04 1.01354366e-04 1.01712161e-04 1.01911384e-04 1.01951642e-04 1.01754107e-04 1.01504920e-04 1.01418191e-04 1.01357393e-04 1.01275495e-04 1.01478705e-04 1.36999079e-04 2.00276598e-01 2.94889152e-01 4.17416334e-01 8.51817727e-01 9.97093558e-01 9.84355509e-01 3.09615373e-03 2.89042538e-04 8.39748420e-03 5.26108444e-01 8.32812667e-01 7.41771698e-01 7.13339329e-01 6.98253810e-01 7.31575727e-01 4.37551558e-01 2.25398522e-02 8.64378002e-04 2.02045019e-04 1.36733695e-04 1.20887591e-04 1.13324997e-04 1.08541339e-04 1.05647276e-04 1.03782273e-04 1.02617356e-04 1.02020291e-04 1.01826117e-04 1.01436664e-04 1.00906902e-04 1.00903402e-04 1.07367909e-04 2.14827880e-01 2.50380337e-01 6.05540216e-01 9.91213739e-01 9.94930863e-01 1.00570163e-04 1.05457788e-04 1.14144386e-04 4.01825324e-04 2.32663482e-01 6.20167077e-01 5.72017014e-01 5.51543295e-01 6.65544391e-01 8.36561620e-01 8.63370597e-01 8.88664186e-01 8.57673705e-01 8.00656021e-01 7.33727992e-01 6.65291250e-01 5.98426044e-01 5.29758513e-01 4.45868611e-01 3.12212646e-01 1.17131606e-01 1.52088422e-02 6.45290653e-04 1.08947621e-04 1.00902238e-04 1.00906647e-04 1.02892242e-04 5.23166880e-02 1.39853701e-01 8.17520797e-01 9.99523342e-01 1.26279965e-01 1.03644008e-04 1.06193038e-04 1.06661246e-04 1.17548589e-04 9.02471319e-02 3.82483631e-01 3.93632323e-01 5.84710479e-01 9.09453630e-01 9.62126434e-01 9.64159608e-01 9.60636914e-01 9.51125741e-01 9.37687218e-01 9.20225799e-01 8.98839593e-01 8.75295222e-01 8.52545321e-01 8.32464457e-01 8.06642771e-01 7.53356457e-01 6.53014719e-01 3.41311604e-01 3.94156296e-03 1.01207203e-04 1.01170772e-04 1.01581609e-04 2.23038774e-02 3.87569480e-02 9.09742832e-01 9.99782562e-01 8.95490753e-04 1.04119674e-04 1.04643834e-04 1.03712620e-04 1.08843808e-04 7.08287582e-02 2.99887568e-01 5.23102403e-01 9.21506643e-01 9.77763712e-01 9.73311961e-01 9.70714688e-01 9.67686415e-01 9.64513838e-01 9.59992826e-01 9.53763187e-01 9.46555376e-01 9.39812183e-01 9.35180366e-01 9.33056712e-01 9.29391086e-01 9.19325233e-01 8.97284865e-01 8.28366816e-01 4.95034456e-01 1.03097234e-04 1.01429738e-04 1.01235906e-04 2.24954961e-03 3.08737382e-02 9.99689341e-01 9.99995708e-01 6.81369901e-01 2.54772604e-04 1.04140425e-04 1.02834136e-04 1.08468121e-04 9.79137942e-02 4.72010851e-01 9.10219312e-01 9.75443482e-01 9.68563437e-01 9.65007603e-01 9.61995065e-01 9.60405767e-01 9.58847165e-01 9.56528485e-01 9.53734994e-01 9.51410472e-01 9.50573087e-01 9.51714277e-01 9.54324305e-01 9.56985593e-01 9.59581912e-01 9.61592674e-01 9.53832567e-01 8.71944070e-01 1.16343232e-04 1.00976096e-04 1.01064710e-04 1.02977509e-04 1.08427324e-04 2.52676699e-02 9.99995589e-01 9.99749184e-01 9.93706524e-01 1.03237333e-04 1.02307851e-04 1.15088842e-04 1.75462246e-01 8.81297588e-01 9.58586335e-01 9.41995561e-01 9.31525946e-01 9.26074684e-01 9.25516665e-01 9.26896572e-01 9.28223431e-01 9.29155231e-01 9.30458546e-01 9.33062613e-01 9.37339783e-01 9.43040431e-01 9.49940205e-01 9.58249688e-01 9.68366683e-01 9.79135036e-01 9.86671269e-01 9.90362644e-01 5.52280108e-04 1.01766382e-04 1.02200953e-04 1.02045939e-04 1.02242942e-04 1.06680964e-04 1.51260139e-03 9.96061981e-01 9.99988675e-01 1.02271602e-04 1.01861988e-04 1.44453035e-04 8.45615625e-01 9.15351689e-01 8.52803826e-01 7.99825132e-01 7.83164442e-01 7.93508351e-01 8.13023865e-01 8.31920743e-01 8.47550988e-01 8.60770583e-01 8.72950256e-01 8.84595454e-01 8.95618677e-01 9.06459749e-01 9.18742597e-01 9.34477627e-01 9.54735279e-01 9.75838900e-01 9.93080139e-01 9.97539163e-01 9.96052742e-01 3.36018013e-04 1.06884065e-04 1.02759986e-04 1.03792125e-04 1.03626240e-04 1.08004620e-04 9.99951065e-01 7.58840935e-04 1.01803940e-04 1.02937360e-04 8.26316655e-01 8.43743265e-01 6.23054266e-01 4.51127559e-01 4.20175076e-01 4.62471187e-01 5.32092571e-01 6.03699744e-01 6.66189492e-01 7.17562139e-01 7.58739531e-01 7.90169239e-01 8.12030375e-01 8.25493991e-01 8.33106399e-01 8.38542938e-01 8.47676456e-01 8.70869994e-01 9.18997526e-01 9.74421799e-01 9.95232105e-01 9.98358309e-01 9.98418450e-01 9.93203700e-01 9.18141663e-01 1.08818269e-04 1.12859801e-04 1.16527364e-04 9.99999344e-01 1.03488717e-04 1.03235856e-04 8.37361634e-01 7.78575540e-01 3.12777936e-01 1.30705804e-01 1.15302071e-01 1.49918914e-01 2.17938006e-01 3.12041879e-01 4.21021014e-01 5.30723691e-01 6.26654327e-01 6.98310196e-01 7.42968559e-01 7.63921678e-01 7.65902758e-01 7.52455711e-01 7.27012277e-01 6.99015796e-01 6.90544665e-01 7.28164673e-01 8.21389735e-01 9.29692030e-01 9.82202947e-01 9.89828408e-01 9.95757818e-01 9.97107267e-01 6.65944943e-04 7.93341577e-01 9.99995887e-01 1.03015089e-04 1.03189588e-04 8.67548347e-01 7.51885474e-01 1.19412057e-01 2.77612042e-02 2.34678648e-02 3.61542143e-02 6.72447160e-02 1.26918375e-01 2.27531612e-01 3.71642500e-01 5.29610455e-01 6.54281676e-01 7.27328658e-01 7.57788420e-01 7.57850707e-01 7.34431982e-01 6.90811455e-01 6.32888079e-01 5.76646388e-01 5.43315232e-01 5.44817805e-01 5.78942358e-01 6.11284792e-01 6.00373387e-01 5.56210101e-01 4.92794096e-01 9.67368543e-01 9.99942064e-01 9.99998391e-01 1.04171326e-04 1.02983016e-04 8.96001995e-01 7.61290729e-01 4.39170487e-02 5.88370161e-03 4.59859520e-03 8.18142761e-03 1.94191728e-02 4.90815751e-02 1.20603815e-01 2.69905180e-01 4.82900709e-01 6.58054292e-01 7.50077248e-01 7.82594502e-01 7.78271556e-01 7.46417880e-01 6.89730525e-01 6.12694085e-01 5.30425072e-01 4.65245426e-01 4.29783344e-01 4.15148348e-01 3.81978214e-01 3.06543946e-01 2.26809889e-01 3.84048671e-01 9.87698793e-01 9.99988675e-01 9.99837041e-01 1.06009524e-04 1.05018007e-04 9.13133681e-01 7.84623444e-01 1.83639321e-02 1.55244407e-03 1.10429991e-03 2.12124665e-03 6.09416654e-03 2.03835331e-02 6.92999065e-02 2.14611426e-01 4.75078344e-01 6.84278429e-01 7.78021395e-01 8.04357231e-01 7.93357134e-01 7.53667057e-01 6.86320782e-01 5.95929086e-01 5.00171363e-01 4.25250888e-01 3.88387203e-01 3.87389243e-01 4.05832171e-01 4.43926603e-01 6.32690966e-01 9.49978352e-01 9.99208272e-01 9.99984026e-01 6.38902560e-03 1.07007065e-04 1.06067557e-04 9.20246243e-01 8.03286850e-01 8.85401387e-03 5.32757142e-04 3.63136496e-04 6.95198076e-04 2.33632792e-03 1.01515027e-02 4.77337316e-02 1.98339507e-01 5.00994980e-01 7.15882063e-01 7.96224117e-01 8.12760353e-01 7.95842171e-01 7.51939893e-01 6.81133449e-01 5.90048850e-01 5.00249684e-01 4.40871239e-01 4.36200440e-01 5.01444221e-01 6.41882479e-01 8.22435379e-01 9.66002107e-01 9.96394396e-01 9.99806046e-01 9.99306560e-01 1.61919103e-04 1.08272849e-04 1.06805259e-04 9.20718491e-01 8.09868217e-01 4.86739632e-03 2.53178179e-04 1.83500815e-04 3.09878815e-04 1.16119394e-03 6.70016510e-03 4.34388965e-02 2.24590823e-01 5.60030937e-01 7.47095883e-01 8.05064440e-01 8.10846865e-01 7.89139390e-01 7.44520962e-01 6.78267002e-01 6.01084292e-01 5.38751245e-01 5.24016261e-01 5.87066889e-01 7.37032771e-01 8.91979039e-01 9.75566268e-01 9.94718134e-01 9.98546124e-01 9.99035776e-01 3.26025374e-02 1.16977710e-04 1.10434710e-04 1.08661312e-04 9.17198360e-01 8.05505931e-01 2.86069047e-03 1.60462441e-04 1.31989902e-04 1.92643725e-04 7.67467194e-04 6.30907109e-03 5.59906028e-02 3.08494925e-01 6.41939700e-01 7.73616970e-01 8.04879785e-01 7.99545765e-01 7.74705112e-01 7.33856678e-01 6.80929840e-01 6.30967557e-01 6.12581134e-01 6.57372832e-01 7.74949789e-01 9.07127142e-01 9.73897994e-01 9.93991137e-01 9.97414947e-01 9.96821225e-01 8.60092163e-01 3.80627229e-04 1.11003392e-04 1.11695379e-04 1.19908756e-04 9.11291122e-01 7.93870270e-01 1.70617411e-03 1.24963481e-04 1.14538147e-04 1.50268010e-04 6.66461128e-04 8.56525917e-03 9.95529816e-02 4.54231620e-01 7.17437387e-01 7.86570609e-01 7.91718662e-01 7.76765406e-01 7.52655387e-01 7.21989393e-01 6.90477431e-01 6.75128222e-01 7.02748001e-01 7.87370741e-01 8.96837711e-01 9.65580285e-01 9.91565228e-01 9.96778786e-01 9.96680558e-01 9.75249887e-01 3.10978405e-02 1.43915575e-04 1.11241177e-04 1.13099093e-04 9.17824742e-04 9.03488219e-01 7.76657701e-01 1.01014134e-03 1.10364846e-04 1.07936408e-04 1.33412643e-04 7.46960694e-04 1.62471533e-02 2.07013935e-01 6.10986471e-01 7.61682689e-01 7.79570222e-01 7.63854921e-01 7.44080484e-01 7.26496696e-01 7.11984634e-01 7.05982625e-01 7.23264217e-01 7.81178892e-01 8.71224225e-01 9.45780337e-01 9.82260168e-01 9.94569600e-01 9.96743798e-01 9.93204951e-01 8.71664286e-01 8.61613918e-03 1.58555937e-04 1.29341497e-04 1.71991560e-04 1.78810563e-02 8.93089116e-01 7.55078256e-01 5.98459621e-04 1.04345330e-04 1.05183499e-04 1.27496067e-04 1.07201433e-03 3.92751954e-02 3.95484626e-01 7.15924621e-01 7.70568371e-01 7.51953006e-01 7.24304497e-01 7.06847012e-01 7.00389445e-01 7.03962684e-01 7.21910059e-01 7.63326705e-01 8.32630217e-01 9.09859776e-01 9.61545706e-01 9.87366617e-01 9.94450748e-01 9.95588422e-01 9.87286389e-01 8.38887572e-01 2.60708965e-02 1.15464325e-03 8.79654603e-04 4.54223529e-03 1.53572321e-01 8.78726065e-01 7.31199563e-01 3.69069370e-04 1.02159422e-04 1.03883387e-04 1.28235115e-04 1.99252577e-03 1.03449479e-01 5.90202332e-01 7.59261131e-01 7.49485433e-01 7.08106995e-01 6.79272830e-01 6.70082748e-01 6.75807953e-01 6.95091307e-01 7.31505215e-01 7.87960827e-01 8.57797801e-01 9.21543002e-01 9.64134872e-01 9.85992253e-01 9.92260337e-01 9.92545009e-01 9.80065584e-01 8.72862756e-01 2.14186430e-01 5.17447442e-02 5.89849204e-02 1.56945348e-01 4.62789148e-01 8.59400451e-01 7.08214760e-01 2.49726756e-04 1.01784295e-04 1.03158942e-04 1.35783048e-04 4.82303044e-03 2.43920803e-01 7.06087172e-01 7.57046402e-01 7.06211448e-01 6.56627893e-01 6.34932697e-01 6.35796309e-01 6.51603878e-01 6.81909084e-01 7.29520619e-01 7.93026149e-01 8.60876441e-01 9.17387724e-01 9.59405541e-01 9.80297565e-01 9.87429500e-01 9.86160457e-01 9.70558047e-01 9.09526348e-01 6.30444765e-01 4.56054717e-01 5.11216164e-01 6.32627606e-01 6.80707335e-01 8.35604012e-01 6.88278854e-01 1.92377527e-04 1.02275335e-04 1.02747916e-04 1.54519847e-04 1.47063415e-02 4.36203808e-01 7.44450033e-01 7.24963248e-01 6.52175009e-01 6.06087029e-01 5.94062984e-01 6.02926254e-01 6.25536263e-01 6.62116289e-01 7.13995814e-01 7.78141439e-01 8.44722867e-01 8.99662137e-01 9.45128620e-01 9.67192709e-01 9.76821363e-01 9.73370969e-01 9.58959877e-01 9.24809754e-01 8.27009141e-01 7.65589178e-01 7.88469493e-01 8.22125793e-01 7.67692387e-01 8.08861315e-01 6.69629574e-01 1.71497479e-04 1.03086619e-04 1.02693084e-04 1.98465772e-04 4.98000793e-02 5.89206696e-01 7.39286780e-01 6.75804138e-01 5.96592247e-01 5.58795750e-01 5.54498792e-01 5.68437934e-01 5.95222414e-01 6.34665489e-01 6.86183870e-01 7.46676266e-01 8.10034692e-01 8.66618037e-01 9.15800095e-01 9.42534447e-01 9.54094172e-01 9.51461852e-01 9.45185423e-01 9.29276586e-01 8.88866544e-01 8.61448824e-01 8.67143691e-01 8.86071622e-01 8.07462275e-01 7.78911650e-01 6.48975670e-01 1.76060668e-04 1.03697916e-04 1.03188293e-04 3.13532742e-04 1.53359681e-01 6.74315095e-01 7.07442164e-01 6.10492706e-01 5.35849988e-01 5.08923709e-01 5.11004031e-01 5.28983653e-01 5.58567345e-01 5.98910451e-01 6.48085773e-01 7.02784479e-01 7.59218335e-01 8.13447356e-01 8.62781227e-01 8.95066381e-01 9.06064272e-01 9.15451169e-01 9.25120175e-01 9.22346115e-01 9.01542187e-01 8.85366976e-01 8.86158764e-01 8.95285904e-01 8.27408314e-01 7.40429282e-01 6.27839386e-01 2.18100293e-04 1.03606006e-04 1.03807426e-04 6.86722982e-04 3.47595215e-01 6.92646921e-01 6.36431634e-01 5.24463713e-01 4.64756608e-01 4.51679796e-01 4.62189943e-01 4.84905124e-01 5.16300082e-01 5.56240439e-01 6.02665007e-01 6.51276410e-01 6.98264539e-01 7.42383838e-01 7.82985747e-01 8.12890410e-01 8.31938088e-01 8.57322931e-01 8.83919716e-01 8.91806722e-01 8.76406729e-01 8.57038677e-01 8.45862269e-01 8.70079339e-01 8.23797941e-01 6.82454050e-01 6.11368537e-01 4.01688187e-04 1.03330909e-04 1.03644365e-04 2.40446138e-03 5.36523759e-01 6.53890312e-01 5.39050996e-01 4.44029301e-01 4.00735676e-01 3.97563607e-01 4.15249467e-01 4.41701323e-01 4.73777950e-01 5.12336791e-01 5.56797743e-01 6.01556122e-01 6.40477598e-01 6.71222210e-01 6.96013212e-01 7.16885626e-01 7.35903084e-01 7.63653815e-01 7.98904181e-01 7.93739080e-01 7.54688799e-01 7.17360437e-01 7.31810093e-01 7.70971894e-01 7.80740380e-01 6.11463428e-01 6.19720578e-01 1.74947677e-03 1.03106788e-04 1.03356433e-04 1.49563467e-02 6.48865521e-01 5.37392735e-01 4.48742777e-01 4.09068763e-01 3.86356473e-01 3.73028457e-01 3.79625529e-01 4.03553247e-01 4.35855985e-01 4.74057227e-01 5.17865002e-01 5.62759042e-01 6.00517690e-01 6.24678791e-01 6.34703755e-01 6.36303425e-01 6.35965526e-01 6.38356030e-01 6.39887869e-01 6.13715231e-01 5.42425156e-01 4.87733334e-01 4.92962837e-01 5.32538593e-01 6.83088362e-01 6.90771163e-01 5.70577979e-01 9.38529149e-02 1.02405211e-04 1.03012222e-04 1.29807308e-01 7.47333646e-01 5.07870793e-01 4.42192197e-01 4.18275326e-01 4.07181621e-01 4.00101453e-01 3.96686763e-01 3.99367303e-01 4.13215816e-01 4.42919344e-01 4.84941036e-01 5.29362082e-01 5.72892666e-01 6.07606590e-01 6.30365014e-01 6.27894521e-01 5.93400478e-01 5.28594077e-01 4.45954800e-01 3.62919748e-01 2.88845807e-01 2.42930293e-01 2.28331551e-01 2.53245980e-01 5.49289346e-01 7.81247795e-01 7.63829410e-01 8.87136638e-01 1.04398270e-04 1.03075901e-04 9.74283040e-01 7.99511135e-01 6.58431411e-01 6.22829735e-01 5.98136067e-01 5.70783615e-01 5.50461590e-01 5.39449573e-01 5.45931041e-01 5.61311245e-01 5.75654089e-01 5.95520854e-01 6.19635820e-01 6.44339919e-01 6.64374053e-01 6.73768103e-01 6.68863952e-01 6.48180187e-01 6.10532522e-01 5.54987788e-01 4.89730090e-01 4.33660716e-01 4.02545094e-01 3.96527141e-01 3.95264447e-01 5.38771749e-01 
