# vtk DataFile Version 2.0
results/iter11.vtk, Created by Freefem++ 
ASCII
DATASET UNSTRUCTURED_GRID
POINTS 961 float
0 0 0
0.033333333 0 0
0.066666667 0 0
0.1 0 0
0.13333333 0 0
0.16666667 0 0
0.2 0 0
0.23333333 0 0
0.26666667 0 0
0.3 0 0
0.33333333 0 0
0.36666667 0 0
0.4 0 0
0.43333333 0 0
0.46666667 0 0
0.5 0 0
0.53333333 0 0
0.56666667 0 0
0.6 0 0
0.63333333 0 0
0.66666667 0 0
0.7 0 0
0.73333333 0 0
0.76666667 0 0
0.8 0 0
0.83333333 0 0
0.86666667 0 0
0.9 0 0
0.93333333 0 0
0.96666667 0 0
1 0 0
0 0.033333333 0
0.033333333 0.033333333 0
0.066666667 0.033333333 0
0.1 0.033333333 0
0.13333333 0.033333333 0
0.16666667 0.033333333 0
0.2 0.033333333 0
0.23333333 0.033333333 0
0.26666667 0.033333333 0
0.3 0.033333333 0
0.33333333 0.033333333 0
0.36666667 0.033333333 0
0.4 0.033333333 0
0.43333333 0.033333333 0
0.46666667 0.033333333 0
0.5 0.033333333 0
0.53333333 0.033333333 0
0.56666667 0.033333333 0
0.6 0.033333333 0
0.63333333 0.033333333 0
0.66666667 0.033333333 0
0.7 0.033333333 0
0.73333333 0.033333333 0
0.76666667 0.033333333 0
0.8 0.033333333 0
0.83333333 0.033333333 0
0.86666667 0.033333333 0
0.9 0.033333333 0
0.93333333 0.033333333 0
0.96666667 0.033333333 0
1 0.033333333 0
0 0.066666667 0
0.033333333 0.066666667 0
0.066666667 0.066666667 0
0.1 0.066666667 0
0.13333333 0.066666667 0
0.16666667 0.066666667 0
0.2 0.066666667 0
0.23333333 0.066666667 0
0.26666667 0.066666667 0
0.3 0.066666667 0
0.33333333 0.066666667 0
0.36666667 0.066666667 0
0.4 0.066666667 0
0.43333333 0.066666667 0
0.46666667 0.066666667 0
0.5 0.066666667 0
0.53333333 0.066666667 0
0.56666667 0.066666667 0
0.6 0.066666667 0
0.63333333 0.066666667 0
0.66666667 0.066666667 0
0.7 0.066666667 0
0.73333333 0.066666667 0
0.76666667 0.066666667 0
0.8 0.066666667 0
0.83333333 0.066666667 0
0.86666667 0.066666667 0
0.9 0.066666667 0
0.93333333 0.066666667 0
0.96666667 0.066666667 0
1 0.066666667 0
0 0.1 0
0.033333333 0.1 0
0.066666667 0.1 0
0.1 0.1 0
0.13333333 0.1 0
0.16666667 0.1 0
0.2 0.1 0
0.23333333 0.1 0
0.26666667 0.1 0
0.3 0.1 0
0.33333333 0.1 0
0.36666667 0.1 0
0.4 0.1 0
0.43333333 0.1 0
0.46666667 0.1 0
0.5 0.1 0
0.53333333 0.1 0
0.56666667 0.1 0
0.6 0.1 0
0.63333333 0.1 0
0.66666667 0.1 0
0.7 0.1 0
0.73333333 0.1 0
0.76666667 0.1 0
0.8 0.1 0
0.83333333 0.1 0
0.86666667 0.1 0
0.9 0.1 0
0.93333333 0.1 0
0.96666667 0.1 0
1 0.1 0
0 0.13333333 0
0.033333333 0.13333333 0
0.066666667 0.13333333 0
0.1 0.13333333 0
0.13333333 0.13333333 0
0.16666667 0.13333333 0
0.2 0.13333333 0
0.23333333 0.13333333 0
0.26666667 0.13333333 0
0.3 0.13333333 0
0.33333333 0.13333333 0
0.36666667 0.13333333 0
0.4 0.13333333 0
0.43333333 0.13333333 0
0.46666667 0.13333333 0
0.5 0.13333333 0
0.53333333 0.13333333 0
0.56666667 0.13333333 0
0.6 0.13333333 0
0.63333333 0.13333333 0
0.66666667 0.13333333 0
0.7 0.13333333 0
0.73333333 0.13333333 0
0.76666667 0.13333333 0
0.8 0.13333333 0
0.83333333 0.13333333 0
0.86666667 0.13333333 0
0.9 0.13333333 0
0.93333333 0.13333333 0
0.96666667 0.13333333 0
1 0.13333333 0
0 0.16666667 0
0.033333333 0.16666667 0
0.066666667 0.16666667 0
0.1 0.16666667 0
0.13333333 0.16666667 0
0.16666667 0.16666667 0
0.2 0.16666667 0
0.23333333 0.16666667 0
0.26666667 0.16666667 0
0.3 0.16666667 0
0.33333333 0.16666667 0
0.36666667 0.16666667 0
0.4 0.16666667 0
0.43333333 0.16666667 0
0.46666667 0.16666667 0
0.5 0.16666667 0
0.53333333 0.16666667 0
0.56666667 0.16666667 0
0.6 0.16666667 0
0.63333333 0.16666667 0
0.66666667 0.16666667 0
0.7 0.16666667 0
0.73333333 0.16666667 0
0.76666667 0.16666667 0
0.8 0.16666667 0
0.83333333 0.16666667 0
0.86666667 0.16666667 0
0.9 0.16666667 0
0.93333333 0.16666667 0
0.96666667 0.16666667 0
1 0.16666667 0
0 0.2 0
0.033333333 0.2 0
0.066666667 0.2 0
0.1 0.2 0
0.13333333 0.2 0
0.16666667 0.2 0
0.2 0.2 0
0.23333333 0.2 0
0.26666667 0.2 0
0.3 0.2 0
0.33333333 0.2 0
0.36666667 0.2 0
0.4 0.2 0
0.43333333 0.2 0
0.46666667 0.2 0
0.5 0.2 0
0.53333333 0.2 0
0.56666667 0.2 0
0.6 0.2 0
0.63333333 0.2 0
0.66666667 0.2 0
0.7 0.2 0
0.73333333 0.2 0
0.76666667 0.2 0
0.8 0.2 0
0.83333333 0.2 0
0.86666667 0.2 0
0.9 0.2 0
0.93333333 0.2 0
0.96666667 0.2 0
1 0.2 0
0 0.23333333 0
0.033333333 0.23333333 0
0.066666667 0.23333333 0
0.1 0.23333333 0
0.13333333 0.23333333 0
0.16666667 0.23333333 0
0.2 0.23333333 0
0.23333333 0.23333333 0
0.26666667 0.23333333 0
0.3 0.23333333 0
0.33333333 0.23333333 0
0.36666667 0.23333333 0
0.4 0.23333333 0
0.43333333 0.23333333 0
0.46666667 0.23333333 0
0.5 0.23333333 0
0.53333333 0.23333333 0
0.56666667 0.23333333 0
0.6 0.23333333 0
0.63333333 0.23333333 0
0.66666667 0.23333333 0
0.7 0.23333333 0
0.73333333 0.23333333 0
0.76666667 0.23333333 0
0.8 0.23333333 0
0.83333333 0.23333333 0
0.86666667 0.23333333 0
0.9 0.23333333 0
0.93333333 0.23333333 0
0.96666667 0.23333333 0
1 0.23333333 0
0 0.26666667 0
0.033333333 0.26666667 0
0.066666667 0.26666667 0
0.1 0.26666667 0
0.13333333 0.26666667 0
0.16666667 0.26666667 0
0.2 0.26666667 0
0.23333333 0.26666667 0
0.26666667 0.26666667 0
0.3 0.26666667 0
0.33333333 0.26666667 0
0.36666667 0.26666667 0
0.4 0.26666667 0
0.43333333 0.26666667 0
0.46666667 0.26666667 0
0.5 0.26666667 0
0.53333333 0.26666667 0
0.56666667 0.26666667 0
0.6 0.26666667 0
0.63333333 0.26666667 0
0.66666667 0.26666667 0
0.7 0.26666667 0
0.73333333 0.26666667 0
0.76666667 0.26666667 0
0.8 0.26666667 0
0.83333333 0.26666667 0
0.86666667 0.26666667 0
0.9 0.26666667 0
0.93333333 0.26666667 0
0.96666667 0.26666667 0
1 0.26666667 0
0 0.3 0
0.033333333 0.3 0
0.066666667 0.3 0
0.1 0.3 0
0.13333333 0.3 0
0.16666667 0.3 0
0.2 0.3 0
0.23333333 0.3 0
0.26666667 0.3 0
0.3 0.3 0
0.33333333 0.3 0
0.36666667 0.3 0
0.4 0.3 0
0.43333333 0.3 0
0.46666667 0.3 0
0.5 0.3 0
0.53333333 0.3 0
0.56666667 0.3 0
0.6 0.3 0
0.63333333 0.3 0
0.66666667 0.3 0
0.7 0.3 0
0.73333333 0.3 0
0.76666667 0.3 0
0.8 0.3 0
0.83333333 0.3 0
0.86666667 0.3 0
0.9 0.3 0
0.93333333 0.3 0
0.96666667 0.3 0
1 0.3 0
0 0.33333333 0
0.033333333 0.33333333 0
0.066666667 0.33333333 0
0.1 0.33333333 0
0.13333333 0.33333333 0
0.16666667 0.33333333 0
0.2 0.33333333 0
0.23333333 0.33333333 0
0.26666667 0.33333333 0
0.3 0.33333333 0
0.33333333 0.33333333 0
0.36666667 0.33333333 0
0.4 0.33333333 0
0.43333333 0.33333333 0
0.46666667 0.33333333 0
0.5 0.33333333 0
0.53333333 0.33333333 0
0.56666667 0.33333333 0
0.6 0.33333333 0
0.63333333 0.33333333 0
0.66666667 0.33333333 0
0.7 0.33333333 0
0.73333333 0.33333333 0
0.76666667 0.33333333 0
0.8 0.33333333 0
0.83333333 0.33333333 0
0.86666667 0.33333333 0
0.9 0.33333333 0
0.93333333 0.33333333 0
0.96666667 0.33333333 0
1 0.33333333 0
0 0.36666667 0
0.033333333 0.36666667 0
0.066666667 0.36666667 0
0.1 0.36666667 0
0.13333333 0.36666667 0
0.16666667 0.36666667 0
0.2 0.36666667 0
0.23333333 0.36666667 0
0.26666667 0.36666667 0
0.3 0.36666667 0
0.33333333 0.36666667 0
0.36666667 0.36666667 0
0.4 0.36666667 0
0.43333333 0.36666667 0
0.46666667 0.36666667 0
0.5 0.36666667 0
0.53333333 0.36666667 0
0.56666667 0.36666667 0
0.6 0.36666667 0
0.63333333 0.36666667 0
0.66666667 0.36666667 0
0.7 0.36666667 0
0.73333333 0.36666667 0
0.76666667 0.36666667 0
0.8 0.36666667 0
0.83333333 0.36666667 0
0.86666667 0.36666667 0
0.9 0.36666667 0
0.93333333 0.36666667 0
0.96666667 0.36666667 0
1 0.36666667 0
0 0.4 0
0.033333333 0.4 0
0.066666667 0.4 0
0.1 0.4 0
0.13333333 0.4 0
0.16666667 0.4 0
0.2 0.4 0
0.23333333 0.4 0
0.26666667 0.4 0
0.3 0.4 0
0.33333333 0.4 0
0.36666667 0.4 0
0.4 0.4 0
0.43333333 0.4 0
0.46666667 0.4 0
0.5 0.4 0
0.53333333 0.4 0
0.56666667 0.4 0
0.6 0.4 0
0.63333333 0.4 0
0.66666667 0.4 0
0.7 0.4 0
0.73333333 0.4 0
0.76666667 0.4 0
0.8 0.4 0
0.83333333 0.4 0
0.86666667 0.4 0
0.9 0.4 0
0.93333333 0.4 0
0.96666667 0.4 0
1 0.4 0
0 0.43333333 0
0.033333333 0.43333333 0
0.066666667 0.43333333 0
0.1 0.43333333 0
0.13333333 0.43333333 0
0.16666667 0.43333333 0
0.2 0.43333333 0
0.23333333 0.43333333 0
0.26666667 0.43333333 0
0.3 0.43333333 0
0.33333333 0.43333333 0
0.36666667 0.43333333 0
0.4 0.43333333 0
0.43333333 0.43333333 0
0.46666667 0.43333333 0
0.5 0.43333333 0
0.53333333 0.43333333 0
0.56666667 0.43333333 0
0.6 0.43333333 0
0.63333333 0.43333333 0
0.66666667 0.43333333 0
0.7 0.43333333 0
0.73333333 0.43333333 0
0.76666667 0.43333333 0
0.8 0.43333333 0
0.83333333 0.43333333 0
0.86666667 0.43333333 0
0.9 0.43333333 0
0.93333333 0.43333333 0
0.96666667 0.43333333 0
1 0.43333333 0
0 0.46666667 0
0.033333333 0.46666667 0
0.066666667 0.46666667 0
0.1 0.46666667 0
0.13333333 0.46666667 0
0.16666667 0.46666667 0
0.2 0.46666667 0
0.23333333 0.46666667 0
0.26666667 0.46666667 0
0.3 0.46666667 0
0.33333333 0.46666667 0
0.36666667 0.46666667 0
0.4 0.46666667 0
0.43333333 0.46666667 0
0.46666667 0.46666667 0
0.5 0.46666667 0
0.53333333 0.46666667 0
0.56666667 0.46666667 0
0.6 0.46666667 0
0.63333333 0.46666667 0
0.66666667 0.46666667 0
0.7 0.46666667 0
0.73333333 0.46666667 0
0.76666667 0.46666667 0
0.8 0.46666667 0
0.83333333 0.46666667 0
0.86666667 0.46666667 0
0.9 0.46666667 0
0.93333333 0.46666667 0
0.96666667 0.46666667 0
1 0.46666667 0
0 0.5 0
0.033333333 0.5 0
0.066666667 0.5 0
0.1 0.5 0
0.13333333 0.5 0
0.16666667 0.5 0
0.2 0.5 0
0.23333333 0.5 0
0.26666667 0.5 0
0.3 0.5 0
0.33333333 0.5 0
0.36666667 0.5 0
0.4 0.5 0
0.43333333 0.5 0
0.46666667 0.5 0
0.5 0.5 0
0.53333333 0.5 0
0.56666667 0.5 0
0.6 0.5 0
0.63333333 0.5 0
0.66666667 0.5 0
0.7 0.5 0
0.73333333 0.5 0
0.76666667 0.5 0
0.8 0.5 0
0.83333333 0.5 0
0.86666667 0.5 0
0.9 0.5 0
0.93333333 0.5 0
0.96666667 0.5 0
1 0.5 0
0 0.53333333 0
0.033333333 0.53333333 0
0.066666667 0.53333333 0
0.1 0.53333333 0
0.13333333 0.53333333 0
0.16666667 0.53333333 0
0.2 0.53333333 0
0.23333333 0.53333333 0
0.26666667 0.53333333 0
0.3 0.53333333 0
0.33333333 0.53333333 0
0.36666667 0.53333333 0
0.4 0.53333333 0
0.43333333 0.53333333 0
0.46666667 0.53333333 0
0.5 0.53333333 0
0.53333333 0.53333333 0
0.56666667 0.53333333 0
0.6 0.53333333 0
0.63333333 0.53333333 0
0.66666667 0.53333333 0
0.7 0.53333333 0
0.73333333 0.53333333 0
0.76666667 0.53333333 0
0.8 0.53333333 0
[...]
CELL_DATA 1920
Scalars  Label int 1
LOOKUP_TABLE FreeFempp_table
0
0
0
0
0
0
0
0
0
0
0
0
0
0
0
0
0
0
0
0
0
0
0
0
0
0
0
0
0
0
0
0
0
0
0
0
0
0
0
0
0
0
0
0
0
0
0
0
0
0
0
0
0
0
0
0
0
0
0
0
0
0
0
0
0
0
0
0
0
0
0
0
0
0
0
0
0
0
0
0
0
0
0
0
0
0
0
0
0
0
0
0
0
0
0
0
0
0
0
0
0
0
0
0
0
0
0
0
0
0
0
0
0
0
0
0
0
0
0
0
0
0
0
0
0
0
0
0
0
0
0
0
0
0
0
0
0
0
0
0
0
0
0
0
0
0
0
0
0
0
0
0
0
0
0
0
0
0
0
0
0
0
0
0
0
0
0
0
0
0
0
0
0
0
0
0
0
0
0
0
0
0
0
0
0
0
0
0
0
0
0
0
0
0
0
0
0
0
0
0
0
0
0
0
0
0
0
0
0
0
0
0
0
0
0
0
0
0
0
0
0
0
0
0
0
0
0
0
0
0
0
0
0
0
0
0
0
0
0
0
0
0
0
0
0
0
0
0
0
0
0
0
0
0
0
0
0
0
0
0
0
0
0
0
0
0
0
0
0
0
0
0
0
0
0
0
0
0
0
0
0
0
0
0
0
0
0
0
0
0
0
0
0
0
0
0
0
0
0
0
0
0
0
0
0
0
0
0
0
0
0
0
0
0
0
0
0
0
0
0
0
0
0
0
0
0
0
0
0
0
0
0
0
0
0
0
0
0
0
0
0
0
0
0
0
0
0
0
0
0
0
0
0
0
0
0
0
0
0
0
0
0
0
0
0
0
0
0
0
0
0
0
0
0
0
0
0
0
0
0
0
0
0
0
0
0
0
0
0
0
0
0
0
0
0
0
0
0
0
0
0
0
0
0
0
0
0
0
0
0
0
0
0
0
0
0
0
0
0
0
0
0
0
0
0
0
0
0
0
0
0
0
0
0
0
0
0
0
0
0
0
0
0
0
0
0
0
0
0
0
0
0
0
0
0
0
0
0
0
0
0
0
0
0
0
0
0
0
0
0
0
0
0
0
0
0
0
0
0
0
0
0
0
0
0
0
0
0
0
0
0
0
0
0
0
0
0
0
0
0
0
0
0
0
0
0
0
0
0
0
0
0
0
0
0
0
0
0
0
0
0
0
0
0
0
0
0
0
0
0
0
0
0
0
0
0
0
0
0
0
0
0
0
0
0
0
0
0
0
0
0
0
0
0
0
0
0
0
0
0
0
0
0
0
0
0
0
0
0
0
0
0
0
0
0
0
0
0
0
0
0
0
0
0
0
0
0
0
0
0
0
0
0
0
0
0
0
0
0
0
0
0
0
0
0
0
0
0
0
0
0
0
0
0
0
0
0
0
0
0
0
0
0
0
0
0
0
0
0
0
0
0
0
0
0
0
0
0
0
0
0
0
0
0
0
0
0
0
0
0
0
0
0
0
0
0
0
0
0
0
0
0
0
0
0
0
0
0
0
0
0
0
0
0
0
0
0
0
0
0
0
0
0
0
0
0
0
0
0
0
0
0
0
0
0
0
0
0
0
0
0
0
0
0
0
0
0
0
0
0
0
0
0
0
0
0
0
0
0
0
0
0
0
0
0
0
0
0
0
0
0
0
0
0
0
0
0
0
0
0
0
0
0
0
0
0
0
0
0
0
0
0
0
0
0
0
0
0
0
0
0
0
0
0
0
0
0
0
0
0
0
0
0
0
0
0
0
0
0
0
0
0
0
0
0
0
0
0
0
0
0
0
0
0
0
0
0
0
0
0
0
0
0
0
0
0
0
0
0
0
0
0
0
0
0
0
0
0
0
0
0
0
0
0
0
0
0
0
0
0
0
0
0
0
0
0
0
0
0
0
0
0
0
0
0
0
0
0
0
0
0
0
0
0
0
0
0
0
0
0
0
0
0
0
0
0
0
0
0
0
0
0
0
0
0
0
0
0
0
0
0
0
0
0
0
0
0
0
0
0
0
0
0
0
0
0
0
0
0
0
0
0
0
0
0
0
0
0
0
0
0
0
0
0
0
0
0
0
0
0
0
0
0
0
0
0
0
0
0
0
0
0
0
0
0
0
0
0
0
0
0
0
0
0
0
0
0
0
0
0
0
0
0
0
0
0
0
0
0
0
0
0
0
0
0
0
0
0
0
0
0
0
0
0
0
0
0
0
0
0
0
0
0
0
0
0
0
0
0
0
0
0
0
0
0
0
0
0
0
0
0
0
0
0
0
0
0
0
0
0
0
0
0
0
0
0
0
0
0
0
0
0
0
0
0
0
0
0
0
0
0
0
0
0
0
0
0
0
0
0
0
0
0
0
0
0
0
0
0
0
0
0
0
0
0
0
0
0
0
0
0
0
0
0
0
0
0
0
0
0
0
0
0
0
0
0
0
0
0
0
0
0
0
0
0
0
0
0
0
0
0
0
0
0
0
0
0
0
0
0
0
0
0
0
0
0
0
0
0
0
0
0
0
0
0
0
0
0
0
0
0
0
0
0
0
0
0
0
0
0
0
0
0
0
0
0
0
0
0
0
0
0
0
0
0
0
0
0
0
0
0
0
0
0
0
0
0
0
0
0
0
0
0
0
0
0
0
0
0
0
0
0
0
0
0
0
0
0
0
0
0
0
0
0
0
0
0
0
0
0
0
0
0
0
0
0
0
0
0
0
0
0
0
0
0
0
0
0
0
0
0
0
0
0
0
0
0
0
0
0
0
0
0
0
0
0
0
0
0
0
0
0
0
0
0
0
0
0
0
0
0
0
0
0
0
0
0
0
0
0
0
0
0
0
0
0
0
0
0
0
0
0
0
0
0
0
0
0
0
0
0
0
0
0
0
0
0
0
0
0
0
0
0
0
0
0
0
0
0
0
0
0
0
0
0
0
0
0
0
0
0
0
0
0
0
0
0
0
0
0
0
0
0
0
0
0
0
0
0
0
0
0
0
0
0
0
0
0
0
0
0
0
0
0
0
0
0
0
0
0
0
0
0
0
0
0
0
0
0
0
0
0
0
0
0
0
0
0
0
0
0
0
0
0
0
0
0
0
0
0
0
0
0
0
0
0
0
0
0
0
0
0
0
0
0
0
0
0
0
0
0
0
0
0
0
0
0
0
0
0
0
0
0
0
0
0
0
0
0
0
0
0
0
0
0
0
0
0
0
0
0
0
0
0
0
0
0
0
0
0
0
0
0
0
0
0
0
0
0
0
0
0
0
0
0
0
0
0
0
0
0
0
0
0
0
0
0
0
0
0
0
0
0
0
0
0
0
0
0
0
0
0
0
0
0
0
0
0
0
0
0
0
0
0
0
0
0
0
0
0
0
0
0
0
0
0
0
0
0
0
0
0
0
0
0
0
0
0
0
0
0
0
0
0
0
0
0
0
0
0
0
0
0
0
0
0
0
0
0
0
0
0
0
0
0
0
0
0
0
0
0
0
0
0
0
0
0
0
0
0
0
0
0
0
0
0
0
0
0
0
0
0
0
0
0
0
0
0
0
0
0
0
0
0
0
0
0
0
0
0
0
0
0
0
0
0
0
0
0
0
0
0
0
0
0
0
0
0
0
0
0
0
0
0
0
0
0
0
0
0
0
0
0
0
0
0
0
0
0
0
0
0
0
0
0
0
0
0
0
0
0
0
0
0
0
0
0
0
0
0
0
0
0
0
0
0
0
0
0
0
0
0
0
0
0
0
0
0
0
0
0
0
0
0
0
0
0
0
0
0
0
0
0
0
0
0
0
0
0
0
0
0
0
0
0
0
0
0
0
0
0
0
0
0
0
0
0
0
0
0
0
0
0
0
0
0
0
0
0
0
0
0
0
0
0
0
0
0
0
0
0
0
0
0
0
0
0
0
0
0
0
0
0
0
0
0
0
0
0
0
0
0
0
0
0
0
0
0
0
0
0
0
0
0
0
0
0
0
0
0
0
0
0
0
0
0
0
0
0
0
0
0
0
0
0
0
0
0
0
0
0
0
0
0
0
0
0
0
0
0
0
0
0
0
0
0
0
0
0
0
1
1
1
1
1
1
1
1
1
1
1
1
1
1
1
1
1
1
1
1
1
1
1
1
1
1
1
1
1
1
2
2
2
2
2
2
2
2
2
2
2
2
2
2
2
2
2
2
2
2
2
2
2
2
2
2
2
2
2
2
3
3
3
3
3
3
3
3
3
3
3
3
3
3
3
3
3
3
3
3
3
3
3
3
3
3
3
3
3
3
4
4
4
4
4
4
4
4
4
4
4
4
4
4
4
4
4
4
4
4
4
4
4
4
4
4
4
4
4
4

LOOKUP_TABLE FreeFempp_table 5
1.00000000 0.00000000 0.00000000 1.00000000
1.00000000 1.00000000 0.00000000 1.00000000
1.00000000 0.00000000 1.00000000 1.00000000
0.00000000 1.00000000 0.00000000 1.00000000
0.00000000 1.00000000 1.00000000 1.00000000

POINT_DATA 961
FIELD FieldData 1
Density 1 961 float
4.59305674e-01 4.46999490e-01 4.47375596e-01 4.47142899e-01 4.46555018e-01 4.45833713e-01 4.44771767e-01 4.43262398e-01 4.41056997e-01 4.33248937e-01 3.81605685e-01 1.48147687e-01 4.66999039e-02 5.97649403e-02 2.27200419e-01 5.02763212e-01 6.23965323e-01 5.80168784e-01 5.18810391e-01 5.83478451e-01 5.93238592e-01 5.76402247e-01 5.64632475e-01 5.46504796e-01 5.35251915e-01 5.27704120e-01 5.22931993e-01 5.19755065e-01 5.17698228e-01 5.19516706e-01 5.07308364e-01 7.81625416e-03 6.64064242e-03 6.35624770e-03 5.42366644e-03 6.16793241e-03 8.93436838e-03 1.17849559e-02 1.37438718e-02 1.50842620e-02 1.62822399e-02 1.78378075e-02 2.00248007e-02 2.04846933e-02 2.28721052e-02 1.08627982e-01 4.45730418e-01 6.86498344e-01 6.20439827e-01 2.76141644e-01 3.42691630e-01 5.47670066e-01 6.10046685e-01 6.13871515e-01 5.94979823e-01 5.72005749e-01 5.54355264e-01 5.43184042e-01 5.36101460e-01 5.31597614e-01 5.31049371e-01 5.19691050e-01 1.02834189e-02 6.25035260e-03 6.51532225e-03 5.55850333e-03 5.16580092e-03 6.27782010e-03 7.73745961e-03 8.52729566e-03 8.90488736e-03 9.21945553e-03 9.59150400e-03 9.88085382e-03 8.98233615e-03 6.99134357e-03 5.58986422e-03 5.12067825e-02 6.28758430e-01 7.07305372e-01 2.91498527e-02 8.82666931e-02 9.43725854e-02 9.26505998e-02 1.74194589e-01 3.85688990e-01 5.19951582e-01 5.25388539e-01 5.14055431e-01 5.07120609e-01 5.04248977e-01 5.01719475e-01 5.06768644e-01 4.66973901e-01 4.14236486e-01 3.06878179e-01 1.43334195e-01 5.11315130e-02 2.63181608e-02 1.80710815e-02 1.47739099e-02 1.34241767e-02 1.29655106e-02 1.29924137e-02 1.32307764e-02 1.29868938e-02 1.04611823e-02 4.16147662e-03 4.34274878e-03 1.49243781e-02 7.54291773e-01 4.81351495e-01 8.38655010e-02 6.15313500e-02 3.42227034e-02 2.26320885e-02 2.11096574e-02 2.15639994e-02 2.96342313e-01 4.68722552e-01 4.68929231e-01 4.68824655e-01 4.67386395e-01 4.87418771e-01 4.90383118e-01 4.67810124e-01 4.66986775e-01 4.60149735e-01 4.50324506e-01 4.43498492e-01 4.38953817e-01 4.36450571e-01 4.35368150e-01 4.34824437e-01 4.33684230e-01 4.29847956e-01 4.17124033e-01 3.78955364e-01 1.96188569e-01 6.01575756e-03 5.91811445e-03 6.27395278e-03 8.79543602e-01 7.29341507e-01 9.02824178e-02 6.35509714e-02 3.49500403e-02 2.20489372e-02 1.21778836e-02 1.09391427e-02 5.71351759e-02 4.33170497e-01 4.41726506e-01 4.42135543e-01 4.72662568e-01 5.11639893e-01 5.10607541e-01 5.07987142e-01 5.04791260e-01 4.98335838e-01 4.91214573e-01 4.84704107e-01 4.79550451e-01 4.75918055e-01 4.73601967e-01 4.72215384e-01 4.70895797e-01 4.68578845e-01 4.65513915e-01 4.55277234e-01 4.26478505e-01 1.51053229e-02 5.00516780e-03 4.58476646e-03 5.16045272e-01 8.45913410e-01 4.15950954e-01 5.65800488e-01 6.64625525e-01 1.23455666e-01 1.07561974e-02 1.08570270e-02 2.13882215e-02 4.19298679e-01 4.29424226e-01 4.64400291e-01 5.26141763e-01 5.42951226e-01 5.37983179e-01 5.33526421e-01 5.29590786e-01 5.25314033e-01 5.20366788e-01 5.15440762e-01 5.11226714e-01 5.08163691e-01 5.06353736e-01 5.05383193e-01 5.04149199e-01 5.02327919e-01 5.00392497e-01 4.93000090e-01 4.75161791e-01 7.73837790e-02 4.29622922e-03 4.56438167e-03 1.12971608e-02 7.15579212e-01 7.25338757e-01 7.17378020e-01 7.56030798e-01 8.63586962e-01 1.54099483e-02 1.16103152e-02 1.41013386e-02 4.14574921e-01 4.59804744e-01 5.32530189e-01 5.59908390e-01 5.53686202e-01 5.49954474e-01 5.46893179e-01 5.43870211e-01 5.40487409e-01 5.36898911e-01 5.33634007e-01 5.31256258e-01 5.30077815e-01 5.30001044e-01 5.30615866e-01 5.31653702e-01 5.33491552e-01 5.36157072e-01 5.38488686e-01 5.38922071e-01 3.35329860e-01 6.21813070e-03 6.50561973e-03 7.20431143e-03 3.05457450e-02 1.75764352e-01 1.53488517e-01 1.04091257e-01 9.12482738e-01 2.29010880e-02 1.09129753e-02 1.51794991e-02 4.13420796e-01 5.30759215e-01 5.60357690e-01 5.53159833e-01 5.49182653e-01 5.46863794e-01 5.45091867e-01 5.43239653e-01 5.41153133e-01 5.39146125e-01 5.37747800e-01 5.37353635e-01 5.38048089e-01 5.39737582e-01 5.42497039e-01 5.46643317e-01 5.52763402e-01 5.61373711e-01 5.79448462e-01 5.93969405e-01 5.64804316e-01 7.93183446e-02 9.78188217e-03 1.26565630e-02 2.00457331e-02 5.57996333e-02 8.39861780e-02 6.31004618e-03 8.97501171e-01 1.72847882e-02 9.79475118e-03 2.28576399e-02 5.22816598e-01 5.45811653e-01 5.35942435e-01 5.29780686e-01 5.27560115e-01 5.27586043e-01 5.28146446e-01 5.28353870e-01 5.28180480e-01 5.28070569e-01 5.28457522e-01 5.29481530e-01 5.31068385e-01 5.33240199e-01 5.36259413e-01 5.40664077e-01 5.47718585e-01 5.60134828e-01 5.84768295e-01 6.15073442e-01 6.24852598e-01 5.99995613e-01 4.64582741e-02 2.07344349e-02 2.21867654e-02 5.10749184e-02 8.39768052e-02 6.78710043e-01 6.07132137e-01 1.15534095e-02 1.39648169e-02 5.13333738e-01 5.22052765e-01 5.03821850e-01 4.92163271e-01 4.89639461e-01 4.92572844e-01 4.97185975e-01 5.01357257e-01 5.04486978e-01 5.06852567e-01 5.08889258e-01 5.10726213e-01 5.12175679e-01 5.13071597e-01 5.13503194e-01 5.13906479e-01 5.15314996e-01 5.19693971e-01 5.30153930e-01 5.53389490e-01 5.91876209e-01 6.31431162e-01 6.54608548e-01 6.58780634e-01 6.72579408e-02 7.28081763e-02 1.04167342e-01 6.48207441e-02 8.14383507e-01 1.60454269e-02 1.54223004e-02 5.07459581e-01 4.97897387e-01 4.61976647e-01 4.40132797e-01 4.37252820e-01 4.44939703e-01 4.55748498e-01 4.65952933e-01 4.74391431e-01 4.81137305e-01 4.86535877e-01 4.90650386e-01 4.93196428e-01 4.93940115e-01 4.92972225e-01 4.90713209e-01 4.87887919e-01 4.85450536e-01 4.84475613e-01 4.86795574e-01 4.97858316e-01 5.25449693e-01 5.70040166e-01 6.21989965e-01 6.81868732e-01 6.12797737e-01 3.11270177e-01 5.09728014e-01 7.83436954e-01 1.71573851e-02 1.59916468e-02 5.07227421e-01 4.79968131e-01 4.15146291e-01 3.77380639e-01 3.74642551e-01 3.88700187e-01 4.07624334e-01 4.26149130e-01 4.42352772e-01 4.55827355e-01 4.66611028e-01 4.74559486e-01 4.79386717e-01 4.81066406e-01 4.80033219e-01 4.77038711e-01 4.72951174e-01 4.68586475e-01 4.64585751e-01 4.61519420e-01 4.60269153e-01 4.62037623e-01 4.68009233e-01 4.77799118e-01 4.94147301e-01 5.26050150e-01 6.01446688e-01 7.44539976e-01 7.76222587e-01 1.90396458e-02 1.73257515e-02 5.11431694e-01 4.70772266e-01 3.69819015e-01 3.13795567e-01 3.10946226e-01 3.31102937e-01 3.58037084e-01 3.85537654e-01 4.11022455e-01 4.33155924e-01 4.50839520e-01 4.63525414e-01 4.70973074e-01 4.73656207e-01 4.72639084e-01 4.69161123e-01 4.64353710e-01 4.59202409e-01 4.54677463e-01 4.51824337e-01 4.51438487e-01 4.53017920e-01 4.54113722e-01 4.51176018e-01 4.47668612e-01 4.74891156e-01 6.33611143e-01 7.89460182e-01 6.91447496e-01 1.98392812e-02 1.92737989e-02 5.17224610e-01 4.69460189e-01 3.33654076e-01 2.60698527e-01 2.55747527e-01 2.79973507e-01 3.13757122e-01 3.49629194e-01 3.84618491e-01 4.16051030e-01 4.40989316e-01 4.58211184e-01 4.67705190e-01 4.70847994e-01 4.69546288e-01 4.65503573e-01 4.60046858e-01 4.54348415e-01 4.49779361e-01 4.47956920e-01 4.50087875e-01 4.55782980e-01 4.62738007e-01 4.69279438e-01 4.82600778e-01 5.43491840e-01 6.94136620e-01 7.86427736e-01 3.15058500e-01 1.66334063e-02 1.73792690e-02 5.21870077e-01 4.72822130e-01 3.08173388e-01 2.20979571e-01 2.12064311e-01 2.39560008e-01 2.79976308e-01 3.23551863e-01 3.67338091e-01 4.07377064e-01 4.38429326e-01 4.58673954e-01 4.68877345e-01 4.71763909e-01 4.70032632e-01 4.65651959e-01 4.60044086e-01 4.54596788e-01 4.51117933e-01 4.51734364e-01 4.57931101e-01 4.69443828e-01 4.84179050e-01 5.02530575e-01 5.35384536e-01 6.16953254e-01 7.24924803e-01 6.57216012e-01 1.33394137e-01 2.58294269e-02 1.73624791e-02 5.24124742e-01 4.76998508e-01 2.89289534e-01 1.86987981e-01 1.73680574e-01 2.05675572e-01 2.57404774e-01 3.10026050e-01 3.61638695e-01 4.08369750e-01 4.42856371e-01 4.63507414e-01 4.72840220e-01 4.74986583e-01 4.73033488e-01 4.68913406e-01 4.64046001e-01 4.60058659e-01 4.59204137e-01 4.63945180e-01 4.75659758e-01 4.93361652e-01 5.14279783e-01 5.38266838e-01 5.82615018e-01 6.43828988e-01 6.76772475e-01 3.71351510e-01 7.62457773e-02 4.07190956e-02 3.22400033e-02 5.24368644e-01 4.79677856e-01 2.73888320e-01 1.54332817e-01 1.40500054e-01 1.75304204e-01 2.41807416e-01 3.08640808e-01 3.67523909e-01 4.17906284e-01 4.51991677e-01 4.70175743e-01 4.77543324e-01 4.78962928e-01 4.77347732e-01 4.74350393e-01 4.71327245e-01 4.70091432e-01 4.73133713e-01 4.82779086e-01 4.99680787e-01 5.21266162e-01 5.44753492e-01 5.70238292e-01 6.09305263e-01 6.34265482e-01 5.35447359e-01 1.97301432e-01 6.11860976e-02 5.21801636e-02 6.23084381e-02 5.23583591e-01 4.80266958e-01 2.55484909e-01 1.26397535e-01 1.14821084e-01 1.52050599e-01 2.33781621e-01 3.17663401e-01 3.82908851e-01 4.32867974e-01 4.62396413e-01 4.76161361e-01 4.81336564e-01 4.82479304e-01 4.81902331e-01 4.80903447e-01 4.80742931e-01 4.83220100e-01 4.90595222e-01 5.04544914e-01 5.24433136e-01 5.47600389e-01 5.69603682e-01 5.98082960e-01 6.07620656e-01 5.62130749e-01 3.09039444e-01 1.23440176e-01 6.60168380e-02 6.34146035e-02 1.37267709e-01 5.22242963e-01 4.78912771e-01 2.33713821e-01 1.03463978e-01 9.55108032e-02 1.35978967e-01 2.35968798e-01 3.35525542e-01 4.04346347e-01 4.49128449e-01 4.70993906e-01 4.79926646e-01 4.83351827e-01 4.84802097e-01 4.85822260e-01 4.87385511e-01 4.90606844e-01 4.97011572e-01 5.08217216e-01 5.24918675e-01 5.45946419e-01 5.68138778e-01 5.92004955e-01 6.06619418e-01 5.74734390e-01 4.22681332e-01 2.05076396e-01 1.04239173e-01 8.27634558e-02 9.25489813e-02 2.55842119e-01 5.20459473e-01 4.76303428e-01 2.08738342e-01 8.47511217e-02 8.08028504e-02 1.26230985e-01 2.48902678e-01 3.59829575e-01 4.27917153e-01 4.62799937e-01 4.76190180e-01 4.81023729e-01 4.83394384e-01 4.85584855e-01 4.88419235e-01 4.92560327e-01 4.98909920e-01 5.08579075e-01 5.22447348e-01 5.40475965e-01 5.61434031e-01 5.83939970e-01 6.06826484e-01 6.01030588e-01 5.17851472e-01 3.11537087e-01 1.67131379e-01 1.17704779e-01 1.14917599e-01 1.58943579e-01 3.42513859e-01 5.18282712e-01 4.73077387e-01 1.78921178e-01 6.96881637e-02 6.96292147e-02 1.22181863e-01 2.71881163e-01 3.87573540e-01 4.49320465e-01 4.71695840e-01 4.77776527e-01 4.79688436e-01 4.81639683e-01 4.84742343e-01 4.89215583e-01 4.95395005e-01 5.03921330e-01 5.15523493e-01 5.30589819e-01 5.48917174e-01 5.69779754e-01 5.93891084e-01 6.11615360e-01 5.90318680e-01 4.75009531e-01 2.82135695e-01 1.78737208e-01 1.60109118e-01 1.82887569e-01 2.58962154e-01 4.02244091e-01 5.15560746e-01 4.69738454e-01 1.48343116e-01 5.75950369e-02 6.10825196e-02 1.24362990e-01 3.03627372e-01 4.16060627e-01 4.65044022e-01 4.75553781e-01 4.76220936e-01 4.76407051e-01 4.78409082e-01 4.82364893e-01 4.87999678e-01 4.95334893e-01 5.04754841e-01 5.16732693e-01 5.31529725e-01 5.49196124e-01 5.69922149e-01 5.93670428e-01 6.07300162e-01 5.82024753e-01 4.79830831e-01 3.28293025e-01 2.53204048e-01 2.57084727e-01 3.09729695e-01 3.70225966e-01 4.48016256e-01 5.11924446e-01 4.66754138e-01 1.23833440e-01 4.74274345e-02 5.40265478e-02 1.34861976e-01 3.40802759e-01 4.42233950e-01 4.73769754e-01 4.75027084e-01 4.72210109e-01 4.71705407e-01 4.74070460e-01 4.78662521e-01 4.84845728e-01 4.92406070e-01 5.01523316e-01 5.12536764e-01 5.25790572e-01 5.41720748e-01 5.61038911e-01 5.82383931e-01 5.93551636e-01 5.74193001e-01 5.08802235e-01 4.22524005e-01 3.82523447e-01 4.03453171e-01 4.42721695e-01 4.72068369e-01 4.88373399e-01 5.06924272e-01 4.64560270e-01 1.11960374e-01 3.81902680e-02 4.69542034e-02 1.58202112e-01 3.76423061e-01 4.62141842e-01 4.75946188e-01 4.70898926e-01 4.66474235e-01 4.66096103e-01 4.68980581e-01 4.73922908e-01 4.80088681e-01 4.87139642e-01 4.95117754e-01 5.04293501e-01 5.15126765e-01 5.28339982e-01 5.44702768e-01 5.62352657e-01 5.72032988e-01 5.61719179e-01 5.28518081e-01 4.92797166e-01 4.81120497e-01 4.96446013e-01 5.15270174e-01 5.26458085e-01 5.13085544e-01 5.00225544e-01 4.63266343e-01 1.18812121e-01 2.98472885e-02 3.85665856e-02 2.01458395e-01 4.12471920e-01 4.73523825e-01 4.72759753e-01 4.64079827e-01 4.59689140e-01 4.60032851e-01 4.63438362e-01 4.68459785e-01 4.74239081e-01 4.80397016e-01 4.86872256e-01 4.93867993e-01 5.01904368e-01 5.11836350e-01 5.24375558e-01 5.37950218e-01 5.46549022e-01 5.43350160e-01 5.29024541e-01 5.14792442e-01 5.10545552e-01 5.16001761e-01 5.24306059e-01 5.31669974e-01 5.17662525e-01 4.91680235e-01 4.62445408e-01 1.54195189e-01 2.35496107e-02 2.97368411e-02 2.67564982e-01 4.44465578e-01 4.75168705e-01 4.65303957e-01 4.55720484e-01 4.52545792e-01 4.53889251e-01 4.57668275e-01 4.62553293e-01 4.67831850e-01 4.73123103e-01 4.78243887e-01 4.83261973e-01 4.88636106e-01 4.95222718e-01 5.03747046e-01 5.13372838e-01 5.20608306e-01 5.21719694e-01 5.16986012e-01 5.11029363e-01 5.08017957e-01 5.09362221e-01 5.13691187e-01 5.18704593e-01 5.12174785e-01 4.81285214e-01 4.61159468e-01 2.33217105e-01 1.97015814e-02 2.32506897e-02 3.44173729e-01 4.64677840e-01 4.68024552e-01 4.54864204e-01 4.47158992e-01 4.45815772e-01 4.48008865e-01 4.51856315e-01 4.56431657e-01 4.61279452e-01 4.66050267e-01 4.70424414e-01 4.74241406e-01 4.77694631e-01 4.81412232e-01 4.86136079e-01 4.91819352e-01 4.96928334e-01 4.99434292e-01 4.98706400e-01 4.95952874e-01 4.93276626e-01 4.92890865e-01 4.95346904e-01 4.98729527e-01 5.02896190e-01 4.72149193e-01 4.54701602e-01 3.39429706e-01 1.76725648e-02 1.95101146e-02 4.04521674e-01 4.70197618e-01 4.55466628e-01 4.44408745e-01 4.40329880e-01 4.40552175e-01 4.42852497e-01 4.46171671e-01 4.50138748e-01 4.54585761e-01 4.59258080e-01 4.63769674e-01 4.67719287e-01 4.70848888e-01 4.73184288e-01 4.75061685e-01 4.76811409e-01 4.78196472e-01 4.78397012e-01 4.76781428e-01 4.73591387e-01 4.70165342e-01 4.68481958e-01 4.69969541e-01 4.73863482e-01 4.91056323e-01 4.80865806e-01 4.52039063e-01 4.50627297e-01 1.42443730e-02 1.74145959e-02 4.54114467e-01 4.60772544e-01 4.46536571e-01 4.40030992e-01 4.38072175e-01 4.37855244e-01 4.38731492e-01 4.40627307e-01 4.43637401e-01 4.47816610e-01 4.53016937e-01 4.58830893e-01 4.64645803e-01 4.69723135e-01 4.73298550e-01 4.74632084e-01 4.73044664e-01 4.68184620e-01 4.60537761e-01 4.51778024e-01 4.44316834e-01 4.39885616e-01 4.38622087e-01 4.39707071e-01 4.45392787e-01 4.78347808e-01 5.01939833e-01 4.89185065e-01 4.84081775e-01 2.30726544e-02 1.75796952e-02 5.20875931e-01 4.78278548e-01 4.75216180e-01 4.72119540e-01 4.70047981e-01 4.68690783e-01 4.68111962e-01 4.68349308e-01 4.69427645e-01 4.71377999e-01 4.74180073e-01 4.77718920e-01 4.81778771e-01 4.85965252e-01 4.89565939e-01 4.91524875e-01 4.90725607e-01 4.86515045e-01 4.79226589e-01 4.70511973e-01 4.63065982e-01 4.59174842e-01 4.59007591e-01 4.60667700e-01 4.62178558e-01 4.78277117e-01 
