# vtk DataFile Version 2.0
results/iter0.vtk, Created by Freefem++ 
ASCII
DATASET UNSTRUCTURED_GRID
POINTS 961 float
0 0 0
0.033333333 0 0
0.066666667 0 0
0.1 0 0
0.13333333 0 0
0.16666667 0 0
0.2 0 0
0.23333333 0 0
0.26666667 0 0
0.3 0 0
0.33333333 0 0
0.36666667 0 0
0.4 0 0
0.43333333 0 0
0.46666667 0 0
0.5 0 0
0.53333333 0 0
0.56666667 0 0
0.6 0 0
0.63333333 0 0
0.66666667 0 0
0.7 0 0
0.73333333 0 0
0.76666667 0 0
0.8 0 0
0.83333333 0 0
0.86666667 0 0
0.9 0 0
0.93333333 0 0
0.96666667 0 0
1 0 0
0 0.033333333 0
0.033333333 0.033333333 0
0.066666667 0.033333333 0
0.1 0.033333333 0
0.13333333 0.033333333 0
0.16666667 0.033333333 0
0.2 0.033333333 0
0.23333333 0.033333333 0
0.26666667 0.033333333 0
0.3 0.033333333 0
0.33333333 0.033333333 0
0.36666667 0.033333333 0
0.4 0.033333333 0
0.43333333 0.033333333 0
0.46666667 0.033333333 0
0.5 0.033333333 0
0.53333333 0.033333333 0
0.56666667 0.033333333 0
0.6 0.033333333 0
0.63333333 0.033333333 0
0.66666667 0.033333333 0
0.7 0.033333333 0
0.73333333 0.033333333 0
0.76666667 0.033333333 0
0.8 0.033333333 0
0.83333333 0.033333333 0
0.86666667 0.033333333 0
0.9 0.033333333 0
0.93333333 0.033333333 0
0.96666667 0.033333333 0
1 0.033333333 0
0 0.066666667 0
0.033333333 0.066666667 0
0.066666667 0.066666667 0
0.1 0.066666667 0
0.13333333 0.066666667 0
0.16666667 0.066666667 0
0.2 0.066666667 0
0.23333333 0.066666667 0
0.26666667 0.066666667 0
0.3 0.066666667 0
0.33333333 0.066666667 0
0.36666667 0.066666667 0
0.4 0.066666667 0
0.43333333 0.066666667 0
0.46666667 0.066666667 0
0.5 0.066666667 0
0.53333333 0.066666667 0
0.56666667 0.066666667 0
0.6 0.066666667 0
0.63333333 0.066666667 0
0.66666667 0.066666667 0
0.7 0.066666667 0
0.73333333 0.066666667 0
0.76666667 0.066666667 0
0.8 0.066666667 0
0.83333333 0.066666667 0
0.86666667 0.066666667 0
0.9 0.066666667 0
0.93333333 0.066666667 0
0.96666667 0.066666667 0
1 0.066666667 0
0 0.1 0
0.033333333 0.1 0
0.066666667 0.1 0
0.1 0.1 0
0.13333333 0.1 0
0.16666667 0.1 0
0.2 0.1 0
0.23333333 0.1 0
0.26666667 0.1 0
0.3 0.1 0
0.33333333 0.1 0
0.36666667 0.1 0
0.4 0.1 0
0.43333333 0.1 0
0.46666667 0.1 0
0.5 0.1 0
0.53333333 0.1 0
0.56666667 0.1 0
0.6 0.1 0
0.63333333 0.1 0
0.66666667 0.1 0
0.7 0.1 0
0.73333333 0.1 0
0.76666667 0.1 0
0.8 0.1 0
0.83333333 0.1 0
0.86666667 0.1 0
0.9 0.1 0
0.93333333 0.1 0
0.96666667 0.1 0
1 0.1 0
0 0.13333333 0
0.033333333 0.13333333 0
0.066666667 0.13333333 0
0.1 0.13333333 0
0.13333333 0.13333333 0
0.16666667 0.13333333 0
0.2 0.13333333 0
0.23333333 0.13333333 0
0.26666667 0.13333333 0
0.3 0.13333333 0
0.33333333 0.13333333 0
0.36666667 0.13333333 0
0.4 0.13333333 0
0.43333333 0.13333333 0
0.46666667 0.13333333 0
0.5 0.13333333 0
0.53333333 0.13333333 0
0.56666667 0.13333333 0
0.6 0.13333333 0
0.63333333 0.13333333 0
0.66666667 0.13333333 0
0.7 0.13333333 0
0.73333333 0.13333333 0
0.76666667 0.13333333 0
0.8 0.13333333 0
0.83333333 0.13333333 0
0.86666667 0.13333333 0
0.9 0.13333333 0
0.93333333 0.13333333 0
0.96666667 0.13333333 0
1 0.13333333 0
0 0.16666667 0
0.033333333 0.16666667 0
0.066666667 0.16666667 0
0.1 0.16666667 0
0.13333333 0.16666667 0
0.16666667 0.16666667 0
0.2 0.16666667 0
0.23333333 0.16666667 0
0.26666667 0.16666667 0
0.3 0.16666667 0
0.33333333 0.16666667 0
0.36666667 0.16666667 0
0.4 0.16666667 0
0.43333333 0.16666667 0
0.46666667 0.16666667 0
0.5 0.16666667 0
0.53333333 0.16666667 0
0.56666667 0.16666667 0
0.6 0.16666667 0
0.63333333 0.16666667 0
0.66666667 0.16666667 0
0.7 0.16666667 0
0.73333333 0.16666667 0
0.76666667 0.16666667 0
0.8 0.16666667 0
0.83333333 0.16666667 0
0.86666667 0.16666667 0
0.9 0.16666667 0
0.93333333 0.16666667 0
0.96666667 0.16666667 0
1 0.16666667 0
0 0.2 0
0.033333333 0.2 0
0.066666667 0.2 0
0.1 0.2 0
0.13333333 0.2 0
0.16666667 0.2 0
0.2 0.2 0
0.23333333 0.2 0
0.26666667 0.2 0
0.3 0.2 0
0.33333333 0.2 0
0.36666667 0.2 0
0.4 0.2 0
0.43333333 0.2 0
0.46666667 0.2 0
0.5 0.2 0
0.53333333 0.2 0
0.56666667 0.2 0
0.6 0.2 0
0.63333333 0.2 0
0.66666667 0.2 0
0.7 0.2 0
0.73333333 0.2 0
0.76666667 0.2 0
0.8 0.2 0
0.83333333 0.2 0
0.86666667 0.2 0
0.9 0.2 0
0.93333333 0.2 0
0.96666667 0.2 0
1 0.2 0
0 0.23333333 0
0.033333333 0.23333333 0
0.066666667 0.23333333 0
0.1 0.23333333 0
0.13333333 0.23333333 0
0.16666667 0.23333333 0
0.2 0.23333333 0
0.23333333 0.23333333 0
0.26666667 0.23333333 0
0.3 0.23333333 0
0.33333333 0.23333333 0
0.36666667 0.23333333 0
0.4 0.23333333 0
0.43333333 0.23333333 0
0.46666667 0.23333333 0
0.5 0.23333333 0
0.53333333 0.23333333 0
0.56666667 0.23333333 0
0.6 0.23333333 0
0.63333333 0.23333333 0
0.66666667 0.23333333 0
0.7 0.23333333 0
0.73333333 0.23333333 0
0.76666667 0.23333333 0
0.8 0.23333333 0
0.83333333 0.23333333 0
0.86666667 0.23333333 0
0.9 0.23333333 0
0.93333333 0.23333333 0
0.96666667 0.23333333 0
1 0.23333333 0
0 0.26666667 0
0.033333333 0.26666667 0
0.066666667 0.26666667 0
0.1 0.26666667 0
0.13333333 0.26666667 0
0.16666667 0.26666667 0
0.2 0.26666667 0
0.23333333 0.26666667 0
0.26666667 0.26666667 0
0.3 0.26666667 0
0.33333333 0.26666667 0
0.36666667 0.26666667 0
0.4 0.26666667 0
0.43333333 0.26666667 0
0.46666667 0.26666667 0
0.5 0.26666667 0
0.53333333 0.26666667 0
0.56666667 0.26666667 0
0.6 0.26666667 0
0.63333333 0.26666667 0
0.66666667 0.26666667 0
0.7 0.26666667 0
0.73333333 0.26666667 0
0.76666667 0.26666667 0
0.8 0.26666667 0
0.83333333 0.26666667 0
0.86666667 0.26666667 0
0.9 0.26666667 0
0.93333333 0.26666667 0
0.96666667 0.26666667 0
1 0.26666667 0
0 0.3 0
0.033333333 0.3 0
0.066666667 0.3 0
0.1 0.3 0
0.13333333 0.3 0
0.16666667 0.3 0
0.2 0.3 0
0.23333333 0.3 0
0.26666667 0.3 0
0.3 0.3 0
0.33333333 0.3 0
0.36666667 0.3 0
0.4 0.3 0
0.43333333 0.3 0
0.46666667 0.3 0
0.5 0.3 0
0.53333333 0.3 0
0.56666667 0.3 0
0.6 0.3 0
0.63333333 0.3 0
0.66666667 0.3 0
0.7 0.3 0
0.73333333 0.3 0
0.76666667 0.3 0
0.8 0.3 0
0.83333333 0.3 0
0.86666667 0.3 0
0.9 0.3 0
0.93333333 0.3 0
0.96666667 0.3 0
1 0.3 0
0 0.33333333 0
0.033333333 0.33333333 0
0.066666667 0.33333333 0
0.1 0.33333333 0
0.13333333 0.33333333 0
0.16666667 0.33333333 0
0.2 0.33333333 0
0.23333333 0.33333333 0
0.26666667 0.33333333 0
0.3 0.33333333 0
0.33333333 0.33333333 0
0.36666667 0.33333333 0
0.4 0.33333333 0
0.43333333 0.33333333 0
0.46666667 0.33333333 0
0.5 0.33333333 0
0.53333333 0.33333333 0
0.56666667 0.33333333 0
0.6 0.33333333 0
0.63333333 0.33333333 0
0.66666667 0.33333333 0
0.7 0.33333333 0
0.73333333 0.33333333 0
0.76666667 0.33333333 0
0.8 0.33333333 0
0.83333333 0.33333333 0
0.86666667 0.33333333 0
0.9 0.33333333 0
0.93333333 0.33333333 0
0.96666667 0.33333333 0
1 0.33333333 0
0 0.36666667 0
0.033333333 0.36666667 0
0.066666667 0.36666667 0
0.1 0.36666667 0
0.13333333 0.36666667 0
0.16666667 0.36666667 0
0.2 0.36666667 0
0.23333333 0.36666667 0
0.26666667 0.36666667 0
0.3 0.36666667 0
0.33333333 0.36666667 0
0.36666667 0.36666667 0
0.4 0.36666667 0
0.43333333 0.36666667 0
0.46666667 0.36666667 0
0.5 0.36666667 0
0.53333333 0.36666667 0
0.56666667 0.36666667 0
0.6 0.36666667 0
0.63333333 0.36666667 0
0.66666667 0.36666667 0
0.7 0.36666667 0
0.73333333 0.36666667 0
0.76666667 0.36666667 0
0.8 0.36666667 0
0.83333333 0.36666667 0
0.86666667 0.36666667 0
0.9 0.36666667 0
0.93333333 0.36666667 0
0.96666667 0.36666667 0
1 0.36666667 0
0 0.4 0
0.033333333 0.4 0
0.066666667 0.4 0
0.1 0.4 0
0.13333333 0.4 0
0.16666667 0.4 0
0.2 0.4 0
0.23333333 0.4 0
0.26666667 0.4 0
0.3 0.4 0
0.33333333 0.4 0
0.36666667 0.4 0
0.4 0.4 0
0.43333333 0.4 0
0.46666667 0.4 0
0.5 0.4 0
0.53333333 0.4 0
0.56666667 0.4 0
0.6 0.4 0
0.63333333 0.4 0
0.66666667 0.4 0
0.7 0.4 0
0.73333333 0.4 0
0.76666667 0.4 0
0.8 0.4 0
0.83333333 0.4 0
0.86666667 0.4 0
0.9 0.4 0
0.93333333 0.4 0
0.96666667 0.4 0
1 0.4 0
0 0.43333333 0
0.033333333 0.43333333 0
0.066666667 0.43333333 0
0.1 0.43333333 0
0.13333333 0.43333333 0
0.16666667 0.43333333 0
0.2 0.43333333 0
0.23333333 0.43333333 0
0.26666667 0.43333333 0
0.3 0.43333333 0
0.33333333 0.43333333 0
0.36666667 0.43333333 0
0.4 0.43333333 0
0.43333333 0.43333333 0
0.46666667 0.43333333 0
0.5 0.43333333 0
0.53333333 0.43333333 0
0.56666667 0.43333333 0
0.6 0.43333333 0
0.63333333 0.43333333 0
0.66666667 0.43333333 0
0.7 0.43333333 0
0.73333333 0.43333333 0
0.76666667 0.43333333 0
0.8 0.43333333 0
0.83333333 0.43333333 0
0.86666667 0.43333333 0
0.9 0.43333333 0
0.93333333 0.43333333 0
0.96666667 0.43333333 0
1 0.43333333 0
0 0.46666667 0
0.033333333 0.46666667 0
0.066666667 0.46666667 0
0.1 0.46666667 0
0.13333333 0.46666667 0
0.16666667 0.46666667 0
0.2 0.46666667 0
0.23333333 0.46666667 0
0.26666667 0.46666667 0
0.3 0.46666667 0
0.33333333 0.46666667 0
0.36666667 0.46666667 0
0.4 0.46666667 0
0.43333333 0.46666667 0
0.46666667 0.46666667 0
0.5 0.46666667 0
0.53333333 0.46666667 0
0.56666667 0.46666667 0
0.6 0.46666667 0
0.63333333 0.46666667 0
0.66666667 0.46666667 0
0.7 0.46666667 0
0.73333333 0.46666667 0
0.76666667 0.46666667 0
0.8 0.46666667 0
0.83333333 0.46666667 0
0.86666667 0.46666667 0
0.9 0.46666667 0
0.93333333 0.46666667 0
0.96666667 0.46666667 0
1 0.46666667 0
0 0.5 0
0.033333333 0.5 0
0.066666667 0.5 0
0.1 0.5 0
0.13333333 0.5 0
0.16666667 0.5 0
0.2 0.5 0
0.23333333 0.5 0
0.26666667 0.5 0
0.3 0.5 0
0.33333333 0.5 0
0.36666667 0.5 0
0.4 0.5 0
0.43333333 0.5 0
0.46666667 0.5 0
0.5 0.5 0
0.53333333 0.5 0
0.56666667 0.5 0
0.6 0.5 0
0.63333333 0.5 0
0.66666667 0.5 0
0.7 0.5 0
0.73333333 0.5 0
0.76666667 0.5 0
0.8 0.5 0
0.83333333 0.5 0
0.86666667 0.5 0
0.9 0.5 0
0.93333333 0.5 0
0.96666667 0.5 0
1 0.5 0
0 0.53333333 0
0.033333333 0.53333333 0
0.066666667 0.53333333 0
0.1 0.53333333 0
0.13333333 0.53333333 0
0.16666667 0.53333333 0
0.2 0.53333333 0
0.23333333 0.53333333 0
0.26666667 0.53333333 0
0.3 0.53333333 0
0.33333333 0.53333333 0
0.36666667 0.53333333 0
0.4 0.53333333 0
0.43333333 0.53333333 0
0.46666667 0.53333333 0
0.5 0.53333333 0
0.53333333 0.53333333 0
0.56666667 0.53333333 0
0.6 0.53333333 0
0.63333333 0.53333333 0
0.66666667 0.53333333 0
0.7 0.53333333 0
0.73333333 0.53333333 0
0.76666667 0.53333333 0
0.8 0.53333333 0
[...]
CELL_DATA 1920
Scalars  Label int 1
LOOKUP_TABLE FreeFempp_table
0
0
0
0
0
0
0
0
0
0
0
0
0
0
0
0
0
0
0
0
0
0
0
0
0
0
0
0
0
0
0
0
0
0
0
0
0
0
0
0
0
0
0
0
0
0
0
0
0
0
0
0
0
0
0
0
0
0
0
0
0
0
0
0
0
0
0
0
0
0
0
0
0
0
0
0
0
0
0
0
0
0
0
0
0
0
0
0
0
0
0
0
0
0
0
0
0
0
0
0
0
0
0
0
0
0
0
0
0
0
0
0
0
0
0
0
0
0
0
0
0
0
0
0
0
0
0
0
0
0
0
0
0
0
0
0
0
0
0
0
0
0
0
0
0
0
0
0
0
0
0
0
0
0
0
0
0
0
0
0
0
0
0
0
0
0
0
0
0
0
0
0
0
0
0
0
0
0
0
0
0
0
0
0
0
0
0
0
0
0
0
0
0
0
0
0
0
0
0
0
0
0
0
0
0
0
0
0
0
0
0
0
0
0
0
0
0
0
0
0
0
0
0
0
0
0
0
0
0
0
0
0
0
0
0
0
0
0
0
0
0
0
0
0
0
0
0
0
0
0
0
0
0
0
0
0
0
0
0
0
0
0
0
0
0
0
0
0
0
0
0
0
0
0
0
0
0
0
0
0
0
0
0
0
0
0
0
0
0
0
0
0
0
0
0
0
0
0
0
0
0
0
0
0
0
0
0
0
0
0
0
0
0
0
0
0
0
0
0
0
0
0
0
0
0
0
0
0
0
0
0
0
0
0
0
0
0
0
0
0
0
0
0
0
0
0
0
0
0
0
0
0
0
0
0
0
0
0
0
0
0
0
0
0
0
0
0
0
0
0
0
0
0
0
0
0
0
0
0
0
0
0
0
0
0
0
0
0
0
0
0
0
0
0
0
0
0
0
0
0
0
0
0
0
0
0
0
0
0
0
0
0
0
0
0
0
0
0
0
0
0
0
0
0
0
0
0
0
0
0
0
0
0
0
0
0
0
0
0
0
0
0
0
0
0
0
0
0
0
0
0
0
0
0
0
0
0
0
0
0
0
0
0
0
0
0
0
0
0
0
0
0
0
0
0
0
0
0
0
0
0
0
0
0
0
0
0
0
0
0
0
0
0
0
0
0
0
0
0
0
0
0
0
0
0
0
0
0
0
0
0
0
0
0
0
0
0
0
0
0
0
0
0
0
0
0
0
0
0
0
0
0
0
0
0
0
0
0
0
0
0
0
0
0
0
0
0
0
0
0
0
0
0
0
0
0
0
0
0
0
0
0
0
0
0
0
0
0
0
0
0
0
0
0
0
0
0
0
0
0
0
0
0
0
0
0
0
0
0
0
0
0
0
0
0
0
0
0
0
0
0
0
0
0
0
0
0
0
0
0
0
0
0
0
0
0
0
0
0
0
0
0
0
0
0
0
0
0
0
0
0
0
0
0
0
0
0
0
0
0
0
0
0
0
0
0
0
0
0
0
0
0
0
0
0
0
0
0
0
0
0
0
0
0
0
0
0
0
0
0
0
0
0
0
0
0
0
0
0
0
0
0
0
0
0
0
0
0
0
0
0
0
0
0
0
0
0
0
0
0
0
0
0
0
0
0
0
0
0
0
0
0
0
0
0
0
0
0
0
0
0
0
0
0
0
0
0
0
0
0
0
0
0
0
0
0
0
0
0
0
0
0
0
0
0
0
0
0
0
0
0
0
0
0
0
0
0
0
0
0
0
0
0
0
0
0
0
0
0
0
0
0
0
0
0
0
0
0
0
0
0
0
0
0
0
0
0
0
0
0
0
0
0
0
0
0
0
0
0
0
0
0
0
0
0
0
0
0
0
0
0
0
0
0
0
0
0
0
0
0
0
0
0
0
0
0
0
0
0
0
0
0
0
0
0
0
0
0
0
0
0
0
0
0
0
0
0
0
0
0
0
0
0
0
0
0
0
0
0
0
0
0
0
0
0
0
0
0
0
0
0
0
0
0
0
0
0
0
0
0
0
0
0
0
0
0
0
0
0
0
0
0
0
0
0
0
0
0
0
0
0
0
0
0
0
0
0
0
0
0
0
0
0
0
0
0
0
0
0
0
0
0
0
0
0
0
0
0
0
0
0
0
0
0
0
0
0
0
0
0
0
0
0
0
0
0
0
0
0
0
0
0
0
0
0
0
0
0
0
0
0
0
0
0
0
0
0
0
0
0
0
0
0
0
0
0
0
0
0
0
0
0
0
0
0
0
0
0
0
0
0
0
0
0
0
0
0
0
0
0
0
0
0
0
0
0
0
0
0
0
0
0
0
0
0
0
0
0
0
0
0
0
0
0
0
0
0
0
0
0
0
0
0
0
0
0
0
0
0
0
0
0
0
0
0
0
0
0
0
0
0
0
0
0
0
0
0
0
0
0
0
0
0
0
0
0
0
0
0
0
0
0
0
0
0
0
0
0
0
0
0
0
0
0
0
0
0
0
0
0
0
0
0
0
0
0
0
0
0
0
0
0
0
0
0
0
0
0
0
0
0
0
0
0
0
0
0
0
0
0
0
0
0
0
0
0
0
0
0
0
0
0
0
0
0
0
0
0
0
0
0
0
0
0
0
0
0
0
0
0
0
0
0
0
0
0
0
0
0
0
0
0
0
0
0
0
0
0
0
0
0
0
0
0
0
0
0
0
0
0
0
0
0
0
0
0
0
0
0
0
0
0
0
0
0
0
0
0
0
0
0
0
0
0
0
0
0
0
0
0
0
0
0
0
0
0
0
0
0
0
0
0
0
0
0
0
0
0
0
0
0
0
0
0
0
0
0
0
0
0
0
0
0
0
0
0
0
0
0
0
0
0
0
0
0
0
0
0
0
0
0
0
0
0
0
0
0
0
0
0
0
0
0
0
0
0
0
0
0
0
0
0
0
0
0
0
0
0
0
0
0
0
0
0
0
0
0
0
0
0
0
0
0
0
0
0
0
0
0
0
0
0
0
0
0
0
0
0
0
0
0
0
0
0
0
0
0
0
0
0
0
0
0
0
0
0
0
0
0
0
0
0
0
0
0
0
0
0
0
0
0
0
0
0
0
0
0
0
0
0
0
0
0
0
0
0
0
0
0
0
0
0
0
0
0
0
0
0
0
0
0
0
0
0
0
0
0
0
0
0
0
0
0
0
0
0
0
0
0
0
0
0
0
0
0
0
0
0
0
0
0
0
0
0
0
0
0
0
0
0
0
0
0
0
0
0
0
0
0
0
0
0
0
0
0
0
0
0
0
0
0
0
0
0
0
0
0
0
0
0
0
0
0
0
0
0
0
0
0
0
0
0
0
0
0
0
0
0
0
0
0
0
0
0
0
0
0
0
0
0
0
0
0
0
0
0
0
0
0
0
0
0
0
0
0
0
0
0
0
0
0
0
0
0
0
0
0
0
0
0
0
0
0
0
0
0
0
0
0
0
0
0
0
0
0
0
0
0
0
0
0
0
0
0
0
0
0
0
0
0
0
0
0
0
0
0
0
0
0
0
0
0
0
0
0
0
0
0
0
0
0
0
0
0
0
0
0
0
0
0
0
0
0
0
0
0
0
0
0
0
0
0
0
0
0
0
0
0
0
0
0
0
0
0
0
0
0
0
0
0
0
0
0
0
0
0
0
0
0
0
0
0
0
0
0
0
0
0
0
0
0
0
0
0
0
0
0
0
0
0
0
0
0
0
0
0
0
0
0
0
0
0
0
0
0
0
0
0
0
0
0
0
0
0
0
0
0
0
0
0
0
0
0
0
0
0
0
0
0
0
0
0
0
0
0
0
0
0
0
0
0
0
0
0
0
0
0
0
0
0
0
0
0
0
0
0
0
0
0
0
0
0
0
0
0
0
0
0
0
0
0
0
0
0
0
0
0
0
0
0
0
0
0
0
0
0
0
0
0
0
0
0
0
0
0
0
0
0
0
0
0
0
0
0
0
0
0
0
0
0
0
0
0
0
0
0
0
0
0
0
0
0
0
0
0
0
0
0
0
0
0
0
0
0
0
0
0
0
0
0
0
0
0
0
0
0
0
0
0
0
0
0
0
0
0
0
0
0
0
0
1
1
1
1
1
1
1
1
1
1
1
1
1
1
1
1
1
1
1
1
1
1
1
1
1
1
1
1
1
1
2
2
2
2
2
2
2
2
2
2
2
2
2
2
2
2
2
2
2
2
2
2
2
2
2
2
2
2
2
2
3
3
3
3
3
3
3
3
3
3
3
3
3
3
3
3
3
3
3
3
3
3
3
3
3
3
3
3
3
3
4
4
4
4
4
4
4
4
4
4
4
4
4
4
4
4
4
4
4
4
4
4
4
4
4
4
4
4
4
4

LOOKUP_TABLE FreeFempp_table 5
1.00000000 0.00000000 0.00000000 1.00000000
1.00000000 1.00000000 0.00000000 1.00000000
1.00000000 0.00000000 1.00000000 1.00000000
0.00000000 1.00000000 0.00000000 1.00000000
0.00000000 1.00000000 1.00000000 1.00000000

POINT_DATA 961
FIELD FieldData 1
Density 1 961 float
3.50162387e-01 3.27384382e-01 3.57810259e-01 3.60480845e-01 3.56019467e-01 3.50011230e-01 3.42704535e-01 3.31512213e-01 3.17595214e-01 3.02275121e-01 2.95840204e-01 3.31903934e-01 3.70236367e-01 3.96906048e-01 4.11638469e-01 4.18676287e-01 4.15977210e-01 4.10486609e-01 4.20608312e-01 4.45543498e-01 5.35241067e-01 7.87298024e-01 8.04809988e-01 7.37012684e-01 7.82724380e-01 8.19452286e-01 9.01065171e-01 7.00415552e-01 7.97609150e-01 8.46083462e-01 6.67214870e-01 1.87861698e-03 2.50753969e-01 3.05446118e-01 2.75071591e-01 2.66007543e-01 2.61700779e-01 2.58098722e-01 2.50239789e-01 2.30665430e-01 2.12128043e-01 1.90578818e-01 2.14607239e-01 2.55041242e-01 2.80595988e-01 2.96126992e-01 3.13564122e-01 3.13844383e-01 2.99334794e-01 3.00680161e-01 3.41129720e-01 4.46046114e-01 7.98159897e-01 8.82233500e-01 4.82061118e-01 2.08229691e-01 2.70813733e-01 2.59030551e-01 2.74480432e-01 8.79212439e-01 7.08231747e-01 7.08067060e-01 1.25486567e-03 1.02687185e-03 1.70620903e-03 1.70815689e-03 1.75687450e-03 1.79213879e-03 1.81011553e-03 1.82604371e-03 1.83569896e-03 1.99130294e-03 2.30960292e-03 1.62678491e-02 3.72965127e-01 3.59084249e-01 3.35858732e-01 3.58270556e-01 3.76873523e-01 3.53579253e-01 3.16957265e-01 3.31985235e-01 4.26313668e-01 7.02378750e-01 8.60520482e-01 2.53233224e-01 6.87324479e-02 3.13351527e-02 2.63586547e-02 4.36373390e-02 2.48093203e-01 5.81741631e-01 5.69323063e-01 4.99667287e-01 1.63154688e-03 1.77343830e-03 1.66879466e-03 1.73523638e-03 1.77497533e-03 1.80020847e-03 1.81465934e-03 1.83629163e-03 1.82367081e-03 1.45847956e-03 1.48046343e-03 1.88694824e-03 2.21097283e-03 3.80988047e-03 5.33501543e-02 4.87823874e-01 4.73573655e-01 4.09450293e-01 3.62350285e-01 4.13590580e-01 6.30160093e-01 8.50440145e-01 2.58598059e-01 1.16080776e-01 2.56722141e-02 1.75063238e-02 1.26100350e-02 2.66884789e-02 3.11717600e-01 5.12243211e-01 5.09083927e-01 3.60023797e-01 1.57764286e-01 1.72408879e-01 3.52041394e-01 3.98689181e-01 4.15057480e-01 4.27432656e-01 4.23713177e-01 4.14569765e-01 2.99738087e-02 2.63191923e-03 2.13089166e-03 1.77164888e-03 1.64428027e-03 1.76975701e-03 2.30641337e-03 9.45228618e-03 4.17129427e-01 3.90521675e-01 3.75053883e-01 5.79985738e-01 8.45938802e-01 4.03744638e-01 1.32704169e-01 7.18192086e-02 2.83545535e-02 1.77253019e-02 7.03180116e-03 3.54789235e-02 4.91895884e-01 4.97005492e-01 3.83386463e-01 2.22479537e-01 1.64540738e-01 3.12074214e-01 4.00497168e-01 4.25955981e-01 4.39328253e-01 4.48429167e-01 4.47794706e-01 4.32609558e-01 4.28662986e-01 4.29646522e-01 4.10607666e-01 8.31519999e-03 2.51373369e-03 1.69745123e-03 1.76019734e-03 2.20654788e-03 3.50395180e-02 2.69101232e-01 3.35482866e-01 7.62305915e-01 7.43892968e-01 6.57601506e-02 1.47037879e-01 1.41227558e-01 6.43535256e-02 5.94024686e-03 8.22347775e-03 4.80767995e-01 4.97721940e-01 4.03552055e-01 3.42205763e-01 2.81295300e-01 3.48719954e-01 4.24364626e-01 4.55439091e-01 4.69168484e-01 4.76512909e-01 4.80035216e-01 4.77847338e-01 4.73280638e-01 4.76414025e-01 4.67801303e-01 4.60579753e-01 4.49766308e-01 1.39088005e-01 3.83077911e-03 1.72912178e-03 1.73637376e-03 8.99060164e-03 2.83254713e-01 5.44838667e-01 8.57222497e-01 3.89606535e-01 1.34060234e-01 2.37339601e-01 2.12886289e-01 6.69914484e-03 7.87751749e-03 4.77484584e-01 5.80189764e-01 4.88307327e-01 4.47431922e-01 4.14853007e-01 4.31502461e-01 4.73712355e-01 4.98936921e-01 5.12196720e-01 5.18578172e-01 5.20801723e-01 5.19412577e-01 5.15886128e-01 5.11866927e-01 5.04395366e-01 4.92893368e-01 4.82383400e-01 4.72750008e-01 4.64826643e-01 9.06207040e-02 2.23641074e-03 2.49098358e-03 5.32746036e-03 4.36169058e-01 8.38988066e-01 7.45702803e-01 3.24868619e-01 2.42017642e-01 2.85801530e-01 6.01495570e-03 6.70818798e-03 4.75776881e-01 7.11359978e-01 7.37627447e-01 7.07534492e-01 6.75569832e-01 6.38216317e-01 6.11340165e-01 5.96589446e-01 5.88502765e-01 5.82022250e-01 5.75096786e-01 5.67285657e-01 5.59126556e-01 5.50822079e-01 5.40989578e-01 5.28586209e-01 5.14486194e-01 5.02568483e-01 4.96862531e-01 4.77772146e-01 4.81632173e-01 3.90632497e-03 3.23556550e-03 4.99525713e-03 6.67084932e-01 8.87355089e-01 7.04042494e-01 3.20423871e-01 3.17157835e-01 5.44715161e-03 5.97395608e-03 4.78067875e-01 7.19350994e-01 8.00817251e-01 7.81676114e-01 7.74535894e-01 7.56891489e-01 7.30218947e-01 6.99578166e-01 6.72981322e-01 6.51653767e-01 6.33884549e-01 6.18417084e-01 6.04760528e-01 5.92296183e-01 5.79955995e-01 5.66920400e-01 5.52671969e-01 5.37757516e-01 5.26524484e-01 5.22552013e-01 5.01033306e-01 4.98784453e-01 5.82786882e-03 3.76749830e-03 5.73367486e-03 8.21548998e-01 9.38423514e-01 7.16507792e-01 3.92384470e-01 5.51637821e-03 4.98527568e-03 2.17425242e-01 6.05298877e-01 6.83978260e-01 6.84789419e-01 7.13749111e-01 7.33055174e-01 7.33783126e-01 7.21757770e-01 7.04746485e-01 6.86795533e-01 6.69698775e-01 6.53990090e-01 6.39777005e-01 6.26758933e-01 6.14383817e-01 6.02134466e-01 5.89449644e-01 5.75812876e-01 5.61818480e-01 5.50887883e-01 5.43440580e-01 5.14154971e-01 4.70933884e-01 6.78706961e-03 4.43313550e-03 6.84354408e-03 9.23299074e-01 9.09427106e-01 8.30207765e-01 7.70812016e-03 4.28930530e-03 2.43487768e-02 4.81399983e-01 4.21498209e-01 4.46781814e-01 5.05510867e-01 5.77978790e-01 6.36654079e-01 6.66795850e-01 6.75966978e-01 6.74952149e-01 6.69012249e-01 6.60818160e-01 6.51896477e-01 6.42965555e-01 6.34243727e-01 6.25650764e-01 6.16829872e-01 6.07241094e-01 5.96434355e-01 5.84961057e-01 5.75589120e-01 5.65310121e-01 5.43365002e-01 5.07148206e-01 8.64514895e-03 5.47570735e-03 7.98804499e-03 2.59824365e-01 9.78730202e-01 2.44002454e-02 4.06225305e-03 7.70605449e-03 3.84525090e-01 2.25527108e-01 2.34608844e-01 2.96196073e-01 3.96982759e-01 4.97265041e-01 5.66312253e-01 6.06998086e-01 6.28217340e-01 6.37974501e-01 6.41018927e-01 6.40358090e-01 6.37925744e-01 6.34889007e-01 6.31824851e-01 6.28799200e-01 6.25482798e-01 6.21339917e-01 6.15961790e-01 6.09864235e-01 6.03226960e-01 5.83878338e-01 5.91455162e-01 4.92583424e-01 1.19710462e-02 6.83932193e-03 1.25003597e-02 3.99582744e-01 9.99466777e-01 4.15625656e-03 4.99259494e-03 2.95299441e-01 1.18897401e-01 1.24037698e-01 1.72534943e-01 2.79736608e-01 4.00413066e-01 4.85330909e-01 5.40081859e-01 5.73864400e-01 5.94488859e-01 6.06662452e-01 6.13326192e-01 6.16752505e-01 6.18741035e-01 6.20556295e-01 6.22866333e-01 6.25874221e-01 6.29390478e-01 6.32845759e-01 6.34843767e-01 6.32128954e-01 6.13564610e-01 5.77954412e-01 5.81899941e-01 2.58258998e-01 2.50374414e-02 1.72653235e-02 2.05971580e-02 9.86070395e-01 3.88993113e-03 4.22844989e-03 1.95297301e-01 6.74559399e-02 7.47311786e-02 1.24022819e-01 2.38623828e-01 3.63090426e-01 4.47328895e-01 5.00512481e-01 5.34577370e-01 5.57165742e-01 5.72459877e-01 5.82495570e-01 5.88828206e-01 5.93114614e-01 5.96911013e-01 6.01470411e-01 6.07851744e-01 6.16549015e-01 6.27466142e-01 6.38945580e-01 6.45548940e-01 6.36056304e-01 6.02578998e-01 6.17533863e-01 3.15606773e-01 8.58500600e-02 9.30444226e-02 5.97185604e-02 9.73315299e-01 2.41329707e-03 2.89195892e-03 1.08036980e-01 4.33982611e-02 5.06731570e-02 1.16334163e-01 2.55905598e-01 3.74527961e-01 4.43152517e-01 4.85390514e-01 5.13591647e-01 5.33358872e-01 5.47472537e-01 5.57212591e-01 5.63378990e-01 5.67007184e-01 5.69411695e-01 5.72223842e-01 5.77227950e-01 5.85959315e-01 5.99350750e-01 6.16842866e-01 6.34529233e-01 6.45231783e-01 6.50493324e-01 6.65849268e-01 2.86228120e-01 7.42091760e-02 9.97621194e-02 3.30724984e-01 9.76522684e-01 5.31501090e-03 2.66109291e-03 5.95343150e-02 3.22450325e-02 3.92740704e-02 1.42058462e-01 3.17499697e-01 4.08463448e-01 4.53855991e-01 4.83556986e-01 5.05263984e-01 5.21469772e-01 5.33276856e-01 5.41288674e-01 5.45859277e-01 5.47406673e-01 5.46708584e-01 5.45126855e-01 5.44755578e-01 5.47958851e-01 5.57040632e-01 5.73145270e-01 5.95289052e-01 6.21567011e-01 6.61428452e-01 7.37604737e-01 5.39854527e-01 8.16761851e-02 7.89800435e-02 8.68568897e-01 9.22901392e-01 1.01032965e-02 7.69867375e-03 3.47476229e-02 2.64068283e-02 3.55027728e-02 2.14505866e-01 3.85845989e-01 4.38578695e-01 4.66509938e-01 4.87393051e-01 5.04374981e-01 5.17776430e-01 5.27664542e-01 5.34158766e-01 5.37329018e-01 5.37162602e-01 5.33770204e-01 5.27779877e-01 5.20742238e-01 5.15254557e-01 5.14514863e-01 5.21340966e-01 5.37367821e-01 5.63787282e-01 6.09889388e-01 7.04411566e-01 8.11437845e-01 1.75002277e-01 1.22570604e-01 9.34292555e-01 9.41026032e-01 9.89214610e-03 1.03967628e-02 2.11007148e-02 2.16437466e-02 3.74099538e-02 3.13429773e-01 4.29889470e-01 4.59319949e-01 4.77791280e-01 4.93713588e-01 5.07610738e-01 5.19027293e-01 5.27642667e-01 5.33329725e-01 5.35987198e-01 5.35362303e-01 5.31012416e-01 5.22593796e-01 5.10489583e-01 4.96467978e-01 4.83952999e-01 4.77476746e-01 4.81330961e-01 4.98770982e-01 5.35974383e-01 6.19114757e-01 7.53890514e-01 7.04444408e-01 2.07469553e-01 9.38421309e-01 3.21428984e-01 8.73684417e-03 8.79439712e-03 1.35142962e-02 1.62985530e-02 4.73076962e-02 3.87787700e-01 4.55126345e-01 4.74051148e-01 4.87912029e-01 5.00928938e-01 5.12708724e-01 5.22689223e-01 5.30494332e-01 5.35930693e-01 5.38850665e-01 5.38935065e-01 5.35449386e-01 5.27194083e-01 5.12972593e-01 4.92714643e-01 4.69035655e-01 4.48323786e-01 4.39555228e-01 4.50697660e-01 4.84546840e-01 5.47507524e-01 6.53123081e-01 7.76424229e-01 8.07404399e-01 9.43579316e-01 4.46746238e-02 9.50885471e-03 8.40052683e-03 9.73045453e-03 1.17214536e-02 7.48653263e-02 4.36343819e-01 4.73099202e-01 4.85806614e-01 4.96899992e-01 5.07813454e-01 5.17962456e-01 5.26796639e-01 5.33985734e-01 5.39368868e-01 5.42859554e-01 5.44244945e-01 5.42803288e-01 5.36866009e-01 5.23762524e-01 5.00863016e-01 4.68506068e-01 4.34361845e-01 4.16582465e-01 4.34049547e-01 4.87861782e-01 5.71460545e-01 6.90537155e-01 8.06065261e-01 8.93240988e-01 8.71696055e-01 2.12988500e-02 1.28518594e-02 1.09168468e-02 7.98793975e-03 9.05422959e-03 1.50010675e-01 4.72465992e-01 4.88615274e-01 4.95872706e-01 5.04356265e-01 5.13382018e-01 5.22083580e-01 5.29868066e-01 5.36423147e-01 5.41638315e-01 5.45552254e-01 5.48220754e-01 5.49313962e-01 5.47372639e-01 5.39065659e-01 5.19660473e-01 4.87210542e-01 4.51286435e-01 4.38682050e-01 4.83761758e-01 5.81740439e-01 6.96591854e-01 8.01154613e-01 8.47003222e-01 8.66468191e-01 2.63668984e-01 1.43639781e-02 1.32565312e-02 2.10367143e-02 7.17525370e-03 7.75569445e-03 3.16381842e-01 4.97991294e-01 5.01727700e-01 5.04091442e-01 5.09829998e-01 5.16914368e-01 5.24173141e-01 5.30897617e-01 5.36717474e-01 5.41523695e-01 5.45491815e-01 5.49108148e-01 5.52948356e-01 5.56919575e-01 5.59028447e-01 5.55179417e-01 5.44241130e-01 5.39503455e-01 5.73386192e-01 7.01418936e-01 7.80841291e-01 8.26996684e-01 8.60725820e-01 8.36637437e-01 6.12235487e-01 3.09881270e-02 1.25276390e-02 1.30908033e-02 4.80678938e-02 6.64370973e-03 7.05130491e-03 4.38353837e-01 5.11678755e-01 5.11443436e-01 5.10069370e-01 5.12962341e-01 5.17945468e-01 5.23689926e-01 5.29336751e-01 5.34380794e-01 5.38631916e-01 5.42350352e-01 5.46532571e-01 5.53133011e-01 5.64753890e-01 5.83345890e-01 6.09027982e-01 6.43535376e-01 6.97987199e-01 7.75060177e-01 8.29223216e-01 8.93978477e-01 8.80881846e-01 7.83658445e-01 3.61500047e-02 1.66009292e-02 1.42415408e-02 1.57453455e-02 1.87039133e-02 1.69761047e-01 6.17465284e-03 6.53016241e-03 4.58936661e-01 5.18261492e-01 5.17310917e-01 5.13246119e-01 5.13315737e-01 5.16144514e-01 5.20387471e-01 5.25032997e-01 5.29405534e-01 5.33162653e-01 5.36508083e-01 5.40709376e-01 5.48833072e-01 5.66129267e-01 5.98728716e-01 6.49596751e-01 7.14463532e-01 7.82820225e-01 8.34846795e-01 7.84124494e-01 1.94909379e-01 5.09988517e-02 3.34586687e-02 2.88822297e-02 2.20243596e-02 1.50106130e-02 1.99148804e-02 6.22661076e-02 4.84566927e-01 5.74372662e-03 6.06061984e-03 4.74603146e-01 5.23896754e-01 5.19370139e-01 5.12583971e-01 5.10238051e-01 5.11295319e-01 5.14322162e-01 5.18198729e-01 5.22136629e-01 5.25649130e-01 5.28727233e-01 5.32372952e-01 5.39565444e-01 5.56214452e-01 5.90361953e-01 6.46916509e-01 7.18969584e-01 7.88061917e-01 8.39094639e-01 8.60044062e-01 6.56590521e-01 1.16421483e-01 4.77571003e-02 2.93812528e-02 4.64981794e-02 4.05517012e-01 7.95107424e-01 8.44728708e-01 7.09150374e-01 5.39213559e-03 5.65645611e-03 4.88751113e-01 5.29788494e-01 5.17004430e-01 5.07195055e-01 5.03467560e-01 5.03641009e-01 5.06001115e-01 5.09433866e-01 5.13198674e-01 5.16796947e-01 5.20003259e-01 5.23167193e-01 5.27962804e-01 5.38504720e-01 5.61635196e-01 6.03839517e-01 6.64319277e-01 7.31811702e-01 7.94582009e-01 8.47289085e-01 8.79147112e-01 9.15669501e-01 9.38328803e-01 9.42984343e-01 9.42698598e-01 9.40151691e-01 9.11558807e-01 8.92639875e-01 8.02242577e-01 5.04693482e-03 5.35029033e-03 5.10581672e-01 5.31285763e-01 5.08943021e-01 4.97573167e-01 4.94007170e-01 4.94284481e-01 4.96493608e-01 4.99708891e-01 5.03432810e-01 5.07359743e-01 5.11253178e-01 5.14934003e-01 5.18545866e-01 5.23326933e-01 5.32679439e-01 5.51971793e-01 5.85132599e-01 6.30237103e-01 6.81663334e-01 7.34646618e-01 7.80869424e-01 8.17708790e-01 8.43362153e-01 8.48353207e-01 8.48068058e-01 8.40269268e-01 8.26308906e-01 8.03888023e-01 7.39073813e-01 4.30386793e-03 4.97100223e-03 5.37606955e-01 5.21126270e-01 4.96131718e-01 4.86346811e-01 4.84249055e-01 4.85123664e-01 4.87294585e-01 4.90213305e-01 4.93757039e-01 4.97980982e-01 5.02925634e-01 5.08401573e-01 5.13823688e-01 5.18338084e-01 5.21608233e-01 5.25157690e-01 5.32472670e-01 5.44811487e-01 5.54117143e-01 5.47728717e-01 5.47377288e-01 5.84417939e-01 5.99734247e-01 5.83099782e-01 5.76064527e-01 5.83575666e-01 6.07538879e-01 6.11057341e-01 6.16096318e-01 3.38366395e-03 4.16319491e-03 5.65539181e-01 5.02601504e-01 4.83777702e-01 4.77733880e-01 4.76947933e-01 4.77814615e-01 4.79343116e-01 4.81454730e-01 4.84424740e-01 4.88717914e-01 4.94825453e-01 5.03003478e-01 5.12901783e-01 5.23154080e-01 5.31158507e-01 5.33434749e-01 5.26639163e-01 5.07601261e-01 4.68926489e-01 4.07084972e-01 3.73579383e-01 4.11229044e-01 4.76719081e-01 4.97262359e-01 4.91433769e-01 4.96312648e-01 5.13571620e-01 5.11562049e-01 5.59989035e-01 4.08790633e-03 3.76907946e-03 6.49327934e-01 5.42071044e-01 5.30634582e-01 5.27668715e-01 5.27291834e-01 5.27686894e-01 5.28311551e-01 5.29130995e-01 5.30389249e-01 5.32449782e-01 5.35718322e-01 5.40515900e-01 5.46882510e-01 5.54303348e-01 5.61359882e-01 5.65344155e-01 5.62006593e-01 5.45829356e-01 5.11110067e-01 4.58944619e-01 4.23958778e-01 4.42304939e-01 4.92794931e-01 5.12132406e-01 5.26608825e-01 5.35397470e-01 5.38717806e-01 5.23835182e-01 5.41811824e-01 
