# vtk DataFile Version 2.0
results/iter5.vtk, Created by Freefem++ 
ASCII
DATASET UNSTRUCTURED_GRID
POINTS 961 float
0 0 0
0.033333333 0 0
0.066666667 0 0
0.1 0 0
0.13333333 0 0
0.16666667 0 0
0.2 0 0
0.23333333 0 0
0.26666667 0 0
0.3 0 0
0.33333333 0 0
0.36666667 0 0
0.4 0 0
0.43333333 0 0
0.46666667 0 0
0.5 0 0
0.53333333 0 0
0.56666667 0 0
0.6 0 0
0.63333333 0 0
0.66666667 0 0
0.7 0 0
0.73333333 0 0
0.76666667 0 0
0.8 0 0
0.83333333 0 0
0.86666667 0 0
0.9 0 0
0.93333333 0 0
0.96666667 0 0
1 0 0
0 0.033333333 0
0.033333333 0.033333333 0
0.066666667 0.033333333 0
0.1 0.033333333 0
0.13333333 0.033333333 0
0.16666667 0.033333333 0
0.2 0.033333333 0
0.23333333 0.033333333 0
0.26666667 0.033333333 0
0.3 0.033333333 0
0.33333333 0.033333333 0
0.36666667 0.033333333 0
0.4 0.033333333 0
0.43333333 0.033333333 0
0.46666667 0.033333333 0
0.5 0.033333333 0
0.53333333 0.033333333 0
0.56666667 0.033333333 0
0.6 0.033333333 0
0.63333333 0.033333333 0
0.66666667 0.033333333 0
0.7 0.033333333 0
0.73333333 0.033333333 0
0.76666667 0.033333333 0
0.8 0.033333333 0
0.83333333 0.033333333 0
0.86666667 0.033333333 0
0.9 0.033333333 0
0.93333333 0.033333333 0
0.96666667 0.033333333 0
1 0.033333333 0
0 0.066666667 0
0.033333333 0.066666667 0
0.066666667 0.066666667 0
0.1 0.066666667 0
0.13333333 0.066666667 0
0.16666667 0.066666667 0
0.2 0.066666667 0
0.23333333 0.066666667 0
0.26666667 0.066666667 0
0.3 0.066666667 0
0.33333333 0.066666667 0
0.36666667 0.066666667 0
0.4 0.066666667 0
0.43333333 0.066666667 0
0.46666667 0.066666667 0
0.5 0.066666667 0
0.53333333 0.066666667 0
0.56666667 0.066666667 0
0.6 0.066666667 0
0.63333333 0.066666667 0
0.66666667 0.066666667 0
0.7 0.066666667 0
0.73333333 0.066666667 0
0.76666667 0.066666667 0
0.8 0.066666667 0
0.83333333 0.066666667 0
0.86666667 0.066666667 0
0.9 0.066666667 0
0.93333333 0.066666667 0
0.96666667 0.066666667 0
1 0.066666667 0
0 0.1 0
0.033333333 0.1 0
0.066666667 0.1 0
0.1 0.1 0
0.13333333 0.1 0
0.16666667 0.1 0
0.2 0.1 0
0.23333333 0.1 0
0.26666667 0.1 0
0.3 0.1 0
0.33333333 0.1 0
0.36666667 0.1 0
0.4 0.1 0
0.43333333 0.1 0
0.46666667 0.1 0
0.5 0.1 0
0.53333333 0.1 0
0.56666667 0.1 0
0.6 0.1 0
0.63333333 0.1 0
0.66666667 0.1 0
0.7 0.1 0
0.73333333 0.1 0
0.76666667 0.1 0
0.8 0.1 0
0.83333333 0.1 0
0.86666667 0.1 0
0.9 0.1 0
0.93333333 0.1 0
0.96666667 0.1 0
1 0.1 0
0 0.13333333 0
0.033333333 0.13333333 0
0.066666667 0.13333333 0
0.1 0.13333333 0
0.13333333 0.13333333 0
0.16666667 0.13333333 0
0.2 0.13333333 0
0.23333333 0.13333333 0
0.26666667 0.13333333 0
0.3 0.13333333 0
0.33333333 0.13333333 0
0.36666667 0.13333333 0
0.4 0.13333333 0
0.43333333 0.13333333 0
0.46666667 0.13333333 0
0.5 0.13333333 0
0.53333333 0.13333333 0
0.56666667 0.13333333 0
0.6 0.13333333 0
0.63333333 0.13333333 0
0.66666667 0.13333333 0
0.7 0.13333333 0
0.73333333 0.13333333 0
0.76666667 0.13333333 0
0.8 0.13333333 0
0.83333333 0.13333333 0
0.86666667 0.13333333 0
0.9 0.13333333 0
0.93333333 0.13333333 0
0.96666667 0.13333333 0
1 0.13333333 0
0 0.16666667 0
0.033333333 0.16666667 0
0.066666667 0.16666667 0
0.1 0.16666667 0
0.13333333 0.16666667 0
0.16666667 0.16666667 0
0.2 0.16666667 0
0.23333333 0.16666667 0
0.26666667 0.16666667 0
0.3 0.16666667 0
0.33333333 0.16666667 0
0.36666667 0.16666667 0
0.4 0.16666667 0
0.43333333 0.16666667 0
0.46666667 0.16666667 0
0.5 0.16666667 0
0.53333333 0.16666667 0
0.56666667 0.16666667 0
0.6 0.16666667 0
0.63333333 0.16666667 0
0.66666667 0.16666667 0
0.7 0.16666667 0
0.73333333 0.16666667 0
0.76666667 0.16666667 0
0.8 0.16666667 0
0.83333333 0.16666667 0
0.86666667 0.16666667 0
0.9 0.16666667 0
0.93333333 0.16666667 0
0.96666667 0.16666667 0
1 0.16666667 0
0 0.2 0
0.033333333 0.2 0
0.066666667 0.2 0
0.1 0.2 0
0.13333333 0.2 0
0.16666667 0.2 0
0.2 0.2 0
0.23333333 0.2 0
0.26666667 0.2 0
0.3 0.2 0
0.33333333 0.2 0
0.36666667 0.2 0
0.4 0.2 0
0.43333333 0.2 0
0.46666667 0.2 0
0.5 0.2 0
0.53333333 0.2 0
0.56666667 0.2 0
0.6 0.2 0
0.63333333 0.2 0
0.66666667 0.2 0
0.7 0.2 0
0.73333333 0.2 0
0.76666667 0.2 0
0.8 0.2 0
0.83333333 0.2 0
0.86666667 0.2 0
0.9 0.2 0
0.93333333 0.2 0
0.96666667 0.2 0
1 0.2 0
0 0.23333333 0
0.033333333 0.23333333 0
0.066666667 0.23333333 0
0.1 0.23333333 0
0.13333333 0.23333333 0
0.16666667 0.23333333 0
0.2 0.23333333 0
0.23333333 0.23333333 0
0.26666667 0.23333333 0
0.3 0.23333333 0
0.33333333 0.23333333 0
0.36666667 0.23333333 0
0.4 0.23333333 0
0.43333333 0.23333333 0
0.46666667 0.23333333 0
0.5 0.23333333 0
0.53333333 0.23333333 0
0.56666667 0.23333333 0
0.6 0.23333333 0
0.63333333 0.23333333 0
0.66666667 0.23333333 0
0.7 0.23333333 0
0.73333333 0.23333333 0
0.76666667 0.23333333 0
0.8 0.23333333 0
0.83333333 0.23333333 0
0.86666667 0.23333333 0
0.9 0.23333333 0
0.93333333 0.23333333 0
0.96666667 0.23333333 0
1 0.23333333 0
0 0.26666667 0
0.033333333 0.26666667 0
0.066666667 0.26666667 0
0.1 0.26666667 0
0.13333333 0.26666667 0
0.16666667 0.26666667 0
0.2 0.26666667 0
0.23333333 0.26666667 0
0.26666667 0.26666667 0
0.3 0.26666667 0
0.33333333 0.26666667 0
0.36666667 0.26666667 0
0.4 0.26666667 0
0.43333333 0.26666667 0
0.46666667 0.26666667 0
0.5 0.26666667 0
0.53333333 0.26666667 0
0.56666667 0.26666667 0
0.6 0.26666667 0
0.63333333 0.26666667 0
0.66666667 0.26666667 0
0.7 0.26666667 0
0.73333333 0.26666667 0
0.76666667 0.26666667 0
0.8 0.26666667 0
0.83333333 0.26666667 0
0.86666667 0.26666667 0
0.9 0.26666667 0
0.93333333 0.26666667 0
0.96666667 0.26666667 0
1 0.26666667 0
0 0.3 0
0.033333333 0.3 0
0.066666667 0.3 0
0.1 0.3 0
0.13333333 0.3 0
0.16666667 0.3 0
0.2 0.3 0
0.23333333 0.3 0
0.26666667 0.3 0
0.3 0.3 0
0.33333333 0.3 0
0.36666667 0.3 0
0.4 0.3 0
0.43333333 0.3 0
0.46666667 0.3 0
0.5 0.3 0
0.53333333 0.3 0
0.56666667 0.3 0
0.6 0.3 0
0.63333333 0.3 0
0.66666667 0.3 0
0.7 0.3 0
0.73333333 0.3 0
0.76666667 0.3 0
0.8 0.3 0
0.83333333 0.3 0
0.86666667 0.3 0
0.9 0.3 0
0.93333333 0.3 0
0.96666667 0.3 0
1 0.3 0
0 0.33333333 0
0.033333333 0.33333333 0
0.066666667 0.33333333 0
0.1 0.33333333 0
0.13333333 0.33333333 0
0.16666667 0.33333333 0
0.2 0.33333333 0
0.23333333 0.33333333 0
0.26666667 0.33333333 0
0.3 0.33333333 0
0.33333333 0.33333333 0
0.36666667 0.33333333 0
0.4 0.33333333 0
0.43333333 0.33333333 0
0.46666667 0.33333333 0
0.5 0.33333333 0
0.53333333 0.33333333 0
0.56666667 0.33333333 0
0.6 0.33333333 0
0.63333333 0.33333333 0
0.66666667 0.33333333 0
0.7 0.33333333 0
0.73333333 0.33333333 0
0.76666667 0.33333333 0
0.8 0.33333333 0
0.83333333 0.33333333 0
0.86666667 0.33333333 0
0.9 0.33333333 0
0.93333333 0.33333333 0
0.96666667 0.33333333 0
1 0.33333333 0
0 0.36666667 0
0.033333333 0.36666667 0
0.066666667 0.36666667 0
0.1 0.36666667 0
0.13333333 0.36666667 0
0.16666667 0.36666667 0
0.2 0.36666667 0
0.23333333 0.36666667 0
0.26666667 0.36666667 0
0.3 0.36666667 0
0.33333333 0.36666667 0
0.36666667 0.36666667 0
0.4 0.36666667 0
0.43333333 0.36666667 0
0.46666667 0.36666667 0
0.5 0.36666667 0
0.53333333 0.36666667 0
0.56666667 0.36666667 0
0.6 0.36666667 0
0.63333333 0.36666667 0
0.66666667 0.36666667 0
0.7 0.36666667 0
0.73333333 0.36666667 0
0.76666667 0.36666667 0
0.8 0.36666667 0
0.83333333 0.36666667 0
0.86666667 0.36666667 0
0.9 0.36666667 0
0.93333333 0.36666667 0
0.96666667 0.36666667 0
1 0.36666667 0
0 0.4 0
0.033333333 0.4 0
0.066666667 0.4 0
0.1 0.4 0
0.13333333 0.4 0
0.16666667 0.4 0
0.2 0.4 0
0.23333333 0.4 0
0.26666667 0.4 0
0.3 0.4 0
0.33333333 0.4 0
0.36666667 0.4 0
0.4 0.4 0
0.43333333 0.4 0
0.46666667 0.4 0
0.5 0.4 0
0.53333333 0.4 0
0.56666667 0.4 0
0.6 0.4 0
0.63333333 0.4 0
0.66666667 0.4 0
0.7 0.4 0
0.73333333 0.4 0
0.76666667 0.4 0
0.8 0.4 0
0.83333333 0.4 0
0.86666667 0.4 0
0.9 0.4 0
0.93333333 0.4 0
0.96666667 0.4 0
1 0.4 0
0 0.43333333 0
0.033333333 0.43333333 0
0.066666667 0.43333333 0
0.1 0.43333333 0
0.13333333 0.43333333 0
0.16666667 0.43333333 0
0.2 0.43333333 0
0.23333333 0.43333333 0
0.26666667 0.43333333 0
0.3 0.43333333 0
0.33333333 0.43333333 0
0.36666667 0.43333333 0
0.4 0.43333333 0
0.43333333 0.43333333 0
0.46666667 0.43333333 0
0.5 0.43333333 0
0.53333333 0.43333333 0
0.56666667 0.43333333 0
0.6 0.43333333 0
0.63333333 0.43333333 0
0.66666667 0.43333333 0
0.7 0.43333333 0
0.73333333 0.43333333 0
0.76666667 0.43333333 0
0.8 0.43333333 0
0.83333333 0.43333333 0
0.86666667 0.43333333 0
0.9 0.43333333 0
0.93333333 0.43333333 0
0.96666667 0.43333333 0
1 0.43333333 0
0 0.46666667 0
0.033333333 0.46666667 0
0.066666667 0.46666667 0
0.1 0.46666667 0
0.13333333 0.46666667 0
0.16666667 0.46666667 0
0.2 0.46666667 0
0.23333333 0.46666667 0
0.26666667 0.46666667 0
0.3 0.46666667 0
0.33333333 0.46666667 0
0.36666667 0.46666667 0
0.4 0.46666667 0
0.43333333 0.46666667 0
0.46666667 0.46666667 0
0.5 0.46666667 0
0.53333333 0.46666667 0
0.56666667 0.46666667 0
0.6 0.46666667 0
0.63333333 0.46666667 0
0.66666667 0.46666667 0
0.7 0.46666667 0
0.73333333 0.46666667 0
0.76666667 0.46666667 0
0.8 0.46666667 0
0.83333333 0.46666667 0
0.86666667 0.46666667 0
0.9 0.46666667 0
0.93333333 0.46666667 0
0.96666667 0.46666667 0
1 0.46666667 0
0 0.5 0
0.033333333 0.5 0
0.066666667 0.5 0
0.1 0.5 0
0.13333333 0.5 0
0.16666667 0.5 0
0.2 0.5 0
0.23333333 0.5 0
0.26666667 0.5 0
0.3 0.5 0
0.33333333 0.5 0
0.36666667 0.5 0
0.4 0.5 0
0.43333333 0.5 0
0.46666667 0.5 0
0.5 0.5 0
0.53333333 0.5 0
0.56666667 0.5 0
0.6 0.5 0
0.63333333 0.5 0
0.66666667 0.5 0
0.7 0.5 0
0.73333333 0.5 0
0.76666667 0.5 0
0.8 0.5 0
0.83333333 0.5 0
0.86666667 0.5 0
0.9 0.5 0
0.93333333 0.5 0
0.96666667 0.5 0
1 0.5 0
0 0.53333333 0
0.033333333 0.53333333 0
0.066666667 0.53333333 0
0.1 0.53333333 0
0.13333333 0.53333333 0
0.16666667 0.53333333 0
0.2 0.53333333 0
0.23333333 0.53333333 0
0.26666667 0.53333333 0
0.3 0.53333333 0
0.33333333 0.53333333 0
0.36666667 0.53333333 0
0.4 0.53333333 0
0.43333333 0.53333333 0
0.46666667 0.53333333 0
0.5 0.53333333 0
0.53333333 0.53333333 0
0.56666667 0.53333333 0
0.6 0.53333333 0
0.63333333 0.53333333 0
0.66666667 0.53333333 0
0.7 0.53333333 0
0.73333333 0.53333333 0
0.76666667 0.53333333 0
0.8 0.53333333 0
[...]
CELL_DATA 1920
Scalars  Label int 1
LOOKUP_TABLE FreeFempp_table
0
0
0
0
0
0
0
0
0
0
0
0
0
0
0
0
0
0
0
0
0
0
0
0
0
0
0
0
0
0
0
0
0
0
0
0
0
0
0
0
0
0
0
0
0
0
0
0
0
0
0
0
0
0
0
0
0
0
0
0
0
0
0
0
0
0
0
0
0
0
0
0
0
0
0
0
0
0
0
0
0
0
0
0
0
0
0
0
0
0
0
0
0
0
0
0
0
0
0
0
0
0
0
0
0
0
0
0
0
0
0
0
0
0
0
0
0
0
0
0
0
0
0
0
0
0
0
0
0
0
0
0
0
0
0
0
0
0
0
0
0
0
0
0
0
0
0
0
0
0
0
0
0
0
0
0
0
0
0
0
0
0
0
0
0
0
0
0
0
0
0
0
0
0
0
0
0
0
0
0
0
0
0
0
0
0
0
0
0
0
0
0
0
0
0
0
0
0
0
0
0
0
0
0
0
0
0
0
0
0
0
0
0
0
0
0
0
0
0
0
0
0
0
0
0
0
0
0
0
0
0
0
0
0
0
0
0
0
0
0
0
0
0
0
0
0
0
0
0
0
0
0
0
0
0
0
0
0
0
0
0
0
0
0
0
0
0
0
0
0
0
0
0
0
0
0
0
0
0
0
0
0
0
0
0
0
0
0
0
0
0
0
0
0
0
0
0
0
0
0
0
0
0
0
0
0
0
0
0
0
0
0
0
0
0
0
0
0
0
0
0
0
0
0
0
0
0
0
0
0
0
0
0
0
0
0
0
0
0
0
0
0
0
0
0
0
0
0
0
0
0
0
0
0
0
0
0
0
0
0
0
0
0
0
0
0
0
0
0
0
0
0
0
0
0
0
0
0
0
0
0
0
0
0
0
0
0
0
0
0
0
0
0
0
0
0
0
0
0
0
0
0
0
0
0
0
0
0
0
0
0
0
0
0
0
0
0
0
0
0
0
0
0
0
0
0
0
0
0
0
0
0
0
0
0
0
0
0
0
0
0
0
0
0
0
0
0
0
0
0
0
0
0
0
0
0
0
0
0
0
0
0
0
0
0
0
0
0
0
0
0
0
0
0
0
0
0
0
0
0
0
0
0
0
0
0
0
0
0
0
0
0
0
0
0
0
0
0
0
0
0
0
0
0
0
0
0
0
0
0
0
0
0
0
0
0
0
0
0
0
0
0
0
0
0
0
0
0
0
0
0
0
0
0
0
0
0
0
0
0
0
0
0
0
0
0
0
0
0
0
0
0
0
0
0
0
0
0
0
0
0
0
0
0
0
0
0
0
0
0
0
0
0
0
0
0
0
0
0
0
0
0
0
0
0
0
0
0
0
0
0
0
0
0
0
0
0
0
0
0
0
0
0
0
0
0
0
0
0
0
0
0
0
0
0
0
0
0
0
0
0
0
0
0
0
0
0
0
0
0
0
0
0
0
0
0
0
0
0
0
0
0
0
0
0
0
0
0
0
0
0
0
0
0
0
0
0
0
0
0
0
0
0
0
0
0
0
0
0
0
0
0
0
0
0
0
0
0
0
0
0
0
0
0
0
0
0
0
0
0
0
0
0
0
0
0
0
0
0
0
0
0
0
0
0
0
0
0
0
0
0
0
0
0
0
0
0
0
0
0
0
0
0
0
0
0
0
0
0
0
0
0
0
0
0
0
0
0
0
0
0
0
0
0
0
0
0
0
0
0
0
0
0
0
0
0
0
0
0
0
0
0
0
0
0
0
0
0
0
0
0
0
0
0
0
0
0
0
0
0
0
0
0
0
0
0
0
0
0
0
0
0
0
0
0
0
0
0
0
0
0
0
0
0
0
0
0
0
0
0
0
0
0
0
0
0
0
0
0
0
0
0
0
0
0
0
0
0
0
0
0
0
0
0
0
0
0
0
0
0
0
0
0
0
0
0
0
0
0
0
0
0
0
0
0
0
0
0
0
0
0
0
0
0
0
0
0
0
0
0
0
0
0
0
0
0
0
0
0
0
0
0
0
0
0
0
0
0
0
0
0
0
0
0
0
0
0
0
0
0
0
0
0
0
0
0
0
0
0
0
0
0
0
0
0
0
0
0
0
0
0
0
0
0
0
0
0
0
0
0
0
0
0
0
0
0
0
0
0
0
0
0
0
0
0
0
0
0
0
0
0
0
0
0
0
0
0
0
0
0
0
0
0
0
0
0
0
0
0
0
0
0
0
0
0
0
0
0
0
0
0
0
0
0
0
0
0
0
0
0
0
0
0
0
0
0
0
0
0
0
0
0
0
0
0
0
0
0
0
0
0
0
0
0
0
0
0
0
0
0
0
0
0
0
0
0
0
0
0
0
0
0
0
0
0
0
0
0
0
0
0
0
0
0
0
0
0
0
0
0
0
0
0
0
0
0
0
0
0
0
0
0
0
0
0
0
0
0
0
0
0
0
0
0
0
0
0
0
0
0
0
0
0
0
0
0
0
0
0
0
0
0
0
0
0
0
0
0
0
0
0
0
0
0
0
0
0
0
0
0
0
0
0
0
0
0
0
0
0
0
0
0
0
0
0
0
0
0
0
0
0
0
0
0
0
0
0
0
0
0
0
0
0
0
0
0
0
0
0
0
0
0
0
0
0
0
0
0
0
0
0
0
0
0
0
0
0
0
0
0
0
0
0
0
0
0
0
0
0
0
0
0
0
0
0
0
0
0
0
0
0
0
0
0
0
0
0
0
0
0
0
0
0
0
0
0
0
0
0
0
0
0
0
0
0
0
0
0
0
0
0
0
0
0
0
0
0
0
0
0
0
0
0
0
0
0
0
0
0
0
0
0
0
0
0
0
0
0
0
0
0
0
0
0
0
0
0
0
0
0
0
0
0
0
0
0
0
0
0
0
0
0
0
0
0
0
0
0
0
0
0
0
0
0
0
0
0
0
0
0
0
0
0
0
0
0
0
0
0
0
0
0
0
0
0
0
0
0
0
0
0
0
0
0
0
0
0
0
0
0
0
0
0
0
0
0
0
0
0
0
0
0
0
0
0
0
0
0
0
0
0
0
0
0
0
0
0
0
0
0
0
0
0
0
0
0
0
0
0
0
0
0
0
0
0
0
0
0
0
0
0
0
0
0
0
0
0
0
0
0
0
0
0
0
0
0
0
0
0
0
0
0
0
0
0
0
0
0
0
0
0
0
0
0
0
0
0
0
0
0
0
0
0
0
0
0
0
0
0
0
0
0
0
0
0
0
0
0
0
0
0
0
0
0
0
0
0
0
0
0
0
0
0
0
0
0
0
0
0
0
0
0
0
0
0
0
0
0
0
0
0
0
0
0
0
0
0
0
0
0
0
0
0
0
0
0
0
0
0
0
0
0
0
0
0
0
0
0
0
0
0
0
0
0
0
0
0
0
0
0
0
0
0
0
0
0
0
0
0
0
0
0
0
0
0
0
0
0
0
0
0
0
0
0
0
0
0
0
0
0
0
0
0
0
0
0
0
0
0
0
0
0
0
0
0
0
0
0
0
0
0
0
0
0
0
0
0
0
0
0
0
0
0
0
0
0
0
0
0
0
0
0
0
0
0
0
0
0
0
0
0
0
0
0
0
0
0
0
0
0
0
0
0
0
0
0
0
0
0
0
0
0
0
0
0
0
0
0
0
0
0
0
0
0
0
0
0
0
0
0
0
0
0
0
0
0
0
0
0
0
0
0
0
0
0
0
0
0
0
0
0
0
0
0
0
0
0
0
0
0
0
0
0
0
0
0
0
0
0
0
0
0
0
0
0
0
0
0
0
0
0
0
0
0
0
0
0
0
0
0
0
0
0
0
0
0
0
0
0
0
0
0
0
0
0
0
0
0
0
0
0
0
0
0
0
0
0
0
0
0
0
0
0
0
0
0
0
0
0
0
0
0
0
0
0
0
0
0
0
0
0
0
0
0
0
0
0
0
0
0
0
0
0
0
0
0
0
0
0
0
0
0
0
0
0
0
0
0
0
0
0
0
0
0
0
0
0
0
0
0
0
0
0
0
0
0
0
0
0
0
0
0
0
0
0
0
0
0
0
0
0
0
0
0
0
0
0
0
0
0
1
1
1
1
1
1
1
1
1
1
1
1
1
1
1
1
1
1
1
1
1
1
1
1
1
1
1
1
1
1
2
2
2
2
2
2
2
2
2
2
2
2
2
2
2
2
2
2
2
2
2
2
2
2
2
2
2
2
2
2
3
3
3
3
3
3
3
3
3
3
3
3
3
3
3
3
3
3
3
3
3
3
3
3
3
3
3
3
3
3
4
4
4
4
4
4
4
4
4
4
4
4
4
4
4
4
4
4
4
4
4
4
4
4
4
4
4
4
4
4

LOOKUP_TABLE FreeFempp_table 5
1.00000000 0.00000000 0.00000000 1.00000000
1.00000000 1.00000000 0.00000000 1.00000000
1.00000000 0.00000000 1.00000000 1.00000000
0.00000000 1.00000000 0.00000000 1.00000000
0.00000000 1.00000000 1.00000000 1.00000000

POINT_DATA 961
FIELD FieldData 1
Density 1 961 float
2.73882180e-01 2.14113876e-01 3.01960915e-01 3.84460121e-01 4.19460386e-01 4.38263237e-01 4.50849354e-01 4.58811343e-01 4.61322635e-01 4.58632380e-01 4.74990278e-01 3.28970134e-01 2.70703598e-03 6.01511507e-04 1.06206315e-03 3.10268879e-01 9.30938065e-01 9.86633182e-01 9.39910471e-01 7.82136440e-01 9.17176306e-01 9.55976605e-01 9.46531773e-01 9.22149599e-01 9.03582275e-01 8.88425529e-01 8.72738183e-01 8.59175265e-01 8.48980606e-01 8.60606372e-01 7.62223959e-01 2.37294313e-04 2.90448515e-04 2.71636806e-03 1.37524024e-01 2.40277544e-01 2.50270277e-01 2.32542843e-01 2.07555816e-01 1.78929791e-01 1.35158658e-01 6.06682487e-02 1.12616830e-02 1.56420958e-03 4.58499504e-04 4.36511153e-04 2.91491542e-02 9.29633915e-01 9.97981131e-01 9.89170969e-01 2.69261777e-01 7.22229183e-01 9.86592948e-01 9.88590360e-01 9.83354747e-01 9.69327927e-01 9.57901597e-01 9.48482692e-01 9.38788295e-01 9.30051446e-01 9.31160808e-01 8.62987578e-01 2.50195910e-04 1.75977839e-04 1.81736774e-04 1.74151370e-04 1.75770605e-04 1.92842563e-04 2.00038849e-04 2.03475152e-04 2.07012417e-04 2.15011227e-04 2.30805672e-04 2.53202219e-04 2.84685986e-04 2.88504787e-04 2.53972306e-04 6.90839486e-04 7.92430699e-01 9.97796953e-01 9.93642211e-01 7.92419130e-04 1.11952575e-03 9.17434751e-04 1.83962146e-03 1.79469064e-01 8.83745313e-01 8.81288052e-01 8.65694642e-01 8.57036650e-01 8.48380625e-01 8.36085379e-01 8.01876009e-01 1.52293257e-02 6.39712496e-04 2.27837008e-04 1.88088510e-04 1.69071500e-04 1.85111261e-04 1.96438530e-04 2.00570241e-04 2.02533367e-04 2.06310113e-04 2.15789172e-04 2.31887680e-04 2.57656735e-04 2.95328704e-04 2.10346625e-04 1.96229448e-04 4.75236913e-04 9.88084853e-01 9.98773634e-01 3.79796028e-02 1.61066977e-03 4.97671601e-04 4.54836118e-04 5.31205733e-04 1.81303441e-03 3.09420198e-01 5.53100526e-01 5.59438944e-01 5.58818698e-01 5.39426982e-01 6.53041303e-01 8.52550745e-01 9.06906426e-01 8.92537057e-01 8.55046034e-01 7.96734512e-01 7.28088498e-01 6.50150895e-01 5.49003363e-01 3.21109205e-01 4.15996872e-02 8.46620463e-03 4.44576470e-03 3.86188971e-03 3.73527268e-03 1.25583610e-03 2.02406591e-04 1.97492933e-04 3.00602784e-04 9.97294664e-01 9.96715784e-01 6.72248825e-02 3.32965516e-03 7.00874254e-04 4.19842632e-04 3.97217547e-04 5.25435316e-04 5.25884442e-02 2.46435314e-01 2.65273750e-01 2.49135181e-01 4.64202553e-01 8.79641473e-01 9.57491934e-01 9.57551718e-01 9.52361763e-01 9.35056269e-01 9.20431376e-01 9.07794833e-01 8.97296131e-01 8.91248763e-01 8.88915360e-01 8.76363754e-01 8.40090096e-01 7.79053211e-01 6.92641675e-01 5.44363379e-01 1.11441694e-01 2.53890641e-04 2.17692679e-04 2.72479054e-04 9.98486996e-01 9.98241067e-01 9.79766071e-01 1.64781258e-01 5.76631865e-03 6.08528499e-04 3.41861043e-04 3.36307858e-04 9.14203748e-03 9.99011248e-02 1.13138460e-01 2.97819555e-01 8.39259326e-01 9.21661973e-01 8.94465506e-01 8.83313537e-01 8.73543382e-01 8.76610994e-01 8.81775558e-01 8.84838581e-01 8.86601686e-01 8.89947116e-01 8.95206630e-01 8.93475175e-01 8.82507563e-01 8.62188697e-01 8.42549443e-01 8.34931731e-01 5.86572349e-01 4.13582689e-04 2.57044943e-04 3.25330679e-04 9.95329916e-01 9.98794734e-01 9.94962454e-01 2.05783814e-01 6.10782169e-02 1.53236720e-03 3.10883479e-04 3.10694595e-04 4.44842875e-03 3.89209837e-02 1.67628050e-01 8.09256136e-01 8.17700744e-01 6.41578972e-01 5.57162046e-01 5.68462849e-01 6.29318655e-01 6.92769170e-01 7.41466522e-01 7.76773512e-01 8.01990628e-01 8.19595873e-01 8.30754161e-01 8.35523009e-01 8.36402953e-01 8.40929568e-01 8.70830536e-01 9.23134327e-01 8.81751120e-01 7.88588193e-04 2.97359918e-04 2.93708144e-04 1.12504209e-03 9.98799562e-01 9.77279305e-01 4.06278431e-01 1.77613810e-01 4.22677537e-03 3.27670597e-04 3.68140987e-04 3.48446076e-03 5.35218529e-02 8.33747149e-01 7.01611996e-01 2.98167169e-01 1.87498063e-01 1.96170583e-01 2.61440575e-01 3.63869786e-01 4.84438419e-01 6.02075875e-01 6.95629120e-01 7.56559014e-01 7.90328085e-01 8.06090653e-01 8.11305642e-01 8.12861800e-01 8.24464738e-01 8.79920900e-01 9.70978081e-01 9.80753422e-01 1.38226629e-03 3.36653145e-04 2.87146191e-04 4.78724716e-03 9.99630868e-01 4.75292176e-01 4.27747875e-01 2.64872760e-01 1.33459317e-03 3.94828472e-04 7.40547664e-04 2.52744686e-02 8.88251007e-01 6.34120226e-01 1.02818638e-01 5.13849966e-02 5.93421198e-02 9.29861739e-02 1.58696562e-01 2.74982214e-01 4.48566496e-01 6.23132050e-01 7.37728238e-01 7.95010090e-01 8.17529321e-01 8.20572436e-01 8.12842369e-01 8.01242888e-01 8.00858915e-01 8.80893707e-01 9.85308051e-01 9.73204195e-01 1.83115602e-02 9.32736031e-04 1.12906033e-04 9.99338090e-01 8.81620944e-01 1.69252396e-01 6.33579195e-01 3.33629758e-03 4.10476001e-04 5.80200518e-04 7.89975762e-01 9.23053861e-01 5.46215475e-01 2.16884203e-02 1.21206883e-02 1.80268232e-02 3.73697169e-02 8.28562677e-02 1.79478019e-01 3.69223624e-01 5.97168684e-01 7.42775798e-01 8.06413531e-01 8.25373590e-01 8.19397509e-01 7.96715140e-01 7.60471284e-01 7.08348453e-01 6.46480381e-01 6.85248077e-01 8.15117061e-01 2.56298929e-01 5.81852347e-02 8.94465685e-01 9.99081790e-01 9.84520733e-01 1.45076096e-01 7.09347844e-01 2.59228311e-02 4.97104891e-04 2.72576290e-04 3.41225304e-02 9.31244493e-01 4.32604790e-01 8.74898955e-03 5.07801631e-03 8.07906035e-03 1.95608269e-02 6.00801185e-02 1.62467703e-01 3.76403093e-01 6.18053734e-01 7.52600789e-01 8.03553104e-01 8.12067270e-01 7.94820905e-01 7.56570041e-01 6.96118474e-01 6.06242299e-01 4.79019612e-01 3.44889402e-01 2.88041145e-01 3.10291618e-01 6.05098307e-01 9.66790199e-01 9.98008609e-01 9.71633017e-01 1.33390069e-01 4.49067771e-01 4.04276311e-01 7.84575182e-04 6.65018510e-04 2.20651198e-02 9.24680829e-01 3.97346675e-01 5.05245430e-03 2.82990141e-03 4.76883119e-03 1.54151041e-02 6.48044869e-02 2.10097581e-01 4.68585551e-01 6.69850290e-01 7.56101072e-01 7.81728745e-01 7.76273072e-01 7.49147356e-01 7.02099681e-01 6.32414043e-01 5.35781026e-01 4.21046913e-01 3.25960070e-01 3.09021205e-01 4.77302343e-01 8.35239530e-01 9.74955380e-01 9.93637741e-01 8.51975977e-01 1.20321296e-01 2.74202377e-01 7.48448133e-01 1.43866544e-03 8.36912368e-04 8.13480746e-03 9.12270725e-01 3.95952314e-01 3.02873622e-03 1.81542104e-03 3.23066884e-03 1.61767360e-02 1.00767903e-01 3.37068200e-01 6.04917169e-01 7.17360854e-01 7.45096982e-01 7.41604090e-01 7.21940398e-01 6.89286768e-01 6.43550098e-01 5.83192527e-01 5.09829700e-01 4.41099763e-01 4.19550538e-01 5.11457443e-01 7.48748183e-01 9.26576972e-01 9.75593388e-01 9.79295433e-01 6.81140602e-01 1.34503648e-01 3.19458276e-01 7.39711642e-01 2.34928285e-03 1.18786516e-03 5.46779856e-03 9.00522530e-01 3.92767996e-01 1.82837015e-03 1.26564328e-03 2.37350306e-03 2.03835759e-02 1.85265273e-01 5.13803899e-01 7.06132412e-01 7.36213326e-01 7.17471600e-01 6.89413965e-01 6.59902871e-01 6.28629506e-01 5.94366491e-01 5.56850612e-01 5.21689415e-01 5.10002553e-01 5.63121796e-01 7.11816728e-01 8.73993635e-01 9.49989736e-01 9.69327152e-01 9.45401132e-01 5.67791998e-01 2.02846646e-01 3.88742745e-01 6.04222715e-01 3.42706428e-03 1.62763626e-03 5.56375645e-03 8.93490493e-01 3.73670965e-01 1.16207625e-03 9.58098914e-04 1.95601699e-03 3.17008421e-02 3.22563946e-01 6.49550259e-01 7.44917691e-01 7.25295246e-01 6.78317547e-01 6.35631859e-01 6.02925837e-01 5.78819573e-01 5.61959624e-01 5.52728593e-01 5.57384312e-01 5.94358981e-01 6.87440097e-01 8.18571925e-01 9.13547397e-01 9.51948762e-01 9.55573857e-01 8.98736060e-01 5.54321766e-01 3.16113561e-01 4.99965072e-01 3.63896936e-01 4.62622382e-03 2.22944631e-03 7.26737920e-03 8.92144322e-01 3.24405044e-01 7.83499796e-04 7.67327903e-04 1.86871155e-03 6.30547926e-02 4.73383725e-01 7.13066518e-01 7.41280258e-01 6.94745302e-01 6.35617077e-01 5.88357151e-01 5.57587624e-01 5.42829871e-01 5.43738425e-01 5.60957611e-01 5.98300338e-01 6.64660692e-01 7.62357295e-01 8.61534119e-01 9.22981322e-01 9.45464432e-01 9.36957598e-01 8.59741628e-01 6.04976892e-01 4.51465935e-01 5.36991417e-01 1.88687682e-01 6.38530450e-03 3.38986353e-03 1.28570776e-02 8.94662678e-01 2.46179804e-01 5.56948304e-04 6.19896804e-04 2.17827293e-03 1.40276030e-01 5.82573831e-01 7.26571858e-01 7.16219008e-01 6.56306446e-01 5.95138311e-01 5.49722791e-01 5.23502231e-01 5.17495036e-01 5.32831967e-01 5.70274949e-01 6.29625201e-01 7.08625495e-01 7.97198415e-01 8.73172224e-01 9.18596029e-01 9.33515668e-01 9.17854607e-01 8.42245758e-01 6.74625576e-01 5.65986574e-01 5.23362756e-01 1.29200399e-01 1.03965662e-02 6.35591615e-03 3.27193141e-02 8.94599795e-01 1.72604769e-01 4.25035920e-04 4.93600848e-04 3.38221644e-03 2.73976535e-01 6.41915560e-01 7.15269208e-01 6.82382643e-01 6.17350161e-01 5.58630645e-01 5.17859817e-01 4.97195929e-01 4.98339027e-01 5.23523688e-01 5.73691666e-01 6.45294070e-01 7.28005469e-01 8.06854308e-01 8.68298650e-01 9.05312002e-01 9.17049050e-01 9.00360227e-01 8.39619994e-01 7.32862771e-01 6.41409576e-01 5.03413975e-01 1.36612043e-01 2.23526210e-02 1.57584064e-02 1.05961211e-01 8.84922385e-01 1.34083182e-01 3.56146891e-04 4.03543090e-04 7.91026931e-03 4.19704467e-01 6.68481886e-01 6.91217959e-01 6.44267976e-01 5.79145133e-01 5.24824739e-01 4.89609420e-01 4.74663615e-01 4.81462717e-01 5.12559116e-01 5.69059253e-01 6.45849943e-01 7.28770077e-01 8.01073849e-01 8.53679717e-01 8.85249197e-01 8.95789564e-01 8.82277012e-01 8.37745786e-01 7.66685069e-01 6.85671628e-01 5.29984593e-01 2.13242382e-01 6.27785623e-02 5.31754643e-02 2.68722117e-01 8.65606248e-01 1.26579851e-01 3.27571674e-04 3.56062228e-04 2.87121069e-02 5.25617421e-01 6.71284556e-01 6.57817483e-01 6.01914346e-01 5.40434301e-01 4.91888463e-01 4.62328613e-01 4.52601552e-01 4.63797301e-01 4.98156130e-01 5.56643963e-01 6.33943081e-01 7.15404868e-01 7.84024119e-01 8.31632078e-01 8.58837485e-01 8.67270887e-01 8.56156349e-01 8.23342860e-01 7.74188578e-01 7.16385305e-01 6.20625257e-01 3.49249154e-01 1.79851964e-01 1.71023995e-01 4.33385283e-01 8.47139716e-01 1.24795228e-01 3.23023589e-04 3.42526590e-04 9.85836089e-02 5.81597388e-01 6.54689372e-01 6.16602659e-01 5.56350648e-01 5.00828803e-01 4.59044039e-01 4.34872717e-01 4.29389209e-01 4.43639308e-01 4.79324728e-01 5.36848962e-01 6.11127675e-01 6.88970804e-01 7.54608393e-01 7.99387693e-01 8.23110521e-01 8.27660799e-01 8.14665794e-01 7.89403498e-01 7.62860835e-01 7.61220574e-01 6.79549336e-01 5.02194881e-01 3.66811305e-01 3.48867148e-01 5.10865390e-01 8.37654829e-01 1.03591129e-01 3.21065250e-04 3.43864958e-04 2.04974920e-01 6.05975091e-01 6.26964927e-01 5.70603669e-01 5.10269642e-01 4.61610496e-01 4.26835686e-01 4.07608002e-01 4.05260056e-01 4.21046078e-01 4.56147909e-01 5.10159492e-01 5.78171492e-01 6.49175942e-01 7.09902406e-01 7.51800358e-01 7.73471117e-01 7.77159154e-01 7.67383158e-01 7.56695092e-01 7.59412587e-01 7.77599573e-01 7.18389809e-01 6.09205127e-01 5.20370722e-01 4.81858343e-01 5.59123814e-01 8.31943214e-01 7.98686594e-02 3.07262148e-04 3.36376950e-04 3.14882368e-01 6.13103807e-01 5.94518483e-01 5.24772227e-01 4.67004985e-01 4.25173581e-01 3.96802485e-01 3.81847441e-01 3.81618351e-01 3.97477120e-01 4.30107027e-01 4.78290856e-01 5.37206411e-01 5.98004997e-01 6.50543392e-01 6.87895119e-01 7.08985329e-01 7.18417168e-01 7.23947346e-01 7.35273659e-01 7.57308781e-01 7.77977824e-01 7.34115839e-01 6.63710117e-01 5.87711275e-01 5.27903974e-01 5.93350470e-01 8.22474837e-01 6.95717260e-02 2.85158254e-04 3.12672259e-04 4.28691745e-01 6.04229987e-01 5.57026744e-01 4.82154697e-01 4.29044276e-01 3.93638134e-01 3.70680869e-01 3.59213680e-01 3.60310912e-01 3.75140071e-01 4.03835714e-01 4.44510221e-01 4.92474526e-01 5.40748775e-01 5.82331836e-01 6.13047838e-01 6.33517802e-01 6.49757981e-01 6.69371367e-01 6.96002781e-01 7.28330016e-01 7.36360908e-01 7.02046335e-01 6.37855649e-01 5.72025836e-01 5.31794786e-01 6.10340238e-01 8.02144170e-01 8.03270638e-02 2.64836824e-04 2.84802169e-04 5.16525745e-01 5.81530988e-01 5.14455974e-01 4.43405330e-01 3.97512168e-01 3.68329972e-01 3.49990815e-01 3.41378719e-01 3.43296289e-01 3.56479138e-01 3.80465806e-01 4.12882835e-01 4.49315339e-01 4.84330595e-01 5.13531089e-01 5.35442293e-01 5.52458405e-01 5.70146918e-01 5.94708502e-01 6.25805199e-01 6.53912961e-01 6.63129568e-01 6.38520300e-01 5.86173832e-01 5.33377886e-01 4.97959822e-01 6.01817787e-01 7.60161579e-01 1.34947285e-01 2.49186269e-04 2.61495617e-04 5.63575208e-01 5.48152447e-01 4.69940662e-01 4.09801602e-01 3.73509258e-01 3.50559115e-01 3.36294413e-01 3.30042690e-01 3.32385391e-01 3.43564481e-01 3.62586707e-01 3.86820853e-01 4.12285209e-01 4.34820890e-01 4.51752424e-01 4.63233590e-01 4.72525388e-01 4.84984934e-01 5.05203485e-01 5.32776892e-01 5.56204557e-01 5.63531458e-01 5.49216926e-01 5.15676141e-01 4.80222374e-01 4.48295146e-01 5.76412141e-01 6.96773350e-01 2.82661617e-01 2.39271190e-04 2.44073410e-04 5.77809095e-01 5.05771697e-01 4.29134369e-01 3.84907842e-01 3.59208941e-01 3.42158318e-01 3.31298411e-01 3.26689869e-01 3.28730315e-01 3.37234646e-01 3.50901484e-01 3.67192119e-01 3.82795960e-01 3.94637704e-01 4.01017994e-01 4.02452976e-01 4.01992202e-01 4.04565603e-01 4.14762110e-01 4.33225960e-01 4.53118831e-01 4.62005407e-01 4.53819484e-01 4.33186412e-01 4.12366122e-01 3.90775770e-01 5.45481443e-01 6.34874105e-01 4.58494395e-01 2.15185806e-04 2.25821685e-04 5.48823237e-01 4.61875796e-01 4.01770979e-01 3.74518305e-01 3.57643783e-01 3.44944894e-01 3.36249411e-01 3.32051218e-01 3.32400680e-01 3.36737216e-01 3.43757480e-01 3.51497948e-01 3.57739329e-01 3.60586703e-01 3.58968109e-01 3.53016824e-01 3.44504058e-01 3.37121069e-01 3.35331976e-01 3.41469854e-01 3.52440834e-01 3.60072643e-01 3.57429177e-01 3.46291274e-01 3.39610070e-01 3.36237699e-01 5.16165912e-01 6.44721210e-01 5.30155480e-01 1.63613426e-04 1.79815877e-04 4.90465432e-01 4.52462643e-01 4.07849222e-01 3.88512522e-01 3.73744935e-01 3.61877710e-01 3.53341371e-01 3.47697645e-01 3.44034940e-01 3.41374189e-01 3.38791728e-01 3.35487664e-01 3.30859661e-01 3.24493647e-01 3.16078216e-01 3.05379391e-01 2.92671770e-01 2.79321700e-01 2.68189400e-01 2.62005031e-01 2.61099607e-01 2.62959212e-01 2.65464604e-01 2.68289655e-01 2.72031814e-01 2.84087151e-01 4.93194491e-01 7.07574785e-01 6.67470992e-01 2.22599541e-04 1.65411053e-04 7.72043407e-01 6.08723342e-01 5.82688987e-01 5.61601877e-01 5.47085285e-01 5.37881136e-01 5.32267869e-01 5.28362811e-01 5.24632275e-01 5.20074248e-01 5.14267504e-01 5.07301569e-01 4.99562323e-01 4.91423130e-01 4.82972056e-01 4.73949790e-01 4.63897437e-01 4.52856630e-01 4.41825807e-01 4.32992935e-01 4.28173989e-01 4.28045690e-01 4.33056653e-01 4.44008559e-01 4.56704766e-01 4.60527092e-01 5.50737679e-01 
