# vtk DataFile Version 2.0
results/iter0.vtk, Created by Freefem++ 
ASCII
DATASET UNSTRUCTURED_GRID
POINTS 961 float
0 0 0
0.033333333 0 0
0.066666667 0 0
0.1 0 0
0.13333333 0 0
0.16666667 0 0
0.2 0 0
0.23333333 0 0
0.26666667 0 0
0.3 0 0
0.33333333 0 0
0.36666667 0 0
0.4 0 0
0.43333333 0 0
0.46666667 0 0
0.5 0 0
0.53333333 0 0
0.56666667 0 0
0.6 0 0
0.63333333 0 0
0.66666667 0 0
0.7 0 0
0.73333333 0 0
0.76666667 0 0
0.8 0 0
0.83333333 0 0
0.86666667 0 0
0.9 0 0
0.93333333 0 0
0.96666667 0 0
1 0 0
0 0.033333333 0
0.033333333 0.033333333 0
0.066666667 0.033333333 0
0.1 0.033333333 0
0.13333333 0.033333333 0
0.16666667 0.033333333 0
0.2 0.033333333 0
0.23333333 0.033333333 0
0.26666667 0.033333333 0
0.3 0.033333333 0
0.33333333 0.033333333 0
0.36666667 0.033333333 0
0.4 0.033333333 0
0.43333333 0.033333333 0
0.46666667 0.033333333 0
0.5 0.033333333 0
0.53333333 0.033333333 0
0.56666667 0.033333333 0
0.6 0.033333333 0
0.63333333 0.033333333 0
0.66666667 0.033333333 0
0.7 0.033333333 0
0.73333333 0.033333333 0
0.76666667 0.033333333 0
0.8 0.033333333 0
0.83333333 0.033333333 0
0.86666667 0.033333333 0
0.9 0.033333333 0
0.93333333 0.033333333 0
0.96666667 0.033333333 0
1 0.033333333 0
0 0.066666667 0
0.033333333 0.066666667 0
0.066666667 0.066666667 0
0.1 0.066666667 0
0.13333333 0.066666667 0
0.16666667 0.066666667 0
0.2 0.066666667 0
0.23333333 0.066666667 0
0.26666667 0.066666667 0
0.3 0.066666667 0
0.33333333 0.066666667 0
0.36666667 0.066666667 0
0.4 0.066666667 0
0.43333333 0.066666667 0
0.46666667 0.066666667 0
0.5 0.066666667 0
0.53333333 0.066666667 0
0.56666667 0.066666667 0
0.6 0.066666667 0
0.63333333 0.066666667 0
0.66666667 0.066666667 0
0.7 0.066666667 0
0.73333333 0.066666667 0
0.76666667 0.066666667 0
0.8 0.066666667 0
0.83333333 0.066666667 0
0.86666667 0.066666667 0
0.9 0.066666667 0
0.93333333 0.066666667 0
0.96666667 0.066666667 0
1 0.066666667 0
0 0.1 0
0.033333333 0.1 0
0.066666667 0.1 0
0.1 0.1 0
0.13333333 0.1 0
0.16666667 0.1 0
0.2 0.1 0
0.23333333 0.1 0
0.26666667 0.1 0
0.3 0.1 0
0.33333333 0.1 0
0.36666667 0.1 0
0.4 0.1 0
0.43333333 0.1 0
0.46666667 0.1 0
0.5 0.1 0
0.53333333 0.1 0
0.56666667 0.1 0
0.6 0.1 0
0.63333333 0.1 0
0.66666667 0.1 0
0.7 0.1 0
0.73333333 0.1 0
0.76666667 0.1 0
0.8 0.1 0
0.83333333 0.1 0
0.86666667 0.1 0
0.9 0.1 0
0.93333333 0.1 0
0.96666667 0.1 0
1 0.1 0
0 0.13333333 0
0.033333333 0.13333333 0
0.066666667 0.13333333 0
0.1 0.13333333 0
0.13333333 0.13333333 0
0.16666667 0.13333333 0
0.2 0.13333333 0
0.23333333 0.13333333 0
0.26666667 0.13333333 0
0.3 0.13333333 0
0.33333333 0.13333333 0
0.36666667 0.13333333 0
0.4 0.13333333 0
0.43333333 0.13333333 0
0.46666667 0.13333333 0
0.5 0.13333333 0
0.53333333 0.13333333 0
0.56666667 0.13333333 0
0.6 0.13333333 0
0.63333333 0.13333333 0
0.66666667 0.13333333 0
0.7 0.13333333 0
0.73333333 0.13333333 0
0.76666667 0.13333333 0
0.8 0.13333333 0
0.83333333 0.13333333 0
0.86666667 0.13333333 0
0.9 0.13333333 0
0.93333333 0.13333333 0
0.96666667 0.13333333 0
1 0.13333333 0
0 0.16666667 0
0.033333333 0.16666667 0
0.066666667 0.16666667 0
0.1 0.16666667 0
0.13333333 0.16666667 0
0.16666667 0.16666667 0
0.2 0.16666667 0
0.23333333 0.16666667 0
0.26666667 0.16666667 0
0.3 0.16666667 0
0.33333333 0.16666667 0
0.36666667 0.16666667 0
0.4 0.16666667 0
0.43333333 0.16666667 0
0.46666667 0.16666667 0
0.5 0.16666667 0
0.53333333 0.16666667 0
0.56666667 0.16666667 0
0.6 0.16666667 0
0.63333333 0.16666667 0
0.66666667 0.16666667 0
0.7 0.16666667 0
0.73333333 0.16666667 0
0.76666667 0.16666667 0
0.8 0.16666667 0
0.83333333 0.16666667 0
0.86666667 0.16666667 0
0.9 0.16666667 0
0.93333333 0.16666667 0
0.96666667 0.16666667 0
1 0.16666667 0
0 0.2 0
0.033333333 0.2 0
0.066666667 0.2 0
0.1 0.2 0
0.13333333 0.2 0
0.16666667 0.2 0
0.2 0.2 0
0.23333333 0.2 0
0.26666667 0.2 0
0.3 0.2 0
0.33333333 0.2 0
0.36666667 0.2 0
0.4 0.2 0
0.43333333 0.2 0
0.46666667 0.2 0
0.5 0.2 0
0.53333333 0.2 0
0.56666667 0.2 0
0.6 0.2 0
0.63333333 0.2 0
0.66666667 0.2 0
0.7 0.2 0
0.73333333 0.2 0
0.76666667 0.2 0
0.8 0.2 0
0.83333333 0.2 0
0.86666667 0.2 0
0.9 0.2 0
0.93333333 0.2 0
0.96666667 0.2 0
1 0.2 0
0 0.23333333 0
0.033333333 0.23333333 0
0.066666667 0.23333333 0
0.1 0.23333333 0
0.13333333 0.23333333 0
0.16666667 0.23333333 0
0.2 0.23333333 0
0.23333333 0.23333333 0
0.26666667 0.23333333 0
0.3 0.23333333 0
0.33333333 0.23333333 0
0.36666667 0.23333333 0
0.4 0.23333333 0
0.43333333 0.23333333 0
0.46666667 0.23333333 0
0.5 0.23333333 0
0.53333333 0.23333333 0
0.56666667 0.23333333 0
0.6 0.23333333 0
0.63333333 0.23333333 0
0.66666667 0.23333333 0
0.7 0.23333333 0
0.73333333 0.23333333 0
0.76666667 0.23333333 0
0.8 0.23333333 0
0.83333333 0.23333333 0
0.86666667 0.23333333 0
0.9 0.23333333 0
0.93333333 0.23333333 0
0.96666667 0.23333333 0
1 0.23333333 0
0 0.26666667 0
0.033333333 0.26666667 0
0.066666667 0.26666667 0
0.1 0.26666667 0
0.13333333 0.26666667 0
0.16666667 0.26666667 0
0.2 0.26666667 0
0.23333333 0.26666667 0
0.26666667 0.26666667 0
0.3 0.26666667 0
0.33333333 0.26666667 0
0.36666667 0.26666667 0
0.4 0.26666667 0
0.43333333 0.26666667 0
0.46666667 0.26666667 0
0.5 0.26666667 0
0.53333333 0.26666667 0
0.56666667 0.26666667 0
0.6 0.26666667 0
0.63333333 0.26666667 0
0.66666667 0.26666667 0
0.7 0.26666667 0
0.73333333 0.26666667 0
0.76666667 0.26666667 0
0.8 0.26666667 0
0.83333333 0.26666667 0
0.86666667 0.26666667 0
0.9 0.26666667 0
0.93333333 0.26666667 0
0.96666667 0.26666667 0
1 0.26666667 0
0 0.3 0
0.033333333 0.3 0
0.066666667 0.3 0
0.1 0.3 0
0.13333333 0.3 0
0.16666667 0.3 0
0.2 0.3 0
0.23333333 0.3 0
0.26666667 0.3 0
0.3 0.3 0
0.33333333 0.3 0
0.36666667 0.3 0
0.4 0.3 0
0.43333333 0.3 0
0.46666667 0.3 0
0.5 0.3 0
0.53333333 0.3 0
0.56666667 0.3 0
0.6 0.3 0
0.63333333 0.3 0
0.66666667 0.3 0
0.7 0.3 0
0.73333333 0.3 0
0.76666667 0.3 0
0.8 0.3 0
0.83333333 0.3 0
0.86666667 0.3 0
0.9 0.3 0
0.93333333 0.3 0
0.96666667 0.3 0
1 0.3 0
0 0.33333333 0
0.033333333 0.33333333 0
0.066666667 0.33333333 0
0.1 0.33333333 0
0.13333333 0.33333333 0
0.16666667 0.33333333 0
0.2 0.33333333 0
0.23333333 0.33333333 0
0.26666667 0.33333333 0
0.3 0.33333333 0
0.33333333 0.33333333 0
0.36666667 0.33333333 0
0.4 0.33333333 0
0.43333333 0.33333333 0
0.46666667 0.33333333 0
0.5 0.33333333 0
0.53333333 0.33333333 0
0.56666667 0.33333333 0
0.6 0.33333333 0
0.63333333 0.33333333 0
0.66666667 0.33333333 0
0.7 0.33333333 0
0.73333333 0.33333333 0
0.76666667 0.33333333 0
0.8 0.33333333 0
0.83333333 0.33333333 0
0.86666667 0.33333333 0
0.9 0.33333333 0
0.93333333 0.33333333 0
0.96666667 0.33333333 0
1 0.33333333 0
0 0.36666667 0
0.033333333 0.36666667 0
0.066666667 0.36666667 0
0.1 0.36666667 0
0.13333333 0.36666667 0
0.16666667 0.36666667 0
0.2 0.36666667 0
0.23333333 0.36666667 0
0.26666667 0.36666667 0
0.3 0.36666667 0
0.33333333 0.36666667 0
0.36666667 0.36666667 0
0.4 0.36666667 0
0.43333333 0.36666667 0
0.46666667 0.36666667 0
0.5 0.36666667 0
0.53333333 0.36666667 0
0.56666667 0.36666667 0
0.6 0.36666667 0
0.63333333 0.36666667 0
0.66666667 0.36666667 0
0.7 0.36666667 0
0.73333333 0.36666667 0
0.76666667 0.36666667 0
0.8 0.36666667 0
0.83333333 0.36666667 0
0.86666667 0.36666667 0
0.9 0.36666667 0
0.93333333 0.36666667 0
0.96666667 0.36666667 0
1 0.36666667 0
0 0.4 0
0.033333333 0.4 0
0.066666667 0.4 0
0.1 0.4 0
0.13333333 0.4 0
0.16666667 0.4 0
0.2 0.4 0
0.23333333 0.4 0
0.26666667 0.4 0
0.3 0.4 0
0.33333333 0.4 0
0.36666667 0.4 0
0.4 0.4 0
0.43333333 0.4 0
0.46666667 0.4 0
0.5 0.4 0
0.53333333 0.4 0
0.56666667 0.4 0
0.6 0.4 0
0.63333333 0.4 0
0.66666667 0.4 0
0.7 0.4 0
0.73333333 0.4 0
0.76666667 0.4 0
0.8 0.4 0
0.83333333 0.4 0
0.86666667 0.4 0
0.9 0.4 0
0.93333333 0.4 0
0.96666667 0.4 0
1 0.4 0
0 0.43333333 0
0.033333333 0.43333333 0
0.066666667 0.43333333 0
0.1 0.43333333 0
0.13333333 0.43333333 0
0.16666667 0.43333333 0
0.2 0.43333333 0
0.23333333 0.43333333 0
0.26666667 0.43333333 0
0.3 0.43333333 0
0.33333333 0.43333333 0
0.36666667 0.43333333 0
0.4 0.43333333 0
0.43333333 0.43333333 0
0.46666667 0.43333333 0
0.5 0.43333333 0
0.53333333 0.43333333 0
0.56666667 0.43333333 0
0.6 0.43333333 0
0.63333333 0.43333333 0
0.66666667 0.43333333 0
0.7 0.43333333 0
0.73333333 0.43333333 0
0.76666667 0.43333333 0
0.8 0.43333333 0
0.83333333 0.43333333 0
0.86666667 0.43333333 0
0.9 0.43333333 0
0.93333333 0.43333333 0
0.96666667 0.43333333 0
1 0.43333333 0
0 0.46666667 0
0.033333333 0.46666667 0
0.066666667 0.46666667 0
0.1 0.46666667 0
0.13333333 0.46666667 0
0.16666667 0.46666667 0
0.2 0.46666667 0
0.23333333 0.46666667 0
0.26666667 0.46666667 0
0.3 0.46666667 0
0.33333333 0.46666667 0
0.36666667 0.46666667 0
0.4 0.46666667 0
0.43333333 0.46666667 0
0.46666667 0.46666667 0
0.5 0.46666667 0
0.53333333 0.46666667 0
0.56666667 0.46666667 0
0.6 0.46666667 0
0.63333333 0.46666667 0
0.66666667 0.46666667 0
0.7 0.46666667 0
0.73333333 0.46666667 0
0.76666667 0.46666667 0
0.8 0.46666667 0
0.83333333 0.46666667 0
0.86666667 0.46666667 0
0.9 0.46666667 0
0.93333333 0.46666667 0
0.96666667 0.46666667 0
1 0.46666667 0
0 0.5 0
0.033333333 0.5 0
0.066666667 0.5 0
0.1 0.5 0
0.13333333 0.5 0
0.16666667 0.5 0
0.2 0.5 0
0.23333333 0.5 0
0.26666667 0.5 0
0.3 0.5 0
0.33333333 0.5 0
0.36666667 0.5 0
0.4 0.5 0
0.43333333 0.5 0
0.46666667 0.5 0
0.5 0.5 0
0.53333333 0.5 0
0.56666667 0.5 0
0.6 0.5 0
0.63333333 0.5 0
0.66666667 0.5 0
0.7 0.5 0
0.73333333 0.5 0
0.76666667 0.5 0
0.8 0.5 0
0.83333333 0.5 0
0.86666667 0.5 0
0.9 0.5 0
0.93333333 0.5 0
0.96666667 0.5 0
1 0.5 0
0 0.53333333 0
0.033333333 0.53333333 0
0.066666667 0.53333333 0
0.1 0.53333333 0
0.13333333 0.53333333 0
0.16666667 0.53333333 0
0.2 0.53333333 0
0.23333333 0.53333333 0
0.26666667 0.53333333 0
0.3 0.53333333 0
0.33333333 0.53333333 0
0.36666667 0.53333333 0
0.4 0.53333333 0
0.43333333 0.53333333 0
0.46666667 0.53333333 0
0.5 0.53333333 0
0.53333333 0.53333333 0
0.56666667 0.53333333 0
0.6 0.53333333 0
0.63333333 0.53333333 0
0.66666667 0.53333333 0
0.7 0.53333333 0
0.73333333 0.53333333 0
0.76666667 0.53333333 0
0.8 0.53333333 0
[...]
CELL_DATA 1920
Scalars  Label int 1
LOOKUP_TABLE FreeFempp_table
0
0
0
0
0
0
0
0
0
0
0
0
0
0
0
0
0
0
0
0
0
0
0
0
0
0
0
0
0
0
0
0
0
0
0
0
0
0
0
0
0
0
0
0
0
0
0
0
0
0
0
0
0
0
0
0
0
0
0
0
0
0
0
0
0
0
0
0
0
0
0
0
0
0
0
0
0
0
0
0
0
0
0
0
0
0
0
0
0
0
0
0
0
0
0
0
0
0
0
0
0
0
0
0
0
0
0
0
0
0
0
0
0
0
0
0
0
0
0
0
0
0
0
0
0
0
0
0
0
0
0
0
0
0
0
0
0
0
0
0
0
0
0
0
0
0
0
0
0
0
0
0
0
0
0
0
0
0
0
0
0
0
0
0
0
0
0
0
0
0
0
0
0
0
0
0
0
0
0
0
0
0
0
0
0
0
0
0
0
0
0
0
0
0
0
0
0
0
0
0
0
0
0
0
0
0
0
0
0
0
0
0
0
0
0
0
0
0
0
0
0
0
0
0
0
0
0
0
0
0
0
0
0
0
0
0
0
0
0
0
0
0
0
0
0
0
0
0
0
0
0
0
0
0
0
0
0
0
0
0
0
0
0
0
0
0
0
0
0
0
0
0
0
0
0
0
0
0
0
0
0
0
0
0
0
0
0
0
0
0
0
0
0
0
0
0
0
0
0
0
0
0
0
0
0
0
0
0
0
0
0
0
0
0
0
0
0
0
0
0
0
0
0
0
0
0
0
0
0
0
0
0
0
0
0
0
0
0
0
0
0
0
0
0
0
0
0
0
0
0
0
0
0
0
0
0
0
0
0
0
0
0
0
0
0
0
0
0
0
0
0
0
0
0
0
0
0
0
0
0
0
0
0
0
0
0
0
0
0
0
0
0
0
0
0
0
0
0
0
0
0
0
0
0
0
0
0
0
0
0
0
0
0
0
0
0
0
0
0
0
0
0
0
0
0
0
0
0
0
0
0
0
0
0
0
0
0
0
0
0
0
0
0
0
0
0
0
0
0
0
0
0
0
0
0
0
0
0
0
0
0
0
0
0
0
0
0
0
0
0
0
0
0
0
0
0
0
0
0
0
0
0
0
0
0
0
0
0
0
0
0
0
0
0
0
0
0
0
0
0
0
0
0
0
0
0
0
0
0
0
0
0
0
0
0
0
0
0
0
0
0
0
0
0
0
0
0
0
0
0
0
0
0
0
0
0
0
0
0
0
0
0
0
0
0
0
0
0
0
0
0
0
0
0
0
0
0
0
0
0
0
0
0
0
0
0
0
0
0
0
0
0
0
0
0
0
0
0
0
0
0
0
0
0
0
0
0
0
0
0
0
0
0
0
0
0
0
0
0
0
0
0
0
0
0
0
0
0
0
0
0
0
0
0
0
0
0
0
0
0
0
0
0
0
0
0
0
0
0
0
0
0
0
0
0
0
0
0
0
0
0
0
0
0
0
0
0
0
0
0
0
0
0
0
0
0
0
0
0
0
0
0
0
0
0
0
0
0
0
0
0
0
0
0
0
0
0
0
0
0
0
0
0
0
0
0
0
0
0
0
0
0
0
0
0
0
0
0
0
0
0
0
0
0
0
0
0
0
0
0
0
0
0
0
0
0
0
0
0
0
0
0
0
0
0
0
0
0
0
0
0
0
0
0
0
0
0
0
0
0
0
0
0
0
0
0
0
0
0
0
0
0
0
0
0
0
0
0
0
0
0
0
0
0
0
0
0
0
0
0
0
0
0
0
0
0
0
0
0
0
0
0
0
0
0
0
0
0
0
0
0
0
0
0
0
0
0
0
0
0
0
0
0
0
0
0
0
0
0
0
0
0
0
0
0
0
0
0
0
0
0
0
0
0
0
0
0
0
0
0
0
0
0
0
0
0
0
0
0
0
0
0
0
0
0
0
0
0
0
0
0
0
0
0
0
0
0
0
0
0
0
0
0
0
0
0
0
0
0
0
0
0
0
0
0
0
0
0
0
0
0
0
0
0
0
0
0
0
0
0
0
0
0
0
0
0
0
0
0
0
0
0
0
0
0
0
0
0
0
0
0
0
0
0
0
0
0
0
0
0
0
0
0
0
0
0
0
0
0
0
0
0
0
0
0
0
0
0
0
0
0
0
0
0
0
0
0
0
0
0
0
0
0
0
0
0
0
0
0
0
0
0
0
0
0
0
0
0
0
0
0
0
0
0
0
0
0
0
0
0
0
0
0
0
0
0
0
0
0
0
0
0
0
0
0
0
0
0
0
0
0
0
0
0
0
0
0
0
0
0
0
0
0
0
0
0
0
0
0
0
0
0
0
0
0
0
0
0
0
0
0
0
0
0
0
0
0
0
0
0
0
0
0
0
0
0
0
0
0
0
0
0
0
0
0
0
0
0
0
0
0
0
0
0
0
0
0
0
0
0
0
0
0
0
0
0
0
0
0
0
0
0
0
0
0
0
0
0
0
0
0
0
0
0
0
0
0
0
0
0
0
0
0
0
0
0
0
0
0
0
0
0
0
0
0
0
0
0
0
0
0
0
0
0
0
0
0
0
0
0
0
0
0
0
0
0
0
0
0
0
0
0
0
0
0
0
0
0
0
0
0
0
0
0
0
0
0
0
0
0
0
0
0
0
0
0
0
0
0
0
0
0
0
0
0
0
0
0
0
0
0
0
0
0
0
0
0
0
0
0
0
0
0
0
0
0
0
0
0
0
0
0
0
0
0
0
0
0
0
0
0
0
0
0
0
0
0
0
0
0
0
0
0
0
0
0
0
0
0
0
0
0
0
0
0
0
0
0
0
0
0
0
0
0
0
0
0
0
0
0
0
0
0
0
0
0
0
0
0
0
0
0
0
0
0
0
0
0
0
0
0
0
0
0
0
0
0
0
0
0
0
0
0
0
0
0
0
0
0
0
0
0
0
0
0
0
0
0
0
0
0
0
0
0
0
0
0
0
0
0
0
0
0
0
0
0
0
0
0
0
0
0
0
0
0
0
0
0
0
0
0
0
0
0
0
0
0
0
0
0
0
0
0
0
0
0
0
0
0
0
0
0
0
0
0
0
0
0
0
0
0
0
0
0
0
0
0
0
0
0
0
0
0
0
0
0
0
0
0
0
0
0
0
0
0
0
0
0
0
0
0
0
0
0
0
0
0
0
0
0
0
0
0
0
0
0
0
0
0
0
0
0
0
0
0
0
0
0
0
0
0
0
0
0
0
0
0
0
0
0
0
0
0
0
0
0
0
0
0
0
0
0
0
0
0
0
0
0
0
0
0
0
0
0
0
0
0
0
0
0
0
0
0
0
0
0
0
0
0
0
0
0
0
0
0
0
0
0
0
0
0
0
0
0
0
0
0
0
0
0
0
0
0
0
0
0
0
0
0
0
0
0
0
0
0
0
0
0
0
0
0
0
0
0
0
0
0
0
0
0
0
0
0
0
0
0
0
0
0
0
0
0
0
0
0
0
0
0
0
0
0
0
0
0
0
0
0
0
0
0
0
0
0
0
0
0
0
0
0
0
0
0
0
0
0
0
0
0
0
0
0
0
0
0
0
0
0
0
0
0
0
0
0
0
0
0
0
0
0
0
0
0
0
0
0
0
0
0
0
0
0
0
0
0
0
0
0
0
0
0
0
0
0
0
0
0
0
0
0
0
0
0
0
0
0
0
0
0
0
0
0
0
0
0
0
0
0
0
0
0
0
0
0
0
0
0
0
0
0
0
0
0
0
0
0
0
0
0
0
0
0
0
0
0
0
0
0
0
0
0
0
0
0
0
0
0
0
0
0
0
0
0
0
0
0
0
0
0
0
0
0
0
0
0
0
0
0
0
0
0
0
0
0
0
0
0
0
0
0
0
0
0
0
0
0
0
0
0
0
0
0
0
0
0
0
0
0
0
0
0
0
0
0
0
0
0
0
0
0
0
0
0
0
0
0
0
0
0
0
0
0
0
0
0
0
0
0
0
0
0
0
0
0
0
0
0
0
0
0
0
0
0
0
0
0
0
0
0
0
0
0
0
0
0
0
0
0
0
0
0
0
0
0
0
0
0
0
0
0
0
1
1
1
1
1
1
1
1
1
1
1
1
1
1
1
1
1
1
1
1
1
1
1
1
1
1
1
1
1
1
2
2
2
2
2
2
2
2
2
2
2
2
2
2
2
2
2
2
2
2
2
2
2
2
2
2
2
2
2
2
3
3
3
3
3
3
3
3
3
3
3
3
3
3
3
3
3
3
3
3
3
3
3
3
3
3
3
3
3
3
4
4
4
4
4
4
4
4
4
4
4
4
4
4
4
4
4
4
4
4
4
4
4
4
4
4
4
4
4
4

LOOKUP_TABLE FreeFempp_table 5
1.00000000 0.00000000 0.00000000 1.00000000
1.00000000 1.00000000 0.00000000 1.00000000
1.00000000 0.00000000 1.00000000 1.00000000
0.00000000 1.00000000 0.00000000 1.00000000
0.00000000 1.00000000 1.00000000 1.00000000

POINT_DATA 961
FIELD FieldData 1
Density 1 961 float
6.14151312e-03 6.03738334e-03 6.20907824e-03 6.43354980e-03 6.43203128e-03 6.28128415e-03 6.01492543e-03 5.80785051e-03 5.14874840e-03 1.00107171e-01 3.21594924e-01 6.01384699e-01 6.52062833e-01 6.47424698e-01 6.39023066e-01 6.29163921e-01 6.17070138e-01 5.96466184e-01 5.61865509e-01 5.22087574e-01 5.01099765e-01 5.16159475e-01 5.61053932e-01 6.13634109e-01 6.49678588e-01 6.41873360e-01 5.24702609e-01 2.34017357e-01 8.01386032e-03 1.31610036e-02 2.41686299e-01 8.56299605e-03 5.41596161e-03 6.27659261e-03 6.31567556e-03 6.37905393e-03 6.30374532e-03 6.16788352e-03 5.88574540e-03 4.20148252e-03 4.47325595e-03 6.35101367e-03 6.02317043e-02 7.01812148e-01 8.49025726e-01 8.76499534e-01 8.94854307e-01 9.04783189e-01 8.91417205e-01 8.24025273e-01 6.71271741e-01 5.00042439e-01 4.18608069e-01 4.30340409e-01 4.98140186e-01 5.78758597e-01 6.21004343e-01 5.57319462e-01 2.97131032e-01 1.00497846e-02 5.20597771e-03 5.47957420e-02 2.80541088e-02 2.18609907e-02 4.13676053e-02 8.71687233e-02 1.36380643e-01 1.54623911e-01 1.45764947e-01 1.10350370e-01 3.44373174e-02 6.65767631e-03 4.32966463e-03 4.15808475e-03 7.92482123e-03 1.76250786e-02 2.22065598e-01 3.61980915e-01 4.30388302e-01 4.43123430e-01 4.33334082e-01 4.31240052e-01 4.53008294e-01 5.01315176e-01 5.73795080e-01 6.57612622e-01 7.21638441e-01 7.35699713e-01 6.67459369e-01 4.59852278e-01 7.58978501e-02 5.95308514e-03 9.41751804e-03 3.06311343e-02 2.25276630e-02 7.97194466e-02 2.00809658e-01 2.62752950e-01 2.93866545e-01 3.10263544e-01 3.15977305e-01 3.09285223e-01 2.84276485e-01 2.07263708e-01 2.30770349e-03 4.72185155e-03 5.18006505e-03 1.05133457e-02 1.74556151e-02 8.44382346e-02 1.29134238e-01 1.64565459e-01 2.13962510e-01 3.08807284e-01 4.35625762e-01 5.42600691e-01 6.17552221e-01 6.60757661e-01 6.58293307e-01 5.86290181e-01 4.29962069e-01 1.62871078e-01 7.75957154e-03 7.47172581e-03 4.45977449e-02 2.29963828e-02 1.06802665e-01 2.59812534e-01 3.23734075e-01 3.56587470e-01 3.76331687e-01 3.87614310e-01 3.91717285e-01 3.86713535e-01 3.64714295e-01 3.11637431e-01 2.20455170e-01 1.91352256e-02 1.39912851e-02 1.07150543e-02 7.90630654e-03 1.86009631e-02 2.84457281e-02 6.38113320e-02 1.72241434e-01 3.52685213e-01 5.13666093e-01 6.13504767e-01 6.64188325e-01 6.66038215e-01 6.00637794e-01 4.49809581e-01 2.01273873e-01 8.02173000e-03 7.56418705e-03 8.60748366e-02 3.15699875e-02 1.53946429e-01 3.26387405e-01 3.85199130e-01 4.11995500e-01 4.25369143e-01 4.31282461e-01 4.31882501e-01 4.26531523e-01 4.11939412e-01 3.83354664e-01 3.34235042e-01 2.50874043e-01 1.50730968e-01 3.31792571e-02 1.58549827e-02 1.56843830e-02 1.13477269e-02 5.97756496e-03 7.83630982e-02 2.74229974e-01 4.74562347e-01 5.95595777e-01 6.54252231e-01 6.62258208e-01 6.07920110e-01 4.68120337e-01 2.19290689e-01 8.29001330e-03 7.79592572e-03 1.78845167e-01 8.64705518e-02 2.52693802e-01 4.13242251e-01 4.53335226e-01 4.68931645e-01 4.73164976e-01 4.71768498e-01 4.66849387e-01 4.58193302e-01 4.43985701e-01 4.21829283e-01 3.88997048e-01 3.41675729e-01 2.82428712e-01 1.92114934e-01 8.80459249e-02 3.50505523e-02 1.60708036e-02 7.07504398e-04 4.95599657e-02 2.39677146e-01 4.45900887e-01 5.73134661e-01 6.39152646e-01 6.57979727e-01 6.19750500e-01 4.94652331e-01 2.39088625e-01 8.55320133e-03 7.96633121e-03 3.31673980e-01 2.82215208e-01 4.19882417e-01 5.17938554e-01 5.26487947e-01 5.28512180e-01 5.23359060e-01 5.14862120e-01 5.04500210e-01 4.92260575e-01 4.77111369e-01 4.57690716e-01 4.32779372e-01 4.01343048e-01 3.64557117e-01 3.12292874e-01 2.38553107e-01 1.68246821e-01 1.25603005e-01 1.00346506e-01 1.51100039e-01 2.91393906e-01 4.46484029e-01 5.53890705e-01 6.19674325e-01 6.49190903e-01 6.29753470e-01 5.24776697e-01 2.64873236e-01 8.82187579e-03 8.12172238e-03 4.90977347e-01 5.78861892e-01 5.83737314e-01 6.13220155e-01 5.93061090e-01 5.84057689e-01 5.71157098e-01 5.56683838e-01 5.41606486e-01 5.26131690e-01 5.09756207e-01 4.91710782e-01 4.71431911e-01 4.48679507e-01 4.23640668e-01 3.92199129e-01 3.52807730e-01 3.12812686e-01 2.83184141e-01 2.68207729e-01 2.99831599e-01 3.77613455e-01 4.65619326e-01 5.40912151e-01 5.99242389e-01 6.36096835e-01 6.34759605e-01 5.53252816e-01 2.95266032e-01 9.12274513e-03 8.29325989e-03 5.55287063e-01 7.18268573e-01 6.54565394e-01 6.62063420e-01 6.34326518e-01 6.22034609e-01 6.05740964e-01 5.88116705e-01 5.70320785e-01 5.52963555e-01 5.36012888e-01 5.19147158e-01 5.02263367e-01 4.85606492e-01 4.69410688e-01 4.52331930e-01 4.33631212e-01 4.14433926e-01 3.98666531e-01 3.91547382e-01 4.05516058e-01 4.41189855e-01 4.86362189e-01 5.34151554e-01 5.81483126e-01 6.20845258e-01 6.33737862e-01 5.75375617e-01 3.26905966e-01 9.50486120e-03 8.52392334e-03 4.58151042e-01 6.30761385e-01 6.06517851e-01 6.40695453e-01 6.34968519e-01 6.30315244e-01 6.17467344e-01 6.01404667e-01 5.84515750e-01 5.68121612e-01 5.52627087e-01 5.37866294e-01 5.23775160e-01 5.10990798e-01 5.00957966e-01 4.94416773e-01 4.89911854e-01 4.84144658e-01 4.76552218e-01 4.70913887e-01 4.73325282e-01 4.85261649e-01 5.04852057e-01 5.32512188e-01 5.68284869e-01 6.05774343e-01 6.27297997e-01 5.88261127e-01 3.55710566e-01 1.00575946e-02 8.88863858e-03 2.49896020e-01 3.51285338e-01 4.55583870e-01 5.56360602e-01 5.95441759e-01 6.07709646e-01 6.04534090e-01 5.94840765e-01 5.83042502e-01 5.71405351e-01 5.60584188e-01 5.49872220e-01 5.38214386e-01 5.26447415e-01 5.18477261e-01 5.18017709e-01 5.23694813e-01 5.28168797e-01 5.26577592e-01 5.21563232e-01 5.17636955e-01 5.16836107e-01 5.21187484e-01 5.34706712e-01 5.59962749e-01 5.92586160e-01 6.16954327e-01 5.90966344e-01 3.77214283e-01 1.09337326e-02 9.51098278e-03 9.68970880e-02 1.32238939e-01 2.99541056e-01 4.60462898e-01 5.37002444e-01 5.66267848e-01 5.74188292e-01 5.73046982e-01 5.68934262e-01 5.64865112e-01 5.61330497e-01 5.56361735e-01 5.47549486e-01 5.37910998e-01 5.34952581e-01 5.38877785e-01 5.47478378e-01 5.55212140e-01 5.57047129e-01 5.53717196e-01 5.47873080e-01 5.41008294e-01 5.36505520e-01 5.40256083e-01 5.56473136e-01 5.82443535e-01 6.04537249e-01 5.83841801e-01 3.86118263e-01 1.23566035e-02 1.05738658e-02 4.10529338e-02 5.24043329e-02 2.25763425e-01 4.03944254e-01 4.87512022e-01 5.23718894e-01 5.38557053e-01 5.44330359e-01 5.47401071e-01 5.50794065e-01 5.54291546e-01 5.54656804e-01 5.50779521e-01 5.53848505e-01 5.69894731e-01 5.82623422e-01 5.85446537e-01 5.81879735e-01 5.78156412e-01 5.76057971e-01 5.71161509e-01 5.62248588e-01 5.52948594e-01 5.50070882e-01 5.58563292e-01 5.76583147e-01 5.91689765e-01 5.67246497e-01 3.75479639e-01 1.46060493e-02 1.23179052e-02 2.62105949e-02 3.07242479e-02 2.26120025e-01 3.90929401e-01 4.59373862e-01 4.91761804e-01 5.07617116e-01 5.16563833e-01 5.24043500e-01 5.32349527e-01 5.40329695e-01 5.44616342e-01 5.48985541e-01 5.72225273e-01 6.05294645e-01 6.12067997e-01 6.24324501e-01 6.10180318e-01 5.96604526e-01 5.95131457e-01 5.92812240e-01 5.84222853e-01 5.73179901e-01 5.66543341e-01 5.68744242e-01 5.77518880e-01 5.80125809e-01 5.40431559e-01 3.38865131e-01 1.81153361e-02 1.51540739e-02 1.97012331e-02 2.28899401e-02 2.59372681e-01 4.00239110e-01 4.49045539e-01 4.72558945e-01 4.85301644e-01 4.94078428e-01 5.03041327e-01 5.13509333e-01 5.23576140e-01 5.30537963e-01 5.42204916e-01 5.77421606e-01 6.04323328e-01 6.12181962e-01 6.27410293e-01 6.22910559e-01 6.08120203e-01 6.11613929e-01 6.13687634e-01 6.07571006e-01 5.98233044e-01 5.91828108e-01 5.90771496e-01 5.90343118e-01 5.74769020e-01 5.05889237e-01 2.81639218e-01 2.31948756e-02 1.97694618e-02 1.55084860e-02 1.80066023e-02 2.84717172e-01 4.15162265e-01 4.49198008e-01 4.63281572e-01 4.71015900e-01 4.77610886e-01 4.86117989e-01 4.97104764e-01 5.08301318e-01 5.17072141e-01 5.29841006e-01 5.63107550e-01 6.02287948e-01 6.13670588e-01 6.28093839e-01 6.13841593e-01 6.09159172e-01 6.22001946e-01 6.29736304e-01 6.28601372e-01 6.25138104e-01 6.24297857e-01 6.25771701e-01 6.21110678e-01 5.89212775e-01 4.86878961e-01 2.42183775e-01 3.08535341e-02 2.62541901e-02 1.29588330e-02 1.49252582e-02 2.95094073e-01 4.30209339e-01 4.55127180e-01 4.60687757e-01 4.62763160e-01 4.66117203e-01 4.73039061e-01 4.83699322e-01 4.95981932e-01 5.07045150e-01 5.18453240e-01 5.39373338e-01 5.68055391e-01 5.88620603e-01 5.93539178e-01 5.91666102e-01 6.03786826e-01 6.23778045e-01 6.36035085e-01 6.41609192e-01 6.47224903e-01 6.56352043e-01 6.66770995e-01 6.68045402e-01 6.37143970e-01 5.30380428e-01 2.88912416e-01 5.85715920e-02 4.31227125e-02 1.14420690e-02 1.30313244e-02 2.96294540e-01 4.44416076e-01 4.64407891e-01 4.62539613e-01 4.58792210e-01 4.58280414e-01 4.62799788e-01 4.72283453e-01 4.85032648e-01 4.98508841e-01 5.11320829e-01 5.24748564e-01 5.39463520e-01 5.52250206e-01 5.62554002e-01 5.75308144e-01 5.95348120e-01 6.15646422e-01 6.30353391e-01 6.42564416e-01 6.57457173e-01 6.77151024e-01 6.98983073e-01 7.13499427e-01 7.02463090e-01 6.40151024e-01 4.77065712e-01 2.19873905e-01 1.32984862e-01 1.05551630e-02 1.18592437e-02 2.92967856e-01 4.57694739e-01 4.75551844e-01 4.67304468e-01 4.57836151e-01 4.53131795e-01 4.54652190e-01 4.62037206e-01 4.73856181e-01 4.88108605e-01 5.02882600e-01 5.16810000e-01 5.29030025e-01 5.39759040e-01 5.51034808e-01 5.65025747e-01 5.81822693e-01 5.98710001e-01 6.14334643e-01 6.31021023e-01 6.52012944e-01 6.78693295e-01 7.08934903e-01 7.35060394e-01 7.44267821e-01 7.32155800e-01 7.03512609e-01 6.87742651e-01 4.19924915e-01 1.00569511e-02 1.11296484e-02 2.87892997e-01 4.70393658e-01 4.87503588e-01 4.73713100e-01 4.58894551e-01 4.50077772e-01 4.48422104e-01 4.53155518e-01 4.62819219e-01 4.75731730e-01 4.90202069e-01 5.04604459e-01 5.17590523e-01 5.28795898e-01 5.39203525e-01 5.50235450e-01 5.62757969e-01 5.76561749e-01 5.91638088e-01 6.09310687e-01 6.31534278e-01 6.59568548e-01 6.92260027e-01 7.22944736e-01 7.39546716e-01 7.43041515e-01 7.73517787e-01 8.30067456e-01 6.41105175e-01 9.80298314e-03 1.06718466e-02 2.83008814e-01 4.83263284e-01 4.99431580e-01 4.80534196e-01 4.61046755e-01 4.48730469e-01 4.44288164e-01 4.46444362e-01 4.53525960e-01 4.63925451e-01 4.76175398e-01 4.88895744e-01 5.00884175e-01 5.11526883e-01 5.21106064e-01 5.30542612e-01 5.40832996e-01 5.52477837e-01 5.65747976e-01 5.81368923e-01 6.00605428e-01 6.24801457e-01 6.53919756e-01 6.81972504e-01 6.93037152e-01 6.77543700e-01 6.61224663e-01 5.35051346e-01 5.26446879e-01 9.72227566e-03 1.03935841e-02 2.80368716e-01 4.97471869e-01 5.10558844e-01 4.86491024e-01 4.63406593e-01 4.48809564e-01 4.42535013e-01 4.42745239e-01 4.47543353e-01 4.55334753e-01 4.64832813e-01 4.74969178e-01 4.84885782e-01 4.94107008e-01 5.02697825e-01 5.11156082e-01 5.20080209e-01 5.29802561e-01 5.40446699e-01 5.52332044e-01 5.66234767e-01 5.83406508e-01 6.04830563e-01 6.26230836e-01 6.28007650e-01 5.79698741e-01 4.19961989e-01 1.13193944e-01 2.38223016e-01 9.80580971e-03 1.02658803e-02 2.83277631e-01 5.14908612e-01 5.20119727e-01 4.90301311e-01 4.65201199e-01 4.50166374e-01 4.43480939e-01 4.42708910e-01 4.45857912e-01 4.51457322e-01 4.58457261e-01 4.66102988e-01 4.73861754e-01 4.81445879e-01 4.88843590e-01 4.96233135e-01 5.03789902e-01 5.11508524e-01 5.19251823e-01 5.27006984e-01 5.35125256e-01 5.44548869e-01 5.57012022e-01 5.71924746e-01 5.73565662e-01 5.18812597e-01 2.83375680e-01 2.64481269e-02 7.57346377e-02 1.00991912e-02 1.03179626e-02 2.98058182e-01 5.38998842e-01 5.27589321e-01 4.90854651e-01 4.65910345e-01 4.52841103e-01 4.47467715e-01 4.46753681e-01 4.48836297e-01 4.52597648e-01 4.57373410e-01 4.62760210e-01 4.68502790e-01 4.74454999e-01 4.80558485e-01 4.86773819e-01 4.92970705e-01 4.98852789e-01 5.04019320e-01 5.08162379e-01 5.11301517e-01 5.14073431e-01 5.18579006e-01 5.28722823e-01 5.40903151e-01 5.16027987e-01 2.76048034e-01 2.06230599e-02 3.12176123e-02 1.06429420e-02 1.06181614e-02 3.36124212e-01 5.75398564e-01 5.33018529e-01 4.87422049e-01 4.65387255e-01 4.57049578e-01 4.54702318e-01 4.54819769e-01 4.56026256e-01 4.57887739e-01 4.60334837e-01 4.63390261e-01 4.67060238e-01 4.71311688e-01 4.76066709e-01 4.81164724e-01 4.86294925e-01 4.90947336e-01 4.94450063e-01 4.96137559e-01 4.95664924e-01 4.93448436e-01 4.91638601e-01 4.97617066e-01 5.24236381e-01 5.47654748e-01 3.14077735e-01 2.03510262e-02 2.44238973e-02 1.10299289e-02 1.10494895e-02 4.06767994e-01 6.26109838e-01 5.36000192e-01 4.79877681e-01 4.64189976e-01 4.63116080e-01 4.64667410e-01 4.65428025e-01 4.65159416e-01 4.64510709e-01 4.64161277e-01 4.64562327e-01 4.65926528e-01 4.68294442e-01 4.71588552e-01 4.75617379e-01 4.80030686e-01 4.84254837e-01 4.87450004e-01 4.88560975e-01 4.86612320e-01 4.81405586e-01 4.74565148e-01 4.73737925e-01 5.11013806e-01 5.97596228e-01 3.78195822e-01 1.92595590e-02 2.30658278e-02 1.05146300e-02 1.05039570e-02 4.71221775e-01 6.65295422e-01 5.32157958e-01 4.71504450e-01 4.65894461e-01 4.71701920e-01 4.74692434e-01 4.73507792e-01 4.69920844e-01 4.65751022e-01 4.62180555e-01 4.59795356e-01 4.58790183e-01 4.59152281e-01 4.60773468e-01 4.63489771e-01 4.67064381e-01 4.71131235e-01 4.75108445e-01 4.78100330e-01 4.78890389e-01 4.76266921e-01 4.69719648e-01 4.60138291e-01 4.72923845e-01 6.30290151e-01 4.93978113e-01 1.83652677e-02 2.32695267e-02 3.24717932e-03 1.05328616e-02 5.34124553e-01 6.54983759e-01 5.28161347e-01 4.85045612e-01 4.84957755e-01 4.85220253e-01 4.78946656e-01 4.69264835e-01 4.59267169e-01 4.50622678e-01 4.43933666e-01 4.39223856e-01 4.36277092e-01 4.34830129e-01 4.34666753e-01 4.35655922e-01 4.37762976e-01 4.41055179e-01 4.45713669e-01 4.52056736e-01 4.60574210e-01 4.71886516e-01 4.85855073e-01 4.96826649e-01 4.77018416e-01 5.14797747e-01 5.73016346e-01 1.63106509e-02 2.27185562e-02 3.35822650e-03 2.46706390e-04 1.67175084e-01 8.86393547e-01 6.50833488e-01 5.74903071e-01 5.35583317e-01 5.00829816e-01 4.71831799e-01 4.49183404e-01 4.32159483e-01 4.19718891e-01 4.10845101e-01 4.04657304e-01 4.00450468e-01 3.97707880e-01 3.96103173e-01 3.95502657e-01 3.95978212e-01 3.97845447e-01 4.01756644e-01 4.08916861e-01 4.21579242e-01 4.44035798e-01 4.83415902e-01 5.44109106e-01 6.01434410e-01 5.08930266e-01 4.52054560e-01 6.30197581e-03 2.08329838e-02 3.81383263e-02 4.61472524e-03 5.46859622e-01 6.60875499e-01 7.80367315e-01 5.87066710e-01 5.05360067e-01 4.65376168e-01 4.44381118e-01 4.32127565e-01 4.24287111e-01 4.18966115e-01 4.15221512e-01 4.12501961e-01 4.10442412e-01 4.08788919e-01 4.07372296e-01 4.06102151e-01 4.04971391e-01 4.04069781e-01 4.03609395e-01 4.03974414e-01 4.05844450e-01 4.10553932e-01 4.21111733e-01 4.44525898e-01 4.93453562e-01 5.49210608e-01 4.60490435e-01 6.27683382e-03 6.55938592e-03 
