# vtk DataFile Version 2.0
results/iter5.vtk, Created by Freefem++ 
ASCII
DATASET UNSTRUCTURED_GRID
POINTS 961 float
0 0 0
0.033333333 0 0
0.066666667 0 0
0.1 0 0
0.13333333 0 0
0.16666667 0 0
0.2 0 0
0.23333333 0 0
0.26666667 0 0
0.3 0 0
0.33333333 0 0
0.36666667 0 0
0.4 0 0
0.43333333 0 0
0.46666667 0 0
0.5 0 0
0.53333333 0 0
0.56666667 0 0
0.6 0 0
0.63333333 0 0
0.66666667 0 0
0.7 0 0
0.73333333 0 0
0.76666667 0 0
0.8 0 0
0.83333333 0 0
0.86666667 0 0
0.9 0 0
0.93333333 0 0
0.96666667 0 0
1 0 0
0 0.033333333 0
0.033333333 0.033333333 0
0.066666667 0.033333333 0
0.1 0.033333333 0
0.13333333 0.033333333 0
0.16666667 0.033333333 0
0.2 0.033333333 0
0.23333333 0.033333333 0
0.26666667 0.033333333 0
0.3 0.033333333 0
0.33333333 0.033333333 0
0.36666667 0.033333333 0
0.4 0.033333333 0
0.43333333 0.033333333 0
0.46666667 0.033333333 0
0.5 0.033333333 0
0.53333333 0.033333333 0
0.56666667 0.033333333 0
0.6 0.033333333 0
0.63333333 0.033333333 0
0.66666667 0.033333333 0
0.7 0.033333333 0
0.73333333 0.033333333 0
0.76666667 0.033333333 0
0.8 0.033333333 0
0.83333333 0.033333333 0
0.86666667 0.033333333 0
0.9 0.033333333 0
0.93333333 0.033333333 0
0.96666667 0.033333333 0
1 0.033333333 0
0 0.066666667 0
0.033333333 0.066666667 0
0.066666667 0.066666667 0
0.1 0.066666667 0
0.13333333 0.066666667 0
0.16666667 0.066666667 0
0.2 0.066666667 0
0.23333333 0.066666667 0
0.26666667 0.066666667 0
0.3 0.066666667 0
0.33333333 0.066666667 0
0.36666667 0.066666667 0
0.4 0.066666667 0
0.43333333 0.066666667 0
0.46666667 0.066666667 0
0.5 0.066666667 0
0.53333333 0.066666667 0
0.56666667 0.066666667 0
0.6 0.066666667 0
0.63333333 0.066666667 0
0.66666667 0.066666667 0
0.7 0.066666667 0
0.73333333 0.066666667 0
0.76666667 0.066666667 0
0.8 0.066666667 0
0.83333333 0.066666667 0
0.86666667 0.066666667 0
0.9 0.066666667 0
0.93333333 0.066666667 0
0.96666667 0.066666667 0
1 0.066666667 0
0 0.1 0
0.033333333 0.1 0
0.066666667 0.1 0
0.1 0.1 0
0.13333333 0.1 0
0.16666667 0.1 0
0.2 0.1 0
0.23333333 0.1 0
0.26666667 0.1 0
0.3 0.1 0
0.33333333 0.1 0
0.36666667 0.1 0
0.4 0.1 0
0.43333333 0.1 0
0.46666667 0.1 0
0.5 0.1 0
0.53333333 0.1 0
0.56666667 0.1 0
0.6 0.1 0
0.63333333 0.1 0
0.66666667 0.1 0
0.7 0.1 0
0.73333333 0.1 0
0.76666667 0.1 0
0.8 0.1 0
0.83333333 0.1 0
0.86666667 0.1 0
0.9 0.1 0
0.93333333 0.1 0
0.96666667 0.1 0
1 0.1 0
0 0.13333333 0
0.033333333 0.13333333 0
0.066666667 0.13333333 0
0.1 0.13333333 0
0.13333333 0.13333333 0
0.16666667 0.13333333 0
0.2 0.13333333 0
0.23333333 0.13333333 0
0.26666667 0.13333333 0
0.3 0.13333333 0
0.33333333 0.13333333 0
0.36666667 0.13333333 0
0.4 0.13333333 0
0.43333333 0.13333333 0
0.46666667 0.13333333 0
0.5 0.13333333 0
0.53333333 0.13333333 0
0.56666667 0.13333333 0
0.6 0.13333333 0
0.63333333 0.13333333 0
0.66666667 0.13333333 0
0.7 0.13333333 0
0.73333333 0.13333333 0
0.76666667 0.13333333 0
0.8 0.13333333 0
0.83333333 0.13333333 0
0.86666667 0.13333333 0
0.9 0.13333333 0
0.93333333 0.13333333 0
0.96666667 0.13333333 0
1 0.13333333 0
0 0.16666667 0
0.033333333 0.16666667 0
0.066666667 0.16666667 0
0.1 0.16666667 0
0.13333333 0.16666667 0
0.16666667 0.16666667 0
0.2 0.16666667 0
0.23333333 0.16666667 0
0.26666667 0.16666667 0
0.3 0.16666667 0
0.33333333 0.16666667 0
0.36666667 0.16666667 0
0.4 0.16666667 0
0.43333333 0.16666667 0
0.46666667 0.16666667 0
0.5 0.16666667 0
0.53333333 0.16666667 0
0.56666667 0.16666667 0
0.6 0.16666667 0
0.63333333 0.16666667 0
0.66666667 0.16666667 0
0.7 0.16666667 0
0.73333333 0.16666667 0
0.76666667 0.16666667 0
0.8 0.16666667 0
0.83333333 0.16666667 0
0.86666667 0.16666667 0
0.9 0.16666667 0
0.93333333 0.16666667 0
0.96666667 0.16666667 0
1 0.16666667 0
0 0.2 0
0.033333333 0.2 0
0.066666667 0.2 0
0.1 0.2 0
0.13333333 0.2 0
0.16666667 0.2 0
0.2 0.2 0
0.23333333 0.2 0
0.26666667 0.2 0
0.3 0.2 0
0.33333333 0.2 0
0.36666667 0.2 0
0.4 0.2 0
0.43333333 0.2 0
0.46666667 0.2 0
0.5 0.2 0
0.53333333 0.2 0
0.56666667 0.2 0
0.6 0.2 0
0.63333333 0.2 0
0.66666667 0.2 0
0.7 0.2 0
0.73333333 0.2 0
0.76666667 0.2 0
0.8 0.2 0
0.83333333 0.2 0
0.86666667 0.2 0
0.9 0.2 0
0.93333333 0.2 0
0.96666667 0.2 0
1 0.2 0
0 0.23333333 0
0.033333333 0.23333333 0
0.066666667 0.23333333 0
0.1 0.23333333 0
0.13333333 0.23333333 0
0.16666667 0.23333333 0
0.2 0.23333333 0
0.23333333 0.23333333 0
0.26666667 0.23333333 0
0.3 0.23333333 0
0.33333333 0.23333333 0
0.36666667 0.23333333 0
0.4 0.23333333 0
0.43333333 0.23333333 0
0.46666667 0.23333333 0
0.5 0.23333333 0
0.53333333 0.23333333 0
0.56666667 0.23333333 0
0.6 0.23333333 0
0.63333333 0.23333333 0
0.66666667 0.23333333 0
0.7 0.23333333 0
0.73333333 0.23333333 0
0.76666667 0.23333333 0
0.8 0.23333333 0
0.83333333 0.23333333 0
0.86666667 0.23333333 0
0.9 0.23333333 0
0.93333333 0.23333333 0
0.96666667 0.23333333 0
1 0.23333333 0
0 0.26666667 0
0.033333333 0.26666667 0
0.066666667 0.26666667 0
0.1 0.26666667 0
0.13333333 0.26666667 0
0.16666667 0.26666667 0
0.2 0.26666667 0
0.23333333 0.26666667 0
0.26666667 0.26666667 0
0.3 0.26666667 0
0.33333333 0.26666667 0
0.36666667 0.26666667 0
0.4 0.26666667 0
0.43333333 0.26666667 0
0.46666667 0.26666667 0
0.5 0.26666667 0
0.53333333 0.26666667 0
0.56666667 0.26666667 0
0.6 0.26666667 0
0.63333333 0.26666667 0
0.66666667 0.26666667 0
0.7 0.26666667 0
0.73333333 0.26666667 0
0.76666667 0.26666667 0
0.8 0.26666667 0
0.83333333 0.26666667 0
0.86666667 0.26666667 0
0.9 0.26666667 0
0.93333333 0.26666667 0
0.96666667 0.26666667 0
1 0.26666667 0
0 0.3 0
0.033333333 0.3 0
0.066666667 0.3 0
0.1 0.3 0
0.13333333 0.3 0
0.16666667 0.3 0
0.2 0.3 0
0.23333333 0.3 0
0.26666667 0.3 0
0.3 0.3 0
0.33333333 0.3 0
0.36666667 0.3 0
0.4 0.3 0
0.43333333 0.3 0
0.46666667 0.3 0
0.5 0.3 0
0.53333333 0.3 0
0.56666667 0.3 0
0.6 0.3 0
0.63333333 0.3 0
0.66666667 0.3 0
0.7 0.3 0
0.73333333 0.3 0
0.76666667 0.3 0
0.8 0.3 0
0.83333333 0.3 0
0.86666667 0.3 0
0.9 0.3 0
0.93333333 0.3 0
0.96666667 0.3 0
1 0.3 0
0 0.33333333 0
0.033333333 0.33333333 0
0.066666667 0.33333333 0
0.1 0.33333333 0
0.13333333 0.33333333 0
0.16666667 0.33333333 0
0.2 0.33333333 0
0.23333333 0.33333333 0
0.26666667 0.33333333 0
0.3 0.33333333 0
0.33333333 0.33333333 0
0.36666667 0.33333333 0
0.4 0.33333333 0
0.43333333 0.33333333 0
0.46666667 0.33333333 0
0.5 0.33333333 0
0.53333333 0.33333333 0
0.56666667 0.33333333 0
0.6 0.33333333 0
0.63333333 0.33333333 0
0.66666667 0.33333333 0
0.7 0.33333333 0
0.73333333 0.33333333 0
0.76666667 0.33333333 0
0.8 0.33333333 0
0.83333333 0.33333333 0
0.86666667 0.33333333 0
0.9 0.33333333 0
0.93333333 0.33333333 0
0.96666667 0.33333333 0
1 0.33333333 0
0 0.36666667 0
0.033333333 0.36666667 0
0.066666667 0.36666667 0
0.1 0.36666667 0
0.13333333 0.36666667 0
0.16666667 0.36666667 0
0.2 0.36666667 0
0.23333333 0.36666667 0
0.26666667 0.36666667 0
0.3 0.36666667 0
0.33333333 0.36666667 0
0.36666667 0.36666667 0
0.4 0.36666667 0
0.43333333 0.36666667 0
0.46666667 0.36666667 0
0.5 0.36666667 0
0.53333333 0.36666667 0
0.56666667 0.36666667 0
0.6 0.36666667 0
0.63333333 0.36666667 0
0.66666667 0.36666667 0
0.7 0.36666667 0
0.73333333 0.36666667 0
0.76666667 0.36666667 0
0.8 0.36666667 0
0.83333333 0.36666667 0
0.86666667 0.36666667 0
0.9 0.36666667 0
0.93333333 0.36666667 0
0.96666667 0.36666667 0
1 0.36666667 0
0 0.4 0
0.033333333 0.4 0
0.066666667 0.4 0
0.1 0.4 0
0.13333333 0.4 0
0.16666667 0.4 0
0.2 0.4 0
0.23333333 0.4 0
0.26666667 0.4 0
0.3 0.4 0
0.33333333 0.4 0
0.36666667 0.4 0
0.4 0.4 0
0.43333333 0.4 0
0.46666667 0.4 0
0.5 0.4 0
0.53333333 0.4 0
0.56666667 0.4 0
0.6 0.4 0
0.63333333 0.4 0
0.66666667 0.4 0
0.7 0.4 0
0.73333333 0.4 0
0.76666667 0.4 0
0.8 0.4 0
0.83333333 0.4 0
0.86666667 0.4 0
0.9 0.4 0
0.93333333 0.4 0
0.96666667 0.4 0
1 0.4 0
0 0.43333333 0
0.033333333 0.43333333 0
0.066666667 0.43333333 0
0.1 0.43333333 0
0.13333333 0.43333333 0
0.16666667 0.43333333 0
0.2 0.43333333 0
0.23333333 0.43333333 0
0.26666667 0.43333333 0
0.3 0.43333333 0
0.33333333 0.43333333 0
0.36666667 0.43333333 0
0.4 0.43333333 0
0.43333333 0.43333333 0
0.46666667 0.43333333 0
0.5 0.43333333 0
0.53333333 0.43333333 0
0.56666667 0.43333333 0
0.6 0.43333333 0
0.63333333 0.43333333 0
0.66666667 0.43333333 0
0.7 0.43333333 0
0.73333333 0.43333333 0
0.76666667 0.43333333 0
0.8 0.43333333 0
0.83333333 0.43333333 0
0.86666667 0.43333333 0
0.9 0.43333333 0
0.93333333 0.43333333 0
0.96666667 0.43333333 0
1 0.43333333 0
0 0.46666667 0
0.033333333 0.46666667 0
0.066666667 0.46666667 0
0.1 0.46666667 0
0.13333333 0.46666667 0
0.16666667 0.46666667 0
0.2 0.46666667 0
0.23333333 0.46666667 0
0.26666667 0.46666667 0
0.3 0.46666667 0
0.33333333 0.46666667 0
0.36666667 0.46666667 0
0.4 0.46666667 0
0.43333333 0.46666667 0
0.46666667 0.46666667 0
0.5 0.46666667 0
0.53333333 0.46666667 0
0.56666667 0.46666667 0
0.6 0.46666667 0
0.63333333 0.46666667 0
0.66666667 0.46666667 0
0.7 0.46666667 0
0.73333333 0.46666667 0
0.76666667 0.46666667 0
0.8 0.46666667 0
0.83333333 0.46666667 0
0.86666667 0.46666667 0
0.9 0.46666667 0
0.93333333 0.46666667 0
0.96666667 0.46666667 0
1 0.46666667 0
0 0.5 0
0.033333333 0.5 0
0.066666667 0.5 0
0.1 0.5 0
0.13333333 0.5 0
0.16666667 0.5 0
0.2 0.5 0
0.23333333 0.5 0
0.26666667 0.5 0
0.3 0.5 0
0.33333333 0.5 0
0.36666667 0.5 0
0.4 0.5 0
0.43333333 0.5 0
0.46666667 0.5 0
0.5 0.5 0
0.53333333 0.5 0
0.56666667 0.5 0
0.6 0.5 0
0.63333333 0.5 0
0.66666667 0.5 0
0.7 0.5 0
0.73333333 0.5 0
0.76666667 0.5 0
0.8 0.5 0
0.83333333 0.5 0
0.86666667 0.5 0
0.9 0.5 0
0.93333333 0.5 0
0.96666667 0.5 0
1 0.5 0
0 0.53333333 0
0.033333333 0.53333333 0
0.066666667 0.53333333 0
0.1 0.53333333 0
0.13333333 0.53333333 0
0.16666667 0.53333333 0
0.2 0.53333333 0
0.23333333 0.53333333 0
0.26666667 0.53333333 0
0.3 0.53333333 0
0.33333333 0.53333333 0
0.36666667 0.53333333 0
0.4 0.53333333 0
0.43333333 0.53333333 0
0.46666667 0.53333333 0
0.5 0.53333333 0
0.53333333 0.53333333 0
0.56666667 0.53333333 0
0.6 0.53333333 0
0.63333333 0.53333333 0
0.66666667 0.53333333 0
0.7 0.53333333 0
0.73333333 0.53333333 0
0.76666667 0.53333333 0
0.8 0.53333333 0
[...]
CELL_DATA 1920
Scalars  Label int 1
LOOKUP_TABLE FreeFempp_table
0
0
0
0
0
0
0
0
0
0
0
0
0
0
0
0
0
0
0
0
0
0
0
0
0
0
0
0
0
0
0
0
0
0
0
0
0
0
0
0
0
0
0
0
0
0
0
0
0
0
0
0
0
0
0
0
0
0
0
0
0
0
0
0
0
0
0
0
0
0
0
0
0
0
0
0
0
0
0
0
0
0
0
0
0
0
0
0
0
0
0
0
0
0
0
0
0
0
0
0
0
0
0
0
0
0
0
0
0
0
0
0
0
0
0
0
0
0
0
0
0
0
0
0
0
0
0
0
0
0
0
0
0
0
0
0
0
0
0
0
0
0
0
0
0
0
0
0
0
0
0
0
0
0
0
0
0
0
0
0
0
0
0
0
0
0
0
0
0
0
0
0
0
0
0
0
0
0
0
0
0
0
0
0
0
0
0
0
0
0
0
0
0
0
0
0
0
0
0
0
0
0
0
0
0
0
0
0
0
0
0
0
0
0
0
0
0
0
0
0
0
0
0
0
0
0
0
0
0
0
0
0
0
0
0
0
0
0
0
0
0
0
0
0
0
0
0
0
0
0
0
0
0
0
0
0
0
0
0
0
0
0
0
0
0
0
0
0
0
0
0
0
0
0
0
0
0
0
0
0
0
0
0
0
0
0
0
0
0
0
0
0
0
0
0
0
0
0
0
0
0
0
0
0
0
0
0
0
0
0
0
0
0
0
0
0
0
0
0
0
0
0
0
0
0
0
0
0
0
0
0
0
0
0
0
0
0
0
0
0
0
0
0
0
0
0
0
0
0
0
0
0
0
0
0
0
0
0
0
0
0
0
0
0
0
0
0
0
0
0
0
0
0
0
0
0
0
0
0
0
0
0
0
0
0
0
0
0
0
0
0
0
0
0
0
0
0
0
0
0
0
0
0
0
0
0
0
0
0
0
0
0
0
0
0
0
0
0
0
0
0
0
0
0
0
0
0
0
0
0
0
0
0
0
0
0
0
0
0
0
0
0
0
0
0
0
0
0
0
0
0
0
0
0
0
0
0
0
0
0
0
0
0
0
0
0
0
0
0
0
0
0
0
0
0
0
0
0
0
0
0
0
0
0
0
0
0
0
0
0
0
0
0
0
0
0
0
0
0
0
0
0
0
0
0
0
0
0
0
0
0
0
0
0
0
0
0
0
0
0
0
0
0
0
0
0
0
0
0
0
0
0
0
0
0
0
0
0
0
0
0
0
0
0
0
0
0
0
0
0
0
0
0
0
0
0
0
0
0
0
0
0
0
0
0
0
0
0
0
0
0
0
0
0
0
0
0
0
0
0
0
0
0
0
0
0
0
0
0
0
0
0
0
0
0
0
0
0
0
0
0
0
0
0
0
0
0
0
0
0
0
0
0
0
0
0
0
0
0
0
0
0
0
0
0
0
0
0
0
0
0
0
0
0
0
0
0
0
0
0
0
0
0
0
0
0
0
0
0
0
0
0
0
0
0
0
0
0
0
0
0
0
0
0
0
0
0
0
0
0
0
0
0
0
0
0
0
0
0
0
0
0
0
0
0
0
0
0
0
0
0
0
0
0
0
0
0
0
0
0
0
0
0
0
0
0
0
0
0
0
0
0
0
0
0
0
0
0
0
0
0
0
0
0
0
0
0
0
0
0
0
0
0
0
0
0
0
0
0
0
0
0
0
0
0
0
0
0
0
0
0
0
0
0
0
0
0
0
0
0
0
0
0
0
0
0
0
0
0
0
0
0
0
0
0
0
0
0
0
0
0
0
0
0
0
0
0
0
0
0
0
0
0
0
0
0
0
0
0
0
0
0
0
0
0
0
0
0
0
0
0
0
0
0
0
0
0
0
0
0
0
0
0
0
0
0
0
0
0
0
0
0
0
0
0
0
0
0
0
0
0
0
0
0
0
0
0
0
0
0
0
0
0
0
0
0
0
0
0
0
0
0
0
0
0
0
0
0
0
0
0
0
0
0
0
0
0
0
0
0
0
0
0
0
0
0
0
0
0
0
0
0
0
0
0
0
0
0
0
0
0
0
0
0
0
0
0
0
0
0
0
0
0
0
0
0
0
0
0
0
0
0
0
0
0
0
0
0
0
0
0
0
0
0
0
0
0
0
0
0
0
0
0
0
0
0
0
0
0
0
0
0
0
0
0
0
0
0
0
0
0
0
0
0
0
0
0
0
0
0
0
0
0
0
0
0
0
0
0
0
0
0
0
0
0
0
0
0
0
0
0
0
0
0
0
0
0
0
0
0
0
0
0
0
0
0
0
0
0
0
0
0
0
0
0
0
0
0
0
0
0
0
0
0
0
0
0
0
0
0
0
0
0
0
0
0
0
0
0
0
0
0
0
0
0
0
0
0
0
0
0
0
0
0
0
0
0
0
0
0
0
0
0
0
0
0
0
0
0
0
0
0
0
0
0
0
0
0
0
0
0
0
0
0
0
0
0
0
0
0
0
0
0
0
0
0
0
0
0
0
0
0
0
0
0
0
0
0
0
0
0
0
0
0
0
0
0
0
0
0
0
0
0
0
0
0
0
0
0
0
0
0
0
0
0
0
0
0
0
0
0
0
0
0
0
0
0
0
0
0
0
0
0
0
0
0
0
0
0
0
0
0
0
0
0
0
0
0
0
0
0
0
0
0
0
0
0
0
0
0
0
0
0
0
0
0
0
0
0
0
0
0
0
0
0
0
0
0
0
0
0
0
0
0
0
0
0
0
0
0
0
0
0
0
0
0
0
0
0
0
0
0
0
0
0
0
0
0
0
0
0
0
0
0
0
0
0
0
0
0
0
0
0
0
0
0
0
0
0
0
0
0
0
0
0
0
0
0
0
0
0
0
0
0
0
0
0
0
0
0
0
0
0
0
0
0
0
0
0
0
0
0
0
0
0
0
0
0
0
0
0
0
0
0
0
0
0
0
0
0
0
0
0
0
0
0
0
0
0
0
0
0
0
0
0
0
0
0
0
0
0
0
0
0
0
0
0
0
0
0
0
0
0
0
0
0
0
0
0
0
0
0
0
0
0
0
0
0
0
0
0
0
0
0
0
0
0
0
0
0
0
0
0
0
0
0
0
0
0
0
0
0
0
0
0
0
0
0
0
0
0
0
0
0
0
0
0
0
0
0
0
0
0
0
0
0
0
0
0
0
0
0
0
0
0
0
0
0
0
0
0
0
0
0
0
0
0
0
0
0
0
0
0
0
0
0
0
0
0
0
0
0
0
0
0
0
0
0
0
0
0
0
0
0
0
0
0
0
0
0
0
0
0
0
0
0
0
0
0
0
0
0
0
0
0
0
0
0
0
0
0
0
0
0
0
0
0
0
0
0
0
0
0
0
0
0
0
0
0
0
0
0
0
0
0
0
0
0
0
0
0
0
0
0
0
0
0
0
0
0
0
0
0
0
0
0
0
0
0
0
0
0
0
0
0
0
0
0
0
0
0
0
0
0
0
0
0
0
0
0
0
0
0
0
0
0
0
0
0
0
0
0
0
0
0
0
0
0
0
0
0
0
0
0
0
0
0
0
0
0
0
0
0
0
0
0
0
0
0
0
0
0
0
0
0
0
0
0
0
0
0
0
0
0
0
0
0
0
0
0
0
0
0
0
0
0
0
0
0
0
0
0
0
0
0
0
0
0
0
0
0
0
0
0
0
0
0
0
0
0
0
0
0
0
0
0
0
0
0
0
0
0
0
0
0
0
0
0
0
0
0
0
0
0
0
0
0
0
0
0
0
0
0
0
0
0
0
0
0
0
0
0
0
0
0
0
0
0
0
0
0
0
0
0
0
0
0
0
0
0
0
0
0
0
0
0
0
0
0
0
0
0
0
0
0
0
0
0
0
0
0
0
0
0
0
0
0
0
0
0
0
0
0
0
0
0
0
0
0
0
0
0
0
0
0
0
0
0
0
0
0
0
0
0
0
0
0
0
0
0
0
0
0
0
0
0
0
0
0
0
0
0
0
0
0
0
0
0
0
0
0
0
0
0
0
0
0
0
0
0
0
0
0
0
0
0
0
0
0
0
0
0
0
0
0
0
0
0
0
0
1
1
1
1
1
1
1
1
1
1
1
1
1
1
1
1
1
1
1
1
1
1
1
1
1
1
1
1
1
1
2
2
2
2
2
2
2
2
2
2
2
2
2
2
2
2
2
2
2
2
2
2
2
2
2
2
2
2
2
2
3
3
3
3
3
3
3
3
3
3
3
3
3
3
3
3
3
3
3
3
3
3
3
3
3
3
3
3
3
3
4
4
4
4
4
4
4
4
4
4
4
4
4
4
4
4
4
4
4
4
4
4
4
4
4
4
4
4
4
4

LOOKUP_TABLE FreeFempp_table 5
1.00000000 0.00000000 0.00000000 1.00000000
1.00000000 1.00000000 0.00000000 1.00000000
1.00000000 0.00000000 1.00000000 1.00000000
0.00000000 1.00000000 0.00000000 1.00000000
0.00000000 1.00000000 1.00000000 1.00000000

POINT_DATA 961
FIELD FieldData 1
Density 1 961 float
2.94644153e-04 3.01918451e-04 3.02124186e-04 3.02085537e-04 3.01927183e-04 3.01592925e-04 3.00972140e-04 2.99853942e-04 2.97732273e-04 2.75516068e-04 3.07232171e-04 7.53182219e-04 1.77879177e-03 1.81733689e-03 1.50630076e-03 1.10189104e-03 6.97111071e-04 4.37310082e-04 3.42264626e-04 3.42445361e-04 3.19940358e-04 3.14307399e-04 3.76769342e-04 7.33342837e-04 1.14833601e-02 9.68980014e-01 9.98619854e-01 9.98798370e-01 3.99301935e-04 4.11719782e-04 2.94808708e-02 3.00857209e-04 3.23861284e-04 3.24430323e-04 3.24428343e-04 3.24140245e-04 3.23497137e-04 3.22304870e-04 3.20314954e-04 3.17370810e-04 3.14530771e-04 3.12115764e-04 3.07393289e-04 3.01511871e-04 2.96845101e-04 2.74073624e-04 2.72562291e-04 2.78050284e-04 2.86408875e-04 2.88828625e-04 2.88428622e-04 2.88181822e-04 2.75185041e-04 2.62592919e-04 2.68001924e-04 2.87560571e-04 5.30253239e-02 9.98845041e-01 9.98326778e-01 3.10092757e-04 8.26179923e-04 2.90712924e-04 3.00687272e-04 3.22955224e-04 3.23024753e-04 3.22758831e-04 3.22438253e-04 3.21821717e-04 3.20727791e-04 3.19043349e-04 3.16986174e-04 3.15890036e-04 3.18993116e-04 3.23504530e-04 3.21796600e-04 3.16361809e-04 3.10770003e-04 3.05640860e-04 3.01111897e-04 2.97094375e-04 2.93861871e-04 2.91712320e-04 2.90165335e-04 2.89202610e-04 2.67699419e-04 2.63368594e-04 2.76586594e-04 2.43882947e-02 9.98287678e-01 9.98747647e-01 3.22027161e-04 8.75641359e-04 4.00703284e-04 3.00734217e-04 3.23054031e-04 3.23118817e-04 3.22778011e-04 3.22460430e-04 3.21920612e-04 3.20995023e-04 3.19625484e-04 3.18141625e-04 3.17612779e-04 3.19307757e-04 3.21169762e-04 3.19546991e-04 3.15283367e-04 3.10585543e-04 3.05997091e-04 3.01608612e-04 2.97377323e-04 2.93936668e-04 2.91738776e-04 2.90227617e-04 2.89196993e-04 2.73511425e-04 2.63080292e-04 2.84649577e-04 1.50914667e-02 9.96761680e-01 9.99023855e-01 7.48625934e-01 1.80961622e-03 8.44021968e-04 3.00973450e-04 3.23267712e-04 3.23142711e-04 3.22689913e-04 3.22411885e-04 3.22007545e-04 3.21357977e-04 3.20348947e-04 3.19230778e-04 3.18879262e-04 3.19832499e-04 3.20593914e-04 3.19036801e-04 3.15256650e-04 3.10592732e-04 3.06185073e-04 3.02259228e-04 2.97835359e-04 2.93969468e-04 2.91788980e-04 2.90374417e-04 2.89490126e-04 2.82474444e-04 2.62859394e-04 2.85773829e-04 4.48009670e-02 9.95079994e-01 9.98663366e-01 9.87936556e-01 2.14439165e-03 1.72459718e-03 3.01757565e-04 3.23906104e-04 3.23605986e-04 3.23241082e-04 3.23343615e-04 3.23298940e-04 3.23117361e-04 3.22428619e-04 3.20941763e-04 3.19367740e-04 3.18394537e-04 3.17537691e-04 3.15940648e-04 3.13477300e-04 3.10274278e-04 3.06901347e-04 3.03827168e-04 2.98592291e-04 2.93720659e-04 2.91806180e-04 2.90552416e-04 2.89846794e-04 2.90253200e-04 2.67838303e-04 2.68375152e-04 3.74172488e-03 9.93601382e-01 9.98211503e-01 9.84189332e-01 2.53149797e-03 2.23120349e-03 3.02196713e-04 3.24968860e-04 3.22606094e-04 3.18558305e-04 3.14326171e-04 3.10270552e-04 3.06856062e-04 3.04421090e-04 3.02614179e-04 2.88701296e-04 2.75755941e-04 2.70794088e-04 2.69446406e-04 2.68553384e-04 2.71247322e-04 2.94223370e-04 2.94408412e-04 2.94510770e-04 2.92978628e-04 2.91999779e-04 2.90726661e-04 2.89732357e-04 2.90009484e-04 2.70193326e-04 2.66069808e-04 4.13007045e-04 9.92959917e-01 9.97979879e-01 9.73486185e-01 2.42595584e-03 2.40035565e-03 2.72089266e-04 3.08664341e-04 3.09361611e-04 2.86472117e-04 2.79340689e-04 3.00301792e-04 3.44285858e-04 4.44541103e-04 6.20300067e-04 8.48317577e-04 1.10303401e-03 1.38012797e-03 1.78198214e-03 2.79476424e-03 6.89516636e-03 2.75517274e-02 3.12602855e-02 4.47490311e-04 2.64259346e-04 2.87224597e-04 2.88465526e-04 2.88381852e-04 2.75565515e-04 2.65505107e-04 2.74769816e-04 4.46792634e-04 9.92830694e-01 9.98033941e-01 9.91089404e-01 1.77307962e-03 2.03375076e-03 2.96611011e-01 5.23003982e-04 1.45063186e-02 1.41460180e-01 3.57187420e-01 6.97879672e-01 8.22565377e-01 8.48985076e-01 8.28960657e-01 7.68527091e-01 6.70056462e-01 5.53814352e-01 4.63096052e-01 4.37202841e-01 4.97687757e-01 6.38088167e-01 7.68162131e-01 7.95937061e-01 7.31494308e-01 2.38485485e-02 4.03215789e-04 2.72610836e-04 2.67291005e-04 2.88921874e-04 3.44221276e-04 2.99356002e-02 9.96871769e-01 9.97989655e-01 9.93972421e-01 1.07694615e-03 1.37370138e-03 9.97097552e-01 9.98432338e-01 9.98571873e-01 9.98136342e-01 9.97281849e-01 9.95832503e-01 9.92662787e-01 9.86348987e-01 9.77123678e-01 9.70359266e-01 9.66787100e-01 9.59811032e-01 9.42706287e-01 9.11008596e-01 8.68677020e-01 8.34392369e-01 8.32825840e-01 8.58602703e-01 8.80647779e-01 8.88057530e-01 8.79996598e-01 7.60311365e-01 5.52776083e-03 1.21775642e-03 7.70686427e-04 7.60606527e-01 9.96132970e-01 9.97492373e-01 9.95504022e-01 6.72538823e-04 8.58954736e-04 9.98559475e-01 9.99188423e-01 9.99201000e-01 9.98959839e-01 9.98565853e-01 9.98042881e-01 9.97491956e-01 9.96600032e-01 9.94275570e-01 9.88455474e-01 9.80927885e-01 9.78582859e-01 9.74798381e-01 9.60660219e-01 9.28027391e-01 8.70767593e-01 7.95887649e-01 7.28275359e-01 6.94933891e-01 6.96318924e-01 7.29552567e-01 7.84473240e-01 7.94497073e-01 7.56938159e-01 8.80770981e-01 9.70314264e-01 9.94831562e-01 9.96756434e-01 9.95917499e-01 4.81689465e-04 5.83994202e-04 9.96832550e-01 9.98621345e-01 9.98685241e-01 9.98486757e-01 9.98137295e-01 9.97680843e-01 9.97164309e-01 9.96310592e-01 9.94452775e-01 9.90815341e-01 9.87796068e-01 9.88034368e-01 9.86774921e-01 9.79646981e-01 9.60663855e-01 9.18510318e-01 8.37055504e-01 7.07243621e-01 5.61960220e-01 4.58887070e-01 4.28734213e-01 5.15314102e-01 7.39696503e-01 9.19151366e-01 9.18502212e-01 9.86942947e-01 9.94109511e-01 9.95899498e-01 9.95342672e-01 3.90353089e-04 4.48099338e-04 2.27289889e-02 1.32059649e-01 7.02485025e-01 9.91442323e-01 9.87956762e-01 9.88012433e-01 9.87919390e-01 9.86674726e-01 9.86113429e-01 9.88231838e-01 9.91481662e-01 9.93348718e-01 9.93470669e-01 9.91748691e-01 9.87231016e-01 9.74812865e-01 9.41459298e-01 8.63693297e-01 7.38162935e-01 6.22822762e-01 5.78930140e-01 6.48358643e-01 8.10878217e-01 8.89238000e-01 9.09355521e-01 9.89771664e-01 9.94163513e-01 9.95034754e-01 9.93163466e-01 3.43059481e-04 3.77129531e-04 5.01194550e-03 2.10743740e-01 6.97502866e-02 4.13026623e-02 3.91049646e-02 7.12494373e-01 9.27011073e-01 9.57435250e-01 9.72536802e-01 9.83614266e-01 9.90676105e-01 9.94431317e-01 9.96067047e-01 9.96517003e-01 9.96179104e-01 9.93900418e-01 9.85299408e-01 9.59404469e-01 9.11949933e-01 8.71714413e-01 8.56387019e-01 8.60781610e-01 8.71424913e-01 8.52100194e-01 9.37997639e-01 9.90742207e-01 9.94832158e-01 9.95451450e-01 9.88049626e-01 3.16352962e-04 3.36817582e-04 4.11207415e-03 1.63380697e-01 1.94761202e-01 6.43862039e-02 1.24903973e-02 2.08148081e-03 7.97975808e-03 7.10405111e-02 3.49459767e-01 7.35129535e-01 9.33759570e-01 9.85724866e-01 9.95506465e-01 9.97513473e-01 9.97879028e-01 9.96962965e-01 9.93908763e-01 9.84116733e-01 9.67793882e-01 9.50939000e-01 9.23466980e-01 8.80746305e-01 8.46764922e-01 8.56512964e-01 9.51266646e-01 9.90925014e-01 9.95555639e-01 9.96087611e-01 6.57721907e-02 2.99520267e-04 3.12451564e-04 3.25337611e-03 7.75620192e-02 1.98470801e-02 2.64049042e-03 8.14639847e-04 6.95810071e-04 5.14039304e-04 8.81842920e-04 2.32196599e-03 9.17562004e-03 7.07072988e-02 6.13401592e-01 9.69451368e-01 9.94872451e-01 9.97098923e-01 9.96544480e-01 9.94161427e-01 9.88481104e-01 9.78905559e-01 9.53159332e-01 9.15750206e-01 9.28005159e-01 9.45667446e-01 9.54573095e-01 9.71541464e-01 9.92141008e-01 9.97057557e-01 9.93668616e-01 2.66391929e-04 2.89573567e-04 2.97385821e-04 2.46124668e-03 3.79806310e-02 5.23923384e-03 6.73900999e-04 3.79466801e-04 3.86046420e-04 3.61847953e-04 3.67950823e-04 4.72131505e-04 7.86861870e-04 1.83371629e-03 8.21326301e-03 1.22349702e-01 8.36298168e-01 9.81004179e-01 9.90095079e-01 9.90429401e-01 9.86430466e-01 9.79054451e-01 9.54224646e-01 9.74411845e-01 9.86106932e-01 9.88157094e-01 9.89297271e-01 9.90472198e-01 9.92261469e-01 9.96584773e-01 1.83656462e-03 2.80949025e-04 2.86003604e-04 2.88501615e-04 1.91827875e-03 1.67810097e-02 1.98896765e-03 3.53530748e-04 3.16748949e-04 3.22886859e-04 3.64273990e-04 3.66519875e-04 4.01555910e-04 4.92152234e-04 6.87879627e-04 1.19718816e-03 3.39120138e-03 2.21062843e-02 2.40068778e-01 7.89264560e-01 9.40022051e-01 9.72451270e-01 9.76998866e-01 9.63146687e-01 9.87887084e-01 9.90175366e-01 9.92199779e-01 9.94152129e-01 9.95368421e-01 9.94502664e-01 7.26452410e-01 2.95784790e-04 2.84461799e-04 2.85225542e-04 2.84761249e-04 1.69401185e-03 9.71717481e-03 1.08713156e-03 2.84328358e-04 3.40644416e-04 3.26030713e-04 3.31494521e-04 3.78602243e-04 4.42857447e-04 5.64427406e-04 7.20629818e-04 9.04363056e-04 1.31551467e-03 2.84029800e-03 9.59423371e-03 4.90941517e-02 3.30023944e-01 8.59347939e-01 9.67289865e-01 9.55441654e-01 9.88065720e-01 9.91754174e-01 9.94154990e-01 9.96105075e-01 9.97284710e-01 9.97279167e-01 9.88207936e-01 5.79534157e-04 2.71186000e-04 2.49600882e-04 2.59738008e-04 2.06919876e-03 1.24609852e-02 7.90448976e-04 3.07983195e-04 3.79801233e-04 3.75950010e-04 3.06956499e-04 3.57020734e-04 4.46889462e-04 6.61761034e-04 9.75904812e-04 1.19225006e-03 1.31510373e-03 1.77115656e-03 3.34616657e-03 8.27800948e-03 3.07882857e-02 2.56835729e-01 8.76183927e-01 9.51913595e-01 9.69360828e-01 9.91652071e-01 9.93665278e-01 9.95974302e-01 9.97433126e-01 9.98092175e-01 9.97912169e-01 9.97460604e-01 9.97286797e-01 9.97100830e-01 9.54108357e-01 4.34048614e-03 6.96464926e-02 7.51860498e-04 3.55503202e-04 4.26534709e-04 3.99343320e-04 3.16430436e-04 3.34278884e-04 4.06276435e-04 6.44094718e-04 1.16499909e-03 1.66716147e-03 1.73152995e-03 1.79623510e-03 2.42714467e-03 4.28698258e-03 9.19876620e-03 3.06940004e-02 2.73306549e-01 8.78416777e-01 9.31236267e-01 9.71893787e-01 9.91132855e-01 9.93778050e-01 9.96229768e-01 9.97730315e-01 9.98556197e-01 9.98972178e-01 9.99071062e-01 9.98901010e-01 9.98407304e-01 1.71596073e-02 7.01781869e-01 1.04759366e-03 4.06268373e-04 5.25233976e-04 4.60420648e-04 4.03649028e-04 3.28390481e-04 3.46730958e-04 5.06567245e-04 1.04176602e-03 1.84079376e-03 2.06841761e-03 1.93552359e-03 2.09171441e-03 2.91686621e-03 5.21623529e-03 1.11382231e-02 3.23099941e-02 2.16316462e-01 8.01161170e-01 9.11769032e-01 9.14069593e-01 9.83697414e-01 9.90989566e-01 9.94523525e-01 9.96891975e-01 9.98146653e-01 9.98482347e-01 9.97906744e-01 9.97256458e-01 8.47897902e-02 9.69537973e-01 1.64639333e-03 4.92806081e-04 7.40132120e-04 5.75834652e-04 5.47003758e-04 4.78306552e-04 3.51480849e-04 3.70131427e-04 7.47570070e-04 1.55552046e-03 1.96661544e-03 1.86885975e-03 1.80995825e-03 2.00332399e-03 2.97686923e-03 7.45120319e-03 1.90861709e-02 3.25478353e-02 8.06644037e-02 3.48984241e-01 7.43934810e-01 8.10012221e-01 7.24224508e-01 6.25032544e-01 3.01679522e-01 3.24812606e-02 4.60551004e-04 4.49039129e-04 2.01894548e-02 1.99069828e-01 9.85607803e-01 1.56375428e-03 6.56758377e-04 1.20929861e-03 7.39110808e-04 6.09470648e-04 5.90473122e-04 5.95482590e-04 3.27883346e-04 5.36061998e-04 1.24035461e-03 1.68444263e-03 1.67888775e-03 1.59641064e-03 1.45217218e-03 1.53717585e-03 3.82081210e-03 2.54167598e-02 5.06008528e-02 2.01625116e-02 1.06995692e-02 1.40679115e-02 2.68110130e-02 3.46593000e-02 1.63141191e-02 1.91235566e-03 3.16733669e-04 1.45707658e-04 2.35688902e-04 6.02838816e-04 1.36243343e-01 9.68899369e-01 9.44886066e-04 9.67213942e-04 2.13173497e-03 7.87077588e-04 5.31451718e-04 4.85458731e-04 6.80425495e-04 4.34364774e-04 4.05114668e-04 1.14969257e-03 1.61776086e-03 1.57515169e-03 1.50288618e-03 1.14689232e-03 8.55727645e-04 1.49429694e-03 1.70738213e-02 1.34111211e-01 2.81464495e-02 2.91488133e-03 1.24122051e-03 9.00764135e-04 6.59419806e-04 4.25334962e-04 2.68909906e-04 1.99920192e-04 1.22108235e-04 1.40670250e-04 4.54631576e-04 3.61755602e-02 7.92332709e-01 7.06435996e-04 1.31007982e-03 2.97652720e-03 5.61582099e-04 2.64687376e-04 2.96795537e-04 5.15869353e-04 5.90646057e-04 3.49692913e-04 1.08456798e-03 1.84457318e-03 1.57062523e-03 1.51285040e-03 1.00191485e-03 5.54325758e-04 6.59167126e-04 6.27384335e-03 1.65132120e-01 6.62560537e-02 3.38915433e-03 1.02242548e-03 6.64996274e-04 4.56709240e-04 3.65783199e-04 2.56293133e-04 1.66104044e-04 1.17566473e-04 1.18714932e-04 5.21559501e-04 1.20881936e-02 3.73470783e-01 7.77868554e-04 9.72648209e-04 4.03975043e-03 4.93269064e-04 1.61327465e-04 1.89965431e-04 4.62740514e-04 1.18369958e-03 3.67897825e-04 9.55281605e-04 1.59407128e-03 1.24002877e-03 1.28624914e-03 9.45079839e-04 4.51673870e-04 4.37470531e-04 2.68902350e-03 6.03976510e-02 2.90234778e-02 2.07234942e-03 6.91803638e-04 5.34302613e-04 3.76200856e-04 2.95046222e-04 1.98083100e-04 1.22456739e-04 1.13300892e-04 1.17805081e-04 5.27072058e-04 4.83404426e-03 1.65129244e-01 2.58571166e-03 4.56654554e-04 3.17773549e-03 5.32464534e-02 1.44469057e-04 1.24690734e-04 2.12021710e-04 1.43248576e-03 5.12630679e-04 1.60743250e-03 2.68924655e-03 9.02766711e-04 9.90792643e-04 1.03684713e-03 4.59543575e-04 3.20819614e-04 1.11875799e-03 3.03417980e-03 3.05332546e-03 1.09735236e-03 5.26715594e-04 4.91836574e-04 4.74669592e-04 3.88333370e-04 2.59780965e-04 1.17111609e-04 1.07915665e-04 1.19558339e-04 6.01525302e-04 9.26593225e-03 1.61729325e-02 1.17602637e-02 1.63007795e-03 5.53598220e-04 1.28547195e-04 2.56577914e-04 1.95608736e-04 1.10743415e-04 2.42788135e-03 3.38062644e-04 3.59958591e-04 2.13828660e-03 6.12413569e-04 6.22993452e-04 1.89457915e-03 9.88828205e-03 2.04098853e-03 5.92616736e-04 6.65189407e-04 2.78021395e-03 5.81541145e-03 7.69230246e-04 4.13167902e-04 3.97325843e-04 4.05069237e-04 3.16251186e-04 1.95292378e-04 1.10032241e-04 1.22198529e-04 5.31217724e-04 9.65867877e-01 1.24656931e-01 1.56728353e-03 2.64502019e-02 3.35802062e-04 1.05370214e-04 1.95954490e-04 3.87618542e-02 5.13459672e-04 1.08232365e-04 2.65130424e-03 3.06675909e-04 1.72387785e-03 8.45476461e-04 5.54289785e-04 6.26816822e-04 7.92975537e-04 6.05893380e-04 7.74362532e-04 9.94504869e-01 7.80387163e-01 1.34721899e-03 5.63000620e-04 7.79483293e-04 1.33959868e-03 1.08373188e-03 2.97252089e-04 3.24818859e-04 1.07663589e-04 1.16986004e-04 4.51836386e-04 1.08601056e-01 8.63456428e-01 9.91417766e-01 8.99894714e-01 7.05307126e-01 1.04912106e-04 1.01274250e-04 1.20036348e-04 1.50870681e-01 2.55067222e-04 1.20073120e-04 1.99951720e-03 3.85041177e-01 5.29528260e-01 1.52505964e-01 2.83939242e-02 9.05221235e-03 1.05993524e-02 2.64611412e-02 6.66773273e-03 1.45424332e-03 1.41180004e-03 1.04437594e-03 1.14681723e-03 6.00115350e-03 2.50829421e-02 9.20816418e-03 1.76960137e-04 1.06134932e-04 1.07001659e-04 2.85390037e-04 
