# vtk DataFile Version 2.0
results/iter4.vtk, Created by Freefem++ 
ASCII
DATASET UNSTRUCTURED_GRID
POINTS 961 float
0 0 0
0.033333333 0 0
0.066666667 0 0
0.1 0 0
0.13333333 0 0
0.16666667 0 0
0.2 0 0
0.23333333 0 0
0.26666667 0 0
0.3 0 0
0.33333333 0 0
0.36666667 0 0
0.4 0 0
0.43333333 0 0
0.46666667 0 0
0.5 0 0
0.53333333 0 0
0.56666667 0 0
0.6 0 0
0.63333333 0 0
0.66666667 0 0
0.7 0 0
0.73333333 0 0
0.76666667 0 0
0.8 0 0
0.83333333 0 0
0.86666667 0 0
0.9 0 0
0.93333333 0 0
0.96666667 0 0
1 0 0
0 0.033333333 0
0.033333333 0.033333333 0
0.066666667 0.033333333 0
0.1 0.033333333 0
0.13333333 0.033333333 0
0.16666667 0.033333333 0
0.2 0.033333333 0
0.23333333 0.033333333 0
0.26666667 0.033333333 0
0.3 0.033333333 0
0.33333333 0.033333333 0
0.36666667 0.033333333 0
0.4 0.033333333 0
0.43333333 0.033333333 0
0.46666667 0.033333333 0
0.5 0.033333333 0
0.53333333 0.033333333 0
0.56666667 0.033333333 0
0.6 0.033333333 0
0.63333333 0.033333333 0
0.66666667 0.033333333 0
0.7 0.033333333 0
0.73333333 0.033333333 0
0.76666667 0.033333333 0
0.8 0.033333333 0
0.83333333 0.033333333 0
0.86666667 0.033333333 0
0.9 0.033333333 0
0.93333333 0.033333333 0
0.96666667 0.033333333 0
1 0.033333333 0
0 0.066666667 0
0.033333333 0.066666667 0
0.066666667 0.066666667 0
0.1 0.066666667 0
0.13333333 0.066666667 0
0.16666667 0.066666667 0
0.2 0.066666667 0
0.23333333 0.066666667 0
0.26666667 0.066666667 0
0.3 0.066666667 0
0.33333333 0.066666667 0
0.36666667 0.066666667 0
0.4 0.066666667 0
0.43333333 0.066666667 0
0.46666667 0.066666667 0
0.5 0.066666667 0
0.53333333 0.066666667 0
0.56666667 0.066666667 0
0.6 0.066666667 0
0.63333333 0.066666667 0
0.66666667 0.066666667 0
0.7 0.066666667 0
0.73333333 0.066666667 0
0.76666667 0.066666667 0
0.8 0.066666667 0
0.83333333 0.066666667 0
0.86666667 0.066666667 0
0.9 0.066666667 0
0.93333333 0.066666667 0
0.96666667 0.066666667 0
1 0.066666667 0
0 0.1 0
0.033333333 0.1 0
0.066666667 0.1 0
0.1 0.1 0
0.13333333 0.1 0
0.16666667 0.1 0
0.2 0.1 0
0.23333333 0.1 0
0.26666667 0.1 0
0.3 0.1 0
0.33333333 0.1 0
0.36666667 0.1 0
0.4 0.1 0
0.43333333 0.1 0
0.46666667 0.1 0
0.5 0.1 0
0.53333333 0.1 0
0.56666667 0.1 0
0.6 0.1 0
0.63333333 0.1 0
0.66666667 0.1 0
0.7 0.1 0
0.73333333 0.1 0
0.76666667 0.1 0
0.8 0.1 0
0.83333333 0.1 0
0.86666667 0.1 0
0.9 0.1 0
0.93333333 0.1 0
0.96666667 0.1 0
1 0.1 0
0 0.13333333 0
0.033333333 0.13333333 0
0.066666667 0.13333333 0
0.1 0.13333333 0
0.13333333 0.13333333 0
0.16666667 0.13333333 0
0.2 0.13333333 0
0.23333333 0.13333333 0
0.26666667 0.13333333 0
0.3 0.13333333 0
0.33333333 0.13333333 0
0.36666667 0.13333333 0
0.4 0.13333333 0
0.43333333 0.13333333 0
0.46666667 0.13333333 0
0.5 0.13333333 0
0.53333333 0.13333333 0
0.56666667 0.13333333 0
0.6 0.13333333 0
0.63333333 0.13333333 0
0.66666667 0.13333333 0
0.7 0.13333333 0
0.73333333 0.13333333 0
0.76666667 0.13333333 0
0.8 0.13333333 0
0.83333333 0.13333333 0
0.86666667 0.13333333 0
0.9 0.13333333 0
0.93333333 0.13333333 0
0.96666667 0.13333333 0
1 0.13333333 0
0 0.16666667 0
0.033333333 0.16666667 0
0.066666667 0.16666667 0
0.1 0.16666667 0
0.13333333 0.16666667 0
0.16666667 0.16666667 0
0.2 0.16666667 0
0.23333333 0.16666667 0
0.26666667 0.16666667 0
0.3 0.16666667 0
0.33333333 0.16666667 0
0.36666667 0.16666667 0
0.4 0.16666667 0
0.43333333 0.16666667 0
0.46666667 0.16666667 0
0.5 0.16666667 0
0.53333333 0.16666667 0
0.56666667 0.16666667 0
0.6 0.16666667 0
0.63333333 0.16666667 0
0.66666667 0.16666667 0
0.7 0.16666667 0
0.73333333 0.16666667 0
0.76666667 0.16666667 0
0.8 0.16666667 0
0.83333333 0.16666667 0
0.86666667 0.16666667 0
0.9 0.16666667 0
0.93333333 0.16666667 0
0.96666667 0.16666667 0
1 0.16666667 0
0 0.2 0
0.033333333 0.2 0
0.066666667 0.2 0
0.1 0.2 0
0.13333333 0.2 0
0.16666667 0.2 0
0.2 0.2 0
0.23333333 0.2 0
0.26666667 0.2 0
0.3 0.2 0
0.33333333 0.2 0
0.36666667 0.2 0
0.4 0.2 0
0.43333333 0.2 0
0.46666667 0.2 0
0.5 0.2 0
0.53333333 0.2 0
0.56666667 0.2 0
0.6 0.2 0
0.63333333 0.2 0
0.66666667 0.2 0
0.7 0.2 0
0.73333333 0.2 0
0.76666667 0.2 0
0.8 0.2 0
0.83333333 0.2 0
0.86666667 0.2 0
0.9 0.2 0
0.93333333 0.2 0
0.96666667 0.2 0
1 0.2 0
0 0.23333333 0
0.033333333 0.23333333 0
0.066666667 0.23333333 0
0.1 0.23333333 0
0.13333333 0.23333333 0
0.16666667 0.23333333 0
0.2 0.23333333 0
0.23333333 0.23333333 0
0.26666667 0.23333333 0
0.3 0.23333333 0
0.33333333 0.23333333 0
0.36666667 0.23333333 0
0.4 0.23333333 0
0.43333333 0.23333333 0
0.46666667 0.23333333 0
0.5 0.23333333 0
0.53333333 0.23333333 0
0.56666667 0.23333333 0
0.6 0.23333333 0
0.63333333 0.23333333 0
0.66666667 0.23333333 0
0.7 0.23333333 0
0.73333333 0.23333333 0
0.76666667 0.23333333 0
0.8 0.23333333 0
0.83333333 0.23333333 0
0.86666667 0.23333333 0
0.9 0.23333333 0
0.93333333 0.23333333 0
0.96666667 0.23333333 0
1 0.23333333 0
0 0.26666667 0
0.033333333 0.26666667 0
0.066666667 0.26666667 0
0.1 0.26666667 0
0.13333333 0.26666667 0
0.16666667 0.26666667 0
0.2 0.26666667 0
0.23333333 0.26666667 0
0.26666667 0.26666667 0
0.3 0.26666667 0
0.33333333 0.26666667 0
0.36666667 0.26666667 0
0.4 0.26666667 0
0.43333333 0.26666667 0
0.46666667 0.26666667 0
0.5 0.26666667 0
0.53333333 0.26666667 0
0.56666667 0.26666667 0
0.6 0.26666667 0
0.63333333 0.26666667 0
0.66666667 0.26666667 0
0.7 0.26666667 0
0.73333333 0.26666667 0
0.76666667 0.26666667 0
0.8 0.26666667 0
0.83333333 0.26666667 0
0.86666667 0.26666667 0
0.9 0.26666667 0
0.93333333 0.26666667 0
0.96666667 0.26666667 0
1 0.26666667 0
0 0.3 0
0.033333333 0.3 0
0.066666667 0.3 0
0.1 0.3 0
0.13333333 0.3 0
0.16666667 0.3 0
0.2 0.3 0
0.23333333 0.3 0
0.26666667 0.3 0
0.3 0.3 0
0.33333333 0.3 0
0.36666667 0.3 0
0.4 0.3 0
0.43333333 0.3 0
0.46666667 0.3 0
0.5 0.3 0
0.53333333 0.3 0
0.56666667 0.3 0
0.6 0.3 0
0.63333333 0.3 0
0.66666667 0.3 0
0.7 0.3 0
0.73333333 0.3 0
0.76666667 0.3 0
0.8 0.3 0
0.83333333 0.3 0
0.86666667 0.3 0
0.9 0.3 0
0.93333333 0.3 0
0.96666667 0.3 0
1 0.3 0
0 0.33333333 0
0.033333333 0.33333333 0
0.066666667 0.33333333 0
0.1 0.33333333 0
0.13333333 0.33333333 0
0.16666667 0.33333333 0
0.2 0.33333333 0
0.23333333 0.33333333 0
0.26666667 0.33333333 0
0.3 0.33333333 0
0.33333333 0.33333333 0
0.36666667 0.33333333 0
0.4 0.33333333 0
0.43333333 0.33333333 0
0.46666667 0.33333333 0
0.5 0.33333333 0
0.53333333 0.33333333 0
0.56666667 0.33333333 0
0.6 0.33333333 0
0.63333333 0.33333333 0
0.66666667 0.33333333 0
0.7 0.33333333 0
0.73333333 0.33333333 0
0.76666667 0.33333333 0
0.8 0.33333333 0
0.83333333 0.33333333 0
0.86666667 0.33333333 0
0.9 0.33333333 0
0.93333333 0.33333333 0
0.96666667 0.33333333 0
1 0.33333333 0
0 0.36666667 0
0.033333333 0.36666667 0
0.066666667 0.36666667 0
0.1 0.36666667 0
0.13333333 0.36666667 0
0.16666667 0.36666667 0
0.2 0.36666667 0
0.23333333 0.36666667 0
0.26666667 0.36666667 0
0.3 0.36666667 0
0.33333333 0.36666667 0
0.36666667 0.36666667 0
0.4 0.36666667 0
0.43333333 0.36666667 0
0.46666667 0.36666667 0
0.5 0.36666667 0
0.53333333 0.36666667 0
0.56666667 0.36666667 0
0.6 0.36666667 0
0.63333333 0.36666667 0
0.66666667 0.36666667 0
0.7 0.36666667 0
0.73333333 0.36666667 0
0.76666667 0.36666667 0
0.8 0.36666667 0
0.83333333 0.36666667 0
0.86666667 0.36666667 0
0.9 0.36666667 0
0.93333333 0.36666667 0
0.96666667 0.36666667 0
1 0.36666667 0
0 0.4 0
0.033333333 0.4 0
0.066666667 0.4 0
0.1 0.4 0
0.13333333 0.4 0
0.16666667 0.4 0
0.2 0.4 0
0.23333333 0.4 0
0.26666667 0.4 0
0.3 0.4 0
0.33333333 0.4 0
0.36666667 0.4 0
0.4 0.4 0
0.43333333 0.4 0
0.46666667 0.4 0
0.5 0.4 0
0.53333333 0.4 0
0.56666667 0.4 0
0.6 0.4 0
0.63333333 0.4 0
0.66666667 0.4 0
0.7 0.4 0
0.73333333 0.4 0
0.76666667 0.4 0
0.8 0.4 0
0.83333333 0.4 0
0.86666667 0.4 0
0.9 0.4 0
0.93333333 0.4 0
0.96666667 0.4 0
1 0.4 0
0 0.43333333 0
0.033333333 0.43333333 0
0.066666667 0.43333333 0
0.1 0.43333333 0
0.13333333 0.43333333 0
0.16666667 0.43333333 0
0.2 0.43333333 0
0.23333333 0.43333333 0
0.26666667 0.43333333 0
0.3 0.43333333 0
0.33333333 0.43333333 0
0.36666667 0.43333333 0
0.4 0.43333333 0
0.43333333 0.43333333 0
0.46666667 0.43333333 0
0.5 0.43333333 0
0.53333333 0.43333333 0
0.56666667 0.43333333 0
0.6 0.43333333 0
0.63333333 0.43333333 0
0.66666667 0.43333333 0
0.7 0.43333333 0
0.73333333 0.43333333 0
0.76666667 0.43333333 0
0.8 0.43333333 0
0.83333333 0.43333333 0
0.86666667 0.43333333 0
0.9 0.43333333 0
0.93333333 0.43333333 0
0.96666667 0.43333333 0
1 0.43333333 0
0 0.46666667 0
0.033333333 0.46666667 0
0.066666667 0.46666667 0
0.1 0.46666667 0
0.13333333 0.46666667 0
0.16666667 0.46666667 0
0.2 0.46666667 0
0.23333333 0.46666667 0
0.26666667 0.46666667 0
0.3 0.46666667 0
0.33333333 0.46666667 0
0.36666667 0.46666667 0
0.4 0.46666667 0
0.43333333 0.46666667 0
0.46666667 0.46666667 0
0.5 0.46666667 0
0.53333333 0.46666667 0
0.56666667 0.46666667 0
0.6 0.46666667 0
0.63333333 0.46666667 0
0.66666667 0.46666667 0
0.7 0.46666667 0
0.73333333 0.46666667 0
0.76666667 0.46666667 0
0.8 0.46666667 0
0.83333333 0.46666667 0
0.86666667 0.46666667 0
0.9 0.46666667 0
0.93333333 0.46666667 0
0.96666667 0.46666667 0
1 0.46666667 0
0 0.5 0
0.033333333 0.5 0
0.066666667 0.5 0
0.1 0.5 0
0.13333333 0.5 0
0.16666667 0.5 0
0.2 0.5 0
0.23333333 0.5 0
0.26666667 0.5 0
0.3 0.5 0
0.33333333 0.5 0
0.36666667 0.5 0
0.4 0.5 0
0.43333333 0.5 0
0.46666667 0.5 0
0.5 0.5 0
0.53333333 0.5 0
0.56666667 0.5 0
0.6 0.5 0
0.63333333 0.5 0
0.66666667 0.5 0
0.7 0.5 0
0.73333333 0.5 0
0.76666667 0.5 0
0.8 0.5 0
0.83333333 0.5 0
0.86666667 0.5 0
0.9 0.5 0
0.93333333 0.5 0
0.96666667 0.5 0
1 0.5 0
0 0.53333333 0
0.033333333 0.53333333 0
0.066666667 0.53333333 0
0.1 0.53333333 0
0.13333333 0.53333333 0
0.16666667 0.53333333 0
0.2 0.53333333 0
0.23333333 0.53333333 0
0.26666667 0.53333333 0
0.3 0.53333333 0
0.33333333 0.53333333 0
0.36666667 0.53333333 0
0.4 0.53333333 0
0.43333333 0.53333333 0
0.46666667 0.53333333 0
0.5 0.53333333 0
0.53333333 0.53333333 0
0.56666667 0.53333333 0
0.6 0.53333333 0
0.63333333 0.53333333 0
0.66666667 0.53333333 0
0.7 0.53333333 0
0.73333333 0.53333333 0
0.76666667 0.53333333 0
0.8 0.53333333 0
[...]
CELL_DATA 1920
Scalars  Label int 1
LOOKUP_TABLE FreeFempp_table
0
0
0
0
0
0
0
0
0
0
0
0
0
0
0
0
0
0
0
0
0
0
0
0
0
0
0
0
0
0
0
0
0
0
0
0
0
0
0
0
0
0
0
0
0
0
0
0
0
0
0
0
0
0
0
0
0
0
0
0
0
0
0
0
0
0
0
0
0
0
0
0
0
0
0
0
0
0
0
0
0
0
0
0
0
0
0
0
0
0
0
0
0
0
0
0
0
0
0
0
0
0
0
0
0
0
0
0
0
0
0
0
0
0
0
0
0
0
0
0
0
0
0
0
0
0
0
0
0
0
0
0
0
0
0
0
0
0
0
0
0
0
0
0
0
0
0
0
0
0
0
0
0
0
0
0
0
0
0
0
0
0
0
0
0
0
0
0
0
0
0
0
0
0
0
0
0
0
0
0
0
0
0
0
0
0
0
0
0
0
0
0
0
0
0
0
0
0
0
0
0
0
0
0
0
0
0
0
0
0
0
0
0
0
0
0
0
0
0
0
0
0
0
0
0
0
0
0
0
0
0
0
0
0
0
0
0
0
0
0
0
0
0
0
0
0
0
0
0
0
0
0
0
0
0
0
0
0
0
0
0
0
0
0
0
0
0
0
0
0
0
0
0
0
0
0
0
0
0
0
0
0
0
0
0
0
0
0
0
0
0
0
0
0
0
0
0
0
0
0
0
0
0
0
0
0
0
0
0
0
0
0
0
0
0
0
0
0
0
0
0
0
0
0
0
0
0
0
0
0
0
0
0
0
0
0
0
0
0
0
0
0
0
0
0
0
0
0
0
0
0
0
0
0
0
0
0
0
0
0
0
0
0
0
0
0
0
0
0
0
0
0
0
0
0
0
0
0
0
0
0
0
0
0
0
0
0
0
0
0
0
0
0
0
0
0
0
0
0
0
0
0
0
0
0
0
0
0
0
0
0
0
0
0
0
0
0
0
0
0
0
0
0
0
0
0
0
0
0
0
0
0
0
0
0
0
0
0
0
0
0
0
0
0
0
0
0
0
0
0
0
0
0
0
0
0
0
0
0
0
0
0
0
0
0
0
0
0
0
0
0
0
0
0
0
0
0
0
0
0
0
0
0
0
0
0
0
0
0
0
0
0
0
0
0
0
0
0
0
0
0
0
0
0
0
0
0
0
0
0
0
0
0
0
0
0
0
0
0
0
0
0
0
0
0
0
0
0
0
0
0
0
0
0
0
0
0
0
0
0
0
0
0
0
0
0
0
0
0
0
0
0
0
0
0
0
0
0
0
0
0
0
0
0
0
0
0
0
0
0
0
0
0
0
0
0
0
0
0
0
0
0
0
0
0
0
0
0
0
0
0
0
0
0
0
0
0
0
0
0
0
0
0
0
0
0
0
0
0
0
0
0
0
0
0
0
0
0
0
0
0
0
0
0
0
0
0
0
0
0
0
0
0
0
0
0
0
0
0
0
0
0
0
0
0
0
0
0
0
0
0
0
0
0
0
0
0
0
0
0
0
0
0
0
0
0
0
0
0
0
0
0
0
0
0
0
0
0
0
0
0
0
0
0
0
0
0
0
0
0
0
0
0
0
0
0
0
0
0
0
0
0
0
0
0
0
0
0
0
0
0
0
0
0
0
0
0
0
0
0
0
0
0
0
0
0
0
0
0
0
0
0
0
0
0
0
0
0
0
0
0
0
0
0
0
0
0
0
0
0
0
0
0
0
0
0
0
0
0
0
0
0
0
0
0
0
0
0
0
0
0
0
0
0
0
0
0
0
0
0
0
0
0
0
0
0
0
0
0
0
0
0
0
0
0
0
0
0
0
0
0
0
0
0
0
0
0
0
0
0
0
0
0
0
0
0
0
0
0
0
0
0
0
0
0
0
0
0
0
0
0
0
0
0
0
0
0
0
0
0
0
0
0
0
0
0
0
0
0
0
0
0
0
0
0
0
0
0
0
0
0
0
0
0
0
0
0
0
0
0
0
0
0
0
0
0
0
0
0
0
0
0
0
0
0
0
0
0
0
0
0
0
0
0
0
0
0
0
0
0
0
0
0
0
0
0
0
0
0
0
0
0
0
0
0
0
0
0
0
0
0
0
0
0
0
0
0
0
0
0
0
0
0
0
0
0
0
0
0
0
0
0
0
0
0
0
0
0
0
0
0
0
0
0
0
0
0
0
0
0
0
0
0
0
0
0
0
0
0
0
0
0
0
0
0
0
0
0
0
0
0
0
0
0
0
0
0
0
0
0
0
0
0
0
0
0
0
0
0
0
0
0
0
0
0
0
0
0
0
0
0
0
0
0
0
0
0
0
0
0
0
0
0
0
0
0
0
0
0
0
0
0
0
0
0
0
0
0
0
0
0
0
0
0
0
0
0
0
0
0
0
0
0
0
0
0
0
0
0
0
0
0
0
0
0
0
0
0
0
0
0
0
0
0
0
0
0
0
0
0
0
0
0
0
0
0
0
0
0
0
0
0
0
0
0
0
0
0
0
0
0
0
0
0
0
0
0
0
0
0
0
0
0
0
0
0
0
0
0
0
0
0
0
0
0
0
0
0
0
0
0
0
0
0
0
0
0
0
0
0
0
0
0
0
0
0
0
0
0
0
0
0
0
0
0
0
0
0
0
0
0
0
0
0
0
0
0
0
0
0
0
0
0
0
0
0
0
0
0
0
0
0
0
0
0
0
0
0
0
0
0
0
0
0
0
0
0
0
0
0
0
0
0
0
0
0
0
0
0
0
0
0
0
0
0
0
0
0
0
0
0
0
0
0
0
0
0
0
0
0
0
0
0
0
0
0
0
0
0
0
0
0
0
0
0
0
0
0
0
0
0
0
0
0
0
0
0
0
0
0
0
0
0
0
0
0
0
0
0
0
0
0
0
0
0
0
0
0
0
0
0
0
0
0
0
0
0
0
0
0
0
0
0
0
0
0
0
0
0
0
0
0
0
0
0
0
0
0
0
0
0
0
0
0
0
0
0
0
0
0
0
0
0
0
0
0
0
0
0
0
0
0
0
0
0
0
0
0
0
0
0
0
0
0
0
0
0
0
0
0
0
0
0
0
0
0
0
0
0
0
0
0
0
0
0
0
0
0
0
0
0
0
0
0
0
0
0
0
0
0
0
0
0
0
0
0
0
0
0
0
0
0
0
0
0
0
0
0
0
0
0
0
0
0
0
0
0
0
0
0
0
0
0
0
0
0
0
0
0
0
0
0
0
0
0
0
0
0
0
0
0
0
0
0
0
0
0
0
0
0
0
0
0
0
0
0
0
0
0
0
0
0
0
0
0
0
0
0
0
0
0
0
0
0
0
0
0
0
0
0
0
0
0
0
0
0
0
0
0
0
0
0
0
0
0
0
0
0
0
0
0
0
0
0
0
0
0
0
0
0
0
0
0
0
0
0
0
0
0
0
0
0
0
0
0
0
0
0
0
0
0
0
0
0
0
0
0
0
0
0
0
0
0
0
0
0
0
0
0
0
0
0
0
0
0
0
0
0
0
0
0
0
0
0
0
0
0
0
0
0
0
0
0
0
0
0
0
0
0
0
0
0
0
0
0
0
0
0
0
0
0
0
0
0
0
0
0
0
0
0
0
0
0
0
0
0
0
0
0
0
0
0
0
0
0
0
0
0
0
0
0
0
0
0
0
0
0
0
0
0
0
0
0
0
0
0
0
0
0
0
0
0
0
0
0
0
0
0
0
0
0
0
0
0
0
0
0
0
0
0
0
0
0
0
0
0
0
0
0
0
0
0
0
0
0
0
0
0
0
0
0
0
0
0
0
0
0
0
0
0
0
0
0
0
0
0
0
0
0
0
0
0
0
0
0
0
0
0
0
0
0
0
0
0
0
0
0
0
0
0
0
0
0
0
0
0
0
0
0
0
0
0
0
0
0
0
0
0
0
0
0
0
0
0
0
0
0
0
0
0
0
0
0
0
0
0
0
0
0
0
0
0
0
0
0
0
0
0
0
0
0
0
0
0
0
0
0
0
0
0
0
0
0
0
0
0
0
0
0
0
0
0
0
0
0
0
0
0
0
0
0
0
0
0
0
0
0
0
0
0
1
1
1
1
1
1
1
1
1
1
1
1
1
1
1
1
1
1
1
1
1
1
1
1
1
1
1
1
1
1
2
2
2
2
2
2
2
2
2
2
2
2
2
2
2
2
2
2
2
2
2
2
2
2
2
2
2
2
2
2
3
3
3
3
3
3
3
3
3
3
3
3
3
3
3
3
3
3
3
3
3
3
3
3
3
3
3
3
3
3
4
4
4
4
4
4
4
4
4
4
4
4
4
4
4
4
4
4
4
4
4
4
4
4
4
4
4
4
4
4

LOOKUP_TABLE FreeFempp_table 5
1.00000000 0.00000000 0.00000000 1.00000000
1.00000000 1.00000000 0.00000000 1.00000000
1.00000000 0.00000000 1.00000000 1.00000000
0.00000000 1.00000000 0.00000000 1.00000000
0.00000000 1.00000000 1.00000000 1.00000000

POINT_DATA 961
FIELD FieldData 1
Density 1 961 float
5.86594595e-03 5.44183841e-03 6.94944896e-03 7.17250817e-03 7.18061393e-03 7.22409599e-03 7.42516108e-03 7.91693293e-03 9.15408134e-03 1.31184114e-02 3.67055312e-02 9.32386965e-02 1.47592485e-01 1.49252951e-01 1.37334481e-01 1.17663607e-01 8.95251408e-02 6.12145774e-02 4.55517843e-02 4.54799198e-02 4.06867191e-02 3.92479114e-02 5.15431724e-02 9.25445631e-02 2.68298835e-01 7.64992237e-01 9.55504239e-01 9.76811111e-01 3.33100383e-04 5.19693131e-04 3.28664362e-01 1.60495506e-03 1.24850555e-03 1.48779666e-03 1.59989938e-03 1.65144808e-03 1.69735204e-03 1.77302340e-03 1.88184192e-03 2.01177574e-03 2.17667618e-03 2.54007103e-03 3.39468452e-03 5.48282545e-03 1.01862149e-02 1.38323391e-02 1.37220230e-02 1.20263677e-02 1.04933307e-02 8.59868713e-03 8.27636011e-03 9.56292916e-03 1.21693444e-02 1.68786142e-02 2.54447497e-02 3.25134136e-02 3.49851072e-01 9.56608534e-01 9.92233574e-01 3.60041595e-04 1.94384469e-04 1.54526969e-02 9.79142380e-04 6.26124616e-04 6.37688558e-04 6.31151896e-04 6.29043556e-04 6.24434033e-04 6.29021670e-04 6.48019544e-04 6.74378476e-04 6.96941686e-04 7.32734043e-04 8.42629874e-04 1.07418990e-03 1.47628796e-03 1.96123193e-03 2.31774943e-03 2.53451127e-03 2.76255095e-03 3.19555681e-03 3.96070769e-03 5.57707669e-03 8.84283893e-03 1.41508831e-02 2.19399501e-02 2.83121411e-02 2.89441198e-01 9.27337587e-01 9.88484979e-01 4.14687134e-02 3.07094626e-04 3.95548414e-04 8.62182467e-04 5.20342961e-04 5.08981117e-04 4.77148278e-04 4.65241523e-04 4.57533257e-04 4.52455570e-04 4.51823988e-04 4.57222632e-04 4.64714598e-04 4.65424790e-04 4.59024654e-04 4.59316099e-04 4.89722530e-04 5.75341284e-04 7.53153407e-04 9.93643305e-04 1.25375355e-03 1.66980329e-03 2.48564780e-03 4.08014189e-03 7.13919057e-03 1.25482371e-02 2.11633723e-02 3.09312791e-02 2.57484704e-01 8.81674290e-01 9.75516617e-01 6.53918684e-01 3.24661843e-04 3.04200104e-04 1.02663296e-03 6.32782641e-04 6.75450719e-04 6.57015305e-04 6.59311016e-04 6.69400033e-04 6.80054654e-04 6.82639424e-04 6.79103890e-04 6.78716926e-04 6.80655532e-04 6.61906030e-04 6.04714674e-04 5.38742926e-04 5.02127339e-04 5.07427845e-04 5.69564581e-04 7.39789393e-04 1.10183924e-03 1.82241062e-03 3.31878616e-03 6.13736268e-03 1.10110575e-02 1.93937179e-02 3.13026384e-02 3.23659480e-01 8.45271289e-01 9.53240693e-01 8.47535908e-01 3.55321041e-04 3.52522999e-04 1.63827185e-03 1.01197755e-03 1.18984282e-03 1.26216083e-03 1.37196609e-03 1.52071274e-03 1.70121971e-03 1.86639547e-03 1.97642110e-03 2.04860792e-03 2.13303789e-03 2.22871336e-03 2.24006828e-03 2.05040071e-03 1.62602856e-03 1.13879761e-03 8.47911404e-04 7.73140113e-04 9.30705457e-04 1.50352705e-03 2.93915602e-03 5.58855291e-03 9.64077655e-03 1.53433289e-02 2.36565862e-02 1.68822378e-01 8.07667434e-01 9.36626792e-01 8.29603195e-01 3.67685599e-04 3.63901810e-04 4.08718875e-03 2.14529317e-03 2.67632562e-03 3.00810277e-03 3.41962464e-03 3.96441296e-03 4.89646429e-03 6.48079067e-03 8.88020173e-03 1.17566148e-02 1.46389399e-02 1.72245726e-02 1.88530963e-02 1.85701288e-02 1.49966870e-02 9.12186224e-03 4.11576312e-03 2.29506171e-03 1.70014508e-03 1.73606933e-03 2.87841633e-03 5.61040174e-03 9.80328582e-03 1.44260032e-02 1.71343740e-02 4.47362848e-02 7.62454331e-01 9.25556183e-01 7.95214236e-01 3.74519092e-04 3.69095185e-04 2.32803710e-02 6.56655617e-03 9.36115067e-03 1.36539135e-02 2.21787542e-02 3.14402357e-02 4.23166156e-02 5.90153337e-02 7.95084760e-02 9.88800973e-02 1.15399368e-01 1.29675046e-01 1.46098271e-01 1.75357237e-01 2.34846339e-01 3.26533318e-01 3.35342467e-01 6.25777468e-02 1.44505175e-02 6.90913294e-03 5.56014804e-03 7.24698510e-03 1.21637536e-02 2.08428893e-02 2.35784650e-02 4.47163060e-02 7.29920924e-01 9.22512710e-01 8.60758543e-01 3.94988019e-04 3.80067067e-04 4.37691480e-01 5.01383469e-02 2.14984238e-01 3.66446555e-01 4.51263189e-01 5.51832199e-01 6.06109977e-01 6.25517011e-01 6.22253895e-01 6.04326725e-01 5.78836143e-01 5.52326262e-01 5.33047616e-01 5.29836774e-01 5.48621118e-01 5.88039339e-01 6.29844546e-01 6.41041219e-01 6.18760109e-01 3.19090486e-01 5.66426367e-02 2.81625763e-02 2.51843389e-02 3.13321166e-02 3.86556089e-02 2.54000396e-01 8.19415390e-01 9.24519598e-01 8.84179294e-01 4.21703327e-04 4.03189333e-04 8.89807880e-01 8.61280262e-01 8.57272863e-01 8.78512204e-01 8.71347785e-01 8.56615067e-01 8.29374194e-01 7.94544041e-01 7.65067220e-01 7.52714753e-01 7.50287533e-01 7.42302120e-01 7.22422123e-01 6.95685089e-01 6.71255827e-01 6.56893790e-01 6.58303797e-01 6.72265053e-01 6.85768366e-01 6.91845715e-01 6.88068092e-01 6.35929763e-01 2.28356987e-01 1.23035736e-01 8.28431845e-02 5.27247071e-01 8.46566975e-01 9.20726299e-01 9.02326822e-01 4.42699471e-04 4.25484934e-04 9.58036065e-01 9.76084530e-01 9.67665911e-01 9.55857933e-01 9.42796350e-01 9.29436982e-01 9.18522537e-01 9.03332591e-01 8.74079704e-01 8.31075191e-01 7.99395680e-01 7.93183506e-01 7.84149706e-01 7.56441176e-01 7.17492461e-01 6.78128183e-01 6.45270705e-01 6.23019516e-01 6.13909304e-01 6.15536928e-01 6.27419949e-01 6.47921145e-01 6.53986990e-01 6.38045311e-01 6.65643036e-01 7.29790390e-01 8.62601519e-01 9.14011061e-01 9.08977151e-01 4.57431976e-04 4.38563875e-04 9.26860392e-01 9.82214451e-01 9.74667668e-01 9.63611364e-01 9.52215791e-01 9.40662503e-01 9.29949045e-01 9.15770292e-01 8.92894745e-01 8.62000525e-01 8.41736495e-01 8.40179563e-01 8.32384467e-01 8.04475248e-01 7.61618912e-01 7.13175952e-01 6.64522827e-01 6.18069708e-01 5.78977287e-01 5.53187549e-01 5.45278430e-01 5.66273868e-01 6.26594543e-01 7.11476207e-01 7.01742887e-01 8.16228449e-01 8.73965859e-01 9.05672252e-01 9.02459443e-01 4.99985879e-04 4.56716545e-04 3.29870462e-01 4.79632676e-01 6.07705653e-01 8.70213747e-01 8.67646873e-01 8.73405457e-01 8.73283207e-01 8.66789162e-01 8.61027777e-01 8.64301026e-01 8.75407696e-01 8.83398533e-01 8.80705059e-01 8.65128696e-01 8.37818265e-01 7.94829130e-01 7.39890277e-01 6.81652129e-01 6.30792201e-01 5.96505046e-01 5.83441317e-01 5.99351466e-01 6.49087250e-01 6.84420466e-01 6.93933070e-01 8.38689208e-01 8.80124569e-01 8.97182703e-01 8.80390108e-01 6.21963991e-04 5.27027994e-04 2.22417802e-01 4.99066532e-01 3.21429223e-01 2.47297615e-01 3.06996375e-01 6.41567945e-01 7.63934195e-01 8.06824803e-01 8.34593713e-01 8.59248340e-01 8.81485283e-01 9.00308609e-01 9.12433684e-01 9.15342450e-01 9.08929706e-01 8.83341789e-01 8.32059920e-01 7.68079102e-01 7.15957344e-01 6.88090503e-01 6.77455604e-01 6.76507890e-01 6.78544581e-01 6.64292634e-01 7.23223448e-01 8.49046946e-01 8.90456557e-01 9.03618217e-01 8.46872509e-01 8.04750423e-04 6.81064150e-04 2.13639274e-01 4.84220356e-01 4.08690453e-01 2.31443495e-01 1.73278913e-01 1.32061109e-01 2.53364682e-01 4.18283850e-01 5.59429288e-01 6.73542917e-01 7.73114324e-01 8.56415451e-01 9.09416378e-01 9.33680892e-01 9.39065695e-01 9.21109617e-01 8.84976506e-01 8.29643190e-01 7.85336554e-01 7.56721973e-01 7.24232793e-01 6.89762592e-01 6.68019950e-01 6.70023143e-01 7.43894756e-01 8.53921950e-01 9.00919557e-01 9.12029505e-01 3.98846388e-01 9.01434163e-04 8.31054465e-04 1.97954774e-01 4.31338102e-01 2.75112987e-01 1.20158285e-01 7.03099966e-02 7.40327761e-02 6.70204014e-02 1.04106501e-01 1.70465320e-01 2.70392716e-01 4.18080896e-01 6.17153466e-01 8.01789045e-01 8.99336100e-01 9.25392509e-01 9.16001379e-01 8.88564348e-01 8.50277007e-01 8.14154088e-01 7.62473941e-01 7.20566452e-01 7.28660345e-01 7.45420516e-01 7.55698323e-01 7.85383105e-01 8.66762638e-01 9.24196184e-01 8.85752439e-01 2.79309992e-02 1.01719995e-03 9.09096969e-04 1.78100392e-01 3.84816170e-01 2.13760719e-01 7.00611323e-02 3.63284424e-02 4.18790877e-02 4.23628762e-02 4.66096923e-02 6.33451939e-02 9.54547375e-02 1.51780039e-01 2.55830050e-01 4.43639100e-01 6.76056743e-01 8.21953833e-01 8.60677481e-01 8.62221599e-01 8.41402590e-01 8.15731645e-01 7.65855670e-01 8.01658452e-01 8.37761819e-01 8.46775711e-01 8.53230894e-01 8.60364974e-01 8.71118188e-01 9.18078482e-01 1.58417836e-01 9.13901255e-03 1.69381814e-03 1.55987882e-03 1.59867868e-01 3.27793807e-01 1.61890879e-01 4.04576547e-02 2.24804543e-02 2.53121369e-02 3.93151790e-02 4.32164408e-02 5.10403402e-02 6.44255504e-02 8.64169374e-02 1.23615973e-01 1.93653986e-01 3.19702208e-01 4.92216915e-01 6.53437912e-01 7.46180952e-01 7.96608210e-01 8.08437049e-01 7.79218733e-01 8.47345710e-01 8.59301686e-01 8.73635709e-01 8.91591012e-01 9.05856192e-01 8.94355059e-01 5.96221924e-01 3.42315175e-02 8.00548214e-03 3.18220793e-03 6.98633026e-03 1.50828585e-01 2.88463354e-01 1.23932242e-01 2.21176278e-02 1.13485195e-02 1.56159932e-02 3.22649591e-02 4.50154133e-02 5.70326895e-02 7.28357807e-02 8.91472399e-02 1.06587917e-01 1.33747369e-01 1.84472054e-01 2.63995558e-01 3.73302281e-01 5.19319117e-01 6.80544257e-01 7.81276226e-01 7.62641609e-01 8.46063614e-01 8.67871284e-01 8.88687611e-01 9.12235737e-01 9.32682514e-01 9.34868455e-01 8.54764640e-01 8.41258168e-02 3.58816050e-02 2.90728714e-02 2.56754756e-02 1.61595255e-01 2.97421455e-01 1.01424344e-01 1.25279045e-02 5.39883086e-03 9.27171391e-03 2.42016353e-02 4.12731469e-02 5.80868199e-02 8.34832117e-02 1.09424785e-01 1.26094073e-01 1.37169257e-01 1.57877564e-01 1.96860150e-01 2.53551751e-01 3.39346856e-01 4.91824567e-01 6.84199214e-01 7.51260400e-01 7.82127678e-01 8.62858772e-01 8.79386425e-01 9.05222237e-01 9.29676354e-01 9.47498918e-01 9.50877190e-01 9.57802176e-01 9.70975697e-01 9.83566463e-01 8.25387895e-01 2.07559600e-01 4.00098830e-01 9.52038914e-02 8.12501553e-03 3.13951098e-03 5.47041511e-03 1.74188260e-02 3.39206196e-02 5.10622822e-02 8.19035396e-02 1.21166542e-01 1.48238122e-01 1.55877888e-01 1.60657644e-01 1.77632958e-01 2.10296795e-01 2.58402646e-01 3.37795496e-01 4.95033622e-01 6.81929052e-01 7.21696794e-01 7.80638337e-01 8.52523744e-01 8.72218549e-01 8.98781180e-01 9.23763037e-01 9.45209801e-01 9.63148713e-01 9.78296876e-01 9.83374000e-01 9.71287787e-01 2.96722084e-01 6.11267447e-01 1.13171585e-01 6.46996358e-03 2.33902084e-03 3.51233757e-03 1.09735578e-02 2.25717835e-02 3.62967290e-02 6.59088790e-02 1.14362404e-01 1.54979914e-01 1.66568473e-01 1.64209396e-01 1.66977391e-01 1.83465734e-01 2.19384342e-01 2.71065295e-01 3.42576176e-01 4.74149764e-01 6.40095651e-01 6.97664022e-01 6.96333230e-01 8.03860009e-01 8.33644450e-01 8.49939823e-01 8.62144589e-01 8.66080582e-01 8.49985778e-01 8.19316387e-01 8.95633161e-01 4.03432131e-01 7.76154041e-01 1.38900682e-01 6.20277785e-03 2.08131038e-03 2.67415028e-03 5.85266016e-03 1.04935151e-02 1.92801394e-02 4.27024551e-02 9.29746330e-02 1.45140633e-01 1.62774146e-01 1.59251511e-01 1.54499575e-01 1.55589104e-01 1.79382354e-01 2.42523283e-01 3.08403015e-01 3.40397716e-01 3.93728942e-01 5.06624937e-01 6.11905217e-01 6.32009089e-01 5.92251897e-01 5.46625614e-01 4.39429611e-01 2.70263314e-01 7.12686479e-02 3.74160558e-02 2.61401206e-01 4.66072857e-01 8.24319482e-01 1.29821435e-01 6.23478042e-03 1.99370855e-03 2.41932413e-03 3.38988844e-03 4.08819038e-03 8.48955289e-03 2.42254641e-02 7.06523508e-02 1.31856769e-01 1.53305456e-01 1.50082901e-01 1.43009469e-01 1.30825117e-01 1.33028150e-01 1.95249885e-01 3.24707359e-01 3.68650109e-01 2.95506269e-01 2.52856910e-01 2.75934964e-01 3.18070263e-01 3.32270563e-01 2.81317323e-01 1.47163138e-01 4.21478711e-02 1.54965185e-02 1.17117679e-02 5.03658839e-02 4.37302411e-01 7.74620831e-01 9.37158987e-02 6.47440227e-03 1.92560966e-03 2.24174373e-03 2.46382318e-03 1.71607628e-03 3.61573393e-03 1.30340364e-02 5.28280064e-02 1.28534317e-01 1.52047202e-01 1.44931003e-01 1.37646034e-01 1.14416018e-01 9.46833193e-02 1.32714346e-01 2.95306444e-01 4.36141253e-01 3.18457514e-01 1.67907730e-01 1.17611885e-01 9.89296213e-02 8.23798850e-02 6.06351495e-02 3.48147526e-02 1.78229325e-02 1.07755093e-02 8.66768602e-03 2.35614050e-02 3.45912099e-01 6.40591502e-01 7.53796473e-02 7.36294268e-03 1.99447479e-03 1.92031113e-03 1.98794110e-03 8.36893334e-04 1.46118365e-03 6.80595683e-03 3.67324911e-02 1.26522288e-01 1.63515419e-01 1.45275012e-01 1.38952166e-01 1.08587518e-01 6.95795640e-02 8.23734552e-02 2.28452533e-01 4.50723559e-01 3.79622221e-01 1.81889042e-01 1.06952354e-01 7.72318095e-02 5.53237498e-02 4.60422896e-02 3.24972868e-02 1.78858191e-02 9.56762675e-03 5.25931502e-03 1.37794083e-02 2.73750871e-01 5.23433328e-01 8.40757713e-02 1.02255326e-02 2.46277801e-03 1.83013536e-03 1.94468733e-03 6.21314335e-04 6.15939265e-04 2.68863887e-03 2.49684695e-02 1.17861755e-01 1.55388072e-01 1.33231014e-01 1.31175950e-01 1.08561791e-01 5.89632727e-02 5.58847524e-02 1.72373578e-01 3.78013551e-01 3.23058367e-01 1.52694449e-01 8.84361118e-02 6.78725615e-02 4.02469523e-02 2.51996554e-02 2.19714548e-02 1.74235497e-02 1.18571408e-02 6.41426397e-03 1.48086753e-02 2.13782340e-01 4.53918487e-01 1.70242280e-01 2.63214670e-02 3.86920967e-03 2.26720003e-03 2.43328675e-03 7.56880734e-04 4.34253772e-04 1.02898933e-03 8.37942585e-03 1.58476770e-01 1.91185758e-01 1.14444591e-01 1.17514230e-01 1.17381349e-01 6.30102009e-02 3.60769667e-02 1.10266969e-01 1.80074170e-01 1.76011622e-01 1.15045480e-01 7.44006336e-02 6.78060278e-02 5.15854917e-02 2.72720922e-02 1.79588310e-02 1.63708888e-02 1.56082055e-02 1.24152247e-02 2.33066157e-02 2.56250590e-01 2.94352055e-01 2.74463624e-01 1.55442953e-01 9.91289224e-03 4.16520098e-03 3.13081639e-03 9.12143849e-04 3.33848700e-04 7.39311974e-04 4.16464172e-03 4.93852682e-02 1.71349838e-01 8.67043808e-02 8.72542262e-02 1.58365190e-01 2.63519257e-01 1.48848265e-01 7.63198882e-02 8.68449360e-02 1.72410369e-01 2.21469522e-01 9.95481908e-02 5.79791106e-02 4.56306003e-02 2.97275744e-02 1.70200150e-02 1.32442862e-02 1.40278591e-02 1.62393134e-02 3.82598378e-02 7.68147290e-01 4.31518823e-01 1.40966728e-01 3.27525258e-01 4.10945527e-02 1.14318719e-02 4.30028979e-03 1.13721134e-03 2.38070774e-04 4.68720333e-04 5.77871734e-03 3.84688973e-02 1.53689131e-01 1.05322354e-01 7.80819952e-02 8.61241594e-02 9.97065678e-02 8.18739980e-02 9.55921188e-02 8.81724417e-01 6.34360313e-01 1.32243738e-01 6.95486814e-02 4.05183546e-02 2.98490096e-02 2.30751410e-02 1.63888428e-02 1.22460527e-02 1.17404638e-02 1.44006610e-02 4.11502905e-02 4.20888633e-01 6.72207832e-01 8.55992079e-01 6.94201648e-01 6.09767437e-01 5.95407002e-02 8.43519438e-03 2.54999567e-03 3.65243963e-04 2.97874329e-04 1.55182322e-02 1.67822763e-01 5.25992513e-01 5.61866701e-01 4.46334779e-01 3.33125263e-01 2.59506941e-01 2.68867403e-01 3.26299131e-01 2.35794455e-01 1.35512188e-01 1.34739265e-01 1.07808255e-01 5.60356006e-02 4.54687662e-02 4.12781537e-02 3.74618843e-02 3.35381478e-02 3.12254969e-02 3.14907953e-02 4.99869734e-02 
