# vtk DataFile Version 2.0
results_case1_non_linear/iter6.vtk, Created by Freefem++ 
ASCII
DATASET UNSTRUCTURED_GRID
POINTS 961 float
0 0 0
0.033333333 0 0
0.066666667 0 0
0.1 0 0
0.13333333 0 0
0.16666667 0 0
0.2 0 0
0.23333333 0 0
0.26666667 0 0
0.3 0 0
0.33333333 0 0
0.36666667 0 0
0.4 0 0
0.43333333 0 0
0.46666667 0 0
0.5 0 0
0.53333333 0 0
0.56666667 0 0
0.6 0 0
0.63333333 0 0
0.66666667 0 0
0.7 0 0
0.73333333 0 0
0.76666667 0 0
0.8 0 0
0.83333333 0 0
0.86666667 0 0
0.9 0 0
0.93333333 0 0
0.96666667 0 0
1 0 0
0 0.033333333 0
0.033333333 0.033333333 0
0.066666667 0.033333333 0
0.1 0.033333333 0
0.13333333 0.033333333 0
0.16666667 0.033333333 0
0.2 0.033333333 0
0.23333333 0.033333333 0
0.26666667 0.033333333 0
0.3 0.033333333 0
0.33333333 0.033333333 0
0.36666667 0.033333333 0
0.4 0.033333333 0
0.43333333 0.033333333 0
0.46666667 0.033333333 0
0.5 0.033333333 0
0.53333333 0.033333333 0
0.56666667 0.033333333 0
0.6 0.033333333 0
0.63333333 0.033333333 0
0.66666667 0.033333333 0
0.7 0.033333333 0
0.73333333 0.033333333 0
0.76666667 0.033333333 0
0.8 0.033333333 0
0.83333333 0.033333333 0
0.86666667 0.033333333 0
0.9 0.033333333 0
0.93333333 0.033333333 0
0.96666667 0.033333333 0
1 0.033333333 0
0 0.066666667 0
0.033333333 0.066666667 0
0.066666667 0.066666667 0
0.1 0.066666667 0
0.13333333 0.066666667 0
0.16666667 0.066666667 0
0.2 0.066666667 0
0.23333333 0.066666667 0
0.26666667 0.066666667 0
0.3 0.066666667 0
0.33333333 0.066666667 0
0.36666667 0.066666667 0
0.4 0.066666667 0
0.43333333 0.066666667 0
0.46666667 0.066666667 0
0.5 0.066666667 0
0.53333333 0.066666667 0
0.56666667 0.066666667 0
0.6 0.066666667 0
0.63333333 0.066666667 0
0.66666667 0.066666667 0
0.7 0.066666667 0
0.73333333 0.066666667 0
0.76666667 0.066666667 0
0.8 0.066666667 0
0.83333333 0.066666667 0
0.86666667 0.066666667 0
0.9 0.066666667 0
0.93333333 0.066666667 0
0.96666667 0.066666667 0
1 0.066666667 0
0 0.1 0
0.033333333 0.1 0
0.066666667 0.1 0
0.1 0.1 0
0.13333333 0.1 0
0.16666667 0.1 0
0.2 0.1 0
0.23333333 0.1 0
0.26666667 0.1 0
0.3 0.1 0
0.33333333 0.1 0
0.36666667 0.1 0
0.4 0.1 0
0.43333333 0.1 0
0.46666667 0.1 0
0.5 0.1 0
0.53333333 0.1 0
0.56666667 0.1 0
0.6 0.1 0
0.63333333 0.1 0
0.66666667 0.1 0
0.7 0.1 0
0.73333333 0.1 0
0.76666667 0.1 0
0.8 0.1 0
0.83333333 0.1 0
0.86666667 0.1 0
0.9 0.1 0
0.93333333 0.1 0
0.96666667 0.1 0
1 0.1 0
0 0.13333333 0
0.033333333 0.13333333 0
0.066666667 0.13333333 0
0.1 0.13333333 0
0.13333333 0.13333333 0
0.16666667 0.13333333 0
0.2 0.13333333 0
0.23333333 0.13333333 0
0.26666667 0.13333333 0
0.3 0.13333333 0
0.33333333 0.13333333 0
0.36666667 0.13333333 0
0.4 0.13333333 0
0.43333333 0.13333333 0
0.46666667 0.13333333 0
0.5 0.13333333 0
0.53333333 0.13333333 0
0.56666667 0.13333333 0
0.6 0.13333333 0
0.63333333 0.13333333 0
0.66666667 0.13333333 0
0.7 0.13333333 0
0.73333333 0.13333333 0
0.76666667 0.13333333 0
0.8 0.13333333 0
0.83333333 0.13333333 0
0.86666667 0.13333333 0
0.9 0.13333333 0
0.93333333 0.13333333 0
0.96666667 0.13333333 0
1 0.13333333 0
0 0.16666667 0
0.033333333 0.16666667 0
0.066666667 0.16666667 0
0.1 0.16666667 0
0.13333333 0.16666667 0
0.16666667 0.16666667 0
0.2 0.16666667 0
0.23333333 0.16666667 0
0.26666667 0.16666667 0
0.3 0.16666667 0
0.33333333 0.16666667 0
0.36666667 0.16666667 0
0.4 0.16666667 0
0.43333333 0.16666667 0
0.46666667 0.16666667 0
0.5 0.16666667 0
0.53333333 0.16666667 0
0.56666667 0.16666667 0
0.6 0.16666667 0
0.63333333 0.16666667 0
0.66666667 0.16666667 0
0.7 0.16666667 0
0.73333333 0.16666667 0
0.76666667 0.16666667 0
0.8 0.16666667 0
0.83333333 0.16666667 0
0.86666667 0.16666667 0
0.9 0.16666667 0
0.93333333 0.16666667 0
0.96666667 0.16666667 0
1 0.16666667 0
0 0.2 0
0.033333333 0.2 0
0.066666667 0.2 0
0.1 0.2 0
0.13333333 0.2 0
0.16666667 0.2 0
0.2 0.2 0
0.23333333 0.2 0
0.26666667 0.2 0
0.3 0.2 0
0.33333333 0.2 0
0.36666667 0.2 0
0.4 0.2 0
0.43333333 0.2 0
0.46666667 0.2 0
0.5 0.2 0
0.53333333 0.2 0
0.56666667 0.2 0
0.6 0.2 0
0.63333333 0.2 0
0.66666667 0.2 0
0.7 0.2 0
0.73333333 0.2 0
0.76666667 0.2 0
0.8 0.2 0
0.83333333 0.2 0
0.86666667 0.2 0
0.9 0.2 0
0.93333333 0.2 0
0.96666667 0.2 0
1 0.2 0
0 0.23333333 0
0.033333333 0.23333333 0
0.066666667 0.23333333 0
0.1 0.23333333 0
0.13333333 0.23333333 0
0.16666667 0.23333333 0
0.2 0.23333333 0
0.23333333 0.23333333 0
0.26666667 0.23333333 0
0.3 0.23333333 0
0.33333333 0.23333333 0
0.36666667 0.23333333 0
0.4 0.23333333 0
0.43333333 0.23333333 0
0.46666667 0.23333333 0
0.5 0.23333333 0
0.53333333 0.23333333 0
0.56666667 0.23333333 0
0.6 0.23333333 0
0.63333333 0.23333333 0
0.66666667 0.23333333 0
0.7 0.23333333 0
0.73333333 0.23333333 0
0.76666667 0.23333333 0
0.8 0.23333333 0
0.83333333 0.23333333 0
0.86666667 0.23333333 0
0.9 0.23333333 0
0.93333333 0.23333333 0
0.96666667 0.23333333 0
1 0.23333333 0
0 0.26666667 0
0.033333333 0.26666667 0
0.066666667 0.26666667 0
0.1 0.26666667 0
0.13333333 0.26666667 0
0.16666667 0.26666667 0
0.2 0.26666667 0
0.23333333 0.26666667 0
0.26666667 0.26666667 0
0.3 0.26666667 0
0.33333333 0.26666667 0
0.36666667 0.26666667 0
0.4 0.26666667 0
0.43333333 0.26666667 0
0.46666667 0.26666667 0
0.5 0.26666667 0
0.53333333 0.26666667 0
0.56666667 0.26666667 0
0.6 0.26666667 0
0.63333333 0.26666667 0
0.66666667 0.26666667 0
0.7 0.26666667 0
0.73333333 0.26666667 0
0.76666667 0.26666667 0
0.8 0.26666667 0
0.83333333 0.26666667 0
0.86666667 0.26666667 0
0.9 0.26666667 0
0.93333333 0.26666667 0
0.96666667 0.26666667 0
1 0.26666667 0
0 0.3 0
0.033333333 0.3 0
0.066666667 0.3 0
0.1 0.3 0
0.13333333 0.3 0
0.16666667 0.3 0
0.2 0.3 0
0.23333333 0.3 0
0.26666667 0.3 0
0.3 0.3 0
0.33333333 0.3 0
0.36666667 0.3 0
0.4 0.3 0
0.43333333 0.3 0
0.46666667 0.3 0
0.5 0.3 0
0.53333333 0.3 0
0.56666667 0.3 0
0.6 0.3 0
0.63333333 0.3 0
0.66666667 0.3 0
0.7 0.3 0
0.73333333 0.3 0
0.76666667 0.3 0
0.8 0.3 0
0.83333333 0.3 0
0.86666667 0.3 0
0.9 0.3 0
0.93333333 0.3 0
0.96666667 0.3 0
1 0.3 0
0 0.33333333 0
0.033333333 0.33333333 0
0.066666667 0.33333333 0
0.1 0.33333333 0
0.13333333 0.33333333 0
0.16666667 0.33333333 0
0.2 0.33333333 0
0.23333333 0.33333333 0
0.26666667 0.33333333 0
0.3 0.33333333 0
0.33333333 0.33333333 0
0.36666667 0.33333333 0
0.4 0.33333333 0
0.43333333 0.33333333 0
0.46666667 0.33333333 0
0.5 0.33333333 0
0.53333333 0.33333333 0
0.56666667 0.33333333 0
0.6 0.33333333 0
0.63333333 0.33333333 0
0.66666667 0.33333333 0
0.7 0.33333333 0
0.73333333 0.33333333 0
0.76666667 0.33333333 0
0.8 0.33333333 0
0.83333333 0.33333333 0
0.86666667 0.33333333 0
0.9 0.33333333 0
0.93333333 0.33333333 0
0.96666667 0.33333333 0
1 0.33333333 0
0 0.36666667 0
0.033333333 0.36666667 0
0.066666667 0.36666667 0
0.1 0.36666667 0
0.13333333 0.36666667 0
0.16666667 0.36666667 0
0.2 0.36666667 0
0.23333333 0.36666667 0
0.26666667 0.36666667 0
0.3 0.36666667 0
0.33333333 0.36666667 0
0.36666667 0.36666667 0
0.4 0.36666667 0
0.43333333 0.36666667 0
0.46666667 0.36666667 0
0.5 0.36666667 0
0.53333333 0.36666667 0
0.56666667 0.36666667 0
0.6 0.36666667 0
0.63333333 0.36666667 0
0.66666667 0.36666667 0
0.7 0.36666667 0
0.73333333 0.36666667 0
0.76666667 0.36666667 0
0.8 0.36666667 0
0.83333333 0.36666667 0
0.86666667 0.36666667 0
0.9 0.36666667 0
0.93333333 0.36666667 0
0.96666667 0.36666667 0
1 0.36666667 0
0 0.4 0
0.033333333 0.4 0
0.066666667 0.4 0
0.1 0.4 0
0.13333333 0.4 0
0.16666667 0.4 0
0.2 0.4 0
0.23333333 0.4 0
0.26666667 0.4 0
0.3 0.4 0
0.33333333 0.4 0
0.36666667 0.4 0
0.4 0.4 0
0.43333333 0.4 0
0.46666667 0.4 0
0.5 0.4 0
0.53333333 0.4 0
0.56666667 0.4 0
0.6 0.4 0
0.63333333 0.4 0
0.66666667 0.4 0
0.7 0.4 0
0.73333333 0.4 0
0.76666667 0.4 0
0.8 0.4 0
0.83333333 0.4 0
0.86666667 0.4 0
0.9 0.4 0
0.93333333 0.4 0
0.96666667 0.4 0
1 0.4 0
0 0.43333333 0
0.033333333 0.43333333 0
0.066666667 0.43333333 0
0.1 0.43333333 0
0.13333333 0.43333333 0
0.16666667 0.43333333 0
0.2 0.43333333 0
0.23333333 0.43333333 0
0.26666667 0.43333333 0
0.3 0.43333333 0
0.33333333 0.43333333 0
0.36666667 0.43333333 0
0.4 0.43333333 0
0.43333333 0.43333333 0
0.46666667 0.43333333 0
0.5 0.43333333 0
0.53333333 0.43333333 0
0.56666667 0.43333333 0
0.6 0.43333333 0
0.63333333 0.43333333 0
0.66666667 0.43333333 0
0.7 0.43333333 0
0.73333333 0.43333333 0
0.76666667 0.43333333 0
0.8 0.43333333 0
0.83333333 0.43333333 0
0.86666667 0.43333333 0
0.9 0.43333333 0
0.93333333 0.43333333 0
0.96666667 0.43333333 0
1 0.43333333 0
0 0.46666667 0
0.033333333 0.46666667 0
0.066666667 0.46666667 0
0.1 0.46666667 0
0.13333333 0.46666667 0
0.16666667 0.46666667 0
0.2 0.46666667 0
0.23333333 0.46666667 0
0.26666667 0.46666667 0
0.3 0.46666667 0
0.33333333 0.46666667 0
0.36666667 0.46666667 0
0.4 0.46666667 0
0.43333333 0.46666667 0
0.46666667 0.46666667 0
0.5 0.46666667 0
0.53333333 0.46666667 0
0.56666667 0.46666667 0
0.6 0.46666667 0
0.63333333 0.46666667 0
0.66666667 0.46666667 0
0.7 0.46666667 0
0.73333333 0.46666667 0
0.76666667 0.46666667 0
0.8 0.46666667 0
0.83333333 0.46666667 0
0.86666667 0.46666667 0
0.9 0.46666667 0
0.93333333 0.46666667 0
0.96666667 0.46666667 0
1 0.46666667 0
0 0.5 0
0.033333333 0.5 0
0.066666667 0.5 0
0.1 0.5 0
0.13333333 0.5 0
0.16666667 0.5 0
0.2 0.5 0
0.23333333 0.5 0
0.26666667 0.5 0
0.3 0.5 0
0.33333333 0.5 0
0.36666667 0.5 0
0.4 0.5 0
0.43333333 0.5 0
0.46666667 0.5 0
0.5 0.5 0
0.53333333 0.5 0
0.56666667 0.5 0
0.6 0.5 0
0.63333333 0.5 0
0.66666667 0.5 0
0.7 0.5 0
0.73333333 0.5 0
0.76666667 0.5 0
0.8 0.5 0
0.83333333 0.5 0
0.86666667 0.5 0
0.9 0.5 0
0.93333333 0.5 0
0.96666667 0.5 0
1 0.5 0
0 0.53333333 0
0.033333333 0.53333333 0
0.066666667 0.53333333 0
0.1 0.53333333 0
0.13333333 0.53333333 0
0.16666667 0.53333333 0
0.2 0.53333333 0
0.23333333 0.53333333 0
0.26666667 0.53333333 0
0.3 0.53333333 0
0.33333333 0.53333333 0
0.36666667 0.53333333 0
0.4 0.53333333 0
0.43333333 0.53333333 0
0.46666667 0.53333333 0
0.5 0.53333333 0
0.53333333 0.53333333 0
0.56666667 0.53333333 0
0.6 0.53333333 0
0.63333333 0.53333333 0
0.66666667 0.53333333 0
0.7 0.53333333 0
0.73333333 0.53333333 0
0.76666667 0.53333333 0
[...]
CELL_DATA 1920
Scalars  Label int 1
LOOKUP_TABLE FreeFempp_table
0
0
0
0
0
0
0
0
0
0
0
0
0
0
0
0
0
0
0
0
0
0
0
0
0
0
0
0
0
0
0
0
0
0
0
0
0
0
0
0
0
0
0
0
0
0
0
0
0
0
0
0
0
0
0
0
0
0
0
0
0
0
0
0
0
0
0
0
0
0
0
0
0
0
0
0
0
0
0
0
0
0
0
0
0
0
0
0
0
0
0
0
0
0
0
0
0
0
0
0
0
0
0
0
0
0
0
0
0
0
0
0
0
0
0
0
0
0
0
0
0
0
0
0
0
0
0
0
0
0
0
0
0
0
0
0
0
0
0
0
0
0
0
0
0
0
0
0
0
0
0
0
0
0
0
0
0
0
0
0
0
0
0
0
0
0
0
0
0
0
0
0
0
0
0
0
0
0
0
0
0
0
0
0
0
0
0
0
0
0
0
0
0
0
0
0
0
0
0
0
0
0
0
0
0
0
0
0
0
0
0
0
0
0
0
0
0
0
0
0
0
0
0
0
0
0
0
0
0
0
0
0
0
0
0
0
0
0
0
0
0
0
0
0
0
0
0
0
0
0
0
0
0
0
0
0
0
0
0
0
0
0
0
0
0
0
0
0
0
0
0
0
0
0
0
0
0
0
0
0
0
0
0
0
0
0
0
0
0
0
0
0
0
0
0
0
0
0
0
0
0
0
0
0
0
0
0
0
0
0
0
0
0
0
0
0
0
0
0
0
0
0
0
0
0
0
0
0
0
0
0
0
0
0
0
0
0
0
0
0
0
0
0
0
0
0
0
0
0
0
0
0
0
0
0
0
0
0
0
0
0
0
0
0
0
0
0
0
0
0
0
0
0
0
0
0
0
0
0
0
0
0
0
0
0
0
0
0
0
0
0
0
0
0
0
0
0
0
0
0
0
0
0
0
0
0
0
0
0
0
0
0
0
0
0
0
0
0
0
0
0
0
0
0
0
0
0
0
0
0
0
0
0
0
0
0
0
0
0
0
0
0
0
0
0
0
0
0
0
0
0
0
0
0
0
0
0
0
0
0
0
0
0
0
0
0
0
0
0
0
0
0
0
0
0
0
0
0
0
0
0
0
0
0
0
0
0
0
0
0
0
0
0
0
0
0
0
0
0
0
0
0
0
0
0
0
0
0
0
0
0
0
0
0
0
0
0
0
0
0
0
0
0
0
0
0
0
0
0
0
0
0
0
0
0
0
0
0
0
0
0
0
0
0
0
0
0
0
0
0
0
0
0
0
0
0
0
0
0
0
0
0
0
0
0
0
0
0
0
0
0
0
0
0
0
0
0
0
0
0
0
0
0
0
0
0
0
0
0
0
0
0
0
0
0
0
0
0
0
0
0
0
0
0
0
0
0
0
0
0
0
0
0
0
0
0
0
0
0
0
0
0
0
0
0
0
0
0
0
0
0
0
0
0
0
0
0
0
0
0
0
0
0
0
0
0
0
0
0
0
0
0
0
0
0
0
0
0
0
0
0
0
0
0
0
0
0
0
0
0
0
0
0
0
0
0
0
0
0
0
0
0
0
0
0
0
0
0
0
0
0
0
0
0
0
0
0
0
0
0
0
0
0
0
0
0
0
0
0
0
0
0
0
0
0
0
0
0
0
0
0
0
0
0
0
0
0
0
0
0
0
0
0
0
0
0
0
0
0
0
0
0
0
0
0
0
0
0
0
0
0
0
0
0
0
0
0
0
0
0
0
0
0
0
0
0
0
0
0
0
0
0
0
0
0
0
0
0
0
0
0
0
0
0
0
0
0
0
0
0
0
0
0
0
0
0
0
0
0
0
0
0
0
0
0
0
0
0
0
0
0
0
0
0
0
0
0
0
0
0
0
0
0
0
0
0
0
0
0
0
0
0
0
0
0
0
0
0
0
0
0
0
0
0
0
0
0
0
0
0
0
0
0
0
0
0
0
0
0
0
0
0
0
0
0
0
0
0
0
0
0
0
0
0
0
0
0
0
0
0
0
0
0
0
0
0
0
0
0
0
0
0
0
0
0
0
0
0
0
0
0
0
0
0
0
0
0
0
0
0
0
0
0
0
0
0
0
0
0
0
0
0
0
0
0
0
0
0
0
0
0
0
0
0
0
0
0
0
0
0
0
0
0
0
0
0
0
0
0
0
0
0
0
0
0
0
0
0
0
0
0
0
0
0
0
0
0
0
0
0
0
0
0
0
0
0
0
0
0
0
0
0
0
0
0
0
0
0
0
0
0
0
0
0
0
0
0
0
0
0
0
0
0
0
0
0
0
0
0
0
0
0
0
0
0
0
0
0
0
0
0
0
0
0
0
0
0
0
0
0
0
0
0
0
0
0
0
0
0
0
0
0
0
0
0
0
0
0
0
0
0
0
0
0
0
0
0
0
0
0
0
0
0
0
0
0
0
0
0
0
0
0
0
0
0
0
0
0
0
0
0
0
0
0
0
0
0
0
0
0
0
0
0
0
0
0
0
0
0
0
0
0
0
0
0
0
0
0
0
0
0
0
0
0
0
0
0
0
0
0
0
0
0
0
0
0
0
0
0
0
0
0
0
0
0
0
0
0
0
0
0
0
0
0
0
0
0
0
0
0
0
0
0
0
0
0
0
0
0
0
0
0
0
0
0
0
0
0
0
0
0
0
0
0
0
0
0
0
0
0
0
0
0
0
0
0
0
0
0
0
0
0
0
0
0
0
0
0
0
0
0
0
0
0
0
0
0
0
0
0
0
0
0
0
0
0
0
0
0
0
0
0
0
0
0
0
0
0
0
0
0
0
0
0
0
0
0
0
0
0
0
0
0
0
0
0
0
0
0
0
0
0
0
0
0
0
0
0
0
0
0
0
0
0
0
0
0
0
0
0
0
0
0
0
0
0
0
0
0
0
0
0
0
0
0
0
0
0
0
0
0
0
0
0
0
0
0
0
0
0
0
0
0
0
0
0
0
0
0
0
0
0
0
0
0
0
0
0
0
0
0
0
0
0
0
0
0
0
0
0
0
0
0
0
0
0
0
0
0
0
0
0
0
0
0
0
0
0
0
0
0
0
0
0
0
0
0
0
0
0
0
0
0
0
0
0
0
0
0
0
0
0
0
0
0
0
0
0
0
0
0
0
0
0
0
0
0
0
0
0
0
0
0
0
0
0
0
0
0
0
0
0
0
0
0
0
0
0
0
0
0
0
0
0
0
0
0
0
0
0
0
0
0
0
0
0
0
0
0
0
0
0
0
0
0
0
0
0
0
0
0
0
0
0
0
0
0
0
0
0
0
0
0
0
0
0
0
0
0
0
0
0
0
0
0
0
0
0
0
0
0
0
0
0
0
0
0
0
0
0
0
0
0
0
0
0
0
0
0
0
0
0
0
0
0
0
0
0
0
0
0
0
0
0
0
0
0
0
0
0
0
0
0
0
0
0
0
0
0
0
0
0
0
0
0
0
0
0
0
0
0
0
0
0
0
0
0
0
0
0
0
0
0
0
0
0
0
0
0
0
0
0
0
0
0
0
0
0
0
0
0
0
0
0
0
0
0
0
0
0
0
0
0
0
0
0
0
0
0
0
0
0
0
0
0
0
0
0
0
0
0
0
0
0
0
0
0
0
0
0
0
0
0
0
0
0
0
0
0
0
0
0
0
0
0
0
0
0
0
0
0
0
0
0
0
0
0
0
0
0
0
0
0
0
0
0
0
0
0
0
0
0
0
0
0
0
0
0
0
0
0
0
0
0
0
0
0
0
0
0
0
0
0
0
0
0
0
0
0
0
0
0
0
0
0
0
0
0
0
0
0
0
0
0
0
0
0
0
0
0
0
0
0
0
0
0
0
0
0
0
0
0
0
0
0
0
0
0
0
0
0
0
0
0
0
0
0
0
0
0
0
0
0
0
0
0
0
0
0
0
0
0
0
0
0
0
0
0
0
0
0
0
0
0
0
0
0
0
0
0
0
0
0
0
0
0
0
0
0
0
0
0
0
0
0
0
0
0
0
0
0
0
0
0
0
0
0
0
0
0
0
0
0
0
0
0
0
0
0
0
0
0
0
0
0
0
0
0
0
0
1
1
1
1
1
1
1
1
1
1
1
1
1
1
1
1
1
1
1
1
1
1
1
1
1
1
1
1
1
1
2
2
2
2
2
2
2
2
2
2
2
2
2
2
2
2
2
2
2
2
2
2
2
2
2
2
2
2
2
2
3
3
3
3
3
3
3
3
3
3
3
3
3
3
3
3
3
3
3
3
3
3
3
3
3
3
3
3
3
3
4
4
4
4
4
4
4
4
4
4
4
4
4
4
4
4
4
4
4
4
4
4
4
4
4
4
4
4
4
4

LOOKUP_TABLE FreeFempp_table 5
1.00000000 0.00000000 0.00000000 1.00000000
1.00000000 1.00000000 0.00000000 1.00000000
1.00000000 0.00000000 1.00000000 1.00000000
0.00000000 1.00000000 0.00000000 1.00000000
0.00000000 1.00000000 1.00000000 1.00000000

POINT_DATA 961
FIELD FieldData 1
Density 1 961 float
1.11169735e-04 1.11174544e-04 1.11174515e-04 1.11174333e-04 1.11173962e-04 1.11173402e-04 1.11172711e-04 1.11171925e-04 1.11171095e-04 1.11170251e-04 1.11169422e-04 1.11168629e-04 1.11167872e-04 1.11167144e-04 1.11166395e-04 1.11165573e-04 1.11164671e-04 1.11163747e-04 1.11162903e-04 1.11162160e-04 1.11161549e-04 1.11161062e-04 1.11160676e-04 1.11160378e-04 1.11279420e-04 9.99719441e-01 9.99839485e-01 9.99836326e-01 1.11197020e-04 1.11247813e-04 1.18736520e-04 1.11174530e-04 1.11188994e-04 1.11189001e-04 1.11188769e-04 1.11188136e-04 1.11187124e-04 1.11185807e-04 1.11184287e-04 1.11182650e-04 1.11180954e-04 1.11179274e-04 1.11177651e-04 1.11176123e-04 1.11174682e-04 1.11173256e-04 1.11171692e-04 1.11169924e-04 1.11168061e-04 1.11166300e-04 1.11164743e-04 1.11163434e-04 1.11162393e-04 1.11161607e-04 1.11161055e-04 1.11160538e-04 1.37893381e-04 9.99841750e-01 9.99833643e-01 1.11113965e-04 1.11344547e-04 1.11230307e-04 1.11174471e-04 1.11188907e-04 1.11189067e-04 1.11188885e-04 1.11188223e-04 1.11187153e-04 1.11185785e-04 1.11184228e-04 1.11182562e-04 1.11180845e-04 1.11179135e-04 1.11177498e-04 1.11175999e-04 1.11174653e-04 1.11173365e-04 1.11171881e-04 1.11170084e-04 1.11168141e-04 1.11166344e-04 1.11164758e-04 1.11163441e-04 1.11162401e-04 1.11161593e-04 1.11161105e-04 1.11160705e-04 1.15988703e-04 9.99844849e-01 9.99837279e-01 1.11084184e-04 1.11424852e-04 1.11254441e-04 1.11174399e-04 1.11188761e-04 1.11189242e-04 1.11189125e-04 1.11188383e-04 1.11187197e-04 1.11185735e-04 1.11184127e-04 1.11182424e-04 1.11180685e-04 1.11178932e-04 1.11177251e-04 1.11175759e-04 1.11174566e-04 1.11173555e-04 1.11172238e-04 1.11170382e-04 1.11168258e-04 1.11166402e-04 1.11164765e-04 1.11163426e-04 1.11162371e-04 1.11161527e-04 1.11160785e-04 1.11160422e-04 1.12132839e-04 9.99845028e-01 9.99839842e-01 9.67214644e-01 1.11531910e-04 1.11433765e-04 1.11174348e-04 1.11188507e-04 1.11189613e-04 1.11189525e-04 1.11188594e-04 1.11187212e-04 1.11185625e-04 1.11183952e-04 1.11182235e-04 1.11180481e-04 1.11178706e-04 1.11176931e-04 1.11175352e-04 1.11174319e-04 1.11173824e-04 1.11172842e-04 1.11170855e-04 1.11168374e-04 1.11166468e-04 1.11164758e-04 1.11163383e-04 1.11162350e-04 1.11161535e-04 1.11160924e-04 1.11160291e-04 1.30086381e-04 9.99844730e-01 9.99840796e-01 9.99836206e-01 1.11491441e-04 1.11502559e-04 1.11174551e-04 1.11187968e-04 1.11190377e-04 1.11190100e-04 1.11188798e-04 1.11187139e-04 1.11185393e-04 1.11183668e-04 1.11181958e-04 1.11180241e-04 1.11178495e-04 1.11176676e-04 1.11174821e-04 1.11173737e-04 1.11174078e-04 1.11173809e-04 1.11171619e-04 1.11168389e-04 1.11166555e-04 1.11164714e-04 1.11163303e-04 1.11162306e-04 1.11161469e-04 1.11160887e-04 1.11160494e-04 1.11228837e-04 9.99844551e-01 9.99841034e-01 9.99823332e-01 1.11471090e-04 1.11488000e-04 1.11176509e-04 1.11186739e-04 1.11192014e-04 1.11190799e-04 1.11188856e-04 1.11186870e-04 1.11185000e-04 1.11183253e-04 1.11181573e-04 1.11179914e-04 1.11178226e-04 1.11176414e-04 1.11174297e-04 1.11171459e-04 1.11169553e-04 1.11169029e-04 1.11168920e-04 1.11168127e-04 1.11166817e-04 1.11164642e-04 1.11163201e-04 1.11162284e-04 1.11161331e-04 1.11160851e-04 1.11160567e-04 1.11233399e-04 9.99844551e-01 9.99841154e-01 9.99755263e-01 1.11442067e-04 1.11463210e-04 1.11173089e-04 1.11178430e-04 1.11179230e-04 1.11186208e-04 1.11186848e-04 1.11184054e-04 1.11182839e-04 1.11181071e-04 1.11178764e-04 1.11176312e-04 1.11173998e-04 1.11171932e-04 1.11170113e-04 1.11168134e-04 1.11165253e-04 1.17566975e-04 1.19793040e-04 1.11162459e-04 1.11163630e-04 1.11163557e-04 1.11163055e-04 1.11162488e-04 1.11161120e-04 1.11160560e-04 1.11160771e-04 1.11257446e-04 9.99844611e-01 9.99841154e-01 9.99839723e-01 1.11405796e-04 1.11430447e-04 5.66871790e-03 1.11321257e-04 1.12042362e-04 3.78956756e-04 1.74970496e-02 9.19168174e-01 9.92006063e-01 9.95236039e-01 9.92933393e-01 9.77585733e-01 8.69738162e-01 4.23532784e-01 1.16131119e-01 7.44084343e-02 2.01917112e-01 7.84041107e-01 9.77365673e-01 9.86604095e-01 9.55412567e-01 1.15577459e-04 1.11159985e-04 1.11160676e-04 1.11160931e-04 1.11160138e-04 1.11176414e-04 1.19157841e-04 9.99845028e-01 9.99840975e-01 9.99839664e-01 1.11363792e-04 1.11392124e-04 9.99843180e-01 9.99848664e-01 9.99848366e-01 9.99846756e-01 9.99844909e-01 9.99842882e-01 9.99841750e-01 9.99833822e-01 9.99784529e-01 9.99731719e-01 9.99699175e-01 9.99626815e-01 9.99395788e-01 9.98695791e-01 9.96783197e-01 9.93623614e-01 9.93422568e-01 9.96050954e-01 9.97482181e-01 9.97844100e-01 9.97447193e-01 9.73767817e-01 1.11150286e-04 1.11151836e-04 1.11170950e-04 9.74138141e-01 9.99842823e-01 9.99840558e-01 9.99839485e-01 1.11318455e-04 1.11350681e-04 9.99837816e-01 9.99840319e-01 9.99841630e-01 9.99841750e-01 9.99841392e-01 9.99840975e-01 9.99840558e-01 9.99840438e-01 9.99840438e-01 9.99838471e-01 9.99807656e-01 9.99793291e-01 9.99766648e-01 9.99635100e-01 9.99122381e-01 9.96915042e-01 9.86588955e-01 9.52705264e-01 9.14363205e-01 9.16386008e-01 9.53762174e-01 9.83327568e-01 9.86210167e-01 9.72040176e-01 9.97489572e-01 9.99731183e-01 9.99841094e-01 9.99840021e-01 9.99839425e-01 1.11275411e-04 1.11309433e-04 9.99836206e-01 9.99834120e-01 9.99836326e-01 9.99837518e-01 9.99838293e-01 9.99838829e-01 9.99839127e-01 9.99839365e-01 9.99839544e-01 9.99839723e-01 9.99836445e-01 9.99837160e-01 9.99833882e-01 9.99799609e-01 9.99634743e-01 9.98899400e-01 9.93944585e-01 9.31025505e-01 4.60980684e-01 1.07963361e-01 6.39676526e-02 2.60874093e-01 9.61598873e-01 9.98915076e-01 9.98899639e-01 9.99834836e-01 9.99840379e-01 9.99839842e-01 9.99839544e-01 1.11240668e-04 1.11271780e-04 1.15003924e-04 3.26094887e-04 9.24373686e-01 9.99837875e-01 9.99834597e-01 9.99835014e-01 9.99835014e-01 9.99831736e-01 9.99830186e-01 9.99836624e-01 9.99839425e-01 9.99839604e-01 9.99839783e-01 9.99839962e-01 9.99835134e-01 9.99766171e-01 9.99373317e-01 9.96434629e-01 9.60495114e-01 7.30707943e-01 5.41219234e-01 8.15063000e-01 9.89931822e-01 9.97898817e-01 9.98644590e-01 9.99840260e-01 9.99840140e-01 9.99839783e-01 9.99839723e-01 1.11215013e-04 1.11239606e-04 1.11202411e-04 1.18270563e-03 1.58646755e-04 1.27845502e-04 1.26832892e-04 9.36966419e-01 9.99094069e-01 9.99593794e-01 9.99745548e-01 9.99819517e-01 9.99838948e-01 9.99839306e-01 9.99839544e-01 9.99839723e-01 9.99839842e-01 9.99839902e-01 9.99828458e-01 9.99620080e-01 9.98719215e-01 9.96969819e-01 9.95867610e-01 9.96218026e-01 9.96954381e-01 9.95503187e-01 9.99315202e-01 9.99840260e-01 9.99839962e-01 9.99839604e-01 9.99836981e-01 1.11195717e-04 1.11213325e-04 1.11096917e-04 5.22952003e-04 8.85206566e-04 1.50157444e-04 1.11658235e-04 1.10842579e-04 1.10720386e-04 1.59457326e-04 1.50042819e-02 9.58113909e-01 9.99232769e-01 9.99829113e-01 9.99839365e-01 9.99839544e-01 9.99839723e-01 9.99839842e-01 9.99839902e-01 9.99823451e-01 9.99706686e-01 9.99514699e-01 9.99019146e-01 9.97486234e-01 9.94997382e-01 9.95881319e-01 9.99519765e-01 9.99840140e-01 9.99839902e-01 9.99839544e-01 1.52487060e-04 1.11179208e-04 1.11192952e-04 1.11117784e-04 1.68513288e-04 1.12238115e-04 1.08756110e-04 1.08056207e-04 1.09066335e-04 1.08292268e-04 1.08222855e-04 1.08941349e-04 1.10202491e-04 1.58541312e-04 6.93892419e-01 9.99720991e-01 9.99839544e-01 9.99839664e-01 9.99839723e-01 9.99839842e-01 9.99837995e-01 9.99794662e-01 9.99544203e-01 9.98825669e-01 9.99120295e-01 9.99439240e-01 9.99562323e-01 9.99740005e-01 9.99840081e-01 9.99839783e-01 9.99839783e-01 1.11153000e-04 1.11168694e-04 1.11176538e-04 1.10067107e-04 1.18815369e-04 1.08591805e-04 1.06771164e-04 1.05863917e-04 1.06872802e-04 1.06851541e-04 1.06377127e-04 1.06681458e-04 1.08147156e-04 1.09569504e-04 1.10904635e-04 2.86777708e-04 9.93846536e-01 9.99807119e-01 9.99839723e-01 9.99839842e-01 9.99832511e-01 9.99795616e-01 9.99557853e-01 9.99762952e-01 9.99831438e-01 9.99837220e-01 9.99839127e-01 9.99839783e-01 9.99840081e-01 9.99840021e-01 1.11148402e-04 1.11159541e-04 1.11164481e-04 1.11166533e-04 1.01834958e-04 1.01063619e-04 1.05022191e-04 1.05251864e-04 1.05102277e-04 1.05794752e-04 1.06049360e-04 1.06272324e-04 1.06671243e-04 1.08203174e-04 1.09376204e-04 1.10778565e-04 1.11562382e-04 1.14898328e-04 1.98598253e-03 9.84774172e-01 9.99348521e-01 9.99747336e-01 9.99781907e-01 9.99660850e-01 9.99836743e-01 9.99839902e-01 9.99839783e-01 9.99839544e-01 9.99839306e-01 9.99839783e-01 9.51403081e-01 1.11180787e-04 1.11161957e-04 1.11164387e-04 1.11163165e-04 1.01160935e-04 1.00846970e-04 1.01145059e-04 1.02730824e-04 1.04901832e-04 1.05594314e-04 1.05737810e-04 1.06836240e-04 1.08043008e-04 1.09349479e-04 1.10714274e-04 1.12033740e-04 1.12754438e-04 1.12293681e-04 1.11945599e-04 1.33689493e-04 1.04709491e-02 9.96107221e-01 9.99702096e-01 9.99573290e-01 9.99837220e-01 9.99839962e-01 9.99839842e-01 9.99839604e-01 9.99839246e-01 9.99839008e-01 9.99837399e-01 1.11137466e-04 1.11080008e-04 1.11081245e-04 1.11142006e-04 1.06665400e-04 1.01091238e-04 1.00855621e-04 1.00582205e-04 1.03607519e-04 1.06066072e-04 1.06637832e-04 1.07799904e-04 1.09038927e-04 1.10119865e-04 1.11180248e-04 1.12109454e-04 1.12695423e-04 1.12978661e-04 1.13126654e-04 1.12244437e-04 1.19391741e-04 2.69692531e-03 9.97238755e-01 9.99528408e-01 9.99721348e-01 9.99840200e-01 9.99840140e-01 9.99840081e-01 9.99839842e-01 9.99839306e-01 9.99838471e-01 9.99836445e-01 9.99833643e-01 9.99832869e-01 9.99547422e-01 1.11145608e-04 1.56451206e-04 1.04276893e-04 1.04065861e-04 1.05551233e-04 1.05531137e-04 1.07377848e-04 1.08543682e-04 1.09559922e-04 1.10512185e-04 1.11329595e-04 1.11973233e-04 1.12358306e-04 1.12621987e-04 1.12907306e-04 1.13121991e-04 1.12010101e-04 1.19025797e-04 3.65147251e-03 9.97364402e-01 9.99188662e-01 9.99743581e-01 9.99840498e-01 9.99840617e-01 9.99840856e-01 9.99841213e-01 9.99841392e-01 9.99840975e-01 9.99839544e-01 9.99838650e-01 9.99837279e-01 1.12701251e-04 9.24075902e-01 1.10460533e-04 1.07865068e-04 1.08571337e-04 1.07726773e-04 1.07349239e-04 1.08466942e-04 1.09651512e-04 1.10532092e-04 1.11178590e-04 1.11624300e-04 1.11887006e-04 1.12091606e-04 1.12308597e-04 1.12423579e-04 1.12528585e-04 1.10662368e-04 1.16348907e-04 1.29440322e-03 9.87882733e-01 9.98717308e-01 9.98783290e-01 9.99822617e-01 9.99841511e-01 9.99842882e-01 9.99845505e-01 9.99847054e-01 9.99847293e-01 9.99847293e-01 9.99842525e-01 1.82851451e-04 9.99723017e-01 1.11984249e-04 1.11759051e-04 1.11030415e-04 1.09908564e-04 1.08814056e-04 1.08776323e-04 1.09607689e-04 1.10358749e-04 1.10814159e-04 1.11098328e-04 1.11258407e-04 1.11364876e-04 1.11486108e-04 1.11649155e-04 1.12571695e-04 1.12074275e-04 1.09486151e-04 1.16025374e-04 1.81513227e-04 1.49143795e-02 9.64529812e-01 9.89784181e-01 9.49282765e-01 7.40142584e-01 6.22587046e-03 1.22580561e-04 1.12366994e-04 1.13209746e-04 1.14972281e-04 9.58769873e-04 9.99829948e-01 1.12845664e-04 1.13940761e-04 1.12917558e-04 1.11783120e-04 1.10580368e-04 1.09836081e-04 1.09859109e-04 1.10136411e-04 1.10341462e-04 1.10514542e-04 1.10655485e-04 1.10778958e-04 1.10997898e-04 1.11592592e-04 1.13628936e-04 1.15558112e-04 1.16924923e-04 1.32391258e-04 1.18292075e-04 1.12206217e-04 1.11290581e-04 1.16116054e-04 1.21751233e-04 1.13011476e-04 1.12879723e-04 1.14336181e-04 1.14343333e-04 1.15982839e-04 1.13894574e-04 3.48865287e-04 9.99717295e-01 1.13548114e-04 1.15414252e-04 1.14138711e-04 1.13221198e-04 1.12237976e-04 1.11200032e-04 1.10432098e-04 1.09963999e-04 1.09861860e-04 1.09987537e-04 1.10205401e-04 1.10482833e-04 1.10905879e-04 1.11812362e-04 1.14316324e-04 1.19101678e-04 1.16832685e-04 3.37817066e-04 1.23423582e-04 1.11928530e-04 1.10404981e-04 1.10307767e-04 1.10712674e-04 1.11148009e-04 1.12654452e-04 1.15742077e-04 1.16169693e-04 1.15996423e-04 1.14410890e-04 1.23098056e-04 9.85652983e-01 1.14415205e-04 1.17813506e-04 1.14966329e-04 1.14067705e-04 1.13394482e-04 1.12345384e-04 1.11063171e-04 1.09952023e-04 1.09622430e-04 1.09691660e-04 1.09951157e-04 1.10436624e-04 1.11188463e-04 1.12260372e-04 1.14144881e-04 1.18616386e-04 1.15493276e-04 5.43840928e-04 1.52470515e-04 1.09067973e-04 1.08802778e-04 1.09972207e-04 1.11036781e-04 1.12116250e-04 1.13393129e-04 1.15607647e-04 1.15763498e-04 1.14992268e-04 1.13045215e-04 1.11362955e-04 2.34640688e-02 1.15012219e-04 1.20510202e-04 1.15496434e-04 1.13211339e-04 1.14646879e-04 1.12988411e-04 1.11542431e-04 1.10228146e-04 1.10070214e-04 1.10115318e-04 1.10235116e-04 1.10812922e-04 1.12137190e-04 1.14099537e-04 1.16749827e-04 1.20550802e-04 1.16845476e-04 1.47154962e-04 1.17804535e-04 1.07487336e-04 1.07257285e-04 1.09833243e-04 1.11867754e-04 1.13256268e-04 1.14017617e-04 1.14625735e-04 1.14483308e-04 1.13969705e-04 1.12461472e-04 1.11149762e-04 5.42279507e-04 1.13883470e-04 1.20796096e-04 1.17831965e-04 1.41602315e-04 1.13047805e-04 1.13198541e-04 1.11852394e-04 1.11019530e-04 1.11451613e-04 1.11398840e-04 1.11486530e-04 1.11920417e-04 1.13930219e-04 1.17153919e-04 1.20899997e-04 1.21582038e-04 1.18700918e-04 1.07315573e-04 1.07401887e-04 1.05799714e-04 1.06159408e-04 1.09639717e-04 1.11956928e-04 1.13339338e-04 1.13617643e-04 1.13622613e-04 1.13387694e-04 1.13022528e-04 1.12040616e-04 1.11137793e-04 1.12305250e-04 1.11916292e-04 1.15646799e-04 1.22084195e-04 1.16348318e-04 1.14472125e-04 1.12136760e-04 1.12772439e-04 1.12568559e-04 1.15212679e-04 1.12549300e-04 1.13512106e-04 1.14218012e-04 1.16773830e-04 1.18843906e-04 1.19793724e-04 1.16766409e-04 1.12796144e-04 1.08482178e-04 1.06590451e-04 1.06572341e-04 1.06495216e-04 1.10079985e-04 1.11775640e-04 1.13237300e-04 1.12951442e-04 1.12627291e-04 1.12391652e-04 1.12103109e-04 1.11643305e-04 9.99688864e-01 2.95290432e-04 1.11136767e-04 1.17940312e-04 1.18274758e-04 1.25820268e-04 1.29481035e-04 1.40705000e-04 1.14096612e-04 1.31433320e-04 1.31948589e-04 1.15289251e-04 1.11143876e-04 1.12556561e-04 1.15496157e-04 1.16316383e-04 1.14190669e-04 1.11663234e-04 1.10418601e-04 9.99840260e-01 9.82010782e-01 1.07906933e-04 1.08343316e-04 1.10846282e-04 1.11363013e-04 1.12479938e-04 1.12565052e-04 1.11771231e-04 1.11520945e-04 1.11195346e-04 1.11230402e-04 2.40152061e-04 9.96420085e-01 9.99840260e-01 9.98328567e-01 9.28656042e-01 1.13866903e-04 1.18848664e-04 1.18519310e-04 4.45354963e-04 1.24008089e-04 1.38476607e-04 1.22458572e-04 2.90483646e-02 3.16271216e-01 4.46639577e-04 1.19116623e-04 1.10087043e-04 1.09477289e-04 1.12581547e-04 1.10045847e-04 1.11159672e-04 1.09401873e-04 1.09033921e-04 1.11448971e-04 1.11460206e-04 1.16578020e-04 1.11458459e-04 1.11074260e-04 1.10924921e-04 1.10837398e-04 1.10909408e-04 
