# vtk DataFile Version 2.0
results_case1_non_linear/iter1.vtk, Created by Freefem++ 
ASCII
DATASET UNSTRUCTURED_GRID
POINTS 961 float
0 0 0
0.033333333 0 0
0.066666667 0 0
0.1 0 0
0.13333333 0 0
0.16666667 0 0
0.2 0 0
0.23333333 0 0
0.26666667 0 0
0.3 0 0
0.33333333 0 0
0.36666667 0 0
0.4 0 0
0.43333333 0 0
0.46666667 0 0
0.5 0 0
0.53333333 0 0
0.56666667 0 0
0.6 0 0
0.63333333 0 0
0.66666667 0 0
0.7 0 0
0.73333333 0 0
0.76666667 0 0
0.8 0 0
0.83333333 0 0
0.86666667 0 0
0.9 0 0
0.93333333 0 0
0.96666667 0 0
1 0 0
0 0.033333333 0
0.033333333 0.033333333 0
0.066666667 0.033333333 0
0.1 0.033333333 0
0.13333333 0.033333333 0
0.16666667 0.033333333 0
0.2 0.033333333 0
0.23333333 0.033333333 0
0.26666667 0.033333333 0
0.3 0.033333333 0
0.33333333 0.033333333 0
0.36666667 0.033333333 0
0.4 0.033333333 0
0.43333333 0.033333333 0
0.46666667 0.033333333 0
0.5 0.033333333 0
0.53333333 0.033333333 0
0.56666667 0.033333333 0
0.6 0.033333333 0
0.63333333 0.033333333 0
0.66666667 0.033333333 0
0.7 0.033333333 0
0.73333333 0.033333333 0
0.76666667 0.033333333 0
0.8 0.033333333 0
0.83333333 0.033333333 0
0.86666667 0.033333333 0
0.9 0.033333333 0
0.93333333 0.033333333 0
0.96666667 0.033333333 0
1 0.033333333 0
0 0.066666667 0
0.033333333 0.066666667 0
0.066666667 0.066666667 0
0.1 0.066666667 0
0.13333333 0.066666667 0
0.16666667 0.066666667 0
0.2 0.066666667 0
0.23333333 0.066666667 0
0.26666667 0.066666667 0
0.3 0.066666667 0
0.33333333 0.066666667 0
0.36666667 0.066666667 0
0.4 0.066666667 0
0.43333333 0.066666667 0
0.46666667 0.066666667 0
0.5 0.066666667 0
0.53333333 0.066666667 0
0.56666667 0.066666667 0
0.6 0.066666667 0
0.63333333 0.066666667 0
0.66666667 0.066666667 0
0.7 0.066666667 0
0.73333333 0.066666667 0
0.76666667 0.066666667 0
0.8 0.066666667 0
0.83333333 0.066666667 0
0.86666667 0.066666667 0
0.9 0.066666667 0
0.93333333 0.066666667 0
0.96666667 0.066666667 0
1 0.066666667 0
0 0.1 0
0.033333333 0.1 0
0.066666667 0.1 0
0.1 0.1 0
0.13333333 0.1 0
0.16666667 0.1 0
0.2 0.1 0
0.23333333 0.1 0
0.26666667 0.1 0
0.3 0.1 0
0.33333333 0.1 0
0.36666667 0.1 0
0.4 0.1 0
0.43333333 0.1 0
0.46666667 0.1 0
0.5 0.1 0
0.53333333 0.1 0
0.56666667 0.1 0
0.6 0.1 0
0.63333333 0.1 0
0.66666667 0.1 0
0.7 0.1 0
0.73333333 0.1 0
0.76666667 0.1 0
0.8 0.1 0
0.83333333 0.1 0
0.86666667 0.1 0
0.9 0.1 0
0.93333333 0.1 0
0.96666667 0.1 0
1 0.1 0
0 0.13333333 0
0.033333333 0.13333333 0
0.066666667 0.13333333 0
0.1 0.13333333 0
0.13333333 0.13333333 0
0.16666667 0.13333333 0
0.2 0.13333333 0
0.23333333 0.13333333 0
0.26666667 0.13333333 0
0.3 0.13333333 0
0.33333333 0.13333333 0
0.36666667 0.13333333 0
0.4 0.13333333 0
0.43333333 0.13333333 0
0.46666667 0.13333333 0
0.5 0.13333333 0
0.53333333 0.13333333 0
0.56666667 0.13333333 0
0.6 0.13333333 0
0.63333333 0.13333333 0
0.66666667 0.13333333 0
0.7 0.13333333 0
0.73333333 0.13333333 0
0.76666667 0.13333333 0
0.8 0.13333333 0
0.83333333 0.13333333 0
0.86666667 0.13333333 0
0.9 0.13333333 0
0.93333333 0.13333333 0
0.96666667 0.13333333 0
1 0.13333333 0
0 0.16666667 0
0.033333333 0.16666667 0
0.066666667 0.16666667 0
0.1 0.16666667 0
0.13333333 0.16666667 0
0.16666667 0.16666667 0
0.2 0.16666667 0
0.23333333 0.16666667 0
0.26666667 0.16666667 0
0.3 0.16666667 0
0.33333333 0.16666667 0
0.36666667 0.16666667 0
0.4 0.16666667 0
0.43333333 0.16666667 0
0.46666667 0.16666667 0
0.5 0.16666667 0
0.53333333 0.16666667 0
0.56666667 0.16666667 0
0.6 0.16666667 0
0.63333333 0.16666667 0
0.66666667 0.16666667 0
0.7 0.16666667 0
0.73333333 0.16666667 0
0.76666667 0.16666667 0
0.8 0.16666667 0
0.83333333 0.16666667 0
0.86666667 0.16666667 0
0.9 0.16666667 0
0.93333333 0.16666667 0
0.96666667 0.16666667 0
1 0.16666667 0
0 0.2 0
0.033333333 0.2 0
0.066666667 0.2 0
0.1 0.2 0
0.13333333 0.2 0
0.16666667 0.2 0
0.2 0.2 0
0.23333333 0.2 0
0.26666667 0.2 0
0.3 0.2 0
0.33333333 0.2 0
0.36666667 0.2 0
0.4 0.2 0
0.43333333 0.2 0
0.46666667 0.2 0
0.5 0.2 0
0.53333333 0.2 0
0.56666667 0.2 0
0.6 0.2 0
0.63333333 0.2 0
0.66666667 0.2 0
0.7 0.2 0
0.73333333 0.2 0
0.76666667 0.2 0
0.8 0.2 0
0.83333333 0.2 0
0.86666667 0.2 0
0.9 0.2 0
0.93333333 0.2 0
0.96666667 0.2 0
1 0.2 0
0 0.23333333 0
0.033333333 0.23333333 0
0.066666667 0.23333333 0
0.1 0.23333333 0
0.13333333 0.23333333 0
0.16666667 0.23333333 0
0.2 0.23333333 0
0.23333333 0.23333333 0
0.26666667 0.23333333 0
0.3 0.23333333 0
0.33333333 0.23333333 0
0.36666667 0.23333333 0
0.4 0.23333333 0
0.43333333 0.23333333 0
0.46666667 0.23333333 0
0.5 0.23333333 0
0.53333333 0.23333333 0
0.56666667 0.23333333 0
0.6 0.23333333 0
0.63333333 0.23333333 0
0.66666667 0.23333333 0
0.7 0.23333333 0
0.73333333 0.23333333 0
0.76666667 0.23333333 0
0.8 0.23333333 0
0.83333333 0.23333333 0
0.86666667 0.23333333 0
0.9 0.23333333 0
0.93333333 0.23333333 0
0.96666667 0.23333333 0
1 0.23333333 0
0 0.26666667 0
0.033333333 0.26666667 0
0.066666667 0.26666667 0
0.1 0.26666667 0
0.13333333 0.26666667 0
0.16666667 0.26666667 0
0.2 0.26666667 0
0.23333333 0.26666667 0
0.26666667 0.26666667 0
0.3 0.26666667 0
0.33333333 0.26666667 0
0.36666667 0.26666667 0
0.4 0.26666667 0
0.43333333 0.26666667 0
0.46666667 0.26666667 0
0.5 0.26666667 0
0.53333333 0.26666667 0
0.56666667 0.26666667 0
0.6 0.26666667 0
0.63333333 0.26666667 0
0.66666667 0.26666667 0
0.7 0.26666667 0
0.73333333 0.26666667 0
0.76666667 0.26666667 0
0.8 0.26666667 0
0.83333333 0.26666667 0
0.86666667 0.26666667 0
0.9 0.26666667 0
0.93333333 0.26666667 0
0.96666667 0.26666667 0
1 0.26666667 0
0 0.3 0
0.033333333 0.3 0
0.066666667 0.3 0
0.1 0.3 0
0.13333333 0.3 0
0.16666667 0.3 0
0.2 0.3 0
0.23333333 0.3 0
0.26666667 0.3 0
0.3 0.3 0
0.33333333 0.3 0
0.36666667 0.3 0
0.4 0.3 0
0.43333333 0.3 0
0.46666667 0.3 0
0.5 0.3 0
0.53333333 0.3 0
0.56666667 0.3 0
0.6 0.3 0
0.63333333 0.3 0
0.66666667 0.3 0
0.7 0.3 0
0.73333333 0.3 0
0.76666667 0.3 0
0.8 0.3 0
0.83333333 0.3 0
0.86666667 0.3 0
0.9 0.3 0
0.93333333 0.3 0
0.96666667 0.3 0
1 0.3 0
0 0.33333333 0
0.033333333 0.33333333 0
0.066666667 0.33333333 0
0.1 0.33333333 0
0.13333333 0.33333333 0
0.16666667 0.33333333 0
0.2 0.33333333 0
0.23333333 0.33333333 0
0.26666667 0.33333333 0
0.3 0.33333333 0
0.33333333 0.33333333 0
0.36666667 0.33333333 0
0.4 0.33333333 0
0.43333333 0.33333333 0
0.46666667 0.33333333 0
0.5 0.33333333 0
0.53333333 0.33333333 0
0.56666667 0.33333333 0
0.6 0.33333333 0
0.63333333 0.33333333 0
0.66666667 0.33333333 0
0.7 0.33333333 0
0.73333333 0.33333333 0
0.76666667 0.33333333 0
0.8 0.33333333 0
0.83333333 0.33333333 0
0.86666667 0.33333333 0
0.9 0.33333333 0
0.93333333 0.33333333 0
0.96666667 0.33333333 0
1 0.33333333 0
0 0.36666667 0
0.033333333 0.36666667 0
0.066666667 0.36666667 0
0.1 0.36666667 0
0.13333333 0.36666667 0
0.16666667 0.36666667 0
0.2 0.36666667 0
0.23333333 0.36666667 0
0.26666667 0.36666667 0
0.3 0.36666667 0
0.33333333 0.36666667 0
0.36666667 0.36666667 0
0.4 0.36666667 0
0.43333333 0.36666667 0
0.46666667 0.36666667 0
0.5 0.36666667 0
0.53333333 0.36666667 0
0.56666667 0.36666667 0
0.6 0.36666667 0
0.63333333 0.36666667 0
0.66666667 0.36666667 0
0.7 0.36666667 0
0.73333333 0.36666667 0
0.76666667 0.36666667 0
0.8 0.36666667 0
0.83333333 0.36666667 0
0.86666667 0.36666667 0
0.9 0.36666667 0
0.93333333 0.36666667 0
0.96666667 0.36666667 0
1 0.36666667 0
0 0.4 0
0.033333333 0.4 0
0.066666667 0.4 0
0.1 0.4 0
0.13333333 0.4 0
0.16666667 0.4 0
0.2 0.4 0
0.23333333 0.4 0
0.26666667 0.4 0
0.3 0.4 0
0.33333333 0.4 0
0.36666667 0.4 0
0.4 0.4 0
0.43333333 0.4 0
0.46666667 0.4 0
0.5 0.4 0
0.53333333 0.4 0
0.56666667 0.4 0
0.6 0.4 0
0.63333333 0.4 0
0.66666667 0.4 0
0.7 0.4 0
0.73333333 0.4 0
0.76666667 0.4 0
0.8 0.4 0
0.83333333 0.4 0
0.86666667 0.4 0
0.9 0.4 0
0.93333333 0.4 0
0.96666667 0.4 0
1 0.4 0
0 0.43333333 0
0.033333333 0.43333333 0
0.066666667 0.43333333 0
0.1 0.43333333 0
0.13333333 0.43333333 0
0.16666667 0.43333333 0
0.2 0.43333333 0
0.23333333 0.43333333 0
0.26666667 0.43333333 0
0.3 0.43333333 0
0.33333333 0.43333333 0
0.36666667 0.43333333 0
0.4 0.43333333 0
0.43333333 0.43333333 0
0.46666667 0.43333333 0
0.5 0.43333333 0
0.53333333 0.43333333 0
0.56666667 0.43333333 0
0.6 0.43333333 0
0.63333333 0.43333333 0
0.66666667 0.43333333 0
0.7 0.43333333 0
0.73333333 0.43333333 0
0.76666667 0.43333333 0
0.8 0.43333333 0
0.83333333 0.43333333 0
0.86666667 0.43333333 0
0.9 0.43333333 0
0.93333333 0.43333333 0
0.96666667 0.43333333 0
1 0.43333333 0
0 0.46666667 0
0.033333333 0.46666667 0
0.066666667 0.46666667 0
0.1 0.46666667 0
0.13333333 0.46666667 0
0.16666667 0.46666667 0
0.2 0.46666667 0
0.23333333 0.46666667 0
0.26666667 0.46666667 0
0.3 0.46666667 0
0.33333333 0.46666667 0
0.36666667 0.46666667 0
0.4 0.46666667 0
0.43333333 0.46666667 0
0.46666667 0.46666667 0
0.5 0.46666667 0
0.53333333 0.46666667 0
0.56666667 0.46666667 0
0.6 0.46666667 0
0.63333333 0.46666667 0
0.66666667 0.46666667 0
0.7 0.46666667 0
0.73333333 0.46666667 0
0.76666667 0.46666667 0
0.8 0.46666667 0
0.83333333 0.46666667 0
0.86666667 0.46666667 0
0.9 0.46666667 0
0.93333333 0.46666667 0
0.96666667 0.46666667 0
1 0.46666667 0
0 0.5 0
0.033333333 0.5 0
0.066666667 0.5 0
0.1 0.5 0
0.13333333 0.5 0
0.16666667 0.5 0
0.2 0.5 0
0.23333333 0.5 0
0.26666667 0.5 0
0.3 0.5 0
0.33333333 0.5 0
0.36666667 0.5 0
0.4 0.5 0
0.43333333 0.5 0
0.46666667 0.5 0
0.5 0.5 0
0.53333333 0.5 0
0.56666667 0.5 0
0.6 0.5 0
0.63333333 0.5 0
0.66666667 0.5 0
0.7 0.5 0
0.73333333 0.5 0
0.76666667 0.5 0
0.8 0.5 0
0.83333333 0.5 0
0.86666667 0.5 0
0.9 0.5 0
0.93333333 0.5 0
0.96666667 0.5 0
1 0.5 0
0 0.53333333 0
0.033333333 0.53333333 0
0.066666667 0.53333333 0
0.1 0.53333333 0
0.13333333 0.53333333 0
0.16666667 0.53333333 0
0.2 0.53333333 0
0.23333333 0.53333333 0
0.26666667 0.53333333 0
0.3 0.53333333 0
0.33333333 0.53333333 0
0.36666667 0.53333333 0
0.4 0.53333333 0
0.43333333 0.53333333 0
0.46666667 0.53333333 0
0.5 0.53333333 0
0.53333333 0.53333333 0
0.56666667 0.53333333 0
0.6 0.53333333 0
0.63333333 0.53333333 0
0.66666667 0.53333333 0
0.7 0.53333333 0
0.73333333 0.53333333 0
0.76666667 0.53333333 0
[...]
CELL_DATA 1920
Scalars  Label int 1
LOOKUP_TABLE FreeFempp_table
0
0
0
0
0
0
0
0
0
0
0
0
0
0
0
0
0
0
0
0
0
0
0
0
0
0
0
0
0
0
0
0
0
0
0
0
0
0
0
0
0
0
0
0
0
0
0
0
0
0
0
0
0
0
0
0
0
0
0
0
0
0
0
0
0
0
0
0
0
0
0
0
0
0
0
0
0
0
0
0
0
0
0
0
0
0
0
0
0
0
0
0
0
0
0
0
0
0
0
0
0
0
0
0
0
0
0
0
0
0
0
0
0
0
0
0
0
0
0
0
0
0
0
0
0
0
0
0
0
0
0
0
0
0
0
0
0
0
0
0
0
0
0
0
0
0
0
0
0
0
0
0
0
0
0
0
0
0
0
0
0
0
0
0
0
0
0
0
0
0
0
0
0
0
0
0
0
0
0
0
0
0
0
0
0
0
0
0
0
0
0
0
0
0
0
0
0
0
0
0
0
0
0
0
0
0
0
0
0
0
0
0
0
0
0
0
0
0
0
0
0
0
0
0
0
0
0
0
0
0
0
0
0
0
0
0
0
0
0
0
0
0
0
0
0
0
0
0
0
0
0
0
0
0
0
0
0
0
0
0
0
0
0
0
0
0
0
0
0
0
0
0
0
0
0
0
0
0
0
0
0
0
0
0
0
0
0
0
0
0
0
0
0
0
0
0
0
0
0
0
0
0
0
0
0
0
0
0
0
0
0
0
0
0
0
0
0
0
0
0
0
0
0
0
0
0
0
0
0
0
0
0
0
0
0
0
0
0
0
0
0
0
0
0
0
0
0
0
0
0
0
0
0
0
0
0
0
0
0
0
0
0
0
0
0
0
0
0
0
0
0
0
0
0
0
0
0
0
0
0
0
0
0
0
0
0
0
0
0
0
0
0
0
0
0
0
0
0
0
0
0
0
0
0
0
0
0
0
0
0
0
0
0
0
0
0
0
0
0
0
0
0
0
0
0
0
0
0
0
0
0
0
0
0
0
0
0
0
0
0
0
0
0
0
0
0
0
0
0
0
0
0
0
0
0
0
0
0
0
0
0
0
0
0
0
0
0
0
0
0
0
0
0
0
0
0
0
0
0
0
0
0
0
0
0
0
0
0
0
0
0
0
0
0
0
0
0
0
0
0
0
0
0
0
0
0
0
0
0
0
0
0
0
0
0
0
0
0
0
0
0
0
0
0
0
0
0
0
0
0
0
0
0
0
0
0
0
0
0
0
0
0
0
0
0
0
0
0
0
0
0
0
0
0
0
0
0
0
0
0
0
0
0
0
0
0
0
0
0
0
0
0
0
0
0
0
0
0
0
0
0
0
0
0
0
0
0
0
0
0
0
0
0
0
0
0
0
0
0
0
0
0
0
0
0
0
0
0
0
0
0
0
0
0
0
0
0
0
0
0
0
0
0
0
0
0
0
0
0
0
0
0
0
0
0
0
0
0
0
0
0
0
0
0
0
0
0
0
0
0
0
0
0
0
0
0
0
0
0
0
0
0
0
0
0
0
0
0
0
0
0
0
0
0
0
0
0
0
0
0
0
0
0
0
0
0
0
0
0
0
0
0
0
0
0
0
0
0
0
0
0
0
0
0
0
0
0
0
0
0
0
0
0
0
0
0
0
0
0
0
0
0
0
0
0
0
0
0
0
0
0
0
0
0
0
0
0
0
0
0
0
0
0
0
0
0
0
0
0
0
0
0
0
0
0
0
0
0
0
0
0
0
0
0
0
0
0
0
0
0
0
0
0
0
0
0
0
0
0
0
0
0
0
0
0
0
0
0
0
0
0
0
0
0
0
0
0
0
0
0
0
0
0
0
0
0
0
0
0
0
0
0
0
0
0
0
0
0
0
0
0
0
0
0
0
0
0
0
0
0
0
0
0
0
0
0
0
0
0
0
0
0
0
0
0
0
0
0
0
0
0
0
0
0
0
0
0
0
0
0
0
0
0
0
0
0
0
0
0
0
0
0
0
0
0
0
0
0
0
0
0
0
0
0
0
0
0
0
0
0
0
0
0
0
0
0
0
0
0
0
0
0
0
0
0
0
0
0
0
0
0
0
0
0
0
0
0
0
0
0
0
0
0
0
0
0
0
0
0
0
0
0
0
0
0
0
0
0
0
0
0
0
0
0
0
0
0
0
0
0
0
0
0
0
0
0
0
0
0
0
0
0
0
0
0
0
0
0
0
0
0
0
0
0
0
0
0
0
0
0
0
0
0
0
0
0
0
0
0
0
0
0
0
0
0
0
0
0
0
0
0
0
0
0
0
0
0
0
0
0
0
0
0
0
0
0
0
0
0
0
0
0
0
0
0
0
0
0
0
0
0
0
0
0
0
0
0
0
0
0
0
0
0
0
0
0
0
0
0
0
0
0
0
0
0
0
0
0
0
0
0
0
0
0
0
0
0
0
0
0
0
0
0
0
0
0
0
0
0
0
0
0
0
0
0
0
0
0
0
0
0
0
0
0
0
0
0
0
0
0
0
0
0
0
0
0
0
0
0
0
0
0
0
0
0
0
0
0
0
0
0
0
0
0
0
0
0
0
0
0
0
0
0
0
0
0
0
0
0
0
0
0
0
0
0
0
0
0
0
0
0
0
0
0
0
0
0
0
0
0
0
0
0
0
0
0
0
0
0
0
0
0
0
0
0
0
0
0
0
0
0
0
0
0
0
0
0
0
0
0
0
0
0
0
0
0
0
0
0
0
0
0
0
0
0
0
0
0
0
0
0
0
0
0
0
0
0
0
0
0
0
0
0
0
0
0
0
0
0
0
0
0
0
0
0
0
0
0
0
0
0
0
0
0
0
0
0
0
0
0
0
0
0
0
0
0
0
0
0
0
0
0
0
0
0
0
0
0
0
0
0
0
0
0
0
0
0
0
0
0
0
0
0
0
0
0
0
0
0
0
0
0
0
0
0
0
0
0
0
0
0
0
0
0
0
0
0
0
0
0
0
0
0
0
0
0
0
0
0
0
0
0
0
0
0
0
0
0
0
0
0
0
0
0
0
0
0
0
0
0
0
0
0
0
0
0
0
0
0
0
0
0
0
0
0
0
0
0
0
0
0
0
0
0
0
0
0
0
0
0
0
0
0
0
0
0
0
0
0
0
0
0
0
0
0
0
0
0
0
0
0
0
0
0
0
0
0
0
0
0
0
0
0
0
0
0
0
0
0
0
0
0
0
0
0
0
0
0
0
0
0
0
0
0
0
0
0
0
0
0
0
0
0
0
0
0
0
0
0
0
0
0
0
0
0
0
0
0
0
0
0
0
0
0
0
0
0
0
0
0
0
0
0
0
0
0
0
0
0
0
0
0
0
0
0
0
0
0
0
0
0
0
0
0
0
0
0
0
0
0
0
0
0
0
0
0
0
0
0
0
0
0
0
0
0
0
0
0
0
0
0
0
0
0
0
0
0
0
0
0
0
0
0
0
0
0
0
0
0
0
0
0
0
0
0
0
0
0
0
0
0
0
0
0
0
0
0
0
0
0
0
0
0
0
0
0
0
0
0
0
0
0
0
0
0
0
0
0
0
0
0
0
0
0
0
0
0
0
0
0
0
0
0
0
0
0
0
0
0
0
0
0
0
0
0
0
0
0
0
0
0
0
0
0
0
0
0
0
0
0
0
0
0
0
0
0
0
0
0
0
0
0
0
0
0
0
0
0
0
0
0
0
0
0
0
0
0
0
0
0
0
0
0
0
0
0
0
0
0
0
0
0
0
0
0
0
0
0
0
0
0
0
0
0
0
0
0
0
0
0
0
0
0
0
0
0
0
0
0
0
0
0
0
0
0
0
0
0
0
0
0
0
0
0
0
0
0
0
0
0
0
0
0
0
0
0
0
0
0
0
0
0
0
0
0
0
0
0
0
0
0
0
0
0
0
0
0
0
0
0
0
0
0
0
0
0
0
0
0
0
0
0
0
0
0
0
0
0
0
0
0
0
0
0
0
0
0
0
0
0
0
0
0
0
0
0
0
0
0
0
0
0
0
0
0
0
0
0
0
0
0
0
0
0
0
0
0
0
0
0
0
0
0
0
0
0
0
0
0
0
1
1
1
1
1
1
1
1
1
1
1
1
1
1
1
1
1
1
1
1
1
1
1
1
1
1
1
1
1
1
2
2
2
2
2
2
2
2
2
2
2
2
2
2
2
2
2
2
2
2
2
2
2
2
2
2
2
2
2
2
3
3
3
3
3
3
3
3
3
3
3
3
3
3
3
3
3
3
3
3
3
3
3
3
3
3
3
3
3
3
4
4
4
4
4
4
4
4
4
4
4
4
4
4
4
4
4
4
4
4
4
4
4
4
4
4
4
4
4
4

LOOKUP_TABLE FreeFempp_table 5
1.00000000 0.00000000 0.00000000 1.00000000
1.00000000 1.00000000 0.00000000 1.00000000
1.00000000 0.00000000 1.00000000 1.00000000
0.00000000 1.00000000 0.00000000 1.00000000
0.00000000 1.00000000 1.00000000 1.00000000

POINT_DATA 961
FIELD FieldData 1
Density 1 961 float
7.40938401e-03 2.23819376e-03 2.87747523e-03 2.12923833e-03 1.29275664e-03 1.18469400e-03 1.73201540e-03 2.75556394e-03 4.50773351e-03 3.06202263e-01 4.18703705e-01 4.62508917e-01 4.71146554e-01 4.70456004e-01 4.68995839e-01 4.66817260e-01 4.63209361e-01 4.55096543e-01 4.38112438e-01 4.11942631e-01 3.85290623e-01 3.70039433e-01 3.74390990e-01 4.09514755e-01 4.94026393e-01 6.46428645e-01 8.26283991e-01 8.17231238e-01 5.62516600e-03 8.54481757e-03 4.72374916e-01 1.15420166e-02 2.69293669e-03 2.57177185e-03 2.64605647e-03 1.81234279e-03 1.29289203e-03 1.45395799e-03 2.20986083e-03 2.43378989e-03 2.73629278e-03 3.96973360e-03 1.73360303e-01 3.61955762e-01 4.01153594e-01 4.12208140e-01 4.17495906e-01 4.18141425e-01 4.05080289e-01 3.64204794e-01 3.02376151e-01 2.49302790e-01 2.17750460e-01 2.11471915e-01 2.38780141e-01 3.36893946e-01 5.80442309e-01 8.46516907e-01 9.13763344e-01 4.99068247e-03 2.84843380e-03 2.44483694e-01 1.61325946e-01 7.46764392e-02 7.38793090e-02 1.03587449e-01 1.40468389e-01 1.76835537e-01 1.93066761e-01 1.64049208e-01 1.39535768e-02 4.01386619e-03 2.42525898e-03 2.38033757e-03 3.96093680e-03 1.01937223e-02 2.88524479e-01 3.24049205e-01 3.31923991e-01 3.21942061e-01 2.97143251e-01 2.61278600e-01 2.27356002e-01 2.04777792e-01 2.00829729e-01 2.30901465e-01 3.39276671e-01 5.89460969e-01 8.21416736e-01 8.58674467e-01 3.02718550e-01 2.90225656e-03 4.71995259e-03 1.58799365e-01 6.60471171e-02 7.06680566e-02 1.25388280e-01 1.79954752e-01 2.15056241e-01 2.36212388e-01 2.48570800e-01 2.51254827e-01 2.57571936e-01 2.35559553e-01 4.16651415e-03 2.62258202e-03 2.84963590e-03 4.77351435e-03 2.97618355e-03 2.06164032e-01 2.15780869e-01 2.00497314e-01 1.82890952e-01 1.69653922e-01 1.66415945e-01 1.72177449e-01 2.05633417e-01 3.10460806e-01 5.55022120e-01 7.95336485e-01 8.30724001e-01 4.89386320e-01 4.42505348e-03 4.31181164e-03 1.87830016e-01 8.12240988e-02 8.48587379e-02 1.47721216e-01 2.08124653e-01 2.41826460e-01 2.62315035e-01 2.76580423e-01 2.85013705e-01 2.89249301e-01 2.95454174e-01 2.92987943e-01 2.60013342e-01 4.77485685e-03 6.63444260e-03 3.97415413e-03 3.26524279e-03 2.16514198e-03 1.07293474e-02 4.16398346e-02 7.87136331e-02 9.99234244e-02 1.13881521e-01 1.54132381e-01 2.66501486e-01 5.25173843e-01 7.79374659e-01 8.23315382e-01 5.41016996e-01 4.36986238e-03 4.25441284e-03 2.39451185e-01 1.10445052e-01 1.17040224e-01 1.87068716e-01 2.46270552e-01 2.79184580e-01 3.01139057e-01 3.17422569e-01 3.28897834e-01 3.36271644e-01 3.41759473e-01 3.43860090e-01 3.42918605e-01 3.38447899e-01 3.16979080e-01 7.82798603e-02 5.09404996e-03 2.20272760e-03 4.76395158e-04 2.49469327e-03 1.61109604e-02 3.22355777e-02 5.16017079e-02 8.95360038e-02 1.99974909e-01 4.75594044e-01 7.57165015e-01 8.16281438e-01 5.67003906e-01 4.58493782e-03 4.40780260e-03 3.20389122e-01 1.67628080e-01 1.85049802e-01 2.54145265e-01 3.02023768e-01 3.33657146e-01 3.56760561e-01 3.74009758e-01 3.86457890e-01 3.95287812e-01 4.02102798e-01 4.06993389e-01 4.11063403e-01 4.16986883e-01 4.24264610e-01 4.10230339e-01 3.48527789e-01 1.09785929e-01 6.07701531e-03 3.81894014e-03 9.46957525e-03 1.81670245e-02 2.39052922e-02 4.34724949e-02 1.35000333e-01 4.25008565e-01 7.36771166e-01 8.15426767e-01 5.94068766e-01 4.81595937e-03 4.61570220e-03 4.10601169e-01 2.76713461e-01 3.07629585e-01 3.53255928e-01 3.85271430e-01 4.12255645e-01 4.32752460e-01 4.47176993e-01 4.56801534e-01 4.63197976e-01 4.67800885e-01 4.71270859e-01 4.74949270e-01 4.80977178e-01 4.91126776e-01 5.03949523e-01 5.07400215e-01 4.66318369e-01 3.43340188e-01 1.52841181e-01 7.72871226e-02 4.87943329e-02 4.09949198e-02 2.73754951e-02 1.10142030e-01 4.10512984e-01 7.20267355e-01 8.17041993e-01 6.31149054e-01 5.13057550e-03 4.88087768e-03 5.10038137e-01 4.29128855e-01 4.66892332e-01 4.86653805e-01 5.00199258e-01 5.14984965e-01 5.24566829e-01 5.29191196e-01 5.30164778e-01 5.28928638e-01 5.26596248e-01 5.23860455e-01 5.21801054e-01 5.21857262e-01 5.25322795e-01 5.33001304e-01 5.44809163e-01 5.53290486e-01 5.44087410e-01 5.03746986e-01 4.42824721e-01 3.71037096e-01 2.22785771e-01 1.60700008e-01 2.33296618e-01 4.69352126e-01 7.11546659e-01 8.17589819e-01 6.76843822e-01 5.64865302e-03 5.29796025e-03 6.25573993e-01 6.37562513e-01 6.44727349e-01 6.31856561e-01 6.21674359e-01 6.16948187e-01 6.09807253e-01 6.00763619e-01 5.90313375e-01 5.79217434e-01 5.68067729e-01 5.57310343e-01 5.47659099e-01 5.40017128e-01 5.35116434e-01 5.33410311e-01 5.35242677e-01 5.39841294e-01 5.43809891e-01 5.42735755e-01 5.38182855e-01 5.25681615e-01 4.74903375e-01 4.14237708e-01 4.36989665e-01 5.51921189e-01 7.04587519e-01 8.11625361e-01 7.16594577e-01 6.47401530e-03 5.97019587e-03 6.84487104e-01 7.53914773e-01 7.26026893e-01 7.07416415e-01 6.88725293e-01 6.74073160e-01 6.57645524e-01 6.40606642e-01 6.23065948e-01 6.05512381e-01 5.88347018e-01 5.71940958e-01 5.56862235e-01 5.43835223e-01 5.33510447e-01 5.26262045e-01 5.22029102e-01 5.20201862e-01 5.19946694e-01 5.20086944e-01 5.20156264e-01 5.20151556e-01 5.16037643e-01 5.12680531e-01 5.35050392e-01 5.97120881e-01 6.95764244e-01 7.96809494e-01 7.37166882e-01 7.62239145e-03 6.94228522e-03 6.05900168e-01 6.96831465e-01 6.78985655e-01 6.83335841e-01 6.77379489e-01 6.69224501e-01 6.56363726e-01 6.41261041e-01 6.24577820e-01 6.07140660e-01 5.89559615e-01 5.72321117e-01 5.55944085e-01 5.41174352e-01 5.28988719e-01 5.20210087e-01 5.14837861e-01 5.11882126e-01 5.10359049e-01 5.09868264e-01 5.10773242e-01 5.14822841e-01 5.23848593e-01 5.40983617e-01 5.70943773e-01 6.17935359e-01 6.87293470e-01 7.73400962e-01 7.32779026e-01 8.90738703e-03 8.12334754e-03 4.27413106e-01 4.47065353e-01 5.00936031e-01 5.62338650e-01 5.96149802e-01 6.11393988e-01 6.13726556e-01 6.09064639e-01 6.00104690e-01 5.88679552e-01 5.75937390e-01 5.62549889e-01 5.48957527e-01 5.36144137e-01 5.25688648e-01 5.18118978e-01 5.13921440e-01 5.12597382e-01 5.13058722e-01 5.14737904e-01 5.17949164e-01 5.24414420e-01 5.37047207e-01 5.58465660e-01 5.89599967e-01 6.30780756e-01 6.82099104e-01 7.42940962e-01 7.00033069e-01 9.67919920e-03 9.14130267e-03 2.67605931e-01 2.42659986e-01 3.20301741e-01 4.20535415e-01 4.91187513e-01 5.31570554e-01 5.51351905e-01 5.59321344e-01 5.60279310e-01 5.57109237e-01 5.51501453e-01 5.44285715e-01 5.36064744e-01 5.28839707e-01 5.24325132e-01 5.21189451e-01 5.19469500e-01 5.20283937e-01 5.23845375e-01 5.29501021e-01 5.36159873e-01 5.44036150e-01 5.55336893e-01 5.73592544e-01 6.01835370e-01 6.40290082e-01 6.81186140e-01 7.08815277e-01 6.31570578e-01 9.65736993e-03 9.43356194e-03 1.33712739e-01 1.17676571e-01 2.00106323e-01 3.26352745e-01 4.13825303e-01 4.65612322e-01 4.94406551e-01 5.09947538e-01 5.17739952e-01 5.20916402e-01 5.21266758e-01 5.19731402e-01 5.17466724e-01 5.17455637e-01 5.20213962e-01 5.21671832e-01 5.26998401e-01 5.31889498e-01 5.39654493e-01 5.50559819e-01 5.61697900e-01 5.71049094e-01 5.78871667e-01 5.88922560e-01 6.08614326e-01 6.43681824e-01 6.81728423e-01 6.75920546e-01 5.03903627e-01 1.00580379e-02 9.40051395e-03 5.87795004e-02 5.65564148e-02 1.24374591e-01 2.70716369e-01 3.68282706e-01 4.22918975e-01 4.53647345e-01 4.71238732e-01 4.81574863e-01 4.87725109e-01 4.91322398e-01 4.93419439e-01 4.95809436e-01 5.01486957e-01 5.08034050e-01 5.15092254e-01 5.27079761e-01 5.40327072e-01 5.55005014e-01 5.73410630e-01 5.91043115e-01 6.04450881e-01 6.11591041e-01 6.13822937e-01 6.19333625e-01 6.40925050e-01 6.67772830e-01 6.16981328e-01 2.55825520e-01 1.22355977e-02 1.05988923e-02 2.91515496e-02 3.24823409e-02 9.71610993e-02 2.47805834e-01 3.42121154e-01 3.95447820e-01 4.26026940e-01 4.43709254e-01 4.54444200e-01 4.61416036e-01 4.66231346e-01 4.69972432e-01 4.74518239e-01 4.82738167e-01 4.94379133e-01 5.06223619e-01 5.23248255e-01 5.40732384e-01 5.63803434e-01 5.91300070e-01 6.17768824e-01 6.39651656e-01 6.53641701e-01 6.57417595e-01 6.52543902e-01 6.43930316e-01 6.09746099e-01 4.13737565e-01 7.19492063e-02 1.55023569e-02 1.48612801e-02 1.53511921e-02 1.95383076e-02 1.06197126e-01 2.55470574e-01 3.32307488e-01 3.78684759e-01 4.07244384e-01 4.24375385e-01 4.34969604e-01 4.42086548e-01 4.47389871e-01 4.51953173e-01 4.57165211e-01 4.65122163e-01 4.76770043e-01 4.91730839e-01 5.09862065e-01 5.32616019e-01 5.62655807e-01 5.97635090e-01 6.33157015e-01 6.66331351e-01 6.93668127e-01 7.10774124e-01 7.12014794e-01 6.83600485e-01 5.72005987e-01 2.61499375e-01 5.62647693e-02 2.43354365e-02 2.74370592e-02 8.11124407e-03 1.10110715e-02 1.36834756e-01 2.80781031e-01 3.35928351e-01 3.71415615e-01 3.95390332e-01 4.10809249e-01 4.20850575e-01 4.27933961e-01 4.33572084e-01 4.38781500e-01 4.44545686e-01 4.51972783e-01 4.62019295e-01 4.75550830e-01 4.93918449e-01 5.18585682e-01 5.50695837e-01 5.88657439e-01 6.30078971e-01 6.72829986e-01 7.13613868e-01 7.47701943e-01 7.68131554e-01 7.59407043e-01 6.72203958e-01 3.94305199e-01 1.30803823e-01 8.04783627e-02 9.49961171e-02 5.07456576e-03 6.35006325e-03 1.77831888e-01 3.08081180e-01 3.45243514e-01 3.70070636e-01 3.88268650e-01 4.00984317e-01 4.10003573e-01 4.16909009e-01 4.22798961e-01 4.28472489e-01 4.34652328e-01 4.42008317e-01 4.51153934e-01 4.63038206e-01 4.79231626e-01 5.01335084e-01 5.30316532e-01 5.65947652e-01 6.07292652e-01 6.53070867e-01 7.00787008e-01 7.46436179e-01 7.84486473e-01 8.06829929e-01 7.99619853e-01 7.37034142e-01 6.37910903e-01 6.40876472e-01 5.07046044e-01 4.83093550e-03 4.93194023e-03 2.26253554e-01 3.31499815e-01 3.54060203e-01 3.70253742e-01 3.83072644e-01 3.92897576e-01 4.00713950e-01 4.07397509e-01 4.13532168e-01 4.19556677e-01 4.25909936e-01 4.33036774e-01 4.41392630e-01 4.51681793e-01 4.65069354e-01 4.82924819e-01 5.06350994e-01 5.35717547e-01 5.70804656e-01 6.11015022e-01 6.54901147e-01 6.99855268e-01 7.42227316e-01 7.77449548e-01 8.01695645e-01 8.12042713e-01 8.42587411e-01 8.71693969e-01 7.50188529e-01 6.35429425e-03 5.73838735e-03 2.72396028e-01 3.51422369e-01 3.60744178e-01 3.69499415e-01 3.77729297e-01 3.85009587e-01 3.91769767e-01 3.98337871e-01 4.04811561e-01 4.11232799e-01 4.17730421e-01 4.24541235e-01 4.32006925e-01 4.40672755e-01 4.51376438e-01 4.65112299e-01 4.82721865e-01 5.04568815e-01 5.30535340e-01 5.60122490e-01 5.92158496e-01 6.24503255e-01 6.53982341e-01 6.75885618e-01 6.83128715e-01 6.67849183e-01 6.75617874e-01 6.14049494e-01 6.28360987e-01 8.56648851e-03 7.75356917e-03 3.09586734e-01 3.67946059e-01 3.65490377e-01 3.67262214e-01 3.71464133e-01 3.76650691e-01 3.82637620e-01 3.89256597e-01 3.96177679e-01 4.03085262e-01 4.09824550e-01 4.16435003e-01 4.23136890e-01 4.30347681e-01 4.38681930e-01 4.48833585e-01 4.61358637e-01 4.76463497e-01 4.93962377e-01 5.13283491e-01 5.33240139e-01 5.51764131e-01 5.65881193e-01 5.71186900e-01 5.59891284e-01 5.23893654e-01 5.04598975e-01 4.84926045e-01 5.02610743e-01 1.00100841e-02 9.81958862e-03 3.36863577e-01 3.80785286e-01 3.68498057e-01 3.63818616e-01 3.64462286e-01 3.67980093e-01 3.73471200e-01 3.80262136e-01 3.87652189e-01 3.95043433e-01 4.02061582e-01 4.08581853e-01 4.14702207e-01 4.20715660e-01 4.27066535e-01 4.34245259e-01 4.42631423e-01 4.52351213e-01 4.63227093e-01 4.74750191e-01 4.85893875e-01 4.94859874e-01 4.99164402e-01 4.95685816e-01 4.79306579e-01 4.48200881e-01 4.18958634e-01 3.84755045e-01 4.64541912e-01 8.76265764e-03 9.97770671e-03 3.55275840e-01 3.89997154e-01 3.69624525e-01 3.59399110e-01 3.57210875e-01 3.59600127e-01 3.64882380e-01 3.71892542e-01 3.79639655e-01 3.87347847e-01 3.94515336e-01 4.00909662e-01 4.06525046e-01 4.11536068e-01 4.16243255e-01 4.20987993e-01 4.26040888e-01 4.31501299e-01 4.37249184e-01 4.42912221e-01 4.47710246e-01 4.50125396e-01 4.47843224e-01 4.38280016e-01 4.18427497e-01 3.92243147e-01 3.59390199e-01 3.42007756e-01 4.28059310e-01 5.89508004e-03 7.11629586e-03 3.66586059e-01 3.95672441e-01 3.68061066e-01 3.53707552e-01 3.50018352e-01 3.52162242e-01 3.57618779e-01 3.64834279e-01 3.72681320e-01 3.80356371e-01 3.87349099e-01 3.93394351e-01 3.98417145e-01 4.02485579e-01 4.05766129e-01 4.08464044e-01 4.10746723e-01 4.12668079e-01 4.14120048e-01 4.14803326e-01 4.14124459e-01 4.10828650e-01 4.02529955e-01 3.86459440e-01 3.60122561e-01 3.28704387e-01 2.81602651e-01 2.82341123e-01 4.13166940e-01 5.69640473e-03 4.99556353e-03 3.66368234e-01 3.95961851e-01 3.61737639e-01 3.45956028e-01 3.43078196e-01 3.46277952e-01 3.52321416e-01 3.59579861e-01 3.67074877e-01 3.74181867e-01 3.80512714e-01 3.85841459e-01 3.90053779e-01 3.93115759e-01 3.95050883e-01 3.95909488e-01 3.95722568e-01 3.94443601e-01 3.91895324e-01 3.87740493e-01 3.81462693e-01 3.72179210e-01 3.57908458e-01 3.35547566e-01 3.03639501e-01 2.61464149e-01 1.73968583e-01 1.76959172e-01 3.63592952e-01 4.78885509e-03 5.53988526e-03 3.08637053e-01 3.85265529e-01 3.48785967e-01 3.36532980e-01 3.37524652e-01 3.42819482e-01 3.49310994e-01 3.55967999e-01 3.62352222e-01 3.68204534e-01 3.73331904e-01 3.77564996e-01 3.80740583e-01 3.82698148e-01 3.83282334e-01 3.82341176e-01 3.79712343e-01 3.75194073e-01 3.68509024e-01 3.59293103e-01 3.47167701e-01 3.31869513e-01 3.12911659e-01 2.88034588e-01 2.55184025e-01 2.14028597e-01 1.08174980e-01 9.13195834e-02 2.51066327e-01 7.18705915e-03 3.30239441e-03 7.52052739e-02 3.79028946e-01 3.37103993e-01 3.32124114e-01 3.37289006e-01 3.43055367e-01 3.48115176e-01 3.52668047e-01 3.56903762e-01 3.60845238e-01 3.64389151e-01 3.67337823e-01 3.69415075e-01 3.70278239e-01 3.69533271e-01 3.66754204e-01 3.61507148e-01 3.53378356e-01 3.42013359e-01 3.27198058e-01 3.09053421e-01 2.88392901e-01 2.66938269e-01 2.45713755e-01 2.20258817e-01 1.83350921e-01 9.30977464e-02 5.81622161e-02 1.41093984e-01 3.75305605e-03 4.90881456e-03 1.66840717e-01 4.58678782e-01 3.61074626e-01 3.45413715e-01 3.45925540e-01 3.46314728e-01 3.46945375e-01 3.48125696e-01 3.49817336e-01 3.51862401e-01 3.54024023e-01 3.55970293e-01 3.57252687e-01 3.57293397e-01 3.55388880e-01 3.50737005e-01 3.42498481e-01 3.29907477e-01 3.12448323e-01 2.90113479e-01 2.63747245e-01 2.35417381e-01 2.08590984e-01 1.87267929e-01 1.71419278e-01 1.47044599e-01 7.78096542e-02 3.59698161e-02 8.57187063e-02 7.66904559e-03 5.71899395e-03 6.95951223e-01 5.84538281e-01 5.23201048e-01 4.69345391e-01 4.53833699e-01 4.47978497e-01 4.46102917e-01 4.45976049e-01 4.46663201e-01 4.47761685e-01 4.49034989e-01 4.50251073e-01 4.51109737e-01 4.51207936e-01 4.50023979e-01 4.46915984e-01 4.41137254e-01 4.31879282e-01 4.18361425e-01 3.99994433e-01 3.76649022e-01 3.49049747e-01 3.19239885e-01 2.90937960e-01 2.68945575e-01 2.52766252e-01 2.03133419e-01 8.45628977e-02 9.08190832e-02 
