# vtk DataFile Version 2.0
results_case1_non_linear/iter4.vtk, Created by Freefem++ 
ASCII
DATASET UNSTRUCTURED_GRID
POINTS 961 float
0 0 0
0.033333333 0 0
0.066666667 0 0
0.1 0 0
0.13333333 0 0
0.16666667 0 0
0.2 0 0
0.23333333 0 0
0.26666667 0 0
0.3 0 0
0.33333333 0 0
0.36666667 0 0
0.4 0 0
0.43333333 0 0
0.46666667 0 0
0.5 0 0
0.53333333 0 0
0.56666667 0 0
0.6 0 0
0.63333333 0 0
0.66666667 0 0
0.7 0 0
0.73333333 0 0
0.76666667 0 0
0.8 0 0
0.83333333 0 0
0.86666667 0 0
0.9 0 0
0.93333333 0 0
0.96666667 0 0
1 0 0
0 0.033333333 0
0.033333333 0.033333333 0
0.066666667 0.033333333 0
0.1 0.033333333 0
0.13333333 0.033333333 0
0.16666667 0.033333333 0
0.2 0.033333333 0
0.23333333 0.033333333 0
0.26666667 0.033333333 0
0.3 0.033333333 0
0.33333333 0.033333333 0
0.36666667 0.033333333 0
0.4 0.033333333 0
0.43333333 0.033333333 0
0.46666667 0.033333333 0
0.5 0.033333333 0
0.53333333 0.033333333 0
0.56666667 0.033333333 0
0.6 0.033333333 0
0.63333333 0.033333333 0
0.66666667 0.033333333 0
0.7 0.033333333 0
0.73333333 0.033333333 0
0.76666667 0.033333333 0
0.8 0.033333333 0
0.83333333 0.033333333 0
0.86666667 0.033333333 0
0.9 0.033333333 0
0.93333333 0.033333333 0
0.96666667 0.033333333 0
1 0.033333333 0
0 0.066666667 0
0.033333333 0.066666667 0
0.066666667 0.066666667 0
0.1 0.066666667 0
0.13333333 0.066666667 0
0.16666667 0.066666667 0
0.2 0.066666667 0
0.23333333 0.066666667 0
0.26666667 0.066666667 0
0.3 0.066666667 0
0.33333333 0.066666667 0
0.36666667 0.066666667 0
0.4 0.066666667 0
0.43333333 0.066666667 0
0.46666667 0.066666667 0
0.5 0.066666667 0
0.53333333 0.066666667 0
0.56666667 0.066666667 0
0.6 0.066666667 0
0.63333333 0.066666667 0
0.66666667 0.066666667 0
0.7 0.066666667 0
0.73333333 0.066666667 0
0.76666667 0.066666667 0
0.8 0.066666667 0
0.83333333 0.066666667 0
0.86666667 0.066666667 0
0.9 0.066666667 0
0.93333333 0.066666667 0
0.96666667 0.066666667 0
1 0.066666667 0
0 0.1 0
0.033333333 0.1 0
0.066666667 0.1 0
0.1 0.1 0
0.13333333 0.1 0
0.16666667 0.1 0
0.2 0.1 0
0.23333333 0.1 0
0.26666667 0.1 0
0.3 0.1 0
0.33333333 0.1 0
0.36666667 0.1 0
0.4 0.1 0
0.43333333 0.1 0
0.46666667 0.1 0
0.5 0.1 0
0.53333333 0.1 0
0.56666667 0.1 0
0.6 0.1 0
0.63333333 0.1 0
0.66666667 0.1 0
0.7 0.1 0
0.73333333 0.1 0
0.76666667 0.1 0
0.8 0.1 0
0.83333333 0.1 0
0.86666667 0.1 0
0.9 0.1 0
0.93333333 0.1 0
0.96666667 0.1 0
1 0.1 0
0 0.13333333 0
0.033333333 0.13333333 0
0.066666667 0.13333333 0
0.1 0.13333333 0
0.13333333 0.13333333 0
0.16666667 0.13333333 0
0.2 0.13333333 0
0.23333333 0.13333333 0
0.26666667 0.13333333 0
0.3 0.13333333 0
0.33333333 0.13333333 0
0.36666667 0.13333333 0
0.4 0.13333333 0
0.43333333 0.13333333 0
0.46666667 0.13333333 0
0.5 0.13333333 0
0.53333333 0.13333333 0
0.56666667 0.13333333 0
0.6 0.13333333 0
0.63333333 0.13333333 0
0.66666667 0.13333333 0
0.7 0.13333333 0
0.73333333 0.13333333 0
0.76666667 0.13333333 0
0.8 0.13333333 0
0.83333333 0.13333333 0
0.86666667 0.13333333 0
0.9 0.13333333 0
0.93333333 0.13333333 0
0.96666667 0.13333333 0
1 0.13333333 0
0 0.16666667 0
0.033333333 0.16666667 0
0.066666667 0.16666667 0
0.1 0.16666667 0
0.13333333 0.16666667 0
0.16666667 0.16666667 0
0.2 0.16666667 0
0.23333333 0.16666667 0
0.26666667 0.16666667 0
0.3 0.16666667 0
0.33333333 0.16666667 0
0.36666667 0.16666667 0
0.4 0.16666667 0
0.43333333 0.16666667 0
0.46666667 0.16666667 0
0.5 0.16666667 0
0.53333333 0.16666667 0
0.56666667 0.16666667 0
0.6 0.16666667 0
0.63333333 0.16666667 0
0.66666667 0.16666667 0
0.7 0.16666667 0
0.73333333 0.16666667 0
0.76666667 0.16666667 0
0.8 0.16666667 0
0.83333333 0.16666667 0
0.86666667 0.16666667 0
0.9 0.16666667 0
0.93333333 0.16666667 0
0.96666667 0.16666667 0
1 0.16666667 0
0 0.2 0
0.033333333 0.2 0
0.066666667 0.2 0
0.1 0.2 0
0.13333333 0.2 0
0.16666667 0.2 0
0.2 0.2 0
0.23333333 0.2 0
0.26666667 0.2 0
0.3 0.2 0
0.33333333 0.2 0
0.36666667 0.2 0
0.4 0.2 0
0.43333333 0.2 0
0.46666667 0.2 0
0.5 0.2 0
0.53333333 0.2 0
0.56666667 0.2 0
0.6 0.2 0
0.63333333 0.2 0
0.66666667 0.2 0
0.7 0.2 0
0.73333333 0.2 0
0.76666667 0.2 0
0.8 0.2 0
0.83333333 0.2 0
0.86666667 0.2 0
0.9 0.2 0
0.93333333 0.2 0
0.96666667 0.2 0
1 0.2 0
0 0.23333333 0
0.033333333 0.23333333 0
0.066666667 0.23333333 0
0.1 0.23333333 0
0.13333333 0.23333333 0
0.16666667 0.23333333 0
0.2 0.23333333 0
0.23333333 0.23333333 0
0.26666667 0.23333333 0
0.3 0.23333333 0
0.33333333 0.23333333 0
0.36666667 0.23333333 0
0.4 0.23333333 0
0.43333333 0.23333333 0
0.46666667 0.23333333 0
0.5 0.23333333 0
0.53333333 0.23333333 0
0.56666667 0.23333333 0
0.6 0.23333333 0
0.63333333 0.23333333 0
0.66666667 0.23333333 0
0.7 0.23333333 0
0.73333333 0.23333333 0
0.76666667 0.23333333 0
0.8 0.23333333 0
0.83333333 0.23333333 0
0.86666667 0.23333333 0
0.9 0.23333333 0
0.93333333 0.23333333 0
0.96666667 0.23333333 0
1 0.23333333 0
0 0.26666667 0
0.033333333 0.26666667 0
0.066666667 0.26666667 0
0.1 0.26666667 0
0.13333333 0.26666667 0
0.16666667 0.26666667 0
0.2 0.26666667 0
0.23333333 0.26666667 0
0.26666667 0.26666667 0
0.3 0.26666667 0
0.33333333 0.26666667 0
0.36666667 0.26666667 0
0.4 0.26666667 0
0.43333333 0.26666667 0
0.46666667 0.26666667 0
0.5 0.26666667 0
0.53333333 0.26666667 0
0.56666667 0.26666667 0
0.6 0.26666667 0
0.63333333 0.26666667 0
0.66666667 0.26666667 0
0.7 0.26666667 0
0.73333333 0.26666667 0
0.76666667 0.26666667 0
0.8 0.26666667 0
0.83333333 0.26666667 0
0.86666667 0.26666667 0
0.9 0.26666667 0
0.93333333 0.26666667 0
0.96666667 0.26666667 0
1 0.26666667 0
0 0.3 0
0.033333333 0.3 0
0.066666667 0.3 0
0.1 0.3 0
0.13333333 0.3 0
0.16666667 0.3 0
0.2 0.3 0
0.23333333 0.3 0
0.26666667 0.3 0
0.3 0.3 0
0.33333333 0.3 0
0.36666667 0.3 0
0.4 0.3 0
0.43333333 0.3 0
0.46666667 0.3 0
0.5 0.3 0
0.53333333 0.3 0
0.56666667 0.3 0
0.6 0.3 0
0.63333333 0.3 0
0.66666667 0.3 0
0.7 0.3 0
0.73333333 0.3 0
0.76666667 0.3 0
0.8 0.3 0
0.83333333 0.3 0
0.86666667 0.3 0
0.9 0.3 0
0.93333333 0.3 0
0.96666667 0.3 0
1 0.3 0
0 0.33333333 0
0.033333333 0.33333333 0
0.066666667 0.33333333 0
0.1 0.33333333 0
0.13333333 0.33333333 0
0.16666667 0.33333333 0
0.2 0.33333333 0
0.23333333 0.33333333 0
0.26666667 0.33333333 0
0.3 0.33333333 0
0.33333333 0.33333333 0
0.36666667 0.33333333 0
0.4 0.33333333 0
0.43333333 0.33333333 0
0.46666667 0.33333333 0
0.5 0.33333333 0
0.53333333 0.33333333 0
0.56666667 0.33333333 0
0.6 0.33333333 0
0.63333333 0.33333333 0
0.66666667 0.33333333 0
0.7 0.33333333 0
0.73333333 0.33333333 0
0.76666667 0.33333333 0
0.8 0.33333333 0
0.83333333 0.33333333 0
0.86666667 0.33333333 0
0.9 0.33333333 0
0.93333333 0.33333333 0
0.96666667 0.33333333 0
1 0.33333333 0
0 0.36666667 0
0.033333333 0.36666667 0
0.066666667 0.36666667 0
0.1 0.36666667 0
0.13333333 0.36666667 0
0.16666667 0.36666667 0
0.2 0.36666667 0
0.23333333 0.36666667 0
0.26666667 0.36666667 0
0.3 0.36666667 0
0.33333333 0.36666667 0
0.36666667 0.36666667 0
0.4 0.36666667 0
0.43333333 0.36666667 0
0.46666667 0.36666667 0
0.5 0.36666667 0
0.53333333 0.36666667 0
0.56666667 0.36666667 0
0.6 0.36666667 0
0.63333333 0.36666667 0
0.66666667 0.36666667 0
0.7 0.36666667 0
0.73333333 0.36666667 0
0.76666667 0.36666667 0
0.8 0.36666667 0
0.83333333 0.36666667 0
0.86666667 0.36666667 0
0.9 0.36666667 0
0.93333333 0.36666667 0
0.96666667 0.36666667 0
1 0.36666667 0
0 0.4 0
0.033333333 0.4 0
0.066666667 0.4 0
0.1 0.4 0
0.13333333 0.4 0
0.16666667 0.4 0
0.2 0.4 0
0.23333333 0.4 0
0.26666667 0.4 0
0.3 0.4 0
0.33333333 0.4 0
0.36666667 0.4 0
0.4 0.4 0
0.43333333 0.4 0
0.46666667 0.4 0
0.5 0.4 0
0.53333333 0.4 0
0.56666667 0.4 0
0.6 0.4 0
0.63333333 0.4 0
0.66666667 0.4 0
0.7 0.4 0
0.73333333 0.4 0
0.76666667 0.4 0
0.8 0.4 0
0.83333333 0.4 0
0.86666667 0.4 0
0.9 0.4 0
0.93333333 0.4 0
0.96666667 0.4 0
1 0.4 0
0 0.43333333 0
0.033333333 0.43333333 0
0.066666667 0.43333333 0
0.1 0.43333333 0
0.13333333 0.43333333 0
0.16666667 0.43333333 0
0.2 0.43333333 0
0.23333333 0.43333333 0
0.26666667 0.43333333 0
0.3 0.43333333 0
0.33333333 0.43333333 0
0.36666667 0.43333333 0
0.4 0.43333333 0
0.43333333 0.43333333 0
0.46666667 0.43333333 0
0.5 0.43333333 0
0.53333333 0.43333333 0
0.56666667 0.43333333 0
0.6 0.43333333 0
0.63333333 0.43333333 0
0.66666667 0.43333333 0
0.7 0.43333333 0
0.73333333 0.43333333 0
0.76666667 0.43333333 0
0.8 0.43333333 0
0.83333333 0.43333333 0
0.86666667 0.43333333 0
0.9 0.43333333 0
0.93333333 0.43333333 0
0.96666667 0.43333333 0
1 0.43333333 0
0 0.46666667 0
0.033333333 0.46666667 0
0.066666667 0.46666667 0
0.1 0.46666667 0
0.13333333 0.46666667 0
0.16666667 0.46666667 0
0.2 0.46666667 0
0.23333333 0.46666667 0
0.26666667 0.46666667 0
0.3 0.46666667 0
0.33333333 0.46666667 0
0.36666667 0.46666667 0
0.4 0.46666667 0
0.43333333 0.46666667 0
0.46666667 0.46666667 0
0.5 0.46666667 0
0.53333333 0.46666667 0
0.56666667 0.46666667 0
0.6 0.46666667 0
0.63333333 0.46666667 0
0.66666667 0.46666667 0
0.7 0.46666667 0
0.73333333 0.46666667 0
0.76666667 0.46666667 0
0.8 0.46666667 0
0.83333333 0.46666667 0
0.86666667 0.46666667 0
0.9 0.46666667 0
0.93333333 0.46666667 0
0.96666667 0.46666667 0
1 0.46666667 0
0 0.5 0
0.033333333 0.5 0
0.066666667 0.5 0
0.1 0.5 0
0.13333333 0.5 0
0.16666667 0.5 0
0.2 0.5 0
0.23333333 0.5 0
0.26666667 0.5 0
0.3 0.5 0
0.33333333 0.5 0
0.36666667 0.5 0
0.4 0.5 0
0.43333333 0.5 0
0.46666667 0.5 0
0.5 0.5 0
0.53333333 0.5 0
0.56666667 0.5 0
0.6 0.5 0
0.63333333 0.5 0
0.66666667 0.5 0
0.7 0.5 0
0.73333333 0.5 0
0.76666667 0.5 0
0.8 0.5 0
0.83333333 0.5 0
0.86666667 0.5 0
0.9 0.5 0
0.93333333 0.5 0
0.96666667 0.5 0
1 0.5 0
0 0.53333333 0
0.033333333 0.53333333 0
0.066666667 0.53333333 0
0.1 0.53333333 0
0.13333333 0.53333333 0
0.16666667 0.53333333 0
0.2 0.53333333 0
0.23333333 0.53333333 0
0.26666667 0.53333333 0
0.3 0.53333333 0
0.33333333 0.53333333 0
0.36666667 0.53333333 0
0.4 0.53333333 0
0.43333333 0.53333333 0
0.46666667 0.53333333 0
0.5 0.53333333 0
0.53333333 0.53333333 0
0.56666667 0.53333333 0
0.6 0.53333333 0
0.63333333 0.53333333 0
0.66666667 0.53333333 0
0.7 0.53333333 0
0.73333333 0.53333333 0
0.76666667 0.53333333 0
[...]
CELL_DATA 1920
Scalars  Label int 1
LOOKUP_TABLE FreeFempp_table
0
0
0
0
0
0
0
0
0
0
0
0
0
0
0
0
0
0
0
0
0
0
0
0
0
0
0
0
0
0
0
0
0
0
0
0
0
0
0
0
0
0
0
0
0
0
0
0
0
0
0
0
0
0
0
0
0
0
0
0
0
0
0
0
0
0
0
0
0
0
0
0
0
0
0
0
0
0
0
0
0
0
0
0
0
0
0
0
0
0
0
0
0
0
0
0
0
0
0
0
0
0
0
0
0
0
0
0
0
0
0
0
0
0
0
0
0
0
0
0
0
0
0
0
0
0
0
0
0
0
0
0
0
0
0
0
0
0
0
0
0
0
0
0
0
0
0
0
0
0
0
0
0
0
0
0
0
0
0
0
0
0
0
0
0
0
0
0
0
0
0
0
0
0
0
0
0
0
0
0
0
0
0
0
0
0
0
0
0
0
0
0
0
0
0
0
0
0
0
0
0
0
0
0
0
0
0
0
0
0
0
0
0
0
0
0
0
0
0
0
0
0
0
0
0
0
0
0
0
0
0
0
0
0
0
0
0
0
0
0
0
0
0
0
0
0
0
0
0
0
0
0
0
0
0
0
0
0
0
0
0
0
0
0
0
0
0
0
0
0
0
0
0
0
0
0
0
0
0
0
0
0
0
0
0
0
0
0
0
0
0
0
0
0
0
0
0
0
0
0
0
0
0
0
0
0
0
0
0
0
0
0
0
0
0
0
0
0
0
0
0
0
0
0
0
0
0
0
0
0
0
0
0
0
0
0
0
0
0
0
0
0
0
0
0
0
0
0
0
0
0
0
0
0
0
0
0
0
0
0
0
0
0
0
0
0
0
0
0
0
0
0
0
0
0
0
0
0
0
0
0
0
0
0
0
0
0
0
0
0
0
0
0
0
0
0
0
0
0
0
0
0
0
0
0
0
0
0
0
0
0
0
0
0
0
0
0
0
0
0
0
0
0
0
0
0
0
0
0
0
0
0
0
0
0
0
0
0
0
0
0
0
0
0
0
0
0
0
0
0
0
0
0
0
0
0
0
0
0
0
0
0
0
0
0
0
0
0
0
0
0
0
0
0
0
0
0
0
0
0
0
0
0
0
0
0
0
0
0
0
0
0
0
0
0
0
0
0
0
0
0
0
0
0
0
0
0
0
0
0
0
0
0
0
0
0
0
0
0
0
0
0
0
0
0
0
0
0
0
0
0
0
0
0
0
0
0
0
0
0
0
0
0
0
0
0
0
0
0
0
0
0
0
0
0
0
0
0
0
0
0
0
0
0
0
0
0
0
0
0
0
0
0
0
0
0
0
0
0
0
0
0
0
0
0
0
0
0
0
0
0
0
0
0
0
0
0
0
0
0
0
0
0
0
0
0
0
0
0
0
0
0
0
0
0
0
0
0
0
0
0
0
0
0
0
0
0
0
0
0
0
0
0
0
0
0
0
0
0
0
0
0
0
0
0
0
0
0
0
0
0
0
0
0
0
0
0
0
0
0
0
0
0
0
0
0
0
0
0
0
0
0
0
0
0
0
0
0
0
0
0
0
0
0
0
0
0
0
0
0
0
0
0
0
0
0
0
0
0
0
0
0
0
0
0
0
0
0
0
0
0
0
0
0
0
0
0
0
0
0
0
0
0
0
0
0
0
0
0
0
0
0
0
0
0
0
0
0
0
0
0
0
0
0
0
0
0
0
0
0
0
0
0
0
0
0
0
0
0
0
0
0
0
0
0
0
0
0
0
0
0
0
0
0
0
0
0
0
0
0
0
0
0
0
0
0
0
0
0
0
0
0
0
0
0
0
0
0
0
0
0
0
0
0
0
0
0
0
0
0
0
0
0
0
0
0
0
0
0
0
0
0
0
0
0
0
0
0
0
0
0
0
0
0
0
0
0
0
0
0
0
0
0
0
0
0
0
0
0
0
0
0
0
0
0
0
0
0
0
0
0
0
0
0
0
0
0
0
0
0
0
0
0
0
0
0
0
0
0
0
0
0
0
0
0
0
0
0
0
0
0
0
0
0
0
0
0
0
0
0
0
0
0
0
0
0
0
0
0
0
0
0
0
0
0
0
0
0
0
0
0
0
0
0
0
0
0
0
0
0
0
0
0
0
0
0
0
0
0
0
0
0
0
0
0
0
0
0
0
0
0
0
0
0
0
0
0
0
0
0
0
0
0
0
0
0
0
0
0
0
0
0
0
0
0
0
0
0
0
0
0
0
0
0
0
0
0
0
0
0
0
0
0
0
0
0
0
0
0
0
0
0
0
0
0
0
0
0
0
0
0
0
0
0
0
0
0
0
0
0
0
0
0
0
0
0
0
0
0
0
0
0
0
0
0
0
0
0
0
0
0
0
0
0
0
0
0
0
0
0
0
0
0
0
0
0
0
0
0
0
0
0
0
0
0
0
0
0
0
0
0
0
0
0
0
0
0
0
0
0
0
0
0
0
0
0
0
0
0
0
0
0
0
0
0
0
0
0
0
0
0
0
0
0
0
0
0
0
0
0
0
0
0
0
0
0
0
0
0
0
0
0
0
0
0
0
0
0
0
0
0
0
0
0
0
0
0
0
0
0
0
0
0
0
0
0
0
0
0
0
0
0
0
0
0
0
0
0
0
0
0
0
0
0
0
0
0
0
0
0
0
0
0
0
0
0
0
0
0
0
0
0
0
0
0
0
0
0
0
0
0
0
0
0
0
0
0
0
0
0
0
0
0
0
0
0
0
0
0
0
0
0
0
0
0
0
0
0
0
0
0
0
0
0
0
0
0
0
0
0
0
0
0
0
0
0
0
0
0
0
0
0
0
0
0
0
0
0
0
0
0
0
0
0
0
0
0
0
0
0
0
0
0
0
0
0
0
0
0
0
0
0
0
0
0
0
0
0
0
0
0
0
0
0
0
0
0
0
0
0
0
0
0
0
0
0
0
0
0
0
0
0
0
0
0
0
0
0
0
0
0
0
0
0
0
0
0
0
0
0
0
0
0
0
0
0
0
0
0
0
0
0
0
0
0
0
0
0
0
0
0
0
0
0
0
0
0
0
0
0
0
0
0
0
0
0
0
0
0
0
0
0
0
0
0
0
0
0
0
0
0
0
0
0
0
0
0
0
0
0
0
0
0
0
0
0
0
0
0
0
0
0
0
0
0
0
0
0
0
0
0
0
0
0
0
0
0
0
0
0
0
0
0
0
0
0
0
0
0
0
0
0
0
0
0
0
0
0
0
0
0
0
0
0
0
0
0
0
0
0
0
0
0
0
0
0
0
0
0
0
0
0
0
0
0
0
0
0
0
0
0
0
0
0
0
0
0
0
0
0
0
0
0
0
0
0
0
0
0
0
0
0
0
0
0
0
0
0
0
0
0
0
0
0
0
0
0
0
0
0
0
0
0
0
0
0
0
0
0
0
0
0
0
0
0
0
0
0
0
0
0
0
0
0
0
0
0
0
0
0
0
0
0
0
0
0
0
0
0
0
0
0
0
0
0
0
0
0
0
0
0
0
0
0
0
0
0
0
0
0
0
0
0
0
0
0
0
0
0
0
0
0
0
0
0
0
0
0
0
0
0
0
0
0
0
0
0
0
0
0
0
0
0
0
0
0
0
0
0
0
0
0
0
0
0
0
0
0
0
0
0
0
0
0
0
0
0
0
0
0
0
0
0
0
0
0
0
0
0
0
0
0
0
0
0
0
0
0
0
0
0
0
0
0
0
0
0
0
0
0
0
0
0
0
0
0
0
0
0
0
0
0
0
0
0
0
0
0
0
0
0
0
0
0
0
0
0
0
0
0
0
0
0
0
0
0
0
0
0
0
0
0
0
0
0
0
0
0
0
0
0
0
0
0
0
0
0
0
0
0
0
0
0
0
0
0
0
0
0
0
0
0
0
0
0
0
0
0
0
0
0
0
0
0
0
0
0
0
0
0
0
0
0
0
0
0
0
0
0
0
0
0
0
0
0
0
0
0
0
0
0
0
0
0
0
0
0
0
0
0
0
0
0
0
0
0
0
0
0
0
0
0
0
0
0
0
0
0
0
0
0
0
0
0
0
0
0
0
0
0
1
1
1
1
1
1
1
1
1
1
1
1
1
1
1
1
1
1
1
1
1
1
1
1
1
1
1
1
1
1
2
2
2
2
2
2
2
2
2
2
2
2
2
2
2
2
2
2
2
2
2
2
2
2
2
2
2
2
2
2
3
3
3
3
3
3
3
3
3
3
3
3
3
3
3
3
3
3
3
3
3
3
3
3
3
3
3
3
3
3
4
4
4
4
4
4
4
4
4
4
4
4
4
4
4
4
4
4
4
4
4
4
4
4
4
4
4
4
4
4

LOOKUP_TABLE FreeFempp_table 5
1.00000000 0.00000000 0.00000000 1.00000000
1.00000000 1.00000000 0.00000000 1.00000000
1.00000000 0.00000000 1.00000000 1.00000000
0.00000000 1.00000000 0.00000000 1.00000000
0.00000000 1.00000000 1.00000000 1.00000000

POINT_DATA 961
FIELD FieldData 1
Density 1 961 float
2.01061949e-01 1.52193680e-01 1.42398059e-01 1.32418588e-01 1.22596957e-01 1.12816587e-01 8.52584615e-02 1.42385326e-02 3.76559270e-04 3.62664374e-04 1.83320884e-03 4.84347284e-01 8.48877966e-01 5.57301760e-01 9.07023787e-01 9.55976605e-01 9.40434039e-01 9.18307722e-01 8.49519432e-01 8.18300426e-01 7.56668746e-01 6.86684549e-01 6.16829753e-01 5.67907989e-01 5.42651236e-01 5.27001441e-01 5.17654955e-01 5.12007535e-01 5.09474754e-01 5.12623191e-01 3.98503155e-01 1.87406913e-04 2.08853045e-04 2.30458027e-04 2.16439003e-04 2.06194381e-04 1.96107809e-04 1.91262938e-04 1.93210057e-04 1.91112835e-04 1.89964980e-04 3.07856564e-04 2.03478411e-01 9.76792097e-01 3.20193032e-03 3.63499369e-03 2.28437446e-02 2.53625829e-02 4.98416349e-02 8.79615366e-01 8.64924312e-01 8.68994594e-01 8.49822164e-01 8.26074839e-01 7.75640965e-01 7.28141010e-01 6.98408842e-01 6.77484334e-01 6.63373590e-01 6.55608416e-01 6.47966504e-01 5.08811891e-01 1.67176549e-04 1.46261518e-04 1.52733614e-04 1.53941452e-04 1.55908536e-04 1.56625305e-04 1.55167800e-04 1.53373039e-04 1.49786953e-04 1.38164542e-04 1.34279049e-04 1.47611776e-04 8.32980454e-01 8.32755208e-01 1.15590543e-03 5.12659899e-04 3.22581414e-04 2.51746620e-04 2.07829537e-04 2.03992327e-04 2.89986900e-04 2.62746274e-01 6.31815910e-01 7.10415840e-01 6.59266770e-01 5.84793687e-01 5.49590707e-01 5.33058703e-01 5.25329351e-01 4.99903440e-01 4.46251661e-01 2.81549204e-04 1.76161004e-04 1.68475832e-04 1.62807759e-04 1.64395751e-04 1.71032574e-04 1.77723938e-04 1.81267184e-04 1.81849173e-04 1.69450490e-04 1.36052753e-04 1.24432016e-04 1.23214879e-04 9.94592667e-01 9.51573312e-01 9.26769222e-04 4.53293091e-04 3.05270980e-04 2.43562477e-04 1.87535770e-04 1.54781024e-04 1.44442369e-04 1.55152593e-04 2.19959096e-04 3.41596514e-01 3.83709490e-01 3.50620031e-01 3.33738595e-01 3.31247032e-01 3.10063392e-01 3.47802520e-01 1.75320014e-01 9.24335197e-02 9.11989138e-02 9.21616554e-02 9.10000652e-02 9.21454057e-02 9.55679566e-02 9.87259746e-02 1.00249939e-01 9.55625623e-02 5.95281348e-02 2.35319487e-04 1.17875687e-04 1.13863294e-04 4.08892184e-02 9.91821587e-01 2.37106699e-02 5.64245045e-01 7.83214092e-01 8.64030898e-01 6.62665174e-04 1.68003899e-04 1.43445330e-04 1.34196976e-04 1.32988906e-04 1.31440982e-02 2.04303771e-01 2.02869490e-01 2.03481823e-01 1.95842937e-01 2.66602159e-01 2.09133074e-01 1.15536191e-01 1.08727969e-01 1.10864237e-01 1.12478770e-01 1.14233725e-01 1.16523750e-01 1.18244015e-01 1.18556552e-01 1.17326543e-01 1.12862639e-01 9.10547078e-02 1.64879672e-03 1.12434049e-04 1.10587003e-04 3.89990542e-04 9.63643074e-01 9.65872943e-01 9.34844255e-01 9.09410357e-01 9.58635271e-01 9.80557382e-01 9.68486071e-01 2.80871900e-04 1.26881350e-04 1.24753875e-04 5.73882181e-03 1.38192639e-01 1.48177534e-01 1.47296906e-01 2.18523741e-01 2.36562669e-01 1.55496433e-01 1.53236240e-01 1.52788579e-01 1.53562590e-01 1.53970256e-01 1.53550655e-01 1.51962698e-01 1.48965314e-01 1.44639716e-01 1.38202325e-01 1.25656247e-01 1.08610839e-01 8.23102817e-02 1.17787720e-04 1.35322814e-04 1.28725296e-04 1.04562256e-04 2.83541111e-03 2.46250659e-01 1.86752498e-01 6.88894838e-02 6.12491846e-01 9.83147919e-01 8.54590654e-01 1.24189508e-04 1.23975900e-04 4.96578589e-03 1.17461137e-01 1.28326297e-01 1.95729166e-01 2.70843148e-01 2.08268195e-01 2.17558220e-01 2.16066137e-01 2.16256261e-01 2.16682717e-01 2.16429278e-01 2.15180457e-01 2.12821305e-01 2.09220707e-01 2.03692034e-01 1.94440514e-01 1.81614876e-01 1.71401590e-01 1.56551704e-01 1.07383705e-04 1.18391967e-04 1.25765015e-04 1.31539346e-04 1.78241098e-04 2.40131747e-04 4.41961980e-04 8.07260512e-04 1.52615109e-03 8.99897814e-01 9.94077563e-01 1.25415507e-04 1.27097999e-04 8.18904024e-03 1.16068415e-01 1.86299458e-01 3.12005490e-01 2.78756380e-01 3.02187443e-01 3.01364690e-01 3.02754998e-01 3.04767132e-01 3.07258099e-01 3.10103208e-01 3.13057482e-01 3.15748751e-01 3.17551881e-01 3.17600220e-01 3.15886796e-01 3.13329369e-01 3.17466378e-01 3.03760678e-01 1.03982575e-01 9.85772431e-01 1.51971384e-04 1.62066135e-04 1.72985383e-04 2.13968829e-04 3.09296331e-04 7.69940147e-04 4.47685644e-03 4.78211731e-01 9.64553952e-01 1.27864303e-04 1.22775338e-04 7.67918453e-02 1.80533797e-01 3.53392601e-01 3.59568059e-01 3.94132853e-01 3.93372685e-01 3.96502554e-01 4.00428474e-01 4.05625343e-01 4.12245750e-01 4.20171529e-01 4.29146737e-01 4.38921630e-01 4.49450105e-01 4.61283028e-01 4.75367337e-01 4.93792444e-01 5.41561186e-01 5.92250228e-01 5.82108378e-01 6.70073852e-02 6.33658189e-03 7.21875927e-04 4.38218354e-04 3.90448666e-04 5.12284692e-04 9.00692656e-04 1.18938519e-03 9.45280671e-01 6.76764548e-01 1.19756885e-04 1.19609271e-04 1.21197633e-01 3.84774804e-01 4.28821743e-01 4.67150778e-01 4.64645624e-01 4.67416614e-01 4.70687568e-01 4.74868834e-01 4.79988366e-01 4.85964656e-01 4.92691547e-01 5.00156105e-01 5.08608818e-01 5.18719733e-01 5.31555533e-01 5.49072146e-01 5.80567002e-01 6.44289970e-01 7.39037514e-01 8.27864766e-01 8.27280283e-01 7.91516721e-01 7.13132739e-01 2.47076616e-01 3.52712395e-03 4.24069539e-03 1.10617257e-03 4.75606322e-01 9.29812014e-01 3.73653544e-04 1.29691703e-04 1.58464070e-04 3.97618234e-01 4.64816421e-01 5.00384808e-01 4.94892210e-01 4.94704723e-01 4.94005948e-01 4.92918640e-01 4.91216838e-01 4.88695353e-01 4.85223800e-01 4.80756044e-01 4.75369066e-01 4.69275683e-01 4.62791711e-01 4.56709534e-01 4.53975230e-01 4.61581022e-01 4.83448982e-01 5.11678278e-01 6.41017079e-01 6.89703643e-01 6.63415253e-01 6.43174410e-01 4.09716666e-01 8.62118751e-02 1.79618359e-01 7.70026386e-01 9.31959331e-01 2.11943373e-01 1.75220353e-04 1.65040226e-04 3.88509929e-01 4.56901699e-01 4.87099379e-01 4.79067206e-01 4.75301147e-01 4.69843984e-01 4.62482065e-01 4.52815652e-01 4.40637618e-01 4.25856620e-01 4.08559531e-01 3.88991505e-01 3.67466360e-01 3.44315588e-01 3.20074469e-01 2.95828521e-01 2.73299783e-01 2.52250940e-01 2.30852112e-01 2.27958784e-01 2.38671809e-01 2.32801944e-01 2.21948907e-01 1.99301913e-01 2.19200209e-01 4.71668065e-01 8.63076746e-01 9.26354110e-01 3.73179972e-01 1.91954809e-04 1.86468256e-04 3.59993160e-01 4.05396610e-01 4.29646790e-01 4.22020972e-01 4.17636514e-01 4.11069125e-01 4.01630163e-01 3.88694257e-01 3.72194499e-01 3.52487236e-01 3.30228120e-01 3.06378067e-01 2.81953186e-01 2.57834136e-01 2.34753668e-01 2.13296056e-01 1.93807304e-01 1.76191613e-01 1.59832075e-01 1.45935088e-01 1.34131029e-01 1.20989807e-01 1.10440664e-01 1.08721793e-01 1.58839896e-01 4.83397901e-01 8.78069341e-01 9.20921147e-01 3.76938254e-01 1.97749789e-04 1.91422281e-04 3.19636077e-01 3.25697958e-01 3.43369752e-01 3.40601057e-01 3.40715677e-01 3.39123338e-01 3.34298283e-01 3.25157672e-01 3.11657369e-01 2.94707090e-01 2.75597692e-01 2.55755723e-01 2.36497402e-01 2.18776539e-01 2.03120008e-01 1.89611793e-01 1.77878812e-01 1.67208493e-01 1.56558305e-01 1.44674689e-01 1.30740508e-01 1.14525184e-01 1.01754829e-01 1.08088680e-01 1.95936263e-01 5.88821948e-01 9.01572704e-01 9.10396516e-01 2.44742677e-01 2.09922116e-04 2.00629147e-04 2.75533706e-01 2.40212947e-01 2.50504881e-01 2.56075501e-01 2.65034080e-01 2.73080409e-01 2.77460843e-01 2.76517689e-01 2.70157903e-01 2.59753942e-01 2.47127756e-01 2.33855173e-01 2.21160963e-01 2.09874704e-01 2.00389028e-01 1.92614958e-01 1.85938299e-01 1.79291859e-01 1.71268702e-01 1.60354882e-01 1.46013334e-01 1.30006760e-01 1.20104685e-01 1.40189245e-01 2.88346589e-01 7.21106768e-01 9.22112405e-01 8.74346733e-01 8.29052031e-02 2.25721247e-04 2.13947715e-04 2.32513532e-01 1.64849311e-01 1.68045714e-01 1.82271525e-01 2.01424941e-01 2.20662788e-01 2.35526785e-01 2.43600026e-01 2.45020971e-01 2.41710737e-01 2.35859066e-01 2.29029506e-01 2.22180203e-01 2.15884730e-01 2.10391432e-01 2.05577731e-01 2.00869784e-01 1.95231885e-01 1.87309399e-01 1.75962597e-01 1.61645368e-01 1.48149237e-01 1.46440133e-01 1.92170843e-01 4.22066420e-01 8.30724835e-01 9.38941956e-01 7.52565742e-01 1.61335096e-02 2.45181232e-04 2.29039928e-04 1.92044541e-01 1.05388217e-01 1.03354044e-01 1.23300515e-01 1.51501641e-01 1.81730524e-01 2.06530288e-01 2.22269699e-01 2.30045557e-01 2.32741073e-01 2.32781917e-01 2.31571555e-01 2.29724526e-01 2.27432802e-01 2.24652588e-01 2.21164644e-01 2.16567755e-01 2.10237145e-01 2.01381058e-01 1.89608380e-01 1.76428005e-01 1.67489275e-01 1.78420350e-01 2.64746070e-01 5.91262341e-01 9.02024150e-01 9.41404998e-01 3.13714921e-01 2.60261539e-03 2.71045137e-04 2.47917284e-04 1.54070511e-01 6.17831685e-02 5.72164319e-02 7.84548521e-02 1.13376580e-01 1.53944224e-01 1.87538847e-01 2.08878696e-01 2.20724538e-01 2.27431849e-01 2.31860295e-01 2.35217005e-01 2.37691954e-01 2.39019647e-01 2.38751486e-01 2.36428559e-01 2.31762141e-01 2.24722981e-01 2.15463519e-01 2.04551652e-01 1.94477931e-01 1.93083674e-01 2.23820850e-01 3.73118758e-01 7.60713160e-01 9.41644192e-01 8.99646163e-01 4.83022630e-02 9.74223192e-04 3.53017676e-04 2.97289400e-04 1.19259842e-01 3.23187336e-02 2.79257819e-02 4.63718586e-02 8.52568969e-02 1.35816067e-01 1.77084595e-01 2.01369554e-01 2.14324743e-01 2.22653925e-01 2.29873598e-01 2.36861780e-01 2.43213296e-01 2.48142228e-01 2.50818044e-01 2.50515312e-01 2.46911317e-01 2.40480572e-01 2.32521951e-01 2.24885836e-01 2.21361667e-01 2.33535111e-01 2.98882753e-01 5.36334038e-01 8.75891149e-01 9.56260920e-01 6.38666987e-01 9.27475281e-03 6.27374393e-04 4.61907533e-04 4.85404191e-04 8.94188061e-02 1.47455977e-02 1.22525515e-02 2.56371032e-02 6.62347898e-02 1.27664894e-01 1.74965605e-01 1.97937280e-01 2.08321512e-01 2.16190532e-01 2.25302324e-01 2.35671848e-01 2.45975718e-01 2.54812360e-01 2.61098862e-01 2.64075577e-01 2.63445824e-01 2.59957343e-01 2.56003678e-01 2.55420983e-01 2.64621377e-01 3.01897436e-01 4.23545450e-01 7.19186783e-01 9.29874122e-01 9.39029396e-01 1.36066198e-01 2.36323196e-03 5.79184620e-04 5.32765407e-04 1.20865740e-03 6.67870492e-02 6.08299114e-03 5.37585653e-03 1.40393702e-02 5.64721897e-02 1.31495118e-01 1.80588305e-01 1.95653543e-01 1.99821219e-01 2.06245109e-01 2.17539519e-01 2.32049972e-01 2.47163713e-01 2.60713905e-01 2.71465033e-01 2.79037833e-01 2.83679873e-01 2.86516190e-01 2.90702164e-01 3.02743882e-01 3.34604651e-01 4.13671464e-01 5.95923007e-01 8.43432844e-01 9.43407118e-01 7.93510556e-01 2.27123871e-02 1.22523122e-03 6.90472545e-04 7.53095781e-04 5.56011545e-03 5.03890142e-02 2.65407795e-03 2.74321786e-03 8.66558682e-03 5.78892678e-02 1.50263429e-01 1.90579653e-01 1.89766660e-01 1.85919061e-01 1.91655099e-01 2.06520304e-01 2.26766407e-01 2.48384923e-01 2.68256754e-01 2.84858942e-01 2.98444688e-01 3.10603946e-01 3.23753446e-01 3.41876805e-01 3.73838514e-01 4.38702643e-01 5.67414105e-01 7.56468654e-01 8.94983590e-01 9.08407688e-01 2.50807136e-01 5.24970097e-03 9.84543469e-04 8.47491261e-04 1.52318797e-03 2.64129266e-02 3.61177884e-02 1.42174959e-03 1.67233055e-03 7.11901998e-03 7.64061958e-02 1.84090361e-01 1.96414441e-01 1.74920470e-01 1.65169463e-01 1.72518238e-01 1.92598075e-01 2.20269069e-01 2.50626743e-01 2.79476404e-01 3.04448456e-01 3.26035023e-01 3.47590953e-01 3.74254316e-01 4.12216127e-01 4.71294701e-01 5.71106791e-01 7.21063733e-01 8.50588679e-01 8.94605935e-01 6.63017213e-01 3.71046364e-02 2.34225555e-03 1.09784934e-03 1.16568210e-03 4.96787298e-03 7.42395744e-02 2.01834645e-02 9.41092439e-04 1.12067279e-03 8.82228278e-03 1.24998167e-01 2.20919773e-01 1.86634541e-01 1.49369195e-01 1.39386490e-01 1.50613710e-01 1.76412836e-01 2.12069571e-01 2.53073215e-01 2.94408113e-01 3.31904888e-01 3.64823610e-01 3.97474110e-01 4.38426375e-01 4.97503519e-01 5.82502961e-01 6.96934342e-01 8.17136884e-01 8.78336728e-01 8.07342112e-01 2.21617579e-01 8.46319366e-03 1.92155584e-03 1.54487602e-03 2.45087198e-03 1.88139733e-02 1.25989437e-01 5.13824308e-03 7.66599085e-04 8.47871182e-04 1.78493615e-02 2.10704416e-01 2.33794659e-01 1.57137617e-01 1.18300736e-01 1.13293350e-01 1.28675088e-01 1.58460677e-01 2.00280979e-01 2.51991510e-01 3.09000760e-01 3.64630550e-01 4.14336562e-01 4.60469842e-01 5.13292730e-01 5.85516691e-01 6.79947853e-01 7.79629052e-01 8.54195178e-01 8.51847589e-01 6.12714589e-01 4.82760966e-02 4.68635885e-03 2.49015307e-03 2.93284585e-03 9.48895514e-03 5.46652526e-02 1.76410928e-01 1.20784552e-03 7.29348685e-04 8.17387132e-04 5.54014854e-02 2.90308893e-01 2.04605058e-01 1.18300579e-01 9.02040750e-02 9.13238600e-02 1.08686641e-01 1.38550088e-01 1.81816503e-01 2.40599111e-01 3.13378453e-01 3.92077208e-01 4.65838313e-01 5.29874742e-01 5.90595722e-01 6.60380244e-01 7.41130590e-01 8.13059211e-01 8.46450686e-01 7.87024081e-01 3.74884933e-01 2.87917722e-02 5.94845461e-03 5.53889014e-03 1.17523009e-02 5.17647713e-02 1.44495726e-01 2.60026276e-01 5.36903681e-04 6.25935849e-04 1.15559262e-03 1.67752117e-01 2.93717772e-01 1.49370447e-01 8.52268860e-02 7.00374842e-02 7.48680755e-02 9.07389000e-02 1.16124086e-01 1.54735461e-01 2.13030770e-01 2.95234799e-01 3.96300703e-01 4.99721646e-01 5.88095665e-01 6.56306624e-01 7.11722493e-01 7.61907518e-01 8.00498307e-01 8.03169906e-01 7.02387810e-01 3.39462399e-01 5.45736179e-02 2.08719261e-02 3.45773026e-02 1.19614579e-01 2.51125097e-01 3.67419124e-01 4.02346551e-01 3.64514475e-04 4.39447642e-04 2.89036753e-03 3.25590044e-01 2.28190482e-01 1.04837455e-01 6.70190081e-02 5.97922690e-02 6.47482574e-02 7.62867555e-02 9.44839716e-02 1.23758800e-01 1.71285003e-01 2.44838327e-01 3.47139955e-01 4.67030168e-01 5.80115259e-01 6.66016102e-01 7.21097052e-01 7.53182292e-01 7.69329429e-01 7.64898539e-01 7.10828722e-01 5.34659088e-01 2.80499637e-01 2.14553878e-01 3.53747398e-01 5.57772279e-01 5.79552114e-01 6.04006112e-01 5.41934729e-01 2.92835553e-04 3.47338384e-04 2.15110723e-02 2.93748289e-01 1.49284109e-01 7.69675300e-02 5.33092842e-02 4.52620201e-02 4.38149981e-02 4.64721210e-02 5.37523590e-02 6.82393610e-02 9.48107615e-02 1.42014831e-01 2.22996533e-01 3.49927217e-01 5.14686048e-01 6.76463723e-01 7.95018792e-01 8.64773154e-01 9.00756121e-01 9.16970491e-01 9.19984281e-01 9.07629669e-01 8.70489359e-01 8.16051781e-01 7.73192644e-01 7.05095470e-01 5.69808424e-01 5.60743570e-01 5.54005325e-01 4.79574635e-04 3.61501036e-04 2.19285414e-01 3.46947968e-01 1.97409868e-01 1.22733735e-01 8.08318630e-02 6.01779781e-02 5.17374352e-02 5.09669706e-02 5.66769317e-02 7.02354982e-02 9.53353569e-02 1.38258621e-01 2.07527339e-01 3.10170144e-01 4.42799538e-01 5.84881663e-01 7.08266199e-01 7.96493888e-01 8.50192666e-01 8.77890110e-01 8.87430429e-01 8.82777333e-01 8.62018883e-01 8.10762048e-01 6.89211488e-01 4.66507465e-01 2.78170258e-01 2.52352208e-01 3.63206625e-01 
