# vtk DataFile Version 2.0
results_case1_non_linear/iter8.vtk, Created by Freefem++ 
ASCII
DATASET UNSTRUCTURED_GRID
POINTS 961 float
0 0 0
0.033333333 0 0
0.066666667 0 0
0.1 0 0
0.13333333 0 0
0.16666667 0 0
0.2 0 0
0.23333333 0 0
0.26666667 0 0
0.3 0 0
0.33333333 0 0
0.36666667 0 0
0.4 0 0
0.43333333 0 0
0.46666667 0 0
0.5 0 0
0.53333333 0 0
0.56666667 0 0
0.6 0 0
0.63333333 0 0
0.66666667 0 0
0.7 0 0
0.73333333 0 0
0.76666667 0 0
0.8 0 0
0.83333333 0 0
0.86666667 0 0
0.9 0 0
0.93333333 0 0
0.96666667 0 0
1 0 0
0 0.033333333 0
0.033333333 0.033333333 0
0.066666667 0.033333333 0
0.1 0.033333333 0
0.13333333 0.033333333 0
0.16666667 0.033333333 0
0.2 0.033333333 0
0.23333333 0.033333333 0
0.26666667 0.033333333 0
0.3 0.033333333 0
0.33333333 0.033333333 0
0.36666667 0.033333333 0
0.4 0.033333333 0
0.43333333 0.033333333 0
0.46666667 0.033333333 0
0.5 0.033333333 0
0.53333333 0.033333333 0
0.56666667 0.033333333 0
0.6 0.033333333 0
0.63333333 0.033333333 0
0.66666667 0.033333333 0
0.7 0.033333333 0
0.73333333 0.033333333 0
0.76666667 0.033333333 0
0.8 0.033333333 0
0.83333333 0.033333333 0
0.86666667 0.033333333 0
0.9 0.033333333 0
0.93333333 0.033333333 0
0.96666667 0.033333333 0
1 0.033333333 0
0 0.066666667 0
0.033333333 0.066666667 0
0.066666667 0.066666667 0
0.1 0.066666667 0
0.13333333 0.066666667 0
0.16666667 0.066666667 0
0.2 0.066666667 0
0.23333333 0.066666667 0
0.26666667 0.066666667 0
0.3 0.066666667 0
0.33333333 0.066666667 0
0.36666667 0.066666667 0
0.4 0.066666667 0
0.43333333 0.066666667 0
0.46666667 0.066666667 0
0.5 0.066666667 0
0.53333333 0.066666667 0
0.56666667 0.066666667 0
0.6 0.066666667 0
0.63333333 0.066666667 0
0.66666667 0.066666667 0
0.7 0.066666667 0
0.73333333 0.066666667 0
0.76666667 0.066666667 0
0.8 0.066666667 0
0.83333333 0.066666667 0
0.86666667 0.066666667 0
0.9 0.066666667 0
0.93333333 0.066666667 0
0.96666667 0.066666667 0
1 0.066666667 0
0 0.1 0
0.033333333 0.1 0
0.066666667 0.1 0
0.1 0.1 0
0.13333333 0.1 0
0.16666667 0.1 0
0.2 0.1 0
0.23333333 0.1 0
0.26666667 0.1 0
0.3 0.1 0
0.33333333 0.1 0
0.36666667 0.1 0
0.4 0.1 0
0.43333333 0.1 0
0.46666667 0.1 0
0.5 0.1 0
0.53333333 0.1 0
0.56666667 0.1 0
0.6 0.1 0
0.63333333 0.1 0
0.66666667 0.1 0
0.7 0.1 0
0.73333333 0.1 0
0.76666667 0.1 0
0.8 0.1 0
0.83333333 0.1 0
0.86666667 0.1 0
0.9 0.1 0
0.93333333 0.1 0
0.96666667 0.1 0
1 0.1 0
0 0.13333333 0
0.033333333 0.13333333 0
0.066666667 0.13333333 0
0.1 0.13333333 0
0.13333333 0.13333333 0
0.16666667 0.13333333 0
0.2 0.13333333 0
0.23333333 0.13333333 0
0.26666667 0.13333333 0
0.3 0.13333333 0
0.33333333 0.13333333 0
0.36666667 0.13333333 0
0.4 0.13333333 0
0.43333333 0.13333333 0
0.46666667 0.13333333 0
0.5 0.13333333 0
0.53333333 0.13333333 0
0.56666667 0.13333333 0
0.6 0.13333333 0
0.63333333 0.13333333 0
0.66666667 0.13333333 0
0.7 0.13333333 0
0.73333333 0.13333333 0
0.76666667 0.13333333 0
0.8 0.13333333 0
0.83333333 0.13333333 0
0.86666667 0.13333333 0
0.9 0.13333333 0
0.93333333 0.13333333 0
0.96666667 0.13333333 0
1 0.13333333 0
0 0.16666667 0
0.033333333 0.16666667 0
0.066666667 0.16666667 0
0.1 0.16666667 0
0.13333333 0.16666667 0
0.16666667 0.16666667 0
0.2 0.16666667 0
0.23333333 0.16666667 0
0.26666667 0.16666667 0
0.3 0.16666667 0
0.33333333 0.16666667 0
0.36666667 0.16666667 0
0.4 0.16666667 0
0.43333333 0.16666667 0
0.46666667 0.16666667 0
0.5 0.16666667 0
0.53333333 0.16666667 0
0.56666667 0.16666667 0
0.6 0.16666667 0
0.63333333 0.16666667 0
0.66666667 0.16666667 0
0.7 0.16666667 0
0.73333333 0.16666667 0
0.76666667 0.16666667 0
0.8 0.16666667 0
0.83333333 0.16666667 0
0.86666667 0.16666667 0
0.9 0.16666667 0
0.93333333 0.16666667 0
0.96666667 0.16666667 0
1 0.16666667 0
0 0.2 0
0.033333333 0.2 0
0.066666667 0.2 0
0.1 0.2 0
0.13333333 0.2 0
0.16666667 0.2 0
0.2 0.2 0
0.23333333 0.2 0
0.26666667 0.2 0
0.3 0.2 0
0.33333333 0.2 0
0.36666667 0.2 0
0.4 0.2 0
0.43333333 0.2 0
0.46666667 0.2 0
0.5 0.2 0
0.53333333 0.2 0
0.56666667 0.2 0
0.6 0.2 0
0.63333333 0.2 0
0.66666667 0.2 0
0.7 0.2 0
0.73333333 0.2 0
0.76666667 0.2 0
0.8 0.2 0
0.83333333 0.2 0
0.86666667 0.2 0
0.9 0.2 0
0.93333333 0.2 0
0.96666667 0.2 0
1 0.2 0
0 0.23333333 0
0.033333333 0.23333333 0
0.066666667 0.23333333 0
0.1 0.23333333 0
0.13333333 0.23333333 0
0.16666667 0.23333333 0
0.2 0.23333333 0
0.23333333 0.23333333 0
0.26666667 0.23333333 0
0.3 0.23333333 0
0.33333333 0.23333333 0
0.36666667 0.23333333 0
0.4 0.23333333 0
0.43333333 0.23333333 0
0.46666667 0.23333333 0
0.5 0.23333333 0
0.53333333 0.23333333 0
0.56666667 0.23333333 0
0.6 0.23333333 0
0.63333333 0.23333333 0
0.66666667 0.23333333 0
0.7 0.23333333 0
0.73333333 0.23333333 0
0.76666667 0.23333333 0
0.8 0.23333333 0
0.83333333 0.23333333 0
0.86666667 0.23333333 0
0.9 0.23333333 0
0.93333333 0.23333333 0
0.96666667 0.23333333 0
1 0.23333333 0
0 0.26666667 0
0.033333333 0.26666667 0
0.066666667 0.26666667 0
0.1 0.26666667 0
0.13333333 0.26666667 0
0.16666667 0.26666667 0
0.2 0.26666667 0
0.23333333 0.26666667 0
0.26666667 0.26666667 0
0.3 0.26666667 0
0.33333333 0.26666667 0
0.36666667 0.26666667 0
0.4 0.26666667 0
0.43333333 0.26666667 0
0.46666667 0.26666667 0
0.5 0.26666667 0
0.53333333 0.26666667 0
0.56666667 0.26666667 0
0.6 0.26666667 0
0.63333333 0.26666667 0
0.66666667 0.26666667 0
0.7 0.26666667 0
0.73333333 0.26666667 0
0.76666667 0.26666667 0
0.8 0.26666667 0
0.83333333 0.26666667 0
0.86666667 0.26666667 0
0.9 0.26666667 0
0.93333333 0.26666667 0
0.96666667 0.26666667 0
1 0.26666667 0
0 0.3 0
0.033333333 0.3 0
0.066666667 0.3 0
0.1 0.3 0
0.13333333 0.3 0
0.16666667 0.3 0
0.2 0.3 0
0.23333333 0.3 0
0.26666667 0.3 0
0.3 0.3 0
0.33333333 0.3 0
0.36666667 0.3 0
0.4 0.3 0
0.43333333 0.3 0
0.46666667 0.3 0
0.5 0.3 0
0.53333333 0.3 0
0.56666667 0.3 0
0.6 0.3 0
0.63333333 0.3 0
0.66666667 0.3 0
0.7 0.3 0
0.73333333 0.3 0
0.76666667 0.3 0
0.8 0.3 0
0.83333333 0.3 0
0.86666667 0.3 0
0.9 0.3 0
0.93333333 0.3 0
0.96666667 0.3 0
1 0.3 0
0 0.33333333 0
0.033333333 0.33333333 0
0.066666667 0.33333333 0
0.1 0.33333333 0
0.13333333 0.33333333 0
0.16666667 0.33333333 0
0.2 0.33333333 0
0.23333333 0.33333333 0
0.26666667 0.33333333 0
0.3 0.33333333 0
0.33333333 0.33333333 0
0.36666667 0.33333333 0
0.4 0.33333333 0
0.43333333 0.33333333 0
0.46666667 0.33333333 0
0.5 0.33333333 0
0.53333333 0.33333333 0
0.56666667 0.33333333 0
0.6 0.33333333 0
0.63333333 0.33333333 0
0.66666667 0.33333333 0
0.7 0.33333333 0
0.73333333 0.33333333 0
0.76666667 0.33333333 0
0.8 0.33333333 0
0.83333333 0.33333333 0
0.86666667 0.33333333 0
0.9 0.33333333 0
0.93333333 0.33333333 0
0.96666667 0.33333333 0
1 0.33333333 0
0 0.36666667 0
0.033333333 0.36666667 0
0.066666667 0.36666667 0
0.1 0.36666667 0
0.13333333 0.36666667 0
0.16666667 0.36666667 0
0.2 0.36666667 0
0.23333333 0.36666667 0
0.26666667 0.36666667 0
0.3 0.36666667 0
0.33333333 0.36666667 0
0.36666667 0.36666667 0
0.4 0.36666667 0
0.43333333 0.36666667 0
0.46666667 0.36666667 0
0.5 0.36666667 0
0.53333333 0.36666667 0
0.56666667 0.36666667 0
0.6 0.36666667 0
0.63333333 0.36666667 0
0.66666667 0.36666667 0
0.7 0.36666667 0
0.73333333 0.36666667 0
0.76666667 0.36666667 0
0.8 0.36666667 0
0.83333333 0.36666667 0
0.86666667 0.36666667 0
0.9 0.36666667 0
0.93333333 0.36666667 0
0.96666667 0.36666667 0
1 0.36666667 0
0 0.4 0
0.033333333 0.4 0
0.066666667 0.4 0
0.1 0.4 0
0.13333333 0.4 0
0.16666667 0.4 0
0.2 0.4 0
0.23333333 0.4 0
0.26666667 0.4 0
0.3 0.4 0
0.33333333 0.4 0
0.36666667 0.4 0
0.4 0.4 0
0.43333333 0.4 0
0.46666667 0.4 0
0.5 0.4 0
0.53333333 0.4 0
0.56666667 0.4 0
0.6 0.4 0
0.63333333 0.4 0
0.66666667 0.4 0
0.7 0.4 0
0.73333333 0.4 0
0.76666667 0.4 0
0.8 0.4 0
0.83333333 0.4 0
0.86666667 0.4 0
0.9 0.4 0
0.93333333 0.4 0
0.96666667 0.4 0
1 0.4 0
0 0.43333333 0
0.033333333 0.43333333 0
0.066666667 0.43333333 0
0.1 0.43333333 0
0.13333333 0.43333333 0
0.16666667 0.43333333 0
0.2 0.43333333 0
0.23333333 0.43333333 0
0.26666667 0.43333333 0
0.3 0.43333333 0
0.33333333 0.43333333 0
0.36666667 0.43333333 0
0.4 0.43333333 0
0.43333333 0.43333333 0
0.46666667 0.43333333 0
0.5 0.43333333 0
0.53333333 0.43333333 0
0.56666667 0.43333333 0
0.6 0.43333333 0
0.63333333 0.43333333 0
0.66666667 0.43333333 0
0.7 0.43333333 0
0.73333333 0.43333333 0
0.76666667 0.43333333 0
0.8 0.43333333 0
0.83333333 0.43333333 0
0.86666667 0.43333333 0
0.9 0.43333333 0
0.93333333 0.43333333 0
0.96666667 0.43333333 0
1 0.43333333 0
0 0.46666667 0
0.033333333 0.46666667 0
0.066666667 0.46666667 0
0.1 0.46666667 0
0.13333333 0.46666667 0
0.16666667 0.46666667 0
0.2 0.46666667 0
0.23333333 0.46666667 0
0.26666667 0.46666667 0
0.3 0.46666667 0
0.33333333 0.46666667 0
0.36666667 0.46666667 0
0.4 0.46666667 0
0.43333333 0.46666667 0
0.46666667 0.46666667 0
0.5 0.46666667 0
0.53333333 0.46666667 0
0.56666667 0.46666667 0
0.6 0.46666667 0
0.63333333 0.46666667 0
0.66666667 0.46666667 0
0.7 0.46666667 0
0.73333333 0.46666667 0
0.76666667 0.46666667 0
0.8 0.46666667 0
0.83333333 0.46666667 0
0.86666667 0.46666667 0
0.9 0.46666667 0
0.93333333 0.46666667 0
0.96666667 0.46666667 0
1 0.46666667 0
0 0.5 0
0.033333333 0.5 0
0.066666667 0.5 0
0.1 0.5 0
0.13333333 0.5 0
0.16666667 0.5 0
0.2 0.5 0
0.23333333 0.5 0
0.26666667 0.5 0
0.3 0.5 0
0.33333333 0.5 0
0.36666667 0.5 0
0.4 0.5 0
0.43333333 0.5 0
0.46666667 0.5 0
0.5 0.5 0
0.53333333 0.5 0
0.56666667 0.5 0
0.6 0.5 0
0.63333333 0.5 0
0.66666667 0.5 0
0.7 0.5 0
0.73333333 0.5 0
0.76666667 0.5 0
0.8 0.5 0
0.83333333 0.5 0
0.86666667 0.5 0
0.9 0.5 0
0.93333333 0.5 0
0.96666667 0.5 0
1 0.5 0
0 0.53333333 0
0.033333333 0.53333333 0
0.066666667 0.53333333 0
0.1 0.53333333 0
0.13333333 0.53333333 0
0.16666667 0.53333333 0
0.2 0.53333333 0
0.23333333 0.53333333 0
0.26666667 0.53333333 0
0.3 0.53333333 0
0.33333333 0.53333333 0
0.36666667 0.53333333 0
0.4 0.53333333 0
0.43333333 0.53333333 0
0.46666667 0.53333333 0
0.5 0.53333333 0
0.53333333 0.53333333 0
0.56666667 0.53333333 0
0.6 0.53333333 0
0.63333333 0.53333333 0
0.66666667 0.53333333 0
0.7 0.53333333 0
0.73333333 0.53333333 0
0.76666667 0.53333333 0
[...]
CELL_DATA 1920
Scalars  Label int 1
LOOKUP_TABLE FreeFempp_table
0
0
0
0
0
0
0
0
0
0
0
0
0
0
0
0
0
0
0
0
0
0
0
0
0
0
0
0
0
0
0
0
0
0
0
0
0
0
0
0
0
0
0
0
0
0
0
0
0
0
0
0
0
0
0
0
0
0
0
0
0
0
0
0
0
0
0
0
0
0
0
0
0
0
0
0
0
0
0
0
0
0
0
0
0
0
0
0
0
0
0
0
0
0
0
0
0
0
0
0
0
0
0
0
0
0
0
0
0
0
0
0
0
0
0
0
0
0
0
0
0
0
0
0
0
0
0
0
0
0
0
0
0
0
0
0
0
0
0
0
0
0
0
0
0
0
0
0
0
0
0
0
0
0
0
0
0
0
0
0
0
0
0
0
0
0
0
0
0
0
0
0
0
0
0
0
0
0
0
0
0
0
0
0
0
0
0
0
0
0
0
0
0
0
0
0
0
0
0
0
0
0
0
0
0
0
0
0
0
0
0
0
0
0
0
0
0
0
0
0
0
0
0
0
0
0
0
0
0
0
0
0
0
0
0
0
0
0
0
0
0
0
0
0
0
0
0
0
0
0
0
0
0
0
0
0
0
0
0
0
0
0
0
0
0
0
0
0
0
0
0
0
0
0
0
0
0
0
0
0
0
0
0
0
0
0
0
0
0
0
0
0
0
0
0
0
0
0
0
0
0
0
0
0
0
0
0
0
0
0
0
0
0
0
0
0
0
0
0
0
0
0
0
0
0
0
0
0
0
0
0
0
0
0
0
0
0
0
0
0
0
0
0
0
0
0
0
0
0
0
0
0
0
0
0
0
0
0
0
0
0
0
0
0
0
0
0
0
0
0
0
0
0
0
0
0
0
0
0
0
0
0
0
0
0
0
0
0
0
0
0
0
0
0
0
0
0
0
0
0
0
0
0
0
0
0
0
0
0
0
0
0
0
0
0
0
0
0
0
0
0
0
0
0
0
0
0
0
0
0
0
0
0
0
0
0
0
0
0
0
0
0
0
0
0
0
0
0
0
0
0
0
0
0
0
0
0
0
0
0
0
0
0
0
0
0
0
0
0
0
0
0
0
0
0
0
0
0
0
0
0
0
0
0
0
0
0
0
0
0
0
0
0
0
0
0
0
0
0
0
0
0
0
0
0
0
0
0
0
0
0
0
0
0
0
0
0
0
0
0
0
0
0
0
0
0
0
0
0
0
0
0
0
0
0
0
0
0
0
0
0
0
0
0
0
0
0
0
0
0
0
0
0
0
0
0
0
0
0
0
0
0
0
0
0
0
0
0
0
0
0
0
0
0
0
0
0
0
0
0
0
0
0
0
0
0
0
0
0
0
0
0
0
0
0
0
0
0
0
0
0
0
0
0
0
0
0
0
0
0
0
0
0
0
0
0
0
0
0
0
0
0
0
0
0
0
0
0
0
0
0
0
0
0
0
0
0
0
0
0
0
0
0
0
0
0
0
0
0
0
0
0
0
0
0
0
0
0
0
0
0
0
0
0
0
0
0
0
0
0
0
0
0
0
0
0
0
0
0
0
0
0
0
0
0
0
0
0
0
0
0
0
0
0
0
0
0
0
0
0
0
0
0
0
0
0
0
0
0
0
0
0
0
0
0
0
0
0
0
0
0
0
0
0
0
0
0
0
0
0
0
0
0
0
0
0
0
0
0
0
0
0
0
0
0
0
0
0
0
0
0
0
0
0
0
0
0
0
0
0
0
0
0
0
0
0
0
0
0
0
0
0
0
0
0
0
0
0
0
0
0
0
0
0
0
0
0
0
0
0
0
0
0
0
0
0
0
0
0
0
0
0
0
0
0
0
0
0
0
0
0
0
0
0
0
0
0
0
0
0
0
0
0
0
0
0
0
0
0
0
0
0
0
0
0
0
0
0
0
0
0
0
0
0
0
0
0
0
0
0
0
0
0
0
0
0
0
0
0
0
0
0
0
0
0
0
0
0
0
0
0
0
0
0
0
0
0
0
0
0
0
0
0
0
0
0
0
0
0
0
0
0
0
0
0
0
0
0
0
0
0
0
0
0
0
0
0
0
0
0
0
0
0
0
0
0
0
0
0
0
0
0
0
0
0
0
0
0
0
0
0
0
0
0
0
0
0
0
0
0
0
0
0
0
0
0
0
0
0
0
0
0
0
0
0
0
0
0
0
0
0
0
0
0
0
0
0
0
0
0
0
0
0
0
0
0
0
0
0
0
0
0
0
0
0
0
0
0
0
0
0
0
0
0
0
0
0
0
0
0
0
0
0
0
0
0
0
0
0
0
0
0
0
0
0
0
0
0
0
0
0
0
0
0
0
0
0
0
0
0
0
0
0
0
0
0
0
0
0
0
0
0
0
0
0
0
0
0
0
0
0
0
0
0
0
0
0
0
0
0
0
0
0
0
0
0
0
0
0
0
0
0
0
0
0
0
0
0
0
0
0
0
0
0
0
0
0
0
0
0
0
0
0
0
0
0
0
0
0
0
0
0
0
0
0
0
0
0
0
0
0
0
0
0
0
0
0
0
0
0
0
0
0
0
0
0
0
0
0
0
0
0
0
0
0
0
0
0
0
0
0
0
0
0
0
0
0
0
0
0
0
0
0
0
0
0
0
0
0
0
0
0
0
0
0
0
0
0
0
0
0
0
0
0
0
0
0
0
0
0
0
0
0
0
0
0
0
0
0
0
0
0
0
0
0
0
0
0
0
0
0
0
0
0
0
0
0
0
0
0
0
0
0
0
0
0
0
0
0
0
0
0
0
0
0
0
0
0
0
0
0
0
0
0
0
0
0
0
0
0
0
0
0
0
0
0
0
0
0
0
0
0
0
0
0
0
0
0
0
0
0
0
0
0
0
0
0
0
0
0
0
0
0
0
0
0
0
0
0
0
0
0
0
0
0
0
0
0
0
0
0
0
0
0
0
0
0
0
0
0
0
0
0
0
0
0
0
0
0
0
0
0
0
0
0
0
0
0
0
0
0
0
0
0
0
0
0
0
0
0
0
0
0
0
0
0
0
0
0
0
0
0
0
0
0
0
0
0
0
0
0
0
0
0
0
0
0
0
0
0
0
0
0
0
0
0
0
0
0
0
0
0
0
0
0
0
0
0
0
0
0
0
0
0
0
0
0
0
0
0
0
0
0
0
0
0
0
0
0
0
0
0
0
0
0
0
0
0
0
0
0
0
0
0
0
0
0
0
0
0
0
0
0
0
0
0
0
0
0
0
0
0
0
0
0
0
0
0
0
0
0
0
0
0
0
0
0
0
0
0
0
0
0
0
0
0
0
0
0
0
0
0
0
0
0
0
0
0
0
0
0
0
0
0
0
0
0
0
0
0
0
0
0
0
0
0
0
0
0
0
0
0
0
0
0
0
0
0
0
0
0
0
0
0
0
0
0
0
0
0
0
0
0
0
0
0
0
0
0
0
0
0
0
0
0
0
0
0
0
0
0
0
0
0
0
0
0
0
0
0
0
0
0
0
0
0
0
0
0
0
0
0
0
0
0
0
0
0
0
0
0
0
0
0
0
0
0
0
0
0
0
0
0
0
0
0
0
0
0
0
0
0
0
0
0
0
0
0
0
0
0
0
0
0
0
0
0
0
0
0
0
0
0
0
0
0
0
0
0
0
0
0
0
0
0
0
0
0
0
0
0
0
0
0
0
0
0
0
0
0
0
0
0
0
0
0
0
0
0
0
0
0
0
0
0
0
0
0
0
0
0
0
0
0
0
0
0
0
0
0
0
0
0
0
0
0
0
0
0
0
0
0
0
0
0
0
0
0
0
0
0
0
0
0
0
0
0
0
0
0
0
0
0
0
0
0
0
0
0
0
0
0
0
0
0
0
0
0
0
0
0
0
0
0
0
0
0
0
0
0
0
0
0
0
0
0
0
0
0
0
0
0
0
0
0
0
0
0
0
0
0
0
0
0
0
0
0
0
0
0
0
0
0
0
0
0
0
0
0
0
0
0
0
0
0
0
0
0
0
0
0
0
0
0
0
0
0
0
0
0
0
0
0
0
0
0
0
0
0
0
0
0
0
0
0
0
0
0
0
0
1
1
1
1
1
1
1
1
1
1
1
1
1
1
1
1
1
1
1
1
1
1
1
1
1
1
1
1
1
1
2
2
2
2
2
2
2
2
2
2
2
2
2
2
2
2
2
2
2
2
2
2
2
2
2
2
2
2
2
2
3
3
3
3
3
3
3
3
3
3
3
3
3
3
3
3
3
3
3
3
3
3
3
3
3
3
3
3
3
3
4
4
4
4
4
4
4
4
4
4
4
4
4
4
4
4
4
4
4
4
4
4
4
4
4
4
4
4
4
4

LOOKUP_TABLE FreeFempp_table 5
1.00000000 0.00000000 0.00000000 1.00000000
1.00000000 1.00000000 0.00000000 1.00000000
1.00000000 0.00000000 1.00000000 1.00000000
0.00000000 1.00000000 0.00000000 1.00000000
0.00000000 1.00000000 1.00000000 1.00000000

POINT_DATA 961
FIELD FieldData 1
Density 1 961 float
2.72857621e-02 1.90371517e-02 2.14317814e-02 2.29336638e-02 2.34322250e-02 2.33456548e-02 2.30223536e-02 2.26730872e-02 2.23710388e-02 2.21809428e-02 2.22718436e-02 2.28277240e-02 2.29322147e-02 1.70503277e-02 2.80653185e-04 1.02905891e-04 1.05381856e-04 1.94428675e-03 1.60017945e-02 4.27740850e-02 2.39640579e-01 6.08667791e-01 4.70050365e-01 5.97958446e-01 6.00902379e-01 2.71857530e-01 1.95100904e-01 1.77277088e-01 1.61719620e-01 1.52639687e-01 9.50258672e-02 1.19207650e-02 5.01711201e-03 6.84159808e-03 7.98496883e-03 8.31037667e-03 8.23200680e-03 8.04710295e-03 7.90876616e-03 7.88106490e-03 7.96213560e-03 8.07952974e-03 8.08479171e-03 6.62018731e-03 1.36887655e-03 1.24064114e-04 1.01599871e-04 1.01006699e-04 1.99555943e-04 4.92212968e-03 1.43727409e-02 1.95865422e-01 9.31784570e-01 7.90557444e-01 2.07654074e-01 7.32536018e-01 7.04913616e-01 4.09452647e-01 2.82617182e-01 2.28969082e-01 2.04382196e-01 1.37915120e-01 1.00614110e-04 1.00580452e-04 5.19679673e-03 8.33357871e-03 8.38489085e-03 8.36885907e-03 8.32755305e-03 8.25516414e-03 8.24476872e-03 8.36412702e-03 8.39087088e-03 7.28141749e-03 2.44068308e-03 1.43052719e-04 1.04272287e-04 1.01482699e-04 1.00541991e-04 1.00433383e-04 6.17960840e-03 1.28025152e-02 7.36670718e-02 8.00422192e-01 1.61374688e-01 1.18576216e-04 1.30841960e-04 1.05981620e-04 9.42366198e-04 7.38052502e-02 6.01656213e-02 5.75286858e-02 7.97939375e-02 1.00916281e-04 1.00275021e-04 1.00278492e-04 1.00428297e-04 1.00416662e-04 1.00426718e-04 1.00447352e-04 1.00460064e-04 1.00461373e-04 1.00460355e-04 1.00461031e-04 1.00473335e-04 1.00541700e-04 1.00732046e-04 1.01082718e-04 1.01452650e-04 1.01292288e-04 1.00289340e-04 1.00243131e-04 7.25389784e-03 1.85224339e-02 3.90019476e-01 8.67269218e-01 7.10258493e-04 1.06640895e-04 1.02656348e-04 1.01654427e-04 1.71967229e-04 1.27619244e-02 1.60039756e-02 3.98552306e-02 3.63477431e-02 4.62465221e-03 1.00372024e-04 1.00477679e-04 1.00413163e-04 1.00420264e-04 1.00436715e-04 1.00454890e-04 1.00459925e-04 1.00457830e-04 1.00455851e-04 1.00454236e-04 1.00473175e-04 1.00554535e-04 1.00774887e-04 1.01385122e-04 1.03651590e-04 1.06846863e-04 1.00226702e-04 1.00222278e-04 3.80136631e-03 1.95665304e-02 8.36677492e-01 7.81280875e-01 4.81848838e-03 1.51582892e-04 1.01101294e-04 1.00787154e-04 1.94056585e-04 7.97345117e-03 2.60043815e-02 6.56106398e-02 4.50501442e-02 5.65886088e-02 6.54474720e-02 5.41914329e-02 4.38778922e-02 3.49965729e-02 2.94310059e-02 2.50419304e-02 2.09334549e-02 1.65554639e-02 8.91447999e-03 9.20835824e-04 1.48856692e-04 1.17293865e-04 1.20111523e-04 1.75754860e-04 1.04379910e-03 2.35698745e-03 1.00233709e-04 1.00242156e-04 7.00734847e-04 3.51221971e-02 8.97631288e-01 9.40637052e-01 4.24055785e-01 2.58335116e-04 1.00660807e-04 1.00561505e-04 9.03593493e-04 2.07629427e-02 7.41258189e-02 6.81817755e-02 6.74315318e-02 7.76117519e-02 7.84140006e-02 7.22751319e-02 6.26524687e-02 5.39475270e-02 4.68900427e-02 4.07487005e-02 3.59209776e-02 3.24191637e-02 2.92557888e-02 2.38521174e-02 1.56993531e-02 9.56123602e-03 8.26648064e-03 1.07753985e-02 1.27159031e-02 4.07085381e-03 1.00260142e-04 1.00305981e-04 1.05505373e-04 1.99382729e-03 8.52234364e-01 9.88227308e-01 9.02609289e-01 1.19217533e-04 1.00545047e-04 1.00861085e-04 7.39529822e-03 7.15429634e-02 6.90652654e-02 6.48032352e-02 6.17168732e-02 6.22063577e-02 6.20198511e-02 5.91098405e-02 5.45217916e-02 5.00670522e-02 4.63981703e-02 4.35321964e-02 4.13943529e-02 4.01079692e-02 3.96059863e-02 3.84304225e-02 3.59859541e-02 3.27383466e-02 2.88683139e-02 2.45101247e-02 2.24017501e-02 8.18251050e-04 1.00408601e-04 1.00527097e-04 1.01027392e-04 1.02751088e-04 1.33740148e-04 9.87340808e-01 8.44786048e-01 1.00943456e-04 1.00458383e-04 1.06043037e-04 6.67599216e-02 6.12406395e-02 5.80515712e-02 5.50831705e-02 5.37553690e-02 5.29922433e-02 5.14640808e-02 4.89151925e-02 4.60778251e-02 4.38019782e-02 4.23837341e-02 4.18026894e-02 4.21009175e-02 4.34909761e-02 4.59110662e-02 4.86362167e-02 5.04380651e-02 4.99376543e-02 4.77632694e-02 5.19176796e-02 6.31299838e-02 1.06399774e-03 1.01430931e-04 1.01136829e-04 1.01456841e-04 1.03232640e-04 1.35755690e-04 9.83303428e-01 3.55152726e-01 1.00453617e-04 1.00672143e-04 6.18285462e-02 5.30841462e-02 5.11233360e-02 4.88626324e-02 4.71080579e-02 4.53984179e-02 4.32552248e-02 4.07312661e-02 3.83777916e-02 3.67931724e-02 3.62191275e-02 3.66097204e-02 3.79306935e-02 4.02607881e-02 4.35921922e-02 4.76063490e-02 5.17404005e-02 5.55262528e-02 6.01972006e-02 7.26509616e-02 1.13433808e-01 2.20051259e-01 2.16814335e-02 2.95883720e-03 2.18761177e-03 2.07649311e-04 2.33303290e-04 7.54327402e-02 9.88595486e-01 1.01212478e-04 1.00902958e-04 5.70717193e-02 4.55901772e-02 4.44160216e-02 4.24638242e-02 4.00529504e-02 3.72072197e-02 3.39805819e-02 3.11122406e-02 2.92172153e-02 2.82246824e-02 2.81274281e-02 2.88078748e-02 3.01383752e-02 3.20517197e-02 3.44325379e-02 3.69834155e-02 3.92603539e-02 4.09318246e-02 4.25519496e-02 4.68492396e-02 5.91582768e-02 8.87614936e-02 1.87005147e-01 4.43022460e-01 5.45851588e-01 7.01853216e-01 4.24530894e-01 8.23409438e-01 9.95360851e-01 1.01197016e-04 1.01148587e-04 5.27326241e-02 3.87664512e-02 3.83819155e-02 3.67537141e-02 3.35781090e-02 2.92147081e-02 2.49811374e-02 2.19302941e-02 2.06545684e-02 2.03922689e-02 2.06991583e-02 2.14578137e-02 2.25269478e-02 2.37808339e-02 2.50657666e-02 2.61250511e-02 2.65969150e-02 2.61704009e-02 2.49235034e-02 2.35537197e-02 2.30245460e-02 2.36061569e-02 2.54268646e-02 4.07816917e-02 5.90041056e-02 9.55408141e-02 9.49706659e-02 7.21706629e-01 9.93623435e-01 1.01183250e-04 1.01036087e-04 4.93022650e-02 3.34553383e-02 3.34243625e-02 3.25453840e-02 2.93290876e-02 2.40233354e-02 1.89197883e-02 1.56070320e-02 1.40679087e-02 1.44017506e-02 1.51436925e-02 1.60192642e-02 1.70040205e-02 1.79983564e-02 1.88548900e-02 1.93769783e-02 1.93294138e-02 1.85425151e-02 1.71072334e-02 1.54420827e-02 1.40791861e-02 1.33668706e-02 1.32849291e-02 1.38846477e-02 1.67282932e-02 2.18549855e-02 4.67504226e-02 7.26366282e-01 9.85047936e-01 1.01467354e-04 1.01192833e-04 4.65582982e-02 2.97956429e-02 3.01235002e-02 3.01729757e-02 2.70974375e-02 2.12350916e-02 1.51811186e-02 1.13749634e-02 9.63195506e-03 9.73109808e-03 1.09857945e-02 1.22352652e-02 1.33892130e-02 1.44752897e-02 1.53858373e-02 1.59579646e-02 1.60410237e-02 1.55553380e-02 1.45963468e-02 1.34705361e-02 1.25671914e-02 1.22006135e-02 1.25273485e-02 1.38865691e-02 1.74390506e-02 2.88074166e-02 1.22347884e-01 7.98813283e-01 9.40398574e-01 1.01845653e-04 1.01521699e-04 4.41389456e-02 2.65752468e-02 2.77203768e-02 2.91154012e-02 2.62303632e-02 1.90850534e-02 1.23490989e-02 8.50549247e-03 6.85476139e-03 6.70707040e-03 7.74710532e-03 9.36122984e-03 1.08929146e-02 1.22775892e-02 1.34730507e-02 1.43356035e-02 1.47418324e-02 1.46629112e-02 1.41939502e-02 1.35804191e-02 1.31875761e-02 1.34519702e-02 1.49404686e-02 1.88685898e-02 2.99819019e-02 7.11415932e-02 2.96664983e-01 7.88584888e-01 6.47261441e-01 1.02348531e-04 1.01926511e-04 4.13686894e-02 2.35428568e-02 2.58319117e-02 2.91382074e-02 2.62039974e-02 1.65734254e-02 8.82637501e-03 5.68376994e-03 4.84525878e-03 4.82234918e-03 5.66566270e-03 7.22614769e-03 9.03405156e-03 1.07774483e-02 1.23536037e-02 1.36173805e-02 1.44105051e-02 1.47027001e-02 1.46088619e-02 1.43961087e-02 1.45189408e-02 1.56491939e-02 1.89253911e-02 2.78223567e-02 5.69637716e-02 1.62728131e-01 4.25077468e-01 6.70066833e-01 8.07531402e-02 1.03232785e-04 1.02532060e-04 3.86270210e-02 2.06936784e-02 2.41691023e-02 2.99808756e-02 2.72129811e-02 1.42525136e-02 5.52458921e-03 3.01104016e-03 3.01112537e-03 3.49555281e-03 4.38337447e-03 5.87714650e-03 7.75883300e-03 9.76120215e-03 1.17122158e-02 1.34277148e-02 1.46742212e-02 1.53424712e-02 1.55720580e-02 1.57502033e-02 1.65008046e-02 1.88029185e-02 2.50396729e-02 4.33707125e-02 1.05606720e-01 2.86597848e-01 4.79931295e-01 3.93941790e-01 2.15751911e-03 1.05066450e-04 1.03726823e-04 3.58919799e-02 1.80545039e-02 2.26639621e-02 3.16301249e-02 2.98096891e-02 1.30369924e-02 3.45587451e-03 1.53727899e-03 1.66372932e-03 2.38705636e-03 3.50854802e-03 5.04385727e-03 6.99609984e-03 9.19949077e-03 1.14850402e-02 1.36487512e-02 1.54014258e-02 1.65385380e-02 1.72102489e-02 1.79851390e-02 1.97403226e-02 2.41364110e-02 3.57904509e-02 7.02301413e-02 1.76616654e-01 3.90553504e-01 4.82807308e-01 1.09276690e-01 3.16998863e-04 1.09166991e-04 1.06877887e-04 3.31143476e-02 1.55533720e-02 2.10697968e-02 3.37702483e-02 3.43179516e-02 1.32741779e-02 2.22251657e-03 7.46651145e-04 8.41025554e-04 1.53935165e-03 2.75480864e-03 4.42421343e-03 6.54403400e-03 9.02029313e-03 1.16755711e-02 1.42829604e-02 1.65449344e-02 1.82207841e-02 1.95025653e-02 2.11646259e-02 2.45227665e-02 3.24525125e-02 5.23638502e-02 1.04498826e-01 2.35087618e-01 4.20267493e-01 3.98621410e-01 2.57807449e-02 2.11761755e-04 1.18238022e-04 1.18056254e-04 3.03529669e-02 1.31936530e-02 1.91176366e-02 3.54748443e-02 4.02515978e-02 1.48124844e-02 1.49060669e-03 3.76842712e-04 4.12299356e-04 9.32228402e-04 2.11452064e-03 3.90818762e-03 6.26278855e-03 9.12596378e-03 1.22650694e-02 1.53450463e-02 1.80438515e-02 2.01871023e-02 2.20716242e-02 2.47328840e-02 3.01831327e-02 4.25007269e-02 7.02590495e-02 1.32411480e-01 2.50397265e-01 3.61949533e-01 2.34259427e-01 9.45799332e-03 2.46257754e-04 1.44190781e-04 1.84607939e-04 2.78662462e-02 1.11132059e-02 1.67932268e-02 3.57634835e-02 4.65658829e-02 1.79315545e-02 1.19273632e-03 2.27289507e-04 2.26393138e-04 5.27870201e-04 1.60322129e-03 3.49814864e-03 6.10375078e-03 9.45197977e-03 1.32083837e-02 1.67935342e-02 1.97786689e-02 2.21610647e-02 2.44629383e-02 2.80414894e-02 3.55995521e-02 5.17196730e-02 8.44022408e-02 1.47205085e-01 2.35119209e-01 2.69762397e-01 1.19970053e-01 6.63596764e-03 4.71058302e-04 2.66580377e-04 7.89481739e-04 2.60220245e-02 9.50202439e-03 1.42889097e-02 3.37423272e-02 5.16439080e-02 2.33264696e-02 1.20658730e-03 1.67864157e-04 1.52425986e-04 2.96956394e-04 1.18776422e-03 3.19997175e-03 6.08739257e-03 9.98585764e-03 1.44543946e-02 1.85305886e-02 2.16201134e-02 2.40004361e-02 2.65415292e-02 3.08475047e-02 3.98992673e-02 5.80971129e-02 9.24548879e-02 1.48823470e-01 2.07022235e-01 1.98695153e-01 7.75831938e-02 8.18090420e-03 1.31060102e-03 8.36093328e-04 3.83715867e-03 2.51386911e-02 8.45472049e-03 1.19847739e-02 2.91429963e-02 5.25371581e-02 3.17651965e-02 1.63493014e-03 1.44796024e-04 1.23594422e-04 1.83591037e-04 8.41019326e-04 3.00302845e-03 6.28143735e-03 1.08080870e-02 1.60009321e-02 2.04491504e-02 2.34644264e-02 2.57087760e-02 2.84326356e-02 3.32728066e-02 4.26928811e-02 6.08660020e-02 9.29908603e-02 1.38731331e-01 1.73491642e-01 1.50756508e-01 6.53276518e-02 1.33867553e-02 3.86553770e-03 2.94851419e-03 1.17259165e-02 2.55060084e-02 7.96629395e-03 1.01213707e-02 2.29049083e-02 4.64248396e-02 4.30101492e-02 3.21193202e-03 1.40528791e-04 1.11890920e-04 1.33503752e-04 5.51830337e-04 2.87434203e-03 6.74864836e-03 1.20524196e-02 1.78659726e-02 2.23797150e-02 2.51234416e-02 2.72298492e-02 3.01953871e-02 3.53394262e-02 4.43335809e-02 6.03339523e-02 8.65238979e-02 1.20074317e-01 1.40326783e-01 1.17354684e-01 6.03128560e-02 2.12523434e-02 8.92289542e-03 7.11566722e-03 2.08603330e-02 2.70735975e-02 8.10777023e-03 8.96043517e-03 1.69875044e-02 3.37139145e-02 4.96661402e-02 9.12782922e-03 1.58675946e-04 1.07042026e-04 1.13250018e-04 3.22793087e-04 2.75528594e-03 7.50446506e-03 1.37624899e-02 1.98705029e-02 2.39010304e-02 2.61879154e-02 2.83092987e-02 3.15567330e-02 3.67189497e-02 4.49303873e-02 5.77723011e-02 7.63892755e-02 9.79782119e-02 1.10148810e-01 9.45846140e-02 5.74510023e-02 2.83952802e-02 1.55569380e-02 1.22975120e-02 2.76801251e-02 2.91849095e-02 8.88337847e-03 9.01410170e-03 1.35761313e-02 2.18034666e-02 4.02228720e-02 2.81385668e-02 2.83331436e-04 1.05590021e-04 1.05517480e-04 1.74020286e-04 2.54521496e-03 8.53309780e-03 1.57690849e-02 2.14227177e-02 2.43385043e-02 2.61686184e-02 2.85138506e-02 3.19940709e-02 3.69532853e-02 4.40972857e-02 5.39182536e-02 6.60371333e-02 7.81725720e-02 8.51816162e-02 7.76007995e-02 5.56224510e-02 3.43128815e-02 2.26578433e-02 1.82250179e-02 3.38202119e-02 3.12889591e-02 1.02463262e-02 1.00363325e-02 1.26882317e-02 1.60016827e-02 2.43242774e-02 4.41425480e-02 1.90895714e-03 1.07160318e-04 1.02602040e-04 1.15925082e-04 1.96661451e-03 9.83778294e-03 1.75872259e-02 2.16121152e-02 2.32256763e-02 2.49045007e-02 2.75598839e-02 3.12315114e-02 3.58783342e-02 4.17212993e-02 4.88268100e-02 5.65957502e-02 6.33573160e-02 6.67956173e-02 6.35412112e-02 5.28622456e-02 3.98644134e-02 2.99040154e-02 2.49068141e-02 4.01763432e-02 3.35430875e-02 1.25071760e-02 1.19900983e-02 1.35347191e-02 1.46509754e-02 1.65666975e-02 2.66766381e-02 3.49310003e-02 1.22803482e-04 1.01780330e-04 1.03418824e-04 7.50480278e-04 1.16269756e-02 1.82542186e-02 1.97538231e-02 2.07496621e-02 2.26942338e-02 2.56307535e-02 2.93918084e-02 3.36864628e-02 3.83666232e-02 4.33442108e-02 4.83129919e-02 5.24224155e-02 5.43582886e-02 5.27999476e-02 4.75784764e-02 4.05104123e-02 3.39119658e-02 2.94050816e-02 4.54397760e-02 3.66540290e-02 1.64237954e-02 1.67465210e-02 1.71593335e-02 1.66479480e-02 1.57555677e-02 1.72119699e-02 2.64923442e-02 9.12810676e-03 1.02018203e-04 1.01034013e-04 1.30003347e-04 1.46989655e-02 1.68380924e-02 1.64936800e-02 1.77538097e-02 2.00891942e-02 2.31603291e-02 2.68291254e-02 3.09002604e-02 3.51323932e-02 3.92732657e-02 4.30170633e-02 4.58915122e-02 4.71982732e-02 4.63544801e-02 4.34792377e-02 3.94711383e-02 3.55640166e-02 3.27732675e-02 4.89603207e-02 4.10185382e-02 2.23440956e-02 2.63290815e-02 2.88083460e-02 2.85518449e-02 2.67516393e-02 2.51752511e-02 2.41886936e-02 2.51401272e-02 1.35236885e-04 1.00682009e-04 1.01652811e-04 2.09651664e-02 1.52429873e-02 1.40614817e-02 1.57459360e-02 1.80115756e-02 2.08111964e-02 2.43528914e-02 2.87891403e-02 3.39987613e-02 3.94742675e-02 4.43418734e-02 4.75155935e-02 4.81189005e-02 4.60480154e-02 4.21701930e-02 3.78731973e-02 3.44075896e-02 3.31422687e-02 5.08329086e-02 6.21319041e-02 4.46716771e-02 5.06231785e-02 5.73758706e-02 6.14796206e-02 6.33320957e-02 6.51209950e-02 6.40400127e-02 5.42716607e-02 3.22739668e-02 1.01529702e-04 1.01264603e-04 8.52538347e-02 3.41806896e-02 3.30747627e-02 3.41631174e-02 3.59263904e-02 3.83949950e-02 4.18508872e-02 4.63834554e-02 5.17746843e-02 5.74206486e-02 6.23587482e-02 6.54472858e-02 6.58044443e-02 6.33732378e-02 5.90511411e-02 5.42709753e-02 5.04235215e-02 4.82248478e-02 5.65834679e-02 
