# vtk DataFile Version 2.0
results/iter6.vtk, Created by Freefem++ 
ASCII
DATASET UNSTRUCTURED_GRID
POINTS 961 float
0 0 0
0.033333333 0 0
0.066666667 0 0
0.1 0 0
0.13333333 0 0
0.16666667 0 0
0.2 0 0
0.23333333 0 0
0.26666667 0 0
0.3 0 0
0.33333333 0 0
0.36666667 0 0
0.4 0 0
0.43333333 0 0
0.46666667 0 0
0.5 0 0
0.53333333 0 0
0.56666667 0 0
0.6 0 0
0.63333333 0 0
0.66666667 0 0
0.7 0 0
0.73333333 0 0
0.76666667 0 0
0.8 0 0
0.83333333 0 0
0.86666667 0 0
0.9 0 0
0.93333333 0 0
0.96666667 0 0
1 0 0
0 0.033333333 0
0.033333333 0.033333333 0
0.066666667 0.033333333 0
0.1 0.033333333 0
0.13333333 0.033333333 0
0.16666667 0.033333333 0
0.2 0.033333333 0
0.23333333 0.033333333 0
0.26666667 0.033333333 0
0.3 0.033333333 0
0.33333333 0.033333333 0
0.36666667 0.033333333 0
0.4 0.033333333 0
0.43333333 0.033333333 0
0.46666667 0.033333333 0
0.5 0.033333333 0
0.53333333 0.033333333 0
0.56666667 0.033333333 0
0.6 0.033333333 0
0.63333333 0.033333333 0
0.66666667 0.033333333 0
0.7 0.033333333 0
0.73333333 0.033333333 0
0.76666667 0.033333333 0
0.8 0.033333333 0
0.83333333 0.033333333 0
0.86666667 0.033333333 0
0.9 0.033333333 0
0.93333333 0.033333333 0
0.96666667 0.033333333 0
1 0.033333333 0
0 0.066666667 0
0.033333333 0.066666667 0
0.066666667 0.066666667 0
0.1 0.066666667 0
0.13333333 0.066666667 0
0.16666667 0.066666667 0
0.2 0.066666667 0
0.23333333 0.066666667 0
0.26666667 0.066666667 0
0.3 0.066666667 0
0.33333333 0.066666667 0
0.36666667 0.066666667 0
0.4 0.066666667 0
0.43333333 0.066666667 0
0.46666667 0.066666667 0
0.5 0.066666667 0
0.53333333 0.066666667 0
0.56666667 0.066666667 0
0.6 0.066666667 0
0.63333333 0.066666667 0
0.66666667 0.066666667 0
0.7 0.066666667 0
0.73333333 0.066666667 0
0.76666667 0.066666667 0
0.8 0.066666667 0
0.83333333 0.066666667 0
0.86666667 0.066666667 0
0.9 0.066666667 0
0.93333333 0.066666667 0
0.96666667 0.066666667 0
1 0.066666667 0
0 0.1 0
0.033333333 0.1 0
0.066666667 0.1 0
0.1 0.1 0
0.13333333 0.1 0
0.16666667 0.1 0
0.2 0.1 0
0.23333333 0.1 0
0.26666667 0.1 0
0.3 0.1 0
0.33333333 0.1 0
0.36666667 0.1 0
0.4 0.1 0
0.43333333 0.1 0
0.46666667 0.1 0
0.5 0.1 0
0.53333333 0.1 0
0.56666667 0.1 0
0.6 0.1 0
0.63333333 0.1 0
0.66666667 0.1 0
0.7 0.1 0
0.73333333 0.1 0
0.76666667 0.1 0
0.8 0.1 0
0.83333333 0.1 0
0.86666667 0.1 0
0.9 0.1 0
0.93333333 0.1 0
0.96666667 0.1 0
1 0.1 0
0 0.13333333 0
0.033333333 0.13333333 0
0.066666667 0.13333333 0
0.1 0.13333333 0
0.13333333 0.13333333 0
0.16666667 0.13333333 0
0.2 0.13333333 0
0.23333333 0.13333333 0
0.26666667 0.13333333 0
0.3 0.13333333 0
0.33333333 0.13333333 0
0.36666667 0.13333333 0
0.4 0.13333333 0
0.43333333 0.13333333 0
0.46666667 0.13333333 0
0.5 0.13333333 0
0.53333333 0.13333333 0
0.56666667 0.13333333 0
0.6 0.13333333 0
0.63333333 0.13333333 0
0.66666667 0.13333333 0
0.7 0.13333333 0
0.73333333 0.13333333 0
0.76666667 0.13333333 0
0.8 0.13333333 0
0.83333333 0.13333333 0
0.86666667 0.13333333 0
0.9 0.13333333 0
0.93333333 0.13333333 0
0.96666667 0.13333333 0
1 0.13333333 0
0 0.16666667 0
0.033333333 0.16666667 0
0.066666667 0.16666667 0
0.1 0.16666667 0
0.13333333 0.16666667 0
0.16666667 0.16666667 0
0.2 0.16666667 0
0.23333333 0.16666667 0
0.26666667 0.16666667 0
0.3 0.16666667 0
0.33333333 0.16666667 0
0.36666667 0.16666667 0
0.4 0.16666667 0
0.43333333 0.16666667 0
0.46666667 0.16666667 0
0.5 0.16666667 0
0.53333333 0.16666667 0
0.56666667 0.16666667 0
0.6 0.16666667 0
0.63333333 0.16666667 0
0.66666667 0.16666667 0
0.7 0.16666667 0
0.73333333 0.16666667 0
0.76666667 0.16666667 0
0.8 0.16666667 0
0.83333333 0.16666667 0
0.86666667 0.16666667 0
0.9 0.16666667 0
0.93333333 0.16666667 0
0.96666667 0.16666667 0
1 0.16666667 0
0 0.2 0
0.033333333 0.2 0
0.066666667 0.2 0
0.1 0.2 0
0.13333333 0.2 0
0.16666667 0.2 0
0.2 0.2 0
0.23333333 0.2 0
0.26666667 0.2 0
0.3 0.2 0
0.33333333 0.2 0
0.36666667 0.2 0
0.4 0.2 0
0.43333333 0.2 0
0.46666667 0.2 0
0.5 0.2 0
0.53333333 0.2 0
0.56666667 0.2 0
0.6 0.2 0
0.63333333 0.2 0
0.66666667 0.2 0
0.7 0.2 0
0.73333333 0.2 0
0.76666667 0.2 0
0.8 0.2 0
0.83333333 0.2 0
0.86666667 0.2 0
0.9 0.2 0
0.93333333 0.2 0
0.96666667 0.2 0
1 0.2 0
0 0.23333333 0
0.033333333 0.23333333 0
0.066666667 0.23333333 0
0.1 0.23333333 0
0.13333333 0.23333333 0
0.16666667 0.23333333 0
0.2 0.23333333 0
0.23333333 0.23333333 0
0.26666667 0.23333333 0
0.3 0.23333333 0
0.33333333 0.23333333 0
0.36666667 0.23333333 0
0.4 0.23333333 0
0.43333333 0.23333333 0
0.46666667 0.23333333 0
0.5 0.23333333 0
0.53333333 0.23333333 0
0.56666667 0.23333333 0
0.6 0.23333333 0
0.63333333 0.23333333 0
0.66666667 0.23333333 0
0.7 0.23333333 0
0.73333333 0.23333333 0
0.76666667 0.23333333 0
0.8 0.23333333 0
0.83333333 0.23333333 0
0.86666667 0.23333333 0
0.9 0.23333333 0
0.93333333 0.23333333 0
0.96666667 0.23333333 0
1 0.23333333 0
0 0.26666667 0
0.033333333 0.26666667 0
0.066666667 0.26666667 0
0.1 0.26666667 0
0.13333333 0.26666667 0
0.16666667 0.26666667 0
0.2 0.26666667 0
0.23333333 0.26666667 0
0.26666667 0.26666667 0
0.3 0.26666667 0
0.33333333 0.26666667 0
0.36666667 0.26666667 0
0.4 0.26666667 0
0.43333333 0.26666667 0
0.46666667 0.26666667 0
0.5 0.26666667 0
0.53333333 0.26666667 0
0.56666667 0.26666667 0
0.6 0.26666667 0
0.63333333 0.26666667 0
0.66666667 0.26666667 0
0.7 0.26666667 0
0.73333333 0.26666667 0
0.76666667 0.26666667 0
0.8 0.26666667 0
0.83333333 0.26666667 0
0.86666667 0.26666667 0
0.9 0.26666667 0
0.93333333 0.26666667 0
0.96666667 0.26666667 0
1 0.26666667 0
0 0.3 0
0.033333333 0.3 0
0.066666667 0.3 0
0.1 0.3 0
0.13333333 0.3 0
0.16666667 0.3 0
0.2 0.3 0
0.23333333 0.3 0
0.26666667 0.3 0
0.3 0.3 0
0.33333333 0.3 0
0.36666667 0.3 0
0.4 0.3 0
0.43333333 0.3 0
0.46666667 0.3 0
0.5 0.3 0
0.53333333 0.3 0
0.56666667 0.3 0
0.6 0.3 0
0.63333333 0.3 0
0.66666667 0.3 0
0.7 0.3 0
0.73333333 0.3 0
0.76666667 0.3 0
0.8 0.3 0
0.83333333 0.3 0
0.86666667 0.3 0
0.9 0.3 0
0.93333333 0.3 0
0.96666667 0.3 0
1 0.3 0
0 0.33333333 0
0.033333333 0.33333333 0
0.066666667 0.33333333 0
0.1 0.33333333 0
0.13333333 0.33333333 0
0.16666667 0.33333333 0
0.2 0.33333333 0
0.23333333 0.33333333 0
0.26666667 0.33333333 0
0.3 0.33333333 0
0.33333333 0.33333333 0
0.36666667 0.33333333 0
0.4 0.33333333 0
0.43333333 0.33333333 0
0.46666667 0.33333333 0
0.5 0.33333333 0
0.53333333 0.33333333 0
0.56666667 0.33333333 0
0.6 0.33333333 0
0.63333333 0.33333333 0
0.66666667 0.33333333 0
0.7 0.33333333 0
0.73333333 0.33333333 0
0.76666667 0.33333333 0
0.8 0.33333333 0
0.83333333 0.33333333 0
0.86666667 0.33333333 0
0.9 0.33333333 0
0.93333333 0.33333333 0
0.96666667 0.33333333 0
1 0.33333333 0
0 0.36666667 0
0.033333333 0.36666667 0
0.066666667 0.36666667 0
0.1 0.36666667 0
0.13333333 0.36666667 0
0.16666667 0.36666667 0
0.2 0.36666667 0
0.23333333 0.36666667 0
0.26666667 0.36666667 0
0.3 0.36666667 0
0.33333333 0.36666667 0
0.36666667 0.36666667 0
0.4 0.36666667 0
0.43333333 0.36666667 0
0.46666667 0.36666667 0
0.5 0.36666667 0
0.53333333 0.36666667 0
0.56666667 0.36666667 0
0.6 0.36666667 0
0.63333333 0.36666667 0
0.66666667 0.36666667 0
0.7 0.36666667 0
0.73333333 0.36666667 0
0.76666667 0.36666667 0
0.8 0.36666667 0
0.83333333 0.36666667 0
0.86666667 0.36666667 0
0.9 0.36666667 0
0.93333333 0.36666667 0
0.96666667 0.36666667 0
1 0.36666667 0
0 0.4 0
0.033333333 0.4 0
0.066666667 0.4 0
0.1 0.4 0
0.13333333 0.4 0
0.16666667 0.4 0
0.2 0.4 0
0.23333333 0.4 0
0.26666667 0.4 0
0.3 0.4 0
0.33333333 0.4 0
0.36666667 0.4 0
0.4 0.4 0
0.43333333 0.4 0
0.46666667 0.4 0
0.5 0.4 0
0.53333333 0.4 0
0.56666667 0.4 0
0.6 0.4 0
0.63333333 0.4 0
0.66666667 0.4 0
0.7 0.4 0
0.73333333 0.4 0
0.76666667 0.4 0
0.8 0.4 0
0.83333333 0.4 0
0.86666667 0.4 0
0.9 0.4 0
0.93333333 0.4 0
0.96666667 0.4 0
1 0.4 0
0 0.43333333 0
0.033333333 0.43333333 0
0.066666667 0.43333333 0
0.1 0.43333333 0
0.13333333 0.43333333 0
0.16666667 0.43333333 0
0.2 0.43333333 0
0.23333333 0.43333333 0
0.26666667 0.43333333 0
0.3 0.43333333 0
0.33333333 0.43333333 0
0.36666667 0.43333333 0
0.4 0.43333333 0
0.43333333 0.43333333 0
0.46666667 0.43333333 0
0.5 0.43333333 0
0.53333333 0.43333333 0
0.56666667 0.43333333 0
0.6 0.43333333 0
0.63333333 0.43333333 0
0.66666667 0.43333333 0
0.7 0.43333333 0
0.73333333 0.43333333 0
0.76666667 0.43333333 0
0.8 0.43333333 0
0.83333333 0.43333333 0
0.86666667 0.43333333 0
0.9 0.43333333 0
0.93333333 0.43333333 0
0.96666667 0.43333333 0
1 0.43333333 0
0 0.46666667 0
0.033333333 0.46666667 0
0.066666667 0.46666667 0
0.1 0.46666667 0
0.13333333 0.46666667 0
0.16666667 0.46666667 0
0.2 0.46666667 0
0.23333333 0.46666667 0
0.26666667 0.46666667 0
0.3 0.46666667 0
0.33333333 0.46666667 0
0.36666667 0.46666667 0
0.4 0.46666667 0
0.43333333 0.46666667 0
0.46666667 0.46666667 0
0.5 0.46666667 0
0.53333333 0.46666667 0
0.56666667 0.46666667 0
0.6 0.46666667 0
0.63333333 0.46666667 0
0.66666667 0.46666667 0
0.7 0.46666667 0
0.73333333 0.46666667 0
0.76666667 0.46666667 0
0.8 0.46666667 0
0.83333333 0.46666667 0
0.86666667 0.46666667 0
0.9 0.46666667 0
0.93333333 0.46666667 0
0.96666667 0.46666667 0
1 0.46666667 0
0 0.5 0
0.033333333 0.5 0
0.066666667 0.5 0
0.1 0.5 0
0.13333333 0.5 0
0.16666667 0.5 0
0.2 0.5 0
0.23333333 0.5 0
0.26666667 0.5 0
0.3 0.5 0
0.33333333 0.5 0
0.36666667 0.5 0
0.4 0.5 0
0.43333333 0.5 0
0.46666667 0.5 0
0.5 0.5 0
0.53333333 0.5 0
0.56666667 0.5 0
0.6 0.5 0
0.63333333 0.5 0
0.66666667 0.5 0
0.7 0.5 0
0.73333333 0.5 0
0.76666667 0.5 0
0.8 0.5 0
0.83333333 0.5 0
0.86666667 0.5 0
0.9 0.5 0
0.93333333 0.5 0
0.96666667 0.5 0
1 0.5 0
0 0.53333333 0
0.033333333 0.53333333 0
0.066666667 0.53333333 0
0.1 0.53333333 0
0.13333333 0.53333333 0
0.16666667 0.53333333 0
0.2 0.53333333 0
0.23333333 0.53333333 0
0.26666667 0.53333333 0
0.3 0.53333333 0
0.33333333 0.53333333 0
0.36666667 0.53333333 0
0.4 0.53333333 0
0.43333333 0.53333333 0
0.46666667 0.53333333 0
0.5 0.53333333 0
0.53333333 0.53333333 0
0.56666667 0.53333333 0
0.6 0.53333333 0
0.63333333 0.53333333 0
0.66666667 0.53333333 0
0.7 0.53333333 0
0.73333333 0.53333333 0
0.76666667 0.53333333 0
0.8 0.53333333 0
[...]
CELL_DATA 1920
Scalars  Label int 1
LOOKUP_TABLE FreeFempp_table
0
0
0
0
0
0
0
0
0
0
0
0
0
0
0
0
0
0
0
0
0
0
0
0
0
0
0
0
0
0
0
0
0
0
0
0
0
0
0
0
0
0
0
0
0
0
0
0
0
0
0
0
0
0
0
0
0
0
0
0
0
0
0
0
0
0
0
0
0
0
0
0
0
0
0
0
0
0
0
0
0
0
0
0
0
0
0
0
0
0
0
0
0
0
0
0
0
0
0
0
0
0
0
0
0
0
0
0
0
0
0
0
0
0
0
0
0
0
0
0
0
0
0
0
0
0
0
0
0
0
0
0
0
0
0
0
0
0
0
0
0
0
0
0
0
0
0
0
0
0
0
0
0
0
0
0
0
0
0
0
0
0
0
0
0
0
0
0
0
0
0
0
0
0
0
0
0
0
0
0
0
0
0
0
0
0
0
0
0
0
0
0
0
0
0
0
0
0
0
0
0
0
0
0
0
0
0
0
0
0
0
0
0
0
0
0
0
0
0
0
0
0
0
0
0
0
0
0
0
0
0
0
0
0
0
0
0
0
0
0
0
0
0
0
0
0
0
0
0
0
0
0
0
0
0
0
0
0
0
0
0
0
0
0
0
0
0
0
0
0
0
0
0
0
0
0
0
0
0
0
0
0
0
0
0
0
0
0
0
0
0
0
0
0
0
0
0
0
0
0
0
0
0
0
0
0
0
0
0
0
0
0
0
0
0
0
0
0
0
0
0
0
0
0
0
0
0
0
0
0
0
0
0
0
0
0
0
0
0
0
0
0
0
0
0
0
0
0
0
0
0
0
0
0
0
0
0
0
0
0
0
0
0
0
0
0
0
0
0
0
0
0
0
0
0
0
0
0
0
0
0
0
0
0
0
0
0
0
0
0
0
0
0
0
0
0
0
0
0
0
0
0
0
0
0
0
0
0
0
0
0
0
0
0
0
0
0
0
0
0
0
0
0
0
0
0
0
0
0
0
0
0
0
0
0
0
0
0
0
0
0
0
0
0
0
0
0
0
0
0
0
0
0
0
0
0
0
0
0
0
0
0
0
0
0
0
0
0
0
0
0
0
0
0
0
0
0
0
0
0
0
0
0
0
0
0
0
0
0
0
0
0
0
0
0
0
0
0
0
0
0
0
0
0
0
0
0
0
0
0
0
0
0
0
0
0
0
0
0
0
0
0
0
0
0
0
0
0
0
0
0
0
0
0
0
0
0
0
0
0
0
0
0
0
0
0
0
0
0
0
0
0
0
0
0
0
0
0
0
0
0
0
0
0
0
0
0
0
0
0
0
0
0
0
0
0
0
0
0
0
0
0
0
0
0
0
0
0
0
0
0
0
0
0
0
0
0
0
0
0
0
0
0
0
0
0
0
0
0
0
0
0
0
0
0
0
0
0
0
0
0
0
0
0
0
0
0
0
0
0
0
0
0
0
0
0
0
0
0
0
0
0
0
0
0
0
0
0
0
0
0
0
0
0
0
0
0
0
0
0
0
0
0
0
0
0
0
0
0
0
0
0
0
0
0
0
0
0
0
0
0
0
0
0
0
0
0
0
0
0
0
0
0
0
0
0
0
0
0
0
0
0
0
0
0
0
0
0
0
0
0
0
0
0
0
0
0
0
0
0
0
0
0
0
0
0
0
0
0
0
0
0
0
0
0
0
0
0
0
0
0
0
0
0
0
0
0
0
0
0
0
0
0
0
0
0
0
0
0
0
0
0
0
0
0
0
0
0
0
0
0
0
0
0
0
0
0
0
0
0
0
0
0
0
0
0
0
0
0
0
0
0
0
0
0
0
0
0
0
0
0
0
0
0
0
0
0
0
0
0
0
0
0
0
0
0
0
0
0
0
0
0
0
0
0
0
0
0
0
0
0
0
0
0
0
0
0
0
0
0
0
0
0
0
0
0
0
0
0
0
0
0
0
0
0
0
0
0
0
0
0
0
0
0
0
0
0
0
0
0
0
0
0
0
0
0
0
0
0
0
0
0
0
0
0
0
0
0
0
0
0
0
0
0
0
0
0
0
0
0
0
0
0
0
0
0
0
0
0
0
0
0
0
0
0
0
0
0
0
0
0
0
0
0
0
0
0
0
0
0
0
0
0
0
0
0
0
0
0
0
0
0
0
0
0
0
0
0
0
0
0
0
0
0
0
0
0
0
0
0
0
0
0
0
0
0
0
0
0
0
0
0
0
0
0
0
0
0
0
0
0
0
0
0
0
0
0
0
0
0
0
0
0
0
0
0
0
0
0
0
0
0
0
0
0
0
0
0
0
0
0
0
0
0
0
0
0
0
0
0
0
0
0
0
0
0
0
0
0
0
0
0
0
0
0
0
0
0
0
0
0
0
0
0
0
0
0
0
0
0
0
0
0
0
0
0
0
0
0
0
0
0
0
0
0
0
0
0
0
0
0
0
0
0
0
0
0
0
0
0
0
0
0
0
0
0
0
0
0
0
0
0
0
0
0
0
0
0
0
0
0
0
0
0
0
0
0
0
0
0
0
0
0
0
0
0
0
0
0
0
0
0
0
0
0
0
0
0
0
0
0
0
0
0
0
0
0
0
0
0
0
0
0
0
0
0
0
0
0
0
0
0
0
0
0
0
0
0
0
0
0
0
0
0
0
0
0
0
0
0
0
0
0
0
0
0
0
0
0
0
0
0
0
0
0
0
0
0
0
0
0
0
0
0
0
0
0
0
0
0
0
0
0
0
0
0
0
0
0
0
0
0
0
0
0
0
0
0
0
0
0
0
0
0
0
0
0
0
0
0
0
0
0
0
0
0
0
0
0
0
0
0
0
0
0
0
0
0
0
0
0
0
0
0
0
0
0
0
0
0
0
0
0
0
0
0
0
0
0
0
0
0
0
0
0
0
0
0
0
0
0
0
0
0
0
0
0
0
0
0
0
0
0
0
0
0
0
0
0
0
0
0
0
0
0
0
0
0
0
0
0
0
0
0
0
0
0
0
0
0
0
0
0
0
0
0
0
0
0
0
0
0
0
0
0
0
0
0
0
0
0
0
0
0
0
0
0
0
0
0
0
0
0
0
0
0
0
0
0
0
0
0
0
0
0
0
0
0
0
0
0
0
0
0
0
0
0
0
0
0
0
0
0
0
0
0
0
0
0
0
0
0
0
0
0
0
0
0
0
0
0
0
0
0
0
0
0
0
0
0
0
0
0
0
0
0
0
0
0
0
0
0
0
0
0
0
0
0
0
0
0
0
0
0
0
0
0
0
0
0
0
0
0
0
0
0
0
0
0
0
0
0
0
0
0
0
0
0
0
0
0
0
0
0
0
0
0
0
0
0
0
0
0
0
0
0
0
0
0
0
0
0
0
0
0
0
0
0
0
0
0
0
0
0
0
0
0
0
0
0
0
0
0
0
0
0
0
0
0
0
0
0
0
0
0
0
0
0
0
0
0
0
0
0
0
0
0
0
0
0
0
0
0
0
0
0
0
0
0
0
0
0
0
0
0
0
0
0
0
0
0
0
0
0
0
0
0
0
0
0
0
0
0
0
0
0
0
0
0
0
0
0
0
0
0
0
0
0
0
0
0
0
0
0
0
0
0
0
0
0
0
0
0
0
0
0
0
0
0
0
0
0
0
0
0
0
0
0
0
0
0
0
0
0
0
0
0
0
0
0
0
0
0
0
0
0
0
0
0
0
0
0
0
0
0
0
0
0
0
0
0
0
0
0
0
0
0
0
0
0
0
0
0
0
0
0
0
0
0
0
0
0
0
0
0
0
0
0
0
0
0
0
0
0
0
0
0
0
0
0
0
0
0
0
0
0
0
0
0
0
0
0
0
0
0
0
0
0
0
0
0
0
0
0
0
0
0
0
0
0
0
0
0
0
0
0
0
0
0
0
0
0
0
0
0
0
0
0
0
0
0
0
0
0
0
0
0
0
0
0
0
0
0
0
0
0
0
0
0
0
0
0
0
0
0
0
0
0
0
0
0
0
0
0
0
0
0
0
0
0
0
0
0
0
0
0
0
0
0
0
0
0
0
0
0
0
0
0
0
0
0
0
0
0
0
0
0
0
0
0
1
1
1
1
1
1
1
1
1
1
1
1
1
1
1
1
1
1
1
1
1
1
1
1
1
1
1
1
1
1
2
2
2
2
2
2
2
2
2
2
2
2
2
2
2
2
2
2
2
2
2
2
2
2
2
2
2
2
2
2
3
3
3
3
3
3
3
3
3
3
3
3
3
3
3
3
3
3
3
3
3
3
3
3
3
3
3
3
3
3
4
4
4
4
4
4
4
4
4
4
4
4
4
4
4
4
4
4
4
4
4
4
4
4
4
4
4
4
4
4

LOOKUP_TABLE FreeFempp_table 5
1.00000000 0.00000000 0.00000000 1.00000000
1.00000000 1.00000000 0.00000000 1.00000000
1.00000000 0.00000000 1.00000000 1.00000000
0.00000000 1.00000000 0.00000000 1.00000000
0.00000000 1.00000000 1.00000000 1.00000000

POINT_DATA 961
FIELD FieldData 1
Density 1 961 float
5.48123896e-01 4.28300112e-01 4.09785986e-01 4.02295262e-01 3.97544175e-01 3.90683740e-01 3.77678424e-01 3.58867794e-01 3.39212537e-01 2.95170099e-01 6.55718222e-02 1.60837744e-03 1.24484836e-03 8.88148881e-03 2.50218481e-01 5.12322605e-01 6.24219954e-01 6.82365060e-01 7.13116229e-01 7.26047635e-01 7.25855350e-01 7.17024565e-01 7.03858435e-01 6.89685404e-01 6.76574469e-01 6.65537179e-01 6.56894267e-01 6.50612056e-01 6.46628797e-01 6.46398425e-01 6.98098183e-01 4.94896114e-01 2.50296295e-01 2.29303598e-01 2.24029213e-01 2.20713809e-01 2.15916380e-01 2.07130596e-01 1.94699734e-01 1.81086600e-01 1.57313392e-01 6.04964159e-02 1.75916706e-03 6.23339845e-04 1.70501438e-03 7.64854774e-02 2.61787623e-01 4.24657077e-01 5.64184070e-01 6.57393575e-01 7.04262555e-01 7.16546655e-01 7.06210196e-01 6.83153391e-01 6.55130804e-01 6.27530694e-01 6.03408217e-01 5.84020674e-01 5.69540083e-01 5.59802175e-01 5.58115959e-01 6.46621406e-01 1.15335621e-04 1.13296039e-04 1.13463255e-04 1.13288363e-04 1.13026559e-04 1.13048409e-04 1.13189708e-04 1.13023023e-04 1.13127455e-04 1.13411566e-04 1.13500799e-04 1.12862625e-04 1.12479378e-04 1.10554174e-04 1.34760424e-01 2.15624377e-01 3.02454442e-01 4.39148962e-01 5.73405623e-01 6.51929080e-01 6.80244505e-01 6.77941740e-01 6.59843743e-01 6.35548294e-01 6.10922873e-01 5.89132011e-01 5.71509182e-01 5.58294535e-01 5.49368799e-01 5.48340201e-01 6.43494248e-01 1.22616882e-04 1.12080939e-04 1.13519156e-04 1.13431292e-04 1.13117232e-04 1.12977825e-04 1.13150498e-04 1.13112830e-04 1.13035516e-04 1.13273054e-04 1.13542315e-04 1.13475151e-04 1.12958973e-04 1.07061482e-04 1.06760621e-04 2.24921882e-01 2.06843168e-01 3.27574223e-01 4.91622806e-01 5.95123231e-01 6.34981096e-01 6.38332665e-01 6.24251366e-01 6.03586674e-01 5.82360685e-01 5.63644528e-01 5.48678041e-01 5.37620783e-01 5.30256569e-01 5.30219674e-01 6.35501444e-01 5.06501198e-01 2.93523520e-01 2.87835449e-01 2.89886326e-01 2.94251084e-01 3.00664186e-01 3.10068518e-01 3.24259847e-01 3.41577828e-01 3.57894659e-01 3.70188862e-01 3.76964480e-01 3.77646238e-01 3.55166823e-01 1.07273692e-04 1.06773885e-04 1.65412560e-01 2.35924944e-01 4.35404003e-01 5.49382627e-01 5.91036677e-01 5.95286369e-01 5.83294034e-01 5.65580189e-01 5.47639489e-01 5.32190263e-01 5.20232141e-01 5.11739433e-01 5.06308138e-01 5.07299721e-01 6.24809504e-01 5.35515010e-01 3.24310631e-01 3.13257873e-01 3.13968450e-01 3.15143466e-01 3.18753719e-01 3.23961049e-01 3.31521034e-01 3.41217548e-01 3.52069318e-01 3.63181978e-01 3.73844951e-01 3.83264661e-01 3.90052289e-01 3.51065814e-01 1.06958563e-04 1.10640678e-04 2.44294822e-01 4.16010410e-01 5.22785664e-01 5.53500533e-01 5.54019094e-01 5.42062402e-01 5.26139259e-01 5.10747790e-01 4.98168260e-01 4.89076883e-01 4.83174384e-01 4.79792535e-01 4.81673986e-01 6.12276435e-01 5.65899372e-01 3.83210927e-01 3.74318898e-01 3.70679438e-01 3.67740482e-01 3.62286478e-01 3.57103527e-01 3.52249354e-01 3.49077076e-01 3.48859012e-01 3.52752447e-01 3.61118942e-01 3.72566223e-01 3.83671343e-01 3.70728612e-01 1.13311340e-04 1.13682603e-04 4.06427443e-01 4.68922317e-01 5.19532621e-01 5.28681219e-01 5.20918250e-01 5.06112397e-01 4.89763409e-01 4.75351661e-01 4.64614272e-01 4.57781911e-01 4.54156071e-01 4.52704459e-01 4.55200255e-01 5.98718762e-01 5.96243680e-01 4.42299187e-01 4.38471168e-01 4.30276662e-01 4.20450091e-01 4.07483220e-01 3.91539663e-01 3.74273747e-01 3.58329415e-01 3.46792817e-01 3.42382431e-01 3.46385837e-01 3.57688278e-01 3.72928917e-01 3.70921910e-01 1.13033901e-04 1.12927228e-04 5.55829346e-01 5.57393968e-01 5.37465990e-01 5.22089362e-01 5.01464128e-01 4.79485780e-01 4.59462941e-01 4.43858117e-01 4.33588296e-01 4.28168416e-01 4.26308692e-01 4.26519275e-01 4.29310888e-01 5.84817708e-01 6.29643023e-01 5.08747280e-01 5.08789361e-01 4.98484671e-01 4.84086066e-01 4.63578224e-01 4.37576622e-01 4.07612473e-01 3.77405256e-01 3.51983696e-01 3.36031377e-01 3.32300544e-01 3.40453476e-01 3.57194215e-01 3.62473726e-01 1.13078386e-04 1.13050657e-04 6.09312236e-01 6.15311027e-01 5.65997720e-01 5.29660285e-01 4.94226038e-01 4.61743832e-01 4.35397387e-01 4.16848242e-01 4.05948848e-01 4.01237905e-01 4.00681287e-01 4.02271360e-01 4.05099422e-01 5.71161211e-01 6.67497218e-01 5.85993648e-01 5.89215040e-01 5.79936266e-01 5.64758599e-01 5.40806115e-01 5.07442951e-01 4.65381533e-01 4.18368220e-01 3.73663217e-01 3.39547187e-01 3.22041005e-01 3.22061270e-01 3.34719688e-01 3.43900919e-01 1.13125010e-04 1.13092683e-04 6.41970336e-01 6.60397470e-01 5.95868051e-01 5.42864561e-01 4.93018597e-01 4.49180245e-01 4.15623546e-01 3.93585265e-01 3.81732881e-01 3.77491683e-01 3.78027618e-01 3.80831033e-01 3.83566409e-01 5.58361828e-01 7.08352506e-01 6.71571195e-01 6.77579820e-01 6.72164798e-01 6.61986947e-01 6.42847955e-01 6.10809207e-01 5.62976062e-01 4.99730587e-01 4.28342789e-01 3.63113225e-01 3.19128245e-01 3.02045286e-01 3.02916259e-01 3.11751634e-01 1.13132264e-04 1.13114940e-04 6.62653625e-01 6.97437823e-01 6.27104282e-01 5.59117675e-01 4.94117677e-01 4.38495159e-01 3.97994787e-01 3.73076051e-01 3.60835165e-01 3.57419670e-01 3.59201998e-01 3.63240868e-01 3.65893990e-01 5.47207952e-01 7.45505631e-01 7.50766993e-01 7.58878589e-01 7.60613263e-01 7.61364698e-01 7.55691707e-01 7.38301337e-01 7.02537715e-01 6.39487565e-01 5.44129252e-01 4.28930759e-01 3.29473436e-01 2.74196088e-01 2.53374517e-01 2.59969711e-01 1.13147784e-04 1.13110131e-04 6.73247874e-01 7.30631232e-01 6.61520064e-01 5.78510761e-01 4.95747745e-01 4.27415341e-01 3.80959958e-01 3.54790956e-01 3.43581229e-01 3.41945231e-01 3.45507115e-01 3.50998163e-01 3.53667945e-01 5.38788199e-01 7.71358430e-01 8.07472169e-01 8.17573965e-01 8.26497555e-01 8.37115288e-01 8.45979750e-01 8.49657536e-01 8.42456937e-01 8.12013268e-01 7.35856891e-01 5.82732499e-01 3.74711722e-01 2.17250958e-01 1.48593709e-01 1.60324469e-01 1.13031805e-04 1.13114831e-04 6.70920908e-01 7.64559627e-01 7.01606095e-01 6.01138651e-01 4.96066332e-01 4.14074600e-01 3.63760114e-01 3.39087307e-01 3.31151485e-01 3.32801253e-01 3.38998020e-01 3.46295774e-01 3.49063814e-01 5.34549654e-01 7.76586890e-01 8.27820778e-01 8.38543177e-01 8.53225768e-01 8.73138845e-01 8.94058704e-01 9.12598312e-01 9.25538242e-01 9.28792715e-01 9.11763072e-01 8.30403209e-01 5.45665920e-01 1.47617012e-01 2.20657401e-02 7.90211745e-03 1.14254239e-04 1.13386755e-04 6.55434191e-01 8.01766872e-01 7.48842120e-01 6.25949264e-01 4.92311656e-01 3.96986037e-01 3.46842468e-01 3.27697575e-01 3.26032341e-01 3.32920730e-01 3.42797041e-01 3.52262944e-01 3.55044574e-01 5.36265671e-01 7.53264606e-01 8.03731322e-01 8.15311313e-01 8.35909009e-01 8.64509344e-01 8.96263719e-01 9.26603675e-01 9.51651514e-01 9.68330204e-01 9.76518571e-01 9.72065270e-01 8.96475971e-01 2.44774744e-01 8.12669098e-03 2.45459937e-03 1.13283801e-04 1.08294240e-04 6.27366364e-01 8.45355451e-01 7.99983144e-01 6.50108397e-01 4.80993211e-01 3.76255929e-01 3.32920879e-01 3.24523509e-01 3.32645744e-01 3.46858919e-01 3.61319005e-01 3.73034507e-01 3.75419855e-01 5.45833886e-01 6.99380338e-01 7.16348290e-01 7.27249980e-01 7.51703858e-01 7.90024996e-01 8.37186992e-01 8.87748182e-01 9.33745742e-01 9.65074837e-01 9.81729925e-01 9.90497828e-01 9.93608952e-01 9.43892717e-01 5.76727055e-02 3.92184034e-03 7.22929742e-03 1.08532884e-04 1.14144874e-04 9.19988096e-01 8.56436312e-01 6.72581077e-01 4.61833030e-01 3.56799006e-01 3.28786105e-01 3.36818218e-01 3.58020693e-01 3.80822301e-01 3.99676144e-01 4.12784725e-01 4.13928747e-01 5.64669371e-01 6.28220677e-01 5.64728677e-01 5.66223204e-01 5.84350765e-01 6.18253291e-01 6.69129968e-01 7.41830528e-01 8.32799435e-01 9.03685033e-01 9.08471107e-01 6.86758518e-01 9.25104976e-01 9.97385502e-01 9.88032043e-01 1.12088926e-01 2.67970022e-02 1.17266209e-04 1.16799216e-04 9.38279986e-01 9.30327117e-01 7.07231581e-01 4.50686783e-01 3.55140656e-01 3.48766178e-01 3.76909018e-01 4.11358774e-01 4.40229863e-01 4.59993154e-01 4.71577585e-01 4.70233500e-01 5.92210531e-01 5.65419734e-01 4.09678102e-01 3.92431378e-01 3.94221306e-01 4.07762319e-01 4.33507115e-01 4.83663142e-01 5.85242152e-01 6.36284709e-01 2.08001301e-01 2.15708930e-03 4.32989851e-04 1.03322417e-01 9.97047424e-01 9.97973084e-01 4.88654882e-01 1.15871699e-04 1.09713314e-04 8.45109224e-01 9.64011192e-01 7.90181696e-01 5.32167435e-01 4.32185471e-01 4.26282734e-01 4.62332398e-01 4.96789306e-01 5.19637644e-01 5.31534553e-01 5.36625087e-01 5.31724513e-01 6.23320341e-01 5.27916074e-01 3.12613130e-01 2.79097885e-01 2.69297540e-01 2.69893289e-01 2.74974644e-01 2.88312912e-01 3.43188077e-01 4.08070534e-01 2.57856417e-02 5.93532226e-04 3.69166170e-04 4.67369013e-04 9.65731516e-02 9.97970641e-01 9.98273373e-01 8.90771091e-01 1.10627756e-04 1.17071831e-04 9.89369392e-01 8.26133549e-01 7.11254716e-01 7.10701108e-01 6.80459380e-01 5.98897874e-01 5.87744474e-01 5.83363175e-01 5.79836071e-01 5.76620400e-01 5.69456041e-01 6.46397531e-01 5.14809310e-01 2.73226261e-01 2.29046136e-01 2.13638663e-01 2.09087864e-01 2.06729084e-01 2.02772588e-01 2.16719449e-01 3.17697555e-01 3.83903742e-01 9.01716482e-03 3.30866693e-04 2.12209299e-04 6.02148531e-04 7.55298257e-01 9.98243332e-01 9.97963190e-01 1.18623284e-04 1.12656104e-04 9.48808491e-01 9.68182683e-01 4.28233529e-03 4.03434178e-03 6.29834950e-01 7.53340364e-01 6.08000040e-01 5.64672947e-01 5.53968072e-01 5.52808523e-01 5.50535381e-01 6.46239400e-01 5.17178893e-01 2.70867050e-01 2.24189967e-01 2.04590932e-01 1.94862857e-01 1.87653169e-01 1.76999331e-01 1.71292499e-01 2.11118579e-01 3.91510129e-01 5.66656351e-01 8.87675881e-02 1.81045019e-04 1.54439593e-04 2.56579672e-03 9.76044655e-01 9.98260498e-01 9.97947216e-01 1.12636721e-04 1.14775525e-04 9.97100890e-01 5.89139909e-02 4.15987015e-04 2.82415655e-04 2.43238144e-04 5.15992582e-01 4.34987456e-01 4.33638275e-01 4.49987531e-01 4.61218536e-01 6.12138152e-01 5.27660429e-01 2.89517313e-01 2.48120800e-01 2.24189639e-01 2.08487645e-01 1.96843207e-01 1.84468210e-01 1.75963417e-01 1.90106675e-01 2.76018232e-01 5.18667161e-01 7.34522462e-01 9.83462930e-02 1.45193742e-04 1.37829542e-04 2.35873330e-02 9.89651859e-01 9.97810245e-01 9.97531295e-01 1.15915580e-04 1.17338772e-04 9.66394901e-01 2.65833065e-02 4.29200154e-04 1.82565927e-04 1.64583136e-04 3.33415389e-01 3.16189021e-01 3.20021629e-01 3.30104619e-01 5.44844329e-01 5.42320967e-01 3.18888038e-01 2.90033877e-01 2.62932181e-01 2.39102885e-01 2.24943459e-01 2.12900579e-01 2.06600636e-01 2.16653019e-01 2.65858769e-01 3.96479875e-01 6.26193643e-01 7.56947160e-01 1.02641655e-03 1.35442271e-04 1.59893592e-04 5.83821714e-01 9.92470324e-01 9.97143149e-01 9.97012377e-01 1.19099772e-04 1.21733276e-04 9.97460365e-01 9.98944163e-01 9.99582171e-01 1.57149319e-04 1.50148597e-04 2.81770170e-01 2.26461574e-01 2.06394702e-01 4.53947157e-01 5.58919370e-01 3.53577465e-01 3.38045925e-01 3.13762516e-01 2.80283630e-01 2.66298234e-01 2.55610645e-01 2.50800669e-01 2.59583086e-01 2.92491525e-01 3.64734888e-01 4.89441395e-01 6.59742177e-01 6.74363792e-01 1.38140953e-04 1.23707476e-04 4.77266591e-03 8.50596964e-01 9.92678583e-01 9.96672511e-01 9.96738553e-01 1.24390906e-04 1.29974433e-04 2.04640717e-04 3.68153618e-04 7.74760425e-01 1.54936555e-04 1.53039131e-04 1.61651596e-01 1.09357826e-01 3.51091027e-01 5.75329900e-01 3.89901012e-01 3.84879559e-01 3.66076350e-01 3.28131109e-01 3.14939916e-01 3.05279732e-01 3.00294131e-01 3.05546314e-01 3.25724930e-01 3.65828663e-01 4.30655211e-01 5.25135934e-01 6.26853168e-01 5.21835804e-01 1.19573284e-04 1.18129487e-04 6.08673133e-02 9.31552351e-01 9.90564942e-01 9.96295094e-01 9.96963441e-01 1.49026615e-04 1.72980130e-04 2.05083081e-04 3.99348442e-04 9.99645174e-01 1.55706919e-04 1.86838064e-04 5.34799509e-02 2.53007770e-01 5.89136243e-01 4.23216015e-01 4.24595892e-01 4.11681324e-01 3.75472367e-01 3.63917500e-01 3.54516000e-01 3.48432451e-01 3.48933846e-01 3.58139813e-01 3.77776742e-01 4.09766704e-01 4.57501173e-01 5.20435870e-01 5.66705883e-01 4.12244499e-01 1.16552153e-04 1.14630217e-04 4.11673486e-01 9.22249079e-01 9.85909224e-01 9.95853007e-01 9.95398283e-01 9.79597032e-01 9.24616754e-02 7.87952449e-03 6.33738697e-01 2.16403074e-04 2.02951836e-04 5.01033366e-02 1.94417745e-01 5.98041832e-01 4.48349267e-01 4.52694803e-01 4.44703311e-01 4.14354086e-01 4.05430377e-01 3.96999955e-01 3.90359133e-01 3.87193620e-01 3.88425618e-01 3.94764662e-01 4.06991065e-01 4.26714927e-01 4.56416219e-01 4.98008013e-01 5.35023212e-01 1.73805624e-01 1.14949129e-04 1.22496072e-04 6.66782141e-01 8.98942471e-01 9.80855525e-01 9.93147731e-01 9.91294026e-01 9.61476266e-01 9.59616065e-01 9.99371707e-01 2.56649480e-04 2.13684718e-04 1.09820686e-01 3.11094850e-01 6.00576699e-01 4.61659461e-01 4.67558324e-01 4.62996572e-01 4.40706730e-01 4.34004307e-01 4.27695453e-01 4.22162741e-01 4.18142289e-01 4.15826768e-01 4.15357739e-01 4.16784763e-01 4.20366108e-01 4.27462846e-01 4.42924887e-01 4.82773572e-01 5.22976279e-01 1.20231198e-04 1.13250302e-04 4.31016922e-01 6.68810248e-01 9.06788647e-01 9.84408140e-01 9.93946135e-01 9.92354929e-01 9.76286769e-01 5.83552532e-02 3.44757689e-04 2.51121324e-04 1.93210673e-02 4.70824957e-01 5.96671283e-01 4.61172938e-01 4.67513919e-01 4.65819538e-01 4.51068312e-01 4.45591003e-01 4.41754013e-01 4.38907832e-01 4.37285155e-01 4.36667472e-01 4.36585397e-01 4.36242849e-01 4.34616178e-01 4.31401432e-01 4.28821564e-01 4.35163289e-01 4.69610035e-01 4.97087955e-01 1.11806949e-04 1.10554596e-04 4.37147528e-01 6.90953374e-01 9.23638761e-01 9.88505602e-01 9.95717525e-01 9.87197220e-01 5.62372692e-02 1.23369624e-03 3.80492595e-04 4.36783442e-03 2.92687714e-01 5.89760602e-01 4.49789137e-01 4.51856852e-01 4.51935828e-01 4.43114907e-01 4.36644375e-01 4.33863133e-01 4.33794051e-01 4.36871350e-01 4.43171233e-01 4.51825708e-01 4.60842341e-01 4.67528135e-01 4.69554454e-01 4.66242582e-01 4.59486812e-01 4.53007340e-01 4.44182545e-01 4.58146513e-01 1.09423658e-04 1.15022645e-04 4.29534912e-01 6.24248207e-01 8.65582168e-01 9.74118888e-01 9.93238151e-01 9.88225877e-01 8.98255646e-01 2.75074202e-03 3.09498996e-01 9.00933385e-01 6.79247677e-01 5.86925149e-01 5.92079639e-01 5.87258220e-01 5.85070729e-01 5.77533603e-01 5.74701786e-01 5.74395895e-01 5.76935053e-01 5.82874060e-01 5.91971457e-01 6.02867782e-01 6.13474131e-01 6.21770084e-01 6.26609981e-01 6.27290547e-01 6.22972190e-01 6.03251398e-01 6.30834758e-01 1.27183957e-04 1.19705997e-04 5.05406559e-01 5.78076541e-01 6.56686068e-01 7.65828967e-01 8.77885282e-01 9.62285221e-01 9.94488180e-01 9.99386787e-01 9.99625683e-01 9.98575866e-01 
