# vtk DataFile Version 2.0
results/iter9.vtk, Created by Freefem++ 
ASCII
DATASET UNSTRUCTURED_GRID
POINTS 961 float
0 0 0
0.033333333 0 0
0.066666667 0 0
0.1 0 0
0.13333333 0 0
0.16666667 0 0
0.2 0 0
0.23333333 0 0
0.26666667 0 0
0.3 0 0
0.33333333 0 0
0.36666667 0 0
0.4 0 0
0.43333333 0 0
0.46666667 0 0
0.5 0 0
0.53333333 0 0
0.56666667 0 0
0.6 0 0
0.63333333 0 0
0.66666667 0 0
0.7 0 0
0.73333333 0 0
0.76666667 0 0
0.8 0 0
0.83333333 0 0
0.86666667 0 0
0.9 0 0
0.93333333 0 0
0.96666667 0 0
1 0 0
0 0.033333333 0
0.033333333 0.033333333 0
0.066666667 0.033333333 0
0.1 0.033333333 0
0.13333333 0.033333333 0
0.16666667 0.033333333 0
0.2 0.033333333 0
0.23333333 0.033333333 0
0.26666667 0.033333333 0
0.3 0.033333333 0
0.33333333 0.033333333 0
0.36666667 0.033333333 0
0.4 0.033333333 0
0.43333333 0.033333333 0
0.46666667 0.033333333 0
0.5 0.033333333 0
0.53333333 0.033333333 0
0.56666667 0.033333333 0
0.6 0.033333333 0
0.63333333 0.033333333 0
0.66666667 0.033333333 0
0.7 0.033333333 0
0.73333333 0.033333333 0
0.76666667 0.033333333 0
0.8 0.033333333 0
0.83333333 0.033333333 0
0.86666667 0.033333333 0
0.9 0.033333333 0
0.93333333 0.033333333 0
0.96666667 0.033333333 0
1 0.033333333 0
0 0.066666667 0
0.033333333 0.066666667 0
0.066666667 0.066666667 0
0.1 0.066666667 0
0.13333333 0.066666667 0
0.16666667 0.066666667 0
0.2 0.066666667 0
0.23333333 0.066666667 0
0.26666667 0.066666667 0
0.3 0.066666667 0
0.33333333 0.066666667 0
0.36666667 0.066666667 0
0.4 0.066666667 0
0.43333333 0.066666667 0
0.46666667 0.066666667 0
0.5 0.066666667 0
0.53333333 0.066666667 0
0.56666667 0.066666667 0
0.6 0.066666667 0
0.63333333 0.066666667 0
0.66666667 0.066666667 0
0.7 0.066666667 0
0.73333333 0.066666667 0
0.76666667 0.066666667 0
0.8 0.066666667 0
0.83333333 0.066666667 0
0.86666667 0.066666667 0
0.9 0.066666667 0
0.93333333 0.066666667 0
0.96666667 0.066666667 0
1 0.066666667 0
0 0.1 0
0.033333333 0.1 0
0.066666667 0.1 0
0.1 0.1 0
0.13333333 0.1 0
0.16666667 0.1 0
0.2 0.1 0
0.23333333 0.1 0
0.26666667 0.1 0
0.3 0.1 0
0.33333333 0.1 0
0.36666667 0.1 0
0.4 0.1 0
0.43333333 0.1 0
0.46666667 0.1 0
0.5 0.1 0
0.53333333 0.1 0
0.56666667 0.1 0
0.6 0.1 0
0.63333333 0.1 0
0.66666667 0.1 0
0.7 0.1 0
0.73333333 0.1 0
0.76666667 0.1 0
0.8 0.1 0
0.83333333 0.1 0
0.86666667 0.1 0
0.9 0.1 0
0.93333333 0.1 0
0.96666667 0.1 0
1 0.1 0
0 0.13333333 0
0.033333333 0.13333333 0
0.066666667 0.13333333 0
0.1 0.13333333 0
0.13333333 0.13333333 0
0.16666667 0.13333333 0
0.2 0.13333333 0
0.23333333 0.13333333 0
0.26666667 0.13333333 0
0.3 0.13333333 0
0.33333333 0.13333333 0
0.36666667 0.13333333 0
0.4 0.13333333 0
0.43333333 0.13333333 0
0.46666667 0.13333333 0
0.5 0.13333333 0
0.53333333 0.13333333 0
0.56666667 0.13333333 0
0.6 0.13333333 0
0.63333333 0.13333333 0
0.66666667 0.13333333 0
0.7 0.13333333 0
0.73333333 0.13333333 0
0.76666667 0.13333333 0
0.8 0.13333333 0
0.83333333 0.13333333 0
0.86666667 0.13333333 0
0.9 0.13333333 0
0.93333333 0.13333333 0
0.96666667 0.13333333 0
1 0.13333333 0
0 0.16666667 0
0.033333333 0.16666667 0
0.066666667 0.16666667 0
0.1 0.16666667 0
0.13333333 0.16666667 0
0.16666667 0.16666667 0
0.2 0.16666667 0
0.23333333 0.16666667 0
0.26666667 0.16666667 0
0.3 0.16666667 0
0.33333333 0.16666667 0
0.36666667 0.16666667 0
0.4 0.16666667 0
0.43333333 0.16666667 0
0.46666667 0.16666667 0
0.5 0.16666667 0
0.53333333 0.16666667 0
0.56666667 0.16666667 0
0.6 0.16666667 0
0.63333333 0.16666667 0
0.66666667 0.16666667 0
0.7 0.16666667 0
0.73333333 0.16666667 0
0.76666667 0.16666667 0
0.8 0.16666667 0
0.83333333 0.16666667 0
0.86666667 0.16666667 0
0.9 0.16666667 0
0.93333333 0.16666667 0
0.96666667 0.16666667 0
1 0.16666667 0
0 0.2 0
0.033333333 0.2 0
0.066666667 0.2 0
0.1 0.2 0
0.13333333 0.2 0
0.16666667 0.2 0
0.2 0.2 0
0.23333333 0.2 0
0.26666667 0.2 0
0.3 0.2 0
0.33333333 0.2 0
0.36666667 0.2 0
0.4 0.2 0
0.43333333 0.2 0
0.46666667 0.2 0
0.5 0.2 0
0.53333333 0.2 0
0.56666667 0.2 0
0.6 0.2 0
0.63333333 0.2 0
0.66666667 0.2 0
0.7 0.2 0
0.73333333 0.2 0
0.76666667 0.2 0
0.8 0.2 0
0.83333333 0.2 0
0.86666667 0.2 0
0.9 0.2 0
0.93333333 0.2 0
0.96666667 0.2 0
1 0.2 0
0 0.23333333 0
0.033333333 0.23333333 0
0.066666667 0.23333333 0
0.1 0.23333333 0
0.13333333 0.23333333 0
0.16666667 0.23333333 0
0.2 0.23333333 0
0.23333333 0.23333333 0
0.26666667 0.23333333 0
0.3 0.23333333 0
0.33333333 0.23333333 0
0.36666667 0.23333333 0
0.4 0.23333333 0
0.43333333 0.23333333 0
0.46666667 0.23333333 0
0.5 0.23333333 0
0.53333333 0.23333333 0
0.56666667 0.23333333 0
0.6 0.23333333 0
0.63333333 0.23333333 0
0.66666667 0.23333333 0
0.7 0.23333333 0
0.73333333 0.23333333 0
0.76666667 0.23333333 0
0.8 0.23333333 0
0.83333333 0.23333333 0
0.86666667 0.23333333 0
0.9 0.23333333 0
0.93333333 0.23333333 0
0.96666667 0.23333333 0
1 0.23333333 0
0 0.26666667 0
0.033333333 0.26666667 0
0.066666667 0.26666667 0
0.1 0.26666667 0
0.13333333 0.26666667 0
0.16666667 0.26666667 0
0.2 0.26666667 0
0.23333333 0.26666667 0
0.26666667 0.26666667 0
0.3 0.26666667 0
0.33333333 0.26666667 0
0.36666667 0.26666667 0
0.4 0.26666667 0
0.43333333 0.26666667 0
0.46666667 0.26666667 0
0.5 0.26666667 0
0.53333333 0.26666667 0
0.56666667 0.26666667 0
0.6 0.26666667 0
0.63333333 0.26666667 0
0.66666667 0.26666667 0
0.7 0.26666667 0
0.73333333 0.26666667 0
0.76666667 0.26666667 0
0.8 0.26666667 0
0.83333333 0.26666667 0
0.86666667 0.26666667 0
0.9 0.26666667 0
0.93333333 0.26666667 0
0.96666667 0.26666667 0
1 0.26666667 0
0 0.3 0
0.033333333 0.3 0
0.066666667 0.3 0
0.1 0.3 0
0.13333333 0.3 0
0.16666667 0.3 0
0.2 0.3 0
0.23333333 0.3 0
0.26666667 0.3 0
0.3 0.3 0
0.33333333 0.3 0
0.36666667 0.3 0
0.4 0.3 0
0.43333333 0.3 0
0.46666667 0.3 0
0.5 0.3 0
0.53333333 0.3 0
0.56666667 0.3 0
0.6 0.3 0
0.63333333 0.3 0
0.66666667 0.3 0
0.7 0.3 0
0.73333333 0.3 0
0.76666667 0.3 0
0.8 0.3 0
0.83333333 0.3 0
0.86666667 0.3 0
0.9 0.3 0
0.93333333 0.3 0
0.96666667 0.3 0
1 0.3 0
0 0.33333333 0
0.033333333 0.33333333 0
0.066666667 0.33333333 0
0.1 0.33333333 0
0.13333333 0.33333333 0
0.16666667 0.33333333 0
0.2 0.33333333 0
0.23333333 0.33333333 0
0.26666667 0.33333333 0
0.3 0.33333333 0
0.33333333 0.33333333 0
0.36666667 0.33333333 0
0.4 0.33333333 0
0.43333333 0.33333333 0
0.46666667 0.33333333 0
0.5 0.33333333 0
0.53333333 0.33333333 0
0.56666667 0.33333333 0
0.6 0.33333333 0
0.63333333 0.33333333 0
0.66666667 0.33333333 0
0.7 0.33333333 0
0.73333333 0.33333333 0
0.76666667 0.33333333 0
0.8 0.33333333 0
0.83333333 0.33333333 0
0.86666667 0.33333333 0
0.9 0.33333333 0
0.93333333 0.33333333 0
0.96666667 0.33333333 0
1 0.33333333 0
0 0.36666667 0
0.033333333 0.36666667 0
0.066666667 0.36666667 0
0.1 0.36666667 0
0.13333333 0.36666667 0
0.16666667 0.36666667 0
0.2 0.36666667 0
0.23333333 0.36666667 0
0.26666667 0.36666667 0
0.3 0.36666667 0
0.33333333 0.36666667 0
0.36666667 0.36666667 0
0.4 0.36666667 0
0.43333333 0.36666667 0
0.46666667 0.36666667 0
0.5 0.36666667 0
0.53333333 0.36666667 0
0.56666667 0.36666667 0
0.6 0.36666667 0
0.63333333 0.36666667 0
0.66666667 0.36666667 0
0.7 0.36666667 0
0.73333333 0.36666667 0
0.76666667 0.36666667 0
0.8 0.36666667 0
0.83333333 0.36666667 0
0.86666667 0.36666667 0
0.9 0.36666667 0
0.93333333 0.36666667 0
0.96666667 0.36666667 0
1 0.36666667 0
0 0.4 0
0.033333333 0.4 0
0.066666667 0.4 0
0.1 0.4 0
0.13333333 0.4 0
0.16666667 0.4 0
0.2 0.4 0
0.23333333 0.4 0
0.26666667 0.4 0
0.3 0.4 0
0.33333333 0.4 0
0.36666667 0.4 0
0.4 0.4 0
0.43333333 0.4 0
0.46666667 0.4 0
0.5 0.4 0
0.53333333 0.4 0
0.56666667 0.4 0
0.6 0.4 0
0.63333333 0.4 0
0.66666667 0.4 0
0.7 0.4 0
0.73333333 0.4 0
0.76666667 0.4 0
0.8 0.4 0
0.83333333 0.4 0
0.86666667 0.4 0
0.9 0.4 0
0.93333333 0.4 0
0.96666667 0.4 0
1 0.4 0
0 0.43333333 0
0.033333333 0.43333333 0
0.066666667 0.43333333 0
0.1 0.43333333 0
0.13333333 0.43333333 0
0.16666667 0.43333333 0
0.2 0.43333333 0
0.23333333 0.43333333 0
0.26666667 0.43333333 0
0.3 0.43333333 0
0.33333333 0.43333333 0
0.36666667 0.43333333 0
0.4 0.43333333 0
0.43333333 0.43333333 0
0.46666667 0.43333333 0
0.5 0.43333333 0
0.53333333 0.43333333 0
0.56666667 0.43333333 0
0.6 0.43333333 0
0.63333333 0.43333333 0
0.66666667 0.43333333 0
0.7 0.43333333 0
0.73333333 0.43333333 0
0.76666667 0.43333333 0
0.8 0.43333333 0
0.83333333 0.43333333 0
0.86666667 0.43333333 0
0.9 0.43333333 0
0.93333333 0.43333333 0
0.96666667 0.43333333 0
1 0.43333333 0
0 0.46666667 0
0.033333333 0.46666667 0
0.066666667 0.46666667 0
0.1 0.46666667 0
0.13333333 0.46666667 0
0.16666667 0.46666667 0
0.2 0.46666667 0
0.23333333 0.46666667 0
0.26666667 0.46666667 0
0.3 0.46666667 0
0.33333333 0.46666667 0
0.36666667 0.46666667 0
0.4 0.46666667 0
0.43333333 0.46666667 0
0.46666667 0.46666667 0
0.5 0.46666667 0
0.53333333 0.46666667 0
0.56666667 0.46666667 0
0.6 0.46666667 0
0.63333333 0.46666667 0
0.66666667 0.46666667 0
0.7 0.46666667 0
0.73333333 0.46666667 0
0.76666667 0.46666667 0
0.8 0.46666667 0
0.83333333 0.46666667 0
0.86666667 0.46666667 0
0.9 0.46666667 0
0.93333333 0.46666667 0
0.96666667 0.46666667 0
1 0.46666667 0
0 0.5 0
0.033333333 0.5 0
0.066666667 0.5 0
0.1 0.5 0
0.13333333 0.5 0
0.16666667 0.5 0
0.2 0.5 0
0.23333333 0.5 0
0.26666667 0.5 0
0.3 0.5 0
0.33333333 0.5 0
0.36666667 0.5 0
0.4 0.5 0
0.43333333 0.5 0
0.46666667 0.5 0
0.5 0.5 0
0.53333333 0.5 0
0.56666667 0.5 0
0.6 0.5 0
0.63333333 0.5 0
0.66666667 0.5 0
0.7 0.5 0
0.73333333 0.5 0
0.76666667 0.5 0
0.8 0.5 0
0.83333333 0.5 0
0.86666667 0.5 0
0.9 0.5 0
0.93333333 0.5 0
0.96666667 0.5 0
1 0.5 0
0 0.53333333 0
0.033333333 0.53333333 0
0.066666667 0.53333333 0
0.1 0.53333333 0
0.13333333 0.53333333 0
0.16666667 0.53333333 0
0.2 0.53333333 0
0.23333333 0.53333333 0
0.26666667 0.53333333 0
0.3 0.53333333 0
0.33333333 0.53333333 0
0.36666667 0.53333333 0
0.4 0.53333333 0
0.43333333 0.53333333 0
0.46666667 0.53333333 0
0.5 0.53333333 0
0.53333333 0.53333333 0
0.56666667 0.53333333 0
0.6 0.53333333 0
0.63333333 0.53333333 0
0.66666667 0.53333333 0
0.7 0.53333333 0
0.73333333 0.53333333 0
0.76666667 0.53333333 0
0.8 0.53333333 0
[...]
CELL_DATA 1920
Scalars  Label int 1
LOOKUP_TABLE FreeFempp_table
0
0
0
0
0
0
0
0
0
0
0
0
0
0
0
0
0
0
0
0
0
0
0
0
0
0
0
0
0
0
0
0
0
0
0
0
0
0
0
0
0
0
0
0
0
0
0
0
0
0
0
0
0
0
0
0
0
0
0
0
0
0
0
0
0
0
0
0
0
0
0
0
0
0
0
0
0
0
0
0
0
0
0
0
0
0
0
0
0
0
0
0
0
0
0
0
0
0
0
0
0
0
0
0
0
0
0
0
0
0
0
0
0
0
0
0
0
0
0
0
0
0
0
0
0
0
0
0
0
0
0
0
0
0
0
0
0
0
0
0
0
0
0
0
0
0
0
0
0
0
0
0
0
0
0
0
0
0
0
0
0
0
0
0
0
0
0
0
0
0
0
0
0
0
0
0
0
0
0
0
0
0
0
0
0
0
0
0
0
0
0
0
0
0
0
0
0
0
0
0
0
0
0
0
0
0
0
0
0
0
0
0
0
0
0
0
0
0
0
0
0
0
0
0
0
0
0
0
0
0
0
0
0
0
0
0
0
0
0
0
0
0
0
0
0
0
0
0
0
0
0
0
0
0
0
0
0
0
0
0
0
0
0
0
0
0
0
0
0
0
0
0
0
0
0
0
0
0
0
0
0
0
0
0
0
0
0
0
0
0
0
0
0
0
0
0
0
0
0
0
0
0
0
0
0
0
0
0
0
0
0
0
0
0
0
0
0
0
0
0
0
0
0
0
0
0
0
0
0
0
0
0
0
0
0
0
0
0
0
0
0
0
0
0
0
0
0
0
0
0
0
0
0
0
0
0
0
0
0
0
0
0
0
0
0
0
0
0
0
0
0
0
0
0
0
0
0
0
0
0
0
0
0
0
0
0
0
0
0
0
0
0
0
0
0
0
0
0
0
0
0
0
0
0
0
0
0
0
0
0
0
0
0
0
0
0
0
0
0
0
0
0
0
0
0
0
0
0
0
0
0
0
0
0
0
0
0
0
0
0
0
0
0
0
0
0
0
0
0
0
0
0
0
0
0
0
0
0
0
0
0
0
0
0
0
0
0
0
0
0
0
0
0
0
0
0
0
0
0
0
0
0
0
0
0
0
0
0
0
0
0
0
0
0
0
0
0
0
0
0
0
0
0
0
0
0
0
0
0
0
0
0
0
0
0
0
0
0
0
0
0
0
0
0
0
0
0
0
0
0
0
0
0
0
0
0
0
0
0
0
0
0
0
0
0
0
0
0
0
0
0
0
0
0
0
0
0
0
0
0
0
0
0
0
0
0
0
0
0
0
0
0
0
0
0
0
0
0
0
0
0
0
0
0
0
0
0
0
0
0
0
0
0
0
0
0
0
0
0
0
0
0
0
0
0
0
0
0
0
0
0
0
0
0
0
0
0
0
0
0
0
0
0
0
0
0
0
0
0
0
0
0
0
0
0
0
0
0
0
0
0
0
0
0
0
0
0
0
0
0
0
0
0
0
0
0
0
0
0
0
0
0
0
0
0
0
0
0
0
0
0
0
0
0
0
0
0
0
0
0
0
0
0
0
0
0
0
0
0
0
0
0
0
0
0
0
0
0
0
0
0
0
0
0
0
0
0
0
0
0
0
0
0
0
0
0
0
0
0
0
0
0
0
0
0
0
0
0
0
0
0
0
0
0
0
0
0
0
0
0
0
0
0
0
0
0
0
0
0
0
0
0
0
0
0
0
0
0
0
0
0
0
0
0
0
0
0
0
0
0
0
0
0
0
0
0
0
0
0
0
0
0
0
0
0
0
0
0
0
0
0
0
0
0
0
0
0
0
0
0
0
0
0
0
0
0
0
0
0
0
0
0
0
0
0
0
0
0
0
0
0
0
0
0
0
0
0
0
0
0
0
0
0
0
0
0
0
0
0
0
0
0
0
0
0
0
0
0
0
0
0
0
0
0
0
0
0
0
0
0
0
0
0
0
0
0
0
0
0
0
0
0
0
0
0
0
0
0
0
0
0
0
0
0
0
0
0
0
0
0
0
0
0
0
0
0
0
0
0
0
0
0
0
0
0
0
0
0
0
0
0
0
0
0
0
0
0
0
0
0
0
0
0
0
0
0
0
0
0
0
0
0
0
0
0
0
0
0
0
0
0
0
0
0
0
0
0
0
0
0
0
0
0
0
0
0
0
0
0
0
0
0
0
0
0
0
0
0
0
0
0
0
0
0
0
0
0
0
0
0
0
0
0
0
0
0
0
0
0
0
0
0
0
0
0
0
0
0
0
0
0
0
0
0
0
0
0
0
0
0
0
0
0
0
0
0
0
0
0
0
0
0
0
0
0
0
0
0
0
0
0
0
0
0
0
0
0
0
0
0
0
0
0
0
0
0
0
0
0
0
0
0
0
0
0
0
0
0
0
0
0
0
0
0
0
0
0
0
0
0
0
0
0
0
0
0
0
0
0
0
0
0
0
0
0
0
0
0
0
0
0
0
0
0
0
0
0
0
0
0
0
0
0
0
0
0
0
0
0
0
0
0
0
0
0
0
0
0
0
0
0
0
0
0
0
0
0
0
0
0
0
0
0
0
0
0
0
0
0
0
0
0
0
0
0
0
0
0
0
0
0
0
0
0
0
0
0
0
0
0
0
0
0
0
0
0
0
0
0
0
0
0
0
0
0
0
0
0
0
0
0
0
0
0
0
0
0
0
0
0
0
0
0
0
0
0
0
0
0
0
0
0
0
0
0
0
0
0
0
0
0
0
0
0
0
0
0
0
0
0
0
0
0
0
0
0
0
0
0
0
0
0
0
0
0
0
0
0
0
0
0
0
0
0
0
0
0
0
0
0
0
0
0
0
0
0
0
0
0
0
0
0
0
0
0
0
0
0
0
0
0
0
0
0
0
0
0
0
0
0
0
0
0
0
0
0
0
0
0
0
0
0
0
0
0
0
0
0
0
0
0
0
0
0
0
0
0
0
0
0
0
0
0
0
0
0
0
0
0
0
0
0
0
0
0
0
0
0
0
0
0
0
0
0
0
0
0
0
0
0
0
0
0
0
0
0
0
0
0
0
0
0
0
0
0
0
0
0
0
0
0
0
0
0
0
0
0
0
0
0
0
0
0
0
0
0
0
0
0
0
0
0
0
0
0
0
0
0
0
0
0
0
0
0
0
0
0
0
0
0
0
0
0
0
0
0
0
0
0
0
0
0
0
0
0
0
0
0
0
0
0
0
0
0
0
0
0
0
0
0
0
0
0
0
0
0
0
0
0
0
0
0
0
0
0
0
0
0
0
0
0
0
0
0
0
0
0
0
0
0
0
0
0
0
0
0
0
0
0
0
0
0
0
0
0
0
0
0
0
0
0
0
0
0
0
0
0
0
0
0
0
0
0
0
0
0
0
0
0
0
0
0
0
0
0
0
0
0
0
0
0
0
0
0
0
0
0
0
0
0
0
0
0
0
0
0
0
0
0
0
0
0
0
0
0
0
0
0
0
0
0
0
0
0
0
0
0
0
0
0
0
0
0
0
0
0
0
0
0
0
0
0
0
0
0
0
0
0
0
0
0
0
0
0
0
0
0
0
0
0
0
0
0
0
0
0
0
0
0
0
0
0
0
0
0
0
0
0
0
0
0
0
0
0
0
0
0
0
0
0
0
0
0
0
0
0
0
0
0
0
0
0
0
0
0
0
0
0
0
0
0
0
0
0
0
0
0
0
0
0
0
0
0
0
0
0
0
0
0
0
0
0
0
0
0
0
0
0
0
0
0
0
0
0
0
0
0
0
0
0
0
0
0
0
0
0
0
0
0
0
0
0
0
0
0
0
0
0
0
0
0
0
0
0
0
0
0
0
0
0
0
0
0
0
0
0
0
0
0
0
0
0
0
0
0
0
0
0
0
0
0
0
0
0
0
0
0
0
0
0
0
0
0
0
0
0
0
0
0
0
0
0
0
0
0
0
0
0
0
0
0
0
0
0
0
0
0
0
0
0
0
0
0
0
0
0
0
0
0
0
0
0
0
0
0
0
0
0
0
0
0
0
0
0
0
0
0
0
0
0
0
0
0
0
0
0
0
0
0
0
1
1
1
1
1
1
1
1
1
1
1
1
1
1
1
1
1
1
1
1
1
1
1
1
1
1
1
1
1
1
2
2
2
2
2
2
2
2
2
2
2
2
2
2
2
2
2
2
2
2
2
2
2
2
2
2
2
2
2
2
3
3
3
3
3
3
3
3
3
3
3
3
3
3
3
3
3
3
3
3
3
3
3
3
3
3
3
3
3
3
4
4
4
4
4
4
4
4
4
4
4
4
4
4
4
4
4
4
4
4
4
4
4
4
4
4
4
4
4
4

LOOKUP_TABLE FreeFempp_table 5
1.00000000 0.00000000 0.00000000 1.00000000
1.00000000 1.00000000 0.00000000 1.00000000
1.00000000 0.00000000 1.00000000 1.00000000
0.00000000 1.00000000 0.00000000 1.00000000
0.00000000 1.00000000 1.00000000 1.00000000

POINT_DATA 961
FIELD FieldData 1
Density 1 961 float
1.80181235e-01 1.13103827e-02 3.78352776e-03 3.23215011e-03 4.46573226e-03 7.98978470e-03 1.38428165e-02 1.91830248e-02 2.90662870e-02 6.10971525e-02 1.57848522e-01 2.98733681e-01 3.66817594e-01 3.93998981e-01 5.21514237e-01 4.45665389e-01 6.31096721e-01 6.83836222e-01 7.09032059e-01 7.26311862e-01 7.31457651e-01 7.33359754e-01 7.34955251e-01 7.37922192e-01 7.42805541e-01 7.49746680e-01 7.58763850e-01 7.69236982e-01 7.78847873e-01 7.87928224e-01 7.43953407e-01 2.17395276e-01 1.36536192e-02 3.91743286e-03 3.20333126e-03 3.67817329e-03 4.74204216e-03 5.84805757e-03 5.98850334e-03 6.19106693e-03 9.84745566e-03 2.71935146e-02 8.21221247e-02 1.47622764e-01 1.69565380e-01 2.53847361e-01 4.64691162e-01 5.97448587e-01 5.07562637e-01 6.76265299e-01 7.04500258e-01 7.27588713e-01 7.36186683e-01 7.46535540e-01 7.54562140e-01 7.55719244e-01 7.52840161e-01 7.46921241e-01 7.41860747e-01 7.41424263e-01 7.40258455e-01 7.93650925e-01 1.01025980e-04 1.06473031e-04 1.63724311e-04 7.71364139e-04 4.29152139e-03 1.12878475e-02 1.41295604e-02 1.15436474e-02 1.04613826e-02 1.53504973e-02 3.71871516e-02 1.02650329e-01 1.90734088e-01 2.16100156e-01 2.63725400e-01 4.26126033e-01 5.42193890e-01 6.42342985e-01 5.53932071e-01 6.76904559e-01 6.91620648e-01 7.16430843e-01 7.32421875e-01 7.38888144e-01 7.36275673e-01 7.25016117e-01 7.09359467e-01 7.00492501e-01 7.06118822e-01 7.31053412e-01 7.95390308e-01 1.01433434e-04 1.01427431e-04 1.01950318e-04 1.03731742e-04 1.14558039e-04 2.31405051e-04 2.18870048e-03 1.14087677e-02 1.50987776e-02 2.08966155e-02 4.70269695e-02 1.21490367e-01 2.24754095e-01 2.52082348e-01 2.68958986e-01 3.86220634e-01 5.14713466e-01 6.15345418e-01 6.37367487e-01 5.90743542e-01 6.58364356e-01 6.76620603e-01 6.89128578e-01 6.87456429e-01 6.72167957e-01 6.52125299e-01 6.44567132e-01 6.60443723e-01 6.94017231e-01 7.51274109e-01 7.82858372e-01 1.00000041e-04 1.02633399e-04 1.01907084e-04 1.01692480e-04 1.01914498e-04 1.03265986e-04 1.14647410e-04 6.25765766e-04 1.40590612e-02 4.81581427e-02 8.97250175e-02 1.67137474e-01 2.78604180e-01 2.96597809e-01 2.72973239e-01 3.58933479e-01 5.15357554e-01 6.11856163e-01 7.06454575e-01 5.47555566e-01 5.49105227e-01 5.70559680e-01 5.76549530e-01 5.82564235e-01 5.98485351e-01 6.31520808e-01 6.73891902e-01 7.13770270e-01 7.51114309e-01 8.03457320e-01 7.63676286e-01 5.04215777e-01 2.36670256e-01 2.72269448e-04 1.07219668e-04 1.02433980e-04 1.01762627e-04 1.01922778e-04 1.05121027e-04 3.26335517e-04 2.92633250e-02 2.04834253e-01 2.65714109e-01 2.82935232e-01 3.12014103e-01 2.73508340e-01 3.22044075e-01 5.05666256e-01 5.70369363e-01 6.77955210e-01 5.62274754e-01 5.31263232e-01 5.65704703e-01 6.17258489e-01 6.68101549e-01 7.11033285e-01 7.42162466e-01 7.63767898e-01 7.79781103e-01 7.99282134e-01 8.35734308e-01 7.42963970e-01 5.03280461e-01 5.90622544e-01 5.42598605e-01 9.99097973e-02 3.94554052e-04 1.07564716e-04 1.02064776e-04 1.01733582e-04 1.03178972e-04 2.18792091e-04 4.28723693e-02 3.53528023e-01 3.37003201e-01 2.85775661e-01 2.49833465e-01 2.73370445e-01 4.63177860e-01 3.49969000e-01 4.37790811e-01 5.11123180e-01 6.12679422e-01 6.72280133e-01 7.29652166e-01 7.60064721e-01 7.77134359e-01 7.87339985e-01 7.94631720e-01 8.01325023e-01 8.13278437e-01 8.40098917e-01 7.22385824e-01 6.28067553e-01 5.99103391e-01 6.21325731e-01 5.84536552e-01 4.97987717e-01 6.25694171e-02 1.71700100e-04 1.02630060e-04 1.01783946e-04 1.02707483e-04 1.68832586e-04 3.11816968e-02 2.92039752e-01 2.67400563e-01 2.09163114e-01 2.26820782e-01 4.16020572e-01 4.03111428e-01 4.98278439e-01 4.29352641e-01 6.10345364e-01 6.85740411e-01 7.37930417e-01 7.63953269e-01 7.74940014e-01 7.80355036e-01 7.85091758e-01 7.90638745e-01 7.99909532e-01 8.19218814e-01 7.01162398e-01 7.09002614e-01 6.39940679e-01 6.24648571e-01 5.90362847e-01 5.00722826e-01 4.95812774e-01 4.53330845e-01 1.35966297e-03 1.03247861e-04 1.01875419e-04 1.02583617e-04 1.46613325e-04 1.55221270e-02 1.65973276e-01 1.76936507e-01 2.02950180e-01 3.87538552e-01 3.90797794e-01 4.84505028e-01 4.33080256e-01 5.44498920e-01 6.70616508e-01 7.14820504e-01 7.36594081e-01 7.46401191e-01 7.52689123e-01 7.59424806e-01 7.66593158e-01 7.74118304e-01 7.88478255e-01 6.82996809e-01 8.09514940e-01 8.30073476e-01 8.20630848e-01 7.97893465e-01 7.60039210e-01 6.88405216e-01 5.71170628e-01 5.73178232e-01 4.96015977e-03 1.03766441e-04 1.01939477e-04 1.02547761e-04 1.39354670e-04 9.32097714e-03 1.18289366e-01 2.06354901e-01 3.92856151e-01 3.71181399e-01 4.54102039e-01 4.62185323e-01 4.37075078e-01 6.45545542e-01 6.90427363e-01 7.07196653e-01 7.17199147e-01 7.25782514e-01 7.34707534e-01 7.43097842e-01 7.48787940e-01 7.58787632e-01 6.73672855e-01 8.81822765e-01 9.39974904e-01 9.36128616e-01 9.34246004e-01 9.30123329e-01 9.16697800e-01 8.75429928e-01 7.57603586e-01 6.23248935e-01 3.89384688e-03 1.04063649e-04 1.01943137e-04 1.02612183e-04 1.49115745e-04 1.24291107e-02 1.81901351e-01 4.17039067e-01 3.59577090e-01 4.43915486e-01 4.63175237e-01 3.58945936e-01 6.10342860e-01 6.68062568e-01 6.80898368e-01 6.90775037e-01 7.01311886e-01 7.11295068e-01 7.19839990e-01 7.25071847e-01 7.31422663e-01 6.71595633e-01 9.06182170e-01 9.70352411e-01 9.68983352e-01 9.73192692e-01 9.78570223e-01 9.82974589e-01 9.84585345e-01 9.77909327e-01 9.26180542e-01 5.46457350e-01 1.66857452e-03 1.04030631e-04 1.02034719e-04 1.02999831e-04 2.08199999e-04 4.92652394e-02 4.09012586e-01 3.50840420e-01 4.48051095e-01 4.61966515e-01 3.45502764e-01 5.69906294e-01 6.47320747e-01 6.57496035e-01 6.65115833e-01 6.76819921e-01 6.87297702e-01 6.95030808e-01 7.01223552e-01 7.06918001e-01 6.66323423e-01 8.82138550e-01 9.63467658e-01 9.60499883e-01 9.68300521e-01 9.78719890e-01 9.87564921e-01 9.93987501e-01 9.96550202e-01 9.97253299e-01 9.77725029e-01 2.34337553e-01 7.06925464e-04 1.03713712e-04 1.02083635e-04 1.03899591e-04 7.52749445e-04 2.98868686e-01 3.26405436e-01 4.65428710e-01 4.64627296e-01 3.80410373e-01 5.26501119e-01 6.28077388e-01 6.38681889e-01 6.40612543e-01 6.51535332e-01 6.62649930e-01 6.69810534e-01 6.77441716e-01 6.86575413e-01 6.47755504e-01 8.08529317e-01 8.92118275e-01 8.75738621e-01 8.75839591e-01 8.95642817e-01 9.36625063e-01 9.75371838e-01 9.91716266e-01 9.97866869e-01 9.99439538e-01 9.91425514e-01 1.40744299e-01 3.76936281e-04 1.02882135e-04 1.02006365e-04 1.07948727e-04 5.66027239e-02 3.82821709e-01 4.87353146e-01 4.83247310e-01 4.33979899e-01 4.78637099e-01 6.09071374e-01 6.26321375e-01 6.19441450e-01 6.25669360e-01 6.37531459e-01 6.47491097e-01 6.58601642e-01 6.74370646e-01 6.19024932e-01 7.16864467e-01 7.82487035e-01 7.25920498e-01 6.41842067e-01 5.74765325e-01 7.00650394e-01 8.53912830e-01 9.45648551e-01 9.65353966e-01 8.49406898e-01 9.99482512e-01 9.98990297e-01 3.81882250e-01 1.89671395e-04 1.02162463e-04 1.02077895e-04 1.53539877e-04 5.36259055e-01 5.08032322e-01 5.05395055e-01 4.84392554e-01 4.22035575e-01 5.88836312e-01 6.21866167e-01 6.05435789e-01 6.01197600e-01 6.11672819e-01 6.30086482e-01 6.53647482e-01 6.82225108e-01 6.05108678e-01 6.49642944e-01 5.41299701e-01 3.42365175e-01 2.05040097e-01 1.05614744e-01 1.75053075e-01 6.62421465e-01 8.50985944e-01 2.29178593e-01 2.31309430e-04 1.76537622e-04 9.98809934e-01 9.99828696e-01 8.75879347e-01 1.12653172e-04 1.02079219e-04 1.03843035e-04 1.33044496e-01 5.29913545e-01 5.30667067e-01 5.26230872e-01 3.77347678e-01 5.65961659e-01 6.27012789e-01 6.06379569e-01 5.87622046e-01 5.89789629e-01 6.22455478e-01 6.60380065e-01 6.64332449e-01 6.15451396e-01 6.29528642e-01 4.35214281e-01 1.62320852e-01 6.85447305e-02 2.75118984e-02 3.00844070e-02 4.23458636e-01 8.71845603e-01 1.76580176e-02 2.88986921e-04 2.06844037e-04 2.89684482e-04 9.99556720e-01 9.99831498e-01 9.78071034e-01 1.02819526e-04 1.01904043e-04 1.42743360e-04 5.19301772e-01 5.54023266e-01 5.50249815e-01 4.41002488e-01 5.31290054e-01 6.36806250e-01 6.26409948e-01 6.04748368e-01 5.87614596e-01 6.40759349e-01 6.00144088e-01 4.11677301e-01 6.21867061e-01 6.03183329e-01 4.33122545e-01 1.25482321e-01 4.32882495e-02 1.87723208e-02 1.07445093e-02 7.53171369e-02 9.32392716e-01 2.80829961e-03 2.20194168e-04 1.25908089e-04 1.24912724e-04 1.12226391e-02 9.99775112e-01 9.99677181e-01 9.81282234e-01 1.01706610e-04 1.01588885e-04 3.83530885e-01 5.58515966e-01 5.78330219e-01 5.57176113e-01 4.62323129e-01 6.39566183e-01 6.33666515e-01 6.45634592e-01 6.05245888e-01 6.57631993e-01 4.16622460e-01 5.16017437e-01 6.28489196e-01 5.76864719e-01 4.85613316e-01 1.53099790e-01 4.54663560e-02 2.24678032e-02 9.54248663e-03 1.27429822e-02 3.76802802e-01 9.75766540e-01 2.79915077e-03 1.49709958e-04 1.11853049e-04 1.21563709e-04 9.35053170e-01 9.99689460e-01 9.99359548e-01 9.80110526e-01 1.01730082e-04 1.02780003e-04 5.42093337e-01 6.03361011e-01 6.33623183e-01 5.63393950e-01 6.76540315e-01 6.15176558e-01 5.44374883e-01 5.27179539e-01 5.53450882e-01 3.64977986e-01 5.18375933e-01 6.35063410e-01 5.66534698e-01 3.85739326e-01 2.36242011e-01 7.30414614e-02 3.68599184e-02 1.99199244e-02 1.13379015e-02 4.00388613e-02 6.79238796e-01 9.49571908e-01 9.29499030e-01 1.14472627e-04 1.06814441e-04 1.59317584e-04 9.96240556e-01 9.99543488e-01 9.99500751e-01 1.03398699e-04 1.02211692e-04 4.65761960e-01 5.90512037e-01 6.84040487e-01 6.13841593e-01 7.84773588e-01 6.56165242e-01 4.50613797e-01 4.26993221e-01 5.05955100e-01 5.94451785e-01 5.29228628e-01 6.42320037e-01 5.55909395e-01 2.83014834e-01 3.33087802e-01 1.40938252e-01 7.18511492e-02 4.90648225e-02 3.18030193e-02 4.07348871e-02 2.24105373e-01 5.40942669e-01 9.29590046e-01 8.51788640e-01 1.05136402e-04 1.03563500e-04 9.81556717e-03 9.96667206e-01 9.99606848e-01 9.99493837e-01 1.02220540e-04 1.02621627e-04 5.12895405e-01 6.62888646e-01 7.89619207e-01 8.67881477e-01 7.35832334e-01 3.79696935e-01 2.18369067e-01 3.68954688e-01 5.91995299e-01 5.64140081e-01 6.58467293e-01 5.44296563e-01 2.80398577e-01 4.04983461e-01 2.46631786e-01 1.47906318e-01 1.09585270e-01 8.94303024e-02 9.24135819e-02 2.06953898e-01 4.98804003e-01 7.51032531e-01 9.48767245e-01 3.93156381e-03 1.03217448e-04 1.03429469e-04 9.04747844e-01 9.97541547e-01 9.99578178e-01 9.98768210e-01 1.02880775e-04 1.03178529e-04 5.26326656e-01 7.40612090e-01 8.55594933e-01 7.69260943e-01 1.74541309e-01 2.36541908e-02 1.05114318e-01 5.12543440e-01 6.15638316e-01 6.94598913e-01 5.39944768e-01 2.89649963e-01 4.69965756e-01 3.72608006e-01 2.67596215e-01 2.10482776e-01 1.83067441e-01 1.90311253e-01 2.70716816e-01 4.36361551e-01 5.31530261e-01 8.21214080e-01 9.38799024e-01 1.31079723e-04 1.03566650e-04 1.05018888e-04 9.60340142e-01 9.98615563e-01 9.99538660e-01 9.96539950e-01 1.03569539e-04 1.04120263e-04 4.82043833e-01 8.67623925e-01 9.43620801e-01 2.04737648e-01 3.71562806e-03 3.54787405e-03 2.56612301e-01 6.75801694e-01 7.39170432e-01 5.54151118e-01 2.97419608e-01 5.27955174e-01 4.74580586e-01 4.09081459e-01 3.40503335e-01 2.96987802e-01 2.99151361e-01 3.52483153e-01 4.47344512e-01 5.43573380e-01 5.23250699e-01 7.88833380e-01 8.28135312e-01 1.06749249e-04 1.03218001e-04 1.09466615e-04 9.84595597e-01 9.99133050e-01 9.99514103e-01 9.93476033e-01 1.04757855e-04 1.05482999e-04 3.70919913e-01 9.83329475e-01 9.19445038e-01 6.41791569e-03 6.82518876e-04 9.76713002e-03 8.14084888e-01 8.06715846e-01 5.79831600e-01 3.14698935e-01 4.97889370e-01 5.92912734e-01 5.22019506e-01 4.59508896e-01 4.14167672e-01 3.97267729e-01 4.22578096e-01 4.72359061e-01 5.38082361e-01 4.48540777e-01 5.69269657e-01 7.23154247e-01 6.80883169e-01 1.03175073e-04 1.02364866e-04 1.20202370e-04 9.90193188e-01 9.99427855e-01 9.99743760e-01 3.02649468e-01 1.06643936e-04 1.09407352e-04 4.63608466e-03 9.64274526e-01 8.39968741e-01 5.58510597e-04 1.01411249e-03 6.45006657e-01 8.88540864e-01 6.05157137e-01 3.46483588e-01 4.38626498e-01 6.12329125e-01 6.83365881e-01 6.21146500e-01 5.16139865e-01 4.68230247e-01 4.71064597e-01 5.07955790e-01 5.50543070e-01 5.57343364e-01 4.25506026e-01 5.08813560e-01 6.73219502e-01 7.73778439e-01 1.02115926e-04 1.01841273e-04 1.21260557e-04 9.84686971e-01 9.99707282e-01 9.99849260e-01 3.20703574e-02 1.15993847e-04 1.14919334e-04 7.53725297e-04 9.48458195e-01 1.08360488e-03 5.63661684e-04 7.73618147e-02 9.34690773e-01 6.21059179e-01 3.85899752e-01 4.25509006e-01 5.51697373e-01 6.65649951e-01 7.11267412e-01 6.59423172e-01 5.67947805e-01 5.37318468e-01 5.55752873e-01 5.76164722e-01 5.77163339e-01 5.67244649e-01 5.11918306e-01 4.34405982e-01 6.98516846e-01 3.61730754e-01 1.01708443e-04 1.01653735e-04 1.05348860e-04 9.58640933e-01 9.99819696e-01 9.99864638e-01 7.25214416e-03 1.73495690e-04 2.07290679e-04 6.01063482e-02 2.00964939e-02 6.41847029e-04 8.88071116e-03 9.57078278e-01 6.22627556e-01 4.95519519e-01 5.17892361e-01 5.95016241e-01 6.61266983e-01 7.00515807e-01 7.03684986e-01 6.74061537e-01 6.31802320e-01 6.11301303e-01 6.09935462e-01 6.06556416e-01 5.95468044e-01 5.85611045e-01 5.63322365e-01 4.41822439e-01 7.44538903e-01 1.55141324e-01 1.01964069e-04 1.01639474e-04 1.01441401e-04 1.13342665e-02 9.99609292e-01 9.99884248e-01 5.39105594e-01 6.05036097e-04 9.75848258e-01 5.43268502e-01 5.52332774e-03 3.68867889e-02 9.66083765e-01 5.98323762e-01 6.29432261e-01 6.63983047e-01 7.18894243e-01 7.48652816e-01 7.41152465e-01 7.24133730e-01 7.18033969e-01 7.03693271e-01 6.66696608e-01 6.36459827e-01 6.28475547e-01 6.27987564e-01 6.20353162e-01 6.05336726e-01 5.82205296e-01 4.95060623e-01 7.00829208e-01 1.92813575e-01 1.04247694e-04 1.00936428e-04 1.00876059e-04 1.00798934e-04 9.78808224e-01 9.99771535e-01 9.99644279e-01 9.99463201e-01 9.95857894e-01 8.93640459e-01 9.20863330e-01 9.67601597e-01 5.46767175e-01 6.10250950e-01 5.95738173e-01 5.64643264e-01 5.31046033e-01 5.03366172e-01 4.89273161e-01 4.94545847e-01 5.27324975e-01 5.81144512e-01 6.16012812e-01 6.03448391e-01 5.76273084e-01 5.65178752e-01 5.77575028e-01 6.06108785e-01 6.41512036e-01 7.25629330e-01 9.22123373e-01 7.18727171e-01 1.57384755e-04 1.01088255e-04 1.00825273e-04 1.00608297e-04 6.42677724e-01 9.95868087e-01 9.99384522e-01 9.99566913e-01 9.99622703e-01 9.99778807e-01 9.95783865e-01 6.62914753e-01 5.50434232e-01 5.64488590e-01 5.70408344e-01 5.84582150e-01 5.90156376e-01 5.71080446e-01 5.22464812e-01 4.69183415e-01 4.71413672e-01 5.32627404e-01 5.94537199e-01 6.44283533e-01 6.84034646e-01 7.21671641e-01 7.54325569e-01 7.82551229e-01 7.99520493e-01 8.19399774e-01 6.82639837e-01 4.70961213e-01 7.48333514e-01 2.87735864e-04 1.00838843e-04 1.01045756e-04 7.71749794e-01 9.13978636e-01 9.77442563e-01 9.91303086e-01 9.96590495e-01 9.91442084e-01 
