# vtk DataFile Version 2.0
results/iter5.vtk, Created by Freefem++ 
ASCII
DATASET UNSTRUCTURED_GRID
POINTS 961 float
0 0 0
0.033333333 0 0
0.066666667 0 0
0.1 0 0
0.13333333 0 0
0.16666667 0 0
0.2 0 0
0.23333333 0 0
0.26666667 0 0
0.3 0 0
0.33333333 0 0
0.36666667 0 0
0.4 0 0
0.43333333 0 0
0.46666667 0 0
0.5 0 0
0.53333333 0 0
0.56666667 0 0
0.6 0 0
0.63333333 0 0
0.66666667 0 0
0.7 0 0
0.73333333 0 0
0.76666667 0 0
0.8 0 0
0.83333333 0 0
0.86666667 0 0
0.9 0 0
0.93333333 0 0
0.96666667 0 0
1 0 0
0 0.033333333 0
0.033333333 0.033333333 0
0.066666667 0.033333333 0
0.1 0.033333333 0
0.13333333 0.033333333 0
0.16666667 0.033333333 0
0.2 0.033333333 0
0.23333333 0.033333333 0
0.26666667 0.033333333 0
0.3 0.033333333 0
0.33333333 0.033333333 0
0.36666667 0.033333333 0
0.4 0.033333333 0
0.43333333 0.033333333 0
0.46666667 0.033333333 0
0.5 0.033333333 0
0.53333333 0.033333333 0
0.56666667 0.033333333 0
0.6 0.033333333 0
0.63333333 0.033333333 0
0.66666667 0.033333333 0
0.7 0.033333333 0
0.73333333 0.033333333 0
0.76666667 0.033333333 0
0.8 0.033333333 0
0.83333333 0.033333333 0
0.86666667 0.033333333 0
0.9 0.033333333 0
0.93333333 0.033333333 0
0.96666667 0.033333333 0
1 0.033333333 0
0 0.066666667 0
0.033333333 0.066666667 0
0.066666667 0.066666667 0
0.1 0.066666667 0
0.13333333 0.066666667 0
0.16666667 0.066666667 0
0.2 0.066666667 0
0.23333333 0.066666667 0
0.26666667 0.066666667 0
0.3 0.066666667 0
0.33333333 0.066666667 0
0.36666667 0.066666667 0
0.4 0.066666667 0
0.43333333 0.066666667 0
0.46666667 0.066666667 0
0.5 0.066666667 0
0.53333333 0.066666667 0
0.56666667 0.066666667 0
0.6 0.066666667 0
0.63333333 0.066666667 0
0.66666667 0.066666667 0
0.7 0.066666667 0
0.73333333 0.066666667 0
0.76666667 0.066666667 0
0.8 0.066666667 0
0.83333333 0.066666667 0
0.86666667 0.066666667 0
0.9 0.066666667 0
0.93333333 0.066666667 0
0.96666667 0.066666667 0
1 0.066666667 0
0 0.1 0
0.033333333 0.1 0
0.066666667 0.1 0
0.1 0.1 0
0.13333333 0.1 0
0.16666667 0.1 0
0.2 0.1 0
0.23333333 0.1 0
0.26666667 0.1 0
0.3 0.1 0
0.33333333 0.1 0
0.36666667 0.1 0
0.4 0.1 0
0.43333333 0.1 0
0.46666667 0.1 0
0.5 0.1 0
0.53333333 0.1 0
0.56666667 0.1 0
0.6 0.1 0
0.63333333 0.1 0
0.66666667 0.1 0
0.7 0.1 0
0.73333333 0.1 0
0.76666667 0.1 0
0.8 0.1 0
0.83333333 0.1 0
0.86666667 0.1 0
0.9 0.1 0
0.93333333 0.1 0
0.96666667 0.1 0
1 0.1 0
0 0.13333333 0
0.033333333 0.13333333 0
0.066666667 0.13333333 0
0.1 0.13333333 0
0.13333333 0.13333333 0
0.16666667 0.13333333 0
0.2 0.13333333 0
0.23333333 0.13333333 0
0.26666667 0.13333333 0
0.3 0.13333333 0
0.33333333 0.13333333 0
0.36666667 0.13333333 0
0.4 0.13333333 0
0.43333333 0.13333333 0
0.46666667 0.13333333 0
0.5 0.13333333 0
0.53333333 0.13333333 0
0.56666667 0.13333333 0
0.6 0.13333333 0
0.63333333 0.13333333 0
0.66666667 0.13333333 0
0.7 0.13333333 0
0.73333333 0.13333333 0
0.76666667 0.13333333 0
0.8 0.13333333 0
0.83333333 0.13333333 0
0.86666667 0.13333333 0
0.9 0.13333333 0
0.93333333 0.13333333 0
0.96666667 0.13333333 0
1 0.13333333 0
0 0.16666667 0
0.033333333 0.16666667 0
0.066666667 0.16666667 0
0.1 0.16666667 0
0.13333333 0.16666667 0
0.16666667 0.16666667 0
0.2 0.16666667 0
0.23333333 0.16666667 0
0.26666667 0.16666667 0
0.3 0.16666667 0
0.33333333 0.16666667 0
0.36666667 0.16666667 0
0.4 0.16666667 0
0.43333333 0.16666667 0
0.46666667 0.16666667 0
0.5 0.16666667 0
0.53333333 0.16666667 0
0.56666667 0.16666667 0
0.6 0.16666667 0
0.63333333 0.16666667 0
0.66666667 0.16666667 0
0.7 0.16666667 0
0.73333333 0.16666667 0
0.76666667 0.16666667 0
0.8 0.16666667 0
0.83333333 0.16666667 0
0.86666667 0.16666667 0
0.9 0.16666667 0
0.93333333 0.16666667 0
0.96666667 0.16666667 0
1 0.16666667 0
0 0.2 0
0.033333333 0.2 0
0.066666667 0.2 0
0.1 0.2 0
0.13333333 0.2 0
0.16666667 0.2 0
0.2 0.2 0
0.23333333 0.2 0
0.26666667 0.2 0
0.3 0.2 0
0.33333333 0.2 0
0.36666667 0.2 0
0.4 0.2 0
0.43333333 0.2 0
0.46666667 0.2 0
0.5 0.2 0
0.53333333 0.2 0
0.56666667 0.2 0
0.6 0.2 0
0.63333333 0.2 0
0.66666667 0.2 0
0.7 0.2 0
0.73333333 0.2 0
0.76666667 0.2 0
0.8 0.2 0
0.83333333 0.2 0
0.86666667 0.2 0
0.9 0.2 0
0.93333333 0.2 0
0.96666667 0.2 0
1 0.2 0
0 0.23333333 0
0.033333333 0.23333333 0
0.066666667 0.23333333 0
0.1 0.23333333 0
0.13333333 0.23333333 0
0.16666667 0.23333333 0
0.2 0.23333333 0
0.23333333 0.23333333 0
0.26666667 0.23333333 0
0.3 0.23333333 0
0.33333333 0.23333333 0
0.36666667 0.23333333 0
0.4 0.23333333 0
0.43333333 0.23333333 0
0.46666667 0.23333333 0
0.5 0.23333333 0
0.53333333 0.23333333 0
0.56666667 0.23333333 0
0.6 0.23333333 0
0.63333333 0.23333333 0
0.66666667 0.23333333 0
0.7 0.23333333 0
0.73333333 0.23333333 0
0.76666667 0.23333333 0
0.8 0.23333333 0
0.83333333 0.23333333 0
0.86666667 0.23333333 0
0.9 0.23333333 0
0.93333333 0.23333333 0
0.96666667 0.23333333 0
1 0.23333333 0
0 0.26666667 0
0.033333333 0.26666667 0
0.066666667 0.26666667 0
0.1 0.26666667 0
0.13333333 0.26666667 0
0.16666667 0.26666667 0
0.2 0.26666667 0
0.23333333 0.26666667 0
0.26666667 0.26666667 0
0.3 0.26666667 0
0.33333333 0.26666667 0
0.36666667 0.26666667 0
0.4 0.26666667 0
0.43333333 0.26666667 0
0.46666667 0.26666667 0
0.5 0.26666667 0
0.53333333 0.26666667 0
0.56666667 0.26666667 0
0.6 0.26666667 0
0.63333333 0.26666667 0
0.66666667 0.26666667 0
0.7 0.26666667 0
0.73333333 0.26666667 0
0.76666667 0.26666667 0
0.8 0.26666667 0
0.83333333 0.26666667 0
0.86666667 0.26666667 0
0.9 0.26666667 0
0.93333333 0.26666667 0
0.96666667 0.26666667 0
1 0.26666667 0
0 0.3 0
0.033333333 0.3 0
0.066666667 0.3 0
0.1 0.3 0
0.13333333 0.3 0
0.16666667 0.3 0
0.2 0.3 0
0.23333333 0.3 0
0.26666667 0.3 0
0.3 0.3 0
0.33333333 0.3 0
0.36666667 0.3 0
0.4 0.3 0
0.43333333 0.3 0
0.46666667 0.3 0
0.5 0.3 0
0.53333333 0.3 0
0.56666667 0.3 0
0.6 0.3 0
0.63333333 0.3 0
0.66666667 0.3 0
0.7 0.3 0
0.73333333 0.3 0
0.76666667 0.3 0
0.8 0.3 0
0.83333333 0.3 0
0.86666667 0.3 0
0.9 0.3 0
0.93333333 0.3 0
0.96666667 0.3 0
1 0.3 0
0 0.33333333 0
0.033333333 0.33333333 0
0.066666667 0.33333333 0
0.1 0.33333333 0
0.13333333 0.33333333 0
0.16666667 0.33333333 0
0.2 0.33333333 0
0.23333333 0.33333333 0
0.26666667 0.33333333 0
0.3 0.33333333 0
0.33333333 0.33333333 0
0.36666667 0.33333333 0
0.4 0.33333333 0
0.43333333 0.33333333 0
0.46666667 0.33333333 0
0.5 0.33333333 0
0.53333333 0.33333333 0
0.56666667 0.33333333 0
0.6 0.33333333 0
0.63333333 0.33333333 0
0.66666667 0.33333333 0
0.7 0.33333333 0
0.73333333 0.33333333 0
0.76666667 0.33333333 0
0.8 0.33333333 0
0.83333333 0.33333333 0
0.86666667 0.33333333 0
0.9 0.33333333 0
0.93333333 0.33333333 0
0.96666667 0.33333333 0
1 0.33333333 0
0 0.36666667 0
0.033333333 0.36666667 0
0.066666667 0.36666667 0
0.1 0.36666667 0
0.13333333 0.36666667 0
0.16666667 0.36666667 0
0.2 0.36666667 0
0.23333333 0.36666667 0
0.26666667 0.36666667 0
0.3 0.36666667 0
0.33333333 0.36666667 0
0.36666667 0.36666667 0
0.4 0.36666667 0
0.43333333 0.36666667 0
0.46666667 0.36666667 0
0.5 0.36666667 0
0.53333333 0.36666667 0
0.56666667 0.36666667 0
0.6 0.36666667 0
0.63333333 0.36666667 0
0.66666667 0.36666667 0
0.7 0.36666667 0
0.73333333 0.36666667 0
0.76666667 0.36666667 0
0.8 0.36666667 0
0.83333333 0.36666667 0
0.86666667 0.36666667 0
0.9 0.36666667 0
0.93333333 0.36666667 0
0.96666667 0.36666667 0
1 0.36666667 0
0 0.4 0
0.033333333 0.4 0
0.066666667 0.4 0
0.1 0.4 0
0.13333333 0.4 0
0.16666667 0.4 0
0.2 0.4 0
0.23333333 0.4 0
0.26666667 0.4 0
0.3 0.4 0
0.33333333 0.4 0
0.36666667 0.4 0
0.4 0.4 0
0.43333333 0.4 0
0.46666667 0.4 0
0.5 0.4 0
0.53333333 0.4 0
0.56666667 0.4 0
0.6 0.4 0
0.63333333 0.4 0
0.66666667 0.4 0
0.7 0.4 0
0.73333333 0.4 0
0.76666667 0.4 0
0.8 0.4 0
0.83333333 0.4 0
0.86666667 0.4 0
0.9 0.4 0
0.93333333 0.4 0
0.96666667 0.4 0
1 0.4 0
0 0.43333333 0
0.033333333 0.43333333 0
0.066666667 0.43333333 0
0.1 0.43333333 0
0.13333333 0.43333333 0
0.16666667 0.43333333 0
0.2 0.43333333 0
0.23333333 0.43333333 0
0.26666667 0.43333333 0
0.3 0.43333333 0
0.33333333 0.43333333 0
0.36666667 0.43333333 0
0.4 0.43333333 0
0.43333333 0.43333333 0
0.46666667 0.43333333 0
0.5 0.43333333 0
0.53333333 0.43333333 0
0.56666667 0.43333333 0
0.6 0.43333333 0
0.63333333 0.43333333 0
0.66666667 0.43333333 0
0.7 0.43333333 0
0.73333333 0.43333333 0
0.76666667 0.43333333 0
0.8 0.43333333 0
0.83333333 0.43333333 0
0.86666667 0.43333333 0
0.9 0.43333333 0
0.93333333 0.43333333 0
0.96666667 0.43333333 0
1 0.43333333 0
0 0.46666667 0
0.033333333 0.46666667 0
0.066666667 0.46666667 0
0.1 0.46666667 0
0.13333333 0.46666667 0
0.16666667 0.46666667 0
0.2 0.46666667 0
0.23333333 0.46666667 0
0.26666667 0.46666667 0
0.3 0.46666667 0
0.33333333 0.46666667 0
0.36666667 0.46666667 0
0.4 0.46666667 0
0.43333333 0.46666667 0
0.46666667 0.46666667 0
0.5 0.46666667 0
0.53333333 0.46666667 0
0.56666667 0.46666667 0
0.6 0.46666667 0
0.63333333 0.46666667 0
0.66666667 0.46666667 0
0.7 0.46666667 0
0.73333333 0.46666667 0
0.76666667 0.46666667 0
0.8 0.46666667 0
0.83333333 0.46666667 0
0.86666667 0.46666667 0
0.9 0.46666667 0
0.93333333 0.46666667 0
0.96666667 0.46666667 0
1 0.46666667 0
0 0.5 0
0.033333333 0.5 0
0.066666667 0.5 0
0.1 0.5 0
0.13333333 0.5 0
0.16666667 0.5 0
0.2 0.5 0
0.23333333 0.5 0
0.26666667 0.5 0
0.3 0.5 0
0.33333333 0.5 0
0.36666667 0.5 0
0.4 0.5 0
0.43333333 0.5 0
0.46666667 0.5 0
0.5 0.5 0
0.53333333 0.5 0
0.56666667 0.5 0
0.6 0.5 0
0.63333333 0.5 0
0.66666667 0.5 0
0.7 0.5 0
0.73333333 0.5 0
0.76666667 0.5 0
0.8 0.5 0
0.83333333 0.5 0
0.86666667 0.5 0
0.9 0.5 0
0.93333333 0.5 0
0.96666667 0.5 0
1 0.5 0
0 0.53333333 0
0.033333333 0.53333333 0
0.066666667 0.53333333 0
0.1 0.53333333 0
0.13333333 0.53333333 0
0.16666667 0.53333333 0
0.2 0.53333333 0
0.23333333 0.53333333 0
0.26666667 0.53333333 0
0.3 0.53333333 0
0.33333333 0.53333333 0
0.36666667 0.53333333 0
0.4 0.53333333 0
0.43333333 0.53333333 0
0.46666667 0.53333333 0
0.5 0.53333333 0
0.53333333 0.53333333 0
0.56666667 0.53333333 0
0.6 0.53333333 0
0.63333333 0.53333333 0
0.66666667 0.53333333 0
0.7 0.53333333 0
0.73333333 0.53333333 0
0.76666667 0.53333333 0
0.8 0.53333333 0
[...]
CELL_DATA 1920
Scalars  Label int 1
LOOKUP_TABLE FreeFempp_table
0
0
0
0
0
0
0
0
0
0
0
0
0
0
0
0
0
0
0
0
0
0
0
0
0
0
0
0
0
0
0
0
0
0
0
0
0
0
0
0
0
0
0
0
0
0
0
0
0
0
0
0
0
0
0
0
0
0
0
0
0
0
0
0
0
0
0
0
0
0
0
0
0
0
0
0
0
0
0
0
0
0
0
0
0
0
0
0
0
0
0
0
0
0
0
0
0
0
0
0
0
0
0
0
0
0
0
0
0
0
0
0
0
0
0
0
0
0
0
0
0
0
0
0
0
0
0
0
0
0
0
0
0
0
0
0
0
0
0
0
0
0
0
0
0
0
0
0
0
0
0
0
0
0
0
0
0
0
0
0
0
0
0
0
0
0
0
0
0
0
0
0
0
0
0
0
0
0
0
0
0
0
0
0
0
0
0
0
0
0
0
0
0
0
0
0
0
0
0
0
0
0
0
0
0
0
0
0
0
0
0
0
0
0
0
0
0
0
0
0
0
0
0
0
0
0
0
0
0
0
0
0
0
0
0
0
0
0
0
0
0
0
0
0
0
0
0
0
0
0
0
0
0
0
0
0
0
0
0
0
0
0
0
0
0
0
0
0
0
0
0
0
0
0
0
0
0
0
0
0
0
0
0
0
0
0
0
0
0
0
0
0
0
0
0
0
0
0
0
0
0
0
0
0
0
0
0
0
0
0
0
0
0
0
0
0
0
0
0
0
0
0
0
0
0
0
0
0
0
0
0
0
0
0
0
0
0
0
0
0
0
0
0
0
0
0
0
0
0
0
0
0
0
0
0
0
0
0
0
0
0
0
0
0
0
0
0
0
0
0
0
0
0
0
0
0
0
0
0
0
0
0
0
0
0
0
0
0
0
0
0
0
0
0
0
0
0
0
0
0
0
0
0
0
0
0
0
0
0
0
0
0
0
0
0
0
0
0
0
0
0
0
0
0
0
0
0
0
0
0
0
0
0
0
0
0
0
0
0
0
0
0
0
0
0
0
0
0
0
0
0
0
0
0
0
0
0
0
0
0
0
0
0
0
0
0
0
0
0
0
0
0
0
0
0
0
0
0
0
0
0
0
0
0
0
0
0
0
0
0
0
0
0
0
0
0
0
0
0
0
0
0
0
0
0
0
0
0
0
0
0
0
0
0
0
0
0
0
0
0
0
0
0
0
0
0
0
0
0
0
0
0
0
0
0
0
0
0
0
0
0
0
0
0
0
0
0
0
0
0
0
0
0
0
0
0
0
0
0
0
0
0
0
0
0
0
0
0
0
0
0
0
0
0
0
0
0
0
0
0
0
0
0
0
0
0
0
0
0
0
0
0
0
0
0
0
0
0
0
0
0
0
0
0
0
0
0
0
0
0
0
0
0
0
0
0
0
0
0
0
0
0
0
0
0
0
0
0
0
0
0
0
0
0
0
0
0
0
0
0
0
0
0
0
0
0
0
0
0
0
0
0
0
0
0
0
0
0
0
0
0
0
0
0
0
0
0
0
0
0
0
0
0
0
0
0
0
0
0
0
0
0
0
0
0
0
0
0
0
0
0
0
0
0
0
0
0
0
0
0
0
0
0
0
0
0
0
0
0
0
0
0
0
0
0
0
0
0
0
0
0
0
0
0
0
0
0
0
0
0
0
0
0
0
0
0
0
0
0
0
0
0
0
0
0
0
0
0
0
0
0
0
0
0
0
0
0
0
0
0
0
0
0
0
0
0
0
0
0
0
0
0
0
0
0
0
0
0
0
0
0
0
0
0
0
0
0
0
0
0
0
0
0
0
0
0
0
0
0
0
0
0
0
0
0
0
0
0
0
0
0
0
0
0
0
0
0
0
0
0
0
0
0
0
0
0
0
0
0
0
0
0
0
0
0
0
0
0
0
0
0
0
0
0
0
0
0
0
0
0
0
0
0
0
0
0
0
0
0
0
0
0
0
0
0
0
0
0
0
0
0
0
0
0
0
0
0
0
0
0
0
0
0
0
0
0
0
0
0
0
0
0
0
0
0
0
0
0
0
0
0
0
0
0
0
0
0
0
0
0
0
0
0
0
0
0
0
0
0
0
0
0
0
0
0
0
0
0
0
0
0
0
0
0
0
0
0
0
0
0
0
0
0
0
0
0
0
0
0
0
0
0
0
0
0
0
0
0
0
0
0
0
0
0
0
0
0
0
0
0
0
0
0
0
0
0
0
0
0
0
0
0
0
0
0
0
0
0
0
0
0
0
0
0
0
0
0
0
0
0
0
0
0
0
0
0
0
0
0
0
0
0
0
0
0
0
0
0
0
0
0
0
0
0
0
0
0
0
0
0
0
0
0
0
0
0
0
0
0
0
0
0
0
0
0
0
0
0
0
0
0
0
0
0
0
0
0
0
0
0
0
0
0
0
0
0
0
0
0
0
0
0
0
0
0
0
0
0
0
0
0
0
0
0
0
0
0
0
0
0
0
0
0
0
0
0
0
0
0
0
0
0
0
0
0
0
0
0
0
0
0
0
0
0
0
0
0
0
0
0
0
0
0
0
0
0
0
0
0
0
0
0
0
0
0
0
0
0
0
0
0
0
0
0
0
0
0
0
0
0
0
0
0
0
0
0
0
0
0
0
0
0
0
0
0
0
0
0
0
0
0
0
0
0
0
0
0
0
0
0
0
0
0
0
0
0
0
0
0
0
0
0
0
0
0
0
0
0
0
0
0
0
0
0
0
0
0
0
0
0
0
0
0
0
0
0
0
0
0
0
0
0
0
0
0
0
0
0
0
0
0
0
0
0
0
0
0
0
0
0
0
0
0
0
0
0
0
0
0
0
0
0
0
0
0
0
0
0
0
0
0
0
0
0
0
0
0
0
0
0
0
0
0
0
0
0
0
0
0
0
0
0
0
0
0
0
0
0
0
0
0
0
0
0
0
0
0
0
0
0
0
0
0
0
0
0
0
0
0
0
0
0
0
0
0
0
0
0
0
0
0
0
0
0
0
0
0
0
0
0
0
0
0
0
0
0
0
0
0
0
0
0
0
0
0
0
0
0
0
0
0
0
0
0
0
0
0
0
0
0
0
0
0
0
0
0
0
0
0
0
0
0
0
0
0
0
0
0
0
0
0
0
0
0
0
0
0
0
0
0
0
0
0
0
0
0
0
0
0
0
0
0
0
0
0
0
0
0
0
0
0
0
0
0
0
0
0
0
0
0
0
0
0
0
0
0
0
0
0
0
0
0
0
0
0
0
0
0
0
0
0
0
0
0
0
0
0
0
0
0
0
0
0
0
0
0
0
0
0
0
0
0
0
0
0
0
0
0
0
0
0
0
0
0
0
0
0
0
0
0
0
0
0
0
0
0
0
0
0
0
0
0
0
0
0
0
0
0
0
0
0
0
0
0
0
0
0
0
0
0
0
0
0
0
0
0
0
0
0
0
0
0
0
0
0
0
0
0
0
0
0
0
0
0
0
0
0
0
0
0
0
0
0
0
0
0
0
0
0
0
0
0
0
0
0
0
0
0
0
0
0
0
0
0
0
0
0
0
0
0
0
0
0
0
0
0
0
0
0
0
0
0
0
0
0
0
0
0
0
0
0
0
0
0
0
0
0
0
0
0
0
0
0
0
0
0
0
0
0
0
0
0
0
0
0
0
0
0
0
0
0
0
0
0
0
0
0
0
0
0
0
0
0
0
0
0
0
0
0
0
0
0
0
0
0
0
0
0
0
0
0
0
0
0
0
0
0
0
0
0
0
0
0
0
0
0
0
0
0
0
0
0
0
0
0
0
0
0
0
0
0
0
0
0
0
0
0
0
0
0
0
0
0
0
0
0
0
0
0
0
0
0
0
0
0
0
0
0
0
0
0
0
0
0
0
0
0
0
0
0
0
0
0
0
0
0
0
0
0
0
0
0
0
0
0
0
0
0
0
0
0
0
0
0
0
0
0
0
0
0
0
0
0
0
0
0
0
0
0
0
0
0
0
0
0
0
0
0
0
0
0
0
0
0
0
0
0
0
0
0
0
0
0
0
0
0
0
0
0
0
0
0
0
0
0
0
0
0
0
0
1
1
1
1
1
1
1
1
1
1
1
1
1
1
1
1
1
1
1
1
1
1
1
1
1
1
1
1
1
1
2
2
2
2
2
2
2
2
2
2
2
2
2
2
2
2
2
2
2
2
2
2
2
2
2
2
2
2
2
2
3
3
3
3
3
3
3
3
3
3
3
3
3
3
3
3
3
3
3
3
3
3
3
3
3
3
3
3
3
3
4
4
4
4
4
4
4
4
4
4
4
4
4
4
4
4
4
4
4
4
4
4
4
4
4
4
4
4
4
4

LOOKUP_TABLE FreeFempp_table 5
1.00000000 0.00000000 0.00000000 1.00000000
1.00000000 1.00000000 0.00000000 1.00000000
1.00000000 0.00000000 1.00000000 1.00000000
0.00000000 1.00000000 0.00000000 1.00000000
0.00000000 1.00000000 1.00000000 1.00000000

POINT_DATA 961
FIELD FieldData 1
Density 1 961 float
6.27312422e-01 5.85145772e-01 5.82770705e-01 5.81537724e-01 5.80385447e-01 5.78586936e-01 5.75658858e-01 5.72091699e-01 5.70011497e-01 5.72413623e-01 4.97746766e-01 6.18439540e-03 4.12614492e-04 7.49219093e-04 5.14512479e-01 6.04074478e-01 6.35800123e-01 6.58556819e-01 6.72943771e-01 6.80036962e-01 6.81872129e-01 6.79499447e-01 6.74739480e-01 6.70670211e-01 6.67530894e-01 6.64891422e-01 6.62934005e-01 6.61604106e-01 6.60769463e-01 6.60272598e-01 6.87424958e-01 5.88076770e-01 4.69584912e-01 4.66950387e-01 4.64537650e-01 4.62299317e-01 4.59709793e-01 4.56524670e-01 4.52194661e-01 4.48920637e-01 4.50561315e-01 4.11046952e-01 1.81565229e-02 3.80005629e-04 3.57875571e-04 3.35911959e-01 4.68273222e-01 5.26111841e-01 5.81644654e-01 6.21736646e-01 6.44344985e-01 6.53273106e-01 6.52417839e-01 6.44488692e-01 6.35106027e-01 6.27801299e-01 6.22030377e-01 6.17969394e-01 6.15492165e-01 6.14186943e-01 6.13848090e-01 6.59452200e-01 1.41709243e-04 1.33139038e-04 1.31158260e-04 1.31544613e-04 1.31641980e-04 1.32355955e-04 1.33639172e-04 1.33701993e-04 1.27652762e-04 1.30933942e-04 1.36856426e-04 1.38367148e-04 1.36679926e-04 1.28623185e-04 4.07896221e-01 4.43987310e-01 4.69309002e-01 5.28258264e-01 5.83234847e-01 6.17411435e-01 6.32957399e-01 6.35666192e-01 6.30136311e-01 6.21765316e-01 6.15486920e-01 6.10521436e-01 6.07555687e-01 6.06207669e-01 6.05892360e-01 6.06436849e-01 6.56454980e-01 1.62556971e-04 1.32446919e-04 1.32110479e-04 1.31181718e-04 1.31275447e-04 1.31659894e-04 1.32745423e-04 1.33853158e-04 1.33466820e-04 1.35766502e-04 1.36157920e-04 1.37870040e-04 1.40355318e-04 1.19961442e-04 1.19696160e-04 4.50064868e-01 4.28366482e-01 4.76065487e-01 5.41763544e-01 5.86262345e-01 6.07288599e-01 6.13684177e-01 6.10831141e-01 6.03288412e-01 5.98876119e-01 5.95841825e-01 5.94716012e-01 5.94955742e-01 5.95774293e-01 5.97065091e-01 6.52244627e-01 5.91273785e-01 4.15810227e-01 1.33218747e-02 1.04780216e-02 4.29527551e-01 4.68775660e-01 4.70787197e-01 4.73366022e-01 4.76145834e-01 4.81376052e-01 4.86092865e-01 4.86932337e-01 4.85395521e-01 4.75935876e-01 1.21136982e-04 1.20466844e-04 4.13987249e-01 4.35150355e-01 5.08316278e-01 5.58417141e-01 5.81699610e-01 5.88464141e-01 5.88385403e-01 5.82776189e-01 5.79441667e-01 5.78581512e-01 5.79735816e-01 5.81819832e-01 5.83955526e-01 5.86035252e-01 6.47355795e-01 6.02538466e-01 4.86365497e-01 5.04826289e-03 4.98372968e-03 4.48383629e-01 4.72634554e-01 4.69818860e-01 4.69296098e-01 4.71323222e-01 4.75200057e-01 4.80197281e-01 4.85466033e-01 4.89995241e-01 4.92762148e-01 4.80215669e-01 1.21373967e-04 1.32922854e-04 4.21746075e-01 4.86641556e-01 5.40384173e-01 5.60646355e-01 5.67628860e-01 5.65419734e-01 5.62763691e-01 5.58102012e-01 5.59095442e-01 5.62824190e-01 5.66795051e-01 5.70262492e-01 5.73241711e-01 6.41601264e-01 5.93588591e-01 4.85028923e-01 6.28174422e-03 3.96355614e-03 6.55576050e-01 4.87957865e-01 4.66271073e-01 4.58703488e-01 4.56349730e-01 4.57703382e-01 4.63266820e-01 4.72033143e-01 4.80775028e-01 4.86683846e-01 4.82455730e-01 1.37422161e-04 1.38313582e-04 6.63134575e-01 5.03260851e-01 5.39552510e-01 5.49949825e-01 5.50079882e-01 5.45896053e-01 5.42138934e-01 5.37594497e-01 5.38735271e-01 5.43806493e-01 5.50409079e-01 5.55386305e-01 5.59231162e-01 6.35108232e-01 5.51720977e-01 3.85941327e-01 4.95682620e-02 5.28346188e-03 6.05396703e-02 4.64849949e-01 4.50468212e-01 4.38113004e-01 4.33223218e-01 4.34027284e-01 4.41093504e-01 4.53059137e-01 4.65529412e-01 4.75260943e-01 4.68307763e-01 1.38069197e-04 1.36585440e-04 2.83041418e-01 5.61622918e-01 5.55374384e-01 5.48773110e-01 5.39482057e-01 5.30250013e-01 5.23350298e-01 5.18355668e-01 5.19266486e-01 5.25719225e-01 5.34007967e-01 5.40739477e-01 5.45576155e-01 6.28488421e-01 5.32324433e-01 3.49373311e-01 2.02660725e-01 3.91407833e-02 5.41366339e-02 3.65251064e-01 4.20612037e-01 4.12037820e-01 4.05212641e-01 4.05288666e-01 4.13527042e-01 4.28689092e-01 4.45406109e-01 4.59255993e-01 4.57123518e-01 1.39673590e-04 1.38609903e-04 1.48856431e-01 6.14855170e-01 5.87652802e-01 5.56769073e-01 5.35255253e-01 5.19591808e-01 5.08838773e-01 5.01149952e-01 5.01534402e-01 5.09585440e-01 5.19623697e-01 5.27290523e-01 5.33027530e-01 6.22440457e-01 5.71713090e-01 3.77718538e-01 3.28314215e-01 2.29298681e-01 1.91437036e-01 3.30740094e-01 3.75326872e-01 3.78656060e-01 3.74145478e-01 3.73166859e-01 3.81458819e-01 3.99851263e-01 4.22787875e-01 4.41919267e-01 4.62960333e-01 1.40864926e-04 1.40024975e-04 1.48558542e-01 6.36586905e-01 6.14584088e-01 5.69506764e-01 5.37538409e-01 5.14412522e-01 4.98309791e-01 4.87485111e-01 4.86158401e-01 4.95329916e-01 5.06938994e-01 5.15015185e-01 5.21750510e-01 6.17030382e-01 7.67879486e-01 7.06116855e-01 5.99935114e-01 4.80471492e-01 4.17734921e-01 3.96867871e-01 3.82096797e-01 3.64294440e-01 3.50640565e-01 3.40840757e-01 3.41972411e-01 3.60085577e-01 3.92895252e-01 4.23977971e-01 4.59796160e-01 1.41937518e-04 1.41113051e-04 2.14302927e-01 6.45746648e-01 6.31751120e-01 5.82073808e-01 5.43105960e-01 5.13529301e-01 4.92956996e-01 4.78730500e-01 4.74659860e-01 4.83633697e-01 4.97237086e-01 5.05687475e-01 5.13217866e-01 6.12845719e-01 9.02531683e-01 9.60995257e-01 9.49297726e-01 9.14902329e-01 8.33026290e-01 6.80987537e-01 5.30809641e-01 4.47405368e-01 3.95094246e-01 3.50801885e-01 3.19517851e-01 3.09249103e-01 3.24122995e-01 3.56780261e-01 4.02078152e-01 1.43147277e-04 1.42177378e-04 3.16215307e-01 6.49101913e-01 6.43894732e-01 5.93654573e-01 5.49965918e-01 5.15552521e-01 4.92571235e-01 4.77412045e-01 4.71554428e-01 4.77074891e-01 4.92613286e-01 5.02106845e-01 5.10060966e-01 6.11179054e-01 8.93696785e-01 9.77481604e-01 9.89789605e-01 9.83229101e-01 9.72035468e-01 9.51382637e-01 8.95265520e-01 7.74476409e-01 6.22852087e-01 5.00264466e-01 4.01986718e-01 3.17616880e-01 2.36097291e-01 1.73753217e-01 2.09387481e-01 1.45226717e-04 1.43710713e-04 2.83480823e-01 6.54154420e-01 6.54999375e-01 6.05270982e-01 5.56850374e-01 5.19093096e-01 4.96824533e-01 4.84577209e-01 4.80643988e-01 4.80503052e-01 4.94274825e-01 5.05765438e-01 5.14220059e-01 6.13027215e-01 8.12597990e-01 8.83145750e-01 7.97787547e-01 9.31307375e-01 9.65439498e-01 9.75787580e-01 9.74075139e-01 9.60981607e-01 9.18357313e-01 8.19872141e-01 6.79826856e-01 5.08480251e-01 2.91031063e-01 9.61480588e-02 6.88621998e-02 1.52986409e-04 1.41366021e-04 5.46784401e-02 6.65172875e-01 6.71302497e-01 6.20749176e-01 5.64907789e-01 5.24016678e-01 5.06956518e-01 5.02678573e-01 5.03888488e-01 5.00297129e-01 5.03805459e-01 5.16835451e-01 5.26262164e-01 6.18639946e-01 7.46232212e-01 6.20068073e-01 1.25189647e-01 1.58801973e-01 5.38694978e-01 8.30418229e-01 9.49407756e-01 9.75561202e-01 9.74769533e-01 9.61107433e-01 9.20448005e-01 8.31234336e-01 6.32871032e-01 2.42538705e-01 6.80832118e-02 1.95587185e-04 1.38613686e-04 3.29568429e-04 6.66807353e-01 6.95561767e-01 6.44773304e-01 5.75512171e-01 5.29391706e-01 5.24679720e-01 5.36923289e-01 5.46246350e-01 5.40757954e-01 5.25741339e-01 5.33621967e-01 5.44529915e-01 6.27412975e-01 7.12889910e-01 5.03667533e-01 2.74572056e-02 1.48665905e-02 4.03316468e-02 1.00478068e-01 3.02013963e-01 7.78903365e-01 9.36296582e-01 9.65149641e-01 9.68431830e-01 9.51500237e-01 9.08011138e-01 7.48699486e-01 3.28493059e-01 6.11679116e-03 1.42227043e-04 1.61228076e-04 6.66457653e-01 7.16128945e-01 6.77103698e-01 5.85916221e-01 5.26048303e-01 5.43478370e-01 5.84284663e-01 6.09116733e-01 6.04782641e-01 5.67166746e-01 5.52949607e-01 5.64454794e-01 6.37617588e-01 6.94416881e-01 5.01597524e-01 1.08965486e-02 3.31451884e-03 4.82645538e-03 8.79869517e-03 2.35680100e-02 1.19700111e-01 5.41262150e-01 8.07481289e-01 9.36090350e-01 9.63898182e-01 9.60625231e-01 9.36484158e-01 8.23831141e-01 7.98126936e-01 1.59696167e-04 1.43672165e-04 7.84455955e-01 7.34896541e-01 7.17014194e-01 5.90867877e-01 4.88422990e-01 5.31277478e-01 6.08049810e-01 6.58185005e-01 6.80050790e-01 6.29241586e-01 5.73438227e-01 5.80002904e-01 6.46560609e-01 6.81876838e-01 5.13881385e-01 3.81046976e-03 1.25347113e-03 1.65002164e-03 3.83020448e-03 1.00402152e-02 3.91082242e-02 2.40716189e-01 5.07167459e-01 7.47167945e-01 9.08120990e-01 9.59268689e-01 9.65031385e-01 9.53042805e-01 9.01816547e-01 3.41737847e-04 1.44869191e-04 2.23109921e-04 7.68666744e-01 7.82108843e-01 6.08934462e-01 3.79681230e-01 4.06515986e-01 4.84040767e-01 5.56605339e-01 6.98882163e-01 7.02119768e-01 6.00268364e-01 5.87500393e-01 6.51537418e-01 6.71368003e-01 5.18538833e-01 1.35590078e-03 7.62730313e-04 9.88512184e-04 4.12689568e-03 1.52541157e-02 7.01389462e-02 2.53988743e-01 4.78989542e-01 6.07250512e-01 7.50507534e-01 8.95527184e-01 9.59739268e-01 9.68969882e-01 9.75489974e-01 9.15291071e-01 1.63234887e-04 1.64679630e-04 6.57689214e-01 8.34891438e-01 7.06108272e-01 2.13223487e-01 1.34492159e-01 1.27320766e-01 1.70522273e-01 4.85915571e-01 7.45176077e-01 6.47979319e-01 5.90731382e-01 6.51658475e-01 6.62335873e-01 5.21772623e-01 6.32199808e-04 5.84675465e-04 8.55011633e-04 1.21282609e-02 9.15474445e-02 2.36758977e-01 3.92259181e-01 5.24662256e-01 5.85383475e-01 6.49337590e-01 7.59301960e-01 8.97616506e-01 9.66899991e-01 9.85661685e-01 9.93429482e-01 2.35495943e-04 1.55890695e-04 4.34198009e-04 7.48441637e-01 8.39276433e-01 1.44670635e-01 1.31868981e-02 6.52303454e-03 1.19819921e-02 8.65496919e-02 6.30275130e-01 7.31716454e-01 6.04660571e-01 6.50118053e-01 6.54216707e-01 5.21935940e-01 3.77381570e-04 4.45333862e-04 1.02863088e-03 8.57856572e-02 2.47848123e-01 3.61073345e-01 4.43911344e-01 5.21965265e-01 5.71017623e-01 6.13674819e-01 6.90955579e-01 7.70530045e-01 9.11647141e-01 9.81376469e-01 9.96550977e-01 8.51545870e-01 1.59525996e-04 1.55119196e-04 4.82964724e-01 7.80707181e-01 5.44698477e-01 4.68399934e-03 1.05437124e-03 1.33171340e-03 4.60679317e-03 1.90132529e-01 8.29906523e-01 6.50556445e-01 6.54984653e-01 6.46087945e-01 5.23694694e-01 2.76354229e-04 3.26531241e-04 1.82770926e-03 2.14256436e-01 3.39289069e-01 3.95959228e-01 4.39839363e-01 4.93576348e-01 5.44607759e-01 5.88448644e-01 6.49551392e-01 7.19253480e-01 7.60116279e-01 9.27815735e-01 9.92844880e-01 9.98440087e-01 5.14463661e-03 1.55788031e-04 1.68998333e-04 4.51490909e-01 8.49173188e-01 1.28079414e-01 3.01848259e-03 8.01090966e-04 6.32520998e-04 8.22141953e-03 8.55656564e-01 7.36699820e-01 6.76387787e-01 6.39188647e-01 5.26123166e-01 2.33656538e-04 2.59964290e-04 6.47642510e-03 3.33708972e-01 3.80609930e-01 4.03387547e-01 4.26898211e-01 4.63605791e-01 5.09881914e-01 5.54893017e-01 6.04153454e-01 6.73830628e-01 7.07349658e-01 7.25409031e-01 9.44680870e-01 9.96324897e-01 9.98677433e-01 1.38677342e-03 1.73626482e-04 1.83267955e-04 1.28018945e-01 9.63657439e-01 4.49888259e-01 9.27862152e-03 5.67570096e-04 4.66638798e-04 1.59699291e-01 8.30532372e-01 7.20267534e-01 6.34629607e-01 5.26513934e-01 2.14446787e-04 2.28285295e-04 6.63466677e-02 4.30695534e-01 4.21396285e-01 4.16890681e-01 4.20944512e-01 4.45360780e-01 4.82277095e-01 5.18653989e-01 5.59897840e-01 6.11434519e-01 6.58230960e-01 6.46935701e-01 6.73837662e-01 9.55040216e-01 9.97350454e-01 9.98920918e-01 1.58555701e-03 1.88837716e-04 2.04658165e-04 2.24747881e-03 9.98612881e-01 9.90272522e-01 5.06106112e-03 3.74378666e-04 7.08393170e-04 8.81573319e-01 7.72555649e-01 6.31487250e-01 5.24855316e-01 2.03315867e-04 2.12306986e-04 4.52775389e-01 4.78357881e-01 4.58675981e-01 4.39850062e-01 4.31331664e-01 4.43075567e-01 4.65665132e-01 4.86592382e-01 5.15629768e-01 5.60315311e-01 5.83316565e-01 5.75989187e-01 5.43276668e-01 5.84510684e-01 9.50433493e-01 9.97534037e-01 9.99204338e-01 1.17114531e-02 2.40691574e-04 2.87482428e-04 6.82800368e-04 2.61565414e-03 9.99848783e-01 3.71889822e-04 4.50741878e-04 8.91881108e-01 8.10515881e-01 6.28368080e-01 5.22765458e-01 1.94680964e-04 2.01752438e-04 4.55745459e-01 4.93995279e-01 4.82874781e-01 4.63445187e-01 4.50877368e-01 4.50404286e-01 4.58490044e-01 4.60126400e-01 4.71225172e-01 5.09869516e-01 5.27888179e-01 4.92794514e-01 4.44041401e-01 4.29184288e-01 4.52354103e-01 9.10953701e-01 9.97144520e-01 9.99342442e-01 9.78338063e-01 7.41110940e-04 6.64116349e-04 9.63502331e-04 1.74653047e-04 4.65602963e-04 3.85120627e-04 8.90365422e-01 8.31749558e-01 6.24867260e-01 5.20669460e-01 1.87659854e-04 1.93498840e-04 4.66308296e-01 5.03794491e-01 4.94736105e-01 4.80466723e-01 4.65805709e-01 4.52285707e-01 4.50766891e-01 4.41543877e-01 4.31055754e-01 4.49746221e-01 4.73583728e-01 4.54774588e-01 3.99720848e-01 3.50824296e-01 3.48467112e-01 3.53029430e-01 7.99703896e-01 9.94106889e-01 9.98643875e-01 9.99407470e-01 4.56006169e-01 5.62207960e-02 9.98092413e-01 1.14619581e-03 5.93719829e-04 9.15377378e-01 8.55161428e-01 6.20546639e-01 5.19617379e-01 1.80254632e-04 1.86412217e-04 4.96153235e-01 5.09620428e-01 4.96973962e-01 4.85955507e-01 4.71800983e-01 4.46719229e-01 4.31212187e-01 4.17782694e-01 3.95445883e-01 3.83742481e-01 3.96952748e-01 4.07931387e-01 3.84646952e-01 3.35019082e-01 2.93531805e-01 3.14589202e-01 3.70777637e-01 6.11683130e-01 9.78072286e-01 9.96778727e-01 9.98942196e-01 9.74998116e-01 8.55882704e-01 1.07705127e-03 8.10020778e-04 2.59423386e-02 9.73439753e-01 6.15243554e-01 5.24189830e-01 1.74639063e-04 1.77417081e-04 5.16290605e-01 5.06161034e-01 4.90223169e-01 4.79461372e-01 4.66495335e-01 4.41463053e-01 4.06903207e-01 3.80748838e-01 3.56303662e-01 3.32658648e-01 3.12291801e-01 3.01489025e-01 3.03825557e-01 2.89160520e-01 2.68727273e-01 2.79303104e-01 2.74768680e-01 2.84948379e-01 4.37776774e-01 9.49835598e-01 9.95291829e-01 9.97285545e-01 9.92160976e-01 1.32739656e-02 1.00928021e-03 5.08066267e-03 9.91121173e-01 6.24608696e-01 5.44999361e-01 1.81503143e-04 1.83746612e-04 5.47573268e-01 4.90658522e-01 4.73624259e-01 4.62293625e-01 4.48632956e-01 4.27696824e-01 3.92348021e-01 3.48139942e-01 3.05919796e-01 2.72403449e-01 2.59498268e-01 2.28782699e-01 1.86858013e-01 1.73471138e-01 1.54089823e-01 1.52651042e-01 1.56823263e-01 1.50200963e-01 2.66774416e-01 5.62269628e-01 8.99793804e-01 9.89695191e-01 9.95547473e-01 9.93762732e-01 1.72785029e-01 1.47351697e-02 9.80154872e-01 6.83029771e-01 6.34671807e-01 1.93673870e-04 2.12136452e-04 6.70899391e-01 5.89756310e-01 5.82487702e-01 5.77848852e-01 5.70401013e-01 5.61534226e-01 5.50444067e-01 5.30704439e-01 5.01169264e-01 4.59828049e-01 4.36274111e-01 4.07372296e-01 3.76675159e-01 3.55481714e-01 3.32723200e-01 3.43750179e-01 3.65638047e-01 4.20964152e-01 5.56994975e-01 6.96829021e-01 7.59779990e-01 8.42196107e-01 9.52773452e-01 9.91859317e-01 9.98689115e-01 9.99435782e-01 9.98883367e-01 
