# vtk DataFile Version 2.0
results/iter3.vtk, Created by Freefem++ 
ASCII
DATASET UNSTRUCTURED_GRID
POINTS 961 float
0 0 0
0.033333333 0 0
0.066666667 0 0
0.1 0 0
0.13333333 0 0
0.16666667 0 0
0.2 0 0
0.23333333 0 0
0.26666667 0 0
0.3 0 0
0.33333333 0 0
0.36666667 0 0
0.4 0 0
0.43333333 0 0
0.46666667 0 0
0.5 0 0
0.53333333 0 0
0.56666667 0 0
0.6 0 0
0.63333333 0 0
0.66666667 0 0
0.7 0 0
0.73333333 0 0
0.76666667 0 0
0.8 0 0
0.83333333 0 0
0.86666667 0 0
0.9 0 0
0.93333333 0 0
0.96666667 0 0
1 0 0
0 0.033333333 0
0.033333333 0.033333333 0
0.066666667 0.033333333 0
0.1 0.033333333 0
0.13333333 0.033333333 0
0.16666667 0.033333333 0
0.2 0.033333333 0
0.23333333 0.033333333 0
0.26666667 0.033333333 0
0.3 0.033333333 0
0.33333333 0.033333333 0
0.36666667 0.033333333 0
0.4 0.033333333 0
0.43333333 0.033333333 0
0.46666667 0.033333333 0
0.5 0.033333333 0
0.53333333 0.033333333 0
0.56666667 0.033333333 0
0.6 0.033333333 0
0.63333333 0.033333333 0
0.66666667 0.033333333 0
0.7 0.033333333 0
0.73333333 0.033333333 0
0.76666667 0.033333333 0
0.8 0.033333333 0
0.83333333 0.033333333 0
0.86666667 0.033333333 0
0.9 0.033333333 0
0.93333333 0.033333333 0
0.96666667 0.033333333 0
1 0.033333333 0
0 0.066666667 0
0.033333333 0.066666667 0
0.066666667 0.066666667 0
0.1 0.066666667 0
0.13333333 0.066666667 0
0.16666667 0.066666667 0
0.2 0.066666667 0
0.23333333 0.066666667 0
0.26666667 0.066666667 0
0.3 0.066666667 0
0.33333333 0.066666667 0
0.36666667 0.066666667 0
0.4 0.066666667 0
0.43333333 0.066666667 0
0.46666667 0.066666667 0
0.5 0.066666667 0
0.53333333 0.066666667 0
0.56666667 0.066666667 0
0.6 0.066666667 0
0.63333333 0.066666667 0
0.66666667 0.066666667 0
0.7 0.066666667 0
0.73333333 0.066666667 0
0.76666667 0.066666667 0
0.8 0.066666667 0
0.83333333 0.066666667 0
0.86666667 0.066666667 0
0.9 0.066666667 0
0.93333333 0.066666667 0
0.96666667 0.066666667 0
1 0.066666667 0
0 0.1 0
0.033333333 0.1 0
0.066666667 0.1 0
0.1 0.1 0
0.13333333 0.1 0
0.16666667 0.1 0
0.2 0.1 0
0.23333333 0.1 0
0.26666667 0.1 0
0.3 0.1 0
0.33333333 0.1 0
0.36666667 0.1 0
0.4 0.1 0
0.43333333 0.1 0
0.46666667 0.1 0
0.5 0.1 0
0.53333333 0.1 0
0.56666667 0.1 0
0.6 0.1 0
0.63333333 0.1 0
0.66666667 0.1 0
0.7 0.1 0
0.73333333 0.1 0
0.76666667 0.1 0
0.8 0.1 0
0.83333333 0.1 0
0.86666667 0.1 0
0.9 0.1 0
0.93333333 0.1 0
0.96666667 0.1 0
1 0.1 0
0 0.13333333 0
0.033333333 0.13333333 0
0.066666667 0.13333333 0
0.1 0.13333333 0
0.13333333 0.13333333 0
0.16666667 0.13333333 0
0.2 0.13333333 0
0.23333333 0.13333333 0
0.26666667 0.13333333 0
0.3 0.13333333 0
0.33333333 0.13333333 0
0.36666667 0.13333333 0
0.4 0.13333333 0
0.43333333 0.13333333 0
0.46666667 0.13333333 0
0.5 0.13333333 0
0.53333333 0.13333333 0
0.56666667 0.13333333 0
0.6 0.13333333 0
0.63333333 0.13333333 0
0.66666667 0.13333333 0
0.7 0.13333333 0
0.73333333 0.13333333 0
0.76666667 0.13333333 0
0.8 0.13333333 0
0.83333333 0.13333333 0
0.86666667 0.13333333 0
0.9 0.13333333 0
0.93333333 0.13333333 0
0.96666667 0.13333333 0
1 0.13333333 0
0 0.16666667 0
0.033333333 0.16666667 0
0.066666667 0.16666667 0
0.1 0.16666667 0
0.13333333 0.16666667 0
0.16666667 0.16666667 0
0.2 0.16666667 0
0.23333333 0.16666667 0
0.26666667 0.16666667 0
0.3 0.16666667 0
0.33333333 0.16666667 0
0.36666667 0.16666667 0
0.4 0.16666667 0
0.43333333 0.16666667 0
0.46666667 0.16666667 0
0.5 0.16666667 0
0.53333333 0.16666667 0
0.56666667 0.16666667 0
0.6 0.16666667 0
0.63333333 0.16666667 0
0.66666667 0.16666667 0
0.7 0.16666667 0
0.73333333 0.16666667 0
0.76666667 0.16666667 0
0.8 0.16666667 0
0.83333333 0.16666667 0
0.86666667 0.16666667 0
0.9 0.16666667 0
0.93333333 0.16666667 0
0.96666667 0.16666667 0
1 0.16666667 0
0 0.2 0
0.033333333 0.2 0
0.066666667 0.2 0
0.1 0.2 0
0.13333333 0.2 0
0.16666667 0.2 0
0.2 0.2 0
0.23333333 0.2 0
0.26666667 0.2 0
0.3 0.2 0
0.33333333 0.2 0
0.36666667 0.2 0
0.4 0.2 0
0.43333333 0.2 0
0.46666667 0.2 0
0.5 0.2 0
0.53333333 0.2 0
0.56666667 0.2 0
0.6 0.2 0
0.63333333 0.2 0
0.66666667 0.2 0
0.7 0.2 0
0.73333333 0.2 0
0.76666667 0.2 0
0.8 0.2 0
0.83333333 0.2 0
0.86666667 0.2 0
0.9 0.2 0
0.93333333 0.2 0
0.96666667 0.2 0
1 0.2 0
0 0.23333333 0
0.033333333 0.23333333 0
0.066666667 0.23333333 0
0.1 0.23333333 0
0.13333333 0.23333333 0
0.16666667 0.23333333 0
0.2 0.23333333 0
0.23333333 0.23333333 0
0.26666667 0.23333333 0
0.3 0.23333333 0
0.33333333 0.23333333 0
0.36666667 0.23333333 0
0.4 0.23333333 0
0.43333333 0.23333333 0
0.46666667 0.23333333 0
0.5 0.23333333 0
0.53333333 0.23333333 0
0.56666667 0.23333333 0
0.6 0.23333333 0
0.63333333 0.23333333 0
0.66666667 0.23333333 0
0.7 0.23333333 0
0.73333333 0.23333333 0
0.76666667 0.23333333 0
0.8 0.23333333 0
0.83333333 0.23333333 0
0.86666667 0.23333333 0
0.9 0.23333333 0
0.93333333 0.23333333 0
0.96666667 0.23333333 0
1 0.23333333 0
0 0.26666667 0
0.033333333 0.26666667 0
0.066666667 0.26666667 0
0.1 0.26666667 0
0.13333333 0.26666667 0
0.16666667 0.26666667 0
0.2 0.26666667 0
0.23333333 0.26666667 0
0.26666667 0.26666667 0
0.3 0.26666667 0
0.33333333 0.26666667 0
0.36666667 0.26666667 0
0.4 0.26666667 0
0.43333333 0.26666667 0
0.46666667 0.26666667 0
0.5 0.26666667 0
0.53333333 0.26666667 0
0.56666667 0.26666667 0
0.6 0.26666667 0
0.63333333 0.26666667 0
0.66666667 0.26666667 0
0.7 0.26666667 0
0.73333333 0.26666667 0
0.76666667 0.26666667 0
0.8 0.26666667 0
0.83333333 0.26666667 0
0.86666667 0.26666667 0
0.9 0.26666667 0
0.93333333 0.26666667 0
0.96666667 0.26666667 0
1 0.26666667 0
0 0.3 0
0.033333333 0.3 0
0.066666667 0.3 0
0.1 0.3 0
0.13333333 0.3 0
0.16666667 0.3 0
0.2 0.3 0
0.23333333 0.3 0
0.26666667 0.3 0
0.3 0.3 0
0.33333333 0.3 0
0.36666667 0.3 0
0.4 0.3 0
0.43333333 0.3 0
0.46666667 0.3 0
0.5 0.3 0
0.53333333 0.3 0
0.56666667 0.3 0
0.6 0.3 0
0.63333333 0.3 0
0.66666667 0.3 0
0.7 0.3 0
0.73333333 0.3 0
0.76666667 0.3 0
0.8 0.3 0
0.83333333 0.3 0
0.86666667 0.3 0
0.9 0.3 0
0.93333333 0.3 0
0.96666667 0.3 0
1 0.3 0
0 0.33333333 0
0.033333333 0.33333333 0
0.066666667 0.33333333 0
0.1 0.33333333 0
0.13333333 0.33333333 0
0.16666667 0.33333333 0
0.2 0.33333333 0
0.23333333 0.33333333 0
0.26666667 0.33333333 0
0.3 0.33333333 0
0.33333333 0.33333333 0
0.36666667 0.33333333 0
0.4 0.33333333 0
0.43333333 0.33333333 0
0.46666667 0.33333333 0
0.5 0.33333333 0
0.53333333 0.33333333 0
0.56666667 0.33333333 0
0.6 0.33333333 0
0.63333333 0.33333333 0
0.66666667 0.33333333 0
0.7 0.33333333 0
0.73333333 0.33333333 0
0.76666667 0.33333333 0
0.8 0.33333333 0
0.83333333 0.33333333 0
0.86666667 0.33333333 0
0.9 0.33333333 0
0.93333333 0.33333333 0
0.96666667 0.33333333 0
1 0.33333333 0
0 0.36666667 0
0.033333333 0.36666667 0
0.066666667 0.36666667 0
0.1 0.36666667 0
0.13333333 0.36666667 0
0.16666667 0.36666667 0
0.2 0.36666667 0
0.23333333 0.36666667 0
0.26666667 0.36666667 0
0.3 0.36666667 0
0.33333333 0.36666667 0
0.36666667 0.36666667 0
0.4 0.36666667 0
0.43333333 0.36666667 0
0.46666667 0.36666667 0
0.5 0.36666667 0
0.53333333 0.36666667 0
0.56666667 0.36666667 0
0.6 0.36666667 0
0.63333333 0.36666667 0
0.66666667 0.36666667 0
0.7 0.36666667 0
0.73333333 0.36666667 0
0.76666667 0.36666667 0
0.8 0.36666667 0
0.83333333 0.36666667 0
0.86666667 0.36666667 0
0.9 0.36666667 0
0.93333333 0.36666667 0
0.96666667 0.36666667 0
1 0.36666667 0
0 0.4 0
0.033333333 0.4 0
0.066666667 0.4 0
0.1 0.4 0
0.13333333 0.4 0
0.16666667 0.4 0
0.2 0.4 0
0.23333333 0.4 0
0.26666667 0.4 0
0.3 0.4 0
0.33333333 0.4 0
0.36666667 0.4 0
0.4 0.4 0
0.43333333 0.4 0
0.46666667 0.4 0
0.5 0.4 0
0.53333333 0.4 0
0.56666667 0.4 0
0.6 0.4 0
0.63333333 0.4 0
0.66666667 0.4 0
0.7 0.4 0
0.73333333 0.4 0
0.76666667 0.4 0
0.8 0.4 0
0.83333333 0.4 0
0.86666667 0.4 0
0.9 0.4 0
0.93333333 0.4 0
0.96666667 0.4 0
1 0.4 0
0 0.43333333 0
0.033333333 0.43333333 0
0.066666667 0.43333333 0
0.1 0.43333333 0
0.13333333 0.43333333 0
0.16666667 0.43333333 0
0.2 0.43333333 0
0.23333333 0.43333333 0
0.26666667 0.43333333 0
0.3 0.43333333 0
0.33333333 0.43333333 0
0.36666667 0.43333333 0
0.4 0.43333333 0
0.43333333 0.43333333 0
0.46666667 0.43333333 0
0.5 0.43333333 0
0.53333333 0.43333333 0
0.56666667 0.43333333 0
0.6 0.43333333 0
0.63333333 0.43333333 0
0.66666667 0.43333333 0
0.7 0.43333333 0
0.73333333 0.43333333 0
0.76666667 0.43333333 0
0.8 0.43333333 0
0.83333333 0.43333333 0
0.86666667 0.43333333 0
0.9 0.43333333 0
0.93333333 0.43333333 0
0.96666667 0.43333333 0
1 0.43333333 0
0 0.46666667 0
0.033333333 0.46666667 0
0.066666667 0.46666667 0
0.1 0.46666667 0
0.13333333 0.46666667 0
0.16666667 0.46666667 0
0.2 0.46666667 0
0.23333333 0.46666667 0
0.26666667 0.46666667 0
0.3 0.46666667 0
0.33333333 0.46666667 0
0.36666667 0.46666667 0
0.4 0.46666667 0
0.43333333 0.46666667 0
0.46666667 0.46666667 0
0.5 0.46666667 0
0.53333333 0.46666667 0
0.56666667 0.46666667 0
0.6 0.46666667 0
0.63333333 0.46666667 0
0.66666667 0.46666667 0
0.7 0.46666667 0
0.73333333 0.46666667 0
0.76666667 0.46666667 0
0.8 0.46666667 0
0.83333333 0.46666667 0
0.86666667 0.46666667 0
0.9 0.46666667 0
0.93333333 0.46666667 0
0.96666667 0.46666667 0
1 0.46666667 0
0 0.5 0
0.033333333 0.5 0
0.066666667 0.5 0
0.1 0.5 0
0.13333333 0.5 0
0.16666667 0.5 0
0.2 0.5 0
0.23333333 0.5 0
0.26666667 0.5 0
0.3 0.5 0
0.33333333 0.5 0
0.36666667 0.5 0
0.4 0.5 0
0.43333333 0.5 0
0.46666667 0.5 0
0.5 0.5 0
0.53333333 0.5 0
0.56666667 0.5 0
0.6 0.5 0
0.63333333 0.5 0
0.66666667 0.5 0
0.7 0.5 0
0.73333333 0.5 0
0.76666667 0.5 0
0.8 0.5 0
0.83333333 0.5 0
0.86666667 0.5 0
0.9 0.5 0
0.93333333 0.5 0
0.96666667 0.5 0
1 0.5 0
0 0.53333333 0
0.033333333 0.53333333 0
0.066666667 0.53333333 0
0.1 0.53333333 0
0.13333333 0.53333333 0
0.16666667 0.53333333 0
0.2 0.53333333 0
0.23333333 0.53333333 0
0.26666667 0.53333333 0
0.3 0.53333333 0
0.33333333 0.53333333 0
0.36666667 0.53333333 0
0.4 0.53333333 0
0.43333333 0.53333333 0
0.46666667 0.53333333 0
0.5 0.53333333 0
0.53333333 0.53333333 0
0.56666667 0.53333333 0
0.6 0.53333333 0
0.63333333 0.53333333 0
0.66666667 0.53333333 0
0.7 0.53333333 0
0.73333333 0.53333333 0
0.76666667 0.53333333 0
0.8 0.53333333 0
[...]
CELL_DATA 1920
Scalars  Label int 1
LOOKUP_TABLE FreeFempp_table
0
0
0
0
0
0
0
0
0
0
0
0
0
0
0
0
0
0
0
0
0
0
0
0
0
0
0
0
0
0
0
0
0
0
0
0
0
0
0
0
0
0
0
0
0
0
0
0
0
0
0
0
0
0
0
0
0
0
0
0
0
0
0
0
0
0
0
0
0
0
0
0
0
0
0
0
0
0
0
0
0
0
0
0
0
0
0
0
0
0
0
0
0
0
0
0
0
0
0
0
0
0
0
0
0
0
0
0
0
0
0
0
0
0
0
0
0
0
0
0
0
0
0
0
0
0
0
0
0
0
0
0
0
0
0
0
0
0
0
0
0
0
0
0
0
0
0
0
0
0
0
0
0
0
0
0
0
0
0
0
0
0
0
0
0
0
0
0
0
0
0
0
0
0
0
0
0
0
0
0
0
0
0
0
0
0
0
0
0
0
0
0
0
0
0
0
0
0
0
0
0
0
0
0
0
0
0
0
0
0
0
0
0
0
0
0
0
0
0
0
0
0
0
0
0
0
0
0
0
0
0
0
0
0
0
0
0
0
0
0
0
0
0
0
0
0
0
0
0
0
0
0
0
0
0
0
0
0
0
0
0
0
0
0
0
0
0
0
0
0
0
0
0
0
0
0
0
0
0
0
0
0
0
0
0
0
0
0
0
0
0
0
0
0
0
0
0
0
0
0
0
0
0
0
0
0
0
0
0
0
0
0
0
0
0
0
0
0
0
0
0
0
0
0
0
0
0
0
0
0
0
0
0
0
0
0
0
0
0
0
0
0
0
0
0
0
0
0
0
0
0
0
0
0
0
0
0
0
0
0
0
0
0
0
0
0
0
0
0
0
0
0
0
0
0
0
0
0
0
0
0
0
0
0
0
0
0
0
0
0
0
0
0
0
0
0
0
0
0
0
0
0
0
0
0
0
0
0
0
0
0
0
0
0
0
0
0
0
0
0
0
0
0
0
0
0
0
0
0
0
0
0
0
0
0
0
0
0
0
0
0
0
0
0
0
0
0
0
0
0
0
0
0
0
0
0
0
0
0
0
0
0
0
0
0
0
0
0
0
0
0
0
0
0
0
0
0
0
0
0
0
0
0
0
0
0
0
0
0
0
0
0
0
0
0
0
0
0
0
0
0
0
0
0
0
0
0
0
0
0
0
0
0
0
0
0
0
0
0
0
0
0
0
0
0
0
0
0
0
0
0
0
0
0
0
0
0
0
0
0
0
0
0
0
0
0
0
0
0
0
0
0
0
0
0
0
0
0
0
0
0
0
0
0
0
0
0
0
0
0
0
0
0
0
0
0
0
0
0
0
0
0
0
0
0
0
0
0
0
0
0
0
0
0
0
0
0
0
0
0
0
0
0
0
0
0
0
0
0
0
0
0
0
0
0
0
0
0
0
0
0
0
0
0
0
0
0
0
0
0
0
0
0
0
0
0
0
0
0
0
0
0
0
0
0
0
0
0
0
0
0
0
0
0
0
0
0
0
0
0
0
0
0
0
0
0
0
0
0
0
0
0
0
0
0
0
0
0
0
0
0
0
0
0
0
0
0
0
0
0
0
0
0
0
0
0
0
0
0
0
0
0
0
0
0
0
0
0
0
0
0
0
0
0
0
0
0
0
0
0
0
0
0
0
0
0
0
0
0
0
0
0
0
0
0
0
0
0
0
0
0
0
0
0
0
0
0
0
0
0
0
0
0
0
0
0
0
0
0
0
0
0
0
0
0
0
0
0
0
0
0
0
0
0
0
0
0
0
0
0
0
0
0
0
0
0
0
0
0
0
0
0
0
0
0
0
0
0
0
0
0
0
0
0
0
0
0
0
0
0
0
0
0
0
0
0
0
0
0
0
0
0
0
0
0
0
0
0
0
0
0
0
0
0
0
0
0
0
0
0
0
0
0
0
0
0
0
0
0
0
0
0
0
0
0
0
0
0
0
0
0
0
0
0
0
0
0
0
0
0
0
0
0
0
0
0
0
0
0
0
0
0
0
0
0
0
0
0
0
0
0
0
0
0
0
0
0
0
0
0
0
0
0
0
0
0
0
0
0
0
0
0
0
0
0
0
0
0
0
0
0
0
0
0
0
0
0
0
0
0
0
0
0
0
0
0
0
0
0
0
0
0
0
0
0
0
0
0
0
0
0
0
0
0
0
0
0
0
0
0
0
0
0
0
0
0
0
0
0
0
0
0
0
0
0
0
0
0
0
0
0
0
0
0
0
0
0
0
0
0
0
0
0
0
0
0
0
0
0
0
0
0
0
0
0
0
0
0
0
0
0
0
0
0
0
0
0
0
0
0
0
0
0
0
0
0
0
0
0
0
0
0
0
0
0
0
0
0
0
0
0
0
0
0
0
0
0
0
0
0
0
0
0
0
0
0
0
0
0
0
0
0
0
0
0
0
0
0
0
0
0
0
0
0
0
0
0
0
0
0
0
0
0
0
0
0
0
0
0
0
0
0
0
0
0
0
0
0
0
0
0
0
0
0
0
0
0
0
0
0
0
0
0
0
0
0
0
0
0
0
0
0
0
0
0
0
0
0
0
0
0
0
0
0
0
0
0
0
0
0
0
0
0
0
0
0
0
0
0
0
0
0
0
0
0
0
0
0
0
0
0
0
0
0
0
0
0
0
0
0
0
0
0
0
0
0
0
0
0
0
0
0
0
0
0
0
0
0
0
0
0
0
0
0
0
0
0
0
0
0
0
0
0
0
0
0
0
0
0
0
0
0
0
0
0
0
0
0
0
0
0
0
0
0
0
0
0
0
0
0
0
0
0
0
0
0
0
0
0
0
0
0
0
0
0
0
0
0
0
0
0
0
0
0
0
0
0
0
0
0
0
0
0
0
0
0
0
0
0
0
0
0
0
0
0
0
0
0
0
0
0
0
0
0
0
0
0
0
0
0
0
0
0
0
0
0
0
0
0
0
0
0
0
0
0
0
0
0
0
0
0
0
0
0
0
0
0
0
0
0
0
0
0
0
0
0
0
0
0
0
0
0
0
0
0
0
0
0
0
0
0
0
0
0
0
0
0
0
0
0
0
0
0
0
0
0
0
0
0
0
0
0
0
0
0
0
0
0
0
0
0
0
0
0
0
0
0
0
0
0
0
0
0
0
0
0
0
0
0
0
0
0
0
0
0
0
0
0
0
0
0
0
0
0
0
0
0
0
0
0
0
0
0
0
0
0
0
0
0
0
0
0
0
0
0
0
0
0
0
0
0
0
0
0
0
0
0
0
0
0
0
0
0
0
0
0
0
0
0
0
0
0
0
0
0
0
0
0
0
0
0
0
0
0
0
0
0
0
0
0
0
0
0
0
0
0
0
0
0
0
0
0
0
0
0
0
0
0
0
0
0
0
0
0
0
0
0
0
0
0
0
0
0
0
0
0
0
0
0
0
0
0
0
0
0
0
0
0
0
0
0
0
0
0
0
0
0
0
0
0
0
0
0
0
0
0
0
0
0
0
0
0
0
0
0
0
0
0
0
0
0
0
0
0
0
0
0
0
0
0
0
0
0
0
0
0
0
0
0
0
0
0
0
0
0
0
0
0
0
0
0
0
0
0
0
0
0
0
0
0
0
0
0
0
0
0
0
0
0
0
0
0
0
0
0
0
0
0
0
0
0
0
0
0
0
0
0
0
0
0
0
0
0
0
0
0
0
0
0
0
0
0
0
0
0
0
0
0
0
0
0
0
0
0
0
0
0
0
0
0
0
0
0
0
0
0
0
0
0
0
0
0
0
0
0
0
0
0
0
0
0
0
0
0
0
0
0
0
0
0
0
0
0
0
0
0
0
0
0
0
0
0
0
0
0
0
0
0
0
0
0
0
0
0
0
0
0
0
0
0
0
0
0
0
0
0
0
0
0
0
0
0
0
0
0
0
0
0
0
0
0
0
0
0
0
0
0
0
0
0
0
0
0
0
0
0
0
0
0
0
0
0
0
0
0
0
0
0
0
0
0
0
0
0
0
0
0
0
0
0
0
0
0
0
0
0
0
0
0
0
0
0
0
0
0
0
0
0
0
0
0
0
0
0
0
0
0
0
0
0
1
1
1
1
1
1
1
1
1
1
1
1
1
1
1
1
1
1
1
1
1
1
1
1
1
1
1
1
1
1
2
2
2
2
2
2
2
2
2
2
2
2
2
2
2
2
2
2
2
2
2
2
2
2
2
2
2
2
2
2
3
3
3
3
3
3
3
3
3
3
3
3
3
3
3
3
3
3
3
3
3
3
3
3
3
3
3
3
3
3
4
4
4
4
4
4
4
4
4
4
4
4
4
4
4
4
4
4
4
4
4
4
4
4
4
4
4
4
4
4

LOOKUP_TABLE FreeFempp_table 5
1.00000000 0.00000000 0.00000000 1.00000000
1.00000000 1.00000000 0.00000000 1.00000000
1.00000000 0.00000000 1.00000000 1.00000000
0.00000000 1.00000000 0.00000000 1.00000000
0.00000000 1.00000000 1.00000000 1.00000000

POINT_DATA 961
FIELD FieldData 1
Density 1 961 float
5.60615063e-01 5.05643427e-01 5.03049076e-01 5.02464473e-01 5.02274394e-01 5.02081931e-01 5.01875639e-01 4.93802130e-01 3.50393444e-01 5.09339618e-03 1.45092094e-03 3.20958137e-03 3.35254431e-01 7.89726973e-01 9.48100567e-01 9.32660937e-01 9.64852571e-01 9.64114249e-01 9.17551339e-01 8.94176006e-01 8.52417052e-01 8.16549063e-01 7.83378363e-01 7.60857403e-01 7.46919990e-01 7.37090766e-01 7.28536606e-01 7.20542967e-01 7.14190602e-01 7.17560053e-01 6.77730620e-01 4.56001133e-01 3.52928907e-01 3.50639731e-01 3.50405723e-01 3.50673825e-01 3.51783127e-01 3.52014959e-01 3.26517761e-01 1.24139763e-01 4.06500883e-03 1.04842964e-03 9.59306315e-04 9.28223133e-02 5.82317114e-01 9.80634987e-01 3.65737416e-02 2.53330711e-02 9.59470451e-01 9.58237052e-01 9.44544077e-01 9.39881802e-01 9.16084588e-01 8.89354169e-01 8.46067190e-01 8.16591561e-01 7.99613178e-01 7.86921382e-01 7.75736451e-01 7.66361535e-01 7.64934361e-01 7.18032420e-01 4.97040397e-04 4.32708854e-04 4.21209115e-04 4.17627598e-04 4.18135402e-04 4.21639183e-04 4.32447385e-04 4.50310647e-04 4.66156082e-04 4.73956869e-04 4.54072637e-04 4.28400788e-04 4.21603618e-04 1.74369454e-01 8.69176924e-01 9.65687215e-01 2.91315303e-03 1.79105240e-03 1.40321325e-03 1.36292074e-03 2.38924124e-03 4.61539030e-01 7.42478848e-01 7.92483509e-01 7.48230755e-01 7.21572042e-01 7.13069141e-01 7.06211805e-01 6.99975252e-01 6.88556015e-01 6.85634255e-01 6.86576299e-04 4.09796485e-04 4.28323954e-04 4.17633215e-04 4.16545052e-04 4.18080250e-04 4.24498168e-04 4.39401338e-04 4.56797512e-04 4.60879121e-04 4.80686023e-04 4.77732130e-04 3.01434222e-04 3.07824492e-04 4.21783101e-04 9.97290492e-01 9.90267575e-01 3.60158365e-03 1.88986154e-03 1.14503095e-03 7.92192121e-04 7.10589346e-04 8.03227420e-04 3.79012758e-03 5.53482831e-01 5.63114643e-01 5.60833812e-01 5.59853196e-01 5.51597178e-01 5.26662469e-01 6.07296705e-01 6.05479836e-01 5.20677567e-01 5.24690926e-01 5.24674773e-01 5.24402738e-01 5.24501979e-01 5.24053752e-01 5.20865560e-01 5.11886239e-01 4.90992278e-01 4.56350923e-01 3.64609212e-01 5.06801205e-03 4.15214745e-04 3.03216191e-04 3.10631091e-04 4.53677523e-04 9.98222768e-01 9.95260894e-01 9.87679839e-01 3.68536660e-03 9.36951430e-04 5.57291205e-04 5.38615335e-04 9.43943101e-04 3.60918313e-01 4.04493213e-01 3.74774694e-01 3.36897552e-01 3.00349057e-01 4.73224044e-01 6.46946907e-01 6.20655775e-01 6.21579647e-01 6.22281551e-01 6.23818755e-01 6.25434220e-01 6.26944363e-01 6.28502131e-01 6.30505323e-01 6.33125663e-01 6.35204017e-01 6.41922474e-01 6.60087407e-01 6.09608769e-01 4.70102549e-01 4.45562473e-04 3.40898056e-04 3.63426807e-04 7.33091903e-04 9.82602477e-01 9.92391765e-01 9.98249531e-01 3.28111500e-02 7.29133782e-04 5.69358817e-04 6.28387206e-04 2.11671069e-01 1.96657628e-01 1.30601123e-01 1.00449607e-01 2.56426901e-01 6.55385971e-01 6.47824883e-01 6.45063579e-01 6.44607782e-01 6.46512151e-01 6.49817884e-01 6.54516757e-01 6.61130250e-01 6.70106053e-01 6.80968821e-01 6.92158461e-01 7.03536630e-01 7.23245323e-01 7.56167710e-01 7.71218002e-01 7.74532378e-01 6.58706069e-01 5.65000693e-04 5.28992037e-04 6.21915620e-04 1.55478483e-03 3.87879536e-02 9.95448887e-01 9.71478403e-01 1.46334060e-03 5.49177930e-04 6.79821649e-04 2.71042567e-02 2.20595282e-02 1.88011490e-02 6.24818020e-02 6.49284899e-01 6.44403517e-01 6.40891016e-01 6.39252841e-01 6.41299367e-01 6.46196127e-01 6.53559804e-01 6.63151085e-01 6.74437702e-01 6.86237037e-01 6.97190821e-01 7.08068848e-01 7.23421514e-01 7.47990966e-01 7.80753374e-01 8.20630372e-01 8.66480291e-01 8.87413025e-01 8.31602633e-01 1.10639283e-03 1.16051210e-03 8.20281741e-04 7.16354046e-03 9.89552140e-01 4.54497397e-01 1.27385394e-03 5.86373324e-04 7.54046836e-04 1.37104699e-03 1.50932022e-03 3.77590419e-03 6.30243301e-01 6.12325668e-01 6.08178616e-01 6.05664253e-01 6.08142316e-01 6.15001619e-01 6.25153899e-01 6.37150586e-01 6.49236441e-01 6.59659207e-01 6.67459249e-01 6.73765779e-01 6.82196319e-01 6.96034431e-01 7.16188431e-01 7.46077359e-01 7.90265560e-01 8.51925015e-01 9.13002789e-01 9.61967528e-01 4.36369538e-01 5.98020898e-03 6.51848875e-03 7.52418458e-01 9.77245688e-01 7.79684819e-03 1.17989816e-03 9.20081860e-04 1.37056480e-03 1.28651119e-03 2.00165412e-03 6.00516975e-01 5.53160489e-01 5.45692086e-01 5.41721821e-01 5.45303583e-01 5.55724442e-01 5.70850492e-01 5.87496459e-01 6.02152646e-01 6.12264752e-01 6.17181718e-01 6.18390083e-01 6.18831694e-01 6.20962977e-01 6.25659704e-01 6.34587824e-01 6.50953352e-01 6.78746283e-01 7.26907551e-01 8.20785940e-01 9.17853534e-01 6.12090409e-01 1.83954611e-02 9.32594061e-01 9.92551208e-01 1.30045312e-02 1.65703346e-03 1.66408659e-03 6.17572945e-03 5.84927341e-03 4.88004787e-03 5.64445138e-01 4.73480642e-01 4.56531167e-01 4.49989378e-01 4.55841571e-01 4.72718835e-01 4.97060835e-01 5.23138881e-01 5.44647813e-01 5.57795644e-01 5.62474668e-01 5.61032951e-01 5.56600571e-01 5.51576316e-01 5.47124445e-01 5.44071317e-01 5.42738557e-01 5.41569889e-01 5.35911798e-01 5.25492191e-01 5.55761933e-01 6.76578462e-01 8.91620696e-01 9.81224298e-01 9.89141762e-01 1.36661949e-02 1.74521969e-03 1.71341142e-03 1.87911615e-02 1.28455505e-01 2.95810968e-01 5.28179944e-01 3.86229366e-01 3.51406723e-01 3.41078609e-01 3.50915223e-01 3.77533555e-01 4.15865660e-01 4.56918687e-01 4.90096837e-01 5.09807169e-01 5.17066538e-01 5.15818954e-01 5.10077715e-01 5.02775431e-01 4.95684534e-01 4.89943236e-01 4.85942811e-01 4.82778281e-01 4.77840304e-01 4.69999820e-01 4.82190698e-01 6.06909215e-01 8.85648251e-01 9.78295922e-01 9.76157486e-01 1.18408520e-02 2.05542403e-03 1.94718421e-03 2.42865998e-02 2.28571594e-01 4.56543475e-01 4.98190284e-01 3.05368811e-01 2.47542098e-01 2.33517587e-01 2.48337641e-01 2.85999864e-01 3.41197163e-01 4.01312500e-01 4.49367732e-01 4.77301747e-01 4.88228679e-01 4.88417327e-01 4.83094096e-01 4.75863278e-01 4.69102591e-01 4.64563876e-01 4.63704467e-01 4.68227237e-01 4.81492639e-01 5.12717366e-01 5.90413213e-01 7.56901324e-01 9.23896313e-01 9.75233555e-01 9.05496299e-01 9.82646551e-03 2.52539269e-03 2.48169084e-03 3.28059085e-02 3.35518330e-01 5.36463201e-01 4.79276866e-01 2.39085421e-01 1.61523268e-01 1.46514177e-01 1.64934456e-01 2.11191311e-01 2.83311784e-01 3.64588648e-01 4.28239763e-01 4.63415563e-01 4.76993352e-01 4.78181541e-01 4.73452598e-01 4.67049122e-01 4.61966872e-01 4.60868746e-01 4.66946572e-01 4.85212982e-01 5.24341464e-01 5.98172367e-01 7.19720662e-01 8.60078752e-01 9.43499506e-01 9.61579978e-01 5.12131691e-01 8.41469970e-03 3.18215671e-03 3.54171661e-03 4.60340530e-02 4.22501862e-01 5.98816872e-01 4.73225862e-01 1.88087776e-01 1.00856267e-01 8.84770826e-02 1.07639290e-01 1.58399448e-01 2.46863365e-01 3.50587726e-01 4.27843124e-01 4.66746956e-01 4.80500758e-01 4.81402069e-01 4.76922870e-01 4.71835524e-01 4.69829291e-01 4.74797457e-01 4.92055267e-01 5.29531837e-01 5.97268820e-01 6.99749887e-01 8.16957057e-01 9.04834867e-01 9.43599403e-01 8.99551272e-01 1.36384264e-01 8.04423075e-03 4.09572106e-03 5.44194272e-03 6.77630529e-02 4.73991275e-01 6.36291504e-01 4.78886068e-01 1.48522452e-01 6.27640709e-02 5.45422621e-02 7.26854578e-02 1.26082227e-01 2.33112484e-01 3.60338122e-01 4.45678353e-01 4.82960910e-01 4.94009793e-01 4.93377358e-01 4.89053011e-01 4.86151695e-01 4.89070505e-01 5.02986789e-01 5.34894764e-01 5.93138814e-01 6.81545794e-01 7.85623670e-01 8.71481359e-01 9.17966068e-01 9.19204593e-01 6.45901263e-01 5.16064800e-02 8.65420233e-03 5.66645246e-03 9.19488538e-03 9.22379121e-02 5.23427367e-01 6.57986641e-01 4.93724704e-01 1.15454584e-01 3.99477072e-02 3.53009440e-02 5.24672978e-02 1.10436395e-01 2.43168622e-01 3.92365664e-01 4.76009548e-01 5.06142795e-01 5.12250900e-01 5.09522915e-01 5.05842984e-01 5.06394804e-01 5.16089857e-01 5.40897906e-01 5.87847352e-01 6.61482990e-01 7.54175901e-01 8.40181649e-01 8.94729733e-01 9.10239279e-01 8.40627849e-01 2.91283458e-01 3.18948328e-02 1.04512423e-02 8.50530807e-03 1.57300979e-02 1.23453759e-01 5.68457007e-01 6.81934357e-01 5.15951335e-01 8.52383599e-02 2.59570107e-02 2.39839405e-02 4.10112888e-02 1.09274216e-01 2.79308200e-01 4.40924495e-01 5.11011660e-01 5.30230403e-01 5.30470550e-01 5.26028633e-01 5.23996174e-01 5.29261112e-01 5.46771526e-01 5.82234144e-01 6.40448332e-01 7.19379127e-01 8.02906513e-01 8.67078245e-01 8.98237824e-01 8.83368909e-01 6.90994859e-01 1.50993720e-01 2.96035372e-02 1.48327211e-02 1.45755131e-02 2.98429597e-02 1.68768063e-01 6.10867441e-01 6.99363232e-01 5.44688284e-01 5.73683418e-02 1.71548910e-02 1.71934254e-02 3.51422988e-02 1.24225698e-01 3.42181623e-01 4.95179236e-01 5.43305933e-01 5.50238788e-01 5.45207381e-01 5.40224195e-01 5.41007698e-01 5.51711559e-01 5.76668084e-01 6.20167136e-01 6.83406055e-01 7.58772552e-01 8.28343749e-01 8.74630690e-01 8.88041139e-01 8.40001225e-01 5.51815689e-01 1.23116292e-01 3.79406773e-02 2.50834487e-02 2.87341587e-02 5.90603352e-02 2.36046106e-01 6.48478091e-01 7.11004436e-01 5.77185392e-01 3.46366949e-02 1.16947889e-02 1.31136607e-02 3.38655822e-02 1.62279084e-01 4.23980564e-01 5.43579161e-01 5.67533314e-01 5.63124061e-01 5.54634690e-01 5.50668538e-01 5.55171013e-01 5.71170270e-01 6.01848781e-01 6.49473965e-01 7.11974680e-01 7.79264748e-01 8.35642815e-01 8.68449152e-01 8.67049396e-01 7.89829552e-01 4.86403674e-01 1.44600794e-01 6.08831123e-02 4.76109199e-02 5.81985302e-02 1.09236605e-01 3.17749619e-01 6.75092936e-01 7.16605723e-01 6.07968271e-01 1.93033442e-02 8.39146692e-03 1.06726289e-02 3.80913019e-02 2.34867841e-01 5.05281031e-01 5.79153001e-01 5.80719233e-01 5.68032622e-01 5.58461905e-01 5.56964278e-01 5.65499127e-01 5.85805893e-01 6.19740069e-01 6.67707741e-01 7.25733459e-01 7.83802807e-01 8.29191446e-01 8.51486444e-01 8.37617159e-01 7.43700206e-01 4.77392375e-01 2.00184107e-01 1.06173187e-01 8.94485712e-02 1.07286453e-01 1.78489804e-01 3.95058334e-01 6.88352644e-01 7.17557788e-01 6.33034110e-01 1.05272979e-02 6.40936987e-03 9.36980266e-03 5.18817753e-02 3.45472246e-01 5.69221258e-01 5.98717928e-01 5.82810581e-01 5.65798342e-01 5.57489455e-01 5.59384406e-01 5.71596265e-01 5.94692588e-01 6.29379869e-01 6.74824238e-01 7.26491332e-01 7.75625885e-01 8.11895847e-01 8.25665772e-01 8.02557588e-01 7.06123710e-01 4.92442518e-01 2.72029251e-01 1.72061056e-01 1.49120003e-01 1.69804081e-01 2.53111839e-01 4.52654123e-01 6.87657118e-01 7.12429881e-01 6.51309907e-01 5.90599794e-03 5.10570733e-03 9.17439815e-03 8.72150362e-02 4.68680859e-01 6.08583748e-01 6.02291703e-01 5.75798869e-01 5.58249950e-01 5.52986622e-01 5.58521211e-01 5.73557675e-01 5.97791970e-01 6.31144822e-01 6.72212064e-01 7.16756403e-01 7.57565796e-01 7.86064625e-01 7.93100595e-01 7.64989793e-01 6.76351666e-01 5.11477292e-01 3.40027481e-01 2.44062915e-01 2.14555681e-01 2.36557767e-01 3.20104390e-01 4.89152968e-01 6.74966216e-01 7.02986717e-01 6.63364947e-01 3.50825256e-03 3.95970140e-03 1.07263494e-02 1.72480404e-01 5.65581143e-01 6.23107493e-01 5.92598736e-01 5.62318265e-01 5.47425091e-01 5.46204686e-01 5.55082262e-01 5.71889162e-01 5.95800281e-01 6.26324177e-01 6.61980748e-01 6.99231803e-01 7.32351184e-01 7.54216015e-01 7.56514847e-01 7.27747381e-01 6.52190149e-01 5.26784778e-01 3.94905269e-01 3.09493393e-01 2.78467625e-01 2.99372613e-01 3.73536646e-01 5.08784115e-01 6.54753268e-01 6.89992845e-01 6.72695696e-01 2.33235210e-03 2.86851451e-03 1.67078450e-02 3.27161551e-01 6.16873026e-01 6.16106331e-01 5.73253989e-01 5.44973016e-01 5.35023570e-01 5.38166702e-01 5.49799383e-01 5.67406893e-01 5.89942932e-01 6.16778612e-01 6.46636665e-01 6.76805675e-01 7.02933550e-01 7.19311416e-01 7.18939722e-01 6.92979932e-01 6.32191062e-01 5.37908196e-01 4.37054992e-01 3.64717633e-01 3.36680055e-01 3.52402538e-01 4.12593633e-01 5.15036762e-01 6.29927695e-01 6.73796892e-01 6.80982471e-01 1.78668567e-03 2.11506966e-03 3.85593101e-02 4.91363436e-01 6.27867281e-01 5.91822207e-01 5.47828972e-01 5.26062012e-01 5.22336662e-01 5.29674351e-01 5.43424189e-01 5.61164856e-01 5.81820786e-01 6.04757488e-01 6.28994524e-01 6.52632535e-01 6.72595203e-01 6.84634745e-01 6.83362365e-01 6.62410975e-01 6.16353214e-01 5.47217607e-01 4.71371204e-01 4.12437350e-01 3.85905772e-01 3.94317299e-01 4.38049883e-01 5.16029775e-01 6.04152620e-01 6.55921876e-01 6.91052556e-01 1.51857256e-03 1.70808099e-03 1.25995934e-01 5.90311646e-01 6.10070467e-01 5.56835413e-01 5.20653605e-01 5.08045375e-01 5.10631502e-01 5.21546483e-01 5.36844611e-01 5.54469705e-01 5.73372841e-01 5.92887163e-01 6.12259030e-01 6.30283892e-01 6.45047843e-01 6.53770089e-01 6.52746677e-01 6.37641609e-01 6.05000019e-01 5.55958986e-01 4.99879956e-01 4.52141196e-01 4.26406413e-01 4.28124815e-01 4.61360455e-01 5.16129971e-01 5.78451514e-01 6.38289273e-01 6.95791185e-01 1.35278038e-03 1.47793116e-03 3.17268372e-01 6.06158674e-01 5.73078811e-01 5.20751238e-01 4.97394919e-01 4.93948519e-01 5.01518250e-01 5.14837146e-01 5.31124294e-01 5.48797667e-01 5.66779613e-01 5.84199071e-01 6.00269854e-01 6.14184439e-01 6.24936938e-01 6.31067038e-01 6.30425334e-01 6.20241523e-01 5.98020911e-01 5.63717782e-01 5.22282958e-01 4.83672678e-01 4.58822280e-01 4.55537051e-01 4.75118548e-01 5.09071410e-01 5.50638616e-01 6.20816946e-01 6.99029088e-01 1.24095008e-03 1.32068526e-03 4.61665839e-01 5.73116720e-01 5.26995063e-01 4.92750853e-01 4.83318299e-01 4.86613899e-01 4.96438295e-01 5.10219812e-01 5.26701570e-01 5.44895291e-01 5.63674390e-01 5.81743836e-01 5.97807646e-01 6.10753953e-01 6.19702339e-01 6.23846769e-01 6.22166932e-01 6.13248944e-01 5.95624685e-01 5.69011569e-01 5.36170602e-01 5.03730655e-01 4.80149060e-01 4.71884221e-01 4.79753494e-01 4.97798920e-01 5.23097634e-01 6.03416979e-01 7.05153763e-01 1.02695136e-03 1.21974153e-03 5.52711070e-01 5.43080986e-01 5.01817644e-01 4.88356411e-01 4.86255527e-01 4.89171118e-01 4.96085286e-01 5.07412195e-01 5.23368061e-01 5.43504953e-01 5.66557229e-01 5.90498924e-01 6.12824976e-01 6.30986869e-01 6.42797112e-01 6.46633208e-01 6.41478658e-01 6.26986980e-01 6.03717029e-01 5.73580384e-01 5.40269673e-01 5.09119511e-01 4.85853553e-01 4.74389791e-01 4.75025445e-01 4.84424174e-01 5.01479447e-01 5.88864505e-01 6.59805357e-01 1.79289561e-03 1.28981937e-03 8.19190800e-01 6.15461767e-01 5.97181857e-01 5.89349926e-01 5.84111035e-01 5.81071854e-01 5.81002355e-01 5.84470510e-01 5.91684878e-01 6.02393985e-01 6.15824282e-01 6.30710959e-01 6.45427465e-01 6.58178151e-01 6.67211831e-01 6.71034157e-01 6.68625712e-01 6.59693301e-01 6.44945145e-01 6.26241803e-01 6.06369197e-01 5.88362277e-01 5.74721456e-01 5.66939294e-01 5.65338194e-01 5.69068253e-01 5.76296151e-01 6.08628392e-01 
