# vtk DataFile Version 2.0
results/iter2.vtk, Created by Freefem++ 
ASCII
DATASET UNSTRUCTURED_GRID
POINTS 961 float
0 0 0
0.033333333 0 0
0.066666667 0 0
0.1 0 0
0.13333333 0 0
0.16666667 0 0
0.2 0 0
0.23333333 0 0
0.26666667 0 0
0.3 0 0
0.33333333 0 0
0.36666667 0 0
0.4 0 0
0.43333333 0 0
0.46666667 0 0
0.5 0 0
0.53333333 0 0
0.56666667 0 0
0.6 0 0
0.63333333 0 0
0.66666667 0 0
0.7 0 0
0.73333333 0 0
0.76666667 0 0
0.8 0 0
0.83333333 0 0
0.86666667 0 0
0.9 0 0
0.93333333 0 0
0.96666667 0 0
1 0 0
0 0.033333333 0
0.033333333 0.033333333 0
0.066666667 0.033333333 0
0.1 0.033333333 0
0.13333333 0.033333333 0
0.16666667 0.033333333 0
0.2 0.033333333 0
0.23333333 0.033333333 0
0.26666667 0.033333333 0
0.3 0.033333333 0
0.33333333 0.033333333 0
0.36666667 0.033333333 0
0.4 0.033333333 0
0.43333333 0.033333333 0
0.46666667 0.033333333 0
0.5 0.033333333 0
0.53333333 0.033333333 0
0.56666667 0.033333333 0
0.6 0.033333333 0
0.63333333 0.033333333 0
0.66666667 0.033333333 0
0.7 0.033333333 0
0.73333333 0.033333333 0
0.76666667 0.033333333 0
0.8 0.033333333 0
0.83333333 0.033333333 0
0.86666667 0.033333333 0
0.9 0.033333333 0
0.93333333 0.033333333 0
0.96666667 0.033333333 0
1 0.033333333 0
0 0.066666667 0
0.033333333 0.066666667 0
0.066666667 0.066666667 0
0.1 0.066666667 0
0.13333333 0.066666667 0
0.16666667 0.066666667 0
0.2 0.066666667 0
0.23333333 0.066666667 0
0.26666667 0.066666667 0
0.3 0.066666667 0
0.33333333 0.066666667 0
0.36666667 0.066666667 0
0.4 0.066666667 0
0.43333333 0.066666667 0
0.46666667 0.066666667 0
0.5 0.066666667 0
0.53333333 0.066666667 0
0.56666667 0.066666667 0
0.6 0.066666667 0
0.63333333 0.066666667 0
0.66666667 0.066666667 0
0.7 0.066666667 0
0.73333333 0.066666667 0
0.76666667 0.066666667 0
0.8 0.066666667 0
0.83333333 0.066666667 0
0.86666667 0.066666667 0
0.9 0.066666667 0
0.93333333 0.066666667 0
0.96666667 0.066666667 0
1 0.066666667 0
0 0.1 0
0.033333333 0.1 0
0.066666667 0.1 0
0.1 0.1 0
0.13333333 0.1 0
0.16666667 0.1 0
0.2 0.1 0
0.23333333 0.1 0
0.26666667 0.1 0
0.3 0.1 0
0.33333333 0.1 0
0.36666667 0.1 0
0.4 0.1 0
0.43333333 0.1 0
0.46666667 0.1 0
0.5 0.1 0
0.53333333 0.1 0
0.56666667 0.1 0
0.6 0.1 0
0.63333333 0.1 0
0.66666667 0.1 0
0.7 0.1 0
0.73333333 0.1 0
0.76666667 0.1 0
0.8 0.1 0
0.83333333 0.1 0
0.86666667 0.1 0
0.9 0.1 0
0.93333333 0.1 0
0.96666667 0.1 0
1 0.1 0
0 0.13333333 0
0.033333333 0.13333333 0
0.066666667 0.13333333 0
0.1 0.13333333 0
0.13333333 0.13333333 0
0.16666667 0.13333333 0
0.2 0.13333333 0
0.23333333 0.13333333 0
0.26666667 0.13333333 0
0.3 0.13333333 0
0.33333333 0.13333333 0
0.36666667 0.13333333 0
0.4 0.13333333 0
0.43333333 0.13333333 0
0.46666667 0.13333333 0
0.5 0.13333333 0
0.53333333 0.13333333 0
0.56666667 0.13333333 0
0.6 0.13333333 0
0.63333333 0.13333333 0
0.66666667 0.13333333 0
0.7 0.13333333 0
0.73333333 0.13333333 0
0.76666667 0.13333333 0
0.8 0.13333333 0
0.83333333 0.13333333 0
0.86666667 0.13333333 0
0.9 0.13333333 0
0.93333333 0.13333333 0
0.96666667 0.13333333 0
1 0.13333333 0
0 0.16666667 0
0.033333333 0.16666667 0
0.066666667 0.16666667 0
0.1 0.16666667 0
0.13333333 0.16666667 0
0.16666667 0.16666667 0
0.2 0.16666667 0
0.23333333 0.16666667 0
0.26666667 0.16666667 0
0.3 0.16666667 0
0.33333333 0.16666667 0
0.36666667 0.16666667 0
0.4 0.16666667 0
0.43333333 0.16666667 0
0.46666667 0.16666667 0
0.5 0.16666667 0
0.53333333 0.16666667 0
0.56666667 0.16666667 0
0.6 0.16666667 0
0.63333333 0.16666667 0
0.66666667 0.16666667 0
0.7 0.16666667 0
0.73333333 0.16666667 0
0.76666667 0.16666667 0
0.8 0.16666667 0
0.83333333 0.16666667 0
0.86666667 0.16666667 0
0.9 0.16666667 0
0.93333333 0.16666667 0
0.96666667 0.16666667 0
1 0.16666667 0
0 0.2 0
0.033333333 0.2 0
0.066666667 0.2 0
0.1 0.2 0
0.13333333 0.2 0
0.16666667 0.2 0
0.2 0.2 0
0.23333333 0.2 0
0.26666667 0.2 0
0.3 0.2 0
0.33333333 0.2 0
0.36666667 0.2 0
0.4 0.2 0
0.43333333 0.2 0
0.46666667 0.2 0
0.5 0.2 0
0.53333333 0.2 0
0.56666667 0.2 0
0.6 0.2 0
0.63333333 0.2 0
0.66666667 0.2 0
0.7 0.2 0
0.73333333 0.2 0
0.76666667 0.2 0
0.8 0.2 0
0.83333333 0.2 0
0.86666667 0.2 0
0.9 0.2 0
0.93333333 0.2 0
0.96666667 0.2 0
1 0.2 0
0 0.23333333 0
0.033333333 0.23333333 0
0.066666667 0.23333333 0
0.1 0.23333333 0
0.13333333 0.23333333 0
0.16666667 0.23333333 0
0.2 0.23333333 0
0.23333333 0.23333333 0
0.26666667 0.23333333 0
0.3 0.23333333 0
0.33333333 0.23333333 0
0.36666667 0.23333333 0
0.4 0.23333333 0
0.43333333 0.23333333 0
0.46666667 0.23333333 0
0.5 0.23333333 0
0.53333333 0.23333333 0
0.56666667 0.23333333 0
0.6 0.23333333 0
0.63333333 0.23333333 0
0.66666667 0.23333333 0
0.7 0.23333333 0
0.73333333 0.23333333 0
0.76666667 0.23333333 0
0.8 0.23333333 0
0.83333333 0.23333333 0
0.86666667 0.23333333 0
0.9 0.23333333 0
0.93333333 0.23333333 0
0.96666667 0.23333333 0
1 0.23333333 0
0 0.26666667 0
0.033333333 0.26666667 0
0.066666667 0.26666667 0
0.1 0.26666667 0
0.13333333 0.26666667 0
0.16666667 0.26666667 0
0.2 0.26666667 0
0.23333333 0.26666667 0
0.26666667 0.26666667 0
0.3 0.26666667 0
0.33333333 0.26666667 0
0.36666667 0.26666667 0
0.4 0.26666667 0
0.43333333 0.26666667 0
0.46666667 0.26666667 0
0.5 0.26666667 0
0.53333333 0.26666667 0
0.56666667 0.26666667 0
0.6 0.26666667 0
0.63333333 0.26666667 0
0.66666667 0.26666667 0
0.7 0.26666667 0
0.73333333 0.26666667 0
0.76666667 0.26666667 0
0.8 0.26666667 0
0.83333333 0.26666667 0
0.86666667 0.26666667 0
0.9 0.26666667 0
0.93333333 0.26666667 0
0.96666667 0.26666667 0
1 0.26666667 0
0 0.3 0
0.033333333 0.3 0
0.066666667 0.3 0
0.1 0.3 0
0.13333333 0.3 0
0.16666667 0.3 0
0.2 0.3 0
0.23333333 0.3 0
0.26666667 0.3 0
0.3 0.3 0
0.33333333 0.3 0
0.36666667 0.3 0
0.4 0.3 0
0.43333333 0.3 0
0.46666667 0.3 0
0.5 0.3 0
0.53333333 0.3 0
0.56666667 0.3 0
0.6 0.3 0
0.63333333 0.3 0
0.66666667 0.3 0
0.7 0.3 0
0.73333333 0.3 0
0.76666667 0.3 0
0.8 0.3 0
0.83333333 0.3 0
0.86666667 0.3 0
0.9 0.3 0
0.93333333 0.3 0
0.96666667 0.3 0
1 0.3 0
0 0.33333333 0
0.033333333 0.33333333 0
0.066666667 0.33333333 0
0.1 0.33333333 0
0.13333333 0.33333333 0
0.16666667 0.33333333 0
0.2 0.33333333 0
0.23333333 0.33333333 0
0.26666667 0.33333333 0
0.3 0.33333333 0
0.33333333 0.33333333 0
0.36666667 0.33333333 0
0.4 0.33333333 0
0.43333333 0.33333333 0
0.46666667 0.33333333 0
0.5 0.33333333 0
0.53333333 0.33333333 0
0.56666667 0.33333333 0
0.6 0.33333333 0
0.63333333 0.33333333 0
0.66666667 0.33333333 0
0.7 0.33333333 0
0.73333333 0.33333333 0
0.76666667 0.33333333 0
0.8 0.33333333 0
0.83333333 0.33333333 0
0.86666667 0.33333333 0
0.9 0.33333333 0
0.93333333 0.33333333 0
0.96666667 0.33333333 0
1 0.33333333 0
0 0.36666667 0
0.033333333 0.36666667 0
0.066666667 0.36666667 0
0.1 0.36666667 0
0.13333333 0.36666667 0
0.16666667 0.36666667 0
0.2 0.36666667 0
0.23333333 0.36666667 0
0.26666667 0.36666667 0
0.3 0.36666667 0
0.33333333 0.36666667 0
0.36666667 0.36666667 0
0.4 0.36666667 0
0.43333333 0.36666667 0
0.46666667 0.36666667 0
0.5 0.36666667 0
0.53333333 0.36666667 0
0.56666667 0.36666667 0
0.6 0.36666667 0
0.63333333 0.36666667 0
0.66666667 0.36666667 0
0.7 0.36666667 0
0.73333333 0.36666667 0
0.76666667 0.36666667 0
0.8 0.36666667 0
0.83333333 0.36666667 0
0.86666667 0.36666667 0
0.9 0.36666667 0
0.93333333 0.36666667 0
0.96666667 0.36666667 0
1 0.36666667 0
0 0.4 0
0.033333333 0.4 0
0.066666667 0.4 0
0.1 0.4 0
0.13333333 0.4 0
0.16666667 0.4 0
0.2 0.4 0
0.23333333 0.4 0
0.26666667 0.4 0
0.3 0.4 0
0.33333333 0.4 0
0.36666667 0.4 0
0.4 0.4 0
0.43333333 0.4 0
0.46666667 0.4 0
0.5 0.4 0
0.53333333 0.4 0
0.56666667 0.4 0
0.6 0.4 0
0.63333333 0.4 0
0.66666667 0.4 0
0.7 0.4 0
0.73333333 0.4 0
0.76666667 0.4 0
0.8 0.4 0
0.83333333 0.4 0
0.86666667 0.4 0
0.9 0.4 0
0.93333333 0.4 0
0.96666667 0.4 0
1 0.4 0
0 0.43333333 0
0.033333333 0.43333333 0
0.066666667 0.43333333 0
0.1 0.43333333 0
0.13333333 0.43333333 0
0.16666667 0.43333333 0
0.2 0.43333333 0
0.23333333 0.43333333 0
0.26666667 0.43333333 0
0.3 0.43333333 0
0.33333333 0.43333333 0
0.36666667 0.43333333 0
0.4 0.43333333 0
0.43333333 0.43333333 0
0.46666667 0.43333333 0
0.5 0.43333333 0
0.53333333 0.43333333 0
0.56666667 0.43333333 0
0.6 0.43333333 0
0.63333333 0.43333333 0
0.66666667 0.43333333 0
0.7 0.43333333 0
0.73333333 0.43333333 0
0.76666667 0.43333333 0
0.8 0.43333333 0
0.83333333 0.43333333 0
0.86666667 0.43333333 0
0.9 0.43333333 0
0.93333333 0.43333333 0
0.96666667 0.43333333 0
1 0.43333333 0
0 0.46666667 0
0.033333333 0.46666667 0
0.066666667 0.46666667 0
0.1 0.46666667 0
0.13333333 0.46666667 0
0.16666667 0.46666667 0
0.2 0.46666667 0
0.23333333 0.46666667 0
0.26666667 0.46666667 0
0.3 0.46666667 0
0.33333333 0.46666667 0
0.36666667 0.46666667 0
0.4 0.46666667 0
0.43333333 0.46666667 0
0.46666667 0.46666667 0
0.5 0.46666667 0
0.53333333 0.46666667 0
0.56666667 0.46666667 0
0.6 0.46666667 0
0.63333333 0.46666667 0
0.66666667 0.46666667 0
0.7 0.46666667 0
0.73333333 0.46666667 0
0.76666667 0.46666667 0
0.8 0.46666667 0
0.83333333 0.46666667 0
0.86666667 0.46666667 0
0.9 0.46666667 0
0.93333333 0.46666667 0
0.96666667 0.46666667 0
1 0.46666667 0
0 0.5 0
0.033333333 0.5 0
0.066666667 0.5 0
0.1 0.5 0
0.13333333 0.5 0
0.16666667 0.5 0
0.2 0.5 0
0.23333333 0.5 0
0.26666667 0.5 0
0.3 0.5 0
0.33333333 0.5 0
0.36666667 0.5 0
0.4 0.5 0
0.43333333 0.5 0
0.46666667 0.5 0
0.5 0.5 0
0.53333333 0.5 0
0.56666667 0.5 0
0.6 0.5 0
0.63333333 0.5 0
0.66666667 0.5 0
0.7 0.5 0
0.73333333 0.5 0
0.76666667 0.5 0
0.8 0.5 0
0.83333333 0.5 0
0.86666667 0.5 0
0.9 0.5 0
0.93333333 0.5 0
0.96666667 0.5 0
1 0.5 0
0 0.53333333 0
0.033333333 0.53333333 0
0.066666667 0.53333333 0
0.1 0.53333333 0
0.13333333 0.53333333 0
0.16666667 0.53333333 0
0.2 0.53333333 0
0.23333333 0.53333333 0
0.26666667 0.53333333 0
0.3 0.53333333 0
0.33333333 0.53333333 0
0.36666667 0.53333333 0
0.4 0.53333333 0
0.43333333 0.53333333 0
0.46666667 0.53333333 0
0.5 0.53333333 0
0.53333333 0.53333333 0
0.56666667 0.53333333 0
0.6 0.53333333 0
0.63333333 0.53333333 0
0.66666667 0.53333333 0
0.7 0.53333333 0
0.73333333 0.53333333 0
0.76666667 0.53333333 0
0.8 0.53333333 0
[...]
CELL_DATA 1920
Scalars  Label int 1
LOOKUP_TABLE FreeFempp_table
0
0
0
0
0
0
0
0
0
0
0
0
0
0
0
0
0
0
0
0
0
0
0
0
0
0
0
0
0
0
0
0
0
0
0
0
0
0
0
0
0
0
0
0
0
0
0
0
0
0
0
0
0
0
0
0
0
0
0
0
0
0
0
0
0
0
0
0
0
0
0
0
0
0
0
0
0
0
0
0
0
0
0
0
0
0
0
0
0
0
0
0
0
0
0
0
0
0
0
0
0
0
0
0
0
0
0
0
0
0
0
0
0
0
0
0
0
0
0
0
0
0
0
0
0
0
0
0
0
0
0
0
0
0
0
0
0
0
0
0
0
0
0
0
0
0
0
0
0
0
0
0
0
0
0
0
0
0
0
0
0
0
0
0
0
0
0
0
0
0
0
0
0
0
0
0
0
0
0
0
0
0
0
0
0
0
0
0
0
0
0
0
0
0
0
0
0
0
0
0
0
0
0
0
0
0
0
0
0
0
0
0
0
0
0
0
0
0
0
0
0
0
0
0
0
0
0
0
0
0
0
0
0
0
0
0
0
0
0
0
0
0
0
0
0
0
0
0
0
0
0
0
0
0
0
0
0
0
0
0
0
0
0
0
0
0
0
0
0
0
0
0
0
0
0
0
0
0
0
0
0
0
0
0
0
0
0
0
0
0
0
0
0
0
0
0
0
0
0
0
0
0
0
0
0
0
0
0
0
0
0
0
0
0
0
0
0
0
0
0
0
0
0
0
0
0
0
0
0
0
0
0
0
0
0
0
0
0
0
0
0
0
0
0
0
0
0
0
0
0
0
0
0
0
0
0
0
0
0
0
0
0
0
0
0
0
0
0
0
0
0
0
0
0
0
0
0
0
0
0
0
0
0
0
0
0
0
0
0
0
0
0
0
0
0
0
0
0
0
0
0
0
0
0
0
0
0
0
0
0
0
0
0
0
0
0
0
0
0
0
0
0
0
0
0
0
0
0
0
0
0
0
0
0
0
0
0
0
0
0
0
0
0
0
0
0
0
0
0
0
0
0
0
0
0
0
0
0
0
0
0
0
0
0
0
0
0
0
0
0
0
0
0
0
0
0
0
0
0
0
0
0
0
0
0
0
0
0
0
0
0
0
0
0
0
0
0
0
0
0
0
0
0
0
0
0
0
0
0
0
0
0
0
0
0
0
0
0
0
0
0
0
0
0
0
0
0
0
0
0
0
0
0
0
0
0
0
0
0
0
0
0
0
0
0
0
0
0
0
0
0
0
0
0
0
0
0
0
0
0
0
0
0
0
0
0
0
0
0
0
0
0
0
0
0
0
0
0
0
0
0
0
0
0
0
0
0
0
0
0
0
0
0
0
0
0
0
0
0
0
0
0
0
0
0
0
0
0
0
0
0
0
0
0
0
0
0
0
0
0
0
0
0
0
0
0
0
0
0
0
0
0
0
0
0
0
0
0
0
0
0
0
0
0
0
0
0
0
0
0
0
0
0
0
0
0
0
0
0
0
0
0
0
0
0
0
0
0
0
0
0
0
0
0
0
0
0
0
0
0
0
0
0
0
0
0
0
0
0
0
0
0
0
0
0
0
0
0
0
0
0
0
0
0
0
0
0
0
0
0
0
0
0
0
0
0
0
0
0
0
0
0
0
0
0
0
0
0
0
0
0
0
0
0
0
0
0
0
0
0
0
0
0
0
0
0
0
0
0
0
0
0
0
0
0
0
0
0
0
0
0
0
0
0
0
0
0
0
0
0
0
0
0
0
0
0
0
0
0
0
0
0
0
0
0
0
0
0
0
0
0
0
0
0
0
0
0
0
0
0
0
0
0
0
0
0
0
0
0
0
0
0
0
0
0
0
0
0
0
0
0
0
0
0
0
0
0
0
0
0
0
0
0
0
0
0
0
0
0
0
0
0
0
0
0
0
0
0
0
0
0
0
0
0
0
0
0
0
0
0
0
0
0
0
0
0
0
0
0
0
0
0
0
0
0
0
0
0
0
0
0
0
0
0
0
0
0
0
0
0
0
0
0
0
0
0
0
0
0
0
0
0
0
0
0
0
0
0
0
0
0
0
0
0
0
0
0
0
0
0
0
0
0
0
0
0
0
0
0
0
0
0
0
0
0
0
0
0
0
0
0
0
0
0
0
0
0
0
0
0
0
0
0
0
0
0
0
0
0
0
0
0
0
0
0
0
0
0
0
0
0
0
0
0
0
0
0
0
0
0
0
0
0
0
0
0
0
0
0
0
0
0
0
0
0
0
0
0
0
0
0
0
0
0
0
0
0
0
0
0
0
0
0
0
0
0
0
0
0
0
0
0
0
0
0
0
0
0
0
0
0
0
0
0
0
0
0
0
0
0
0
0
0
0
0
0
0
0
0
0
0
0
0
0
0
0
0
0
0
0
0
0
0
0
0
0
0
0
0
0
0
0
0
0
0
0
0
0
0
0
0
0
0
0
0
0
0
0
0
0
0
0
0
0
0
0
0
0
0
0
0
0
0
0
0
0
0
0
0
0
0
0
0
0
0
0
0
0
0
0
0
0
0
0
0
0
0
0
0
0
0
0
0
0
0
0
0
0
0
0
0
0
0
0
0
0
0
0
0
0
0
0
0
0
0
0
0
0
0
0
0
0
0
0
0
0
0
0
0
0
0
0
0
0
0
0
0
0
0
0
0
0
0
0
0
0
0
0
0
0
0
0
0
0
0
0
0
0
0
0
0
0
0
0
0
0
0
0
0
0
0
0
0
0
0
0
0
0
0
0
0
0
0
0
0
0
0
0
0
0
0
0
0
0
0
0
0
0
0
0
0
0
0
0
0
0
0
0
0
0
0
0
0
0
0
0
0
0
0
0
0
0
0
0
0
0
0
0
0
0
0
0
0
0
0
0
0
0
0
0
0
0
0
0
0
0
0
0
0
0
0
0
0
0
0
0
0
0
0
0
0
0
0
0
0
0
0
0
0
0
0
0
0
0
0
0
0
0
0
0
0
0
0
0
0
0
0
0
0
0
0
0
0
0
0
0
0
0
0
0
0
0
0
0
0
0
0
0
0
0
0
0
0
0
0
0
0
0
0
0
0
0
0
0
0
0
0
0
0
0
0
0
0
0
0
0
0
0
0
0
0
0
0
0
0
0
0
0
0
0
0
0
0
0
0
0
0
0
0
0
0
0
0
0
0
0
0
0
0
0
0
0
0
0
0
0
0
0
0
0
0
0
0
0
0
0
0
0
0
0
0
0
0
0
0
0
0
0
0
0
0
0
0
0
0
0
0
0
0
0
0
0
0
0
0
0
0
0
0
0
0
0
0
0
0
0
0
0
0
0
0
0
0
0
0
0
0
0
0
0
0
0
0
0
0
0
0
0
0
0
0
0
0
0
0
0
0
0
0
0
0
0
0
0
0
0
0
0
0
0
0
0
0
0
0
0
0
0
0
0
0
0
0
0
0
0
0
0
0
0
0
0
0
0
0
0
0
0
0
0
0
0
0
0
0
0
0
0
0
0
0
0
0
0
0
0
0
0
0
0
0
0
0
0
0
0
0
0
0
0
0
0
0
0
0
0
0
0
0
0
0
0
0
0
0
0
0
0
0
0
0
0
0
0
0
0
0
0
0
0
0
0
0
0
0
0
0
0
0
0
0
0
0
0
0
0
0
0
0
0
0
0
0
0
0
0
0
0
0
0
0
0
0
0
0
0
0
0
0
0
0
0
0
0
0
0
0
0
0
0
0
0
0
0
0
0
0
0
0
0
0
0
0
0
0
0
0
0
0
0
0
0
0
0
0
0
0
0
0
0
0
0
0
0
0
0
0
0
0
0
0
0
0
0
0
0
0
0
0
0
0
0
0
0
0
0
0
0
0
0
0
0
0
0
0
0
0
0
0
0
0
0
0
0
0
0
0
0
0
0
0
0
0
0
0
0
0
0
0
0
0
0
0
0
0
0
0
0
0
0
0
0
0
0
0
0
0
0
0
0
0
0
0
0
0
0
0
0
0
0
0
0
0
0
0
0
0
0
0
0
0
0
0
0
0
0
0
0
0
0
0
0
0
0
0
0
0
0
0
0
1
1
1
1
1
1
1
1
1
1
1
1
1
1
1
1
1
1
1
1
1
1
1
1
1
1
1
1
1
1
2
2
2
2
2
2
2
2
2
2
2
2
2
2
2
2
2
2
2
2
2
2
2
2
2
2
2
2
2
2
3
3
3
3
3
3
3
3
3
3
3
3
3
3
3
3
3
3
3
3
3
3
3
3
3
3
3
3
3
3
4
4
4
4
4
4
4
4
4
4
4
4
4
4
4
4
4
4
4
4
4
4
4
4
4
4
4
4
4
4

LOOKUP_TABLE FreeFempp_table 5
1.00000000 0.00000000 0.00000000 1.00000000
1.00000000 1.00000000 0.00000000 1.00000000
1.00000000 0.00000000 1.00000000 1.00000000
0.00000000 1.00000000 0.00000000 1.00000000
0.00000000 1.00000000 1.00000000 1.00000000

POINT_DATA 961
FIELD FieldData 1
Density 1 961 float
4.66754436e-01 4.11174297e-01 4.30695236e-01 4.42705363e-01 4.44666386e-01 4.37983394e-01 4.09393281e-01 3.12599152e-01 6.18447363e-02 3.02756741e-03 3.07877478e-03 1.40627893e-02 2.03013435e-01 3.79218936e-01 5.10279000e-01 7.43043005e-01 8.82213533e-01 8.35667372e-01 8.10433865e-01 8.61057520e-01 8.37270975e-01 7.97869205e-01 7.55143046e-01 7.22314000e-01 6.98911428e-01 6.82971954e-01 6.72494888e-01 6.65493965e-01 6.60766184e-01 6.61818087e-01 6.41450822e-01 1.78929105e-01 2.39594921e-01 3.06668550e-01 3.35599214e-01 3.34251344e-01 3.26879829e-01 3.06032777e-01 2.41439432e-01 7.48991370e-02 3.49182403e-03 1.96832023e-03 4.94705793e-03 1.01958081e-01 2.61488914e-01 3.57111335e-01 6.74078405e-01 9.53619361e-01 8.48601103e-01 4.77799445e-01 8.49100471e-01 9.29933727e-01 8.98045480e-01 8.57907951e-01 8.11766028e-01 7.67225802e-01 7.32312441e-01 7.08997488e-01 6.94169641e-01 6.84561312e-01 6.80448472e-01 6.60937905e-01 5.32818318e-04 3.77042597e-04 3.82699422e-04 4.01038240e-04 4.13298752e-04 4.17597737e-04 4.13654256e-04 4.07721964e-04 4.05717903e-04 4.07058687e-04 4.27246618e-04 4.96904948e-04 1.03784144e-01 3.36029887e-01 3.61284077e-01 4.73037332e-01 9.24469948e-01 8.89708772e-02 8.20127781e-03 1.25351520e-02 2.63239723e-02 9.66236442e-02 4.76227194e-01 6.90511227e-01 7.08332241e-01 6.79897666e-01 6.53857231e-01 6.39454722e-01 6.31695986e-01 6.23283803e-01 6.37123704e-01 6.65179628e-04 3.80116282e-04 3.76490032e-04 3.92737333e-04 4.07354324e-04 4.15658578e-04 4.15037415e-04 4.08976310e-04 4.04089311e-04 4.08594235e-04 3.91157577e-04 3.01995518e-04 2.94710917e-04 4.02493199e-04 3.67930130e-04 3.41155708e-01 7.85767913e-01 9.87386525e-01 5.17726922e-03 5.30866859e-03 2.23368639e-03 1.45043421e-03 1.32483267e-03 1.35177199e-03 2.56843328e-01 5.46333611e-01 5.62283933e-01 5.52016914e-01 5.49101651e-01 5.43017566e-01 5.97453773e-01 3.36005419e-01 2.32108787e-01 2.46171579e-01 2.92335927e-01 3.34668726e-01 3.48873675e-01 3.62520009e-01 3.74166578e-01 3.84951591e-01 3.90370041e-01 3.63722831e-01 1.85421261e-03 3.85307649e-04 3.93184047e-04 2.67759082e-04 2.73228157e-04 4.60405980e-04 6.09165581e-04 9.98626411e-01 1.49221811e-02 4.13959799e-03 2.09529256e-03 1.38007139e-03 7.61509989e-04 6.44328014e-04 1.75948534e-02 4.72153574e-01 4.77973640e-01 4.82023180e-01 4.81299132e-01 5.62456489e-01 4.46723938e-01 2.62743860e-01 2.63974339e-01 2.98587143e-01 3.33941877e-01 3.61484081e-01 3.78964335e-01 3.90642941e-01 4.00075704e-01 4.07803088e-01 4.10882950e-01 4.04678822e-01 4.00222778e-01 3.99509281e-01 3.55944037e-01 3.82454076e-04 4.05354571e-04 3.71819711e-04 4.24911501e-04 9.94842052e-01 1.28919303e-01 2.10822418e-01 1.62226006e-01 1.08348727e-02 5.63880429e-04 5.05820499e-04 5.90598164e-03 4.59171087e-01 4.42269385e-01 4.46470022e-01 5.41678846e-01 5.12986243e-01 3.59227508e-01 3.55752468e-01 3.77546638e-01 3.98558885e-01 4.16664273e-01 4.30353016e-01 4.39972430e-01 4.47135895e-01 4.53035563e-01 4.57130462e-01 4.56441730e-01 4.53227371e-01 4.55014944e-01 4.51280266e-01 4.38567728e-01 3.90301764e-01 2.05201842e-03 4.68661601e-04 4.14913433e-04 9.83555317e-01 9.67997253e-01 9.73658741e-01 9.69886959e-01 9.03683841e-01 5.08475234e-04 4.79386654e-04 5.13003860e-03 4.48352754e-01 4.29905474e-01 5.29176295e-01 5.69802701e-01 4.73374218e-01 4.71984297e-01 4.77373838e-01 4.83586520e-01 4.90396440e-01 4.97615725e-01 5.04060686e-01 5.09397328e-01 5.13690948e-01 5.16320705e-01 5.16219437e-01 5.14209688e-01 5.12312055e-01 5.08839786e-01 5.01503110e-01 4.88502771e-01 4.69966233e-01 4.58061874e-01 3.61162791e-04 3.05111113e-04 7.76024640e-01 8.33610237e-01 7.56950736e-01 8.70318294e-01 9.95692313e-01 4.08574997e-04 4.47130064e-04 1.87362861e-02 4.23741370e-01 5.18627882e-01 6.12963200e-01 5.69539249e-01 5.70181012e-01 5.68079472e-01 5.66365063e-01 5.66511452e-01 5.68357825e-01 5.70976317e-01 5.73568463e-01 5.75473249e-01 5.76052964e-01 5.75155973e-01 5.73527277e-01 5.71780145e-01 5.69504440e-01 5.65792739e-01 5.59474885e-01 5.47698796e-01 5.24260998e-01 4.72161561e-01 3.75116069e-04 2.99720530e-04 1.05936248e-02 1.71572138e-02 1.52148474e-02 1.74248181e-02 9.97519076e-01 4.02897946e-04 3.72263719e-04 2.13525534e-01 4.86989915e-01 6.41158402e-01 6.35795116e-01 6.36549711e-01 6.33940041e-01 6.30561471e-01 6.27961397e-01 6.26396954e-01 6.25735462e-01 6.25452220e-01 6.24872625e-01 6.23583972e-01 6.21836901e-01 6.20375454e-01 6.19552255e-01 6.19325221e-01 6.19964838e-01 6.21516645e-01 6.23296201e-01 6.22612000e-01 6.13191366e-01 5.53354979e-01 3.89784429e-04 6.15489611e-04 1.37589278e-03 1.30924673e-04 9.43918992e-03 6.23642616e-02 9.98186529e-01 4.03673272e-04 5.70744451e-04 3.79541636e-01 6.53334916e-01 6.70384049e-01 6.71050787e-01 6.70012534e-01 6.67479753e-01 6.64357007e-01 6.61323428e-01 6.58774436e-01 6.56492710e-01 6.54003859e-01 6.51122570e-01 6.48240387e-01 6.46040022e-01 6.44945443e-01 6.45271838e-01 6.47712171e-01 6.53217077e-01 6.62817121e-01 6.77721858e-01 6.98675513e-01 7.20044732e-01 7.13731408e-01 1.09440461e-03 1.23611663e-03 1.59129105e-03 2.87357741e-03 7.43868621e-03 9.71275985e-01 6.11658324e-04 4.18208831e-04 5.42498045e-02 6.48017287e-01 6.71311378e-01 6.72801375e-01 6.74278200e-01 6.74154818e-01 6.72537923e-01 6.70211494e-01 6.67823911e-01 6.65288985e-01 6.62175119e-01 6.58362567e-01 6.54270709e-01 6.50544345e-01 6.47674978e-01 6.46109462e-01 6.46517575e-01 6.49828851e-01 6.57414913e-01 6.71600103e-01 6.97152197e-01 7.37401724e-01 8.03180158e-01 8.70949388e-01 4.27386552e-01 4.78656031e-02 6.85867993e-03 8.34792200e-03 2.24325228e-02 9.94290531e-01 4.06580017e-04 6.36047218e-04 6.23860717e-01 6.35728121e-01 6.39643550e-01 6.44802570e-01 6.49532497e-01 6.52703583e-01 6.54518843e-01 6.55464649e-01 6.55291677e-01 6.53424025e-01 6.49769902e-01 6.44867957e-01 6.39483035e-01 6.34244323e-01 6.29652917e-01 6.26200497e-01 6.24399304e-01 6.24920368e-01 6.28911853e-01 6.38857305e-01 6.59291327e-01 6.99894905e-01 8.04632366e-01 9.14622247e-01 9.06104743e-01 1.98707357e-01 6.25507068e-03 1.25730515e-01 9.77205276e-01 8.65938375e-04 6.68240595e-04 5.81266642e-01 5.60111046e-01 5.68055093e-01 5.78925729e-01 5.92422724e-01 6.05680108e-01 6.17221892e-01 6.26323938e-01 6.32007480e-01 6.33535266e-01 6.31172001e-01 6.25968218e-01 6.19125545e-01 6.11606240e-01 6.04111016e-01 5.97168565e-01 5.91183126e-01 5.86484849e-01 5.83322346e-01 5.81716955e-01 5.80888331e-01 5.79010487e-01 5.83458722e-01 6.32071674e-01 7.23505914e-01 6.54616416e-01 4.98862743e-01 8.81267071e-01 9.78178680e-01 8.98732338e-04 8.09529447e-04 5.24539948e-01 4.47129965e-01 4.54411685e-01 4.73693252e-01 5.01479685e-01 5.32529414e-01 5.62088251e-01 5.86110234e-01 6.01817787e-01 6.08728647e-01 6.08394861e-01 6.03101194e-01 5.94884098e-01 5.85220993e-01 5.75133801e-01 5.65377355e-01 5.56568682e-01 5.49233139e-01 5.43683410e-01 5.39632201e-01 5.35419345e-01 5.26957750e-01 5.08479416e-01 4.80661958e-01 4.64240342e-01 4.94464755e-01 6.93488419e-01 9.42989111e-01 9.65085804e-01 9.63253144e-04 8.96503101e-04 4.60421711e-01 3.12556028e-01 3.05144221e-01 3.31169635e-01 3.78276378e-01 4.36216027e-01 4.94262844e-01 5.41542113e-01 5.71552694e-01 5.85195482e-01 5.87016523e-01 5.81495225e-01 5.71855307e-01 5.60156524e-01 5.47721326e-01 5.35513401e-01 5.24372339e-01 5.15083849e-01 5.08247137e-01 5.03977716e-01 5.01594245e-01 4.99360561e-01 4.94132489e-01 4.82913405e-01 4.80963141e-01 5.61231434e-01 8.14979613e-01 9.62837458e-01 9.10789371e-01 1.17417390e-03 1.01125694e-03 3.97484958e-01 1.91002518e-01 1.62578732e-01 1.83864594e-01 2.40816310e-01 3.27249318e-01 4.22377437e-01 5.00475705e-01 5.47694921e-01 5.68143427e-01 5.71560323e-01 5.65466642e-01 5.54401457e-01 5.40918708e-01 5.26516616e-01 5.12254953e-01 4.99113411e-01 4.88132626e-01 4.80364263e-01 4.76754993e-01 4.78180766e-01 4.85694975e-01 5.01272082e-01 5.30998468e-01 5.94405234e-01 7.37438500e-01 9.07154024e-01 9.64159906e-01 2.87206203e-01 1.42548536e-03 1.25124853e-03 3.46291691e-01 1.06065564e-01 6.88350722e-02 8.05200413e-02 1.28698945e-01 2.27744341e-01 3.60233277e-01 4.71858144e-01 5.35169899e-01 5.60427368e-01 5.64166903e-01 5.57087302e-01 5.44763327e-01 5.29981315e-01 5.14244437e-01 4.98616695e-01 4.84212667e-01 4.72472519e-01 4.65276569e-01 4.64968473e-01 4.74389285e-01 4.97110277e-01 5.38594127e-01 6.08508170e-01 7.17257500e-01 8.49102318e-01 9.37166274e-01 9.01245952e-01 1.94452796e-02 1.71208743e-03 1.47700636e-03 3.13389033e-01 5.65062277e-02 2.62419265e-02 3.17508914e-02 6.37528151e-02 1.59303755e-01 3.23372811e-01 4.64097142e-01 5.36109865e-01 5.61517954e-01 5.63706160e-01 5.55367529e-01 5.42305171e-01 5.27091622e-01 5.11054337e-01 4.95262802e-01 4.81093913e-01 4.70614672e-01 4.66851503e-01 4.73890185e-01 4.96594995e-01 5.39856672e-01 6.08163714e-01 7.03753173e-01 8.13271642e-01 8.96634161e-01 9.25624073e-01 4.35464948e-01 6.45200489e-03 2.29813345e-03 1.89919746e-03 2.98169106e-01 2.96534188e-02 1.18473237e-02 1.46668581e-02 3.56253199e-02 1.28266871e-01 3.23219568e-01 4.80713099e-01 5.48429668e-01 5.67473412e-01 5.66160619e-01 5.56838036e-01 5.44239044e-01 5.30109107e-01 5.15418887e-01 5.01353145e-01 4.89814192e-01 4.83733088e-01 4.87301081e-01 5.05998671e-01 5.45646071e-01 6.09270334e-01 6.93403363e-01 7.86902308e-01 8.64761353e-01 9.02412772e-01 7.99250722e-01 4.02496122e-02 3.94843612e-03 3.01986071e-03 3.09581915e-03 2.91699618e-01 1.56185795e-02 7.54225207e-03 9.30248294e-03 2.67575383e-02 1.33280650e-01 3.64832014e-01 5.15641212e-01 5.64746559e-01 5.72122693e-01 5.66459775e-01 5.57403266e-01 5.47320187e-01 5.36514401e-01 5.25433898e-01 5.15515447e-01 5.09477198e-01 5.11298895e-01 5.25991201e-01 5.59023559e-01 6.14232779e-01 6.88720167e-01 7.69161999e-01 8.39045048e-01 8.77611697e-01 8.50011289e-01 3.30495447e-01 1.14244027e-02 3.73199582e-03 3.47936992e-03 6.96197944e-03 2.85106272e-01 8.97448882e-03 5.96140511e-03 7.44394399e-03 2.81406883e-02 1.81177244e-01 4.41524714e-01 5.54044545e-01 5.74920714e-01 5.69320619e-01 5.60674369e-01 5.54222405e-01 5.49247980e-01 5.44321060e-01 5.39297760e-01 5.35922110e-01 5.37827134e-01 5.49980104e-01 5.77466786e-01 6.23577774e-01 6.87023342e-01 7.58613229e-01 8.21713209e-01 8.60817850e-01 8.50759149e-01 6.22056067e-01 4.79514599e-02 7.14539131e-03 4.79468890e-03 4.90960665e-03 3.24602053e-02 2.74613827e-01 5.97774237e-03 5.04561607e-03 6.90246886e-03 4.05460671e-02 2.87497789e-01 5.27005911e-01 5.79814851e-01 5.71135342e-01 5.55453777e-01 5.47290206e-01 5.46427369e-01 5.49024761e-01 5.52114964e-01 5.55069864e-01 5.59886217e-01 5.70858419e-01 5.93395591e-01 6.31634891e-01 6.85352623e-01 7.48194873e-01 8.08638871e-01 8.51277471e-01 8.56165648e-01 7.45631099e-01 2.10340008e-01 1.43620754e-02 6.60392269e-03 6.43863017e-03 9.66134388e-03 1.68407187e-01 2.50045866e-01 4.14517149e-03 4.18123836e-03 7.18828337e-03 7.84752965e-02 4.38923925e-01 5.89133739e-01 5.82753539e-01 5.50553620e-01 5.30588090e-01 5.27180731e-01 5.34577072e-01 5.46411335e-01 5.58711469e-01 5.70540965e-01 5.83960116e-01 6.03391469e-01 6.33870602e-01 6.77984416e-01 7.32897162e-01 7.90202022e-01 8.38831902e-01 8.63660932e-01 8.31304550e-01 5.60956240e-01 7.36444890e-02 1.18714301e-02 8.72776657e-03 1.06970770e-02 3.69667150e-02 3.38030368e-01 1.98081478e-01 2.79292231e-03 3.25218588e-03 8.72271787e-03 1.82090104e-01 5.71456730e-01 6.12184167e-01 5.60354352e-01 5.15353620e-01 4.97940958e-01 5.02619505e-01 5.19499600e-01 5.40964365e-01 5.62672615e-01 5.83372235e-01 6.04734659e-01 6.30666435e-01 6.65347695e-01 7.10207283e-01 7.61736751e-01 8.12169909e-01 8.51167738e-01 8.64081979e-01 8.04367900e-01 4.74585503e-01 7.90376440e-02 2.20163316e-02 2.24391390e-02 5.05766012e-02 1.72696292e-01 4.65360790e-01 1.21017620e-01 2.00524135e-03 2.41602189e-03 1.37606934e-02 3.76999706e-01 6.40598238e-01 5.95201433e-01 5.16708136e-01 4.71704394e-01 4.62333709e-01 4.75921780e-01 5.01255810e-01 5.31234682e-01 5.61781824e-01 5.91068149e-01 6.19585633e-01 6.49926901e-01 6.85283661e-01 7.26904094e-01 7.72295833e-01 8.15414131e-01 8.47390652e-01 8.53709102e-01 7.93981731e-01 5.45671105e-01 2.02107668e-01 1.18069269e-01 1.61673635e-01 3.01466644e-01 4.63158369e-01 5.78078806e-01 6.12669997e-02 1.59751973e-03 1.87606702e-03 3.48898768e-02 5.72098374e-01 6.45561337e-01 5.43957531e-01 4.61883366e-01 4.27957833e-01 4.28433090e-01 4.48409945e-01 4.78710383e-01 5.14540911e-01 5.52711308e-01 5.90575337e-01 6.26596093e-01 6.61023259e-01 6.95529938e-01 7.31643856e-01 7.68913627e-01 8.03932607e-01 8.29864860e-01 8.34984958e-01 7.95285106e-01 6.69648409e-01 5.06878078e-01 4.75145817e-01 5.66970706e-01 6.59316659e-01 7.15021968e-01 6.75261080e-01 3.63134257e-02 1.36893452e-03 1.56876235e-03 1.39131710e-01 6.74278498e-01 5.95264852e-01 4.75066274e-01 4.11476493e-01 3.93083602e-01 4.00061667e-01 4.20664191e-01 4.50471133e-01 4.88159090e-01 5.31889021e-01 5.78308940e-01 6.23491049e-01 6.64440989e-01 7.00123191e-01 7.31359839e-01 7.59611726e-01 7.85145581e-01 8.05253565e-01 8.13170552e-01 7.98554957e-01 7.56517410e-01 7.15586483e-01 7.17064738e-01 7.47233033e-01 7.72746205e-01 7.95006692e-01 7.24515855e-01 3.44686061e-02 1.26384583e-03 1.38555001e-03 4.16589260e-01 6.67334974e-01 5.17715693e-01 4.22521591e-01 3.84971380e-01 3.76289994e-01 3.80865186e-01 3.93620223e-01 4.15707350e-01 4.49057847e-01 4.93300349e-01 5.45299709e-01 5.99988997e-01 6.51802719e-01 6.96463287e-01 7.32280433e-01 7.60107815e-01 7.82052636e-01 7.99520135e-01 8.11456144e-01 8.14422905e-01 8.06764662e-01 7.94385076e-01 7.85696745e-01 7.82698750e-01 7.83409834e-01 7.92752862e-01 7.29845941e-01 9.02396590e-02 1.12016429e-03 1.30869006e-03 6.59077168e-01 6.18465364e-01 4.91130263e-01 4.27295417e-01 3.95132184e-01 3.74485075e-01 3.59787196e-01 3.53353858e-01 3.60291392e-01 3.84234905e-01 4.25963461e-01 4.83599633e-01 5.52711248e-01 6.26293957e-01 6.96002781e-01 7.54911244e-01 7.99677372e-01 8.30360353e-01 8.48694444e-01 8.56462359e-01 8.54692698e-01 8.43695939e-01 8.23706388e-01 7.96085536e-01 7.65606344e-01 7.40303636e-01 7.33946383e-01 7.05088913e-01 2.35896260e-01 2.05680169e-03 1.45921065e-03 8.98368001e-01 6.57372594e-01 6.12054527e-01 5.69255650e-01 5.31912863e-01 5.00340641e-01 4.74500000e-01 4.57041591e-01 4.52681333e-01 4.64387089e-01 4.91232425e-01 5.29315948e-01 5.73934495e-01 6.20948374e-01 6.66982412e-01 7.09171653e-01 7.44943798e-01 7.71997511e-01 7.88458347e-01 7.93116093e-01 7.85843909e-01 7.68268883e-01 7.43685126e-01 7.15398550e-01 6.86293006e-01 6.61253452e-01 6.45986736e-01 6.49233162e-01 
