# vtk DataFile Version 2.0
<<<<<<< HEAD:case1_nonlinear/results/best_results/2021-05-05_13-34-02/5_density.vtk
results/5_density.vtk, Created by Freefem++ 
=======
results/11_density.vtk, Created by Freefem++ 
>>>>>>> fdc4b708b550ed9a6f8afab791c893775292c55a:case1_nonlinear/results/2021-05-07_09-02-56/11_density.vtk
ASCII
DATASET UNSTRUCTURED_GRID
POINTS 961 float
0 0 0
0.033333333 0 0
0.066666667 0 0
0.1 0 0
0.13333333 0 0
0.16666667 0 0
0.2 0 0
0.23333333 0 0
0.26666667 0 0
0.3 0 0
0.33333333 0 0
0.36666667 0 0
0.4 0 0
0.43333333 0 0
0.46666667 0 0
0.5 0 0
0.53333333 0 0
0.56666667 0 0
0.6 0 0
0.63333333 0 0
0.66666667 0 0
0.7 0 0
0.73333333 0 0
0.76666667 0 0
0.8 0 0
0.83333333 0 0
0.86666667 0 0
0.9 0 0
0.93333333 0 0
0.96666667 0 0
1 0 0
0 0.033333333 0
0.033333333 0.033333333 0
0.066666667 0.033333333 0
0.1 0.033333333 0
0.13333333 0.033333333 0
0.16666667 0.033333333 0
0.2 0.033333333 0
0.23333333 0.033333333 0
0.26666667 0.033333333 0
0.3 0.033333333 0
0.33333333 0.033333333 0
0.36666667 0.033333333 0
0.4 0.033333333 0
0.43333333 0.033333333 0
0.46666667 0.033333333 0
0.5 0.033333333 0
0.53333333 0.033333333 0
0.56666667 0.033333333 0
0.6 0.033333333 0
0.63333333 0.033333333 0
0.66666667 0.033333333 0
0.7 0.033333333 0
0.73333333 0.033333333 0
0.76666667 0.033333333 0
0.8 0.033333333 0
0.83333333 0.033333333 0
0.86666667 0.033333333 0
0.9 0.033333333 0
0.93333333 0.033333333 0
0.96666667 0.033333333 0
1 0.033333333 0
0 0.066666667 0
0.033333333 0.066666667 0
0.066666667 0.066666667 0
0.1 0.066666667 0
0.13333333 0.066666667 0
0.16666667 0.066666667 0
0.2 0.066666667 0
0.23333333 0.066666667 0
0.26666667 0.066666667 0
0.3 0.066666667 0
0.33333333 0.066666667 0
0.36666667 0.066666667 0
0.4 0.066666667 0
0.43333333 0.066666667 0
0.46666667 0.066666667 0
0.5 0.066666667 0
0.53333333 0.066666667 0
0.56666667 0.066666667 0
0.6 0.066666667 0
0.63333333 0.066666667 0
0.66666667 0.066666667 0
0.7 0.066666667 0
0.73333333 0.066666667 0
0.76666667 0.066666667 0
0.8 0.066666667 0
0.83333333 0.066666667 0
0.86666667 0.066666667 0
0.9 0.066666667 0
0.93333333 0.066666667 0
0.96666667 0.066666667 0
1 0.066666667 0
0 0.1 0
0.033333333 0.1 0
0.066666667 0.1 0
0.1 0.1 0
0.13333333 0.1 0
0.16666667 0.1 0
0.2 0.1 0
0.23333333 0.1 0
0.26666667 0.1 0
0.3 0.1 0
0.33333333 0.1 0
0.36666667 0.1 0
0.4 0.1 0
0.43333333 0.1 0
0.46666667 0.1 0
0.5 0.1 0
0.53333333 0.1 0
0.56666667 0.1 0
0.6 0.1 0
0.63333333 0.1 0
0.66666667 0.1 0
0.7 0.1 0
0.73333333 0.1 0
0.76666667 0.1 0
0.8 0.1 0
0.83333333 0.1 0
0.86666667 0.1 0
0.9 0.1 0
0.93333333 0.1 0
0.96666667 0.1 0
1 0.1 0
0 0.13333333 0
0.033333333 0.13333333 0
0.066666667 0.13333333 0
0.1 0.13333333 0
0.13333333 0.13333333 0
0.16666667 0.13333333 0
0.2 0.13333333 0
0.23333333 0.13333333 0
0.26666667 0.13333333 0
0.3 0.13333333 0
0.33333333 0.13333333 0
0.36666667 0.13333333 0
0.4 0.13333333 0
0.43333333 0.13333333 0
0.46666667 0.13333333 0
0.5 0.13333333 0
0.53333333 0.13333333 0
0.56666667 0.13333333 0
0.6 0.13333333 0
0.63333333 0.13333333 0
0.66666667 0.13333333 0
0.7 0.13333333 0
0.73333333 0.13333333 0
0.76666667 0.13333333 0
0.8 0.13333333 0
0.83333333 0.13333333 0
0.86666667 0.13333333 0
0.9 0.13333333 0
0.93333333 0.13333333 0
0.96666667 0.13333333 0
1 0.13333333 0
0 0.16666667 0
0.033333333 0.16666667 0
0.066666667 0.16666667 0
0.1 0.16666667 0
0.13333333 0.16666667 0
0.16666667 0.16666667 0
0.2 0.16666667 0
0.23333333 0.16666667 0
0.26666667 0.16666667 0
0.3 0.16666667 0
0.33333333 0.16666667 0
0.36666667 0.16666667 0
0.4 0.16666667 0
0.43333333 0.16666667 0
0.46666667 0.16666667 0
0.5 0.16666667 0
0.53333333 0.16666667 0
0.56666667 0.16666667 0
0.6 0.16666667 0
0.63333333 0.16666667 0
0.66666667 0.16666667 0
0.7 0.16666667 0
0.73333333 0.16666667 0
0.76666667 0.16666667 0
0.8 0.16666667 0
0.83333333 0.16666667 0
0.86666667 0.16666667 0
0.9 0.16666667 0
0.93333333 0.16666667 0
0.96666667 0.16666667 0
1 0.16666667 0
0 0.2 0
0.033333333 0.2 0
0.066666667 0.2 0
0.1 0.2 0
0.13333333 0.2 0
0.16666667 0.2 0
0.2 0.2 0
0.23333333 0.2 0
0.26666667 0.2 0
0.3 0.2 0
0.33333333 0.2 0
0.36666667 0.2 0
0.4 0.2 0
0.43333333 0.2 0
0.46666667 0.2 0
0.5 0.2 0
0.53333333 0.2 0
0.56666667 0.2 0
0.6 0.2 0
0.63333333 0.2 0
0.66666667 0.2 0
0.7 0.2 0
0.73333333 0.2 0
0.76666667 0.2 0
0.8 0.2 0
0.83333333 0.2 0
0.86666667 0.2 0
0.9 0.2 0
0.93333333 0.2 0
0.96666667 0.2 0
1 0.2 0
0 0.23333333 0
0.033333333 0.23333333 0
0.066666667 0.23333333 0
0.1 0.23333333 0
0.13333333 0.23333333 0
0.16666667 0.23333333 0
0.2 0.23333333 0
0.23333333 0.23333333 0
0.26666667 0.23333333 0
0.3 0.23333333 0
0.33333333 0.23333333 0
0.36666667 0.23333333 0
0.4 0.23333333 0
0.43333333 0.23333333 0
0.46666667 0.23333333 0
0.5 0.23333333 0
0.53333333 0.23333333 0
0.56666667 0.23333333 0
0.6 0.23333333 0
0.63333333 0.23333333 0
0.66666667 0.23333333 0
0.7 0.23333333 0
0.73333333 0.23333333 0
0.76666667 0.23333333 0
0.8 0.23333333 0
0.83333333 0.23333333 0
0.86666667 0.23333333 0
0.9 0.23333333 0
0.93333333 0.23333333 0
0.96666667 0.23333333 0
1 0.23333333 0
0 0.26666667 0
0.033333333 0.26666667 0
0.066666667 0.26666667 0
0.1 0.26666667 0
0.13333333 0.26666667 0
0.16666667 0.26666667 0
0.2 0.26666667 0
0.23333333 0.26666667 0
0.26666667 0.26666667 0
0.3 0.26666667 0
0.33333333 0.26666667 0
0.36666667 0.26666667 0
0.4 0.26666667 0
0.43333333 0.26666667 0
0.46666667 0.26666667 0
0.5 0.26666667 0
0.53333333 0.26666667 0
0.56666667 0.26666667 0
0.6 0.26666667 0
0.63333333 0.26666667 0
0.66666667 0.26666667 0
0.7 0.26666667 0
0.73333333 0.26666667 0
0.76666667 0.26666667 0
0.8 0.26666667 0
0.83333333 0.26666667 0
0.86666667 0.26666667 0
0.9 0.26666667 0
0.93333333 0.26666667 0
0.96666667 0.26666667 0
1 0.26666667 0
0 0.3 0
0.033333333 0.3 0
0.066666667 0.3 0
0.1 0.3 0
0.13333333 0.3 0
0.16666667 0.3 0
0.2 0.3 0
0.23333333 0.3 0
0.26666667 0.3 0
0.3 0.3 0
0.33333333 0.3 0
0.36666667 0.3 0
0.4 0.3 0
0.43333333 0.3 0
0.46666667 0.3 0
0.5 0.3 0
0.53333333 0.3 0
0.56666667 0.3 0
0.6 0.3 0
0.63333333 0.3 0
0.66666667 0.3 0
0.7 0.3 0
0.73333333 0.3 0
0.76666667 0.3 0
0.8 0.3 0
0.83333333 0.3 0
0.86666667 0.3 0
0.9 0.3 0
0.93333333 0.3 0
0.96666667 0.3 0
1 0.3 0
0 0.33333333 0
0.033333333 0.33333333 0
0.066666667 0.33333333 0
0.1 0.33333333 0
0.13333333 0.33333333 0
0.16666667 0.33333333 0
0.2 0.33333333 0
0.23333333 0.33333333 0
0.26666667 0.33333333 0
0.3 0.33333333 0
0.33333333 0.33333333 0
0.36666667 0.33333333 0
0.4 0.33333333 0
0.43333333 0.33333333 0
0.46666667 0.33333333 0
0.5 0.33333333 0
0.53333333 0.33333333 0
0.56666667 0.33333333 0
0.6 0.33333333 0
0.63333333 0.33333333 0
0.66666667 0.33333333 0
0.7 0.33333333 0
0.73333333 0.33333333 0
0.76666667 0.33333333 0
0.8 0.33333333 0
0.83333333 0.33333333 0
0.86666667 0.33333333 0
0.9 0.33333333 0
0.93333333 0.33333333 0
0.96666667 0.33333333 0
1 0.33333333 0
0 0.36666667 0
0.033333333 0.36666667 0
0.066666667 0.36666667 0
0.1 0.36666667 0
0.13333333 0.36666667 0
0.16666667 0.36666667 0
0.2 0.36666667 0
0.23333333 0.36666667 0
0.26666667 0.36666667 0
0.3 0.36666667 0
0.33333333 0.36666667 0
0.36666667 0.36666667 0
0.4 0.36666667 0
0.43333333 0.36666667 0
0.46666667 0.36666667 0
0.5 0.36666667 0
0.53333333 0.36666667 0
0.56666667 0.36666667 0
0.6 0.36666667 0
0.63333333 0.36666667 0
0.66666667 0.36666667 0
0.7 0.36666667 0
0.73333333 0.36666667 0
0.76666667 0.36666667 0
0.8 0.36666667 0
0.83333333 0.36666667 0
0.86666667 0.36666667 0
0.9 0.36666667 0
0.93333333 0.36666667 0
0.96666667 0.36666667 0
1 0.36666667 0
0 0.4 0
0.033333333 0.4 0
0.066666667 0.4 0
0.1 0.4 0
0.13333333 0.4 0
0.16666667 0.4 0
0.2 0.4 0
0.23333333 0.4 0
0.26666667 0.4 0
0.3 0.4 0
0.33333333 0.4 0
0.36666667 0.4 0
0.4 0.4 0
0.43333333 0.4 0
0.46666667 0.4 0
0.5 0.4 0
0.53333333 0.4 0
0.56666667 0.4 0
0.6 0.4 0
0.63333333 0.4 0
0.66666667 0.4 0
0.7 0.4 0
0.73333333 0.4 0
0.76666667 0.4 0
0.8 0.4 0
0.83333333 0.4 0
0.86666667 0.4 0
0.9 0.4 0
0.93333333 0.4 0
0.96666667 0.4 0
1 0.4 0
0 0.43333333 0
0.033333333 0.43333333 0
0.066666667 0.43333333 0
0.1 0.43333333 0
0.13333333 0.43333333 0
0.16666667 0.43333333 0
0.2 0.43333333 0
0.23333333 0.43333333 0
0.26666667 0.43333333 0
0.3 0.43333333 0
0.33333333 0.43333333 0
0.36666667 0.43333333 0
0.4 0.43333333 0
0.43333333 0.43333333 0
0.46666667 0.43333333 0
0.5 0.43333333 0
0.53333333 0.43333333 0
0.56666667 0.43333333 0
0.6 0.43333333 0
0.63333333 0.43333333 0
0.66666667 0.43333333 0
0.7 0.43333333 0
0.73333333 0.43333333 0
0.76666667 0.43333333 0
0.8 0.43333333 0
0.83333333 0.43333333 0
0.86666667 0.43333333 0
0.9 0.43333333 0
0.93333333 0.43333333 0
0.96666667 0.43333333 0
1 0.43333333 0
0 0.46666667 0
0.033333333 0.46666667 0
0.066666667 0.46666667 0
0.1 0.46666667 0
0.13333333 0.46666667 0
0.16666667 0.46666667 0
0.2 0.46666667 0
0.23333333 0.46666667 0
0.26666667 0.46666667 0
0.3 0.46666667 0
0.33333333 0.46666667 0
0.36666667 0.46666667 0
0.4 0.46666667 0
0.43333333 0.46666667 0
0.46666667 0.46666667 0
0.5 0.46666667 0
0.53333333 0.46666667 0
0.56666667 0.46666667 0
0.6 0.46666667 0
0.63333333 0.46666667 0
0.66666667 0.46666667 0
0.7 0.46666667 0
0.73333333 0.46666667 0
0.76666667 0.46666667 0
0.8 0.46666667 0
0.83333333 0.46666667 0
0.86666667 0.46666667 0
0.9 0.46666667 0
0.93333333 0.46666667 0
0.96666667 0.46666667 0
1 0.46666667 0
0 0.5 0
0.033333333 0.5 0
0.066666667 0.5 0
0.1 0.5 0
0.13333333 0.5 0
0.16666667 0.5 0
0.2 0.5 0
0.23333333 0.5 0
0.26666667 0.5 0
0.3 0.5 0
0.33333333 0.5 0
0.36666667 0.5 0
0.4 0.5 0
0.43333333 0.5 0
0.46666667 0.5 0
0.5 0.5 0
0.53333333 0.5 0
0.56666667 0.5 0
0.6 0.5 0
0.63333333 0.5 0
0.66666667 0.5 0
0.7 0.5 0
0.73333333 0.5 0
0.76666667 0.5 0
0.8 0.5 0
0.83333333 0.5 0
0.86666667 0.5 0
0.9 0.5 0
0.93333333 0.5 0
0.96666667 0.5 0
1 0.5 0
0 0.53333333 0
0.033333333 0.53333333 0
0.066666667 0.53333333 0
0.1 0.53333333 0
0.13333333 0.53333333 0
0.16666667 0.53333333 0
0.2 0.53333333 0
0.23333333 0.53333333 0
0.26666667 0.53333333 0
0.3 0.53333333 0
0.33333333 0.53333333 0
0.36666667 0.53333333 0
0.4 0.53333333 0
[...]
CELL_DATA 1920
Scalars  Label int 1
LOOKUP_TABLE FreeFempp_table
0
0
0
0
0
0
0
0
0
0
0
0
0
0
0
0
0
0
0
0
0
0
0
0
0
0
0
0
0
0
0
0
0
0
0
0
0
0
0
0
0
0
0
0
0
0
0
0
0
0
0
0
0
0
0
0
0
0
0
0
0
0
0
0
0
0
0
0
0
0
0
0
0
0
0
0
0
0
0
0
0
0
0
0
0
0
0
0
0
0
0
0
0
0
0
0
0
0
0
0
0
0
0
0
0
0
0
0
0
0
0
0
0
0
0
0
0
0
0
0
0
0
0
0
0
0
0
0
0
0
0
0
0
0
0
0
0
0
0
0
0
0
0
0
0
0
0
0
0
0
0
0
0
0
0
0
0
0
0
0
0
0
0
0
0
0
0
0
0
0
0
0
0
0
0
0
0
0
0
0
0
0
0
0
0
0
0
0
0
0
0
0
0
0
0
0
0
0
0
0
0
0
0
0
0
0
0
0
0
0
0
0
0
0
0
0
0
0
0
0
0
0
0
0
0
0
0
0
0
0
0
0
0
0
0
0
0
0
0
0
0
0
0
0
0
0
0
0
0
0
0
0
0
0
0
0
0
0
0
0
0
0
0
0
0
0
0
0
0
0
0
0
0
0
0
0
0
0
0
0
0
0
0
0
0
0
0
0
0
0
0
0
0
0
0
0
0
0
0
0
0
0
0
0
0
0
0
0
0
0
0
0
0
0
0
0
0
0
0
0
0
0
0
0
0
0
0
0
0
0
0
0
0
0
0
0
0
0
0
0
0
0
0
0
0
0
0
0
0
0
0
0
0
0
0
0
0
0
0
0
0
0
0
0
0
0
0
0
0
0
0
0
0
0
0
0
0
0
0
0
0
0
0
0
0
0
0
0
0
0
0
0
0
0
0
0
0
0
0
0
0
0
0
0
0
0
0
0
0
0
0
0
0
0
0
0
0
0
0
0
0
0
0
0
0
0
0
0
0
0
0
0
0
0
0
0
0
0
0
0
0
0
0
0
0
0
0
0
0
0
0
0
0
0
0
0
0
0
0
0
0
0
0
0
0
0
0
0
0
0
0
0
0
0
0
0
0
0
0
0
0
0
0
0
0
0
0
0
0
0
0
0
0
0
0
0
0
0
0
0
0
0
0
0
0
0
0
0
0
0
0
0
0
0
0
0
0
0
0
0
0
0
0
0
0
0
0
0
0
0
0
0
0
0
0
0
0
0
0
0
0
0
0
0
0
0
0
0
0
0
0
0
0
0
0
0
0
0
0
0
0
0
0
0
0
0
0
0
0
0
0
0
0
0
0
0
0
0
0
0
0
0
0
0
0
0
0
0
0
0
0
0
0
0
0
0
0
0
0
0
0
0
0
0
0
0
0
0
0
0
0
0
0
0
0
0
0
0
0
0
0
0
0
0
0
0
0
0
0
0
0
0
0
0
0
0
0
0
0
0
0
0
0
0
0
0
0
0
0
0
0
0
0
0
0
0
0
0
0
0
0
0
0
0
0
0
0
0
0
0
0
0
0
0
0
0
0
0
0
0
0
0
0
0
0
0
0
0
0
0
0
0
0
0
0
0
0
0
0
0
0
0
0
0
0
0
0
0
0
0
0
0
0
0
0
0
0
0
0
0
0
0
0
0
0
0
0
0
0
0
0
0
0
0
0
0
0
0
0
0
0
0
0
0
0
0
0
0
0
0
0
0
0
0
0
0
0
0
0
0
0
0
0
0
0
0
0
0
0
0
0
0
0
0
0
0
0
0
0
0
0
0
0
0
0
0
0
0
0
0
0
0
0
0
0
0
0
0
0
0
0
0
0
0
0
0
0
0
0
0
0
0
0
0
0
0
0
0
0
0
0
0
0
0
0
0
0
0
0
0
0
0
0
0
0
0
0
0
0
0
0
0
0
0
0
0
0
0
0
0
0
0
0
0
0
0
0
0
0
0
0
0
0
0
0
0
0
0
0
0
0
0
0
0
0
0
0
0
0
0
0
0
0
0
0
0
0
0
0
0
0
0
0
0
0
0
0
0
0
0
0
0
0
0
0
0
0
0
0
0
0
0
0
0
0
0
0
0
0
0
0
0
0
0
0
0
0
0
0
0
0
0
0
0
0
0
0
0
0
0
0
0
0
0
0
0
0
0
0
0
0
0
0
0
0
0
0
0
0
0
0
0
0
0
0
0
0
0
0
0
0
0
0
0
0
0
0
0
0
0
0
0
0
0
0
0
0
0
0
0
0
0
0
0
0
0
0
0
0
0
0
0
0
0
0
0
0
0
0
0
0
0
0
0
0
0
0
0
0
0
0
0
0
0
0
0
0
0
0
0
0
0
0
0
0
0
0
0
0
0
0
0
0
0
0
0
0
0
0
0
0
0
0
0
0
0
0
0
0
0
0
0
0
0
0
0
0
0
0
0
0
0
0
0
0
0
0
0
0
0
0
0
0
0
0
0
0
0
0
0
0
0
0
0
0
0
0
0
0
0
0
0
0
0
0
0
0
0
0
0
0
0
0
0
0
0
0
0
0
0
0
0
0
0
0
0
0
0
0
0
0
0
0
0
0
0
0
0
0
0
0
0
0
0
0
0
0
0
0
0
0
0
0
0
0
0
0
0
0
0
0
0
0
0
0
0
0
0
0
0
0
0
0
0
0
0
0
0
0
0
0
0
0
0
0
0
0
0
0
0
0
0
0
0
0
0
0
0
0
0
0
0
0
0
0
0
0
0
0
0
0
0
0
0
0
0
0
0
0
0
0
0
0
0
0
0
0
0
0
0
0
0
0
0
0
0
0
0
0
0
0
0
0
0
0
0
0
0
0
0
0
0
0
0
0
0
0
0
0
0
0
0
0
0
0
0
0
0
0
0
0
0
0
0
0
0
0
0
0
0
0
0
0
0
0
0
0
0
0
0
0
0
0
0
0
0
0
0
0
0
0
0
0
0
0
0
0
0
0
0
0
0
0
0
0
0
0
0
0
0
0
0
0
0
0
0
0
0
0
0
0
0
0
0
0
0
0
0
0
0
0
0
0
0
0
0
0
0
0
0
0
0
0
0
0
0
0
0
0
0
0
0
0
0
0
0
0
0
0
0
0
0
0
0
0
0
0
0
0
0
0
0
0
0
0
0
0
0
0
0
0
0
0
0
0
0
0
0
0
0
0
0
0
0
0
0
0
0
0
0
0
0
0
0
0
0
0
0
0
0
0
0
0
0
0
0
0
0
0
0
0
0
0
0
0
0
0
0
0
0
0
0
0
0
0
0
0
0
0
0
0
0
0
0
0
0
0
0
0
0
0
0
0
0
0
0
0
0
0
0
0
0
0
0
0
0
0
0
0
0
0
0
0
0
0
0
0
0
0
0
0
0
0
0
0
0
0
0
0
0
0
0
0
0
0
0
0
0
0
0
0
0
0
0
0
0
0
0
0
0
0
0
0
0
0
0
0
0
0
0
0
0
0
0
0
0
0
0
0
0
0
0
0
0
0
0
0
0
0
0
0
0
0
0
0
0
0
0
0
0
0
0
0
0
0
0
0
0
0
0
0
0
0
0
0
0
0
0
0
0
0
0
0
0
0
0
0
0
0
0
0
0
0
0
0
0
0
0
0
0
0
0
0
0
0
0
0
0
0
0
0
0
0
0
0
0
0
0
0
0
0
0
0
0
0
0
0
0
0
0
0
0
0
0
0
0
0
0
0
0
0
0
0
0
0
0
0
0
0
0
0
0
0
0
0
0
0
0
0
0
0
0
0
0
0
0
0
0
0
0
0
0
0
0
0
0
0
0
0
0
0
0
0
0
0
0
0
0
0
0
0
0
0
0
0
0
0
0
0
0
0
0
0
0
0
0
0
0
0
0
0
0
0
0
0
0
0
0
0
0
0
0
0
0
0
0
0
0
0
0
0
0
0
0
0
0
0
0
0
0
0
0
0
0
0
0
0
0
0
0
0
0
0
0
0
0
0
0
0
0
0
0
0
0
0
0
0
0
0
0
0
0
0
0
0
0
0
0
0
0
0
0
0
0
0
0
0
0
0
0
0
0
0
0
0
0
0
0
0
0
1
1
1
1
1
1
1
1
1
1
1
1
1
1
1
1
1
1
1
1
1
1
1
1
1
1
1
1
1
1
2
2
2
2
2
2
2
2
2
2
2
2
2
2
2
2
2
2
2
2
2
2
2
2
2
2
2
2
2
2
3
3
3
3
3
3
3
3
3
3
3
3
3
3
3
3
3
3
3
3
3
3
3
3
3
3
3
3
3
3
4
4
4
4
4
4
4
4
4
4
4
4
4
4
4
4
4
4
4
4
4
4
4
4
4
4
4
4
4
4

LOOKUP_TABLE FreeFempp_table 5
1.00000000 0.00000000 0.00000000 1.00000000
1.00000000 1.00000000 0.00000000 1.00000000
1.00000000 0.00000000 1.00000000 1.00000000
0.00000000 1.00000000 0.00000000 1.00000000
0.00000000 1.00000000 1.00000000 1.00000000

POINT_DATA 961
FIELD FieldData 1
Density 1 961 float
<<<<<<< HEAD:case1_nonlinear/results/best_results/2021-05-05_13-34-02/5_density.vtk
5.53445399e-01 4.92243737e-01 4.86974984e-01 4.84850287e-01 4.83294815e-01 4.81332868e-01 4.80742335e-01 4.82605606e-01 4.75721240e-01 3.41228634e-01 6.52632257e-03 9.36604105e-04 1.35349215e-03 3.27170417e-02 9.66810048e-01 8.28656197e-01 7.69982278e-01 7.74146259e-01 8.28039765e-01 9.00610209e-01 9.16146517e-01 9.08936977e-01 8.73923361e-01 8.55442703e-01 8.37877691e-01 8.22193444e-01 8.10026765e-01 7.99467266e-01 7.88722634e-01 7.98250616e-01 6.96291685e-01 5.03712237e-01 3.76673490e-01 3.69696766e-01 3.68022263e-01 3.66346717e-01 3.64619255e-01 3.61264408e-01 3.47894400e-01 2.97273576e-01 1.18099123e-01 4.12371056e-03 8.18314904e-04 7.25839229e-04 7.64007680e-03 9.93278921e-01 9.85379815e-01 9.67092037e-01 9.22508895e-01 9.15101111e-01 9.57776546e-01 9.84066427e-01 9.86638486e-01 9.80986118e-01 9.63880658e-01 9.46865559e-01 9.33397710e-01 9.22365665e-01 9.13093925e-01 9.03795183e-01 9.05781329e-01 8.04570615e-01 1.80596253e-04 2.07209639e-04 1.96748966e-04 1.90215258e-04 1.92040417e-04 1.93937885e-04 1.96581619e-04 2.11565901e-04 2.96348415e-04 8.85471934e-04 1.85381889e-03 9.85822990e-04 9.26009845e-04 7.23601831e-03 9.88023281e-01 9.86707032e-01 9.59067583e-01 9.15238082e-01 6.25333667e-01 8.96087438e-02 1.43440580e-02 1.50090773e-02 6.89396083e-01 9.44545805e-01 9.14279878e-01 8.93118203e-01 8.83244395e-01 8.76006663e-01 8.69167984e-01 8.67839396e-01 7.75824070e-01 1.41816810e-04 1.75793160e-04 2.05186429e-04 1.91303843e-04 1.90399995e-04 1.92780775e-04 1.94783774e-04 1.92406282e-04 2.00208669e-04 2.25134354e-04 3.36281431e-04 7.36015034e-04 1.28107506e-03 1.06846029e-02 9.62335408e-01 9.88650143e-01 9.43412006e-01 7.09632754e-01 2.26340175e-01 9.48942546e-03 2.49606767e-03 1.71922625e-03 1.53431902e-03 6.05469570e-03 7.01547980e-01 7.49226213e-01 7.48239517e-01 7.65547574e-01 7.57813931e-01 7.42164969e-01 7.11227894e-01 9.42157805e-01 9.70709622e-01 9.58764017e-01 8.61194491e-01 4.63117719e-01 3.76189470e-01 3.44006300e-01 2.48831496e-01 8.39133514e-04 2.75306375e-04 2.39368994e-04 2.63713562e-04 6.82713930e-04 1.01962406e-02 6.84776664e-01 9.84315038e-01 9.79269028e-01 6.58357918e-01 1.02079526e-01 1.08329598e-02 8.59283842e-04 1.80761982e-03 1.20810547e-03 1.07412040e-03 2.07824493e-03 5.64226151e-01 5.54998457e-01 5.51188767e-01 5.62581420e-01 5.97874880e-01 6.44445896e-01 9.62826610e-01 9.84389424e-01 9.77066338e-01 9.81266379e-01 9.50948477e-01 8.13461602e-01 4.66183096e-01 3.53716165e-01 2.89329290e-01 1.26337782e-01 4.95103712e-04 2.56520754e-04 2.51190446e-04 1.20927161e-03 9.15421620e-02 8.82603288e-01 9.89322305e-01 9.23916459e-01 9.54208374e-02 1.78659000e-02 9.01781116e-03 1.22333001e-02 1.91003457e-01 1.54200522e-03 9.68658482e-04 1.94805907e-03 4.37113374e-01 3.93386185e-01 4.41728145e-01 5.37792385e-01 5.96499026e-01 9.55451906e-01 9.83105838e-01 9.78109121e-01 9.82134402e-01 9.86879826e-01 9.73616958e-01 9.24822450e-01 7.68524170e-01 5.45196354e-01 3.92607063e-01 3.10101151e-01 5.48273092e-04 2.36621636e-04 2.59839144e-04 6.73172576e-03 3.85849148e-01 9.51841593e-01 9.87373650e-01 7.26010799e-01 3.06445193e-02 2.58612521e-02 8.72307867e-02 2.61689335e-01 4.90669727e-01 1.15056348e-03 6.83108461e-04 4.94018197e-03 4.06766087e-01 3.58293355e-01 3.84656340e-01 5.51352680e-01 9.15512502e-01 9.83569086e-01 9.72679257e-01 9.73262966e-01 9.76281464e-01 9.89101529e-01 9.83835399e-01 9.68383908e-01 9.23815310e-01 7.84278810e-01 5.62294126e-01 2.29209021e-01 3.99920798e-04 2.31556493e-04 3.14803765e-04 5.71642369e-02 5.63832641e-01 9.73900080e-01 9.84230280e-01 5.21352112e-01 5.10620177e-02 5.58113679e-02 2.22687453e-01 4.42761779e-01 4.92480099e-01 6.69432920e-04 8.16555286e-04 3.45309883e-01 2.90900141e-01 2.53871828e-01 4.48850453e-01 8.89427960e-01 9.70797539e-01 9.59240913e-01 9.71229494e-01 9.70836401e-01 9.71965611e-01 9.88675177e-01 9.88725066e-01 9.85872805e-01 9.73479450e-01 9.13861632e-01 7.18517423e-01 2.33451370e-02 3.11424024e-04 2.41127462e-04 4.10345529e-04 1.33394808e-01 7.51958191e-01 9.86363292e-01 9.87916768e-01 5.35352588e-01 9.80432034e-02 1.72046646e-01 4.55548048e-01 5.63639402e-01 1.30410190e-03 7.35413516e-04 3.03993747e-03 5.84037192e-02 1.03869669e-01 2.76368171e-01 8.55973601e-01 9.58049357e-01 9.09927189e-01 8.99567366e-01 9.18948174e-01 9.24273252e-01 9.58826900e-01 9.85809803e-01 9.91822124e-01 9.92352307e-01 9.88209784e-01 9.66457665e-01 7.81466365e-01 5.35269920e-03 2.85071874e-04 2.57269683e-04 4.85122990e-04 3.32610942e-02 7.42274284e-01 9.93389547e-01 9.91579235e-01 5.57295322e-01 2.02119112e-01 3.80693287e-01 7.76071131e-01 5.80000412e-03 7.70560117e-04 7.98792404e-04 1.11787603e-03 1.04042273e-02 7.95582905e-02 8.13096702e-01 9.32914495e-01 8.31717610e-01 4.67105448e-01 1.81860223e-01 3.58077407e-01 6.79666340e-01 9.25918400e-01 9.84815001e-01 9.93205190e-01 9.94498968e-01 9.92854238e-01 9.82881844e-01 4.16577160e-01 2.23291293e-03 2.98469502e-04 2.85128248e-04 5.06027485e-04 6.78325305e-03 2.66833067e-01 9.93941963e-01 9.92026508e-01 6.14666939e-01 2.26292044e-01 7.58915663e-01 6.56812564e-02 2.82709114e-03 1.12404441e-03 7.44430639e-04 7.35454785e-04 5.79097448e-03 7.78137982e-01 9.01723802e-01 7.66342819e-01 1.25435054e-01 7.07255257e-03 1.50591843e-02 8.96651596e-02 5.77447832e-01 9.39971387e-01 9.85522449e-01 9.92973268e-01 9.95048881e-01 9.94899929e-01 9.87149954e-01 1.09099194e-01 1.72019133e-03 3.60658596e-04 3.36599827e-04 4.95857967e-04 2.03743298e-03 6.50025159e-02 9.91575360e-01 9.90954399e-01 6.67750597e-01 4.35867548e-01 9.13601637e-01 7.32405530e-03 5.29657956e-03 2.46658386e-03 6.82402926e-04 1.12949486e-03 7.57463992e-01 8.77865791e-01 7.72676408e-01 9.88734886e-02 4.27377317e-03 5.48577914e-03 1.81306377e-02 4.95878100e-01 9.01040554e-01 9.48997498e-01 9.74302769e-01 9.90809083e-01 9.95324969e-01 9.95986938e-01 9.83403444e-01 4.63887937e-02 2.12480919e-03 5.27785800e-04 4.20088356e-04 5.00027207e-04 9.93979513e-04 1.30074909e-02 9.86586094e-01 9.93188500e-01 8.01018178e-01 9.26253736e-01 1.05352160e-02 7.47276377e-03 3.46193872e-02 8.69893120e-04 1.04054296e-03 7.46218085e-01 8.61079395e-01 7.98116982e-01 1.79556012e-01 2.88647250e-03 3.11959838e-03 1.51780052e-02 7.99844146e-01 9.41980660e-01 8.15392911e-01 5.20119965e-01 9.18697894e-01 9.89036441e-01 9.95911837e-01 9.96749997e-01 9.80095565e-01 3.65750827e-02 3.71282827e-03 1.03042938e-03 6.06468995e-04 5.66716946e-04 7.49847270e-04 3.53530818e-03 9.30208266e-01 9.79682982e-01 9.87172723e-01 1.80062037e-02 7.91902095e-03 3.25886346e-02 8.25943542e-04 9.29307309e-04 7.39410102e-01 8.46598446e-01 8.10982645e-01 3.00832599e-01 2.32457556e-03 2.12714216e-03 1.13968430e-02 9.57917035e-01 9.44914341e-01 3.57181400e-01 7.15392362e-03 7.20467269e-02 8.92120063e-01 9.90866601e-01 9.96468127e-01 9.97151136e-01 9.62239265e-01 5.64238913e-02 1.02446275e-02 3.30685498e-03 1.28251221e-03 7.76235131e-04 9.21174127e-04 1.86577591e-03 6.73436075e-02 9.92309809e-01 1.37083754e-01 1.28416009e-02 3.22841853e-02 7.46720121e-04 8.16136773e-04 7.34280884e-01 8.32765460e-01 8.12803268e-01 4.17867959e-01 2.13580136e-03 1.72561104e-03 7.16636190e-03 9.80812073e-01 9.02880430e-01 7.95630291e-02 5.24487440e-03 6.76072715e-03 1.44508258e-01 9.56479788e-01 9.92907703e-01 9.96659815e-01 9.97173965e-01 9.29866970e-01 1.15474954e-01 4.22922708e-02 2.33281087e-02 6.91064633e-03 1.70534302e-03 1.41133019e-03 1.56322483e-03 6.06959641e-01 9.91509497e-01 6.54169023e-02 7.18995109e-02 7.08826643e-04 7.39397772e-04 7.29206145e-01 8.19339514e-01 8.08620393e-01 5.10063708e-01 2.13568425e-03 1.54110196e-03 4.87095583e-03 9.82376277e-01 8.21729481e-01 2.55034976e-02 4.95685032e-03 3.09540634e-03 1.42006800e-02 5.85063040e-01 9.78052318e-01 9.93353784e-01 9.96462584e-01 9.96576130e-01 9.42571461e-01 2.96130180e-01 1.35504946e-01 1.17402323e-01 5.93429580e-02 1.09271212e-02 1.02506485e-03 5.35855722e-03 9.87208664e-01 7.63960421e-01 2.76216596e-01 7.28615501e-04 7.12756824e-04 7.23121762e-01 8.05547714e-01 8.01795840e-01 5.75293243e-01 2.28284253e-03 1.44113007e-03 3.63724981e-03 9.76296842e-01 7.66611636e-01 1.67984329e-02 5.02414629e-03 1.75663061e-03 2.32857955e-03 5.50229661e-02 8.24799180e-01 9.82597113e-01 9.93012309e-01 9.95694041e-01 9.95027244e-01 9.56224561e-01 6.63567066e-01 4.59063619e-01 4.62372512e-01 3.40167165e-01 2.59152353e-01 8.92256916e-01 9.88926351e-01 9.34940100e-01 3.27906966e-01 8.15951265e-04 7.47461279e-04 7.15224564e-01 7.90089011e-01 7.94512451e-01 6.24682784e-01 2.67311046e-03 1.36741670e-03 2.85268086e-03 9.56873178e-01 7.61112630e-01 2.21594479e-02 6.97057834e-03 1.56106602e-03 9.62189399e-04 2.74833362e-03 1.48272216e-01 8.64046991e-01 9.83655691e-01 9.92241144e-01 9.93973792e-01 9.90949392e-01 9.62071955e-01 8.51957440e-01 7.91660130e-01 8.35670412e-01 9.12621737e-01 9.74920034e-01 9.91353869e-01 9.46583867e-01 2.83007585e-02 9.90718603e-04 8.40039691e-04 7.05357850e-01 7.71721661e-01 7.87950277e-01 6.70464635e-01 3.68551491e-03 1.27494952e-03 2.24056933e-03 8.97517622e-01 8.04356813e-01 5.19273058e-02 1.51737668e-02 3.03879497e-03 7.97967892e-04 7.32614018e-04 5.27586415e-03 2.52402276e-01 8.70373428e-01 9.83153462e-01 9.91151273e-01 9.91310775e-01 9.83375549e-01 9.46587801e-01 8.81748915e-01 8.79841268e-01 9.46650624e-01 9.85787332e-01 9.91358101e-01 7.39547014e-01 5.20220120e-03 1.42858271e-03 1.11291732e-03 6.94397748e-01 7.49846876e-01 7.80217111e-01 7.20650613e-01 6.84738345e-03 1.15594466e-03 1.70686422e-03 7.47114301e-01 8.23086023e-01 1.87561363e-01 4.02190723e-02 1.54997418e-02 1.32662838e-03 5.49370365e-04 8.03200761e-04 1.49485683e-02 3.58463496e-01 8.70845973e-01 9.80737507e-01 9.89642382e-01 9.89371419e-01 9.82163310e-01 9.64329839e-01 9.50904489e-01 9.66542304e-01 9.87284303e-01 9.56070006e-01 1.74236037e-02 2.99847312e-03 2.17913045e-03 2.17143726e-03 6.83364213e-01 7.26584554e-01 7.64074206e-01 7.57352471e-01 2.33775489e-02 1.08953263e-03 1.31831376e-03 5.11089265e-01 7.77964175e-01 4.80535060e-01 1.40571848e-01 5.88750914e-02 7.50772608e-03 6.57720375e-04 4.67422331e-04 1.43752526e-03 3.59861702e-02 4.66308475e-01 8.66333783e-01 9.74852860e-01 9.88000512e-01 9.90005255e-01 9.88845110e-01 9.86610830e-01 9.83142018e-01 9.42705095e-01 1.03541397e-01 4.86308755e-03 3.57120903e-03 3.49884899e-03 8.35124031e-03 6.71460032e-01 7.02639401e-01 7.43343532e-01 7.60040760e-01 2.22589761e-01 1.18262845e-03 1.14171021e-03 2.45650724e-01 6.63470984e-01 6.51051402e-01 4.21904802e-01 1.80202171e-01 3.55049297e-02 1.73166813e-03 4.42447956e-04 5.29568235e-04 5.06389560e-03 7.93794990e-02 5.36949933e-01 8.44502628e-01 9.63279307e-01 9.86961305e-01 9.92174327e-01 9.93575573e-01 9.92462993e-01 9.71868098e-01 2.48728454e-01 4.33127489e-03 4.43258137e-03 7.50330044e-03 9.25357789e-02 6.57375455e-01 6.75529540e-01 7.23018467e-01 7.54232049e-01 5.11724889e-01 1.57769199e-03 1.14906544e-03 5.06135374e-02 5.05523622e-01 6.44465506e-01 6.86063468e-01 4.86298203e-01 1.14125557e-01 8.09536967e-03 6.05748384e-04 3.87697917e-04 9.83137870e-04 1.42985368e-02 1.90484494e-01 5.55229127e-01 7.99776375e-01 9.42999184e-01 9.83115733e-01 9.92009938e-01 9.94105220e-01 9.92544413e-01 9.75552082e-01 9.10499811e-01 8.73246789e-01 9.27496672e-01 7.54601538e-01 6.41224921e-01 6.42858922e-01 6.99364662e-01 7.57047832e-01 6.29708588e-01 3.01243924e-03 1.37642655e-03 8.15903954e-03 3.45098376e-01 5.36938131e-01 7.63261259e-01 7.87143409e-01 3.86778176e-01 2.71280408e-02 1.48012512e-03 3.82111990e-04 3.83877137e-04 3.37093393e-03 4.57067527e-02 3.83985549e-01 5.85717440e-01 7.41670549e-01 8.91102016e-01 9.55922484e-01 9.78905737e-01 9.87070858e-01 9.89056766e-01 9.88452137e-01 9.87033367e-01 9.86106753e-01 9.39021766e-01 6.24830127e-01 6.05631411e-01 6.63173378e-01 7.58577108e-01 7.26197422e-01 8.17347784e-03 1.94694835e-03 4.09608148e-03 1.94211006e-01 4.08130586e-01 7.50245035e-01 8.89028430e-01 8.37734640e-01 1.02686249e-01 5.79418940e-03 6.05298730e-04 2.86806433e-04 4.17468167e-04 1.04139931e-02 2.13957831e-01 4.68818247e-01 5.09004831e-01 5.49308300e-01 6.60518408e-01 7.69603193e-01 8.40873480e-01 8.77409041e-01 9.03533399e-01 9.25190747e-01 9.23794091e-01 8.46147656e-01 6.10605121e-01 5.69441378e-01 6.13049388e-01 7.44420171e-01 8.42912912e-01 2.79415045e-02 2.95321038e-03 2.86365743e-03 6.84441552e-02 2.99924880e-01 6.92187607e-01 9.14258599e-01 9.42971706e-01 6.58502042e-01 1.58369821e-02 1.25131547e-03 3.86032450e-04 2.77652434e-04 7.73862994e-04 1.01326734e-01 2.12248504e-01 2.56591529e-01 2.80484259e-01 3.01567107e-01 3.36344570e-01 4.36244696e-01 5.21547794e-01 5.80517352e-01 6.46792710e-01 6.05645776e-01 6.28040612e-01 6.04523242e-01 5.43878317e-01 5.66289663e-01 6.74190640e-01 8.42093527e-01 1.37314558e-01 6.29140902e-03 2.72704754e-03 9.34187975e-03 1.51962459e-01 5.30155420e-01 8.68395746e-01 9.14853930e-01 9.46791232e-01 3.90892416e-01 7.01853167e-03 4.74882923e-04 2.50913610e-04 3.33440112e-04 3.78560275e-02 9.52978954e-02 1.27815247e-01 2.15917349e-01 2.42220119e-01 2.31705561e-01 3.35672110e-01 4.30454284e-01 3.47215623e-01 3.68144870e-01 3.86302650e-01 4.37382787e-01 6.25597775e-01 5.57979345e-01 5.49424410e-01 6.15745544e-01 8.26908052e-01 3.50802779e-01 9.20613036e-02 5.59028471e-03 5.92879625e-03 3.02909426e-02 3.34686816e-01 6.86029613e-01 7.93746650e-01 8.83715510e-01 9.45003211e-01 5.06418347e-01 7.37337861e-03 2.41779242e-04 1.94973996e-04 6.48365472e-04 6.12671562e-02 1.73112094e-01 3.29608381e-01 3.81968677e-01 3.15716803e-01 4.36518222e-01 6.42953336e-01 3.39008272e-01 1.42633259e-01 2.44612709e-01 4.32510793e-01 7.12013066e-01 6.93649173e-01 6.88620985e-01 6.95067525e-01 7.58509576e-01 6.46571815e-01 4.69077319e-01 2.46352687e-01 1.53189348e-02 2.40650736e-02 3.48111480e-01 7.05390453e-01 7.20898032e-01 7.39191175e-01 8.41160655e-01 9.07355130e-01 7.38245904e-01 2.04640776e-02 1.79067065e-04 1.57167276e-04 3.05353967e-03 3.35491598e-01 5.78212082e-01 6.00007534e-01 5.45481622e-01 5.28204858e-01 6.09124064e-01 3.14860314e-01 5.72291389e-02 5.35899699e-02 3.98542702e-01 7.05878019e-01 7.56738424e-01 7.65466630e-01 7.91895568e-01 8.00918877e-01 8.97283733e-01 3.77711594e-01 5.11919618e-01 8.12191606e-01 5.88832796e-01 7.31767237e-01 7.58807480e-01 7.62706339e-01 7.48040140e-01 7.26029575e-01 6.85531437e-01 6.42103851e-01 7.90199339e-01 9.98122334e-01 1.62935743e-04 1.92127933e-04 5.36448121e-01 7.15556145e-01 7.41537869e-01 6.86576068e-01 5.81726909e-01 4.86469001e-01 3.51254553e-01 2.59363890e-01 1.09912694e-01 3.43697578e-01 
=======