# vtk DataFile Version 2.0
results/6_density.vtk, Created by Freefem++ 
ASCII
DATASET UNSTRUCTURED_GRID
POINTS 961 float
0 0 0
0.033333333 0 0
0.066666667 0 0
0.1 0 0
0.13333333 0 0
0.16666667 0 0
0.2 0 0
0.23333333 0 0
0.26666667 0 0
0.3 0 0
0.33333333 0 0
0.36666667 0 0
0.4 0 0
0.43333333 0 0
0.46666667 0 0
0.5 0 0
0.53333333 0 0
0.56666667 0 0
0.6 0 0
0.63333333 0 0
0.66666667 0 0
0.7 0 0
0.73333333 0 0
0.76666667 0 0
0.8 0 0
0.83333333 0 0
0.86666667 0 0
0.9 0 0
0.93333333 0 0
0.96666667 0 0
1 0 0
0 0.033333333 0
0.033333333 0.033333333 0
0.066666667 0.033333333 0
0.1 0.033333333 0
0.13333333 0.033333333 0
0.16666667 0.033333333 0
0.2 0.033333333 0
0.23333333 0.033333333 0
0.26666667 0.033333333 0
0.3 0.033333333 0
0.33333333 0.033333333 0
0.36666667 0.033333333 0
0.4 0.033333333 0
0.43333333 0.033333333 0
0.46666667 0.033333333 0
0.5 0.033333333 0
0.53333333 0.033333333 0
0.56666667 0.033333333 0
0.6 0.033333333 0
0.63333333 0.033333333 0
0.66666667 0.033333333 0
0.7 0.033333333 0
0.73333333 0.033333333 0
0.76666667 0.033333333 0
0.8 0.033333333 0
0.83333333 0.033333333 0
0.86666667 0.033333333 0
0.9 0.033333333 0
0.93333333 0.033333333 0
0.96666667 0.033333333 0
1 0.033333333 0
0 0.066666667 0
0.033333333 0.066666667 0
0.066666667 0.066666667 0
0.1 0.066666667 0
0.13333333 0.066666667 0
0.16666667 0.066666667 0
0.2 0.066666667 0
0.23333333 0.066666667 0
0.26666667 0.066666667 0
0.3 0.066666667 0
0.33333333 0.066666667 0
0.36666667 0.066666667 0
0.4 0.066666667 0
0.43333333 0.066666667 0
0.46666667 0.066666667 0
0.5 0.066666667 0
0.53333333 0.066666667 0
0.56666667 0.066666667 0
0.6 0.066666667 0
0.63333333 0.066666667 0
0.66666667 0.066666667 0
0.7 0.066666667 0
0.73333333 0.066666667 0
0.76666667 0.066666667 0
0.8 0.066666667 0
0.83333333 0.066666667 0
0.86666667 0.066666667 0
0.9 0.066666667 0
0.93333333 0.066666667 0
0.96666667 0.066666667 0
1 0.066666667 0
0 0.1 0
0.033333333 0.1 0
0.066666667 0.1 0
0.1 0.1 0
0.13333333 0.1 0
0.16666667 0.1 0
0.2 0.1 0
0.23333333 0.1 0
0.26666667 0.1 0
0.3 0.1 0
0.33333333 0.1 0
0.36666667 0.1 0
0.4 0.1 0
0.43333333 0.1 0
0.46666667 0.1 0
0.5 0.1 0
0.53333333 0.1 0
0.56666667 0.1 0
0.6 0.1 0
0.63333333 0.1 0
0.66666667 0.1 0
0.7 0.1 0
0.73333333 0.1 0
0.76666667 0.1 0
0.8 0.1 0
0.83333333 0.1 0
0.86666667 0.1 0
0.9 0.1 0
0.93333333 0.1 0
0.96666667 0.1 0
1 0.1 0
0 0.13333333 0
0.033333333 0.13333333 0
0.066666667 0.13333333 0
0.1 0.13333333 0
0.13333333 0.13333333 0
0.16666667 0.13333333 0
0.2 0.13333333 0
0.23333333 0.13333333 0
0.26666667 0.13333333 0
0.3 0.13333333 0
0.33333333 0.13333333 0
0.36666667 0.13333333 0
0.4 0.13333333 0
0.43333333 0.13333333 0
0.46666667 0.13333333 0
0.5 0.13333333 0
0.53333333 0.13333333 0
0.56666667 0.13333333 0
0.6 0.13333333 0
0.63333333 0.13333333 0
0.66666667 0.13333333 0
0.7 0.13333333 0
0.73333333 0.13333333 0
0.76666667 0.13333333 0
0.8 0.13333333 0
0.83333333 0.13333333 0
0.86666667 0.13333333 0
0.9 0.13333333 0
0.93333333 0.13333333 0
0.96666667 0.13333333 0
1 0.13333333 0
0 0.16666667 0
0.033333333 0.16666667 0
0.066666667 0.16666667 0
0.1 0.16666667 0
0.13333333 0.16666667 0
0.16666667 0.16666667 0
0.2 0.16666667 0
0.23333333 0.16666667 0
0.26666667 0.16666667 0
0.3 0.16666667 0
0.33333333 0.16666667 0
0.36666667 0.16666667 0
0.4 0.16666667 0
0.43333333 0.16666667 0
0.46666667 0.16666667 0
0.5 0.16666667 0
0.53333333 0.16666667 0
0.56666667 0.16666667 0
0.6 0.16666667 0
0.63333333 0.16666667 0
0.66666667 0.16666667 0
0.7 0.16666667 0
0.73333333 0.16666667 0
0.76666667 0.16666667 0
0.8 0.16666667 0
0.83333333 0.16666667 0
0.86666667 0.16666667 0
0.9 0.16666667 0
0.93333333 0.16666667 0
0.96666667 0.16666667 0
1 0.16666667 0
0 0.2 0
0.033333333 0.2 0
0.066666667 0.2 0
0.1 0.2 0
0.13333333 0.2 0
0.16666667 0.2 0
0.2 0.2 0
0.23333333 0.2 0
0.26666667 0.2 0
0.3 0.2 0
0.33333333 0.2 0
0.36666667 0.2 0
0.4 0.2 0
0.43333333 0.2 0
0.46666667 0.2 0
0.5 0.2 0
0.53333333 0.2 0
0.56666667 0.2 0
0.6 0.2 0
0.63333333 0.2 0
0.66666667 0.2 0
0.7 0.2 0
0.73333333 0.2 0
0.76666667 0.2 0
0.8 0.2 0
0.83333333 0.2 0
0.86666667 0.2 0
0.9 0.2 0
0.93333333 0.2 0
0.96666667 0.2 0
1 0.2 0
0 0.23333333 0
0.033333333 0.23333333 0
0.066666667 0.23333333 0
0.1 0.23333333 0
0.13333333 0.23333333 0
0.16666667 0.23333333 0
0.2 0.23333333 0
0.23333333 0.23333333 0
0.26666667 0.23333333 0
0.3 0.23333333 0
0.33333333 0.23333333 0
0.36666667 0.23333333 0
0.4 0.23333333 0
0.43333333 0.23333333 0
0.46666667 0.23333333 0
0.5 0.23333333 0
0.53333333 0.23333333 0
0.56666667 0.23333333 0
0.6 0.23333333 0
0.63333333 0.23333333 0
0.66666667 0.23333333 0
0.7 0.23333333 0
0.73333333 0.23333333 0
0.76666667 0.23333333 0
0.8 0.23333333 0
0.83333333 0.23333333 0
0.86666667 0.23333333 0
0.9 0.23333333 0
0.93333333 0.23333333 0
0.96666667 0.23333333 0
1 0.23333333 0
0 0.26666667 0
0.033333333 0.26666667 0
0.066666667 0.26666667 0
0.1 0.26666667 0
0.13333333 0.26666667 0
0.16666667 0.26666667 0
0.2 0.26666667 0
0.23333333 0.26666667 0
0.26666667 0.26666667 0
0.3 0.26666667 0
0.33333333 0.26666667 0
0.36666667 0.26666667 0
0.4 0.26666667 0
0.43333333 0.26666667 0
0.46666667 0.26666667 0
0.5 0.26666667 0
0.53333333 0.26666667 0
0.56666667 0.26666667 0
0.6 0.26666667 0
0.63333333 0.26666667 0
0.66666667 0.26666667 0
0.7 0.26666667 0
0.73333333 0.26666667 0
0.76666667 0.26666667 0
0.8 0.26666667 0
0.83333333 0.26666667 0
0.86666667 0.26666667 0
0.9 0.26666667 0
0.93333333 0.26666667 0
0.96666667 0.26666667 0
1 0.26666667 0
0 0.3 0
0.033333333 0.3 0
0.066666667 0.3 0
0.1 0.3 0
0.13333333 0.3 0
0.16666667 0.3 0
0.2 0.3 0
0.23333333 0.3 0
0.26666667 0.3 0
0.3 0.3 0
0.33333333 0.3 0
0.36666667 0.3 0
0.4 0.3 0
0.43333333 0.3 0
0.46666667 0.3 0
0.5 0.3 0
0.53333333 0.3 0
0.56666667 0.3 0
0.6 0.3 0
0.63333333 0.3 0
0.66666667 0.3 0
0.7 0.3 0
0.73333333 0.3 0
0.76666667 0.3 0
0.8 0.3 0
0.83333333 0.3 0
0.86666667 0.3 0
0.9 0.3 0
0.93333333 0.3 0
0.96666667 0.3 0
1 0.3 0
0 0.33333333 0
0.033333333 0.33333333 0
0.066666667 0.33333333 0
0.1 0.33333333 0
0.13333333 0.33333333 0
0.16666667 0.33333333 0
0.2 0.33333333 0
0.23333333 0.33333333 0
0.26666667 0.33333333 0
0.3 0.33333333 0
0.33333333 0.33333333 0
0.36666667 0.33333333 0
0.4 0.33333333 0
0.43333333 0.33333333 0
0.46666667 0.33333333 0
0.5 0.33333333 0
0.53333333 0.33333333 0
0.56666667 0.33333333 0
0.6 0.33333333 0
0.63333333 0.33333333 0
0.66666667 0.33333333 0
0.7 0.33333333 0
0.73333333 0.33333333 0
0.76666667 0.33333333 0
0.8 0.33333333 0
0.83333333 0.33333333 0
0.86666667 0.33333333 0
0.9 0.33333333 0
0.93333333 0.33333333 0
0.96666667 0.33333333 0
1 0.33333333 0
0 0.36666667 0
0.033333333 0.36666667 0
0.066666667 0.36666667 0
0.1 0.36666667 0
0.13333333 0.36666667 0
0.16666667 0.36666667 0
0.2 0.36666667 0
0.23333333 0.36666667 0
0.26666667 0.36666667 0
0.3 0.36666667 0
0.33333333 0.36666667 0
0.36666667 0.36666667 0
0.4 0.36666667 0
0.43333333 0.36666667 0
0.46666667 0.36666667 0
0.5 0.36666667 0
0.53333333 0.36666667 0
0.56666667 0.36666667 0
0.6 0.36666667 0
0.63333333 0.36666667 0
0.66666667 0.36666667 0
0.7 0.36666667 0
0.73333333 0.36666667 0
0.76666667 0.36666667 0
0.8 0.36666667 0
0.83333333 0.36666667 0
0.86666667 0.36666667 0
0.9 0.36666667 0
0.93333333 0.36666667 0
0.96666667 0.36666667 0
1 0.36666667 0
0 0.4 0
0.033333333 0.4 0
0.066666667 0.4 0
0.1 0.4 0
0.13333333 0.4 0
0.16666667 0.4 0
0.2 0.4 0
0.23333333 0.4 0
0.26666667 0.4 0
0.3 0.4 0
0.33333333 0.4 0
0.36666667 0.4 0
0.4 0.4 0
0.43333333 0.4 0
0.46666667 0.4 0
0.5 0.4 0
0.53333333 0.4 0
0.56666667 0.4 0
0.6 0.4 0
0.63333333 0.4 0
0.66666667 0.4 0
0.7 0.4 0
0.73333333 0.4 0
0.76666667 0.4 0
0.8 0.4 0
0.83333333 0.4 0
0.86666667 0.4 0
0.9 0.4 0
0.93333333 0.4 0
0.96666667 0.4 0
1 0.4 0
0 0.43333333 0
0.033333333 0.43333333 0
0.066666667 0.43333333 0
0.1 0.43333333 0
0.13333333 0.43333333 0
0.16666667 0.43333333 0
0.2 0.43333333 0
0.23333333 0.43333333 0
0.26666667 0.43333333 0
0.3 0.43333333 0
0.33333333 0.43333333 0
0.36666667 0.43333333 0
0.4 0.43333333 0
0.43333333 0.43333333 0
0.46666667 0.43333333 0
0.5 0.43333333 0
0.53333333 0.43333333 0
0.56666667 0.43333333 0
0.6 0.43333333 0
0.63333333 0.43333333 0
0.66666667 0.43333333 0
0.7 0.43333333 0
0.73333333 0.43333333 0
0.76666667 0.43333333 0
0.8 0.43333333 0
0.83333333 0.43333333 0
0.86666667 0.43333333 0
0.9 0.43333333 0
0.93333333 0.43333333 0
0.96666667 0.43333333 0
1 0.43333333 0
0 0.46666667 0
0.033333333 0.46666667 0
0.066666667 0.46666667 0
0.1 0.46666667 0
0.13333333 0.46666667 0
0.16666667 0.46666667 0
0.2 0.46666667 0
0.23333333 0.46666667 0
0.26666667 0.46666667 0
0.3 0.46666667 0
0.33333333 0.46666667 0
0.36666667 0.46666667 0
0.4 0.46666667 0
0.43333333 0.46666667 0
0.46666667 0.46666667 0
0.5 0.46666667 0
0.53333333 0.46666667 0
0.56666667 0.46666667 0
0.6 0.46666667 0
0.63333333 0.46666667 0
0.66666667 0.46666667 0
0.7 0.46666667 0
0.73333333 0.46666667 0
0.76666667 0.46666667 0
0.8 0.46666667 0
0.83333333 0.46666667 0
0.86666667 0.46666667 0
0.9 0.46666667 0
0.93333333 0.46666667 0
0.96666667 0.46666667 0
1 0.46666667 0
0 0.5 0
0.033333333 0.5 0
0.066666667 0.5 0
0.1 0.5 0
0.13333333 0.5 0
0.16666667 0.5 0
0.2 0.5 0
0.23333333 0.5 0
0.26666667 0.5 0
0.3 0.5 0
0.33333333 0.5 0
0.36666667 0.5 0
0.4 0.5 0
0.43333333 0.5 0
0.46666667 0.5 0
0.5 0.5 0
0.53333333 0.5 0
0.56666667 0.5 0
0.6 0.5 0
0.63333333 0.5 0
0.66666667 0.5 0
0.7 0.5 0
0.73333333 0.5 0
0.76666667 0.5 0
0.8 0.5 0
0.83333333 0.5 0
0.86666667 0.5 0
0.9 0.5 0
0.93333333 0.5 0
0.96666667 0.5 0
1 0.5 0
0 0.53333333 0
0.033333333 0.53333333 0
0.066666667 0.53333333 0
0.1 0.53333333 0
0.13333333 0.53333333 0
0.16666667 0.53333333 0
0.2 0.53333333 0
0.23333333 0.53333333 0
0.26666667 0.53333333 0
0.3 0.53333333 0
0.33333333 0.53333333 0
0.36666667 0.53333333 0
0.4 0.53333333 0
0.43333333 0.53333333 0
0.46666667 0.53333333 0
0.5 0.53333333 0
0.53333333 0.53333333 0
0.56666667 0.53333333 0
0.6 0.53333333 0
0.63333333 0.53333333 0
0.66666667 0.53333333 0
0.7 0.53333333 0
0.73333333 0.53333333 0
0.76666667 0.53333333 0
0.8 0.53333333 0
[...]
CELL_DATA 1920
Scalars  Label int 1
LOOKUP_TABLE FreeFempp_table
0
0
0
0
0
0
0
0
0
0
0
0
0
0
0
0
0
0
0
0
0
0
0
0
0
0
0
0
0
0
0
0
0
0
0
0
0
0
0
0
0
0
0
0
0
0
0
0
0
0
0
0
0
0
0
0
0
0
0
0
0
0
0
0
0
0
0
0
0
0
0
0
0
0
0
0
0
0
0
0
0
0
0
0
0
0
0
0
0
0
0
0
0
0
0
0
0
0
0
0
0
0
0
0
0
0
0
0
0
0
0
0
0
0
0
0
0
0
0
0
0
0
0
0
0
0
0
0
0
0
0
0
0
0
0
0
0
0
0
0
0
0
0
0
0
0
0
0
0
0
0
0
0
0
0
0
0
0
0
0
0
0
0
0
0
0
0
0
0
0
0
0
0
0
0
0
0
0
0
0
0
0
0
0
0
0
0
0
0
0
0
0
0
0
0
0
0
0
0
0
0
0
0
0
0
0
0
0
0
0
0
0
0
0
0
0
0
0
0
0
0
0
0
0
0
0
0
0
0
0
0
0
0
0
0
0
0
0
0
0
0
0
0
0
0
0
0
0
0
0
0
0
0
0
0
0
0
0
0
0
0
0
0
0
0
0
0
0
0
0
0
0
0
0
0
0
0
0
0
0
0
0
0
0
0
0
0
0
0
0
0
0
0
0
0
0
0
0
0
0
0
0
0
0
0
0
0
0
0
0
0
0
0
0
0
0
0
0
0
0
0
0
0
0
0
0
0
0
0
0
0
0
0
0
0
0
0
0
0
0
0
0
0
0
0
0
0
0
0
0
0
0
0
0
0
0
0
0
0
0
0
0
0
0
0
0
0
0
0
0
0
0
0
0
0
0
0
0
0
0
0
0
0
0
0
0
0
0
0
0
0
0
0
0
0
0
0
0
0
0
0
0
0
0
0
0
0
0
0
0
0
0
0
0
0
0
0
0
0
0
0
0
0
0
0
0
0
0
0
0
0
0
0
0
0
0
0
0
0
0
0
0
0
0
0
0
0
0
0
0
0
0
0
0
0
0
0
0
0
0
0
0
0
0
0
0
0
0
0
0
0
0
0
0
0
0
0
0
0
0
0
0
0
0
0
0
0
0
0
0
0
0
0
0
0
0
0
0
0
0
0
0
0
0
0
0
0
0
0
0
0
0
0
0
0
0
0
0
0
0
0
0
0
0
0
0
0
0
0
0
0
0
0
0
0
0
0
0
0
0
0
0
0
0
0
0
0
0
0
0
0
0
0
0
0
0
0
0
0
0
0
0
0
0
0
0
0
0
0
0
0
0
0
0
0
0
0
0
0
0
0
0
0
0
0
0
0
0
0
0
0
0
0
0
0
0
0
0
0
0
0
0
0
0
0
0
0
0
0
0
0
0
0
0
0
0
0
0
0
0
0
0
0
0
0
0
0
0
0
0
0
0
0
0
0
0
0
0
0
0
0
0
0
0
0
0
0
0
0
0
0
0
0
0
0
0
0
0
0
0
0
0
0
0
0
0
0
0
0
0
0
0
0
0
0
0
0
0
0
0
0
0
0
0
0
0
0
0
0
0
0
0
0
0
0
0
0
0
0
0
0
0
0
0
0
0
0
0
0
0
0
0
0
0
0
0
0
0
0
0
0
0
0
0
0
0
0
0
0
0
0
0
0
0
0
0
0
0
0
0
0
0
0
0
0
0
0
0
0
0
0
0
0
0
0
0
0
0
0
0
0
0
0
0
0
0
0
0
0
0
0
0
0
0
0
0
0
0
0
0
0
0
0
0
0
0
0
0
0
0
0
0
0
0
0
0
0
0
0
0
0
0
0
0
0
0
0
0
0
0
0
0
0
0
0
0
0
0
0
0
0
0
0
0
0
0
0
0
0
0
0
0
0
0
0
0
0
0
0
0
0
0
0
0
0
0
0
0
0
0
0
0
0
0
0
0
0
0
0
0
0
0
0
0
0
0
0
0
0
0
0
0
0
0
0
0
0
0
0
0
0
0
0
0
0
0
0
0
0
0
0
0
0
0
0
0
0
0
0
0
0
0
0
0
0
0
0
0
0
0
0
0
0
0
0
0
0
0
0
0
0
0
0
0
0
0
0
0
0
0
0
0
0
0
0
0
0
0
0
0
0
0
0
0
0
0
0
0
0
0
0
0
0
0
0
0
0
0
0
0
0
0
0
0
0
0
0
0
0
0
0
0
0
0
0
0
0
0
0
0
0
0
0
0
0
0
0
0
0
0
0
0
0
0
0
0
0
0
0
0
0
0
0
0
0
0
0
0
0
0
0
0
0
0
0
0
0
0
0
0
0
0
0
0
0
0
0
0
0
0
0
0
0
0
0
0
0
0
0
0
0
0
0
0
0
0
0
0
0
0
0
0
0
0
0
0
0
0
0
0
0
0
0
0
0
0
0
0
0
0
0
0
0
0
0
0
0
0
0
0
0
0
0
0
0
0
0
0
0
0
0
0
0
0
0
0
0
0
0
0
0
0
0
0
0
0
0
0
0
0
0
0
0
0
0
0
0
0
0
0
0
0
0
0
0
0
0
0
0
0
0
0
0
0
0
0
0
0
0
0
0
0
0
0
0
0
0
0
0
0
0
0
0
0
0
0
0
0
0
0
0
0
0
0
0
0
0
0
0
0
0
0
0
0
0
0
0
0
0
0
0
0
0
0
0
0
0
0
0
0
0
0
0
0
0
0
0
0
0
0
0
0
0
0
0
0
0
0
0
0
0
0
0
0
0
0
0
0
0
0
0
0
0
0
0
0
0
0
0
0
0
0
0
0
0
0
0
0
0
0
0
0
0
0
0
0
0
0
0
0
0
0
0
0
0
0
0
0
0
0
0
0
0
0
0
0
0
0
0
0
0
0
0
0
0
0
0
0
0
0
0
0
0
0
0
0
0
0
0
0
0
0
0
0
0
0
0
0
0
0
0
0
0
0
0
0
0
0
0
0
0
0
0
0
0
0
0
0
0
0
0
0
0
0
0
0
0
0
0
0
0
0
0
0
0
0
0
0
0
0
0
0
0
0
0
0
0
0
0
0
0
0
0
0
0
0
0
0
0
0
0
0
0
0
0
0
0
0
0
0
0
0
0
0
0
0
0
0
0
0
0
0
0
0
0
0
0
0
0
0
0
0
0
0
0
0
0
0
0
0
0
0
0
0
0
0
0
0
0
0
0
0
0
0
0
0
0
0
0
0
0
0
0
0
0
0
0
0
0
0
0
0
0
0
0
0
0
0
0
0
0
0
0
0
0
0
0
0
0
0
0
0
0
0
0
0
0
0
0
0
0
0
0
0
0
0
0
0
0
0
0
0
0
0
0
0
0
0
0
0
0
0
0
0
0
0
0
0
0
0
0
0
0
0
0
0
0
0
0
0
0
0
0
0
0
0
0
0
0
0
0
0
0
0
0
0
0
0
0
0
0
0
0
0
0
0
0
0
0
0
0
0
0
0
0
0
0
0
0
0
0
0
0
0
0
0
0
0
0
0
0
0
0
0
0
0
0
0
0
0
0
0
0
0
0
0
0
0
0
0
0
0
0
0
0
0
0
0
0
0
0
0
0
0
0
0
0
0
0
0
0
0
0
0
0
0
0
0
0
0
0
0
0
0
0
0
0
0
0
0
0
0
0
0
0
0
0
0
0
0
0
0
0
0
0
0
0
0
0
0
0
0
0
0
0
0
0
0
0
0
0
0
0
0
0
0
0
0
0
0
0
0
0
0
0
0
0
0
0
0
0
0
0
0
0
0
0
0
0
0
0
0
0
0
0
0
0
0
0
0
0
0
0
0
0
0
0
0
0
0
0
0
0
0
0
0
0
0
0
0
0
0
0
0
0
0
0
0
0
0
0
0
0
0
0
0
0
0
0
0
0
0
0
0
0
0
0
0
0
0
0
0
0
0
0
0
0
0
0
0
0
0
0
0
0
0
0
0
0
0
0
0
0
0
0
0
0
0
0
0
0
0
0
0
0
0
0
0
0
0
0
0
0
0
0
0
0
0
0
0
0
0
0
0
0
0
0
0
0
0
0
0
0
0
0
0
0
0
0
0
1
1
1
1
1
1
1
1
1
1
1
1
1
1
1
1
1
1
1
1
1
1
1
1
1
1
1
1
1
1
2
2
2
2
2
2
2
2
2
2
2
2
2
2
2
2
2
2
2
2
2
2
2
2
2
2
2
2
2
2
3
3
3
3
3
3
3
3
3
3
3
3
3
3
3
3
3
3
3
3
3
3
3
3
3
3
3
3
3
3
4
4
4
4
4
4
4
4
4
4
4
4
4
4
4
4
4
4
4
4
4
4
4
4
4
4
4
4
4
4

LOOKUP_TABLE FreeFempp_table 5
1.00000000 0.00000000 0.00000000 1.00000000
1.00000000 1.00000000 0.00000000 1.00000000
1.00000000 0.00000000 1.00000000 1.00000000
0.00000000 1.00000000 0.00000000 1.00000000
0.00000000 1.00000000 1.00000000 1.00000000

POINT_DATA 961
FIELD FieldData 1
Density 1 961 float
3.82586032e-01 4.01883513e-01 4.16455656e-01 4.19557929e-01 4.19929326e-01 4.20006573e-01 4.18670028e-01 3.99682671e-01 2.84531623e-01 5.90128899e-02 7.42989555e-02 3.09829086e-01 4.25060898e-01 4.93888021e-01 5.78715146e-01 6.00148559e-01 5.22606194e-01 4.95970398e-01 5.46806514e-01 6.03863478e-01 6.09791279e-01 6.00936830e-01 5.92017055e-01 5.80001950e-01 5.65194011e-01 5.49945295e-01 5.41054487e-01 5.36083817e-01 5.33488214e-01 5.28989553e-01 5.19610941e-01 2.33925983e-01 2.88421690e-01 3.17220181e-01 3.22463661e-01 3.22874874e-01 3.22821349e-01 3.21260482e-01 3.07578534e-01 2.34994590e-01 5.61594069e-02 4.22236435e-02 2.31031239e-01 3.75401914e-01 4.51067120e-01 5.61335385e-01 5.99858403e-01 4.29141909e-01 3.19159329e-01 3.72234434e-01 4.90352035e-01 5.26233137e-01 5.50824583e-01 5.79038441e-01 5.82867920e-01 5.75085163e-01 5.58068037e-01 5.48216283e-01 5.41892350e-01 5.38102031e-01 5.34465671e-01 5.24747908e-01 3.39180604e-02 4.76179235e-02 5.68557382e-02 5.77656962e-02 5.75500317e-02 5.74817136e-02 5.71203828e-02 5.44283651e-02 4.40859161e-02 1.44300396e-02 8.01033899e-03 6.36204556e-02 2.09218398e-01 3.05189103e-01 4.51117873e-01 6.13690794e-01 3.59577954e-01 1.36845633e-01 9.46740359e-02 1.10903725e-01 1.24541864e-01 1.75801814e-01 3.24954420e-01 3.95035833e-01 4.24315304e-01 4.57818776e-01 5.01436472e-01 5.09064436e-01 5.09056509e-01 5.09216487e-01 5.08683860e-01 7.05332235e-02 5.84537201e-02 5.49713261e-02 5.44149242e-02 5.51920868e-02 5.60521111e-02 5.65645061e-02 5.61027043e-02 5.42079620e-02 5.41286953e-02 5.17079718e-02 3.38782072e-02 3.22168358e-02 5.69752790e-02 1.37837574e-01 4.63396430e-01 5.55217743e-01 2.57408231e-01 1.27110317e-01 7.20809475e-02 4.07520719e-02 2.22233888e-02 4.90418561e-02 7.20112994e-02 8.27631727e-02 1.24827363e-01 3.42488974e-01 4.41751927e-01 4.62038338e-01 4.70347255e-01 4.79458362e-01 3.43956769e-01 3.12587857e-01 2.98007667e-01 2.98865050e-01 3.04554731e-01 3.09881538e-01 3.13571721e-01 3.15368712e-01 3.14515144e-01 3.09361935e-01 2.88382560e-01 2.16230586e-01 8.99293870e-02 6.29272014e-02 4.62497510e-02 7.89446756e-02 2.00545415e-01 5.48885107e-01 4.86769766e-01 3.14395875e-01 2.42405534e-01 1.48911655e-01 1.25610620e-01 1.21390328e-01 9.76612568e-02 5.15101999e-02 9.30687785e-02 3.16907048e-01 4.11988556e-01 4.37745482e-01 4.54977632e-01 4.21839952e-01 4.02487546e-01 3.88053268e-01 3.88238281e-01 3.94741744e-01 4.01681185e-01 4.06923056e-01 4.10434812e-01 4.12568957e-01 4.13330615e-01 4.10642833e-01 3.94907981e-01 3.53464723e-01 3.23466659e-01 2.66638994e-01 9.27931070e-02 3.81859802e-02 1.42058775e-01 3.96307319e-01 5.63985288e-01 5.69573224e-01 5.50160706e-01 5.60020447e-01 6.03211999e-01 5.53211570e-01 3.33757013e-01 1.01971716e-01 9.40243229e-02 3.06172371e-01 4.05414701e-01 4.35848504e-01 4.43992943e-01 4.28038061e-01 4.17953759e-01 4.17945415e-01 4.22204792e-01 4.27472293e-01 4.31997031e-01 4.35657293e-01 4.38931227e-01 4.42145646e-01 4.44983751e-01 4.45780843e-01 4.42140937e-01 4.37620252e-01 4.19361711e-01 3.39424789e-01 1.88034117e-01 6.80376068e-02 6.23096488e-02 1.55466944e-01 3.60339552e-01 3.33049864e-01 3.32253605e-01 5.26548445e-01 6.66360497e-01 6.28432572e-01 4.05711114e-01 1.11790001e-01 9.07967091e-02 3.07264239e-01 3.97311777e-01 4.61678624e-01 4.50754017e-01 4.44883972e-01 4.45144147e-01 4.47502375e-01 4.50714827e-01 4.53947127e-01 4.57055449e-01 4.60227579e-01 4.63500649e-01 4.66503114e-01 4.68458831e-01 4.68917608e-01 4.69171405e-01 4.67594922e-01 4.57020313e-01 4.12304461e-01 2.93813437e-01 1.07949473e-01 5.18493392e-02 5.74751981e-02 6.64299279e-02 6.31871372e-02 1.57638729e-01 3.41535509e-01 5.12443006e-01 5.98818541e-01 3.86014074e-01 7.21257851e-02 8.82369205e-02 2.54674643e-01 4.79031980e-01 4.72653896e-01 4.69617188e-01 4.69968200e-01 4.71152961e-01 4.72851783e-01 4.74865049e-01 4.77110773e-01 4.79547381e-01 4.82012182e-01 4.84166682e-01 4.85655516e-01 4.86551106e-01 4.87766743e-01 4.89953667e-01 4.93050903e-01 4.94571805e-01 4.76689577e-01 4.04006541e-01 2.98637241e-01 1.16718806e-01 4.97260951e-02 2.12322585e-02 3.97161059e-02 9.27628502e-02 1.80396959e-01 4.14069593e-01 5.88398516e-01 1.94395170e-01 2.47306470e-02 4.00061868e-02 4.93931830e-01 4.91090566e-01 4.89850253e-01 4.89917547e-01 4.90228355e-01 4.90872413e-01 4.91868615e-01 4.93146688e-01 4.94560301e-01 4.95898396e-01 4.96939570e-01 4.97598857e-01 4.98124123e-01 4.99165624e-01 5.01451015e-01 5.05725563e-01 5.13012350e-01 5.22341251e-01 5.25896847e-01 5.13009429e-01 4.38773185e-01 3.00373316e-01 1.20249450e-01 6.75230846e-02 6.25639334e-02 8.29806551e-02 2.00140223e-01 5.87138534e-01 4.94413763e-01 7.97834843e-02 1.65019035e-02 5.02057195e-01 5.01311958e-01 5.01300871e-01 5.01221538e-01 5.01150310e-01 5.01329541e-01 5.01761198e-01 5.02326071e-01 5.02838790e-01 5.03116727e-01 5.03054678e-01 5.02712607e-01 5.02371073e-01 5.02498031e-01 5.03636539e-01 5.06434143e-01 5.11755288e-01 5.20370781e-01 5.32150030e-01 5.45189857e-01 5.49921989e-01 5.28416038e-01 4.37322736e-01 2.72796929e-01 2.04135001e-01 1.65506199e-01 2.04613730e-01 5.05708933e-01 6.06435895e-01 1.24006771e-01 1.29118999e-02 4.99311686e-01 4.98618662e-01 4.99580681e-01 5.00192583e-01 5.00796139e-01 5.01548767e-01 5.02304137e-01 5.02861500e-01 5.03027260e-01 5.02682030e-01 5.01829147e-01 5.00619709e-01 4.99339104e-01 4.98356491e-01 4.98084933e-01 4.99003321e-01 5.01630306e-01 5.06304860e-01 5.13002396e-01 5.21498442e-01 5.31276822e-01 5.41371226e-01 5.43099463e-01 5.15030086e-01 4.85786736e-01 4.45113361e-01 4.42690820e-01 6.10399961e-01 6.42693698e-01 1.34342775e-01 7.89041352e-03 4.84302998e-01 4.81075406e-01 4.82747734e-01 4.85373706e-01 4.88207191e-01 4.91034001e-01 4.93417233e-01 4.95026767e-01 4.95686799e-01 4.95388836e-01 4.94275361e-01 4.92605358e-01 4.90707666e-01 4.88939166e-01 4.87671614e-01 4.87293452e-01 4.88133252e-01 4.90264803e-01 4.93369907e-01 4.96894538e-01 5.00538349e-01 5.04605114e-01 5.08364260e-01 5.08492053e-01 5.08357227e-01 5.09323239e-01 5.53029358e-01 6.82824790e-01 6.44054890e-01 1.32731393e-01 6.92966906e-03 4.58080053e-01 4.49622810e-01 4.51642036e-01 4.57987964e-01 4.65072930e-01 4.71851766e-01 4.77411866e-01 4.81249481e-01 4.83274311e-01 4.83687282e-01 4.82848138e-01 4.81179595e-01 4.79111165e-01 4.77055728e-01 4.75411206e-01 4.74551231e-01 4.74742591e-01 4.75992233e-01 4.77942139e-01 4.79926258e-01 4.81168300e-01 4.80873525e-01 4.78043497e-01 4.72623318e-01 4.71621066e-01 4.93712157e-01 5.74117005e-01 6.93512559e-01 6.08162284e-01 1.24524765e-01 7.34131504e-03 4.21694964e-01 4.05671984e-01 4.07822073e-01 4.20276433e-01 4.34460163e-01 4.47576523e-01 4.57991600e-01 4.65115041e-01 4.69159037e-01 4.70725954e-01 4.70508367e-01 4.69154030e-01 4.67233568e-01 4.65252668e-01 4.63672638e-01 4.62902367e-01 4.63228226e-01 4.64701265e-01 4.67058122e-01 4.69720870e-01 4.71817642e-01 4.72167999e-01 4.69664633e-01 4.65647906e-01 4.70051676e-01 5.06322205e-01 5.99078774e-01 6.86303914e-01 5.45232773e-01 1.12091050e-01 8.44467804e-03 3.75198841e-01 3.50193113e-01 3.52722317e-01 3.74518275e-01 3.99709463e-01 4.22080427e-01 4.38964754e-01 4.50075954e-01 4.56399322e-01 4.59235668e-01 4.59735930e-01 4.58806425e-01 4.57162261e-01 4.55403268e-01 4.54064876e-01 4.53621775e-01 4.54434305e-01 4.56660539e-01 4.60182279e-01 4.64561999e-01 4.69013244e-01 4.72506672e-01 4.74617034e-01 4.78219032e-01 4.94199306e-01 5.42290211e-01 6.27375603e-01 6.56167567e-01 4.45167005e-01 9.29826647e-02 1.01654232e-02 3.19283336e-01 2.86133826e-01 2.90023148e-01 3.24515939e-01 3.64954054e-01 3.99263710e-01 4.23526883e-01 4.38600183e-01 4.46931571e-01 4.50822294e-01 4.51943457e-01 4.51431811e-01 4.50102836e-01 4.48615074e-01 4.47560251e-01 4.47484225e-01 4.48847651e-01 4.51946348e-01 4.56823051e-01 4.63192254e-01 4.70439464e-01 4.77961510e-01 4.86366093e-01 4.99806732e-01 5.28056800e-01 5.81651390e-01 6.39062047e-01 5.89936435e-01 3.15867692e-01 6.80351406e-02 1.36270560e-02 2.57978410e-01 2.21738830e-01 2.28623301e-01 2.77618110e-01 3.35967183e-01 3.83009851e-01 4.13880289e-01 4.31805581e-01 4.41317499e-01 4.45809543e-01 4.47379142e-01 4.47284132e-01 4.46354657e-01 4.45243299e-01 4.44550365e-01 4.44862664e-01 4.46727127e-01 4.50576693e-01 4.56633359e-01 4.64829236e-01 4.74874347e-01 4.86782998e-01 5.02049088e-01 5.24835527e-01 5.60957015e-01 6.08033180e-01 6.20689809e-01 4.92348045e-01 2.08555385e-01 4.90346737e-02 2.03686804e-02 1.99219003e-01 1.68361321e-01 1.80121288e-01 2.43309885e-01 3.18953753e-01 3.76173019e-01 4.10706520e-01 4.29385781e-01 4.38927799e-01 4.43517834e-01 4.45408762e-01 4.45813149e-01 4.45476562e-01 4.44974989e-01 4.44854617e-01 4.45682287e-01 4.48033810e-01 4.52439696e-01 4.59318072e-01 4.68947947e-01 4.81611073e-01 4.98082489e-01 5.20151615e-01 5.49994409e-01 5.86556137e-01 6.13057196e-01 5.70688665e-01 3.82298172e-01 1.40749976e-01 4.36924174e-02 3.07012424e-02 1.51105538e-01 1.30680591e-01 1.49832845e-01 2.27691114e-01 3.17239881e-01 3.79021078e-01 4.12856281e-01 4.29918855e-01 4.38447833e-01 4.42781836e-01 4.44981128e-01 4.46052104e-01 4.46577936e-01 4.47007686e-01 4.47783411e-01 4.49387819e-01 4.52346265e-01 4.57212925e-01 4.64590698e-01 4.75238919e-01 4.90290999e-01 5.11358857e-01 5.39581597e-01 5.72857857e-01 6.01117969e-01 5.94899237e-01 4.96804357e-01 2.81219244e-01 1.01776652e-01 4.89277430e-02 4.66490835e-02 1.13950945e-01 1.04425877e-01 1.34922609e-01 2.30870306e-01 3.29364210e-01 3.88932258e-01 4.17939067e-01 4.31606919e-01 4.38506067e-01 4.42456037e-01 4.45048660e-01 4.46977466e-01 4.48621154e-01 4.50282782e-01 4.52281803e-01 4.54981983e-01 4.58801925e-01 4.64261830e-01 4.72145081e-01 4.83800471e-01 5.01376569e-01 5.27109146e-01 5.60096085e-01 5.91433942e-01 6.00765288e-01 5.51716268e-01 4.07371461e-01 2.04452649e-01 8.40675682e-02 6.14173375e-02 7.31079727e-02 8.35401565e-02 8.39010030e-02 1.31241694e-01 2.49330148e-01 3.50420386e-01 4.01966661e-01 4.23560321e-01 4.33010966e-01 4.38092858e-01 4.41690683e-01 4.44790095e-01 4.47719961e-01 4.50638145e-01 4.53706682e-01 4.57137227e-01 4.61192727e-01 4.66209501e-01 4.72727269e-01 4.81815279e-01 4.95507866e-01 5.16722143e-01 5.47079265e-01 5.81183672e-01 6.00798666e-01 5.75958371e-01 4.76721585e-01 3.05709034e-01 1.52861968e-01 8.31830055e-02 8.26291516e-02 1.12659663e-01 5.72989061e-02 6.69856444e-02 1.36070356e-01 2.77516514e-01 3.74893486e-01 4.14788097e-01 4.28085953e-01 4.33242142e-01 4.36588198e-01 4.39940810e-01 4.43638146e-01 4.47627515e-01 4.51848656e-01 4.56342041e-01 4.61253792e-01 4.66825008e-01 4.73445654e-01 4.81867850e-01 4.93607104e-01 5.11210740e-01 5.37273943e-01 5.70259750e-01 5.96827447e-01 5.88832974e-01 5.15856862e-01 3.71745974e-01 2.13064820e-01 1.24399863e-01 9.73791927e-02 1.18255258e-01 1.65533140e-01 3.96226309e-02 5.63024357e-02 1.49299383e-01 3.09888929e-01 3.98551822e-01 4.25231189e-01 4.30444270e-01 4.31683302e-01 4.33576554e-01 4.36853588e-01 4.41213012e-01 4.46246713e-01 4.51707482e-01 4.57545877e-01 4.63890970e-01 4.71058339e-01 4.79646474e-01 4.90762562e-01 5.06259501e-01 5.28406024e-01 5.57705343e-01 5.87460577e-01 5.97236395e-01 5.54764569e-01 4.40336108e-01 2.86737621e-01 1.75153360e-01 1.32552028e-01 1.35224044e-01 1.77654967e-01 2.38704398e-01 3.00839432e-02 5.23809120e-02 1.70927048e-01 3.42508018e-01 4.18423861e-01 4.31659371e-01 4.29649949e-01 4.27765101e-01 4.28731054e-01 4.32179689e-01 4.37244922e-01 4.43262160e-01 4.49871957e-01 4.56970841e-01 4.64683890e-01 4.73412246e-01 4.83955860e-01 4.97644961e-01 5.16221702e-01 5.40831387e-01 5.69221914e-01 5.91086745e-01 5.85770667e-01 5.31332195e-01 4.24474508e-01 2.99735457e-01 2.18398884e-01 2.00867042e-01 2.22407386e-01 2.74876028e-01 3.32169950e-01 2.53270734e-02 5.36596291e-02 1.99273840e-01 3.72813076e-01 4.32045072e-01 4.32460546e-01 4.24801528e-01 4.21090066e-01 4.21876609e-01 4.25764441e-01 4.31520879e-01 4.38413322e-01 4.46087003e-01 4.54417884e-01 4.63479847e-01 4.73631263e-01 4.85647649e-01 5.00738502e-01 5.20148396e-01 5.43907046e-01 5.68498433e-01 5.84424078e-01 5.77248633e-01 5.36991358e-01 4.70121890e-01 4.00898486e-01 3.59041780e-01 3.51413071e-01 3.64366889e-01 3.92702281e-01 4.25411910e-01 2.31958758e-02 5.89281395e-02 2.32979193e-01 3.98819000e-01 4.37547743e-01 4.26724911e-01 4.15792078e-01 4.11878943e-01 4.13195908e-01 4.17612255e-01 4.23870534e-01 4.31416392e-01 4.40035820e-01 4.49621916e-01 4.60130125e-01 4.71682906e-01 4.84717220e-01 4.99982953e-01 5.18131733e-01 5.38706541e-01 5.58757126e-01 5.72208226e-01 5.71931005e-01 5.55234015e-01 5.27753592e-01 4.99373466e-01 4.78611410e-01 4.67110157e-01 4.63187456e-01 4.70014840e-01 4.83128101e-01 2.22128704e-02 6.65085614e-02 2.69901395e-01 4.17877018e-01 4.34428036e-01 4.15701777e-01 4.04331535e-01 4.01485801e-01 4.03459936e-01 4.07989621e-01 4.14202571e-01 4.21938449e-01 4.31232601e-01 4.42051530e-01 4.54232246e-01 4.67565089e-01 4.81940895e-01 4.97423768e-01 5.14060557e-01 5.31327009e-01 5.47452807e-01 5.59356511e-01 5.63996375e-01 5.60601175e-01 5.50891042e-01 5.36765277e-01 5.20554900e-01 5.05216777e-01 4.94661570e-01 4.94351208e-01 4.99971092e-01 1.91146918e-02 7.29766116e-02 3.04861933e-01 4.27558213e-01 4.25592780e-01 4.04178739e-01 3.94370437e-01 3.92321676e-01 3.93839628e-01 3.97305191e-01 4.02508765e-01 4.09736991e-01 4.19289082e-01 4.31262493e-01 4.45484251e-01 4.61530298e-01 4.78804320e-01 4.96630847e-01 5.14284730e-01 5.30884027e-01 5.45203090e-01 5.55672824e-01 5.60853362e-01 5.60088754e-01 5.53360403e-01 5.40963650e-01 5.24791241e-01 5.08550584e-01 4.96883303e-01 4.95051712e-01 4.98566151e-01 1.89228263e-02 8.23389664e-02 3.42610151e-01 4.39742267e-01 4.27319586e-01 4.07062560e-01 3.98011118e-01 3.94472301e-01 3.93442273e-01 3.94308984e-01 3.97366613e-01 4.03111279e-01 4.11948860e-01 4.24071431e-01 4.39393789e-01 4.57512975e-01 4.77681607e-01 4.98801500e-01 5.19457102e-01 5.38013160e-01 5.52796483e-01 5.62369883e-01 5.65858245e-01 5.63123286e-01 5.54545939e-01 5.40922403e-01 5.24046838e-01 5.06934762e-01 4.93701696e-01 4.89917845e-01 4.93240416e-01 3.40388976e-02 8.77701491e-02 3.86094719e-01 4.69947368e-01 4.49843884e-01 4.30445939e-01 4.21651095e-01 4.16877031e-01 4.14136678e-01 4.13261592e-01 4.14575011e-01 4.18475777e-01 4.25277948e-01 4.35133427e-01 4.47979957e-01 4.63496774e-01 4.81058717e-01 4.99690443e-01 5.18050730e-01 5.34504414e-01 5.47339737e-01 5.55135369e-01 5.57168245e-01 5.53602278e-01 5.45242369e-01 5.33196032e-01 5.18919408e-01 5.04426718e-01 4.92616802e-01 4.87632662e-01 4.89908099e-01 
