# vtk DataFile Version 2.0
results/9_density.vtk, Created by Freefem++ 
ASCII
DATASET UNSTRUCTURED_GRID
POINTS 961 float
0 0 0
0.033333333 0 0
0.066666667 0 0
0.1 0 0
0.13333333 0 0
0.16666667 0 0
0.2 0 0
0.23333333 0 0
0.26666667 0 0
0.3 0 0
0.33333333 0 0
0.36666667 0 0
0.4 0 0
0.43333333 0 0
0.46666667 0 0
0.5 0 0
0.53333333 0 0
0.56666667 0 0
0.6 0 0
0.63333333 0 0
0.66666667 0 0
0.7 0 0
0.73333333 0 0
0.76666667 0 0
0.8 0 0
0.83333333 0 0
0.86666667 0 0
0.9 0 0
0.93333333 0 0
0.96666667 0 0
1 0 0
0 0.033333333 0
0.033333333 0.033333333 0
0.066666667 0.033333333 0
0.1 0.033333333 0
0.13333333 0.033333333 0
0.16666667 0.033333333 0
0.2 0.033333333 0
0.23333333 0.033333333 0
0.26666667 0.033333333 0
0.3 0.033333333 0
0.33333333 0.033333333 0
0.36666667 0.033333333 0
0.4 0.033333333 0
0.43333333 0.033333333 0
0.46666667 0.033333333 0
0.5 0.033333333 0
0.53333333 0.033333333 0
0.56666667 0.033333333 0
0.6 0.033333333 0
0.63333333 0.033333333 0
0.66666667 0.033333333 0
0.7 0.033333333 0
0.73333333 0.033333333 0
0.76666667 0.033333333 0
0.8 0.033333333 0
0.83333333 0.033333333 0
0.86666667 0.033333333 0
0.9 0.033333333 0
0.93333333 0.033333333 0
0.96666667 0.033333333 0
1 0.033333333 0
0 0.066666667 0
0.033333333 0.066666667 0
0.066666667 0.066666667 0
0.1 0.066666667 0
0.13333333 0.066666667 0
0.16666667 0.066666667 0
0.2 0.066666667 0
0.23333333 0.066666667 0
0.26666667 0.066666667 0
0.3 0.066666667 0
0.33333333 0.066666667 0
0.36666667 0.066666667 0
0.4 0.066666667 0
0.43333333 0.066666667 0
0.46666667 0.066666667 0
0.5 0.066666667 0
0.53333333 0.066666667 0
0.56666667 0.066666667 0
0.6 0.066666667 0
0.63333333 0.066666667 0
0.66666667 0.066666667 0
0.7 0.066666667 0
0.73333333 0.066666667 0
0.76666667 0.066666667 0
0.8 0.066666667 0
0.83333333 0.066666667 0
0.86666667 0.066666667 0
0.9 0.066666667 0
0.93333333 0.066666667 0
0.96666667 0.066666667 0
1 0.066666667 0
0 0.1 0
0.033333333 0.1 0
0.066666667 0.1 0
0.1 0.1 0
0.13333333 0.1 0
0.16666667 0.1 0
0.2 0.1 0
0.23333333 0.1 0
0.26666667 0.1 0
0.3 0.1 0
0.33333333 0.1 0
0.36666667 0.1 0
0.4 0.1 0
0.43333333 0.1 0
0.46666667 0.1 0
0.5 0.1 0
0.53333333 0.1 0
0.56666667 0.1 0
0.6 0.1 0
0.63333333 0.1 0
0.66666667 0.1 0
0.7 0.1 0
0.73333333 0.1 0
0.76666667 0.1 0
0.8 0.1 0
0.83333333 0.1 0
0.86666667 0.1 0
0.9 0.1 0
0.93333333 0.1 0
0.96666667 0.1 0
1 0.1 0
0 0.13333333 0
0.033333333 0.13333333 0
0.066666667 0.13333333 0
0.1 0.13333333 0
0.13333333 0.13333333 0
0.16666667 0.13333333 0
0.2 0.13333333 0
0.23333333 0.13333333 0
0.26666667 0.13333333 0
0.3 0.13333333 0
0.33333333 0.13333333 0
0.36666667 0.13333333 0
0.4 0.13333333 0
0.43333333 0.13333333 0
0.46666667 0.13333333 0
0.5 0.13333333 0
0.53333333 0.13333333 0
0.56666667 0.13333333 0
0.6 0.13333333 0
0.63333333 0.13333333 0
0.66666667 0.13333333 0
0.7 0.13333333 0
0.73333333 0.13333333 0
0.76666667 0.13333333 0
0.8 0.13333333 0
0.83333333 0.13333333 0
0.86666667 0.13333333 0
0.9 0.13333333 0
0.93333333 0.13333333 0
0.96666667 0.13333333 0
1 0.13333333 0
0 0.16666667 0
0.033333333 0.16666667 0
0.066666667 0.16666667 0
0.1 0.16666667 0
0.13333333 0.16666667 0
0.16666667 0.16666667 0
0.2 0.16666667 0
0.23333333 0.16666667 0
0.26666667 0.16666667 0
0.3 0.16666667 0
0.33333333 0.16666667 0
0.36666667 0.16666667 0
0.4 0.16666667 0
0.43333333 0.16666667 0
0.46666667 0.16666667 0
0.5 0.16666667 0
0.53333333 0.16666667 0
0.56666667 0.16666667 0
0.6 0.16666667 0
0.63333333 0.16666667 0
0.66666667 0.16666667 0
0.7 0.16666667 0
0.73333333 0.16666667 0
0.76666667 0.16666667 0
0.8 0.16666667 0
0.83333333 0.16666667 0
0.86666667 0.16666667 0
0.9 0.16666667 0
0.93333333 0.16666667 0
0.96666667 0.16666667 0
1 0.16666667 0
0 0.2 0
0.033333333 0.2 0
0.066666667 0.2 0
0.1 0.2 0
0.13333333 0.2 0
0.16666667 0.2 0
0.2 0.2 0
0.23333333 0.2 0
0.26666667 0.2 0
0.3 0.2 0
0.33333333 0.2 0
0.36666667 0.2 0
0.4 0.2 0
0.43333333 0.2 0
0.46666667 0.2 0
0.5 0.2 0
0.53333333 0.2 0
0.56666667 0.2 0
0.6 0.2 0
0.63333333 0.2 0
0.66666667 0.2 0
0.7 0.2 0
0.73333333 0.2 0
0.76666667 0.2 0
0.8 0.2 0
0.83333333 0.2 0
0.86666667 0.2 0
0.9 0.2 0
0.93333333 0.2 0
0.96666667 0.2 0
1 0.2 0
0 0.23333333 0
0.033333333 0.23333333 0
0.066666667 0.23333333 0
0.1 0.23333333 0
0.13333333 0.23333333 0
0.16666667 0.23333333 0
0.2 0.23333333 0
0.23333333 0.23333333 0
0.26666667 0.23333333 0
0.3 0.23333333 0
0.33333333 0.23333333 0
0.36666667 0.23333333 0
0.4 0.23333333 0
0.43333333 0.23333333 0
0.46666667 0.23333333 0
0.5 0.23333333 0
0.53333333 0.23333333 0
0.56666667 0.23333333 0
0.6 0.23333333 0
0.63333333 0.23333333 0
0.66666667 0.23333333 0
0.7 0.23333333 0
0.73333333 0.23333333 0
0.76666667 0.23333333 0
0.8 0.23333333 0
0.83333333 0.23333333 0
0.86666667 0.23333333 0
0.9 0.23333333 0
0.93333333 0.23333333 0
0.96666667 0.23333333 0
1 0.23333333 0
0 0.26666667 0
0.033333333 0.26666667 0
0.066666667 0.26666667 0
0.1 0.26666667 0
0.13333333 0.26666667 0
0.16666667 0.26666667 0
0.2 0.26666667 0
0.23333333 0.26666667 0
0.26666667 0.26666667 0
0.3 0.26666667 0
0.33333333 0.26666667 0
0.36666667 0.26666667 0
0.4 0.26666667 0
0.43333333 0.26666667 0
0.46666667 0.26666667 0
0.5 0.26666667 0
0.53333333 0.26666667 0
0.56666667 0.26666667 0
0.6 0.26666667 0
0.63333333 0.26666667 0
0.66666667 0.26666667 0
0.7 0.26666667 0
0.73333333 0.26666667 0
0.76666667 0.26666667 0
0.8 0.26666667 0
0.83333333 0.26666667 0
0.86666667 0.26666667 0
0.9 0.26666667 0
0.93333333 0.26666667 0
0.96666667 0.26666667 0
1 0.26666667 0
0 0.3 0
0.033333333 0.3 0
0.066666667 0.3 0
0.1 0.3 0
0.13333333 0.3 0
0.16666667 0.3 0
0.2 0.3 0
0.23333333 0.3 0
0.26666667 0.3 0
0.3 0.3 0
0.33333333 0.3 0
0.36666667 0.3 0
0.4 0.3 0
0.43333333 0.3 0
0.46666667 0.3 0
0.5 0.3 0
0.53333333 0.3 0
0.56666667 0.3 0
0.6 0.3 0
0.63333333 0.3 0
0.66666667 0.3 0
0.7 0.3 0
0.73333333 0.3 0
0.76666667 0.3 0
0.8 0.3 0
0.83333333 0.3 0
0.86666667 0.3 0
0.9 0.3 0
0.93333333 0.3 0
0.96666667 0.3 0
1 0.3 0
0 0.33333333 0
0.033333333 0.33333333 0
0.066666667 0.33333333 0
0.1 0.33333333 0
0.13333333 0.33333333 0
0.16666667 0.33333333 0
0.2 0.33333333 0
0.23333333 0.33333333 0
0.26666667 0.33333333 0
0.3 0.33333333 0
0.33333333 0.33333333 0
0.36666667 0.33333333 0
0.4 0.33333333 0
0.43333333 0.33333333 0
0.46666667 0.33333333 0
0.5 0.33333333 0
0.53333333 0.33333333 0
0.56666667 0.33333333 0
0.6 0.33333333 0
0.63333333 0.33333333 0
0.66666667 0.33333333 0
0.7 0.33333333 0
0.73333333 0.33333333 0
0.76666667 0.33333333 0
0.8 0.33333333 0
0.83333333 0.33333333 0
0.86666667 0.33333333 0
0.9 0.33333333 0
0.93333333 0.33333333 0
0.96666667 0.33333333 0
1 0.33333333 0
0 0.36666667 0
0.033333333 0.36666667 0
0.066666667 0.36666667 0
0.1 0.36666667 0
0.13333333 0.36666667 0
0.16666667 0.36666667 0
0.2 0.36666667 0
0.23333333 0.36666667 0
0.26666667 0.36666667 0
0.3 0.36666667 0
0.33333333 0.36666667 0
0.36666667 0.36666667 0
0.4 0.36666667 0
0.43333333 0.36666667 0
0.46666667 0.36666667 0
0.5 0.36666667 0
0.53333333 0.36666667 0
0.56666667 0.36666667 0
0.6 0.36666667 0
0.63333333 0.36666667 0
0.66666667 0.36666667 0
0.7 0.36666667 0
0.73333333 0.36666667 0
0.76666667 0.36666667 0
0.8 0.36666667 0
0.83333333 0.36666667 0
0.86666667 0.36666667 0
0.9 0.36666667 0
0.93333333 0.36666667 0
0.96666667 0.36666667 0
1 0.36666667 0
0 0.4 0
0.033333333 0.4 0
0.066666667 0.4 0
0.1 0.4 0
0.13333333 0.4 0
0.16666667 0.4 0
0.2 0.4 0
0.23333333 0.4 0
0.26666667 0.4 0
0.3 0.4 0
0.33333333 0.4 0
0.36666667 0.4 0
0.4 0.4 0
0.43333333 0.4 0
0.46666667 0.4 0
0.5 0.4 0
0.53333333 0.4 0
0.56666667 0.4 0
0.6 0.4 0
0.63333333 0.4 0
0.66666667 0.4 0
0.7 0.4 0
0.73333333 0.4 0
0.76666667 0.4 0
0.8 0.4 0
0.83333333 0.4 0
0.86666667 0.4 0
0.9 0.4 0
0.93333333 0.4 0
0.96666667 0.4 0
1 0.4 0
0 0.43333333 0
0.033333333 0.43333333 0
0.066666667 0.43333333 0
0.1 0.43333333 0
0.13333333 0.43333333 0
0.16666667 0.43333333 0
0.2 0.43333333 0
0.23333333 0.43333333 0
0.26666667 0.43333333 0
0.3 0.43333333 0
0.33333333 0.43333333 0
0.36666667 0.43333333 0
0.4 0.43333333 0
0.43333333 0.43333333 0
0.46666667 0.43333333 0
0.5 0.43333333 0
0.53333333 0.43333333 0
0.56666667 0.43333333 0
0.6 0.43333333 0
0.63333333 0.43333333 0
0.66666667 0.43333333 0
0.7 0.43333333 0
0.73333333 0.43333333 0
0.76666667 0.43333333 0
0.8 0.43333333 0
0.83333333 0.43333333 0
0.86666667 0.43333333 0
0.9 0.43333333 0
0.93333333 0.43333333 0
0.96666667 0.43333333 0
1 0.43333333 0
0 0.46666667 0
0.033333333 0.46666667 0
0.066666667 0.46666667 0
0.1 0.46666667 0
0.13333333 0.46666667 0
0.16666667 0.46666667 0
0.2 0.46666667 0
0.23333333 0.46666667 0
0.26666667 0.46666667 0
0.3 0.46666667 0
0.33333333 0.46666667 0
0.36666667 0.46666667 0
0.4 0.46666667 0
0.43333333 0.46666667 0
0.46666667 0.46666667 0
0.5 0.46666667 0
0.53333333 0.46666667 0
0.56666667 0.46666667 0
0.6 0.46666667 0
0.63333333 0.46666667 0
0.66666667 0.46666667 0
0.7 0.46666667 0
0.73333333 0.46666667 0
0.76666667 0.46666667 0
0.8 0.46666667 0
0.83333333 0.46666667 0
0.86666667 0.46666667 0
0.9 0.46666667 0
0.93333333 0.46666667 0
0.96666667 0.46666667 0
1 0.46666667 0
0 0.5 0
0.033333333 0.5 0
0.066666667 0.5 0
0.1 0.5 0
0.13333333 0.5 0
0.16666667 0.5 0
0.2 0.5 0
0.23333333 0.5 0
0.26666667 0.5 0
0.3 0.5 0
0.33333333 0.5 0
0.36666667 0.5 0
0.4 0.5 0
0.43333333 0.5 0
0.46666667 0.5 0
0.5 0.5 0
0.53333333 0.5 0
0.56666667 0.5 0
0.6 0.5 0
0.63333333 0.5 0
0.66666667 0.5 0
0.7 0.5 0
0.73333333 0.5 0
0.76666667 0.5 0
0.8 0.5 0
0.83333333 0.5 0
0.86666667 0.5 0
0.9 0.5 0
0.93333333 0.5 0
0.96666667 0.5 0
1 0.5 0
0 0.53333333 0
0.033333333 0.53333333 0
0.066666667 0.53333333 0
0.1 0.53333333 0
0.13333333 0.53333333 0
0.16666667 0.53333333 0
0.2 0.53333333 0
0.23333333 0.53333333 0
0.26666667 0.53333333 0
0.3 0.53333333 0
0.33333333 0.53333333 0
0.36666667 0.53333333 0
0.4 0.53333333 0
0.43333333 0.53333333 0
0.46666667 0.53333333 0
0.5 0.53333333 0
0.53333333 0.53333333 0
0.56666667 0.53333333 0
0.6 0.53333333 0
0.63333333 0.53333333 0
0.66666667 0.53333333 0
0.7 0.53333333 0
0.73333333 0.53333333 0
0.76666667 0.53333333 0
0.8 0.53333333 0
[...]
CELL_DATA 1920
Scalars  Label int 1
LOOKUP_TABLE FreeFempp_table
0
0
0
0
0
0
0
0
0
0
0
0
0
0
0
0
0
0
0
0
0
0
0
0
0
0
0
0
0
0
0
0
0
0
0
0
0
0
0
0
0
0
0
0
0
0
0
0
0
0
0
0
0
0
0
0
0
0
0
0
0
0
0
0
0
0
0
0
0
0
0
0
0
0
0
0
0
0
0
0
0
0
0
0
0
0
0
0
0
0
0
0
0
0
0
0
0
0
0
0
0
0
0
0
0
0
0
0
0
0
0
0
0
0
0
0
0
0
0
0
0
0
0
0
0
0
0
0
0
0
0
0
0
0
0
0
0
0
0
0
0
0
0
0
0
0
0
0
0
0
0
0
0
0
0
0
0
0
0
0
0
0
0
0
0
0
0
0
0
0
0
0
0
0
0
0
0
0
0
0
0
0
0
0
0
0
0
0
0
0
0
0
0
0
0
0
0
0
0
0
0
0
0
0
0
0
0
0
0
0
0
0
0
0
0
0
0
0
0
0
0
0
0
0
0
0
0
0
0
0
0
0
0
0
0
0
0
0
0
0
0
0
0
0
0
0
0
0
0
0
0
0
0
0
0
0
0
0
0
0
0
0
0
0
0
0
0
0
0
0
0
0
0
0
0
0
0
0
0
0
0
0
0
0
0
0
0
0
0
0
0
0
0
0
0
0
0
0
0
0
0
0
0
0
0
0
0
0
0
0
0
0
0
0
0
0
0
0
0
0
0
0
0
0
0
0
0
0
0
0
0
0
0
0
0
0
0
0
0
0
0
0
0
0
0
0
0
0
0
0
0
0
0
0
0
0
0
0
0
0
0
0
0
0
0
0
0
0
0
0
0
0
0
0
0
0
0
0
0
0
0
0
0
0
0
0
0
0
0
0
0
0
0
0
0
0
0
0
0
0
0
0
0
0
0
0
0
0
0
0
0
0
0
0
0
0
0
0
0
0
0
0
0
0
0
0
0
0
0
0
0
0
0
0
0
0
0
0
0
0
0
0
0
0
0
0
0
0
0
0
0
0
0
0
0
0
0
0
0
0
0
0
0
0
0
0
0
0
0
0
0
0
0
0
0
0
0
0
0
0
0
0
0
0
0
0
0
0
0
0
0
0
0
0
0
0
0
0
0
0
0
0
0
0
0
0
0
0
0
0
0
0
0
0
0
0
0
0
0
0
0
0
0
0
0
0
0
0
0
0
0
0
0
0
0
0
0
0
0
0
0
0
0
0
0
0
0
0
0
0
0
0
0
0
0
0
0
0
0
0
0
0
0
0
0
0
0
0
0
0
0
0
0
0
0
0
0
0
0
0
0
0
0
0
0
0
0
0
0
0
0
0
0
0
0
0
0
0
0
0
0
0
0
0
0
0
0
0
0
0
0
0
0
0
0
0
0
0
0
0
0
0
0
0
0
0
0
0
0
0
0
0
0
0
0
0
0
0
0
0
0
0
0
0
0
0
0
0
0
0
0
0
0
0
0
0
0
0
0
0
0
0
0
0
0
0
0
0
0
0
0
0
0
0
0
0
0
0
0
0
0
0
0
0
0
0
0
0
0
0
0
0
0
0
0
0
0
0
0
0
0
0
0
0
0
0
0
0
0
0
0
0
0
0
0
0
0
0
0
0
0
0
0
0
0
0
0
0
0
0
0
0
0
0
0
0
0
0
0
0
0
0
0
0
0
0
0
0
0
0
0
0
0
0
0
0
0
0
0
0
0
0
0
0
0
0
0
0
0
0
0
0
0
0
0
0
0
0
0
0
0
0
0
0
0
0
0
0
0
0
0
0
0
0
0
0
0
0
0
0
0
0
0
0
0
0
0
0
0
0
0
0
0
0
0
0
0
0
0
0
0
0
0
0
0
0
0
0
0
0
0
0
0
0
0
0
0
0
0
0
0
0
0
0
0
0
0
0
0
0
0
0
0
0
0
0
0
0
0
0
0
0
0
0
0
0
0
0
0
0
0
0
0
0
0
0
0
0
0
0
0
0
0
0
0
0
0
0
0
0
0
0
0
0
0
0
0
0
0
0
0
0
0
0
0
0
0
0
0
0
0
0
0
0
0
0
0
0
0
0
0
0
0
0
0
0
0
0
0
0
0
0
0
0
0
0
0
0
0
0
0
0
0
0
0
0
0
0
0
0
0
0
0
0
0
0
0
0
0
0
0
0
0
0
0
0
0
0
0
0
0
0
0
0
0
0
0
0
0
0
0
0
0
0
0
0
0
0
0
0
0
0
0
0
0
0
0
0
0
0
0
0
0
0
0
0
0
0
0
0
0
0
0
0
0
0
0
0
0
0
0
0
0
0
0
0
0
0
0
0
0
0
0
0
0
0
0
0
0
0
0
0
0
0
0
0
0
0
0
0
0
0
0
0
0
0
0
0
0
0
0
0
0
0
0
0
0
0
0
0
0
0
0
0
0
0
0
0
0
0
0
0
0
0
0
0
0
0
0
0
0
0
0
0
0
0
0
0
0
0
0
0
0
0
0
0
0
0
0
0
0
0
0
0
0
0
0
0
0
0
0
0
0
0
0
0
0
0
0
0
0
0
0
0
0
0
0
0
0
0
0
0
0
0
0
0
0
0
0
0
0
0
0
0
0
0
0
0
0
0
0
0
0
0
0
0
0
0
0
0
0
0
0
0
0
0
0
0
0
0
0
0
0
0
0
0
0
0
0
0
0
0
0
0
0
0
0
0
0
0
0
0
0
0
0
0
0
0
0
0
0
0
0
0
0
0
0
0
0
0
0
0
0
0
0
0
0
0
0
0
0
0
0
0
0
0
0
0
0
0
0
0
0
0
0
0
0
0
0
0
0
0
0
0
0
0
0
0
0
0
0
0
0
0
0
0
0
0
0
0
0
0
0
0
0
0
0
0
0
0
0
0
0
0
0
0
0
0
0
0
0
0
0
0
0
0
0
0
0
0
0
0
0
0
0
0
0
0
0
0
0
0
0
0
0
0
0
0
0
0
0
0
0
0
0
0
0
0
0
0
0
0
0
0
0
0
0
0
0
0
0
0
0
0
0
0
0
0
0
0
0
0
0
0
0
0
0
0
0
0
0
0
0
0
0
0
0
0
0
0
0
0
0
0
0
0
0
0
0
0
0
0
0
0
0
0
0
0
0
0
0
0
0
0
0
0
0
0
0
0
0
0
0
0
0
0
0
0
0
0
0
0
0
0
0
0
0
0
0
0
0
0
0
0
0
0
0
0
0
0
0
0
0
0
0
0
0
0
0
0
0
0
0
0
0
0
0
0
0
0
0
0
0
0
0
0
0
0
0
0
0
0
0
0
0
0
0
0
0
0
0
0
0
0
0
0
0
0
0
0
0
0
0
0
0
0
0
0
0
0
0
0
0
0
0
0
0
0
0
0
0
0
0
0
0
0
0
0
0
0
0
0
0
0
0
0
0
0
0
0
0
0
0
0
0
0
0
0
0
0
0
0
0
0
0
0
0
0
0
0
0
0
0
0
0
0
0
0
0
0
0
0
0
0
0
0
0
0
0
0
0
0
0
0
0
0
0
0
0
0
0
0
0
0
0
0
0
0
0
0
0
0
0
0
0
0
0
0
0
0
0
0
0
0
0
0
0
0
0
0
0
0
0
0
0
0
0
0
0
0
0
0
0
0
0
0
0
0
0
0
0
0
0
0
0
0
0
0
0
0
0
0
0
0
0
0
0
0
0
0
0
0
0
0
0
0
0
0
0
0
0
0
0
0
0
0
0
0
0
0
0
0
0
0
0
0
0
0
0
0
0
0
0
0
0
0
0
0
0
0
0
0
0
0
0
0
0
0
0
0
0
0
0
0
0
0
0
0
0
0
0
0
0
0
0
0
0
0
0
0
0
0
0
0
0
0
0
0
0
0
0
0
0
0
0
0
0
0
0
0
0
0
0
0
0
0
0
0
0
0
0
0
0
0
0
0
0
0
0
0
0
0
0
0
0
0
0
0
0
0
0
0
0
0
0
0
0
0
0
0
0
0
0
0
0
0
0
0
0
0
0
0
0
0
0
0
0
0
0
0
0
0
0
0
0
0
0
0
0
0
1
1
1
1
1
1
1
1
1
1
1
1
1
1
1
1
1
1
1
1
1
1
1
1
1
1
1
1
1
1
2
2
2
2
2
2
2
2
2
2
2
2
2
2
2
2
2
2
2
2
2
2
2
2
2
2
2
2
2
2
3
3
3
3
3
3
3
3
3
3
3
3
3
3
3
3
3
3
3
3
3
3
3
3
3
3
3
3
3
3
4
4
4
4
4
4
4
4
4
4
4
4
4
4
4
4
4
4
4
4
4
4
4
4
4
4
4
4
4
4

LOOKUP_TABLE FreeFempp_table 5
1.00000000 0.00000000 0.00000000 1.00000000
1.00000000 1.00000000 0.00000000 1.00000000
1.00000000 0.00000000 1.00000000 1.00000000
0.00000000 1.00000000 0.00000000 1.00000000
0.00000000 1.00000000 1.00000000 1.00000000

POINT_DATA 961
FIELD FieldData 1
Density 1 961 float
3.16298455e-01 3.18940490e-01 3.31546783e-01 3.38090956e-01 3.39952856e-01 3.39300752e-01 3.30893576e-01 2.91601270e-01 1.79443046e-01 3.21942121e-02 4.23629247e-02 2.13250026e-01 3.61001104e-01 4.66258407e-01 5.52275002e-01 5.68075061e-01 4.86209065e-01 4.17140514e-01 4.36385512e-01 4.91803229e-01 5.20615101e-01 5.43291330e-01 5.61654270e-01 5.65348804e-01 5.57643294e-01 5.48946202e-01 5.45519650e-01 5.42063177e-01 5.36703289e-01 5.30627966e-01 5.27283490e-01 2.05751389e-01 2.20571190e-01 2.34259292e-01 2.40686670e-01 2.42309883e-01 2.41708562e-01 2.36060187e-01 2.11525306e-01 1.40781030e-01 2.96964869e-02 2.41384692e-02 1.57645702e-01 3.08592260e-01 4.17605519e-01 5.16701639e-01 5.52097082e-01 4.26061958e-01 2.82003284e-01 2.70662576e-01 3.40976268e-01 3.90119374e-01 4.43504035e-01 4.90275204e-01 5.10395944e-01 5.12608886e-01 5.15855551e-01 5.27372122e-01 5.32029808e-01 5.29473007e-01 5.24817228e-01 5.22569418e-01 3.08596808e-02 3.68954763e-02 3.97896394e-02 4.10841703e-02 4.13593203e-02 4.12918590e-02 4.05663103e-02 3.71504985e-02 2.66667157e-02 7.32671609e-03 4.41871956e-03 4.24970463e-02 1.54631168e-01 2.50523955e-01 3.71965259e-01 5.11988044e-01 4.22676831e-01 1.37235045e-01 4.71535996e-02 5.91298379e-02 8.60614106e-02 1.70974344e-01 2.61440665e-01 3.06506217e-01 3.24776083e-01 3.67192596e-01 4.44665819e-01 4.84900862e-01 4.97182995e-01 4.99657929e-01 5.01840055e-01 4.64270003e-02 4.05253656e-02 3.87426093e-02 3.84697467e-02 3.88858989e-02 3.94953266e-02 3.99900042e-02 4.01949361e-02 3.99446301e-02 3.90651412e-02 3.63859758e-02 2.38563176e-02 2.30549909e-02 4.33742180e-02 1.01076812e-01 3.63741517e-01 5.45169353e-01 3.63036484e-01 1.17921479e-01 7.30404258e-02 4.27769460e-02 2.41494142e-02 4.58256751e-02 5.29652573e-02 5.95472492e-02 9.35529470e-02 2.75662988e-01 3.93575311e-01 4.39951718e-01 4.58463460e-01 4.67262954e-01 2.50786752e-01 2.38043964e-01 2.30513349e-01 2.29347467e-01 2.32022002e-01 2.35648915e-01 2.38690689e-01 2.40568727e-01 2.40595564e-01 2.36031353e-01 2.17129514e-01 1.60774693e-01 6.50546178e-02 3.83802615e-02 2.52693072e-02 9.53006372e-02 3.59131157e-01 5.01695633e-01 4.40440893e-01 4.07261997e-01 3.14105421e-01 1.21406883e-01 9.70355794e-02 7.81820193e-02 7.92394653e-02 5.67697771e-02 8.04584920e-02 2.45694757e-01 3.52981776e-01 4.07962978e-01 4.27556872e-01 3.76854658e-01 3.71427089e-01 3.62791896e-01 3.60875875e-01 3.64495397e-01 3.69818777e-01 3.74569923e-01 3.78000855e-01 3.79714012e-01 3.78147095e-01 3.67873013e-01 3.37457210e-01 2.79951960e-01 2.27501884e-01 1.48153320e-01 5.23901023e-02 5.67749850e-02 1.26426354e-01 2.71094322e-01 4.50675249e-01 5.90209067e-01 4.49203640e-01 4.24077451e-01 4.14165437e-01 3.95013273e-01 3.34044337e-01 1.10858291e-01 6.26820251e-02 1.81694612e-01 3.15145165e-01 3.70267093e-01 4.27453488e-01 4.23366487e-01 4.16111350e-01 4.14373010e-01 4.17496920e-01 4.22325969e-01 4.26917642e-01 4.30670500e-01 4.33513850e-01 4.35062140e-01 4.33629036e-01 4.25754607e-01 4.09328580e-01 3.87685746e-01 3.38624209e-01 2.30523691e-01 7.20843300e-02 2.41574161e-02 3.64949107e-02 1.15753382e-01 3.58339071e-01 3.88975739e-01 3.63763481e-01 4.54006881e-01 5.22898495e-01 5.37343502e-01 4.02924120e-01 9.39760804e-02 3.97987962e-02 1.29004553e-01 2.37409517e-01 4.52605128e-01 4.48774278e-01 4.43530351e-01 4.42411155e-01 4.44622397e-01 4.48078632e-01 4.51589763e-01 4.54770386e-01 4.57591176e-01 4.59964722e-01 4.61430550e-01 4.61129159e-01 4.58582759e-01 4.53657538e-01 4.38227683e-01 3.93409759e-01 2.90777683e-01 1.43193573e-01 3.69539596e-02 9.88539774e-03 5.57414740e-02 9.21152383e-02 9.26119611e-02 2.16624260e-01 3.57465923e-01 5.14800072e-01 5.47298133e-01 3.02209169e-01 5.33134118e-02 2.34434716e-02 6.30724952e-02 4.70560104e-01 4.67205822e-01 4.63945955e-01 4.63536710e-01 4.65068787e-01 4.67338890e-01 4.69766468e-01 4.72130388e-01 4.74345654e-01 4.76309448e-01 4.77827191e-01 4.78701264e-01 4.79016364e-01 4.79005784e-01 4.76933151e-01 4.66964662e-01 4.36350018e-01 3.58066291e-01 2.05394387e-01 8.67968127e-02 8.18178877e-02 7.08528832e-02 4.04832140e-02 4.08563428e-02 1.01691887e-01 2.95417815e-01 5.33973038e-01 4.96875226e-01 1.78255334e-01 1.91490483e-02 7.90912472e-03 4.82575655e-01 4.79369015e-01 4.77613091e-01 4.77905333e-01 4.79221076e-01 4.80916023e-01 4.82717514e-01 4.84469801e-01 4.86046731e-01 4.87334520e-01 4.88249868e-01 4.88829464e-01 4.89363343e-01 4.90364820e-01 4.92083758e-01 4.93939608e-01 4.93280053e-01 4.82355326e-01 4.42652166e-01 3.84463280e-01 3.48399460e-01 3.07559311e-01 1.87973186e-01 7.52366930e-02 4.64831479e-02 9.80712250e-02 3.48957837e-01 5.70898712e-01 3.86559278e-01 5.70578836e-02 5.10470010e-03 4.85287547e-01 4.81553346e-01 4.80876595e-01 4.82215494e-01 4.84144419e-01 4.86226320e-01 4.88234103e-01 4.89983320e-01 4.91330445e-01 4.92201835e-01 4.92626488e-01 4.92786109e-01 4.93062139e-01 4.94016439e-01 4.96280462e-01 5.00481963e-01 5.06967604e-01 5.14743686e-01 5.19834220e-01 5.17899454e-01 5.04645348e-01 4.68829840e-01 3.90032202e-01 2.94777870e-01 2.19775200e-01 1.69964701e-01 2.88426280e-01 5.52959859e-01 5.03794134e-01 8.84209201e-02 1.68447918e-03 4.75331962e-01 4.70227569e-01 4.70366508e-01 4.73615736e-01 4.77553695e-01 4.81484234e-01 4.84979868e-01 4.87744749e-01 4.89635020e-01 4.90664095e-01 4.90994394e-01 4.90931839e-01 4.90914494e-01 4.91480082e-01 4.93223131e-01 4.96775091e-01 5.02694309e-01 5.11039436e-01 5.20701587e-01 5.29183507e-01 5.32266259e-01 5.24159968e-01 4.98275757e-01 4.58904535e-01 4.17511791e-01 3.87119085e-01 4.46391106e-01 6.17306948e-01 5.57972968e-01 1.02655180e-01 -1.65202073e-03 4.51235533e-01 4.43798840e-01 4.44539666e-01 4.51014012e-01 4.58960325e-01 4.66744214e-01 4.73432630e-01 4.78536606e-01 4.81945693e-01 4.83830482e-01 4.84541327e-01 4.84535366e-01 4.84325200e-01 4.84437615e-01 4.85380381e-01 4.87604201e-01 4.91395980e-01 4.96653557e-01 5.02665460e-01 5.08143246e-01 5.11484742e-01 5.11184514e-01 5.05495071e-01 4.94754970e-01 4.85655516e-01 4.95795161e-01 5.64206541e-01 6.71464086e-01 5.56066275e-01 1.02566041e-01 -2.32407125e-03 4.13399130e-01 4.02688980e-01 4.03847277e-01 4.15267408e-01 4.29836571e-01 4.43996161e-01 4.55882162e-01 4.64750797e-01 4.70626980e-01 4.73975450e-01 4.75443244e-01 4.75710124e-01 4.75416660e-01 4.75132227e-01 4.75335479e-01 4.76379007e-01 4.78405148e-01 4.81226385e-01 4.84273553e-01 4.86707270e-01 4.87625092e-01 4.86312151e-01 4.82692569e-01 4.79574561e-01 4.87197280e-01 5.25066197e-01 6.07971191e-01 6.76617384e-01 5.17094076e-01 9.45086554e-02 -2.38621049e-03 3.63075972e-01 3.48412007e-01 3.49987924e-01 3.68529439e-01 3.92999232e-01 4.16526765e-01 4.35730934e-01 4.49641287e-01 4.58668977e-01 4.63817686e-01 4.66195136e-01 4.66797560e-01 4.66453344e-01 4.65829968e-01 4.65448797e-01 4.65676457e-01 4.66680110e-01 4.68373954e-01 4.70416605e-01 4.72272128e-01 4.73282218e-01 4.72893506e-01 4.71713841e-01 4.74448234e-01 4.93757010e-01 5.46886265e-01 6.28515542e-01 6.55955732e-01 4.64379460e-01 8.52007642e-02 8.04646581e-04 3.02093953e-01 2.83381402e-01 2.85897762e-01 3.14158261e-01 3.52273136e-01 3.88291806e-01 4.16645855e-01 4.36379999e-01 4.48754698e-01 4.55659688e-01 4.58845794e-01 4.59699839e-01 4.59266931e-01 4.58336890e-01 4.57515597e-01 4.57255065e-01 4.57844675e-01 4.59389865e-01 4.61809099e-01 4.64848965e-01 4.68135953e-01 4.71531183e-01 4.76446271e-01 4.88548815e-01 5.19500911e-01 5.78227043e-01 6.40165091e-01 6.16644979e-01 4.01981801e-01 7.39767477e-02 4.50910116e-03 2.33689412e-01 2.11909488e-01 2.17031822e-01 2.57820398e-01 3.12981337e-01 3.63723218e-01 4.01948035e-01 4.27314609e-01 4.42550808e-01 4.50770408e-01 4.54477221e-01 4.55447197e-01 4.54909056e-01 4.53748375e-01 4.52648759e-01 4.52162594e-01 4.52727199e-01 4.54652637e-01 4.58106279e-01 4.63117212e-01 4.69690174e-01 4.78300780e-01 4.91143674e-01 5.13780177e-01 5.53749204e-01 6.07641459e-01 6.35084867e-01 5.57330847e-01 3.31605375e-01 6.23993501e-02 7.32773682e-03 1.63116589e-01 1.41044974e-01 1.52165532e-01 2.08291918e-01 2.82128960e-01 3.47345293e-01 3.94060493e-01 4.23506349e-01 4.40399855e-01 4.49198931e-01 4.53086585e-01 4.54108804e-01 4.53575581e-01 4.52393830e-01 4.51274186e-01 4.50834066e-01 4.51630205e-01 4.54151720e-01 4.58807260e-01 4.65956777e-01 4.76095557e-01 4.90345478e-01 5.11222482e-01 5.42635679e-01 5.85392416e-01 6.23066843e-01 6.07243657e-01 4.82346952e-01 2.61661083e-01 5.55104166e-02 1.25866439e-02 9.74062607e-02 8.04873928e-02 1.01654947e-01 1.75594687e-01 2.66526699e-01 3.42420876e-01 3.93821061e-01 4.24556345e-01 4.41442400e-01 4.50019389e-01 4.53845739e-01 4.55011308e-01 4.54761684e-01 4.53930467e-01 4.53183442e-01 4.53137875e-01 4.54406917e-01 4.57612455e-01 4.63411480e-01 4.72589523e-01 4.86254305e-01 5.06042957e-01 5.33920586e-01 5.70250690e-01 6.07346833e-01 6.18317544e-01 5.57118416e-01 3.99569213e-01 1.99397221e-01 5.46588637e-02 2.32017227e-02 4.52757590e-02 4.05143090e-02 7.39493817e-02 1.66248858e-01 2.69254386e-01 3.49241406e-01 4.00070161e-01 4.28853542e-01 4.44108695e-01 4.51853096e-01 4.55566674e-01 4.57118511e-01 4.57549512e-01 4.57538992e-01 4.57645625e-01 4.58421558e-01 4.60468560e-01 4.64494348e-01 4.71422225e-01 4.82559294e-01 4.99669492e-01 5.24524033e-01 5.57283759e-01 5.92882335e-01 6.14868522e-01 5.91308773e-01 4.88975853e-01 3.16428810e-01 1.47265032e-01 5.44955470e-02 3.64397764e-02 1.82580855e-02 2.37330440e-02 7.15489611e-02 1.79502219e-01 2.87742317e-01 3.64752233e-01 4.10080194e-01 4.34249520e-01 4.46764529e-01 4.53405410e-01 4.57135022e-01 4.59386736e-01 4.60900843e-01 4.62157607e-01 4.63578403e-01 4.65618789e-01 4.68839288e-01 4.74026710e-01 4.82403636e-01 4.95813757e-01 5.16443431e-01 5.45330465e-01 5.79190731e-01 6.06175959e-01 6.03057086e-01 5.40744483e-01 4.07419622e-01 2.38770381e-01 1.08730122e-01 5.78766465e-02 5.39158620e-02 8.68142396e-03 2.07257494e-02 8.93441364e-02 2.08409876e-01 3.15412283e-01 3.84095937e-01 4.20701891e-01 4.38820660e-01 4.48188841e-01 4.53776121e-01 4.57743287e-01 4.60973829e-01 4.63869154e-01 4.66704726e-01 4.69775200e-01 4.73463804e-01 4.78332669e-01 4.85305905e-01 4.95923430e-01 5.12364864e-01 5.36504030e-01 5.67155480e-01 5.95869184e-01 6.04092956e-01 5.66667736e-01 4.66754556e-01 3.18502098e-01 1.73752427e-01 8.96444395e-02 7.50868842e-02 8.54021609e-02 6.58368692e-03 2.44625770e-02 1.18065454e-01 2.44039744e-01 3.45314980e-01 4.02823776e-01 4.29440528e-01 4.41288501e-01 4.47693765e-01 4.52482402e-01 4.56910491e-01 4.61296797e-01 4.65715945e-01 4.70263958e-01 4.75151479e-01 4.80758935e-01 4.87742841e-01 4.97230262e-01 5.10973334e-01 5.30970931e-01 5.57667792e-01 5.86208403e-01 6.02415681e-01 5.83532631e-01 5.09422183e-01 3.82812411e-01 2.41227537e-01 1.37573794e-01 1.00587189e-01 1.16961755e-01 1.38162598e-01 5.99127170e-03 2.90752556e-02 1.46859482e-01 2.79228777e-01 3.72684866e-01 4.18040544e-01 4.34790194e-01 4.40974832e-01 4.44972634e-01 4.49317366e-01 4.54386592e-01 4.59994137e-01 4.65941519e-01 4.72189188e-01 4.78908896e-01 4.86535162e-01 4.95869190e-01 5.08200288e-01 5.25208116e-01 5.48072994e-01 5.75060546e-01 5.97722054e-01 5.98485351e-01 5.55352449e-01 4.58111107e-01 3.28079164e-01 2.13852987e-01 1.54354617e-01 1.55326560e-01 1.92062542e-01 2.15614364e-01 5.56352362e-03 3.30614783e-02 1.71907052e-01 3.10509890e-01 3.95048380e-01 4.28126007e-01 4.35941100e-01 4.37562585e-01 4.39922482e-01 4.44214076e-01 4.50043827e-01 4.56843138e-01 4.64232475e-01 4.72085834e-01 4.80546087e-01 4.90076989e-01 5.01546025e-01 5.16222954e-01 5.35405099e-01 5.59192598e-01 5.84086597e-01 6.00208759e-01 5.91172874e-01 5.40947616e-01 4.48799640e-01 3.41965884e-01 2.63749093e-01 2.38910615e-01 2.59236753e-01 2.97068745e-01 3.14443678e-01 5.14923641e-03 3.67374159e-02 1.94231391e-01 3.36977273e-01 4.11070287e-01 4.32175994e-01 4.32562470e-01 4.31043804e-01 4.32627231e-01 4.37204927e-01 4.43803310e-01 4.51658547e-01 4.60337609e-01 4.69676733e-01 4.79754895e-01 4.90945578e-01 5.03983140e-01 5.19877970e-01 5.39411664e-01 5.61936617e-01 5.83552480e-01 5.95715344e-01 5.86630881e-01 5.47611654e-01 4.82909650e-01 4.14785951e-01 3.71674508e-01 3.64548922e-01 3.82550269e-01 4.06488478e-01 4.14337337e-01 4.86239651e-03 4.02879342e-02 2.14639083e-01 3.58252525e-01 4.20130014e-01 4.30179209e-01 4.25123632e-01 4.21994328e-01 4.23516542e-01 4.28476721e-01 4.35617030e-01 4.44217950e-01 4.53941017e-01 4.64639515e-01 4.76287067e-01 4.89023000e-01 5.03223956e-01 5.19432187e-01 5.37931740e-01 5.57860553e-01 5.76113105e-01 5.86926699e-01 5.83485067e-01 5.62105179e-01 5.27060449e-01 4.91359234e-01 4.69097286e-01 4.64321256e-01 4.71152931e-01 4.80770856e-01 4.82589215e-01 4.86039510e-03 4.37166132e-02 2.33109996e-01 3.74328613e-01 4.23189610e-01 4.24081385e-01 4.15790886e-01 4.12217766e-01 4.13834333e-01 4.18759257e-01 4.25826758e-01 4.34596151e-01 4.44953412e-01 4.56834644e-01 4.70118523e-01 4.84651178e-01 5.00322819e-01 5.17070353e-01 5.34664512e-01 5.52233517e-01 5.67732811e-01 5.77904522e-01 5.79314053e-01 5.70388913e-01 5.53242147e-01 5.33528328e-01 5.17406106e-01 5.07803023e-01 5.04669070e-01 5.06088853e-01 5.06517529e-01 5.11570601e-03 4.68790345e-02 2.50576615e-01 3.87859285e-01 4.24933106e-01 4.19430315e-01 4.09699231e-01 4.05927718e-01 4.06944603e-01 4.10823137e-01 4.16818440e-01 4.24892873e-01 4.35204655e-01 4.47821200e-01 4.62599427e-01 4.79175210e-01 4.97009933e-01 5.15433192e-01 5.33616424e-01 5.50451458e-01 5.64420760e-01 5.73679328e-01 5.76530218e-01 5.72155237e-01 5.61156213e-01 5.45626402e-01 5.28701901e-01 5.13791323e-01 5.04244626e-01 5.01858890e-01 5.02772868e-01 1.63120392e-03 4.73274253e-02 2.67971843e-01 4.03681278e-01 4.31926638e-01 4.22418565e-01 4.12007302e-01 4.07581270e-01 4.07112986e-01 4.09061581e-01 4.13178414e-01 4.19754773e-01 4.29140747e-01 4.41514373e-01 4.56775784e-01 4.74506587e-01 4.93964463e-01 5.14099121e-01 5.33587456e-01 5.50900996e-01 5.64437926e-01 5.72756410e-01 5.74881613e-01 5.70531309e-01 5.60134411e-01 5.44840991e-01 5.26749194e-01 5.09096563e-01 4.96076375e-01 4.91226524e-01 4.92413789e-01 1.14084743e-02 4.67915237e-02 2.73886234e-01 4.16987091e-01 4.40712661e-01 4.27808106e-01 4.16372955e-01 4.11429226e-01 4.10089731e-01 4.10909116e-01 4.13869858e-01 4.19386506e-01 4.27859902e-01 4.39497292e-01 4.54226762e-01 4.71651047e-01 4.91021812e-01 5.11232436e-01 5.30846775e-01 5.48197865e-01 5.61587930e-01 5.69591880e-01 5.71380258e-01 5.66887319e-01 5.56717515e-01 5.42013705e-01 5.24604023e-01 5.07294297e-01 4.93849933e-01 4.87659842e-01 4.87662733e-01 
