# vtk DataFile Version 2.0
results_case1_non_linear/iter6.vtk, Created by Freefem++ 
ASCII
DATASET UNSTRUCTURED_GRID
POINTS 961 float
0 0 0
0.033333333 0 0
0.066666667 0 0
0.1 0 0
0.13333333 0 0
0.16666667 0 0
0.2 0 0
0.23333333 0 0
0.26666667 0 0
0.3 0 0
0.33333333 0 0
0.36666667 0 0
0.4 0 0
0.43333333 0 0
0.46666667 0 0
0.5 0 0
0.53333333 0 0
0.56666667 0 0
0.6 0 0
0.63333333 0 0
0.66666667 0 0
0.7 0 0
0.73333333 0 0
0.76666667 0 0
0.8 0 0
0.83333333 0 0
0.86666667 0 0
0.9 0 0
0.93333333 0 0
0.96666667 0 0
1 0 0
0 0.033333333 0
0.033333333 0.033333333 0
0.066666667 0.033333333 0
0.1 0.033333333 0
0.13333333 0.033333333 0
0.16666667 0.033333333 0
0.2 0.033333333 0
0.23333333 0.033333333 0
0.26666667 0.033333333 0
0.3 0.033333333 0
0.33333333 0.033333333 0
0.36666667 0.033333333 0
0.4 0.033333333 0
0.43333333 0.033333333 0
0.46666667 0.033333333 0
0.5 0.033333333 0
0.53333333 0.033333333 0
0.56666667 0.033333333 0
0.6 0.033333333 0
0.63333333 0.033333333 0
0.66666667 0.033333333 0
0.7 0.033333333 0
0.73333333 0.033333333 0
0.76666667 0.033333333 0
0.8 0.033333333 0
0.83333333 0.033333333 0
0.86666667 0.033333333 0
0.9 0.033333333 0
0.93333333 0.033333333 0
0.96666667 0.033333333 0
1 0.033333333 0
0 0.066666667 0
0.033333333 0.066666667 0
0.066666667 0.066666667 0
0.1 0.066666667 0
0.13333333 0.066666667 0
0.16666667 0.066666667 0
0.2 0.066666667 0
0.23333333 0.066666667 0
0.26666667 0.066666667 0
0.3 0.066666667 0
0.33333333 0.066666667 0
0.36666667 0.066666667 0
0.4 0.066666667 0
0.43333333 0.066666667 0
0.46666667 0.066666667 0
0.5 0.066666667 0
0.53333333 0.066666667 0
0.56666667 0.066666667 0
0.6 0.066666667 0
0.63333333 0.066666667 0
0.66666667 0.066666667 0
0.7 0.066666667 0
0.73333333 0.066666667 0
0.76666667 0.066666667 0
0.8 0.066666667 0
0.83333333 0.066666667 0
0.86666667 0.066666667 0
0.9 0.066666667 0
0.93333333 0.066666667 0
0.96666667 0.066666667 0
1 0.066666667 0
0 0.1 0
0.033333333 0.1 0
0.066666667 0.1 0
0.1 0.1 0
0.13333333 0.1 0
0.16666667 0.1 0
0.2 0.1 0
0.23333333 0.1 0
0.26666667 0.1 0
0.3 0.1 0
0.33333333 0.1 0
0.36666667 0.1 0
0.4 0.1 0
0.43333333 0.1 0
0.46666667 0.1 0
0.5 0.1 0
0.53333333 0.1 0
0.56666667 0.1 0
0.6 0.1 0
0.63333333 0.1 0
0.66666667 0.1 0
0.7 0.1 0
0.73333333 0.1 0
0.76666667 0.1 0
0.8 0.1 0
0.83333333 0.1 0
0.86666667 0.1 0
0.9 0.1 0
0.93333333 0.1 0
0.96666667 0.1 0
1 0.1 0
0 0.13333333 0
0.033333333 0.13333333 0
0.066666667 0.13333333 0
0.1 0.13333333 0
0.13333333 0.13333333 0
0.16666667 0.13333333 0
0.2 0.13333333 0
0.23333333 0.13333333 0
0.26666667 0.13333333 0
0.3 0.13333333 0
0.33333333 0.13333333 0
0.36666667 0.13333333 0
0.4 0.13333333 0
0.43333333 0.13333333 0
0.46666667 0.13333333 0
0.5 0.13333333 0
0.53333333 0.13333333 0
0.56666667 0.13333333 0
0.6 0.13333333 0
0.63333333 0.13333333 0
0.66666667 0.13333333 0
0.7 0.13333333 0
0.73333333 0.13333333 0
0.76666667 0.13333333 0
0.8 0.13333333 0
0.83333333 0.13333333 0
0.86666667 0.13333333 0
0.9 0.13333333 0
0.93333333 0.13333333 0
0.96666667 0.13333333 0
1 0.13333333 0
0 0.16666667 0
0.033333333 0.16666667 0
0.066666667 0.16666667 0
0.1 0.16666667 0
0.13333333 0.16666667 0
0.16666667 0.16666667 0
0.2 0.16666667 0
0.23333333 0.16666667 0
0.26666667 0.16666667 0
0.3 0.16666667 0
0.33333333 0.16666667 0
0.36666667 0.16666667 0
0.4 0.16666667 0
0.43333333 0.16666667 0
0.46666667 0.16666667 0
0.5 0.16666667 0
0.53333333 0.16666667 0
0.56666667 0.16666667 0
0.6 0.16666667 0
0.63333333 0.16666667 0
0.66666667 0.16666667 0
0.7 0.16666667 0
0.73333333 0.16666667 0
0.76666667 0.16666667 0
0.8 0.16666667 0
0.83333333 0.16666667 0
0.86666667 0.16666667 0
0.9 0.16666667 0
0.93333333 0.16666667 0
0.96666667 0.16666667 0
1 0.16666667 0
0 0.2 0
0.033333333 0.2 0
0.066666667 0.2 0
0.1 0.2 0
0.13333333 0.2 0
0.16666667 0.2 0
0.2 0.2 0
0.23333333 0.2 0
0.26666667 0.2 0
0.3 0.2 0
0.33333333 0.2 0
0.36666667 0.2 0
0.4 0.2 0
0.43333333 0.2 0
0.46666667 0.2 0
0.5 0.2 0
0.53333333 0.2 0
0.56666667 0.2 0
0.6 0.2 0
0.63333333 0.2 0
0.66666667 0.2 0
0.7 0.2 0
0.73333333 0.2 0
0.76666667 0.2 0
0.8 0.2 0
0.83333333 0.2 0
0.86666667 0.2 0
0.9 0.2 0
0.93333333 0.2 0
0.96666667 0.2 0
1 0.2 0
0 0.23333333 0
0.033333333 0.23333333 0
0.066666667 0.23333333 0
0.1 0.23333333 0
0.13333333 0.23333333 0
0.16666667 0.23333333 0
0.2 0.23333333 0
0.23333333 0.23333333 0
0.26666667 0.23333333 0
0.3 0.23333333 0
0.33333333 0.23333333 0
0.36666667 0.23333333 0
0.4 0.23333333 0
0.43333333 0.23333333 0
0.46666667 0.23333333 0
0.5 0.23333333 0
0.53333333 0.23333333 0
0.56666667 0.23333333 0
0.6 0.23333333 0
0.63333333 0.23333333 0
0.66666667 0.23333333 0
0.7 0.23333333 0
0.73333333 0.23333333 0
0.76666667 0.23333333 0
0.8 0.23333333 0
0.83333333 0.23333333 0
0.86666667 0.23333333 0
0.9 0.23333333 0
0.93333333 0.23333333 0
0.96666667 0.23333333 0
1 0.23333333 0
0 0.26666667 0
0.033333333 0.26666667 0
0.066666667 0.26666667 0
0.1 0.26666667 0
0.13333333 0.26666667 0
0.16666667 0.26666667 0
0.2 0.26666667 0
0.23333333 0.26666667 0
0.26666667 0.26666667 0
0.3 0.26666667 0
0.33333333 0.26666667 0
0.36666667 0.26666667 0
0.4 0.26666667 0
0.43333333 0.26666667 0
0.46666667 0.26666667 0
0.5 0.26666667 0
0.53333333 0.26666667 0
0.56666667 0.26666667 0
0.6 0.26666667 0
0.63333333 0.26666667 0
0.66666667 0.26666667 0
0.7 0.26666667 0
0.73333333 0.26666667 0
0.76666667 0.26666667 0
0.8 0.26666667 0
0.83333333 0.26666667 0
0.86666667 0.26666667 0
0.9 0.26666667 0
0.93333333 0.26666667 0
0.96666667 0.26666667 0
1 0.26666667 0
0 0.3 0
0.033333333 0.3 0
0.066666667 0.3 0
0.1 0.3 0
0.13333333 0.3 0
0.16666667 0.3 0
0.2 0.3 0
0.23333333 0.3 0
0.26666667 0.3 0
0.3 0.3 0
0.33333333 0.3 0
0.36666667 0.3 0
0.4 0.3 0
0.43333333 0.3 0
0.46666667 0.3 0
0.5 0.3 0
0.53333333 0.3 0
0.56666667 0.3 0
0.6 0.3 0
0.63333333 0.3 0
0.66666667 0.3 0
0.7 0.3 0
0.73333333 0.3 0
0.76666667 0.3 0
0.8 0.3 0
0.83333333 0.3 0
0.86666667 0.3 0
0.9 0.3 0
0.93333333 0.3 0
0.96666667 0.3 0
1 0.3 0
0 0.33333333 0
0.033333333 0.33333333 0
0.066666667 0.33333333 0
0.1 0.33333333 0
0.13333333 0.33333333 0
0.16666667 0.33333333 0
0.2 0.33333333 0
0.23333333 0.33333333 0
0.26666667 0.33333333 0
0.3 0.33333333 0
0.33333333 0.33333333 0
0.36666667 0.33333333 0
0.4 0.33333333 0
0.43333333 0.33333333 0
0.46666667 0.33333333 0
0.5 0.33333333 0
0.53333333 0.33333333 0
0.56666667 0.33333333 0
0.6 0.33333333 0
0.63333333 0.33333333 0
0.66666667 0.33333333 0
0.7 0.33333333 0
0.73333333 0.33333333 0
0.76666667 0.33333333 0
0.8 0.33333333 0
0.83333333 0.33333333 0
0.86666667 0.33333333 0
0.9 0.33333333 0
0.93333333 0.33333333 0
0.96666667 0.33333333 0
1 0.33333333 0
0 0.36666667 0
0.033333333 0.36666667 0
0.066666667 0.36666667 0
0.1 0.36666667 0
0.13333333 0.36666667 0
0.16666667 0.36666667 0
0.2 0.36666667 0
0.23333333 0.36666667 0
0.26666667 0.36666667 0
0.3 0.36666667 0
0.33333333 0.36666667 0
0.36666667 0.36666667 0
0.4 0.36666667 0
0.43333333 0.36666667 0
0.46666667 0.36666667 0
0.5 0.36666667 0
0.53333333 0.36666667 0
0.56666667 0.36666667 0
0.6 0.36666667 0
0.63333333 0.36666667 0
0.66666667 0.36666667 0
0.7 0.36666667 0
0.73333333 0.36666667 0
0.76666667 0.36666667 0
0.8 0.36666667 0
0.83333333 0.36666667 0
0.86666667 0.36666667 0
0.9 0.36666667 0
0.93333333 0.36666667 0
0.96666667 0.36666667 0
1 0.36666667 0
0 0.4 0
0.033333333 0.4 0
0.066666667 0.4 0
0.1 0.4 0
0.13333333 0.4 0
0.16666667 0.4 0
0.2 0.4 0
0.23333333 0.4 0
0.26666667 0.4 0
0.3 0.4 0
0.33333333 0.4 0
0.36666667 0.4 0
0.4 0.4 0
0.43333333 0.4 0
0.46666667 0.4 0
0.5 0.4 0
0.53333333 0.4 0
0.56666667 0.4 0
0.6 0.4 0
0.63333333 0.4 0
0.66666667 0.4 0
0.7 0.4 0
0.73333333 0.4 0
0.76666667 0.4 0
0.8 0.4 0
0.83333333 0.4 0
0.86666667 0.4 0
0.9 0.4 0
0.93333333 0.4 0
0.96666667 0.4 0
1 0.4 0
0 0.43333333 0
0.033333333 0.43333333 0
0.066666667 0.43333333 0
0.1 0.43333333 0
0.13333333 0.43333333 0
0.16666667 0.43333333 0
0.2 0.43333333 0
0.23333333 0.43333333 0
0.26666667 0.43333333 0
0.3 0.43333333 0
0.33333333 0.43333333 0
0.36666667 0.43333333 0
0.4 0.43333333 0
0.43333333 0.43333333 0
0.46666667 0.43333333 0
0.5 0.43333333 0
0.53333333 0.43333333 0
0.56666667 0.43333333 0
0.6 0.43333333 0
0.63333333 0.43333333 0
0.66666667 0.43333333 0
0.7 0.43333333 0
0.73333333 0.43333333 0
0.76666667 0.43333333 0
0.8 0.43333333 0
0.83333333 0.43333333 0
0.86666667 0.43333333 0
0.9 0.43333333 0
0.93333333 0.43333333 0
0.96666667 0.43333333 0
1 0.43333333 0
0 0.46666667 0
0.033333333 0.46666667 0
0.066666667 0.46666667 0
0.1 0.46666667 0
0.13333333 0.46666667 0
0.16666667 0.46666667 0
0.2 0.46666667 0
0.23333333 0.46666667 0
0.26666667 0.46666667 0
0.3 0.46666667 0
0.33333333 0.46666667 0
0.36666667 0.46666667 0
0.4 0.46666667 0
0.43333333 0.46666667 0
0.46666667 0.46666667 0
0.5 0.46666667 0
0.53333333 0.46666667 0
0.56666667 0.46666667 0
0.6 0.46666667 0
0.63333333 0.46666667 0
0.66666667 0.46666667 0
0.7 0.46666667 0
0.73333333 0.46666667 0
0.76666667 0.46666667 0
0.8 0.46666667 0
0.83333333 0.46666667 0
0.86666667 0.46666667 0
0.9 0.46666667 0
0.93333333 0.46666667 0
0.96666667 0.46666667 0
1 0.46666667 0
0 0.5 0
0.033333333 0.5 0
0.066666667 0.5 0
0.1 0.5 0
0.13333333 0.5 0
0.16666667 0.5 0
0.2 0.5 0
0.23333333 0.5 0
0.26666667 0.5 0
0.3 0.5 0
0.33333333 0.5 0
0.36666667 0.5 0
0.4 0.5 0
0.43333333 0.5 0
0.46666667 0.5 0
0.5 0.5 0
0.53333333 0.5 0
0.56666667 0.5 0
0.6 0.5 0
0.63333333 0.5 0
0.66666667 0.5 0
0.7 0.5 0
0.73333333 0.5 0
0.76666667 0.5 0
0.8 0.5 0
0.83333333 0.5 0
0.86666667 0.5 0
0.9 0.5 0
0.93333333 0.5 0
0.96666667 0.5 0
1 0.5 0
0 0.53333333 0
0.033333333 0.53333333 0
0.066666667 0.53333333 0
0.1 0.53333333 0
0.13333333 0.53333333 0
0.16666667 0.53333333 0
0.2 0.53333333 0
0.23333333 0.53333333 0
0.26666667 0.53333333 0
0.3 0.53333333 0
0.33333333 0.53333333 0
0.36666667 0.53333333 0
0.4 0.53333333 0
0.43333333 0.53333333 0
0.46666667 0.53333333 0
0.5 0.53333333 0
0.53333333 0.53333333 0
0.56666667 0.53333333 0
0.6 0.53333333 0
0.63333333 0.53333333 0
0.66666667 0.53333333 0
0.7 0.53333333 0
0.73333333 0.53333333 0
0.76666667 0.53333333 0
[...]
CELL_DATA 1920
Scalars  Label int 1
LOOKUP_TABLE FreeFempp_table
0
0
0
0
0
0
0
0
0
0
0
0
0
0
0
0
0
0
0
0
0
0
0
0
0
0
0
0
0
0
0
0
0
0
0
0
0
0
0
0
0
0
0
0
0
0
0
0
0
0
0
0
0
0
0
0
0
0
0
0
0
0
0
0
0
0
0
0
0
0
0
0
0
0
0
0
0
0
0
0
0
0
0
0
0
0
0
0
0
0
0
0
0
0
0
0
0
0
0
0
0
0
0
0
0
0
0
0
0
0
0
0
0
0
0
0
0
0
0
0
0
0
0
0
0
0
0
0
0
0
0
0
0
0
0
0
0
0
0
0
0
0
0
0
0
0
0
0
0
0
0
0
0
0
0
0
0
0
0
0
0
0
0
0
0
0
0
0
0
0
0
0
0
0
0
0
0
0
0
0
0
0
0
0
0
0
0
0
0
0
0
0
0
0
0
0
0
0
0
0
0
0
0
0
0
0
0
0
0
0
0
0
0
0
0
0
0
0
0
0
0
0
0
0
0
0
0
0
0
0
0
0
0
0
0
0
0
0
0
0
0
0
0
0
0
0
0
0
0
0
0
0
0
0
0
0
0
0
0
0
0
0
0
0
0
0
0
0
0
0
0
0
0
0
0
0
0
0
0
0
0
0
0
0
0
0
0
0
0
0
0
0
0
0
0
0
0
0
0
0
0
0
0
0
0
0
0
0
0
0
0
0
0
0
0
0
0
0
0
0
0
0
0
0
0
0
0
0
0
0
0
0
0
0
0
0
0
0
0
0
0
0
0
0
0
0
0
0
0
0
0
0
0
0
0
0
0
0
0
0
0
0
0
0
0
0
0
0
0
0
0
0
0
0
0
0
0
0
0
0
0
0
0
0
0
0
0
0
0
0
0
0
0
0
0
0
0
0
0
0
0
0
0
0
0
0
0
0
0
0
0
0
0
0
0
0
0
0
0
0
0
0
0
0
0
0
0
0
0
0
0
0
0
0
0
0
0
0
0
0
0
0
0
0
0
0
0
0
0
0
0
0
0
0
0
0
0
0
0
0
0
0
0
0
0
0
0
0
0
0
0
0
0
0
0
0
0
0
0
0
0
0
0
0
0
0
0
0
0
0
0
0
0
0
0
0
0
0
0
0
0
0
0
0
0
0
0
0
0
0
0
0
0
0
0
0
0
0
0
0
0
0
0
0
0
0
0
0
0
0
0
0
0
0
0
0
0
0
0
0
0
0
0
0
0
0
0
0
0
0
0
0
0
0
0
0
0
0
0
0
0
0
0
0
0
0
0
0
0
0
0
0
0
0
0
0
0
0
0
0
0
0
0
0
0
0
0
0
0
0
0
0
0
0
0
0
0
0
0
0
0
0
0
0
0
0
0
0
0
0
0
0
0
0
0
0
0
0
0
0
0
0
0
0
0
0
0
0
0
0
0
0
0
0
0
0
0
0
0
0
0
0
0
0
0
0
0
0
0
0
0
0
0
0
0
0
0
0
0
0
0
0
0
0
0
0
0
0
0
0
0
0
0
0
0
0
0
0
0
0
0
0
0
0
0
0
0
0
0
0
0
0
0
0
0
0
0
0
0
0
0
0
0
0
0
0
0
0
0
0
0
0
0
0
0
0
0
0
0
0
0
0
0
0
0
0
0
0
0
0
0
0
0
0
0
0
0
0
0
0
0
0
0
0
0
0
0
0
0
0
0
0
0
0
0
0
0
0
0
0
0
0
0
0
0
0
0
0
0
0
0
0
0
0
0
0
0
0
0
0
0
0
0
0
0
0
0
0
0
0
0
0
0
0
0
0
0
0
0
0
0
0
0
0
0
0
0
0
0
0
0
0
0
0
0
0
0
0
0
0
0
0
0
0
0
0
0
0
0
0
0
0
0
0
0
0
0
0
0
0
0
0
0
0
0
0
0
0
0
0
0
0
0
0
0
0
0
0
0
0
0
0
0
0
0
0
0
0
0
0
0
0
0
0
0
0
0
0
0
0
0
0
0
0
0
0
0
0
0
0
0
0
0
0
0
0
0
0
0
0
0
0
0
0
0
0
0
0
0
0
0
0
0
0
0
0
0
0
0
0
0
0
0
0
0
0
0
0
0
0
0
0
0
0
0
0
0
0
0
0
0
0
0
0
0
0
0
0
0
0
0
0
0
0
0
0
0
0
0
0
0
0
0
0
0
0
0
0
0
0
0
0
0
0
0
0
0
0
0
0
0
0
0
0
0
0
0
0
0
0
0
0
0
0
0
0
0
0
0
0
0
0
0
0
0
0
0
0
0
0
0
0
0
0
0
0
0
0
0
0
0
0
0
0
0
0
0
0
0
0
0
0
0
0
0
0
0
0
0
0
0
0
0
0
0
0
0
0
0
0
0
0
0
0
0
0
0
0
0
0
0
0
0
0
0
0
0
0
0
0
0
0
0
0
0
0
0
0
0
0
0
0
0
0
0
0
0
0
0
0
0
0
0
0
0
0
0
0
0
0
0
0
0
0
0
0
0
0
0
0
0
0
0
0
0
0
0
0
0
0
0
0
0
0
0
0
0
0
0
0
0
0
0
0
0
0
0
0
0
0
0
0
0
0
0
0
0
0
0
0
0
0
0
0
0
0
0
0
0
0
0
0
0
0
0
0
0
0
0
0
0
0
0
0
0
0
0
0
0
0
0
0
0
0
0
0
0
0
0
0
0
0
0
0
0
0
0
0
0
0
0
0
0
0
0
0
0
0
0
0
0
0
0
0
0
0
0
0
0
0
0
0
0
0
0
0
0
0
0
0
0
0
0
0
0
0
0
0
0
0
0
0
0
0
0
0
0
0
0
0
0
0
0
0
0
0
0
0
0
0
0
0
0
0
0
0
0
0
0
0
0
0
0
0
0
0
0
0
0
0
0
0
0
0
0
0
0
0
0
0
0
0
0
0
0
0
0
0
0
0
0
0
0
0
0
0
0
0
0
0
0
0
0
0
0
0
0
0
0
0
0
0
0
0
0
0
0
0
0
0
0
0
0
0
0
0
0
0
0
0
0
0
0
0
0
0
0
0
0
0
0
0
0
0
0
0
0
0
0
0
0
0
0
0
0
0
0
0
0
0
0
0
0
0
0
0
0
0
0
0
0
0
0
0
0
0
0
0
0
0
0
0
0
0
0
0
0
0
0
0
0
0
0
0
0
0
0
0
0
0
0
0
0
0
0
0
0
0
0
0
0
0
0
0
0
0
0
0
0
0
0
0
0
0
0
0
0
0
0
0
0
0
0
0
0
0
0
0
0
0
0
0
0
0
0
0
0
0
0
0
0
0
0
0
0
0
0
0
0
0
0
0
0
0
0
0
0
0
0
0
0
0
0
0
0
0
0
0
0
0
0
0
0
0
0
0
0
0
0
0
0
0
0
0
0
0
0
0
0
0
0
0
0
0
0
0
0
0
0
0
0
0
0
0
0
0
0
0
0
0
0
0
0
0
0
0
0
0
0
0
0
0
0
0
0
0
0
0
0
0
0
0
0
0
0
0
0
0
0
0
0
0
0
0
0
0
0
0
0
0
0
0
0
0
0
0
0
0
0
0
0
0
0
0
0
0
0
0
0
0
0
0
0
0
0
0
0
0
0
0
0
0
0
0
0
0
0
0
0
0
0
0
0
0
0
0
0
0
0
0
0
0
0
0
0
0
0
0
0
0
0
0
0
0
0
0
0
0
0
0
0
0
0
0
0
0
0
0
0
0
0
0
0
0
0
0
0
0
0
0
0
0
0
0
0
0
0
0
0
0
0
0
0
0
0
0
0
0
0
0
0
0
0
0
0
0
0
0
0
0
0
0
0
0
0
0
0
0
0
0
0
0
0
0
0
0
0
0
0
0
0
0
0
0
0
0
0
0
0
0
0
0
0
0
0
0
0
0
0
0
0
0
0
0
0
0
0
0
0
0
0
0
0
0
0
0
0
0
0
0
0
0
0
0
0
0
0
0
0
0
0
0
0
0
0
0
0
0
0
0
0
0
0
0
0
0
0
0
0
0
0
0
0
0
0
0
0
0
0
0
0
0
0
0
0
0
0
0
0
0
1
1
1
1
1
1
1
1
1
1
1
1
1
1
1
1
1
1
1
1
1
1
1
1
1
1
1
1
1
1
2
2
2
2
2
2
2
2
2
2
2
2
2
2
2
2
2
2
2
2
2
2
2
2
2
2
2
2
2
2
3
3
3
3
3
3
3
3
3
3
3
3
3
3
3
3
3
3
3
3
3
3
3
3
3
3
3
3
3
3
4
4
4
4
4
4
4
4
4
4
4
4
4
4
4
4
4
4
4
4
4
4
4
4
4
4
4
4
4
4

LOOKUP_TABLE FreeFempp_table 5
1.00000000 0.00000000 0.00000000 1.00000000
1.00000000 1.00000000 0.00000000 1.00000000
1.00000000 0.00000000 1.00000000 1.00000000
0.00000000 1.00000000 0.00000000 1.00000000
0.00000000 1.00000000 1.00000000 1.00000000

POINT_DATA 961
FIELD FieldData 1
Density 1 961 float
1.43286839e-01 1.18201070e-01 1.18488528e-01 1.18636183e-01 1.18697666e-01 1.18728437e-01 1.18746616e-01 1.18731745e-01 1.18675090e-01 1.18553035e-01 1.18365437e-01 1.18161283e-01 1.17418677e-01 1.16987988e-01 8.46850723e-02 1.06546904e-04 1.09604043e-04 5.95307052e-02 2.29032477e-03 9.60126460e-01 6.67562902e-01 3.92373621e-01 3.17015648e-01 2.37929046e-01 2.01881111e-01 1.81316882e-01 1.70033902e-01 1.63974047e-01 1.60428405e-01 1.56174675e-01 1.90124035e-01 1.13355912e-01 6.44596443e-02 6.51089251e-02 6.53701201e-02 6.54016510e-02 6.54334500e-02 6.54911920e-02 6.54975697e-02 6.54807091e-02 6.54156059e-02 6.52318001e-02 6.47118762e-02 6.28616288e-02 6.06798530e-02 5.26635051e-02 1.06193613e-04 1.04248720e-04 6.09232545e-01 1.59108691e-04 1.29380642e-04 1.20467281e-04 3.16994429e-01 2.83390492e-01 2.60436833e-01 1.94846556e-01 1.51601985e-01 1.29195750e-01 1.18986905e-01 1.13594890e-01 1.08725443e-01 1.52950436e-01 1.02768303e-04 1.02161182e-04 6.30010292e-02 6.34735525e-02 6.34709597e-02 6.37667179e-02 6.45701215e-02 6.46472499e-02 6.46653399e-02 6.46686330e-02 6.45358264e-02 6.31562471e-02 4.94502075e-02 1.12939553e-04 1.04131206e-04 1.02795537e-04 1.02550577e-04 1.02148326e-04 9.99116480e-01 1.72765533e-04 1.10262205e-04 1.07599153e-04 1.08555454e-04 1.06882835e-04 1.13792352e-01 1.22774646e-01 1.10554792e-01 1.01308882e-01 9.78938341e-02 9.47877914e-02 1.44749269e-01 1.03980310e-04 1.01260543e-04 1.01359874e-04 1.02362552e-04 1.02348320e-04 1.02382575e-04 1.02406011e-04 1.02426813e-04 1.02457423e-04 1.02501355e-04 1.02552505e-04 1.02604390e-04 1.02680759e-04 1.02961239e-04 1.04568404e-04 1.03067621e-04 1.03365157e-04 1.01495221e-04 1.01595688e-04 1.03499238e-04 9.99304414e-01 1.13746406e-04 1.10351742e-04 1.04020262e-04 1.03875413e-04 1.04863109e-04 9.18465778e-02 8.20333660e-02 8.19889084e-02 8.10019225e-02 1.34309977e-01 1.01771817e-01 4.48810980e-02 1.02202139e-04 1.02433136e-04 1.02302787e-04 1.02361504e-04 1.02385675e-04 1.02404701e-04 1.02427686e-04 1.02463775e-04 1.02510494e-04 1.02560378e-04 1.02622871e-04 1.02587939e-04 1.03867358e-04 1.11970054e-04 4.43369858e-02 5.27305193e-02 1.02572587e-04 1.02175385e-04 1.02273196e-04 9.61367190e-01 9.78290558e-01 9.33974147e-01 1.06337066e-04 1.03118968e-04 1.02722915e-04 7.17683882e-02 6.99884072e-02 7.13895857e-02 1.25656858e-01 1.10875614e-01 5.54015972e-02 4.92353775e-02 4.30351049e-02 4.98042367e-02 5.47885820e-02 6.04073852e-02 6.52265400e-02 6.90309107e-02 7.45744482e-02 8.16572905e-02 8.57304558e-02 8.67623016e-02 8.42357129e-02 7.84710199e-02 7.20250309e-02 6.98240995e-02 6.88638240e-02 6.56186491e-02 5.26452325e-02 1.02616701e-04 1.02814767e-04 2.52274245e-01 8.31057250e-01 9.79868114e-01 9.83604193e-01 1.02659615e-04 1.02464517e-04 6.59467056e-02 6.59214631e-02 1.20596021e-01 1.27431035e-01 6.98811933e-02 7.02918023e-02 6.68489560e-02 7.01880679e-02 7.55901113e-02 8.14010277e-02 8.70598406e-02 9.20544043e-02 9.60087404e-02 9.84898955e-02 9.99657065e-02 1.00174531e-01 9.91303921e-02 9.67964977e-02 9.32806954e-02 8.85387287e-02 8.27638358e-02 7.76804760e-02 7.15027452e-02 5.66680320e-02 1.03119724e-04 1.03571067e-04 4.59453976e-03 1.17436107e-02 2.55185291e-02 9.93349671e-01 1.02350052e-04 1.02237063e-04 6.48306906e-02 1.17293671e-01 1.50229141e-01 9.70799103e-02 1.00261092e-01 1.02335498e-01 1.04753152e-01 1.08147211e-01 1.12003803e-01 1.15609169e-01 1.18550360e-01 1.20532170e-01 1.21411309e-01 1.21366799e-01 1.20660372e-01 1.19476147e-01 1.17827095e-01 1.15517035e-01 1.12243265e-01 1.07871898e-01 1.02667153e-01 9.59403291e-02 8.65794271e-02 8.26442707e-03 1.04199193e-04 1.05163192e-04 1.34301226e-04 2.21012699e-04 5.95001155e-04 9.92884874e-01 1.02193131e-04 1.02064179e-04 1.01715505e-01 1.73536777e-01 1.32504955e-01 1.36719540e-01 1.38030842e-01 1.39821559e-01 1.41836435e-01 1.43753335e-01 1.45202771e-01 1.46006852e-01 1.46179408e-01 1.45837069e-01 1.45160794e-01 1.44427657e-01 1.43922716e-01 1.43740669e-01 1.43741712e-01 1.43624932e-01 1.43393025e-01 1.43555164e-01 1.44125119e-01 1.45603165e-01 1.41908899e-01 3.57981818e-03 1.07905027e-04 1.11666828e-04 1.26541636e-04 1.70255022e-04 5.17611450e-04 9.92933035e-01 1.02041326e-04 1.02854123e-04 1.90694913e-01 1.65294915e-01 1.68143079e-01 1.67547345e-01 1.67581320e-01 1.67953327e-01 1.68210939e-01 1.68022498e-01 1.67352587e-01 1.66357234e-01 1.65288448e-01 1.64412573e-01 1.63965255e-01 1.64164916e-01 1.65145904e-01 1.66921362e-01 1.69492617e-01 1.73342243e-01 1.79731846e-01 1.90438673e-01 2.09113762e-01 2.46147901e-01 3.65502238e-01 1.70971006e-02 1.54472960e-04 1.46296094e-04 1.53984554e-04 2.22063754e-04 7.77906299e-01 1.06046922e-04 1.03880506e-04 1.95648372e-01 1.81499287e-01 1.81881696e-01 1.79830492e-01 1.78462222e-01 1.77467257e-01 1.76560849e-01 1.75467804e-01 1.74116820e-01 1.72612622e-01 1.71159387e-01 1.69987723e-01 1.69276074e-01 1.69097066e-01 1.69474438e-01 1.70424461e-01 1.72039032e-01 1.74813151e-01 1.79808244e-01 1.88620046e-01 2.04446033e-01 2.34481886e-01 3.13741833e-01 5.08506954e-01 5.98536611e-01 4.51018989e-01 1.81613281e-01 2.73301844e-02 9.92942989e-01 1.06225547e-04 1.05557912e-04 1.85290828e-01 1.71120495e-01 1.70321479e-01 1.68287799e-01 1.66954339e-01 1.66063115e-01 1.65377080e-01 1.64590865e-01 1.63511395e-01 1.62112415e-01 1.60489470e-01 1.58773944e-01 1.57057554e-01 1.55335009e-01 1.53509423e-01 1.51487261e-01 1.49290159e-01 1.47217900e-01 1.45830229e-01 1.45798340e-01 1.47965625e-01 1.53275579e-01 1.63291752e-01 1.84482381e-01 2.31131211e-01 2.21186429e-01 1.97367817e-01 3.66729021e-01 9.79038000e-01 1.07138425e-04 1.06338433e-04 1.61556199e-01 1.36326209e-01 1.36667848e-01 1.36336312e-01 1.36933669e-01 1.38058603e-01 1.39309943e-01 1.40261158e-01 1.40621677e-01 1.40208602e-01 1.38970435e-01 1.36972919e-01 1.34289339e-01 1.30934924e-01 1.26868352e-01 1.22075208e-01 1.16706066e-01 1.11192048e-01 1.06227495e-01 1.02644861e-01 1.01290442e-01 1.02785274e-01 1.07443169e-01 1.15558513e-01 1.28373429e-01 1.51097402e-01 2.26268843e-01 5.82111537e-01 9.43598390e-01 1.08186934e-04 1.07325330e-04 1.29795551e-01 9.12329778e-02 9.29500610e-02 9.52324420e-02 9.90116522e-02 1.03731953e-01 1.08625121e-01 1.12774923e-01 1.15527406e-01 1.16734378e-01 1.16443239e-01 1.14695944e-01 1.11601941e-01 1.07296892e-01 1.01918541e-01 9.56763178e-02 8.89713615e-02 8.24768692e-02 7.71063343e-02 7.38926902e-02 7.38478601e-02 7.78625458e-02 8.68675858e-02 1.02704734e-01 1.31170794e-01 1.95216641e-01 3.73683006e-01 7.06482887e-01 7.98961222e-01 1.09396642e-04 1.08423883e-04 9.69915614e-02 5.14486060e-02 5.27597368e-02 5.69962412e-02 6.35795221e-02 7.18954802e-02 8.08092728e-02 8.89468789e-02 9.49550122e-02 9.83854458e-02 9.94163454e-02 9.82785374e-02 9.52270031e-02 9.05716792e-02 8.46564844e-02 7.79072493e-02 7.09266812e-02 6.45459667e-02 5.97857684e-02 5.77678829e-02 5.96834272e-02 6.69508800e-02 8.18174407e-02 1.09541789e-01 1.64869264e-01 2.88743585e-01 5.24435878e-01 7.08428144e-01 3.93941998e-01 1.10946072e-04 1.09720211e-04 6.90515786e-02 2.54399776e-02 2.52094585e-02 2.95740515e-02 3.71220335e-02 4.76985574e-02 6.00856692e-02 7.20768422e-02 8.14502984e-02 8.72821808e-02 8.96854252e-02 8.91359597e-02 8.62120390e-02 8.14449713e-02 7.53373951e-02 6.84497431e-02 6.14972748e-02 5.53978086e-02 5.12490645e-02 5.03028445e-02 5.41101545e-02 6.50977418e-02 8.80632922e-02 1.34956062e-01 2.33952537e-01 4.21588361e-01 6.24707699e-01 6.15210831e-01 4.71362956e-02 1.13227667e-04 1.11400346e-04 4.81985956e-02 1.17595773e-02 1.06193637e-02 1.38105461e-02 2.05579251e-02 3.18039954e-02 4.68887463e-02 6.25410601e-02 7.51102045e-02 8.30876678e-02 8.64904299e-02 8.62038359e-02 8.32701549e-02 7.84572884e-02 7.23389015e-02 6.54978752e-02 5.86777851e-02 5.28544225e-02 4.92461137e-02 4.93750200e-02 5.54854646e-02 7.19261765e-02 1.08694017e-01 1.91670001e-01 3.59892130e-01 5.70683956e-01 6.39788449e-01 2.61263102e-01 7.15943344e-04 1.17125564e-04 1.13929287e-04 3.32810804e-02 5.35455532e-03 4.30010725e-03 6.23864355e-03 1.15594184e-02 2.27697827e-02 4.04483676e-02 5.98386228e-02 7.52943084e-02 8.45295787e-02 8.80812779e-02 8.76076370e-02 8.45542550e-02 7.98242688e-02 7.39790723e-02 6.75346553e-02 6.11944906e-02 5.59888370e-02 5.33550270e-02 5.53489961e-02 6.55733049e-02 9.24046263e-02 1.57102630e-01 3.09732944e-01 5.39979339e-01 6.45715773e-01 4.14714277e-01 4.26113280e-03 1.95131681e-04 1.25255712e-04 1.20201163e-04 2.18924955e-02 2.44905241e-03 1.83789164e-03 2.99072010e-03 7.20303785e-03 1.88987926e-02 4.02136222e-02 6.37187809e-02 8.08916762e-02 8.97178352e-02 9.23621878e-02 9.13277641e-02 8.82048607e-02 8.38481486e-02 7.87493587e-02 7.33548030e-02 6.83494359e-02 6.49103895e-02 6.49560168e-02 7.17453584e-02 9.20034349e-02 1.42524734e-01 2.66496032e-01 5.10826766e-01 6.65067434e-01 4.98887032e-01 1.15878806e-02 3.05199181e-04 1.49016210e-04 1.36433227e-04 1.41277589e-04 1.22940447e-02 1.13492471e-03 8.85187706e-04 1.63464725e-03 5.43944910e-03 1.94380991e-02 4.67222668e-02 7.36924559e-02 8.97456259e-02 9.61150751e-02 9.70683768e-02 9.54230875e-02 9.25173014e-02 8.89844447e-02 8.52485895e-02 8.18228275e-02 7.96246380e-02 8.04513395e-02 8.77597854e-02 1.08649097e-01 1.59345210e-01 2.76011676e-01 4.86041844e-01 6.74839675e-01 5.40875196e-01 1.49740633e-02 4.70823346e-04 1.89127823e-04 1.52901746e-04 1.59078889e-04 2.72535370e-04 4.95054852e-03 5.71847253e-04 5.10525831e-04 1.08254852e-03 5.40224370e-03 2.55019199e-02 6.10261038e-02 8.73514339e-02 9.83474851e-02 1.00888900e-01 1.00181535e-01 9.83727202e-02 9.61889103e-02 9.39879641e-02 9.22377631e-02 9.18031037e-02 9.43792164e-02 1.03496656e-01 1.26860335e-01 1.81876495e-01 3.01364601e-01 4.93691415e-01 6.39236450e-01 4.93899077e-01 1.52027830e-02 7.02503195e-04 2.65123876e-04 1.93046944e-04 1.97000714e-04 3.24746157e-04 5.01677394e-03 1.39507407e-03 3.35954828e-04 3.50711460e-04 9.23950807e-04 7.56170740e-03 4.06374782e-02 8.15170109e-02 9.95637700e-02 1.02996349e-01 1.02106392e-01 1.00674219e-01 9.94770974e-02 9.85571966e-02 9.80954096e-02 9.87755433e-02 1.02114014e-01 1.11172706e-01 1.32434234e-01 1.80266872e-01 2.82616556e-01 4.58543509e-01 6.23731315e-01 6.14167333e-01 1.43626481e-01 4.45238035e-03 6.53626106e-04 3.18402628e-04 3.18226725e-04 6.29008748e-04 4.11832985e-03 6.19973615e-02 4.25308041e-04 2.36084961e-04 2.81225279e-04 1.10201770e-03 1.51565401e-02 6.77040368e-02 1.00604996e-01 1.05028383e-01 1.02083594e-01 9.96403545e-02 9.87224504e-02 9.88269448e-02 9.95391235e-02 1.01014726e-01 1.04242861e-01 1.11455753e-01 1.27111018e-01 1.60287321e-01 2.28773281e-01 3.55840623e-01 5.23728311e-01 6.24585927e-01 5.15626490e-01 1.20075732e-01 7.82814622e-03 1.88952743e-03 1.77624717e-03 4.69859270e-03 2.29947492e-02 5.39014190e-02 1.13837726e-01 2.04694676e-04 1.87778860e-04 2.64137634e-04 2.08815048e-03 3.68460938e-02 9.84781757e-02 1.09342381e-01 1.02423429e-01 9.67711583e-02 9.47221741e-02 9.51457992e-02 9.68694240e-02 9.93237644e-02 1.02721840e-01 1.08273819e-01 1.18633352e-01 1.38865829e-01 1.78290173e-01 2.51582146e-01 3.67929190e-01 4.93564636e-01 5.41842103e-01 4.20001328e-01 1.58642277e-01 4.65454422e-02 4.09455225e-02 7.86347091e-02 1.35827169e-01 1.45881742e-01 1.40731856e-01 1.65771946e-01 1.46852602e-04 1.56298731e-04 3.14062490e-04 7.00031361e-03 7.77746215e-02 1.15642555e-01 1.05920151e-01 9.45599452e-02 8.93982351e-02 8.87663737e-02 9.07116234e-02 9.39914584e-02 9.80956405e-02 1.03278756e-01 1.10752687e-01 1.23092003e-01 1.44903854e-01 1.83527187e-01 2.47447461e-01 3.35336119e-01 4.16035831e-01 4.32555735e-01 3.42697591e-01 2.01228499e-01 1.36157006e-01 1.47501260e-01 1.76138416e-01 1.77794546e-01 1.73064455e-01 1.80691481e-01 1.97531998e-01 1.28285814e-04 1.35570648e-04 5.96506114e-04 2.98939608e-02 1.13147840e-01 1.13510929e-01 9.53205377e-02 8.50766003e-02 8.18068236e-02 8.26603994e-02 8.58297795e-02 9.03609991e-02 9.59211737e-02 1.02753706e-01 1.11831918e-01 1.25183642e-01 1.46229833e-01 1.79609552e-01 2.28751615e-01 2.88408101e-01 3.36273849e-01 3.39648694e-01 2.83980459e-01 2.06509888e-01 1.61049724e-01 1.48301318e-01 1.47178903e-01 1.49830356e-01 1.59420207e-01 1.77326187e-01 2.00308651e-01 1.21178527e-04 1.25037157e-04 2.82460707e-03 8.06332603e-02 1.19200721e-01 9.96881425e-02 8.32573101e-02 7.62472227e-02 7.48901516e-02 7.67507777e-02 8.06058645e-02 8.59529078e-02 9.27174240e-02 1.01134144e-01 1.11807555e-01 1.25926316e-01 1.45423368e-01 1.72548741e-01 2.07941502e-01 2.46722773e-01 2.75633246e-01 2.77930468e-01 2.47837365e-01 2.02808022e-01 1.67333335e-01 1.48292795e-01 1.42556712e-01 1.46475315e-01 1.57383204e-01 1.71948910e-01 1.94616437e-01 1.17776101e-04 1.20018289e-04 2.06406601e-02 1.11814305e-01 1.04553834e-01 8.37260410e-02 7.29551911e-02 6.90812916e-02 6.89731315e-02 7.11217448e-02 7.50012621e-02 8.06089342e-02 8.81984979e-02 9.81087089e-02 1.10679008e-01 1.26264289e-01 1.45287454e-01 1.68057665e-01 1.93934441e-01 2.19818935e-01 2.39231840e-01 2.44289681e-01 2.31399626e-01 2.06509531e-01 1.81240067e-01 1.63459674e-01 1.55321568e-01 1.55117303e-01 1.59487799e-01 1.66545406e-01 1.89992398e-01 1.15362192e-04 1.17224183e-04 6.17519915e-02 1.05492003e-01 8.49563107e-02 7.16883317e-02 6.61413297e-02 6.42190874e-02 6.42453656e-02 6.57320470e-02 6.87951818e-02 7.38669708e-02 8.15442577e-02 9.24648494e-02 1.07137240e-01 1.25692815e-01 1.47627801e-01 1.71683460e-01 1.95910707e-01 2.17745855e-01 2.33931258e-01 2.40728527e-01 2.35508665e-01 2.19534367e-01 1.98499307e-01 1.79135874e-01 1.65337428e-01 1.57471955e-01 1.54011667e-01 1.54925644e-01 1.84043601e-01 1.12245783e-04 1.14979244e-04 1.11211106e-01 9.29974616e-02 7.43822530e-02 6.75852299e-02 6.39147386e-02 6.12820834e-02 5.95835447e-02 5.91873750e-02 6.06092811e-02 6.45081252e-02 7.17503652e-02 8.34680945e-02 1.00998074e-01 1.25512034e-01 1.57152832e-01 1.93853632e-01 2.30734557e-01 2.61096954e-01 2.78753310e-01 2.80265778e-01 2.66242921e-01 2.41158396e-01 2.11733207e-01 1.84240207e-01 1.62109062e-01 1.46210477e-01 1.36202812e-01 1.33967668e-01 1.74254954e-01 1.25523002e-04 1.16710355e-04 4.28650379e-01 1.49523780e-01 1.34631827e-01 1.26744613e-01 1.20354697e-01 1.14818342e-01 1.10533044e-01 1.08024307e-01 1.07838392e-01 1.10557802e-01 1.16808675e-01 1.27228633e-01 1.42352492e-01 1.62357301e-01 1.86648473e-01 2.13391513e-01 2.39277348e-01 2.59902835e-01 2.70967603e-01 2.70072728e-01 2.58230209e-01 2.39429027e-01 2.18529403e-01 1.99259013e-01 1.83393493e-01 1.71157986e-01 1.62724257e-01 1.58411205e-01 1.76783130e-01 
