# vtk DataFile Version 2.0
results_case1_non_linear/iter11.vtk, Created by Freefem++ 
ASCII
DATASET UNSTRUCTURED_GRID
POINTS 961 float
0 0 0
0.033333333 0 0
0.066666667 0 0
0.1 0 0
0.13333333 0 0
0.16666667 0 0
0.2 0 0
0.23333333 0 0
0.26666667 0 0
0.3 0 0
0.33333333 0 0
0.36666667 0 0
0.4 0 0
0.43333333 0 0
0.46666667 0 0
0.5 0 0
0.53333333 0 0
0.56666667 0 0
0.6 0 0
0.63333333 0 0
0.66666667 0 0
0.7 0 0
0.73333333 0 0
0.76666667 0 0
0.8 0 0
0.83333333 0 0
0.86666667 0 0
0.9 0 0
0.93333333 0 0
0.96666667 0 0
1 0 0
0 0.033333333 0
0.033333333 0.033333333 0
0.066666667 0.033333333 0
0.1 0.033333333 0
0.13333333 0.033333333 0
0.16666667 0.033333333 0
0.2 0.033333333 0
0.23333333 0.033333333 0
0.26666667 0.033333333 0
0.3 0.033333333 0
0.33333333 0.033333333 0
0.36666667 0.033333333 0
0.4 0.033333333 0
0.43333333 0.033333333 0
0.46666667 0.033333333 0
0.5 0.033333333 0
0.53333333 0.033333333 0
0.56666667 0.033333333 0
0.6 0.033333333 0
0.63333333 0.033333333 0
0.66666667 0.033333333 0
0.7 0.033333333 0
0.73333333 0.033333333 0
0.76666667 0.033333333 0
0.8 0.033333333 0
0.83333333 0.033333333 0
0.86666667 0.033333333 0
0.9 0.033333333 0
0.93333333 0.033333333 0
0.96666667 0.033333333 0
1 0.033333333 0
0 0.066666667 0
0.033333333 0.066666667 0
0.066666667 0.066666667 0
0.1 0.066666667 0
0.13333333 0.066666667 0
0.16666667 0.066666667 0
0.2 0.066666667 0
0.23333333 0.066666667 0
0.26666667 0.066666667 0
0.3 0.066666667 0
0.33333333 0.066666667 0
0.36666667 0.066666667 0
0.4 0.066666667 0
0.43333333 0.066666667 0
0.46666667 0.066666667 0
0.5 0.066666667 0
0.53333333 0.066666667 0
0.56666667 0.066666667 0
0.6 0.066666667 0
0.63333333 0.066666667 0
0.66666667 0.066666667 0
0.7 0.066666667 0
0.73333333 0.066666667 0
0.76666667 0.066666667 0
0.8 0.066666667 0
0.83333333 0.066666667 0
0.86666667 0.066666667 0
0.9 0.066666667 0
0.93333333 0.066666667 0
0.96666667 0.066666667 0
1 0.066666667 0
0 0.1 0
0.033333333 0.1 0
0.066666667 0.1 0
0.1 0.1 0
0.13333333 0.1 0
0.16666667 0.1 0
0.2 0.1 0
0.23333333 0.1 0
0.26666667 0.1 0
0.3 0.1 0
0.33333333 0.1 0
0.36666667 0.1 0
0.4 0.1 0
0.43333333 0.1 0
0.46666667 0.1 0
0.5 0.1 0
0.53333333 0.1 0
0.56666667 0.1 0
0.6 0.1 0
0.63333333 0.1 0
0.66666667 0.1 0
0.7 0.1 0
0.73333333 0.1 0
0.76666667 0.1 0
0.8 0.1 0
0.83333333 0.1 0
0.86666667 0.1 0
0.9 0.1 0
0.93333333 0.1 0
0.96666667 0.1 0
1 0.1 0
0 0.13333333 0
0.033333333 0.13333333 0
0.066666667 0.13333333 0
0.1 0.13333333 0
0.13333333 0.13333333 0
0.16666667 0.13333333 0
0.2 0.13333333 0
0.23333333 0.13333333 0
0.26666667 0.13333333 0
0.3 0.13333333 0
0.33333333 0.13333333 0
0.36666667 0.13333333 0
0.4 0.13333333 0
0.43333333 0.13333333 0
0.46666667 0.13333333 0
0.5 0.13333333 0
0.53333333 0.13333333 0
0.56666667 0.13333333 0
0.6 0.13333333 0
0.63333333 0.13333333 0
0.66666667 0.13333333 0
0.7 0.13333333 0
0.73333333 0.13333333 0
0.76666667 0.13333333 0
0.8 0.13333333 0
0.83333333 0.13333333 0
0.86666667 0.13333333 0
0.9 0.13333333 0
0.93333333 0.13333333 0
0.96666667 0.13333333 0
1 0.13333333 0
0 0.16666667 0
0.033333333 0.16666667 0
0.066666667 0.16666667 0
0.1 0.16666667 0
0.13333333 0.16666667 0
0.16666667 0.16666667 0
0.2 0.16666667 0
0.23333333 0.16666667 0
0.26666667 0.16666667 0
0.3 0.16666667 0
0.33333333 0.16666667 0
0.36666667 0.16666667 0
0.4 0.16666667 0
0.43333333 0.16666667 0
0.46666667 0.16666667 0
0.5 0.16666667 0
0.53333333 0.16666667 0
0.56666667 0.16666667 0
0.6 0.16666667 0
0.63333333 0.16666667 0
0.66666667 0.16666667 0
0.7 0.16666667 0
0.73333333 0.16666667 0
0.76666667 0.16666667 0
0.8 0.16666667 0
0.83333333 0.16666667 0
0.86666667 0.16666667 0
0.9 0.16666667 0
0.93333333 0.16666667 0
0.96666667 0.16666667 0
1 0.16666667 0
0 0.2 0
0.033333333 0.2 0
0.066666667 0.2 0
0.1 0.2 0
0.13333333 0.2 0
0.16666667 0.2 0
0.2 0.2 0
0.23333333 0.2 0
0.26666667 0.2 0
0.3 0.2 0
0.33333333 0.2 0
0.36666667 0.2 0
0.4 0.2 0
0.43333333 0.2 0
0.46666667 0.2 0
0.5 0.2 0
0.53333333 0.2 0
0.56666667 0.2 0
0.6 0.2 0
0.63333333 0.2 0
0.66666667 0.2 0
0.7 0.2 0
0.73333333 0.2 0
0.76666667 0.2 0
0.8 0.2 0
0.83333333 0.2 0
0.86666667 0.2 0
0.9 0.2 0
0.93333333 0.2 0
0.96666667 0.2 0
1 0.2 0
0 0.23333333 0
0.033333333 0.23333333 0
0.066666667 0.23333333 0
0.1 0.23333333 0
0.13333333 0.23333333 0
0.16666667 0.23333333 0
0.2 0.23333333 0
0.23333333 0.23333333 0
0.26666667 0.23333333 0
0.3 0.23333333 0
0.33333333 0.23333333 0
0.36666667 0.23333333 0
0.4 0.23333333 0
0.43333333 0.23333333 0
0.46666667 0.23333333 0
0.5 0.23333333 0
0.53333333 0.23333333 0
0.56666667 0.23333333 0
0.6 0.23333333 0
0.63333333 0.23333333 0
0.66666667 0.23333333 0
0.7 0.23333333 0
0.73333333 0.23333333 0
0.76666667 0.23333333 0
0.8 0.23333333 0
0.83333333 0.23333333 0
0.86666667 0.23333333 0
0.9 0.23333333 0
0.93333333 0.23333333 0
0.96666667 0.23333333 0
1 0.23333333 0
0 0.26666667 0
0.033333333 0.26666667 0
0.066666667 0.26666667 0
0.1 0.26666667 0
0.13333333 0.26666667 0
0.16666667 0.26666667 0
0.2 0.26666667 0
0.23333333 0.26666667 0
0.26666667 0.26666667 0
0.3 0.26666667 0
0.33333333 0.26666667 0
0.36666667 0.26666667 0
0.4 0.26666667 0
0.43333333 0.26666667 0
0.46666667 0.26666667 0
0.5 0.26666667 0
0.53333333 0.26666667 0
0.56666667 0.26666667 0
0.6 0.26666667 0
0.63333333 0.26666667 0
0.66666667 0.26666667 0
0.7 0.26666667 0
0.73333333 0.26666667 0
0.76666667 0.26666667 0
0.8 0.26666667 0
0.83333333 0.26666667 0
0.86666667 0.26666667 0
0.9 0.26666667 0
0.93333333 0.26666667 0
0.96666667 0.26666667 0
1 0.26666667 0
0 0.3 0
0.033333333 0.3 0
0.066666667 0.3 0
0.1 0.3 0
0.13333333 0.3 0
0.16666667 0.3 0
0.2 0.3 0
0.23333333 0.3 0
0.26666667 0.3 0
0.3 0.3 0
0.33333333 0.3 0
0.36666667 0.3 0
0.4 0.3 0
0.43333333 0.3 0
0.46666667 0.3 0
0.5 0.3 0
0.53333333 0.3 0
0.56666667 0.3 0
0.6 0.3 0
0.63333333 0.3 0
0.66666667 0.3 0
0.7 0.3 0
0.73333333 0.3 0
0.76666667 0.3 0
0.8 0.3 0
0.83333333 0.3 0
0.86666667 0.3 0
0.9 0.3 0
0.93333333 0.3 0
0.96666667 0.3 0
1 0.3 0
0 0.33333333 0
0.033333333 0.33333333 0
0.066666667 0.33333333 0
0.1 0.33333333 0
0.13333333 0.33333333 0
0.16666667 0.33333333 0
0.2 0.33333333 0
0.23333333 0.33333333 0
0.26666667 0.33333333 0
0.3 0.33333333 0
0.33333333 0.33333333 0
0.36666667 0.33333333 0
0.4 0.33333333 0
0.43333333 0.33333333 0
0.46666667 0.33333333 0
0.5 0.33333333 0
0.53333333 0.33333333 0
0.56666667 0.33333333 0
0.6 0.33333333 0
0.63333333 0.33333333 0
0.66666667 0.33333333 0
0.7 0.33333333 0
0.73333333 0.33333333 0
0.76666667 0.33333333 0
0.8 0.33333333 0
0.83333333 0.33333333 0
0.86666667 0.33333333 0
0.9 0.33333333 0
0.93333333 0.33333333 0
0.96666667 0.33333333 0
1 0.33333333 0
0 0.36666667 0
0.033333333 0.36666667 0
0.066666667 0.36666667 0
0.1 0.36666667 0
0.13333333 0.36666667 0
0.16666667 0.36666667 0
0.2 0.36666667 0
0.23333333 0.36666667 0
0.26666667 0.36666667 0
0.3 0.36666667 0
0.33333333 0.36666667 0
0.36666667 0.36666667 0
0.4 0.36666667 0
0.43333333 0.36666667 0
0.46666667 0.36666667 0
0.5 0.36666667 0
0.53333333 0.36666667 0
0.56666667 0.36666667 0
0.6 0.36666667 0
0.63333333 0.36666667 0
0.66666667 0.36666667 0
0.7 0.36666667 0
0.73333333 0.36666667 0
0.76666667 0.36666667 0
0.8 0.36666667 0
0.83333333 0.36666667 0
0.86666667 0.36666667 0
0.9 0.36666667 0
0.93333333 0.36666667 0
0.96666667 0.36666667 0
1 0.36666667 0
0 0.4 0
0.033333333 0.4 0
0.066666667 0.4 0
0.1 0.4 0
0.13333333 0.4 0
0.16666667 0.4 0
0.2 0.4 0
0.23333333 0.4 0
0.26666667 0.4 0
0.3 0.4 0
0.33333333 0.4 0
0.36666667 0.4 0
0.4 0.4 0
0.43333333 0.4 0
0.46666667 0.4 0
0.5 0.4 0
0.53333333 0.4 0
0.56666667 0.4 0
0.6 0.4 0
0.63333333 0.4 0
0.66666667 0.4 0
0.7 0.4 0
0.73333333 0.4 0
0.76666667 0.4 0
0.8 0.4 0
0.83333333 0.4 0
0.86666667 0.4 0
0.9 0.4 0
0.93333333 0.4 0
0.96666667 0.4 0
1 0.4 0
0 0.43333333 0
0.033333333 0.43333333 0
0.066666667 0.43333333 0
0.1 0.43333333 0
0.13333333 0.43333333 0
0.16666667 0.43333333 0
0.2 0.43333333 0
0.23333333 0.43333333 0
0.26666667 0.43333333 0
0.3 0.43333333 0
0.33333333 0.43333333 0
0.36666667 0.43333333 0
0.4 0.43333333 0
0.43333333 0.43333333 0
0.46666667 0.43333333 0
0.5 0.43333333 0
0.53333333 0.43333333 0
0.56666667 0.43333333 0
0.6 0.43333333 0
0.63333333 0.43333333 0
0.66666667 0.43333333 0
0.7 0.43333333 0
0.73333333 0.43333333 0
0.76666667 0.43333333 0
0.8 0.43333333 0
0.83333333 0.43333333 0
0.86666667 0.43333333 0
0.9 0.43333333 0
0.93333333 0.43333333 0
0.96666667 0.43333333 0
1 0.43333333 0
0 0.46666667 0
0.033333333 0.46666667 0
0.066666667 0.46666667 0
0.1 0.46666667 0
0.13333333 0.46666667 0
0.16666667 0.46666667 0
0.2 0.46666667 0
0.23333333 0.46666667 0
0.26666667 0.46666667 0
0.3 0.46666667 0
0.33333333 0.46666667 0
0.36666667 0.46666667 0
0.4 0.46666667 0
0.43333333 0.46666667 0
0.46666667 0.46666667 0
0.5 0.46666667 0
0.53333333 0.46666667 0
0.56666667 0.46666667 0
0.6 0.46666667 0
0.63333333 0.46666667 0
0.66666667 0.46666667 0
0.7 0.46666667 0
0.73333333 0.46666667 0
0.76666667 0.46666667 0
0.8 0.46666667 0
0.83333333 0.46666667 0
0.86666667 0.46666667 0
0.9 0.46666667 0
0.93333333 0.46666667 0
0.96666667 0.46666667 0
1 0.46666667 0
0 0.5 0
0.033333333 0.5 0
0.066666667 0.5 0
0.1 0.5 0
0.13333333 0.5 0
0.16666667 0.5 0
0.2 0.5 0
0.23333333 0.5 0
0.26666667 0.5 0
0.3 0.5 0
0.33333333 0.5 0
0.36666667 0.5 0
0.4 0.5 0
0.43333333 0.5 0
0.46666667 0.5 0
0.5 0.5 0
0.53333333 0.5 0
0.56666667 0.5 0
0.6 0.5 0
0.63333333 0.5 0
0.66666667 0.5 0
0.7 0.5 0
0.73333333 0.5 0
0.76666667 0.5 0
0.8 0.5 0
0.83333333 0.5 0
0.86666667 0.5 0
0.9 0.5 0
0.93333333 0.5 0
0.96666667 0.5 0
1 0.5 0
0 0.53333333 0
0.033333333 0.53333333 0
0.066666667 0.53333333 0
0.1 0.53333333 0
0.13333333 0.53333333 0
0.16666667 0.53333333 0
0.2 0.53333333 0
0.23333333 0.53333333 0
0.26666667 0.53333333 0
0.3 0.53333333 0
0.33333333 0.53333333 0
0.36666667 0.53333333 0
0.4 0.53333333 0
0.43333333 0.53333333 0
0.46666667 0.53333333 0
0.5 0.53333333 0
0.53333333 0.53333333 0
0.56666667 0.53333333 0
0.6 0.53333333 0
0.63333333 0.53333333 0
0.66666667 0.53333333 0
0.7 0.53333333 0
0.73333333 0.53333333 0
0.76666667 0.53333333 0
[...]
CELL_DATA 1920
Scalars  Label int 1
LOOKUP_TABLE FreeFempp_table
0
0
0
0
0
0
0
0
0
0
0
0
0
0
0
0
0
0
0
0
0
0
0
0
0
0
0
0
0
0
0
0
0
0
0
0
0
0
0
0
0
0
0
0
0
0
0
0
0
0
0
0
0
0
0
0
0
0
0
0
0
0
0
0
0
0
0
0
0
0
0
0
0
0
0
0
0
0
0
0
0
0
0
0
0
0
0
0
0
0
0
0
0
0
0
0
0
0
0
0
0
0
0
0
0
0
0
0
0
0
0
0
0
0
0
0
0
0
0
0
0
0
0
0
0
0
0
0
0
0
0
0
0
0
0
0
0
0
0
0
0
0
0
0
0
0
0
0
0
0
0
0
0
0
0
0
0
0
0
0
0
0
0
0
0
0
0
0
0
0
0
0
0
0
0
0
0
0
0
0
0
0
0
0
0
0
0
0
0
0
0
0
0
0
0
0
0
0
0
0
0
0
0
0
0
0
0
0
0
0
0
0
0
0
0
0
0
0
0
0
0
0
0
0
0
0
0
0
0
0
0
0
0
0
0
0
0
0
0
0
0
0
0
0
0
0
0
0
0
0
0
0
0
0
0
0
0
0
0
0
0
0
0
0
0
0
0
0
0
0
0
0
0
0
0
0
0
0
0
0
0
0
0
0
0
0
0
0
0
0
0
0
0
0
0
0
0
0
0
0
0
0
0
0
0
0
0
0
0
0
0
0
0
0
0
0
0
0
0
0
0
0
0
0
0
0
0
0
0
0
0
0
0
0
0
0
0
0
0
0
0
0
0
0
0
0
0
0
0
0
0
0
0
0
0
0
0
0
0
0
0
0
0
0
0
0
0
0
0
0
0
0
0
0
0
0
0
0
0
0
0
0
0
0
0
0
0
0
0
0
0
0
0
0
0
0
0
0
0
0
0
0
0
0
0
0
0
0
0
0
0
0
0
0
0
0
0
0
0
0
0
0
0
0
0
0
0
0
0
0
0
0
0
0
0
0
0
0
0
0
0
0
0
0
0
0
0
0
0
0
0
0
0
0
0
0
0
0
0
0
0
0
0
0
0
0
0
0
0
0
0
0
0
0
0
0
0
0
0
0
0
0
0
0
0
0
0
0
0
0
0
0
0
0
0
0
0
0
0
0
0
0
0
0
0
0
0
0
0
0
0
0
0
0
0
0
0
0
0
0
0
0
0
0
0
0
0
0
0
0
0
0
0
0
0
0
0
0
0
0
0
0
0
0
0
0
0
0
0
0
0
0
0
0
0
0
0
0
0
0
0
0
0
0
0
0
0
0
0
0
0
0
0
0
0
0
0
0
0
0
0
0
0
0
0
0
0
0
0
0
0
0
0
0
0
0
0
0
0
0
0
0
0
0
0
0
0
0
0
0
0
0
0
0
0
0
0
0
0
0
0
0
0
0
0
0
0
0
0
0
0
0
0
0
0
0
0
0
0
0
0
0
0
0
0
0
0
0
0
0
0
0
0
0
0
0
0
0
0
0
0
0
0
0
0
0
0
0
0
0
0
0
0
0
0
0
0
0
0
0
0
0
0
0
0
0
0
0
0
0
0
0
0
0
0
0
0
0
0
0
0
0
0
0
0
0
0
0
0
0
0
0
0
0
0
0
0
0
0
0
0
0
0
0
0
0
0
0
0
0
0
0
0
0
0
0
0
0
0
0
0
0
0
0
0
0
0
0
0
0
0
0
0
0
0
0
0
0
0
0
0
0
0
0
0
0
0
0
0
0
0
0
0
0
0
0
0
0
0
0
0
0
0
0
0
0
0
0
0
0
0
0
0
0
0
0
0
0
0
0
0
0
0
0
0
0
0
0
0
0
0
0
0
0
0
0
0
0
0
0
0
0
0
0
0
0
0
0
0
0
0
0
0
0
0
0
0
0
0
0
0
0
0
0
0
0
0
0
0
0
0
0
0
0
0
0
0
0
0
0
0
0
0
0
0
0
0
0
0
0
0
0
0
0
0
0
0
0
0
0
0
0
0
0
0
0
0
0
0
0
0
0
0
0
0
0
0
0
0
0
0
0
0
0
0
0
0
0
0
0
0
0
0
0
0
0
0
0
0
0
0
0
0
0
0
0
0
0
0
0
0
0
0
0
0
0
0
0
0
0
0
0
0
0
0
0
0
0
0
0
0
0
0
0
0
0
0
0
0
0
0
0
0
0
0
0
0
0
0
0
0
0
0
0
0
0
0
0
0
0
0
0
0
0
0
0
0
0
0
0
0
0
0
0
0
0
0
0
0
0
0
0
0
0
0
0
0
0
0
0
0
0
0
0
0
0
0
0
0
0
0
0
0
0
0
0
0
0
0
0
0
0
0
0
0
0
0
0
0
0
0
0
0
0
0
0
0
0
0
0
0
0
0
0
0
0
0
0
0
0
0
0
0
0
0
0
0
0
0
0
0
0
0
0
0
0
0
0
0
0
0
0
0
0
0
0
0
0
0
0
0
0
0
0
0
0
0
0
0
0
0
0
0
0
0
0
0
0
0
0
0
0
0
0
0
0
0
0
0
0
0
0
0
0
0
0
0
0
0
0
0
0
0
0
0
0
0
0
0
0
0
0
0
0
0
0
0
0
0
0
0
0
0
0
0
0
0
0
0
0
0
0
0
0
0
0
0
0
0
0
0
0
0
0
0
0
0
0
0
0
0
0
0
0
0
0
0
0
0
0
0
0
0
0
0
0
0
0
0
0
0
0
0
0
0
0
0
0
0
0
0
0
0
0
0
0
0
0
0
0
0
0
0
0
0
0
0
0
0
0
0
0
0
0
0
0
0
0
0
0
0
0
0
0
0
0
0
0
0
0
0
0
0
0
0
0
0
0
0
0
0
0
0
0
0
0
0
0
0
0
0
0
0
0
0
0
0
0
0
0
0
0
0
0
0
0
0
0
0
0
0
0
0
0
0
0
0
0
0
0
0
0
0
0
0
0
0
0
0
0
0
0
0
0
0
0
0
0
0
0
0
0
0
0
0
0
0
0
0
0
0
0
0
0
0
0
0
0
0
0
0
0
0
0
0
0
0
0
0
0
0
0
0
0
0
0
0
0
0
0
0
0
0
0
0
0
0
0
0
0
0
0
0
0
0
0
0
0
0
0
0
0
0
0
0
0
0
0
0
0
0
0
0
0
0
0
0
0
0
0
0
0
0
0
0
0
0
0
0
0
0
0
0
0
0
0
0
0
0
0
0
0
0
0
0
0
0
0
0
0
0
0
0
0
0
0
0
0
0
0
0
0
0
0
0
0
0
0
0
0
0
0
0
0
0
0
0
0
0
0
0
0
0
0
0
0
0
0
0
0
0
0
0
0
0
0
0
0
0
0
0
0
0
0
0
0
0
0
0
0
0
0
0
0
0
0
0
0
0
0
0
0
0
0
0
0
0
0
0
0
0
0
0
0
0
0
0
0
0
0
0
0
0
0
0
0
0
0
0
0
0
0
0
0
0
0
0
0
0
0
0
0
0
0
0
0
0
0
0
0
0
0
0
0
0
0
0
0
0
0
0
0
0
0
0
0
0
0
0
0
0
0
0
0
0
0
0
0
0
0
0
0
0
0
0
0
0
0
0
0
0
0
0
0
0
0
0
0
0
0
0
0
0
0
0
0
0
0
0
0
0
0
0
0
0
0
0
0
0
0
0
0
0
0
0
0
0
0
0
0
0
0
0
0
0
0
0
0
0
0
0
0
0
0
0
0
0
0
0
0
0
0
0
0
0
0
0
0
0
0
0
0
0
0
0
0
0
0
0
0
0
0
0
0
0
0
0
0
0
0
0
0
0
0
0
0
0
0
0
0
0
0
0
0
0
0
0
0
0
0
0
0
0
0
0
0
0
0
0
0
0
0
0
0
0
0
0
0
0
0
0
0
0
0
0
0
0
0
0
0
0
0
0
0
0
0
0
0
0
0
0
0
0
0
0
0
0
0
0
0
0
0
0
0
0
0
0
0
0
0
0
0
0
0
0
0
0
0
0
0
0
0
0
0
0
0
0
0
0
0
0
0
0
0
0
0
0
0
0
0
0
0
0
0
0
0
0
0
0
0
1
1
1
1
1
1
1
1
1
1
1
1
1
1
1
1
1
1
1
1
1
1
1
1
1
1
1
1
1
1
2
2
2
2
2
2
2
2
2
2
2
2
2
2
2
2
2
2
2
2
2
2
2
2
2
2
2
2
2
2
3
3
3
3
3
3
3
3
3
3
3
3
3
3
3
3
3
3
3
3
3
3
3
3
3
3
3
3
3
3
4
4
4
4
4
4
4
4
4
4
4
4
4
4
4
4
4
4
4
4
4
4
4
4
4
4
4
4
4
4

LOOKUP_TABLE FreeFempp_table 5
1.00000000 0.00000000 0.00000000 1.00000000
1.00000000 1.00000000 0.00000000 1.00000000
1.00000000 0.00000000 1.00000000 1.00000000
0.00000000 1.00000000 0.00000000 1.00000000
0.00000000 1.00000000 1.00000000 1.00000000

POINT_DATA 961
FIELD FieldData 1
Density 1 961 float
4.09192562e-01 3.94989282e-01 4.16407436e-01 4.26640660e-01 4.32506830e-01 4.36768860e-01 4.39805359e-01 4.44373846e-01 4.49930280e-01 4.55786914e-01 4.61291969e-01 4.68582600e-01 4.86601323e-01 3.55136335e-01 1.88950077e-02 1.56702939e-02 4.82672378e-02 4.60177988e-01 4.96203721e-01 5.21850407e-01 5.11483669e-01 5.19928992e-01 5.30083299e-01 5.30271828e-01 5.30043602e-01 5.33125639e-01 5.38982034e-01 5.39810061e-01 5.35836101e-01 5.32230556e-01 4.99208838e-01 3.71915400e-01 3.06155920e-01 3.31355512e-01 3.51625890e-01 3.62377375e-01 3.75248462e-01 3.90659600e-01 3.91071826e-01 4.00424361e-01 4.16454554e-01 4.23515916e-01 4.33741122e-01 4.44832295e-01 3.44106615e-01 2.24533007e-02 9.17710271e-03 2.03321110e-02 3.26383889e-01 4.92483586e-01 5.10032654e-01 5.37561059e-01 5.62283397e-01 5.82928240e-01 5.86772025e-01 5.83325386e-01 5.83295226e-01 5.89863837e-01 5.89580238e-01 5.85218310e-01 5.77050209e-01 5.30833840e-01 3.72132659e-01 3.01517755e-01 3.10517341e-01 3.26560616e-01 3.44223171e-01 3.58954519e-01 3.67923468e-01 3.72338265e-01 3.83621454e-01 3.97105098e-01 4.07681555e-01 4.24755126e-01 4.38462764e-01 3.50865543e-01 3.32570262e-02 1.03608239e-02 1.55016519e-02 2.23348215e-01 4.90454525e-01 5.11991978e-01 5.42032182e-01 5.74404597e-01 5.89214087e-01 5.91611505e-01 5.88041484e-01 5.80797374e-01 5.74897528e-01 5.79229951e-01 5.81111550e-01 5.70210159e-01 5.23467481e-01 3.79133046e-01 3.07921410e-01 3.13675195e-01 3.22902471e-01 3.40349883e-01 3.48681390e-01 3.60622466e-01 3.70164514e-01 3.81520152e-01 3.94572318e-01 4.07195866e-01 4.22230870e-01 4.37283814e-01 3.41361433e-01 4.28220630e-02 1.09647857e-02 1.26020918e-02 1.36009738e-01 5.03739059e-01 5.13411105e-01 5.41585505e-01 5.72319567e-01 5.92937529e-01 5.96638739e-01 5.93745291e-01 5.83987772e-01 5.67248344e-01 5.69743812e-01 5.79970002e-01 5.71663737e-01 5.18043220e-01 3.96098286e-01 3.28991294e-01 3.31202149e-01 3.26504886e-01 3.35293472e-01 3.49096060e-01 3.59505624e-01 3.73866200e-01 3.83762091e-01 3.93319160e-01 4.08781052e-01 4.26083386e-01 4.40597564e-01 3.21814716e-01 4.91883680e-02 1.21637825e-02 1.21783353e-02 8.68947208e-02 4.89404142e-01 5.55750072e-01 5.75029373e-01 5.72878778e-01 6.00904405e-01 6.03544056e-01 5.98127961e-01 5.89561522e-01 5.66052377e-01 5.57796240e-01 5.77563703e-01 5.71632445e-01 5.15251398e-01 4.14771497e-01 3.74613374e-01 3.72909695e-01 3.57136846e-01 3.36176932e-01 3.49191219e-01 3.68952453e-01 3.90181333e-01 4.01465267e-01 4.02426392e-01 4.09852982e-01 4.30181503e-01 4.41992015e-01 2.96335638e-01 5.14802933e-02 1.36660803e-02 1.28609976e-02 6.41117692e-02 4.56600130e-01 5.41049719e-01 5.57216287e-01 5.98760128e-01 6.01948977e-01 6.17712915e-01 6.08238101e-01 6.09443009e-01 5.74034691e-01 5.51253915e-01 5.69842875e-01 5.62852383e-01 5.13046324e-01 4.19733405e-01 3.99208784e-01 3.91559124e-01 3.88935626e-01 3.79158497e-01 3.71694386e-01 3.72019261e-01 3.87075603e-01 4.14060712e-01 4.30989206e-01 4.33758616e-01 4.38519835e-01 4.39390928e-01 2.67345011e-01 5.14032058e-02 1.49876643e-02 1.39336800e-02 5.41638769e-02 4.07994717e-01 5.47438145e-01 5.51319718e-01 5.66545010e-01 5.99927187e-01 6.15971565e-01 6.11384213e-01 6.04032338e-01 5.97536385e-01 5.53998351e-01 5.62680900e-01 5.62976182e-01 4.95636433e-01 4.08191085e-01 3.79598349e-01 3.76509160e-01 3.84799182e-01 3.82991463e-01 3.82068008e-01 3.88403445e-01 3.98623943e-01 4.10898864e-01 4.26957577e-01 4.43320990e-01 4.53643531e-01 4.35435593e-01 2.38824129e-01 5.11927493e-02 1.60471201e-02 1.49316192e-02 5.00538684e-02 3.68208766e-01 5.44769287e-01 5.55019081e-01 5.58550775e-01 5.83976150e-01 6.04294717e-01 6.16796255e-01 6.11700654e-01 5.85021496e-01 5.68868697e-01 5.55934310e-01 5.63225389e-01 5.09229422e-01 3.97718906e-01 3.46229434e-01 3.53912532e-01 3.63875836e-01 3.63115907e-01 3.65570366e-01 3.77889127e-01 3.92954826e-01 4.07407284e-01 4.20252115e-01 4.35260087e-01 4.54208970e-01 4.18824255e-01 2.12005883e-01 5.21146692e-02 1.71087105e-02 1.57155860e-02 4.79505695e-02 3.36993992e-01 5.36601841e-01 5.61209619e-01 5.75836599e-01 6.01396739e-01 6.17657602e-01 6.35217190e-01 6.09684944e-01 5.86649835e-01 5.52353382e-01 5.61577857e-01 5.33047795e-01 5.61878085e-01 3.76521617e-01 3.14070106e-01 3.28010559e-01 3.32140386e-01 3.32132220e-01 3.40720922e-01 3.51340532e-01 3.68039340e-01 3.89798135e-01 4.09314841e-01 4.29129899e-01 4.47426736e-01 3.88313115e-01 1.88503757e-01 5.45284338e-02 1.84815545e-02 1.62768625e-02 4.54342999e-02 3.02058637e-01 5.36044002e-01 5.94515622e-01 6.22516394e-01 6.30448759e-01 6.33682251e-01 6.35491610e-01 5.98397732e-01 5.85215807e-01 5.62544644e-01 5.61614990e-01 5.51413953e-01 5.55313826e-01 3.41351241e-01 2.69914597e-01 2.88286656e-01 2.94577330e-01 2.94067860e-01 3.04432303e-01 3.22531492e-01 3.44860345e-01 3.68846536e-01 3.96719545e-01 4.23711449e-01 4.37812954e-01 3.55797112e-01 1.70379415e-01 5.82305230e-02 2.04210356e-02 1.65489949e-02 4.14634235e-02 2.56224722e-01 5.22781789e-01 5.88855505e-01 6.24397635e-01 6.32783532e-01 6.22762740e-01 6.21944487e-01 6.13918006e-01 5.85198164e-01 5.56857109e-01 5.57961226e-01 5.35883367e-01 5.28625667e-01 2.91777998e-01 2.12624460e-01 2.38403305e-01 2.56044924e-01 2.62127906e-01 2.72255450e-01 2.89662927e-01 3.13027799e-01 3.45357478e-01 3.80975455e-01 4.13564742e-01 4.24210548e-01 3.28900874e-01 1.58588842e-01 6.28721192e-02 2.32074708e-02 1.62762031e-02 3.62021476e-02 2.05253109e-01 5.07951796e-01 5.76900005e-01 6.08946085e-01 6.28885388e-01 6.38189971e-01 6.30093455e-01 6.13277674e-01 5.80136001e-01 5.58191180e-01 5.53643107e-01 5.18836856e-01 5.13422191e-01 2.28190690e-01 1.50265083e-01 1.86333746e-01 2.12546602e-01 2.29973242e-01 2.43958101e-01 2.62591332e-01 2.86604971e-01 3.18390012e-01 3.57323408e-01 3.95265996e-01 4.01874006e-01 2.93601722e-01 1.42483711e-01 6.54322132e-02 2.69996934e-02 1.51953036e-02 3.03087961e-02 1.61523595e-01 4.83523071e-01 5.71931779e-01 6.00789905e-01 6.14772320e-01 6.30964637e-01 6.26044452e-01 6.04633570e-01 5.71268201e-01 5.57209909e-01 5.48041165e-01 5.06601155e-01 4.95296061e-01 1.44364819e-01 8.26785415e-02 1.31829962e-01 1.67326197e-01 1.96080253e-01 2.16953143e-01 2.35953540e-01 2.59883672e-01 2.92059809e-01 3.30735385e-01 3.69257003e-01 3.53350133e-01 2.03062758e-01 8.46606866e-02 4.12405021e-02 1.99448671e-02 1.08418223e-02 2.04103664e-02 1.22938991e-01 4.56181407e-01 5.64565361e-01 6.11752212e-01 6.19052708e-01 6.31928384e-01 6.19842529e-01 6.03812337e-01 5.74675143e-01 5.51973164e-01 5.43760896e-01 4.91488814e-01 4.78784680e-01 3.10917525e-03 6.89163338e-03 7.19291568e-02 1.18395545e-01 1.61210164e-01 1.93851873e-01 2.14973986e-01 2.35652149e-01 2.68144041e-01 3.08462501e-01 3.37789685e-01 2.47928381e-01 8.65979493e-02 2.07971334e-02 2.78874068e-03 2.05644150e-03 2.03689025e-03 4.46103793e-03 4.40863855e-02 3.90310407e-01 5.66336155e-01 6.25080585e-01 6.31952465e-01 6.36555970e-01 6.11633539e-01 6.09835327e-01 5.57353437e-01 5.45237482e-01 5.26071906e-01 4.82138395e-01 4.69784588e-01 2.03309674e-03 1.63344061e-03 1.72297412e-03 5.78721501e-02 1.14201069e-01 1.69443905e-01 2.01857865e-01 2.18863353e-01 2.45569542e-01 2.76496828e-01 2.60878921e-01 1.12688899e-01 1.48331402e-02 2.32823286e-03 1.94155693e-03 2.20553670e-03 1.63589139e-03 1.53333135e-03 3.60951317e-03 1.03473507e-01 5.70363522e-01 5.86800873e-01 6.04347467e-01 6.30106330e-01 6.05556905e-01 5.92526257e-01 5.47625899e-01 5.43025136e-01 5.04693329e-01 4.95964944e-01 4.80122238e-01 1.08424827e-01 5.50270872e-03 1.02144573e-03 1.15289504e-03 1.20937137e-03 1.18267290e-01 1.81976438e-01 1.99946165e-01 2.05071524e-01 1.86465904e-01 1.04316570e-01 2.24710908e-02 2.42963270e-03 1.86956069e-03 1.74242479e-03 1.66490453e-03 1.37869325e-02 1.79395592e-03 1.49879558e-03 5.95855061e-03 4.14976150e-01 6.52263165e-01 6.32064760e-01 6.12904489e-01 6.06169105e-01 5.99204600e-01 5.50697803e-01 5.25986075e-01 4.95467424e-01 4.90766585e-01 4.96774316e-01 2.52860546e-01 1.00997955e-01 6.35509565e-02 2.59361649e-03 9.14415577e-04 7.73547275e-04 9.24801677e-02 1.37686789e-01 8.46238509e-02 3.21527757e-02 2.40232213e-03 1.84066803e-03 1.76451355e-03 1.77667651e-03 1.65889462e-04 7.69289136e-02 2.28635371e-01 3.21662188e-01 1.51826849e-03 1.21737155e-03 3.20980214e-02 7.22305179e-01 6.91650927e-01 6.45311534e-01 6.08167768e-01 5.87577641e-01 5.26978314e-01 5.12091875e-01 4.84893739e-01 4.92422968e-01 4.98840481e-01 3.66438270e-01 2.35260069e-01 1.93316519e-01 1.26361623e-01 2.59991977e-02 1.59717060e-03 8.50933488e-04 2.17190920e-03 1.85554032e-03 1.72174769e-03 1.76453590e-03 1.70168653e-03 2.02246243e-03 1.45676767e-03 7.64626935e-02 3.28544527e-01 3.39895874e-01 3.22790533e-01 6.38128668e-02 1.14407041e-03 1.99704547e-03 7.36088574e-01 7.10515678e-01 6.65577710e-01 6.06538117e-01 5.66451848e-01 5.16511321e-01 5.00810266e-01 4.60297704e-01 4.73412305e-01 4.93809104e-01 4.49694663e-01 3.68479788e-01 3.21147144e-01 2.76918381e-01 2.15895608e-01 1.21345088e-01 4.84455796e-03 2.30085384e-03 1.86463422e-03 1.92156457e-03 1.35190831e-03 2.52052420e-03 3.08191720e-02 8.02272856e-02 8.40058506e-01 9.31591094e-01 7.60577381e-01 4.43374038e-01 3.28743726e-01 2.14031246e-03 2.14587455e-03 7.31813073e-01 7.22443879e-01 6.81592166e-01 6.22517407e-01 5.60567617e-01 5.12528419e-01 4.95394588e-01 4.68027264e-01 4.74199802e-01 4.88536388e-01 5.09838998e-01 4.87925291e-01 4.46550697e-01 4.22019213e-01 3.94901723e-01 3.50331724e-01 2.61641175e-01 1.37390599e-01 9.93672535e-02 9.02171433e-02 1.14953361e-01 1.95290685e-01 3.11071455e-01 8.52318227e-01 8.05000216e-02 3.74213129e-01 5.52056730e-01 8.29151630e-01 4.76359278e-01 2.26928503e-03 2.07116175e-03 7.19847381e-01 7.19337940e-01 6.76649690e-01 6.30453765e-01 5.74124813e-01 5.18273234e-01 5.02805173e-01 4.88365650e-01 5.23399174e-01 4.99075800e-01 5.52507341e-01 5.83554208e-01 5.56654692e-01 5.48106730e-01 5.49057722e-01 5.52862525e-01 5.64582467e-01 5.86892128e-01 5.95083356e-01 7.10246205e-01 8.44655693e-01 9.71915007e-01 9.60443795e-01 1.42088503e-01 3.56370918e-02 2.98112910e-02 3.12904865e-01 6.11281097e-01 8.35886896e-01 2.47921492e-03 2.30104197e-03 7.17949629e-01 7.25189149e-01 6.77808106e-01 5.98365307e-01 5.37791252e-01 5.14635742e-01 5.01359284e-01 4.65005547e-01 4.78587657e-01 4.94026273e-01 5.71512222e-01 6.36516750e-01 6.18967831e-01 6.17107034e-01 6.25491619e-01 6.39935970e-01 6.58681571e-01 6.89913034e-01 7.55082965e-01 8.27412307e-01 9.12806273e-01 9.35711443e-01 3.32447253e-02 1.70621201e-02 1.75960902e-02 3.61808091e-02 1.55230209e-01 6.17867649e-01 9.20075178e-01 2.71295803e-03 2.47926312e-03 6.99372530e-01 7.27606893e-01 6.84213161e-01 5.87217271e-01 5.27161002e-01 5.05460322e-01 4.95464832e-01 4.62127656e-01 4.68396366e-01 4.85987961e-01 5.62443912e-01 6.35799408e-01 6.20635211e-01 6.15985274e-01 6.16108954e-01 6.15054965e-01 6.05332315e-01 5.85685551e-01 6.03052258e-01 6.73000515e-01 6.51017606e-01 5.89261912e-02 7.56267924e-03 7.35947117e-03 1.39727611e-02 8.34488943e-02 7.35685706e-01 7.90566623e-01 9.34050798e-01 3.62882786e-03 2.87523167e-03 6.61921263e-01 7.41458058e-01 6.96313858e-01 5.80519438e-01 5.16845822e-01 4.96921033e-01 4.81968224e-01 4.56387997e-01 4.53829974e-01 4.76645052e-01 5.35438120e-01 5.92354119e-01 5.77740371e-01 5.65400362e-01 5.50918579e-01 5.28450489e-01 4.92979318e-01 4.46448445e-01 4.70337778e-01 6.47365093e-01 4.97274578e-01 6.99502928e-03 4.16624732e-03 4.66042245e-03 3.56816910e-02 7.28542507e-01 7.00900793e-01 7.09185660e-01 9.26809371e-01 4.15365957e-03 2.37180525e-03 5.50018609e-01 7.69828439e-01 7.18714893e-01 5.63217282e-01 4.99340177e-01 4.87890184e-01 4.73514557e-01 4.51147646e-01 4.46952432e-01 4.73355740e-01 5.07183194e-01 5.35203099e-01 5.20712316e-01 5.01028359e-01 4.74464387e-01 4.38919932e-01 3.98889631e-01 3.63370538e-01 4.11082119e-01 6.63283229e-01 3.03410470e-01 3.10880691e-03 3.73080815e-03 9.79832187e-03 2.38314599e-01 7.29438007e-01 5.88648677e-01 5.89937925e-01 8.55735004e-01 2.22731695e-01 2.87654065e-03 5.43732056e-03 8.41253102e-01 7.50540555e-01 5.24760783e-01 4.62731332e-01 4.74070072e-01 4.71778780e-01 4.53763694e-01 4.40928042e-01 4.65520829e-01 4.84601289e-01 4.87204760e-01 4.73944604e-01 4.51250792e-01 4.20173168e-01 3.82007927e-01 3.46961081e-01 3.29280049e-01 3.85339916e-01 6.37482822e-01 2.15146497e-01 2.13897857e-03 2.80398037e-03 3.73169556e-02 7.06332862e-01 6.36676967e-01 4.62157756e-01 5.03437400e-01 8.10780048e-01 9.52447474e-01 1.21361101e-02 4.56489343e-03 5.47882259e-01 8.47022474e-01 5.08267999e-01 4.27218258e-01 4.60369825e-01 4.72209275e-01 4.64581400e-01 4.50620741e-01 4.62426305e-01 4.61487114e-01 4.44775134e-01 4.36557353e-01 4.20002580e-01 3.94980013e-01 3.63350987e-01 3.33976388e-01 3.23141217e-01 3.64109725e-01 5.79277217e-01 2.29715019e-01 1.76755723e-03 2.04959977e-03 1.29855379e-01 6.53044224e-01 5.05664706e-01 3.07400674e-01 2.80969650e-01 4.63342577e-01 8.36337388e-01 9.59720314e-01 2.56498647e-03 8.55938811e-03 5.43587983e-01 5.91180384e-01 4.59984243e-01 4.90686715e-01 5.11620820e-01 5.13691962e-01 5.19977093e-01 4.79990005e-01 4.30770546e-01 3.93746853e-01 3.90699953e-01 3.84523869e-01 3.74846667e-01 3.62569392e-01 3.49329263e-01 3.41490358e-01 3.49821121e-01 4.82368320e-01 3.28338385e-01 1.66145246e-03 1.77373015e-03 4.96531010e-01 6.01264536e-01 5.18454969e-01 4.66751307e-01 2.51926541e-01 2.25933105e-01 2.48883307e-01 7.20872521e-01 9.23227310e-01 9.33530107e-02 7.01289833e-01 7.38942802e-01 6.35154545e-01 6.29378259e-01 6.42967761e-01 6.45984173e-01 6.67529404e-01 5.51981032e-01 3.93144995e-01 3.33117127e-01 3.30106527e-01 3.27552795e-01 3.26827466e-01 3.28999281e-01 3.36802423e-01 3.51889014e-01 3.65401477e-01 4.45415050e-01 4.38248545e-01 1.44296023e-03 1.71529828e-03 5.67991912e-01 5.42119682e-01 5.18065631e-01 7.28298903e-01 5.63111901e-01 2.75891840e-01 4.80400234e-01 1.74095064e-01 3.45435530e-01 8.15457225e-01 8.75899255e-01 8.32026362e-01 8.03104699e-01 7.96358287e-01 7.94056833e-01 7.89019823e-01 7.99407244e-01 6.64124012e-01 4.42289501e-01 3.76800090e-01 3.73518854e-01 3.70827049e-01 3.68995279e-01 3.69205743e-01 3.73405486e-01 3.86774272e-01 4.15492207e-01 4.72684026e-01 3.05542797e-01 2.57528038e-03 1.76228827e-03 6.36715889e-01 4.97780681e-01 5.12170732e-01 6.29626155e-01 8.15489590e-01 7.32853770e-01 7.73341537e-01 5.66510499e-01 2.41611198e-01 2.47962177e-01 5.66066325e-01 7.15432405e-01 7.51789153e-01 7.54340470e-01 7.47626901e-01 7.39199400e-01 7.36505151e-01 6.69372022e-01 
