# vtk DataFile Version 2.0
results_case1_non_linear/4_density.vtk, Created by Freefem++ 
ASCII
DATASET UNSTRUCTURED_GRID
POINTS 961 float
0 0 0
0.033333333 0 0
0.066666667 0 0
0.1 0 0
0.13333333 0 0
0.16666667 0 0
0.2 0 0
0.23333333 0 0
0.26666667 0 0
0.3 0 0
0.33333333 0 0
0.36666667 0 0
0.4 0 0
0.43333333 0 0
0.46666667 0 0
0.5 0 0
0.53333333 0 0
0.56666667 0 0
0.6 0 0
0.63333333 0 0
0.66666667 0 0
0.7 0 0
0.73333333 0 0
0.76666667 0 0
0.8 0 0
0.83333333 0 0
0.86666667 0 0
0.9 0 0
0.93333333 0 0
0.96666667 0 0
1 0 0
0 0.033333333 0
0.033333333 0.033333333 0
0.066666667 0.033333333 0
0.1 0.033333333 0
0.13333333 0.033333333 0
0.16666667 0.033333333 0
0.2 0.033333333 0
0.23333333 0.033333333 0
0.26666667 0.033333333 0
0.3 0.033333333 0
0.33333333 0.033333333 0
0.36666667 0.033333333 0
0.4 0.033333333 0
0.43333333 0.033333333 0
0.46666667 0.033333333 0
0.5 0.033333333 0
0.53333333 0.033333333 0
0.56666667 0.033333333 0
0.6 0.033333333 0
0.63333333 0.033333333 0
0.66666667 0.033333333 0
0.7 0.033333333 0
0.73333333 0.033333333 0
0.76666667 0.033333333 0
0.8 0.033333333 0
0.83333333 0.033333333 0
0.86666667 0.033333333 0
0.9 0.033333333 0
0.93333333 0.033333333 0
0.96666667 0.033333333 0
1 0.033333333 0
0 0.066666667 0
0.033333333 0.066666667 0
0.066666667 0.066666667 0
0.1 0.066666667 0
0.13333333 0.066666667 0
0.16666667 0.066666667 0
0.2 0.066666667 0
0.23333333 0.066666667 0
0.26666667 0.066666667 0
0.3 0.066666667 0
0.33333333 0.066666667 0
0.36666667 0.066666667 0
0.4 0.066666667 0
0.43333333 0.066666667 0
0.46666667 0.066666667 0
0.5 0.066666667 0
0.53333333 0.066666667 0
0.56666667 0.066666667 0
0.6 0.066666667 0
0.63333333 0.066666667 0
0.66666667 0.066666667 0
0.7 0.066666667 0
0.73333333 0.066666667 0
0.76666667 0.066666667 0
0.8 0.066666667 0
0.83333333 0.066666667 0
0.86666667 0.066666667 0
0.9 0.066666667 0
0.93333333 0.066666667 0
0.96666667 0.066666667 0
1 0.066666667 0
0 0.1 0
0.033333333 0.1 0
0.066666667 0.1 0
0.1 0.1 0
0.13333333 0.1 0
0.16666667 0.1 0
0.2 0.1 0
0.23333333 0.1 0
0.26666667 0.1 0
0.3 0.1 0
0.33333333 0.1 0
0.36666667 0.1 0
0.4 0.1 0
0.43333333 0.1 0
0.46666667 0.1 0
0.5 0.1 0
0.53333333 0.1 0
0.56666667 0.1 0
0.6 0.1 0
0.63333333 0.1 0
0.66666667 0.1 0
0.7 0.1 0
0.73333333 0.1 0
0.76666667 0.1 0
0.8 0.1 0
0.83333333 0.1 0
0.86666667 0.1 0
0.9 0.1 0
0.93333333 0.1 0
0.96666667 0.1 0
1 0.1 0
0 0.13333333 0
0.033333333 0.13333333 0
0.066666667 0.13333333 0
0.1 0.13333333 0
0.13333333 0.13333333 0
0.16666667 0.13333333 0
0.2 0.13333333 0
0.23333333 0.13333333 0
0.26666667 0.13333333 0
0.3 0.13333333 0
0.33333333 0.13333333 0
0.36666667 0.13333333 0
0.4 0.13333333 0
0.43333333 0.13333333 0
0.46666667 0.13333333 0
0.5 0.13333333 0
0.53333333 0.13333333 0
0.56666667 0.13333333 0
0.6 0.13333333 0
0.63333333 0.13333333 0
0.66666667 0.13333333 0
0.7 0.13333333 0
0.73333333 0.13333333 0
0.76666667 0.13333333 0
0.8 0.13333333 0
0.83333333 0.13333333 0
0.86666667 0.13333333 0
0.9 0.13333333 0
0.93333333 0.13333333 0
0.96666667 0.13333333 0
1 0.13333333 0
0 0.16666667 0
0.033333333 0.16666667 0
0.066666667 0.16666667 0
0.1 0.16666667 0
0.13333333 0.16666667 0
0.16666667 0.16666667 0
0.2 0.16666667 0
0.23333333 0.16666667 0
0.26666667 0.16666667 0
0.3 0.16666667 0
0.33333333 0.16666667 0
0.36666667 0.16666667 0
0.4 0.16666667 0
0.43333333 0.16666667 0
0.46666667 0.16666667 0
0.5 0.16666667 0
0.53333333 0.16666667 0
0.56666667 0.16666667 0
0.6 0.16666667 0
0.63333333 0.16666667 0
0.66666667 0.16666667 0
0.7 0.16666667 0
0.73333333 0.16666667 0
0.76666667 0.16666667 0
0.8 0.16666667 0
0.83333333 0.16666667 0
0.86666667 0.16666667 0
0.9 0.16666667 0
0.93333333 0.16666667 0
0.96666667 0.16666667 0
1 0.16666667 0
0 0.2 0
0.033333333 0.2 0
0.066666667 0.2 0
0.1 0.2 0
0.13333333 0.2 0
0.16666667 0.2 0
0.2 0.2 0
0.23333333 0.2 0
0.26666667 0.2 0
0.3 0.2 0
0.33333333 0.2 0
0.36666667 0.2 0
0.4 0.2 0
0.43333333 0.2 0
0.46666667 0.2 0
0.5 0.2 0
0.53333333 0.2 0
0.56666667 0.2 0
0.6 0.2 0
0.63333333 0.2 0
0.66666667 0.2 0
0.7 0.2 0
0.73333333 0.2 0
0.76666667 0.2 0
0.8 0.2 0
0.83333333 0.2 0
0.86666667 0.2 0
0.9 0.2 0
0.93333333 0.2 0
0.96666667 0.2 0
1 0.2 0
0 0.23333333 0
0.033333333 0.23333333 0
0.066666667 0.23333333 0
0.1 0.23333333 0
0.13333333 0.23333333 0
0.16666667 0.23333333 0
0.2 0.23333333 0
0.23333333 0.23333333 0
0.26666667 0.23333333 0
0.3 0.23333333 0
0.33333333 0.23333333 0
0.36666667 0.23333333 0
0.4 0.23333333 0
0.43333333 0.23333333 0
0.46666667 0.23333333 0
0.5 0.23333333 0
0.53333333 0.23333333 0
0.56666667 0.23333333 0
0.6 0.23333333 0
0.63333333 0.23333333 0
0.66666667 0.23333333 0
0.7 0.23333333 0
0.73333333 0.23333333 0
0.76666667 0.23333333 0
0.8 0.23333333 0
0.83333333 0.23333333 0
0.86666667 0.23333333 0
0.9 0.23333333 0
0.93333333 0.23333333 0
0.96666667 0.23333333 0
1 0.23333333 0
0 0.26666667 0
0.033333333 0.26666667 0
0.066666667 0.26666667 0
0.1 0.26666667 0
0.13333333 0.26666667 0
0.16666667 0.26666667 0
0.2 0.26666667 0
0.23333333 0.26666667 0
0.26666667 0.26666667 0
0.3 0.26666667 0
0.33333333 0.26666667 0
0.36666667 0.26666667 0
0.4 0.26666667 0
0.43333333 0.26666667 0
0.46666667 0.26666667 0
0.5 0.26666667 0
0.53333333 0.26666667 0
0.56666667 0.26666667 0
0.6 0.26666667 0
0.63333333 0.26666667 0
0.66666667 0.26666667 0
0.7 0.26666667 0
0.73333333 0.26666667 0
0.76666667 0.26666667 0
0.8 0.26666667 0
0.83333333 0.26666667 0
0.86666667 0.26666667 0
0.9 0.26666667 0
0.93333333 0.26666667 0
0.96666667 0.26666667 0
1 0.26666667 0
0 0.3 0
0.033333333 0.3 0
0.066666667 0.3 0
0.1 0.3 0
0.13333333 0.3 0
0.16666667 0.3 0
0.2 0.3 0
0.23333333 0.3 0
0.26666667 0.3 0
0.3 0.3 0
0.33333333 0.3 0
0.36666667 0.3 0
0.4 0.3 0
0.43333333 0.3 0
0.46666667 0.3 0
0.5 0.3 0
0.53333333 0.3 0
0.56666667 0.3 0
0.6 0.3 0
0.63333333 0.3 0
0.66666667 0.3 0
0.7 0.3 0
0.73333333 0.3 0
0.76666667 0.3 0
0.8 0.3 0
0.83333333 0.3 0
0.86666667 0.3 0
0.9 0.3 0
0.93333333 0.3 0
0.96666667 0.3 0
1 0.3 0
0 0.33333333 0
0.033333333 0.33333333 0
0.066666667 0.33333333 0
0.1 0.33333333 0
0.13333333 0.33333333 0
0.16666667 0.33333333 0
0.2 0.33333333 0
0.23333333 0.33333333 0
0.26666667 0.33333333 0
0.3 0.33333333 0
0.33333333 0.33333333 0
0.36666667 0.33333333 0
0.4 0.33333333 0
0.43333333 0.33333333 0
0.46666667 0.33333333 0
0.5 0.33333333 0
0.53333333 0.33333333 0
0.56666667 0.33333333 0
0.6 0.33333333 0
0.63333333 0.33333333 0
0.66666667 0.33333333 0
0.7 0.33333333 0
0.73333333 0.33333333 0
0.76666667 0.33333333 0
0.8 0.33333333 0
0.83333333 0.33333333 0
0.86666667 0.33333333 0
0.9 0.33333333 0
0.93333333 0.33333333 0
0.96666667 0.33333333 0
1 0.33333333 0
0 0.36666667 0
0.033333333 0.36666667 0
0.066666667 0.36666667 0
0.1 0.36666667 0
0.13333333 0.36666667 0
0.16666667 0.36666667 0
0.2 0.36666667 0
0.23333333 0.36666667 0
0.26666667 0.36666667 0
0.3 0.36666667 0
0.33333333 0.36666667 0
0.36666667 0.36666667 0
0.4 0.36666667 0
0.43333333 0.36666667 0
0.46666667 0.36666667 0
0.5 0.36666667 0
0.53333333 0.36666667 0
0.56666667 0.36666667 0
0.6 0.36666667 0
0.63333333 0.36666667 0
0.66666667 0.36666667 0
0.7 0.36666667 0
0.73333333 0.36666667 0
0.76666667 0.36666667 0
0.8 0.36666667 0
0.83333333 0.36666667 0
0.86666667 0.36666667 0
0.9 0.36666667 0
0.93333333 0.36666667 0
0.96666667 0.36666667 0
1 0.36666667 0
0 0.4 0
0.033333333 0.4 0
0.066666667 0.4 0
0.1 0.4 0
0.13333333 0.4 0
0.16666667 0.4 0
0.2 0.4 0
0.23333333 0.4 0
0.26666667 0.4 0
0.3 0.4 0
0.33333333 0.4 0
0.36666667 0.4 0
0.4 0.4 0
0.43333333 0.4 0
0.46666667 0.4 0
0.5 0.4 0
0.53333333 0.4 0
0.56666667 0.4 0
0.6 0.4 0
0.63333333 0.4 0
0.66666667 0.4 0
0.7 0.4 0
0.73333333 0.4 0
0.76666667 0.4 0
0.8 0.4 0
0.83333333 0.4 0
0.86666667 0.4 0
0.9 0.4 0
0.93333333 0.4 0
0.96666667 0.4 0
1 0.4 0
0 0.43333333 0
0.033333333 0.43333333 0
0.066666667 0.43333333 0
0.1 0.43333333 0
0.13333333 0.43333333 0
0.16666667 0.43333333 0
0.2 0.43333333 0
0.23333333 0.43333333 0
0.26666667 0.43333333 0
0.3 0.43333333 0
0.33333333 0.43333333 0
0.36666667 0.43333333 0
0.4 0.43333333 0
0.43333333 0.43333333 0
0.46666667 0.43333333 0
0.5 0.43333333 0
0.53333333 0.43333333 0
0.56666667 0.43333333 0
0.6 0.43333333 0
0.63333333 0.43333333 0
0.66666667 0.43333333 0
0.7 0.43333333 0
0.73333333 0.43333333 0
0.76666667 0.43333333 0
0.8 0.43333333 0
0.83333333 0.43333333 0
0.86666667 0.43333333 0
0.9 0.43333333 0
0.93333333 0.43333333 0
0.96666667 0.43333333 0
1 0.43333333 0
0 0.46666667 0
0.033333333 0.46666667 0
0.066666667 0.46666667 0
0.1 0.46666667 0
0.13333333 0.46666667 0
0.16666667 0.46666667 0
0.2 0.46666667 0
0.23333333 0.46666667 0
0.26666667 0.46666667 0
0.3 0.46666667 0
0.33333333 0.46666667 0
0.36666667 0.46666667 0
0.4 0.46666667 0
0.43333333 0.46666667 0
0.46666667 0.46666667 0
0.5 0.46666667 0
0.53333333 0.46666667 0
0.56666667 0.46666667 0
0.6 0.46666667 0
0.63333333 0.46666667 0
0.66666667 0.46666667 0
0.7 0.46666667 0
0.73333333 0.46666667 0
0.76666667 0.46666667 0
0.8 0.46666667 0
0.83333333 0.46666667 0
0.86666667 0.46666667 0
0.9 0.46666667 0
0.93333333 0.46666667 0
0.96666667 0.46666667 0
1 0.46666667 0
0 0.5 0
0.033333333 0.5 0
0.066666667 0.5 0
0.1 0.5 0
0.13333333 0.5 0
0.16666667 0.5 0
0.2 0.5 0
0.23333333 0.5 0
0.26666667 0.5 0
0.3 0.5 0
0.33333333 0.5 0
0.36666667 0.5 0
0.4 0.5 0
0.43333333 0.5 0
0.46666667 0.5 0
0.5 0.5 0
0.53333333 0.5 0
0.56666667 0.5 0
0.6 0.5 0
0.63333333 0.5 0
0.66666667 0.5 0
0.7 0.5 0
0.73333333 0.5 0
0.76666667 0.5 0
0.8 0.5 0
0.83333333 0.5 0
0.86666667 0.5 0
0.9 0.5 0
0.93333333 0.5 0
0.96666667 0.5 0
1 0.5 0
0 0.53333333 0
0.033333333 0.53333333 0
0.066666667 0.53333333 0
0.1 0.53333333 0
0.13333333 0.53333333 0
0.16666667 0.53333333 0
0.2 0.53333333 0
0.23333333 0.53333333 0
0.26666667 0.53333333 0
0.3 0.53333333 0
0.33333333 0.53333333 0
0.36666667 0.53333333 0
0.4 0.53333333 0
0.43333333 0.53333333 0
0.46666667 0.53333333 0
0.5 0.53333333 0
0.53333333 0.53333333 0
0.56666667 0.53333333 0
0.6 0.53333333 0
0.63333333 0.53333333 0
0.66666667 0.53333333 0
0.7 0.53333333 0
0.73333333 0.53333333 0
0.76666667 0.53333333 0
[...]
CELL_DATA 1920
Scalars  Label int 1
LOOKUP_TABLE FreeFempp_table
0
0
0
0
0
0
0
0
0
0
0
0
0
0
0
0
0
0
0
0
0
0
0
0
0
0
0
0
0
0
0
0
0
0
0
0
0
0
0
0
0
0
0
0
0
0
0
0
0
0
0
0
0
0
0
0
0
0
0
0
0
0
0
0
0
0
0
0
0
0
0
0
0
0
0
0
0
0
0
0
0
0
0
0
0
0
0
0
0
0
0
0
0
0
0
0
0
0
0
0
0
0
0
0
0
0
0
0
0
0
0
0
0
0
0
0
0
0
0
0
0
0
0
0
0
0
0
0
0
0
0
0
0
0
0
0
0
0
0
0
0
0
0
0
0
0
0
0
0
0
0
0
0
0
0
0
0
0
0
0
0
0
0
0
0
0
0
0
0
0
0
0
0
0
0
0
0
0
0
0
0
0
0
0
0
0
0
0
0
0
0
0
0
0
0
0
0
0
0
0
0
0
0
0
0
0
0
0
0
0
0
0
0
0
0
0
0
0
0
0
0
0
0
0
0
0
0
0
0
0
0
0
0
0
0
0
0
0
0
0
0
0
0
0
0
0
0
0
0
0
0
0
0
0
0
0
0
0
0
0
0
0
0
0
0
0
0
0
0
0
0
0
0
0
0
0
0
0
0
0
0
0
0
0
0
0
0
0
0
0
0
0
0
0
0
0
0
0
0
0
0
0
0
0
0
0
0
0
0
0
0
0
0
0
0
0
0
0
0
0
0
0
0
0
0
0
0
0
0
0
0
0
0
0
0
0
0
0
0
0
0
0
0
0
0
0
0
0
0
0
0
0
0
0
0
0
0
0
0
0
0
0
0
0
0
0
0
0
0
0
0
0
0
0
0
0
0
0
0
0
0
0
0
0
0
0
0
0
0
0
0
0
0
0
0
0
0
0
0
0
0
0
0
0
0
0
0
0
0
0
0
0
0
0
0
0
0
0
0
0
0
0
0
0
0
0
0
0
0
0
0
0
0
0
0
0
0
0
0
0
0
0
0
0
0
0
0
0
0
0
0
0
0
0
0
0
0
0
0
0
0
0
0
0
0
0
0
0
0
0
0
0
0
0
0
0
0
0
0
0
0
0
0
0
0
0
0
0
0
0
0
0
0
0
0
0
0
0
0
0
0
0
0
0
0
0
0
0
0
0
0
0
0
0
0
0
0
0
0
0
0
0
0
0
0
0
0
0
0
0
0
0
0
0
0
0
0
0
0
0
0
0
0
0
0
0
0
0
0
0
0
0
0
0
0
0
0
0
0
0
0
0
0
0
0
0
0
0
0
0
0
0
0
0
0
0
0
0
0
0
0
0
0
0
0
0
0
0
0
0
0
0
0
0
0
0
0
0
0
0
0
0
0
0
0
0
0
0
0
0
0
0
0
0
0
0
0
0
0
0
0
0
0
0
0
0
0
0
0
0
0
0
0
0
0
0
0
0
0
0
0
0
0
0
0
0
0
0
0
0
0
0
0
0
0
0
0
0
0
0
0
0
0
0
0
0
0
0
0
0
0
0
0
0
0
0
0
0
0
0
0
0
0
0
0
0
0
0
0
0
0
0
0
0
0
0
0
0
0
0
0
0
0
0
0
0
0
0
0
0
0
0
0
0
0
0
0
0
0
0
0
0
0
0
0
0
0
0
0
0
0
0
0
0
0
0
0
0
0
0
0
0
0
0
0
0
0
0
0
0
0
0
0
0
0
0
0
0
0
0
0
0
0
0
0
0
0
0
0
0
0
0
0
0
0
0
0
0
0
0
0
0
0
0
0
0
0
0
0
0
0
0
0
0
0
0
0
0
0
0
0
0
0
0
0
0
0
0
0
0
0
0
0
0
0
0
0
0
0
0
0
0
0
0
0
0
0
0
0
0
0
0
0
0
0
0
0
0
0
0
0
0
0
0
0
0
0
0
0
0
0
0
0
0
0
0
0
0
0
0
0
0
0
0
0
0
0
0
0
0
0
0
0
0
0
0
0
0
0
0
0
0
0
0
0
0
0
0
0
0
0
0
0
0
0
0
0
0
0
0
0
0
0
0
0
0
0
0
0
0
0
0
0
0
0
0
0
0
0
0
0
0
0
0
0
0
0
0
0
0
0
0
0
0
0
0
0
0
0
0
0
0
0
0
0
0
0
0
0
0
0
0
0
0
0
0
0
0
0
0
0
0
0
0
0
0
0
0
0
0
0
0
0
0
0
0
0
0
0
0
0
0
0
0
0
0
0
0
0
0
0
0
0
0
0
0
0
0
0
0
0
0
0
0
0
0
0
0
0
0
0
0
0
0
0
0
0
0
0
0
0
0
0
0
0
0
0
0
0
0
0
0
0
0
0
0
0
0
0
0
0
0
0
0
0
0
0
0
0
0
0
0
0
0
0
0
0
0
0
0
0
0
0
0
0
0
0
0
0
0
0
0
0
0
0
0
0
0
0
0
0
0
0
0
0
0
0
0
0
0
0
0
0
0
0
0
0
0
0
0
0
0
0
0
0
0
0
0
0
0
0
0
0
0
0
0
0
0
0
0
0
0
0
0
0
0
0
0
0
0
0
0
0
0
0
0
0
0
0
0
0
0
0
0
0
0
0
0
0
0
0
0
0
0
0
0
0
0
0
0
0
0
0
0
0
0
0
0
0
0
0
0
0
0
0
0
0
0
0
0
0
0
0
0
0
0
0
0
0
0
0
0
0
0
0
0
0
0
0
0
0
0
0
0
0
0
0
0
0
0
0
0
0
0
0
0
0
0
0
0
0
0
0
0
0
0
0
0
0
0
0
0
0
0
0
0
0
0
0
0
0
0
0
0
0
0
0
0
0
0
0
0
0
0
0
0
0
0
0
0
0
0
0
0
0
0
0
0
0
0
0
0
0
0
0
0
0
0
0
0
0
0
0
0
0
0
0
0
0
0
0
0
0
0
0
0
0
0
0
0
0
0
0
0
0
0
0
0
0
0
0
0
0
0
0
0
0
0
0
0
0
0
0
0
0
0
0
0
0
0
0
0
0
0
0
0
0
0
0
0
0
0
0
0
0
0
0
0
0
0
0
0
0
0
0
0
0
0
0
0
0
0
0
0
0
0
0
0
0
0
0
0
0
0
0
0
0
0
0
0
0
0
0
0
0
0
0
0
0
0
0
0
0
0
0
0
0
0
0
0
0
0
0
0
0
0
0
0
0
0
0
0
0
0
0
0
0
0
0
0
0
0
0
0
0
0
0
0
0
0
0
0
0
0
0
0
0
0
0
0
0
0
0
0
0
0
0
0
0
0
0
0
0
0
0
0
0
0
0
0
0
0
0
0
0
0
0
0
0
0
0
0
0
0
0
0
0
0
0
0
0
0
0
0
0
0
0
0
0
0
0
0
0
0
0
0
0
0
0
0
0
0
0
0
0
0
0
0
0
0
0
0
0
0
0
0
0
0
0
0
0
0
0
0
0
0
0
0
0
0
0
0
0
0
0
0
0
0
0
0
0
0
0
0
0
0
0
0
0
0
0
0
0
0
0
0
0
0
0
0
0
0
0
0
0
0
0
0
0
0
0
0
0
0
0
0
0
0
0
0
0
0
0
0
0
0
0
0
0
0
0
0
0
0
0
0
0
0
0
0
0
0
0
0
0
0
0
0
0
0
0
0
0
0
0
0
0
0
0
0
0
0
0
0
0
0
0
0
0
0
0
0
0
0
0
0
0
0
0
0
0
0
0
0
0
0
0
0
0
0
0
0
0
0
0
0
0
0
0
0
0
0
0
0
0
0
0
0
0
0
0
0
0
0
0
0
0
0
0
0
0
0
0
0
0
0
0
0
0
0
0
0
0
0
0
0
0
0
0
0
0
0
0
0
0
0
0
0
0
0
0
0
0
0
0
0
0
0
0
0
0
0
0
0
0
0
0
0
0
0
0
0
0
0
0
0
0
0
0
0
0
0
0
0
0
0
0
0
0
0
0
0
0
0
0
0
0
0
0
0
0
0
0
0
0
0
0
0
0
0
0
0
0
0
0
0
0
0
0
0
0
0
0
0
0
0
0
0
0
0
0
0
0
0
0
0
0
0
0
0
1
1
1
1
1
1
1
1
1
1
1
1
1
1
1
1
1
1
1
1
1
1
1
1
1
1
1
1
1
1
2
2
2
2
2
2
2
2
2
2
2
2
2
2
2
2
2
2
2
2
2
2
2
2
2
2
2
2
2
2
3
3
3
3
3
3
3
3
3
3
3
3
3
3
3
3
3
3
3
3
3
3
3
3
3
3
3
3
3
3
4
4
4
4
4
4
4
4
4
4
4
4
4
4
4
4
4
4
4
4
4
4
4
4
4
4
4
4
4
4

LOOKUP_TABLE FreeFempp_table 5
1.00000000 0.00000000 0.00000000 1.00000000
1.00000000 1.00000000 0.00000000 1.00000000
1.00000000 0.00000000 1.00000000 1.00000000
0.00000000 1.00000000 0.00000000 1.00000000
0.00000000 1.00000000 1.00000000 1.00000000

POINT_DATA 961
FIELD FieldData 1
Density 1 961 float
2.86305547e-01 2.58111000e-01 3.03636670e-01 3.48079085e-01 3.76836240e-01 4.01196510e-01 3.71602982e-01 3.14961612e-01 4.12882209e-01 5.63788474e-01 5.21618426e-01 4.87514377e-01 4.92112309e-01 5.03822505e-01 5.04725754e-01 5.09225965e-01 4.16878819e-01 7.89119676e-02 5.65292779e-03 -4.12739161e-03 -2.10865983e-04 5.13974694e-04 5.45496645e-04 4.58267052e-04 3.17118043e-04 1.06552128e-04 -3.64551779e-05 5.90098556e-03 5.58934920e-02 2.96938479e-01 3.39579850e-01 1.97528213e-01 1.67069867e-01 1.61763087e-01 1.58810377e-01 1.46577492e-01 1.40687287e-01 1.17250390e-01 9.54978392e-02 2.08664402e-01 5.39691627e-01 5.38425684e-01 4.86990452e-01 4.86085892e-01 4.72531646e-01 4.30445701e-01 4.24324960e-01 3.63759726e-01 7.34951720e-02 -2.52761738e-03 2.54326947e-02 7.40649775e-02 7.85313919e-02 7.77773559e-02 7.66774788e-02 7.58990571e-02 7.56827742e-02 7.63394162e-02 7.93745816e-02 5.94358630e-02 6.56880364e-02 1.06438026e-01 3.82037535e-02 3.19952145e-02 2.85676327e-02 2.61750128e-02 2.17314251e-02 2.07014438e-02 2.38112453e-02 7.01778978e-02 1.77444935e-01 4.65098143e-01 5.21969914e-01 4.43051100e-01 4.01582539e-01 3.64572048e-01 1.36295781e-01 8.23006257e-02 6.92313612e-02 1.66592039e-02 2.26767138e-02 1.28532588e-01 3.64743680e-01 4.12110627e-01 4.09920603e-01 4.04745638e-01 4.00557667e-01 3.98444086e-01 3.98024023e-01 3.94484520e-01 3.33253384e-01 9.91607234e-02 4.56227511e-02 3.28916707e-03 1.61449891e-02 5.34129627e-02 6.70881122e-02 8.89922082e-02 1.24741092e-01 1.58598661e-01 2.02794597e-01 4.25923854e-01 3.56382281e-01 4.48022306e-01 3.38705719e-01 1.21958643e-01 7.40567073e-02 2.15650517e-02 -3.01043643e-03 2.26721130e-02 6.88704550e-02 1.23672239e-01 3.58798146e-01 4.56621140e-01 4.82520610e-01 4.77783233e-01 4.73684728e-01 4.69232023e-01 4.64308113e-01 4.57565099e-01 4.44495022e-01 4.02497828e-01 2.81160593e-01 2.40835518e-01 1.67133228e-03 5.78926690e-02 2.74233431e-01 3.61324430e-01 4.39317912e-01 5.27598143e-01 5.75494289e-01 5.39813817e-01 1.82336017e-01 8.55156109e-02 7.77505934e-02 7.01882541e-02 1.94396246e-02 -2.12259660e-03 2.33738236e-02 7.72137791e-02 1.35192037e-01 3.58795881e-01 4.07020688e-01 4.53550547e-01 4.81583834e-01 4.77695912e-01 4.74086374e-01 4.71956819e-01 4.68037993e-01 4.61212665e-01 4.49723244e-01 4.30743128e-01 3.95796180e-01 3.39237273e-01 3.23453069e-01 -1.56658504e-03 8.49400312e-02 3.87394071e-01 4.61734980e-01 5.08256197e-01 4.82131481e-01 2.03747675e-01 1.39149219e-01 4.39824238e-02 2.06544958e-02 7.58024305e-02 8.17007944e-02 8.16318467e-02 9.13358852e-02 1.51352420e-01 3.79303664e-01 4.29185599e-01 4.73263472e-01 4.94547158e-01 4.93358791e-01 4.92051750e-01 4.88391578e-01 4.85606223e-01 4.82217848e-01 4.76968735e-01 4.68336135e-01 4.54831600e-01 4.36479479e-01 4.13401127e-01 3.87075007e-01 3.86327446e-01 -2.36134906e-03 1.21456616e-01 4.86760765e-01 2.68488675e-01 2.16888756e-01 1.23625785e-01 3.66902947e-02 4.26976767e-04 2.69724913e-02 1.31975323e-01 3.88963103e-01 4.44479585e-01 4.53751206e-01 4.61103529e-01 4.71029550e-01 5.10604501e-01 5.25746882e-01 5.21640360e-01 5.17689228e-01 5.15430570e-01 5.15398264e-01 5.13535440e-01 5.10360956e-01 5.06427348e-01 5.01291454e-01 4.93760824e-01 4.83405799e-01 4.72492337e-01 4.63938326e-01 4.54135627e-01 4.48157102e-01 -2.71596276e-04 1.53119862e-01 6.42817378e-01 1.85980797e-01 4.59600836e-02 1.54376803e-02 1.72783863e-02 7.35103860e-02 1.65338486e-01 4.06458706e-01 5.08233726e-01 5.39703548e-01 5.42971075e-01 5.47159731e-01 5.49388170e-01 5.49698889e-01 5.42857885e-01 5.39413512e-01 5.39699674e-01 5.40354848e-01 5.40901065e-01 5.40507376e-01 5.39458513e-01 5.38151562e-01 5.36504805e-01 5.34246087e-01 5.32488763e-01 5.34712851e-01 5.40067613e-01 5.36999643e-01 5.17240584e-01 2.39859044e-04 1.58073917e-01 7.04544008e-01 2.73206681e-01 5.37985153e-02 4.49483693e-02 1.10440105e-01 3.18230271e-01 4.48623866e-01 5.23233533e-01 5.53917050e-01 5.51654935e-01 5.50909042e-01 5.50599694e-01 5.49283743e-01 5.48941672e-01 5.49734354e-01 5.51441550e-01 5.53393185e-01 5.55273771e-01 5.57204008e-01 5.59184909e-01 5.61326087e-01 5.63856006e-01 5.67018092e-01 5.71485996e-01 5.79907238e-01 5.94793200e-01 6.07038379e-01 5.99717498e-01 5.70956290e-01 1.73945038e-03 1.59082577e-01 7.19698012e-01 3.55432868e-01 1.33040905e-01 1.77737430e-01 3.26776147e-01 4.79349136e-01 5.39668918e-01 5.57560802e-01 5.57886064e-01 5.57238936e-01 5.56664407e-01 5.53579807e-01 5.50138652e-01 5.48743784e-01 5.49732387e-01 5.51780283e-01 5.53935647e-01 5.56391835e-01 5.59352338e-01 5.62864840e-01 5.66889167e-01 5.71424603e-01 5.76493382e-01 5.82835972e-01 5.94295859e-01 6.13207161e-01 6.25670135e-01 6.14946842e-01 5.87082624e-01 4.81786393e-03 1.59267813e-01 7.17932642e-01 3.76527369e-01 1.61421120e-01 2.64965028e-01 4.46373701e-01 5.24906576e-01 5.49978375e-01 5.55076301e-01 5.56665301e-01 5.56770921e-01 5.54244459e-01 5.49337983e-01 5.44556499e-01 5.41688323e-01 5.40892839e-01 5.41232109e-01 5.42134881e-01 5.43744385e-01 5.46193480e-01 5.49413085e-01 5.53068995e-01 5.56670368e-01 5.59566140e-01 5.61605692e-01 5.65687478e-01 5.74302852e-01 5.78506052e-01 5.78007340e-01 5.68354428e-01 8.84681102e-03 1.55855164e-01 7.09318638e-01 4.10651296e-01 1.90901130e-01 2.51853555e-01 4.25564617e-01 5.19224823e-01 5.44142306e-01 5.47235608e-01 5.47070265e-01 5.46380222e-01 5.43133974e-01 5.37785172e-01 5.32343388e-01 5.28067470e-01 5.25080562e-01 5.22968531e-01 5.21621227e-01 5.21315873e-01 5.22170663e-01 5.23933589e-01 5.25933146e-01 5.27186215e-01 5.26425481e-01 5.22425175e-01 5.14348269e-01 4.96996552e-01 4.71190214e-01 4.88063246e-01 5.20358622e-01 1.13378530e-02 1.47256538e-01 6.93345368e-01 4.92555499e-01 2.73182392e-01 3.22088212e-01 4.69466597e-01 5.42398691e-01 5.39494455e-01 5.17481923e-01 5.15177250e-01 5.23177564e-01 5.25532961e-01 5.22451758e-01 5.17505825e-01 5.12344003e-01 5.07375360e-01 5.02844989e-01 4.99222457e-01 4.97012317e-01 4.96320367e-01 4.96702045e-01 4.97211099e-01 4.96568471e-01 4.93285924e-01 4.85840917e-01 4.70759451e-01 4.29336786e-01 3.59528691e-01 3.65076125e-01 4.37496930e-01 1.49950860e-02 1.32870674e-01 6.54473901e-01 6.47689521e-01 4.30918574e-01 4.45753008e-01 5.30886948e-01 5.17149210e-01 4.53235179e-01 4.06616449e-01 4.31568593e-01 4.86825585e-01 5.09034812e-01 5.10982752e-01 5.06923079e-01 5.00908256e-01 4.94054973e-01 4.87432837e-01 4.82099682e-01 4.78693992e-01 4.77178603e-01 4.76864427e-01 4.76593763e-01 4.74978954e-01 4.70615089e-01 4.62318420e-01 4.46696192e-01 3.95623654e-01 2.83285022e-01 2.53858149e-01 3.22419554e-01 5.62551431e-02 8.92080516e-02 5.25142074e-01 7.18368113e-01 6.26515865e-01 5.46999812e-01 4.51412439e-01 2.61751443e-01 1.58586159e-01 1.37727007e-01 2.10903972e-01 4.05090898e-01 5.09351075e-01 5.16941190e-01 5.08850992e-01 4.99397159e-01 4.89700913e-01 4.81065243e-01 4.74642694e-01 4.70806181e-01 4.69129860e-01 4.68605697e-01 4.67916131e-01 4.65683013e-01 4.60689723e-01 4.52181965e-01 4.38050389e-01 3.89912903e-01 2.52539217e-01 1.70929641e-01 2.16099426e-01 3.42696488e-01 1.25432208e-01 1.68104231e-01 5.89844823e-01 7.21860707e-01 6.64370298e-01 5.23766875e-01 3.13662440e-01 1.90965384e-01 1.18255772e-01 6.80296719e-02 1.47181213e-01 4.49973077e-01 5.48669577e-01 5.35001099e-01 5.14353931e-01 4.97760415e-01 4.85919595e-01 4.78402257e-01 4.74348694e-01 4.72577304e-01 4.71721739e-01 4.70389038e-01 4.67300445e-01 4.61444557e-01 4.52388614e-01 4.39277709e-01 3.99736106e-01 2.59569675e-01 1.17985651e-01 1.32258594e-01 4.90911573e-01 4.12758052e-01 1.29479349e-01 1.73032627e-01 5.87226748e-01 7.23963141e-01 7.05028713e-01 6.26669347e-01 5.71800053e-01 5.12226462e-01 2.30613619e-01 1.24034248e-01 1.58908665e-01 4.87779051e-01 5.77768803e-01 5.53686678e-01 5.23975968e-01 5.04906654e-01 4.94353563e-01 4.88843143e-01 4.85929072e-01 4.83837366e-01 4.81154352e-01 4.76721317e-01 4.69685376e-01 4.59819376e-01 4.47244078e-01 4.17252809e-01 2.89345413e-01 9.49503183e-02 7.66678900e-02 5.19875765e-01 5.17733812e-01 4.23733741e-01 1.36848092e-01 1.67661473e-01 5.06420612e-01 6.22024179e-01 6.67787552e-01 6.81839943e-01 6.43578589e-01 6.00865662e-01 5.59330821e-01 2.10623726e-01 1.66295245e-01 4.80471700e-01 5.78205168e-01 5.63972950e-01 5.39142907e-01 5.22894025e-01 5.13085604e-01 5.06730974e-01 5.01804233e-01 4.96814847e-01 4.90578890e-01 4.82239038e-01 4.71609414e-01 4.59390283e-01 4.36968595e-01 3.23294044e-01 9.01691765e-02 4.98097762e-02 5.56791723e-01 5.70844769e-01 5.64680576e-01 4.69089210e-01 1.49645433e-01 8.83409381e-02 1.25403658e-01 1.40210539e-01 1.54032558e-01 1.60855427e-01 2.31637374e-01 5.93409002e-01 6.59154058e-01 1.71663553e-01 1.52019247e-01 4.31911886e-01 5.61851203e-01 5.72122991e-01 5.57362556e-01 5.42579532e-01 5.30946553e-01 5.21839380e-01 5.13888896e-01 5.05711198e-01 4.96237934e-01 4.85141337e-01 4.73293900e-01 4.55894828e-01 3.52042913e-01 9.12082046e-02 3.82760838e-02 5.99258065e-01 6.30482674e-01 6.38607860e-01 6.41668260e-01 5.51268756e-01 2.05461070e-01 1.41852319e-01 1.38447970e-01 1.43357843e-01 1.53080150e-01 1.84270486e-01 3.78984511e-01 7.37712085e-01 3.99470061e-01 9.33651403e-02 1.69486746e-01 4.56949055e-01 5.69560826e-01 5.80636144e-01 5.67463815e-01 5.52247167e-01 5.39517939e-01 5.29027343e-01 5.19388735e-01 5.09316027e-01 4.98277754e-01 4.87066478e-01 4.72986668e-01 3.74614328e-01 9.30790976e-02 3.26807462e-02 6.19794071e-01 6.62737787e-01 6.73756123e-01 6.84326828e-01 7.04897702e-01 6.80789113e-01 6.69225872e-01 6.66480064e-01 6.65720046e-01 6.64947569e-01 6.69298530e-01 6.81116939e-01 7.60332108e-01 6.48399830e-01 2.01776221e-01 1.42088249e-01 3.87352496e-01 5.43806255e-01 5.82271457e-01 5.78233600e-01 5.64446568e-01 5.50962150e-01 5.39617598e-01 5.29629111e-01 5.19808471e-01 5.09554088e-01 4.99519289e-01 4.88074392e-01 3.92524093e-01 9.46707055e-02 2.92549990e-02 6.10480666e-01 6.54697120e-01 6.61271393e-01 6.61957800e-01 6.68019414e-01 6.81184411e-01 7.08573997e-01 7.14144349e-01 7.06334770e-01 6.91115797e-01 6.75105929e-01 6.75049186e-01 7.10135043e-01 6.49568081e-01 3.44656914e-01 2.14715526e-01 3.98040146e-01 5.27309656e-01 5.69056928e-01 5.74023366e-01 5.65729976e-01 5.54700673e-01 5.44514537e-01 5.35447359e-01 5.26811004e-01 5.18156707e-01 5.10036528e-01 5.01266658e-01 4.07246500e-01 9.59033072e-02 2.66861357e-02 5.85988283e-01 6.23680592e-01 6.25929773e-01 6.19486094e-01 6.14373922e-01 6.10124528e-01 6.09529853e-01 6.08534694e-01 6.05541945e-01 6.01002157e-01 6.02674365e-01 6.23354197e-01 6.65377438e-01 6.50388658e-01 5.05057573e-01 3.80964428e-01 4.40621316e-01 5.18124998e-01 5.51677644e-01 5.61555564e-01 5.59078455e-01 5.51892817e-01 5.44051409e-01 5.36763012e-01 5.30027568e-01 5.23716211e-01 5.18316746e-01 5.12664378e-01 4.19723272e-01 9.68754739e-02 2.45423745e-02 5.60522139e-01 5.88940322e-01 5.89697778e-01 5.81978023e-01 5.75730205e-01 5.70505023e-01 5.66702724e-01 5.64569414e-01 5.65858006e-01 5.71877897e-01 5.86769283e-01 6.14717484e-01 6.48143530e-01 6.47333384e-01 5.82262397e-01 5.00369787e-01 4.83827740e-01 5.12328386e-01 5.36311626e-01 5.47389627e-01 5.48564255e-01 5.44744194e-01 5.39369166e-01 5.34086943e-01 5.29549778e-01 5.26068389e-01 5.24127662e-01 5.22257447e-01 4.30476189e-01 9.76716876e-02 2.26789564e-02 5.39602160e-01 5.59382737e-01 5.60247898e-01 5.53777575e-01 5.48965573e-01 5.46107411e-01 5.45377076e-01 5.46493649e-01 5.50626338e-01 5.60151935e-01 5.77277124e-01 6.01554334e-01 6.25262320e-01 6.28530562e-01 5.96398711e-01 5.44323027e-01 5.12726545e-01 5.13962567e-01 5.26730597e-01 5.35035193e-01 5.37160277e-01 5.35392284e-01 5.31915724e-01 5.28324544e-01 5.25765777e-01 5.25128484e-01 5.27137399e-01 5.29904902e-01 4.39854592e-01 9.83558372e-02 2.10405495e-02 5.23387790e-01 5.36225259e-01 5.37621140e-01 5.33244967e-01 5.30180335e-01 5.29295206e-01 5.30812860e-01 5.34039855e-01 5.39330244e-01 5.48646450e-01 5.63559413e-01 5.82733631e-01 6.00672364e-01 6.06911659e-01 5.92077971e-01 5.60229063e-01 5.31758606e-01 5.20722508e-01 5.21932423e-01 5.25151014e-01 5.26444852e-01 5.25513291e-01 5.23170531e-01 5.20667076e-01 5.19402802e-01 5.20941794e-01 5.26829123e-01 5.35302520e-01 4.48288172e-01 9.90082920e-02 1.95952971e-02 5.10400474e-01 5.17705202e-01 5.19520760e-01 5.17558634e-01 5.16574681e-01 5.17768383e-01 5.21513939e-01 5.26858389e-01 5.33256710e-01 5.41716278e-01 5.53365409e-01 5.67700684e-01 5.81796646e-01 5.89689314e-01 5.84411740e-01 5.65211415e-01 5.41959167e-01 5.25702953e-01 5.18901587e-01 5.17487824e-01 5.17328382e-01 5.16423285e-01 5.14552712e-01 5.12511849e-01 5.11632681e-01 5.13950229e-01 5.22561967e-01 5.37862003e-01 4.56497103e-01 9.97613817e-02 1.82925351e-02 4.99380469e-01 5.02037704e-01 5.04009306e-01 5.04461646e-01 5.05769312e-01 5.09132028e-01 5.15246809e-01 5.23255765e-01 5.31787992e-01 5.40787637e-01 5.50359547e-01 5.60051918e-01 5.69471478e-01 5.76103568e-01 5.74660063e-01 5.62268317e-01 5.43484747e-01 5.26551425e-01 5.16354263e-01 5.12099981e-01 5.10523379e-01 5.09197533e-01 5.07362127e-01 5.05351484e-01 5.04113138e-01 5.05510569e-01 5.14158785e-01 5.36533237e-01 4.65415388e-01 1.00784726e-01 1.69846043e-02 4.89160597e-01 4.88018036e-01 4.90013450e-01 4.92822438e-01 4.96595889e-01 5.02056241e-01 5.09948730e-01 5.20119369e-01 5.31214714e-01 5.42213678e-01 5.52203894e-01 5.59509218e-01 5.63300788e-01 5.64383924e-01 5.61728001e-01 5.52568495e-01 5.38283467e-01 5.24093568e-01 5.14229119e-01 5.09041607e-01 5.06457090e-01 5.04571199e-01 5.02620637e-01 5.00676095e-01 4.99246180e-01 4.99453127e-01 5.05468965e-01 5.30921519e-01 4.74524289e-01 1.02015086e-01 1.52804116e-02 4.83105212e-01 4.78234053e-01 4.79728580e-01 4.84171242e-01 4.89799827e-01 4.96663243e-01 5.04891217e-01 5.14645100e-01 5.25930941e-01 5.38094997e-01 5.49054325e-01 5.56704283e-01 5.58093607e-01 5.52891910e-01 5.44916689e-01 5.36010325e-01 5.26330173e-01 5.17477214e-01 5.11075497e-01 5.07135451e-01 5.04583120e-01 5.02500713e-01 5.00622749e-01 4.99177843e-01 4.98651564e-01 4.99774992e-01 5.04633069e-01 5.22723198e-01 4.77707148e-01 1.04727946e-01 1.28673520e-02 4.86354828e-01 4.81101424e-01 4.81140941e-01 4.85116631e-01 4.89973247e-01 4.95643079e-01 5.01913488e-01 5.08706391e-01 5.16495526e-01 5.26006281e-01 5.35381556e-01 5.42679071e-01 5.45044899e-01 5.39929152e-01 5.30624688e-01 5.21753848e-01 5.14742494e-01 5.09746850e-01 5.06630838e-01 5.04687726e-01 5.03143013e-01 5.01633525e-01 5.00241339e-01 4.99327838e-01 4.99417454e-01 5.01151204e-01 5.05175531e-01 5.11123180e-01 4.66206431e-01 1.13297574e-01 4.96121030e-03 
