# vtk DataFile Version 2.0
results/iter0.vtk, Created by Freefem++ 
ASCII
DATASET UNSTRUCTURED_GRID
POINTS 961 float
0 0 0
0.033333333 0 0
0.066666667 0 0
0.1 0 0
0.13333333 0 0
0.16666667 0 0
0.2 0 0
0.23333333 0 0
0.26666667 0 0
0.3 0 0
0.33333333 0 0
0.36666667 0 0
0.4 0 0
0.43333333 0 0
0.46666667 0 0
0.5 0 0
0.53333333 0 0
0.56666667 0 0
0.6 0 0
0.63333333 0 0
0.66666667 0 0
0.7 0 0
0.73333333 0 0
0.76666667 0 0
0.8 0 0
0.83333333 0 0
0.86666667 0 0
0.9 0 0
0.93333333 0 0
0.96666667 0 0
1 0 0
0 0.033333333 0
0.033333333 0.033333333 0
0.066666667 0.033333333 0
0.1 0.033333333 0
0.13333333 0.033333333 0
0.16666667 0.033333333 0
0.2 0.033333333 0
0.23333333 0.033333333 0
0.26666667 0.033333333 0
0.3 0.033333333 0
0.33333333 0.033333333 0
0.36666667 0.033333333 0
0.4 0.033333333 0
0.43333333 0.033333333 0
0.46666667 0.033333333 0
0.5 0.033333333 0
0.53333333 0.033333333 0
0.56666667 0.033333333 0
0.6 0.033333333 0
0.63333333 0.033333333 0
0.66666667 0.033333333 0
0.7 0.033333333 0
0.73333333 0.033333333 0
0.76666667 0.033333333 0
0.8 0.033333333 0
0.83333333 0.033333333 0
0.86666667 0.033333333 0
0.9 0.033333333 0
0.93333333 0.033333333 0
0.96666667 0.033333333 0
1 0.033333333 0
0 0.066666667 0
0.033333333 0.066666667 0
0.066666667 0.066666667 0
0.1 0.066666667 0
0.13333333 0.066666667 0
0.16666667 0.066666667 0
0.2 0.066666667 0
0.23333333 0.066666667 0
0.26666667 0.066666667 0
0.3 0.066666667 0
0.33333333 0.066666667 0
0.36666667 0.066666667 0
0.4 0.066666667 0
0.43333333 0.066666667 0
0.46666667 0.066666667 0
0.5 0.066666667 0
0.53333333 0.066666667 0
0.56666667 0.066666667 0
0.6 0.066666667 0
0.63333333 0.066666667 0
0.66666667 0.066666667 0
0.7 0.066666667 0
0.73333333 0.066666667 0
0.76666667 0.066666667 0
0.8 0.066666667 0
0.83333333 0.066666667 0
0.86666667 0.066666667 0
0.9 0.066666667 0
0.93333333 0.066666667 0
0.96666667 0.066666667 0
1 0.066666667 0
0 0.1 0
0.033333333 0.1 0
0.066666667 0.1 0
0.1 0.1 0
0.13333333 0.1 0
0.16666667 0.1 0
0.2 0.1 0
0.23333333 0.1 0
0.26666667 0.1 0
0.3 0.1 0
0.33333333 0.1 0
0.36666667 0.1 0
0.4 0.1 0
0.43333333 0.1 0
0.46666667 0.1 0
0.5 0.1 0
0.53333333 0.1 0
0.56666667 0.1 0
0.6 0.1 0
0.63333333 0.1 0
0.66666667 0.1 0
0.7 0.1 0
0.73333333 0.1 0
0.76666667 0.1 0
0.8 0.1 0
0.83333333 0.1 0
0.86666667 0.1 0
0.9 0.1 0
0.93333333 0.1 0
0.96666667 0.1 0
1 0.1 0
0 0.13333333 0
0.033333333 0.13333333 0
0.066666667 0.13333333 0
0.1 0.13333333 0
0.13333333 0.13333333 0
0.16666667 0.13333333 0
0.2 0.13333333 0
0.23333333 0.13333333 0
0.26666667 0.13333333 0
0.3 0.13333333 0
0.33333333 0.13333333 0
0.36666667 0.13333333 0
0.4 0.13333333 0
0.43333333 0.13333333 0
0.46666667 0.13333333 0
0.5 0.13333333 0
0.53333333 0.13333333 0
0.56666667 0.13333333 0
0.6 0.13333333 0
0.63333333 0.13333333 0
0.66666667 0.13333333 0
0.7 0.13333333 0
0.73333333 0.13333333 0
0.76666667 0.13333333 0
0.8 0.13333333 0
0.83333333 0.13333333 0
0.86666667 0.13333333 0
0.9 0.13333333 0
0.93333333 0.13333333 0
0.96666667 0.13333333 0
1 0.13333333 0
0 0.16666667 0
0.033333333 0.16666667 0
0.066666667 0.16666667 0
0.1 0.16666667 0
0.13333333 0.16666667 0
0.16666667 0.16666667 0
0.2 0.16666667 0
0.23333333 0.16666667 0
0.26666667 0.16666667 0
0.3 0.16666667 0
0.33333333 0.16666667 0
0.36666667 0.16666667 0
0.4 0.16666667 0
0.43333333 0.16666667 0
0.46666667 0.16666667 0
0.5 0.16666667 0
0.53333333 0.16666667 0
0.56666667 0.16666667 0
0.6 0.16666667 0
0.63333333 0.16666667 0
0.66666667 0.16666667 0
0.7 0.16666667 0
0.73333333 0.16666667 0
0.76666667 0.16666667 0
0.8 0.16666667 0
0.83333333 0.16666667 0
0.86666667 0.16666667 0
0.9 0.16666667 0
0.93333333 0.16666667 0
0.96666667 0.16666667 0
1 0.16666667 0
0 0.2 0
0.033333333 0.2 0
0.066666667 0.2 0
0.1 0.2 0
0.13333333 0.2 0
0.16666667 0.2 0
0.2 0.2 0
0.23333333 0.2 0
0.26666667 0.2 0
0.3 0.2 0
0.33333333 0.2 0
0.36666667 0.2 0
0.4 0.2 0
0.43333333 0.2 0
0.46666667 0.2 0
0.5 0.2 0
0.53333333 0.2 0
0.56666667 0.2 0
0.6 0.2 0
0.63333333 0.2 0
0.66666667 0.2 0
0.7 0.2 0
0.73333333 0.2 0
0.76666667 0.2 0
0.8 0.2 0
0.83333333 0.2 0
0.86666667 0.2 0
0.9 0.2 0
0.93333333 0.2 0
0.96666667 0.2 0
1 0.2 0
0 0.23333333 0
0.033333333 0.23333333 0
0.066666667 0.23333333 0
0.1 0.23333333 0
0.13333333 0.23333333 0
0.16666667 0.23333333 0
0.2 0.23333333 0
0.23333333 0.23333333 0
0.26666667 0.23333333 0
0.3 0.23333333 0
0.33333333 0.23333333 0
0.36666667 0.23333333 0
0.4 0.23333333 0
0.43333333 0.23333333 0
0.46666667 0.23333333 0
0.5 0.23333333 0
0.53333333 0.23333333 0
0.56666667 0.23333333 0
0.6 0.23333333 0
0.63333333 0.23333333 0
0.66666667 0.23333333 0
0.7 0.23333333 0
0.73333333 0.23333333 0
0.76666667 0.23333333 0
0.8 0.23333333 0
0.83333333 0.23333333 0
0.86666667 0.23333333 0
0.9 0.23333333 0
0.93333333 0.23333333 0
0.96666667 0.23333333 0
1 0.23333333 0
0 0.26666667 0
0.033333333 0.26666667 0
0.066666667 0.26666667 0
0.1 0.26666667 0
0.13333333 0.26666667 0
0.16666667 0.26666667 0
0.2 0.26666667 0
0.23333333 0.26666667 0
0.26666667 0.26666667 0
0.3 0.26666667 0
0.33333333 0.26666667 0
0.36666667 0.26666667 0
0.4 0.26666667 0
0.43333333 0.26666667 0
0.46666667 0.26666667 0
0.5 0.26666667 0
0.53333333 0.26666667 0
0.56666667 0.26666667 0
0.6 0.26666667 0
0.63333333 0.26666667 0
0.66666667 0.26666667 0
0.7 0.26666667 0
0.73333333 0.26666667 0
0.76666667 0.26666667 0
0.8 0.26666667 0
0.83333333 0.26666667 0
0.86666667 0.26666667 0
0.9 0.26666667 0
0.93333333 0.26666667 0
0.96666667 0.26666667 0
1 0.26666667 0
0 0.3 0
0.033333333 0.3 0
0.066666667 0.3 0
0.1 0.3 0
0.13333333 0.3 0
0.16666667 0.3 0
0.2 0.3 0
0.23333333 0.3 0
0.26666667 0.3 0
0.3 0.3 0
0.33333333 0.3 0
0.36666667 0.3 0
0.4 0.3 0
0.43333333 0.3 0
0.46666667 0.3 0
0.5 0.3 0
0.53333333 0.3 0
0.56666667 0.3 0
0.6 0.3 0
0.63333333 0.3 0
0.66666667 0.3 0
0.7 0.3 0
0.73333333 0.3 0
0.76666667 0.3 0
0.8 0.3 0
0.83333333 0.3 0
0.86666667 0.3 0
0.9 0.3 0
0.93333333 0.3 0
0.96666667 0.3 0
1 0.3 0
0 0.33333333 0
0.033333333 0.33333333 0
0.066666667 0.33333333 0
0.1 0.33333333 0
0.13333333 0.33333333 0
0.16666667 0.33333333 0
0.2 0.33333333 0
0.23333333 0.33333333 0
0.26666667 0.33333333 0
0.3 0.33333333 0
0.33333333 0.33333333 0
0.36666667 0.33333333 0
0.4 0.33333333 0
0.43333333 0.33333333 0
0.46666667 0.33333333 0
0.5 0.33333333 0
0.53333333 0.33333333 0
0.56666667 0.33333333 0
0.6 0.33333333 0
0.63333333 0.33333333 0
0.66666667 0.33333333 0
0.7 0.33333333 0
0.73333333 0.33333333 0
0.76666667 0.33333333 0
0.8 0.33333333 0
0.83333333 0.33333333 0
0.86666667 0.33333333 0
0.9 0.33333333 0
0.93333333 0.33333333 0
0.96666667 0.33333333 0
1 0.33333333 0
0 0.36666667 0
0.033333333 0.36666667 0
0.066666667 0.36666667 0
0.1 0.36666667 0
0.13333333 0.36666667 0
0.16666667 0.36666667 0
0.2 0.36666667 0
0.23333333 0.36666667 0
0.26666667 0.36666667 0
0.3 0.36666667 0
0.33333333 0.36666667 0
0.36666667 0.36666667 0
0.4 0.36666667 0
0.43333333 0.36666667 0
0.46666667 0.36666667 0
0.5 0.36666667 0
0.53333333 0.36666667 0
0.56666667 0.36666667 0
0.6 0.36666667 0
0.63333333 0.36666667 0
0.66666667 0.36666667 0
0.7 0.36666667 0
0.73333333 0.36666667 0
0.76666667 0.36666667 0
0.8 0.36666667 0
0.83333333 0.36666667 0
0.86666667 0.36666667 0
0.9 0.36666667 0
0.93333333 0.36666667 0
0.96666667 0.36666667 0
1 0.36666667 0
0 0.4 0
0.033333333 0.4 0
0.066666667 0.4 0
0.1 0.4 0
0.13333333 0.4 0
0.16666667 0.4 0
0.2 0.4 0
0.23333333 0.4 0
0.26666667 0.4 0
0.3 0.4 0
0.33333333 0.4 0
0.36666667 0.4 0
0.4 0.4 0
0.43333333 0.4 0
0.46666667 0.4 0
0.5 0.4 0
0.53333333 0.4 0
0.56666667 0.4 0
0.6 0.4 0
0.63333333 0.4 0
0.66666667 0.4 0
0.7 0.4 0
0.73333333 0.4 0
0.76666667 0.4 0
0.8 0.4 0
0.83333333 0.4 0
0.86666667 0.4 0
0.9 0.4 0
0.93333333 0.4 0
0.96666667 0.4 0
1 0.4 0
0 0.43333333 0
0.033333333 0.43333333 0
0.066666667 0.43333333 0
0.1 0.43333333 0
0.13333333 0.43333333 0
0.16666667 0.43333333 0
0.2 0.43333333 0
0.23333333 0.43333333 0
0.26666667 0.43333333 0
0.3 0.43333333 0
0.33333333 0.43333333 0
0.36666667 0.43333333 0
0.4 0.43333333 0
0.43333333 0.43333333 0
0.46666667 0.43333333 0
0.5 0.43333333 0
0.53333333 0.43333333 0
0.56666667 0.43333333 0
0.6 0.43333333 0
0.63333333 0.43333333 0
0.66666667 0.43333333 0
0.7 0.43333333 0
0.73333333 0.43333333 0
0.76666667 0.43333333 0
0.8 0.43333333 0
0.83333333 0.43333333 0
0.86666667 0.43333333 0
0.9 0.43333333 0
0.93333333 0.43333333 0
0.96666667 0.43333333 0
1 0.43333333 0
0 0.46666667 0
0.033333333 0.46666667 0
0.066666667 0.46666667 0
0.1 0.46666667 0
0.13333333 0.46666667 0
0.16666667 0.46666667 0
0.2 0.46666667 0
0.23333333 0.46666667 0
0.26666667 0.46666667 0
0.3 0.46666667 0
0.33333333 0.46666667 0
0.36666667 0.46666667 0
0.4 0.46666667 0
0.43333333 0.46666667 0
0.46666667 0.46666667 0
0.5 0.46666667 0
0.53333333 0.46666667 0
0.56666667 0.46666667 0
0.6 0.46666667 0
0.63333333 0.46666667 0
0.66666667 0.46666667 0
0.7 0.46666667 0
0.73333333 0.46666667 0
0.76666667 0.46666667 0
0.8 0.46666667 0
0.83333333 0.46666667 0
0.86666667 0.46666667 0
0.9 0.46666667 0
0.93333333 0.46666667 0
0.96666667 0.46666667 0
1 0.46666667 0
0 0.5 0
0.033333333 0.5 0
0.066666667 0.5 0
0.1 0.5 0
0.13333333 0.5 0
0.16666667 0.5 0
0.2 0.5 0
0.23333333 0.5 0
0.26666667 0.5 0
0.3 0.5 0
0.33333333 0.5 0
0.36666667 0.5 0
0.4 0.5 0
0.43333333 0.5 0
0.46666667 0.5 0
0.5 0.5 0
0.53333333 0.5 0
0.56666667 0.5 0
0.6 0.5 0
0.63333333 0.5 0
0.66666667 0.5 0
0.7 0.5 0
0.73333333 0.5 0
0.76666667 0.5 0
0.8 0.5 0
0.83333333 0.5 0
0.86666667 0.5 0
0.9 0.5 0
0.93333333 0.5 0
0.96666667 0.5 0
1 0.5 0
0 0.53333333 0
0.033333333 0.53333333 0
0.066666667 0.53333333 0
0.1 0.53333333 0
0.13333333 0.53333333 0
0.16666667 0.53333333 0
0.2 0.53333333 0
0.23333333 0.53333333 0
0.26666667 0.53333333 0
0.3 0.53333333 0
0.33333333 0.53333333 0
0.36666667 0.53333333 0
0.4 0.53333333 0
0.43333333 0.53333333 0
0.46666667 0.53333333 0
0.5 0.53333333 0
0.53333333 0.53333333 0
0.56666667 0.53333333 0
0.6 0.53333333 0
0.63333333 0.53333333 0
0.66666667 0.53333333 0
0.7 0.53333333 0
0.73333333 0.53333333 0
0.76666667 0.53333333 0
0.8 0.53333333 0
[...]
CELL_DATA 1920
Scalars  Label int 1
LOOKUP_TABLE FreeFempp_table
0
0
0
0
0
0
0
0
0
0
0
0
0
0
0
0
0
0
0
0
0
0
0
0
0
0
0
0
0
0
0
0
0
0
0
0
0
0
0
0
0
0
0
0
0
0
0
0
0
0
0
0
0
0
0
0
0
0
0
0
0
0
0
0
0
0
0
0
0
0
0
0
0
0
0
0
0
0
0
0
0
0
0
0
0
0
0
0
0
0
0
0
0
0
0
0
0
0
0
0
0
0
0
0
0
0
0
0
0
0
0
0
0
0
0
0
0
0
0
0
0
0
0
0
0
0
0
0
0
0
0
0
0
0
0
0
0
0
0
0
0
0
0
0
0
0
0
0
0
0
0
0
0
0
0
0
0
0
0
0
0
0
0
0
0
0
0
0
0
0
0
0
0
0
0
0
0
0
0
0
0
0
0
0
0
0
0
0
0
0
0
0
0
0
0
0
0
0
0
0
0
0
0
0
0
0
0
0
0
0
0
0
0
0
0
0
0
0
0
0
0
0
0
0
0
0
0
0
0
0
0
0
0
0
0
0
0
0
0
0
0
0
0
0
0
0
0
0
0
0
0
0
0
0
0
0
0
0
0
0
0
0
0
0
0
0
0
0
0
0
0
0
0
0
0
0
0
0
0
0
0
0
0
0
0
0
0
0
0
0
0
0
0
0
0
0
0
0
0
0
0
0
0
0
0
0
0
0
0
0
0
0
0
0
0
0
0
0
0
0
0
0
0
0
0
0
0
0
0
0
0
0
0
0
0
0
0
0
0
0
0
0
0
0
0
0
0
0
0
0
0
0
0
0
0
0
0
0
0
0
0
0
0
0
0
0
0
0
0
0
0
0
0
0
0
0
0
0
0
0
0
0
0
0
0
0
0
0
0
0
0
0
0
0
0
0
0
0
0
0
0
0
0
0
0
0
0
0
0
0
0
0
0
0
0
0
0
0
0
0
0
0
0
0
0
0
0
0
0
0
0
0
0
0
0
0
0
0
0
0
0
0
0
0
0
0
0
0
0
0
0
0
0
0
0
0
0
0
0
0
0
0
0
0
0
0
0
0
0
0
0
0
0
0
0
0
0
0
0
0
0
0
0
0
0
0
0
0
0
0
0
0
0
0
0
0
0
0
0
0
0
0
0
0
0
0
0
0
0
0
0
0
0
0
0
0
0
0
0
0
0
0
0
0
0
0
0
0
0
0
0
0
0
0
0
0
0
0
0
0
0
0
0
0
0
0
0
0
0
0
0
0
0
0
0
0
0
0
0
0
0
0
0
0
0
0
0
0
0
0
0
0
0
0
0
0
0
0
0
0
0
0
0
0
0
0
0
0
0
0
0
0
0
0
0
0
0
0
0
0
0
0
0
0
0
0
0
0
0
0
0
0
0
0
0
0
0
0
0
0
0
0
0
0
0
0
0
0
0
0
0
0
0
0
0
0
0
0
0
0
0
0
0
0
0
0
0
0
0
0
0
0
0
0
0
0
0
0
0
0
0
0
0
0
0
0
0
0
0
0
0
0
0
0
0
0
0
0
0
0
0
0
0
0
0
0
0
0
0
0
0
0
0
0
0
0
0
0
0
0
0
0
0
0
0
0
0
0
0
0
0
0
0
0
0
0
0
0
0
0
0
0
0
0
0
0
0
0
0
0
0
0
0
0
0
0
0
0
0
0
0
0
0
0
0
0
0
0
0
0
0
0
0
0
0
0
0
0
0
0
0
0
0
0
0
0
0
0
0
0
0
0
0
0
0
0
0
0
0
0
0
0
0
0
0
0
0
0
0
0
0
0
0
0
0
0
0
0
0
0
0
0
0
0
0
0
0
0
0
0
0
0
0
0
0
0
0
0
0
0
0
0
0
0
0
0
0
0
0
0
0
0
0
0
0
0
0
0
0
0
0
0
0
0
0
0
0
0
0
0
0
0
0
0
0
0
0
0
0
0
0
0
0
0
0
0
0
0
0
0
0
0
0
0
0
0
0
0
0
0
0
0
0
0
0
0
0
0
0
0
0
0
0
0
0
0
0
0
0
0
0
0
0
0
0
0
0
0
0
0
0
0
0
0
0
0
0
0
0
0
0
0
0
0
0
0
0
0
0
0
0
0
0
0
0
0
0
0
0
0
0
0
0
0
0
0
0
0
0
0
0
0
0
0
0
0
0
0
0
0
0
0
0
0
0
0
0
0
0
0
0
0
0
0
0
0
0
0
0
0
0
0
0
0
0
0
0
0
0
0
0
0
0
0
0
0
0
0
0
0
0
0
0
0
0
0
0
0
0
0
0
0
0
0
0
0
0
0
0
0
0
0
0
0
0
0
0
0
0
0
0
0
0
0
0
0
0
0
0
0
0
0
0
0
0
0
0
0
0
0
0
0
0
0
0
0
0
0
0
0
0
0
0
0
0
0
0
0
0
0
0
0
0
0
0
0
0
0
0
0
0
0
0
0
0
0
0
0
0
0
0
0
0
0
0
0
0
0
0
0
0
0
0
0
0
0
0
0
0
0
0
0
0
0
0
0
0
0
0
0
0
0
0
0
0
0
0
0
0
0
0
0
0
0
0
0
0
0
0
0
0
0
0
0
0
0
0
0
0
0
0
0
0
0
0
0
0
0
0
0
0
0
0
0
0
0
0
0
0
0
0
0
0
0
0
0
0
0
0
0
0
0
0
0
0
0
0
0
0
0
0
0
0
0
0
0
0
0
0
0
0
0
0
0
0
0
0
0
0
0
0
0
0
0
0
0
0
0
0
0
0
0
0
0
0
0
0
0
0
0
0
0
0
0
0
0
0
0
0
0
0
0
0
0
0
0
0
0
0
0
0
0
0
0
0
0
0
0
0
0
0
0
0
0
0
0
0
0
0
0
0
0
0
0
0
0
0
0
0
0
0
0
0
0
0
0
0
0
0
0
0
0
0
0
0
0
0
0
0
0
0
0
0
0
0
0
0
0
0
0
0
0
0
0
0
0
0
0
0
0
0
0
0
0
0
0
0
0
0
0
0
0
0
0
0
0
0
0
0
0
0
0
0
0
0
0
0
0
0
0
0
0
0
0
0
0
0
0
0
0
0
0
0
0
0
0
0
0
0
0
0
0
0
0
0
0
0
0
0
0
0
0
0
0
0
0
0
0
0
0
0
0
0
0
0
0
0
0
0
0
0
0
0
0
0
0
0
0
0
0
0
0
0
0
0
0
0
0
0
0
0
0
0
0
0
0
0
0
0
0
0
0
0
0
0
0
0
0
0
0
0
0
0
0
0
0
0
0
0
0
0
0
0
0
0
0
0
0
0
0
0
0
0
0
0
0
0
0
0
0
0
0
0
0
0
0
0
0
0
0
0
0
0
0
0
0
0
0
0
0
0
0
0
0
0
0
0
0
0
0
0
0
0
0
0
0
0
0
0
0
0
0
0
0
0
0
0
0
0
0
0
0
0
0
0
0
0
0
0
0
0
0
0
0
0
0
0
0
0
0
0
0
0
0
0
0
0
0
0
0
0
0
0
0
0
0
0
0
0
0
0
0
0
0
0
0
0
0
0
0
0
0
0
0
0
0
0
0
0
0
0
0
0
0
0
0
0
0
0
0
0
0
0
0
0
0
0
0
0
0
0
0
0
0
0
0
0
0
0
0
0
0
0
0
0
0
0
0
0
0
0
0
0
0
0
0
0
0
0
0
0
0
0
0
0
0
0
0
0
0
0
0
0
0
0
0
0
0
0
0
0
0
0
0
0
0
0
0
0
0
0
0
0
0
0
0
0
0
0
0
0
0
0
0
0
0
0
0
0
0
0
0
0
0
0
0
0
0
0
0
0
0
0
0
0
0
0
0
0
0
0
0
0
0
0
0
0
0
0
0
0
0
0
0
0
0
0
0
0
0
0
0
0
0
0
0
0
0
0
0
0
0
0
0
0
0
0
0
0
0
0
0
0
0
0
0
0
0
0
0
0
0
0
0
0
0
0
0
0
0
0
0
0
0
0
0
0
0
0
0
0
0
0
0
0
0
0
0
0
0
0
0
0
0
0
0
0
0
0
0
0
0
0
0
0
0
0
0
0
0
1
1
1
1
1
1
1
1
1
1
1
1
1
1
1
1
1
1
1
1
1
1
1
1
1
1
1
1
1
1
2
2
2
2
2
2
2
2
2
2
2
2
2
2
2
2
2
2
2
2
2
2
2
2
2
2
2
2
2
2
3
3
3
3
3
3
3
3
3
3
3
3
3
3
3
3
3
3
3
3
3
3
3
3
3
3
3
3
3
3
4
4
4
4
4
4
4
4
4
4
4
4
4
4
4
4
4
4
4
4
4
4
4
4
4
4
4
4
4
4

LOOKUP_TABLE FreeFempp_table 5
1.00000000 0.00000000 0.00000000 1.00000000
1.00000000 1.00000000 0.00000000 1.00000000
1.00000000 0.00000000 1.00000000 1.00000000
0.00000000 1.00000000 0.00000000 1.00000000
0.00000000 1.00000000 1.00000000 1.00000000

POINT_DATA 961
FIELD FieldData 1
Density 1 961 float
2.13481784e-01 1.92413092e-01 1.93507582e-01 1.94587380e-01 1.95128024e-01 1.94819853e-01 1.94213271e-01 1.93928465e-01 1.94160804e-01 1.94776163e-01 1.95567086e-01 1.96394056e-01 1.97195351e-01 1.97946236e-01 1.98631093e-01 1.99241653e-01 1.99781701e-01 2.00263172e-01 2.00697228e-01 2.01088011e-01 2.01430842e-01 2.01714769e-01 2.01929346e-01 2.02074572e-01 2.02172786e-01 2.02279925e-01 2.02497080e-01 2.03016922e-01 2.04244986e-01 2.05418244e-01 2.42003798e-01 1.93764582e-01 1.44586176e-01 1.43186688e-01 1.48773849e-01 1.74348444e-01 2.08359793e-01 2.44085640e-01 2.77330309e-01 3.05956066e-01 3.28907788e-01 3.45879763e-01 3.57228190e-01 3.63756508e-01 3.66443217e-01 3.66230071e-01 3.63920301e-01 3.60174567e-01 3.55537146e-01 3.50443304e-01 3.45216483e-01 3.40076387e-01 3.35159957e-01 3.30548346e-01 3.26295972e-01 3.22456867e-01 3.19101483e-01 3.16312462e-01 3.14126074e-01 3.12433213e-01 3.13826978e-01 2.97149897e-01 1.94678813e-01 1.44178450e-01 1.71419933e-01 2.40865007e-01 3.04449171e-01 3.44698727e-01 3.59334350e-01 3.54022324e-01 3.37491602e-01 3.16824585e-01 2.96146572e-01 2.77372152e-01 2.61198401e-01 2.47764200e-01 2.36913428e-01 2.28302211e-01 2.21550927e-01 2.16377228e-01 2.12599620e-01 2.10064963e-01 2.08601221e-01 2.08014667e-01 2.08100408e-01 2.08647713e-01 2.09440872e-01 2.10265696e-01 2.10921183e-01 2.11213619e-01 2.10755393e-01 2.08680838e-01 2.71598071e-01 1.93869486e-01 1.46735176e-01 2.38026723e-01 3.26508045e-01 3.59089643e-01 3.48252714e-01 3.19957167e-01 2.87230879e-01 2.57164210e-01 2.32510895e-01 2.13584185e-01 1.99705109e-01 1.89864084e-01 1.83121309e-01 1.78776145e-01 1.76346600e-01 1.75492406e-01 1.75947458e-01 1.77466840e-01 1.79806665e-01 1.82737589e-01 1.86061576e-01 1.89613044e-01 1.93245396e-01 1.96812227e-01 2.00159505e-01 2.03151226e-01 2.05750525e-01 2.08203971e-01 2.11705685e-01 2.96696097e-01 1.92643434e-01 1.67029738e-01 2.99193323e-01 3.59568775e-01 3.42460990e-01 2.99478769e-01 2.57995427e-01 2.25815713e-01 2.02842772e-01 1.87333807e-01 1.77499443e-01 1.71963617e-01 1.69677913e-01 1.69796392e-01 1.71690449e-01 1.74936086e-01 1.79222897e-01 1.84274077e-01 1.89822778e-01 1.95622578e-01 2.01462150e-01 2.07171500e-01 2.12620482e-01 2.17712954e-01 2.22376138e-01 2.26542532e-01 2.30123535e-01 2.32982486e-01 2.34936118e-01 2.38556385e-01 3.44155461e-01 1.92170396e-01 1.94748431e-01 3.40249479e-01 3.53239506e-01 3.03821772e-01 2.52080441e-01 2.15030015e-01 1.91653758e-01 1.78041577e-01 1.71159655e-01 1.68968663e-01 1.70100719e-01 1.73673332e-01 1.79059803e-01 1.85742453e-01 1.93292439e-01 2.01369643e-01 2.09697694e-01 2.18037799e-01 2.26179272e-01 2.33941019e-01 2.41174281e-01 2.47762159e-01 2.53616393e-01 2.58672327e-01 2.62882710e-01 2.66208261e-01 2.68599570e-01 2.69959331e-01 2.71891177e-01 3.86314243e-01 1.92881182e-01 2.25072905e-01 3.60151172e-01 3.31991911e-01 2.67002434e-01 2.18540922e-01 1.90065384e-01 1.75541937e-01 1.69904977e-01 1.69949606e-01 1.73807219e-01 1.80329055e-01 1.88721552e-01 1.98402911e-01 2.08920941e-01 2.19902977e-01 2.31036007e-01 2.42057443e-01 2.52746493e-01 2.62918562e-01 2.72424400e-01 2.81150401e-01 2.89017558e-01 2.95976549e-01 3.01999748e-01 3.07071656e-01 3.11178416e-01 3.14298153e-01 3.16396385e-01 3.18465501e-01 4.37883168e-01 1.94428012e-01 2.55140841e-01 3.64467829e-01 3.06616098e-01 2.38037363e-01 1.96706221e-01 1.76670402e-01 1.69644013e-01 1.70440614e-01 1.76124811e-01 1.84982464e-01 1.95960745e-01 2.08360672e-01 2.21666619e-01 2.35465586e-01 2.49411240e-01 2.63208836e-01 2.76610523e-01 2.89414585e-01 3.01464111e-01 3.12643945e-01 3.22874367e-01 3.32102716e-01 3.40294182e-01 3.47423524e-01 3.53469491e-01 3.58411342e-01 3.62227887e-01 3.64900440e-01 3.67119223e-01 4.87501979e-01 1.96150243e-01 2.82654196e-01 3.60179693e-01 2.82565057e-01 2.16597319e-01 1.83055773e-01 1.70303464e-01 1.69424772e-01 1.75490409e-01 1.85784265e-01 1.98761895e-01 2.13484272e-01 2.29312688e-01 2.45759085e-01 2.62420416e-01 2.78954178e-01 2.95072019e-01 3.10538709e-01 3.25171262e-01 3.38834971e-01 3.51436228e-01 3.62912923e-01 3.73224616e-01 3.82344246e-01 3.90252590e-01 3.96935761e-01 4.02385026e-01 4.06596750e-01 4.09572929e-01 4.11851078e-01 5.29895723e-01 1.97644621e-01 3.05960417e-01 3.51870835e-01 2.62239844e-01 2.01402128e-01 1.74969584e-01 1.68225855e-01 1.72331959e-01 1.82652116e-01 1.96706191e-01 2.13107511e-01 2.30994552e-01 2.49750987e-01 2.68884867e-01 2.87982941e-01 3.06696355e-01 3.24737489e-01 3.41878533e-01 3.57948154e-01 3.72825146e-01 3.86430055e-01 3.98716152e-01 4.09660906e-01 4.19258177e-01 4.27512407e-01 4.34435248e-01 4.40044880e-01 4.44366157e-01 4.47428644e-01 4.49686229e-01 5.61969519e-01 1.98790818e-01 3.24562848e-01 3.42023313e-01 2.46209279e-01 1.91109300e-01 1.70649737e-01 1.68710545e-01 1.76760808e-01 1.90469056e-01 2.07569689e-01 2.26791859e-01 2.47310251e-01 2.68502116e-01 2.89855391e-01 3.10938418e-01 3.31390947e-01 3.50920826e-01 3.69300932e-01 3.86364520e-01 4.01999503e-01 4.16143179e-01 4.28776413e-01 4.39916730e-01 4.49608058e-01 4.57907170e-01 4.64869618e-01 4.70540762e-01 4.74954247e-01 4.78134304e-01 4.80446845e-01 5.83459854e-01 1.99596912e-01 3.38952422e-01 3.32469165e-01 2.34264717e-01 1.84474260e-01 1.68773308e-01 1.70551151e-01 1.81638882e-01 1.97985008e-01 2.17498749e-01 2.38980919e-01 2.61611760e-01 2.84747094e-01 3.07849199e-01 3.30465347e-01 3.52220684e-01 3.72813791e-01 3.92013013e-01 4.09653693e-01 4.25638497e-01 4.39940572e-01 4.52606857e-01 4.63755280e-01 4.73556250e-01 4.82192427e-01 4.89800453e-01 4.96415466e-01 5.01950681e-01 5.06221652e-01 5.09315908e-01 6.01949334e-01 2.00111300e-01 3.50075275e-01 3.24501812e-01 2.25862339e-01 1.80432916e-01 1.68326557e-01 1.72860965e-01 1.86195180e-01 2.04514772e-01 2.25858748e-01 2.49065384e-01 2.73304284e-01 2.97905624e-01 3.22306395e-01 3.46033305e-01 3.68695617e-01 3.89980406e-01 4.09650743e-01 4.27550316e-01 4.43617105e-01 4.57906991e-01 4.70620096e-01 4.82112646e-01 4.92862791e-01 5.03354609e-01 5.13872325e-01 5.24277389e-01 5.33919990e-01 5.41844428e-01 5.47421038e-01 6.36725783e-01 2.00387150e-01 3.58905017e-01 3.18816781e-01 2.20396593e-01 1.78144366e-01 1.68548688e-01 1.74985439e-01 1.89865619e-01 2.09555492e-01 2.32181653e-01 2.56598979e-01 2.81961918e-01 3.07578027e-01 3.32863241e-01 3.57326716e-01 3.80563527e-01 4.02250618e-01 4.22150165e-01 4.40126181e-01 4.56181794e-01 4.70518768e-01 4.83609080e-01 4.96238291e-01 5.09431064e-01 5.24126053e-01 5.40525556e-01 5.57351410e-01 5.71807623e-01 5.81093848e-01 5.85191607e-01 6.81009471e-01 2.00466380e-01 3.66196573e-01 3.15705150e-01 2.17369318e-01 1.77015066e-01 1.68911010e-01 1.76472545e-01 1.92261726e-01 2.12758943e-01 2.36142948e-01 2.61275530e-01 2.87299752e-01 3.13507915e-01 3.39301854e-01 3.64178956e-01 3.87724489e-01 4.09609377e-01 4.29599136e-01 4.47583973e-01 4.63641167e-01 4.78136420e-01 4.91848290e-01 5.06041765e-01 5.22292495e-01 5.41709125e-01 5.63220739e-01 5.81207871e-01 5.84452212e-01 5.60085475e-01 5.52586138e-01 6.53672457e-01 2.00372294e-01 3.72364938e-01 3.15269142e-01 2.16470376e-01 1.76699311e-01 1.69105396e-01 1.77059695e-01 1.93157792e-01 2.13921905e-01 2.37553135e-01 2.62917906e-01 2.89156109e-01 3.15554857e-01 3.41510952e-01 3.66517216e-01 3.90155524e-01 4.12095159e-01 4.32104409e-01 4.50086534e-01 4.66153562e-01 4.80746508e-01 4.94783938e-01 5.09743631e-01 5.27410448e-01 5.48773110e-01 5.71460307e-01 5.85617602e-01 5.69026828e-01 5.52255750e-01 5.52597821e-01 6.53699756e-01 2.00106755e-01 3.77429426e-01 3.17556679e-01 2.17607215e-01 1.77089557e-01 1.69032574e-01 1.76662385e-01 1.92482367e-01 2.12980568e-01 2.36352980e-01 2.61470944e-01 2.87481219e-01 3.13676745e-01 3.39458913e-01 3.64324212e-01 3.87857795e-01 4.09731150e-01 4.29711252e-01 4.47690040e-01 4.63746488e-01 4.78246808e-01 4.91967797e-01 5.06168365e-01 5.22413850e-01 5.41800797e-01 5.63252628e-01 5.81187427e-01 5.84434509e-01 5.60092211e-01 5.52601099e-01 6.53709292e-01 1.99649751e-01 3.80984634e-01 3.22614700e-01 2.20915779e-01 1.78312898e-01 1.68797404e-01 1.75368711e-01 1.90313861e-01 2.10007980e-01 2.32611462e-01 2.56999075e-01 2.82333285e-01 3.07923555e-01 3.33184749e-01 3.57624590e-01 3.80837440e-01 4.02501106e-01 4.22379822e-01 4.40340310e-01 4.56387848e-01 4.70724493e-01 4.83819038e-01 4.96449113e-01 5.09627819e-01 5.24284661e-01 5.40626585e-01 5.57406604e-01 5.71850061e-01 5.81135333e-01 5.85225463e-01 6.81011677e-01 1.98960900e-01 3.82184595e-01 3.30468118e-01 2.26762995e-01 1.80738971e-01 1.68715924e-01 1.73443571e-01 1.86882555e-01 2.05215022e-01 2.26527378e-01 2.49689266e-01 2.73883790e-01 2.98444897e-01 3.22808623e-01 3.46499473e-01 3.69125277e-01 3.90373498e-01 4.10009354e-01 4.27879155e-01 4.43922669e-01 4.58195359e-01 4.70894009e-01 4.82368678e-01 4.93091434e-01 5.03546000e-01 5.14026642e-01 5.24408638e-01 5.34045935e-01 5.41948140e-01 5.47484398e-01 6.36658132e-01 1.97984919e-01 3.79750252e-01 3.41000736e-01 2.35728383e-01 1.84989274e-01 1.69327706e-01 1.71339184e-01 1.82576999e-01 1.98954493e-01 2.18434185e-01 2.39859551e-01 2.62431026e-01 2.85510987e-01 3.08561563e-01 3.31127524e-01 3.52831721e-01 3.73372465e-01 3.92519712e-01 4.10111219e-01 4.26051259e-01 4.40312594e-01 4.52939898e-01 4.64048088e-01 4.73806679e-01 4.82402503e-01 4.89980340e-01 4.96579617e-01 5.02100766e-01 5.06333113e-01 5.09396493e-01 6.01873815e-01 1.96664616e-01 3.72039229e-01 3.53677690e-01 2.48526871e-01 1.91933379e-01 1.71404019e-01 1.69707045e-01 1.77954435e-01 1.91728950e-01 2.08808810e-01 2.27972835e-01 2.48422414e-01 2.69545048e-01 2.90830582e-01 3.11845571e-01 3.32227558e-01 3.51683646e-01 3.69987845e-01 3.86975765e-01 4.02537674e-01 4.16611701e-01 4.29178536e-01 4.40255374e-01 4.49887842e-01 4.58136767e-01 4.65062052e-01 4.70707744e-01 4.75095630e-01 4.78231788e-01 4.80536789e-01 5.83388686e-01 1.94976971e-01 3.57285529e-01 3.67065102e-01 2.65799433e-01 2.02665284e-01 1.75962105e-01 1.69424698e-01 1.73770845e-01 1.84217140e-01 1.98295489e-01 2.14663178e-01 2.32488036e-01 2.51167834e-01 2.70216316e-01 2.89221883e-01 3.07835907e-01 3.25770825e-01 3.42800230e-01 3.58755589e-01 3.73519212e-01 3.87014985e-01 3.99198651e-01 4.10049617e-01 4.19564188e-01 4.27749336e-01 4.34617817e-01 4.40184921e-01 4.44468051e-01 4.47488636e-01 4.49759364e-01 5.61864734e-01 1.93047926e-01 3.34235221e-01 3.78404766e-01 2.87643999e-01 2.18437091e-01 1.84329048e-01 1.71687692e-01 1.71078220e-01 1.77361026e-01 1.87776789e-01 2.00795636e-01 2.15497807e-01 2.31259480e-01 2.47604251e-01 2.64138430e-01 2.80526519e-01 2.96484858e-01 3.11781943e-01 3.26238722e-01 3.39725733e-01 3.52155566e-01 3.63472074e-01 3.73639852e-01 3.82635146e-01 3.90440345e-01 3.97040784e-01 4.02424395e-01 4.06582892e-01 4.09515142e-01 4.11827832e-01 5.29670060e-01 1.91350639e-01 3.03098500e-01 3.84089172e-01 3.12914550e-01 2.40386173e-01 1.98261142e-01 1.78241417e-01 1.71475649e-01 1.72598615e-01 1.78566307e-01 1.87616140e-01 1.98679492e-01 2.11060017e-01 2.24258751e-01 2.37884209e-01 2.51610070e-01 2.65157491e-01 2.78289765e-01 2.90812969e-01 3.02577734e-01 3.13478082e-01 3.23445082e-01 3.32436293e-01 3.40424180e-01 3.47386599e-01 3.53301078e-01 3.58143091e-01 3.61886501e-01 3.64509046e-01 3.66797835e-01 4.86949056e-01 1.90572500e-01 2.65645504e-01 3.80337059e-01 3.39006454e-01 2.68979430e-01 2.19928652e-01 1.91751674e-01 1.77607134e-01 1.72375470e-01 1.72872350e-01 1.77133337e-01 1.83913633e-01 1.92391247e-01 2.01991856e-01 2.12288842e-01 2.22946644e-01 2.33687729e-01 2.44274214e-01 2.54500687e-01 2.64194727e-01 2.73220897e-01 2.81482816e-01 2.88920701e-01 2.95502871e-01 3.01214159e-01 3.06043953e-01 3.09976786e-01 3.12986761e-01 3.15039605e-01 3.17246050e-01 4.36404973e-01 1.90900788e-01 2.24332839e-01 3.60871822e-01 3.60569894e-01 3.03734303e-01 2.51722842e-01 2.15985879e-01 1.93733022e-01 1.80964544e-01 1.74728602e-01 1.73036516e-01 1.74546078e-01 1.78318039e-01 1.83671087e-01 1.90101340e-01 1.97228342e-01 2.04752833e-01 2.12425917e-01 2.20032170e-01 2.27383763e-01 2.34320104e-01 2.40709990e-01 2.46454522e-01 2.51488984e-01 2.55780667e-01 2.59320527e-01 2.62108654e-01 2.64134377e-01 2.65375257e-01 2.67456412e-01 3.81890804e-01 1.91701815e-01 1.83000639e-01 3.17816854e-01 3.63637030e-01 3.38684827e-01 2.95220464e-01 2.56166518e-01 2.26370960e-01 2.05264896e-01 1.91128641e-01 1.82247967e-01 1.77227437e-01 1.75034627e-01 1.74951047e-01 1.76472351e-01 1.79208577e-01 1.82826340e-01 1.87028795e-01 1.91557154e-01 1.96194991e-01 2.00765193e-01 2.05121905e-01 2.09143743e-01 2.12730438e-01 2.15802267e-01 2.18299568e-01 2.20176980e-01 2.21380547e-01 2.21836522e-01 2.23940074e-01 3.28962475e-01 1.92531645e-01 1.50386050e-01 2.50515103e-01 3.26552004e-01 3.48969668e-01 3.38115185e-01 3.12953830e-01 2.84028381e-01 2.57168859e-01 2.34916151e-01 2.17621103e-01 2.04625905e-01 1.95031017e-01 1.88054696e-01 1.83132917e-01 1.79892838e-01 1.78085655e-01 1.77482143e-01 1.77811801e-01 1.78800017e-01 1.80216074e-01 1.81882441e-01 1.83665067e-01 1.85459420e-01 1.87177330e-01 1.88736469e-01 1.90054551e-01 1.91044003e-01 1.91576272e-01 1.94463357e-01 2.85416663e-01 1.92953423e-01 1.42170236e-01 1.77028850e-01 2.40448341e-01 2.92607576e-01 3.26623529e-01 3.44130307e-01 3.45645249e-01 3.35642457e-01 3.19775462e-01 3.01983625e-01 2.84381419e-01 2.68018484e-01 2.53417104e-01 2.40766108e-01 2.29986057e-01 2.20892280e-01 2.13343695e-01 2.07195386e-01 2.02247769e-01 1.98327318e-01 1.95325002e-01 1.93136618e-01 1.91631600e-01 1.90672830e-01 1.90132588e-01 1.89896807e-01 1.89889476e-01 1.90218374e-01 1.91893280e-01 2.61012107e-01 1.94711357e-01 1.45065635e-01 1.46334767e-01 1.52533889e-01 1.73553437e-01 1.99718386e-01 2.30062887e-01 2.61746466e-01 2.90433615e-01 3.14177215e-01 3.32501143e-01 3.45553726e-01 3.53854924e-01 3.58159930e-01 3.59318256e-01 3.58140320e-01 3.55327547e-01 3.51476789e-01 3.47082108e-01 3.42506677e-01 3.37999254e-01 3.33753884e-01 3.29928428e-01 3.26626569e-01 3.23895395e-01 3.21741432e-01 3.20151269e-01 3.19120377e-01 3.18698466e-01 3.19292963e-01 2.96333075e-01 2.37880319e-01 1.93587556e-01 1.94277897e-01 1.97703004e-01 2.00578630e-01 2.01394141e-01 2.00534195e-01 1.99441418e-01 1.98731095e-01 1.98336348e-01 1.98110700e-01 1.97972640e-01 1.97886974e-01 1.97846323e-01 1.97853059e-01 1.97905853e-01 1.98003173e-01 1.98156223e-01 1.98383957e-01 1.98686883e-01 1.99035212e-01 1.99394196e-01 1.99752092e-01 2.00115159e-01 2.00489253e-01 2.00872898e-01 2.01262221e-01 2.01659456e-01 2.02077180e-01 2.02489465e-01 2.21220613e-01 
