# vtk DataFile Version 2.0
results/2_density.vtk, Created by Freefem++ 
ASCII
DATASET UNSTRUCTURED_GRID
POINTS 961 float
0 0 0
0.033333333 0 0
0.066666667 0 0
0.1 0 0
0.13333333 0 0
0.16666667 0 0
0.2 0 0
0.23333333 0 0
0.26666667 0 0
0.3 0 0
0.33333333 0 0
0.36666667 0 0
0.4 0 0
0.43333333 0 0
0.46666667 0 0
0.5 0 0
0.53333333 0 0
0.56666667 0 0
0.6 0 0
0.63333333 0 0
0.66666667 0 0
0.7 0 0
0.73333333 0 0
0.76666667 0 0
0.8 0 0
0.83333333 0 0
0.86666667 0 0
0.9 0 0
0.93333333 0 0
0.96666667 0 0
1 0 0
0 0.033333333 0
0.033333333 0.033333333 0
0.066666667 0.033333333 0
0.1 0.033333333 0
0.13333333 0.033333333 0
0.16666667 0.033333333 0
0.2 0.033333333 0
0.23333333 0.033333333 0
0.26666667 0.033333333 0
0.3 0.033333333 0
0.33333333 0.033333333 0
0.36666667 0.033333333 0
0.4 0.033333333 0
0.43333333 0.033333333 0
0.46666667 0.033333333 0
0.5 0.033333333 0
0.53333333 0.033333333 0
0.56666667 0.033333333 0
0.6 0.033333333 0
0.63333333 0.033333333 0
0.66666667 0.033333333 0
0.7 0.033333333 0
0.73333333 0.033333333 0
0.76666667 0.033333333 0
0.8 0.033333333 0
0.83333333 0.033333333 0
0.86666667 0.033333333 0
0.9 0.033333333 0
0.93333333 0.033333333 0
0.96666667 0.033333333 0
1 0.033333333 0
0 0.066666667 0
0.033333333 0.066666667 0
0.066666667 0.066666667 0
0.1 0.066666667 0
0.13333333 0.066666667 0
0.16666667 0.066666667 0
0.2 0.066666667 0
0.23333333 0.066666667 0
0.26666667 0.066666667 0
0.3 0.066666667 0
0.33333333 0.066666667 0
0.36666667 0.066666667 0
0.4 0.066666667 0
0.43333333 0.066666667 0
0.46666667 0.066666667 0
0.5 0.066666667 0
0.53333333 0.066666667 0
0.56666667 0.066666667 0
0.6 0.066666667 0
0.63333333 0.066666667 0
0.66666667 0.066666667 0
0.7 0.066666667 0
0.73333333 0.066666667 0
0.76666667 0.066666667 0
0.8 0.066666667 0
0.83333333 0.066666667 0
0.86666667 0.066666667 0
0.9 0.066666667 0
0.93333333 0.066666667 0
0.96666667 0.066666667 0
1 0.066666667 0
0 0.1 0
0.033333333 0.1 0
0.066666667 0.1 0
0.1 0.1 0
0.13333333 0.1 0
0.16666667 0.1 0
0.2 0.1 0
0.23333333 0.1 0
0.26666667 0.1 0
0.3 0.1 0
0.33333333 0.1 0
0.36666667 0.1 0
0.4 0.1 0
0.43333333 0.1 0
0.46666667 0.1 0
0.5 0.1 0
0.53333333 0.1 0
0.56666667 0.1 0
0.6 0.1 0
0.63333333 0.1 0
0.66666667 0.1 0
0.7 0.1 0
0.73333333 0.1 0
0.76666667 0.1 0
0.8 0.1 0
0.83333333 0.1 0
0.86666667 0.1 0
0.9 0.1 0
0.93333333 0.1 0
0.96666667 0.1 0
1 0.1 0
0 0.13333333 0
0.033333333 0.13333333 0
0.066666667 0.13333333 0
0.1 0.13333333 0
0.13333333 0.13333333 0
0.16666667 0.13333333 0
0.2 0.13333333 0
0.23333333 0.13333333 0
0.26666667 0.13333333 0
0.3 0.13333333 0
0.33333333 0.13333333 0
0.36666667 0.13333333 0
0.4 0.13333333 0
0.43333333 0.13333333 0
0.46666667 0.13333333 0
0.5 0.13333333 0
0.53333333 0.13333333 0
0.56666667 0.13333333 0
0.6 0.13333333 0
0.63333333 0.13333333 0
0.66666667 0.13333333 0
0.7 0.13333333 0
0.73333333 0.13333333 0
0.76666667 0.13333333 0
0.8 0.13333333 0
0.83333333 0.13333333 0
0.86666667 0.13333333 0
0.9 0.13333333 0
0.93333333 0.13333333 0
0.96666667 0.13333333 0
1 0.13333333 0
0 0.16666667 0
0.033333333 0.16666667 0
0.066666667 0.16666667 0
0.1 0.16666667 0
0.13333333 0.16666667 0
0.16666667 0.16666667 0
0.2 0.16666667 0
0.23333333 0.16666667 0
0.26666667 0.16666667 0
0.3 0.16666667 0
0.33333333 0.16666667 0
0.36666667 0.16666667 0
0.4 0.16666667 0
0.43333333 0.16666667 0
0.46666667 0.16666667 0
0.5 0.16666667 0
0.53333333 0.16666667 0
0.56666667 0.16666667 0
0.6 0.16666667 0
0.63333333 0.16666667 0
0.66666667 0.16666667 0
0.7 0.16666667 0
0.73333333 0.16666667 0
0.76666667 0.16666667 0
0.8 0.16666667 0
0.83333333 0.16666667 0
0.86666667 0.16666667 0
0.9 0.16666667 0
0.93333333 0.16666667 0
0.96666667 0.16666667 0
1 0.16666667 0
0 0.2 0
0.033333333 0.2 0
0.066666667 0.2 0
0.1 0.2 0
0.13333333 0.2 0
0.16666667 0.2 0
0.2 0.2 0
0.23333333 0.2 0
0.26666667 0.2 0
0.3 0.2 0
0.33333333 0.2 0
0.36666667 0.2 0
0.4 0.2 0
0.43333333 0.2 0
0.46666667 0.2 0
0.5 0.2 0
0.53333333 0.2 0
0.56666667 0.2 0
0.6 0.2 0
0.63333333 0.2 0
0.66666667 0.2 0
0.7 0.2 0
0.73333333 0.2 0
0.76666667 0.2 0
0.8 0.2 0
0.83333333 0.2 0
0.86666667 0.2 0
0.9 0.2 0
0.93333333 0.2 0
0.96666667 0.2 0
1 0.2 0
0 0.23333333 0
0.033333333 0.23333333 0
0.066666667 0.23333333 0
0.1 0.23333333 0
0.13333333 0.23333333 0
0.16666667 0.23333333 0
0.2 0.23333333 0
0.23333333 0.23333333 0
0.26666667 0.23333333 0
0.3 0.23333333 0
0.33333333 0.23333333 0
0.36666667 0.23333333 0
0.4 0.23333333 0
0.43333333 0.23333333 0
0.46666667 0.23333333 0
0.5 0.23333333 0
0.53333333 0.23333333 0
0.56666667 0.23333333 0
0.6 0.23333333 0
0.63333333 0.23333333 0
0.66666667 0.23333333 0
0.7 0.23333333 0
0.73333333 0.23333333 0
0.76666667 0.23333333 0
0.8 0.23333333 0
0.83333333 0.23333333 0
0.86666667 0.23333333 0
0.9 0.23333333 0
0.93333333 0.23333333 0
0.96666667 0.23333333 0
1 0.23333333 0
0 0.26666667 0
0.033333333 0.26666667 0
0.066666667 0.26666667 0
0.1 0.26666667 0
0.13333333 0.26666667 0
0.16666667 0.26666667 0
0.2 0.26666667 0
0.23333333 0.26666667 0
0.26666667 0.26666667 0
0.3 0.26666667 0
0.33333333 0.26666667 0
0.36666667 0.26666667 0
0.4 0.26666667 0
0.43333333 0.26666667 0
0.46666667 0.26666667 0
0.5 0.26666667 0
0.53333333 0.26666667 0
0.56666667 0.26666667 0
0.6 0.26666667 0
0.63333333 0.26666667 0
0.66666667 0.26666667 0
0.7 0.26666667 0
0.73333333 0.26666667 0
0.76666667 0.26666667 0
0.8 0.26666667 0
0.83333333 0.26666667 0
0.86666667 0.26666667 0
0.9 0.26666667 0
0.93333333 0.26666667 0
0.96666667 0.26666667 0
1 0.26666667 0
0 0.3 0
0.033333333 0.3 0
0.066666667 0.3 0
0.1 0.3 0
0.13333333 0.3 0
0.16666667 0.3 0
0.2 0.3 0
0.23333333 0.3 0
0.26666667 0.3 0
0.3 0.3 0
0.33333333 0.3 0
0.36666667 0.3 0
0.4 0.3 0
0.43333333 0.3 0
0.46666667 0.3 0
0.5 0.3 0
0.53333333 0.3 0
0.56666667 0.3 0
0.6 0.3 0
0.63333333 0.3 0
0.66666667 0.3 0
0.7 0.3 0
0.73333333 0.3 0
0.76666667 0.3 0
0.8 0.3 0
0.83333333 0.3 0
0.86666667 0.3 0
0.9 0.3 0
0.93333333 0.3 0
0.96666667 0.3 0
1 0.3 0
0 0.33333333 0
0.033333333 0.33333333 0
0.066666667 0.33333333 0
0.1 0.33333333 0
0.13333333 0.33333333 0
0.16666667 0.33333333 0
0.2 0.33333333 0
0.23333333 0.33333333 0
0.26666667 0.33333333 0
0.3 0.33333333 0
0.33333333 0.33333333 0
0.36666667 0.33333333 0
0.4 0.33333333 0
0.43333333 0.33333333 0
0.46666667 0.33333333 0
0.5 0.33333333 0
0.53333333 0.33333333 0
0.56666667 0.33333333 0
0.6 0.33333333 0
0.63333333 0.33333333 0
0.66666667 0.33333333 0
0.7 0.33333333 0
0.73333333 0.33333333 0
0.76666667 0.33333333 0
0.8 0.33333333 0
0.83333333 0.33333333 0
0.86666667 0.33333333 0
0.9 0.33333333 0
0.93333333 0.33333333 0
0.96666667 0.33333333 0
1 0.33333333 0
0 0.36666667 0
0.033333333 0.36666667 0
0.066666667 0.36666667 0
0.1 0.36666667 0
0.13333333 0.36666667 0
0.16666667 0.36666667 0
0.2 0.36666667 0
0.23333333 0.36666667 0
0.26666667 0.36666667 0
0.3 0.36666667 0
0.33333333 0.36666667 0
0.36666667 0.36666667 0
0.4 0.36666667 0
0.43333333 0.36666667 0
0.46666667 0.36666667 0
0.5 0.36666667 0
0.53333333 0.36666667 0
0.56666667 0.36666667 0
0.6 0.36666667 0
0.63333333 0.36666667 0
0.66666667 0.36666667 0
0.7 0.36666667 0
0.73333333 0.36666667 0
0.76666667 0.36666667 0
0.8 0.36666667 0
0.83333333 0.36666667 0
0.86666667 0.36666667 0
0.9 0.36666667 0
0.93333333 0.36666667 0
0.96666667 0.36666667 0
1 0.36666667 0
0 0.4 0
0.033333333 0.4 0
0.066666667 0.4 0
0.1 0.4 0
0.13333333 0.4 0
0.16666667 0.4 0
0.2 0.4 0
0.23333333 0.4 0
0.26666667 0.4 0
0.3 0.4 0
0.33333333 0.4 0
0.36666667 0.4 0
0.4 0.4 0
0.43333333 0.4 0
0.46666667 0.4 0
0.5 0.4 0
0.53333333 0.4 0
0.56666667 0.4 0
0.6 0.4 0
0.63333333 0.4 0
0.66666667 0.4 0
0.7 0.4 0
0.73333333 0.4 0
0.76666667 0.4 0
0.8 0.4 0
0.83333333 0.4 0
0.86666667 0.4 0
0.9 0.4 0
0.93333333 0.4 0
0.96666667 0.4 0
1 0.4 0
0 0.43333333 0
0.033333333 0.43333333 0
0.066666667 0.43333333 0
0.1 0.43333333 0
0.13333333 0.43333333 0
0.16666667 0.43333333 0
0.2 0.43333333 0
0.23333333 0.43333333 0
0.26666667 0.43333333 0
0.3 0.43333333 0
0.33333333 0.43333333 0
0.36666667 0.43333333 0
0.4 0.43333333 0
0.43333333 0.43333333 0
0.46666667 0.43333333 0
0.5 0.43333333 0
0.53333333 0.43333333 0
0.56666667 0.43333333 0
0.6 0.43333333 0
0.63333333 0.43333333 0
0.66666667 0.43333333 0
0.7 0.43333333 0
0.73333333 0.43333333 0
0.76666667 0.43333333 0
0.8 0.43333333 0
0.83333333 0.43333333 0
0.86666667 0.43333333 0
0.9 0.43333333 0
0.93333333 0.43333333 0
0.96666667 0.43333333 0
1 0.43333333 0
0 0.46666667 0
0.033333333 0.46666667 0
0.066666667 0.46666667 0
0.1 0.46666667 0
0.13333333 0.46666667 0
0.16666667 0.46666667 0
0.2 0.46666667 0
0.23333333 0.46666667 0
0.26666667 0.46666667 0
0.3 0.46666667 0
0.33333333 0.46666667 0
0.36666667 0.46666667 0
0.4 0.46666667 0
0.43333333 0.46666667 0
0.46666667 0.46666667 0
0.5 0.46666667 0
0.53333333 0.46666667 0
0.56666667 0.46666667 0
0.6 0.46666667 0
0.63333333 0.46666667 0
0.66666667 0.46666667 0
0.7 0.46666667 0
0.73333333 0.46666667 0
0.76666667 0.46666667 0
0.8 0.46666667 0
0.83333333 0.46666667 0
0.86666667 0.46666667 0
0.9 0.46666667 0
0.93333333 0.46666667 0
0.96666667 0.46666667 0
1 0.46666667 0
0 0.5 0
0.033333333 0.5 0
0.066666667 0.5 0
0.1 0.5 0
0.13333333 0.5 0
0.16666667 0.5 0
0.2 0.5 0
0.23333333 0.5 0
0.26666667 0.5 0
0.3 0.5 0
0.33333333 0.5 0
0.36666667 0.5 0
0.4 0.5 0
0.43333333 0.5 0
0.46666667 0.5 0
0.5 0.5 0
0.53333333 0.5 0
0.56666667 0.5 0
0.6 0.5 0
0.63333333 0.5 0
0.66666667 0.5 0
0.7 0.5 0
0.73333333 0.5 0
0.76666667 0.5 0
0.8 0.5 0
0.83333333 0.5 0
0.86666667 0.5 0
0.9 0.5 0
0.93333333 0.5 0
0.96666667 0.5 0
1 0.5 0
0 0.53333333 0
0.033333333 0.53333333 0
0.066666667 0.53333333 0
0.1 0.53333333 0
0.13333333 0.53333333 0
0.16666667 0.53333333 0
0.2 0.53333333 0
0.23333333 0.53333333 0
0.26666667 0.53333333 0
0.3 0.53333333 0
0.33333333 0.53333333 0
0.36666667 0.53333333 0
0.4 0.53333333 0
0.43333333 0.53333333 0
0.46666667 0.53333333 0
0.5 0.53333333 0
0.53333333 0.53333333 0
0.56666667 0.53333333 0
0.6 0.53333333 0
0.63333333 0.53333333 0
0.66666667 0.53333333 0
0.7 0.53333333 0
0.73333333 0.53333333 0
0.76666667 0.53333333 0
0.8 0.53333333 0
[...]
CELL_DATA 1920
Scalars  Label int 1
LOOKUP_TABLE FreeFempp_table
0
0
0
0
0
0
0
0
0
0
0
0
0
0
0
0
0
0
0
0
0
0
0
0
0
0
0
0
0
0
0
0
0
0
0
0
0
0
0
0
0
0
0
0
0
0
0
0
0
0
0
0
0
0
0
0
0
0
0
0
0
0
0
0
0
0
0
0
0
0
0
0
0
0
0
0
0
0
0
0
0
0
0
0
0
0
0
0
0
0
0
0
0
0
0
0
0
0
0
0
0
0
0
0
0
0
0
0
0
0
0
0
0
0
0
0
0
0
0
0
0
0
0
0
0
0
0
0
0
0
0
0
0
0
0
0
0
0
0
0
0
0
0
0
0
0
0
0
0
0
0
0
0
0
0
0
0
0
0
0
0
0
0
0
0
0
0
0
0
0
0
0
0
0
0
0
0
0
0
0
0
0
0
0
0
0
0
0
0
0
0
0
0
0
0
0
0
0
0
0
0
0
0
0
0
0
0
0
0
0
0
0
0
0
0
0
0
0
0
0
0
0
0
0
0
0
0
0
0
0
0
0
0
0
0
0
0
0
0
0
0
0
0
0
0
0
0
0
0
0
0
0
0
0
0
0
0
0
0
0
0
0
0
0
0
0
0
0
0
0
0
0
0
0
0
0
0
0
0
0
0
0
0
0
0
0
0
0
0
0
0
0
0
0
0
0
0
0
0
0
0
0
0
0
0
0
0
0
0
0
0
0
0
0
0
0
0
0
0
0
0
0
0
0
0
0
0
0
0
0
0
0
0
0
0
0
0
0
0
0
0
0
0
0
0
0
0
0
0
0
0
0
0
0
0
0
0
0
0
0
0
0
0
0
0
0
0
0
0
0
0
0
0
0
0
0
0
0
0
0
0
0
0
0
0
0
0
0
0
0
0
0
0
0
0
0
0
0
0
0
0
0
0
0
0
0
0
0
0
0
0
0
0
0
0
0
0
0
0
0
0
0
0
0
0
0
0
0
0
0
0
0
0
0
0
0
0
0
0
0
0
0
0
0
0
0
0
0
0
0
0
0
0
0
0
0
0
0
0
0
0
0
0
0
0
0
0
0
0
0
0
0
0
0
0
0
0
0
0
0
0
0
0
0
0
0
0
0
0
0
0
0
0
0
0
0
0
0
0
0
0
0
0
0
0
0
0
0
0
0
0
0
0
0
0
0
0
0
0
0
0
0
0
0
0
0
0
0
0
0
0
0
0
0
0
0
0
0
0
0
0
0
0
0
0
0
0
0
0
0
0
0
0
0
0
0
0
0
0
0
0
0
0
0
0
0
0
0
0
0
0
0
0
0
0
0
0
0
0
0
0
0
0
0
0
0
0
0
0
0
0
0
0
0
0
0
0
0
0
0
0
0
0
0
0
0
0
0
0
0
0
0
0
0
0
0
0
0
0
0
0
0
0
0
0
0
0
0
0
0
0
0
0
0
0
0
0
0
0
0
0
0
0
0
0
0
0
0
0
0
0
0
0
0
0
0
0
0
0
0
0
0
0
0
0
0
0
0
0
0
0
0
0
0
0
0
0
0
0
0
0
0
0
0
0
0
0
0
0
0
0
0
0
0
0
0
0
0
0
0
0
0
0
0
0
0
0
0
0
0
0
0
0
0
0
0
0
0
0
0
0
0
0
0
0
0
0
0
0
0
0
0
0
0
0
0
0
0
0
0
0
0
0
0
0
0
0
0
0
0
0
0
0
0
0
0
0
0
0
0
0
0
0
0
0
0
0
0
0
0
0
0
0
0
0
0
0
0
0
0
0
0
0
0
0
0
0
0
0
0
0
0
0
0
0
0
0
0
0
0
0
0
0
0
0
0
0
0
0
0
0
0
0
0
0
0
0
0
0
0
0
0
0
0
0
0
0
0
0
0
0
0
0
0
0
0
0
0
0
0
0
0
0
0
0
0
0
0
0
0
0
0
0
0
0
0
0
0
0
0
0
0
0
0
0
0
0
0
0
0
0
0
0
0
0
0
0
0
0
0
0
0
0
0
0
0
0
0
0
0
0
0
0
0
0
0
0
0
0
0
0
0
0
0
0
0
0
0
0
0
0
0
0
0
0
0
0
0
0
0
0
0
0
0
0
0
0
0
0
0
0
0
0
0
0
0
0
0
0
0
0
0
0
0
0
0
0
0
0
0
0
0
0
0
0
0
0
0
0
0
0
0
0
0
0
0
0
0
0
0
0
0
0
0
0
0
0
0
0
0
0
0
0
0
0
0
0
0
0
0
0
0
0
0
0
0
0
0
0
0
0
0
0
0
0
0
0
0
0
0
0
0
0
0
0
0
0
0
0
0
0
0
0
0
0
0
0
0
0
0
0
0
0
0
0
0
0
0
0
0
0
0
0
0
0
0
0
0
0
0
0
0
0
0
0
0
0
0
0
0
0
0
0
0
0
0
0
0
0
0
0
0
0
0
0
0
0
0
0
0
0
0
0
0
0
0
0
0
0
0
0
0
0
0
0
0
0
0
0
0
0
0
0
0
0
0
0
0
0
0
0
0
0
0
0
0
0
0
0
0
0
0
0
0
0
0
0
0
0
0
0
0
0
0
0
0
0
0
0
0
0
0
0
0
0
0
0
0
0
0
0
0
0
0
0
0
0
0
0
0
0
0
0
0
0
0
0
0
0
0
0
0
0
0
0
0
0
0
0
0
0
0
0
0
0
0
0
0
0
0
0
0
0
0
0
0
0
0
0
0
0
0
0
0
0
0
0
0
0
0
0
0
0
0
0
0
0
0
0
0
0
0
0
0
0
0
0
0
0
0
0
0
0
0
0
0
0
0
0
0
0
0
0
0
0
0
0
0
0
0
0
0
0
0
0
0
0
0
0
0
0
0
0
0
0
0
0
0
0
0
0
0
0
0
0
0
0
0
0
0
0
0
0
0
0
0
0
0
0
0
0
0
0
0
0
0
0
0
0
0
0
0
0
0
0
0
0
0
0
0
0
0
0
0
0
0
0
0
0
0
0
0
0
0
0
0
0
0
0
0
0
0
0
0
0
0
0
0
0
0
0
0
0
0
0
0
0
0
0
0
0
0
0
0
0
0
0
0
0
0
0
0
0
0
0
0
0
0
0
0
0
0
0
0
0
0
0
0
0
0
0
0
0
0
0
0
0
0
0
0
0
0
0
0
0
0
0
0
0
0
0
0
0
0
0
0
0
0
0
0
0
0
0
0
0
0
0
0
0
0
0
0
0
0
0
0
0
0
0
0
0
0
0
0
0
0
0
0
0
0
0
0
0
0
0
0
0
0
0
0
0
0
0
0
0
0
0
0
0
0
0
0
0
0
0
0
0
0
0
0
0
0
0
0
0
0
0
0
0
0
0
0
0
0
0
0
0
0
0
0
0
0
0
0
0
0
0
0
0
0
0
0
0
0
0
0
0
0
0
0
0
0
0
0
0
0
0
0
0
0
0
0
0
0
0
0
0
0
0
0
0
0
0
0
0
0
0
0
0
0
0
0
0
0
0
0
0
0
0
0
0
0
0
0
0
0
0
0
0
0
0
0
0
0
0
0
0
0
0
0
0
0
0
0
0
0
0
0
0
0
0
0
0
0
0
0
0
0
0
0
0
0
0
0
0
0
0
0
0
0
0
0
0
0
0
0
0
0
0
0
0
0
0
0
0
0
0
0
0
0
0
0
0
0
0
0
0
0
0
0
0
0
0
0
0
0
0
0
0
0
0
0
0
0
0
0
0
0
0
0
0
0
0
0
0
0
0
0
0
0
0
0
0
0
0
0
0
0
0
0
0
0
0
0
0
0
0
0
0
0
0
0
0
0
0
0
0
0
0
0
0
0
0
0
0
0
0
0
0
0
0
0
0
0
0
0
0
0
0
0
0
0
0
0
0
0
0
0
0
0
0
0
0
0
0
0
0
0
0
0
0
0
0
0
0
0
0
0
0
0
0
0
0
0
0
0
0
0
0
0
0
0
0
0
0
0
0
0
0
0
0
0
0
0
0
0
0
0
0
0
0
0
0
0
0
0
0
0
0
0
0
0
0
0
0
0
0
0
0
0
0
0
0
0
0
0
0
0
0
0
1
1
1
1
1
1
1
1
1
1
1
1
1
1
1
1
1
1
1
1
1
1
1
1
1
1
1
1
1
1
2
2
2
2
2
2
2
2
2
2
2
2
2
2
2
2
2
2
2
2
2
2
2
2
2
2
2
2
2
2
3
3
3
3
3
3
3
3
3
3
3
3
3
3
3
3
3
3
3
3
3
3
3
3
3
3
3
3
3
3
4
4
4
4
4
4
4
4
4
4
4
4
4
4
4
4
4
4
4
4
4
4
4
4
4
4
4
4
4
4

LOOKUP_TABLE FreeFempp_table 5
1.00000000 0.00000000 0.00000000 1.00000000
1.00000000 1.00000000 0.00000000 1.00000000
1.00000000 0.00000000 1.00000000 1.00000000
0.00000000 1.00000000 0.00000000 1.00000000
0.00000000 1.00000000 1.00000000 1.00000000

POINT_DATA 961
FIELD FieldData 1
Density 1 961 float
2.54651508e-03 1.45134270e-01 6.62575483e-01 6.34452105e-01 5.36113858e-01 5.14526010e-01 5.13124168e-01 5.22340953e-01 5.16462803e-01 4.94811058e-01 5.11480749e-01 5.17161787e-01 5.13768971e-01 5.10647655e-01 5.23168862e-01 4.68789101e-01 3.12214762e-01 9.15292576e-02 1.84274651e-02 3.17702000e-03 -2.88966135e-03 -2.53019825e-04 4.29001317e-04 3.46559304e-04 1.60819225e-04 -6.76385243e-05 4.41749673e-03 1.07778609e-02 3.12298555e-02 1.74999386e-01 2.62686729e-01 1.26374904e-02 1.43016011e-01 6.88998938e-01 7.26868808e-01 5.67350626e-01 5.08002222e-01 5.03013849e-01 5.02950788e-01 5.08471847e-01 4.53749716e-01 4.98004615e-01 5.11406720e-01 4.77761030e-01 4.22207862e-01 4.31262732e-01 3.78986597e-01 1.59769714e-01 4.40267250e-02 5.69312554e-03 3.64643958e-04 2.55917609e-02 7.01037645e-02 8.04126263e-02 8.27179253e-02 8.36106986e-02 8.42598304e-02 8.72305334e-02 6.28179237e-02 1.42076723e-02 3.57146896e-02 8.03517699e-02 1.08882999e-02 1.44927680e-01 6.98534548e-01 7.35479951e-01 5.45840263e-01 4.77530688e-01 4.36351150e-01 3.98945451e-01 3.97263169e-01 3.99140835e-01 4.28902090e-01 4.39690709e-01 3.67893755e-01 1.76919937e-01 1.00456156e-01 7.96205029e-02 3.02535612e-02 -5.34027000e-04 1.25089765e-03 3.88968103e-02 1.47283018e-01 3.62945259e-01 4.35798675e-01 4.53098029e-01 4.62245226e-01 4.68754172e-01 4.72605586e-01 4.26033378e-01 1.89480141e-01 1.18229657e-01 9.57158431e-02 2.12597731e-03 1.42051831e-01 7.02998757e-01 7.13613629e-01 4.68968958e-01 3.86923134e-01 2.93561578e-01 2.02571049e-01 1.56056434e-01 1.46637216e-01 1.55221239e-01 1.74720749e-01 1.14966586e-01 4.63536568e-02 1.03463065e-02 1.49408681e-03 9.48250853e-03 4.98861931e-02 1.00765809e-01 1.80298761e-01 4.41302568e-01 5.55484831e-01 5.97259641e-01 6.12091720e-01 6.29615724e-01 6.50402546e-01 6.72517061e-01 6.81336939e-01 6.29352510e-01 5.91230094e-01 5.50118327e-01 -3.01289023e-04 1.38418645e-01 6.93967521e-01 6.46856844e-01 3.37215215e-01 2.36914352e-01 1.35579735e-01 6.83723912e-02 4.04695831e-02 2.96592806e-02 2.52873208e-02 2.56842095e-02 1.55043676e-02 5.37924655e-03 5.38491830e-03 4.20608446e-02 1.29062176e-01 2.73625702e-01 4.77731109e-01 5.49768627e-01 6.19829893e-01 6.54314876e-01 6.58974528e-01 6.68109179e-01 6.81737065e-01 6.95009291e-01 7.07071543e-01 7.15428591e-01 7.04241574e-01 6.80830598e-01 6.51269019e-01 7.51089398e-03 1.42860636e-01 6.68480217e-01 5.22912145e-01 1.98524833e-01 8.78465325e-02 4.56182212e-02 2.42443457e-02 1.99356414e-02 1.84663404e-02 1.80078503e-02 2.74830833e-02 5.79349808e-02 8.96454751e-02 1.11266747e-01 1.91982999e-01 4.67744052e-01 5.76045752e-01 6.39890611e-01 6.64275646e-01 6.67600572e-01 6.62611663e-01 6.61114097e-01 6.61337376e-01 6.50470912e-01 6.19008601e-01 5.76913357e-01 5.47306478e-01 5.46662092e-01 5.59587598e-01 5.49259663e-01 7.04286387e-03 1.46101296e-01 6.41095996e-01 3.92421424e-01 1.13133848e-01 3.61905023e-02 2.36658230e-02 2.57770997e-02 3.94967757e-02 6.25418797e-02 1.02769122e-01 1.64900512e-01 2.99357444e-01 4.50755090e-01 5.15091658e-01 5.57105184e-01 6.32232964e-01 6.65227056e-01 6.62556827e-01 6.52056813e-01 6.41835511e-01 6.32543862e-01 6.23644233e-01 6.05774045e-01 5.61659813e-01 4.74399805e-01 3.76591742e-01 3.28271627e-01 3.39209437e-01 4.05254722e-01 4.48252797e-01 3.51868756e-03 1.43475458e-01 6.30129874e-01 3.20716828e-01 8.08346719e-02 3.31976376e-02 4.77477312e-02 8.90925601e-02 1.53337613e-01 2.40061149e-01 3.44863862e-01 4.67367262e-01 5.64714193e-01 6.21158063e-01 6.43066764e-01 6.52082622e-01 6.56343043e-01 6.43363595e-01 6.29273355e-01 6.17445588e-01 6.05694711e-01 5.92170417e-01 5.74711084e-01 5.46528578e-01 4.96445894e-01 4.09457147e-01 2.98935264e-01 2.14381978e-01 1.79219559e-01 2.65039027e-01 3.58953953e-01 2.70610931e-03 1.43422693e-01 6.38404250e-01 2.94698119e-01 7.21943229e-02 5.45986108e-02 1.23166688e-01 2.70779163e-01 3.87557656e-01 5.03711939e-01 6.04656756e-01 6.65722966e-01 6.80634558e-01 6.71191692e-01 6.56776428e-01 6.44439995e-01 6.30429149e-01 6.13521576e-01 5.99674284e-01 5.87075710e-01 5.73450446e-01 5.57131350e-01 5.36557198e-01 5.09535968e-01 4.73682374e-01 4.21385050e-01 3.34699124e-01 2.01670811e-01 1.01394363e-01 1.42979443e-01 2.52575576e-01 3.94108053e-03 1.44160688e-01 6.68320954e-01 3.52111429e-01 6.95824623e-02 7.88089707e-02 1.81837380e-01 3.87619585e-01 5.77349782e-01 6.83555484e-01 7.31426418e-01 7.27601767e-01 6.97268307e-01 6.66019619e-01 6.43237174e-01 6.25496924e-01 6.08139515e-01 5.91421008e-01 5.77501595e-01 5.64397216e-01 5.50257623e-01 5.33943534e-01 5.15000403e-01 4.93923485e-01 4.72516984e-01 4.50200170e-01 4.08600658e-01 2.79987752e-01 9.76614654e-02 6.96509778e-02 1.36652038e-01 5.51989814e-03 1.40991658e-01 6.91863477e-01 5.17904103e-01 1.38250411e-01 1.14186808e-01 2.60995150e-01 4.62536722e-01 6.31856024e-01 7.03484833e-01 7.14311302e-01 6.92129254e-01 6.59760714e-01 6.33473456e-01 6.15435839e-01 6.01060867e-01 5.87115526e-01 5.73623419e-01 5.61286330e-01 5.49110591e-01 5.36164641e-01 5.21963239e-01 5.06755471e-01 4.91797745e-01 4.79339391e-01 4.70892996e-01 4.58549500e-01 3.81723374e-01 1.54022366e-01 4.64250818e-02 5.70583604e-02 8.81760474e-03 1.33666083e-01 6.80122197e-01 6.92609310e-01 4.19420868e-01 2.99650371e-01 3.96526486e-01 5.35499096e-01 6.17307007e-01 6.41734421e-01 6.36486948e-01 6.19658709e-01 6.02267265e-01 5.90679824e-01 5.83740354e-01 5.77471554e-01 5.69717348e-01 5.60631752e-01 5.50928891e-01 5.40676355e-01 5.29805601e-01 5.18367648e-01 5.06885767e-01 4.96512890e-01 4.88831043e-01 4.85012352e-01 4.82184708e-01 4.49708194e-01 2.70175427e-01 5.87557070e-02 3.22744846e-02 1.53416805e-02 1.13710277e-01 6.16094053e-01 7.70440757e-01 6.46971703e-01 5.30243635e-01 5.23300886e-01 5.67758381e-01 5.87023616e-01 5.83679020e-01 5.73831856e-01 5.64113736e-01 5.58350027e-01 5.57783782e-01 5.59639156e-01 5.60228407e-01 5.57858169e-01 5.52751541e-01 5.45781434e-01 5.37687361e-01 5.28967321e-01 5.19983113e-01 5.11298776e-01 5.03788471e-01 4.98447567e-01 4.95968223e-01 4.95210022e-01 4.83786136e-01 3.59168380e-01 7.71853551e-02 2.34806202e-02 1.85089037e-02 6.56307936e-02 4.31969583e-01 7.57219374e-01 7.49477029e-01 6.58517957e-01 5.94476819e-01 5.73626995e-01 5.64637899e-01 5.55978417e-01 5.48675299e-01 5.43356895e-01 5.41722298e-01 5.44249773e-01 5.48633933e-01 5.51767826e-01 5.52006245e-01 5.49326837e-01 5.44417679e-01 5.38144588e-01 5.31217158e-01 5.24082661e-01 5.17232418e-01 5.11315286e-01 5.07008255e-01 5.04800081e-01 5.04211426e-01 4.99920279e-01 4.00286973e-01 8.56135413e-02 1.75264869e-02 2.41345353e-02 2.43904199e-02 1.85647920e-01 6.56233251e-01 7.86982536e-01 7.25925267e-01 6.32078767e-01 5.76468766e-01 5.58349967e-01 5.54277897e-01 5.52629232e-01 5.50272346e-01 5.48319876e-01 5.48316002e-01 5.49930871e-01 5.51289380e-01 5.50974667e-01 5.48694789e-01 5.44827640e-01 5.39871335e-01 5.34352183e-01 5.28605938e-01 5.22996366e-01 5.18020868e-01 5.14210999e-01 5.12005806e-01 5.11234403e-01 5.09191751e-01 4.17652100e-01 8.78219530e-02 1.38868466e-02 6.58537745e-02 2.90584359e-02 7.31059909e-02 4.31107879e-01 7.59280086e-01 7.75078118e-01 6.70810819e-01 5.90136826e-01 5.68989635e-01 5.71261704e-01 5.74583530e-01 5.73266566e-01 5.68631291e-01 5.63435853e-01 5.59307337e-01 5.55958629e-01 5.52639723e-01 5.49011528e-01 5.45136034e-01 5.40996194e-01 5.36629975e-01 5.32081366e-01 5.27544618e-01 5.23399413e-01 5.20091951e-01 5.18027782e-01 5.17135203e-01 5.15750170e-01 4.26273406e-01 8.81979316e-02 1.16017461e-02 1.70720041e-01 8.13352019e-02 3.20078395e-02 1.43322587e-01 5.56919634e-01 7.40248382e-01 7.03308403e-01 6.21791720e-01 6.01777673e-01 6.06445253e-01 6.09173536e-01 6.04292750e-01 5.94155252e-01 5.82332850e-01 5.71386278e-01 5.62201619e-01 5.54733455e-01 5.48778176e-01 5.44114411e-01 5.40306568e-01 5.36889195e-01 5.33521295e-01 5.30179143e-01 5.27109683e-01 5.24659038e-01 5.23139894e-01 5.22400856e-01 5.21208644e-01 4.31976706e-01 8.81914198e-02 9.93024092e-03 3.54607254e-01 2.29399219e-01 8.19409564e-02 4.31121551e-02 1.31461918e-01 3.53479654e-01 5.43316305e-01 6.11807823e-01 6.48827732e-01 6.59347475e-01 6.53559744e-01 6.38171077e-01 6.18572414e-01 5.98718882e-01 5.80890954e-01 5.66156864e-01 5.54740906e-01 5.46440482e-01 5.40769815e-01 5.37042618e-01 5.34444630e-01 5.32317519e-01 5.30415893e-01 5.28826714e-01 5.27758420e-01 5.27364612e-01 5.27270436e-01 5.26202381e-01 4.36708450e-01 8.83849710e-02 8.79054330e-03 5.42518616e-01 5.00124991e-01 3.00017983e-01 1.55493379e-01 6.31288514e-02 6.55352846e-02 1.45453915e-01 4.21660662e-01 6.60375476e-01 7.14322269e-01 6.98530316e-01 6.67501330e-01 6.35755956e-01 6.07450783e-01 5.83640099e-01 5.64600706e-01 5.50311744e-01 5.40383637e-01 5.34124911e-01 5.30640364e-01 5.28923512e-01 5.28159320e-01 5.27959347e-01 5.28265357e-01 5.29130161e-01 5.30508459e-01 5.31701863e-01 5.30818045e-01 4.40249026e-01 8.86917189e-02 8.13621841e-03 7.06461966e-01 7.64702201e-01 7.58884311e-01 5.72808087e-01 3.27143937e-01 1.56698421e-01 1.22922905e-01 2.28643551e-01 6.17937267e-01 7.45278478e-01 7.25181520e-01 6.79644048e-01 6.37765825e-01 6.03611887e-01 5.76447308e-01 5.55386126e-01 5.39966702e-01 5.29659986e-01 5.23641288e-01 5.20868897e-01 5.20268500e-01 5.21023035e-01 5.22725523e-01 5.25255501e-01 5.28544128e-01 5.32318354e-01 5.35443783e-01 5.35039663e-01 4.42550391e-01 8.87031779e-02 7.64373131e-03 7.49098539e-01 8.24369073e-01 8.69978845e-01 8.68577302e-01 8.09319198e-01 6.37802005e-01 5.22194088e-01 5.71459234e-01 7.06991434e-01 7.59410501e-01 7.17771113e-01 6.63118601e-01 6.18074238e-01 5.83704114e-01 5.57460725e-01 5.37588358e-01 5.23348451e-01 5.14223874e-01 5.09436965e-01 5.07963121e-01 5.08786142e-01 5.11189580e-01 5.14864385e-01 5.19768178e-01 5.25830090e-01 5.32558084e-01 5.38208544e-01 5.38829446e-01 4.44634497e-01 8.85128826e-02 7.04991212e-03 6.94762349e-01 7.77083993e-01 8.11674714e-01 8.23038757e-01 8.28795195e-01 8.00571918e-01 7.59893596e-01 7.51655102e-01 7.55883276e-01 7.22622156e-01 6.66686296e-01 6.15497649e-01 5.76648057e-01 5.48340797e-01 5.27372122e-01 5.11862814e-01 5.01108110e-01 4.94734228e-01 4.92163956e-01 4.92570341e-01 4.95118707e-01 4.99247819e-01 5.04802644e-01 5.11947811e-01 5.20826042e-01 5.30892611e-01 5.39682925e-01 5.42023957e-01 4.47125018e-01 8.84514228e-02 6.46558171e-03 6.00946903e-01 6.71444476e-01 6.94455504e-01 6.75341666e-01 6.58797443e-01 6.56068444e-01 6.67076468e-01 6.73858881e-01 6.61605000e-01 6.26124799e-01 5.83005071e-01 5.46598077e-01 5.20416856e-01 5.02366006e-01 4.89649981e-01 4.80732292e-01 4.75118548e-01 4.72642422e-01 4.73006964e-01 4.75706339e-01 4.80187327e-01 4.86068040e-01 4.93306071e-01 5.02266407e-01 5.13504624e-01 5.26851594e-01 5.39385319e-01 5.44417858e-01 4.49697942e-01 8.84429216e-02 5.86517714e-03 5.18728256e-01 5.60690224e-01 5.80336392e-01 5.50833821e-01 5.20228565e-01 5.12345135e-01 5.24677515e-01 5.36026239e-01 5.31376898e-01 5.11722744e-01 4.88382936e-01 4.70191717e-01 4.58988577e-01 4.52851683e-01 4.49619800e-01 4.48213458e-01 4.48400289e-01 4.50242847e-01 4.53749239e-01 4.58789974e-01 4.65168089e-01 4.72720891e-01 4.81440812e-01 4.91687745e-01 5.04351616e-01 5.20126820e-01 5.36514878e-01 5.45399368e-01 4.51953918e-01 8.84078071e-02 5.21715870e-03 4.66892123e-01 4.83242244e-01 5.03646851e-01 4.78428423e-01 4.47030991e-01 4.33755696e-01 4.35332596e-01 4.36809421e-01 4.30147231e-01 4.18007016e-01 4.07678634e-01 4.03374314e-01 4.04561251e-01 4.08773720e-01 4.14020300e-01 4.19424832e-01 4.24886376e-01 4.30613190e-01 4.36846793e-01 4.43786085e-01 4.51603770e-01 4.60438907e-01 4.70362276e-01 4.81513858e-01 4.94626880e-01 5.11212885e-01 5.30425489e-01 5.43929219e-01 4.53329593e-01 8.82825255e-02 4.57931310e-03 4.40734148e-01 4.43192571e-01 4.63768274e-01 4.41172004e-01 4.11011934e-01 3.95913422e-01 3.89751196e-01 3.82306963e-01 3.71689230e-01 3.61516535e-01 3.56934160e-01 3.59820306e-01 3.68166834e-01 3.78872871e-01 3.89744997e-01 3.99819732e-01 4.08946693e-01 4.17343915e-01 4.25340265e-01 4.33300167e-01 4.41644698e-01 4.50837553e-01 4.61231142e-01 4.72890168e-01 4.85936671e-01 5.01756966e-01 5.21642089e-01 5.39547801e-01 4.53593224e-01 8.80105570e-02 3.95405618e-03 4.29410666e-01 4.32415962e-01 4.56023425e-01 4.28507656e-01 3.92300814e-01 3.72022331e-01 3.60773504e-01 3.51352185e-01 3.43313664e-01 3.36853385e-01 3.35985571e-01 3.42570156e-01 3.54382932e-01 3.68141294e-01 3.81587535e-01 3.93728822e-01 4.04393941e-01 4.13796216e-01 4.22270685e-01 4.30184096e-01 4.37977791e-01 4.46249604e-01 4.55693901e-01 4.66748029e-01 4.79278356e-01 4.93607640e-01 5.12019277e-01 5.33217192e-01 4.53716993e-01 8.78097117e-02 3.37546691e-03 4.25622672e-01 4.37089860e-01 4.72607374e-01 4.40306336e-01 3.90339851e-01 3.53302300e-01 3.30606073e-01 3.21826100e-01 3.23758751e-01 3.25898349e-01 3.31130594e-01 3.42538744e-01 3.58019918e-01 3.74244899e-01 3.89144003e-01 4.01968896e-01 4.12745357e-01 4.21828955e-01 4.29643780e-01 4.36569929e-01 4.42965478e-01 4.49304819e-01 4.56317782e-01 4.64844197e-01 4.75248277e-01 4.87333715e-01 5.03032863e-01 5.26422024e-01 4.55184847e-01 8.82052109e-02 2.98588746e-03 4.21317905e-01 4.39193875e-01 4.85272408e-01 4.68992651e-01 4.19633418e-01 3.63367289e-01 3.13889623e-01 2.93680102e-01 2.95310736e-01 3.01338851e-01 3.16372216e-01 3.38354975e-01 3.62698376e-01 3.85337263e-01 4.04417813e-01 4.19659346e-01 4.31496382e-01 4.40598696e-01 4.47640091e-01 4.53191578e-01 4.57701236e-01 4.61577207e-01 4.65372384e-01 4.69911546e-01 4.76034880e-01 4.84111577e-01 4.95618552e-01 5.18060446e-01 4.56211418e-01 8.90114680e-02 2.62776762e-03 4.26307261e-01 4.36123818e-01 4.76950675e-01 4.94026870e-01 4.79627281e-01 4.38335747e-01 3.57751101e-01 3.10965389e-01 2.81813115e-01 2.56677687e-01 2.76627004e-01 3.18079263e-01 3.58727127e-01 3.92807126e-01 4.19607550e-01 4.39883560e-01 4.54749346e-01 4.65289831e-01 4.72455978e-01 4.77048397e-01 4.79729116e-01 4.81064349e-01 4.81632173e-01 4.82193500e-01 4.83762324e-01 4.87400770e-01 4.94377494e-01 5.07314503e-01 4.46389109e-01 8.89561847e-02 1.27879111e-03 4.76547658e-01 4.90684837e-01 4.99951482e-01 5.27916908e-01 5.21779418e-01 5.09780824e-01 4.42040443e-01 3.71961564e-01 3.26735348e-01 2.75902271e-01 2.74649888e-01 3.24429512e-01 3.73744756e-01 4.11032498e-01 4.38243985e-01 4.57925588e-01 4.71941233e-01 4.81621236e-01 4.87940818e-01 4.91646469e-01 4.93342787e-01 4.93560910e-01 4.92837310e-01 4.91835207e-01 4.91461635e-01 4.92777765e-01 4.96347994e-01 4.98141527e-01 4.37251031e-01 9.28782374e-02 -7.05896039e-03 
