# vtk DataFile Version 2.0
results/8_density.vtk, Created by Freefem++ 
ASCII
DATASET UNSTRUCTURED_GRID
POINTS 961 float
0 0 0
0.033333333 0 0
0.066666667 0 0
0.1 0 0
0.13333333 0 0
0.16666667 0 0
0.2 0 0
0.23333333 0 0
0.26666667 0 0
0.3 0 0
0.33333333 0 0
0.36666667 0 0
0.4 0 0
0.43333333 0 0
0.46666667 0 0
0.5 0 0
0.53333333 0 0
0.56666667 0 0
0.6 0 0
0.63333333 0 0
0.66666667 0 0
0.7 0 0
0.73333333 0 0
0.76666667 0 0
0.8 0 0
0.83333333 0 0
0.86666667 0 0
0.9 0 0
0.93333333 0 0
0.96666667 0 0
1 0 0
0 0.033333333 0
0.033333333 0.033333333 0
0.066666667 0.033333333 0
0.1 0.033333333 0
0.13333333 0.033333333 0
0.16666667 0.033333333 0
0.2 0.033333333 0
0.23333333 0.033333333 0
0.26666667 0.033333333 0
0.3 0.033333333 0
0.33333333 0.033333333 0
0.36666667 0.033333333 0
0.4 0.033333333 0
0.43333333 0.033333333 0
0.46666667 0.033333333 0
0.5 0.033333333 0
0.53333333 0.033333333 0
0.56666667 0.033333333 0
0.6 0.033333333 0
0.63333333 0.033333333 0
0.66666667 0.033333333 0
0.7 0.033333333 0
0.73333333 0.033333333 0
0.76666667 0.033333333 0
0.8 0.033333333 0
0.83333333 0.033333333 0
0.86666667 0.033333333 0
0.9 0.033333333 0
0.93333333 0.033333333 0
0.96666667 0.033333333 0
1 0.033333333 0
0 0.066666667 0
0.033333333 0.066666667 0
0.066666667 0.066666667 0
0.1 0.066666667 0
0.13333333 0.066666667 0
0.16666667 0.066666667 0
0.2 0.066666667 0
0.23333333 0.066666667 0
0.26666667 0.066666667 0
0.3 0.066666667 0
0.33333333 0.066666667 0
0.36666667 0.066666667 0
0.4 0.066666667 0
0.43333333 0.066666667 0
0.46666667 0.066666667 0
0.5 0.066666667 0
0.53333333 0.066666667 0
0.56666667 0.066666667 0
0.6 0.066666667 0
0.63333333 0.066666667 0
0.66666667 0.066666667 0
0.7 0.066666667 0
0.73333333 0.066666667 0
0.76666667 0.066666667 0
0.8 0.066666667 0
0.83333333 0.066666667 0
0.86666667 0.066666667 0
0.9 0.066666667 0
0.93333333 0.066666667 0
0.96666667 0.066666667 0
1 0.066666667 0
0 0.1 0
0.033333333 0.1 0
0.066666667 0.1 0
0.1 0.1 0
0.13333333 0.1 0
0.16666667 0.1 0
0.2 0.1 0
0.23333333 0.1 0
0.26666667 0.1 0
0.3 0.1 0
0.33333333 0.1 0
0.36666667 0.1 0
0.4 0.1 0
0.43333333 0.1 0
0.46666667 0.1 0
0.5 0.1 0
0.53333333 0.1 0
0.56666667 0.1 0
0.6 0.1 0
0.63333333 0.1 0
0.66666667 0.1 0
0.7 0.1 0
0.73333333 0.1 0
0.76666667 0.1 0
0.8 0.1 0
0.83333333 0.1 0
0.86666667 0.1 0
0.9 0.1 0
0.93333333 0.1 0
0.96666667 0.1 0
1 0.1 0
0 0.13333333 0
0.033333333 0.13333333 0
0.066666667 0.13333333 0
0.1 0.13333333 0
0.13333333 0.13333333 0
0.16666667 0.13333333 0
0.2 0.13333333 0
0.23333333 0.13333333 0
0.26666667 0.13333333 0
0.3 0.13333333 0
0.33333333 0.13333333 0
0.36666667 0.13333333 0
0.4 0.13333333 0
0.43333333 0.13333333 0
0.46666667 0.13333333 0
0.5 0.13333333 0
0.53333333 0.13333333 0
0.56666667 0.13333333 0
0.6 0.13333333 0
0.63333333 0.13333333 0
0.66666667 0.13333333 0
0.7 0.13333333 0
0.73333333 0.13333333 0
0.76666667 0.13333333 0
0.8 0.13333333 0
0.83333333 0.13333333 0
0.86666667 0.13333333 0
0.9 0.13333333 0
0.93333333 0.13333333 0
0.96666667 0.13333333 0
1 0.13333333 0
0 0.16666667 0
0.033333333 0.16666667 0
0.066666667 0.16666667 0
0.1 0.16666667 0
0.13333333 0.16666667 0
0.16666667 0.16666667 0
0.2 0.16666667 0
0.23333333 0.16666667 0
0.26666667 0.16666667 0
0.3 0.16666667 0
0.33333333 0.16666667 0
0.36666667 0.16666667 0
0.4 0.16666667 0
0.43333333 0.16666667 0
0.46666667 0.16666667 0
0.5 0.16666667 0
0.53333333 0.16666667 0
0.56666667 0.16666667 0
0.6 0.16666667 0
0.63333333 0.16666667 0
0.66666667 0.16666667 0
0.7 0.16666667 0
0.73333333 0.16666667 0
0.76666667 0.16666667 0
0.8 0.16666667 0
0.83333333 0.16666667 0
0.86666667 0.16666667 0
0.9 0.16666667 0
0.93333333 0.16666667 0
0.96666667 0.16666667 0
1 0.16666667 0
0 0.2 0
0.033333333 0.2 0
0.066666667 0.2 0
0.1 0.2 0
0.13333333 0.2 0
0.16666667 0.2 0
0.2 0.2 0
0.23333333 0.2 0
0.26666667 0.2 0
0.3 0.2 0
0.33333333 0.2 0
0.36666667 0.2 0
0.4 0.2 0
0.43333333 0.2 0
0.46666667 0.2 0
0.5 0.2 0
0.53333333 0.2 0
0.56666667 0.2 0
0.6 0.2 0
0.63333333 0.2 0
0.66666667 0.2 0
0.7 0.2 0
0.73333333 0.2 0
0.76666667 0.2 0
0.8 0.2 0
0.83333333 0.2 0
0.86666667 0.2 0
0.9 0.2 0
0.93333333 0.2 0
0.96666667 0.2 0
1 0.2 0
0 0.23333333 0
0.033333333 0.23333333 0
0.066666667 0.23333333 0
0.1 0.23333333 0
0.13333333 0.23333333 0
0.16666667 0.23333333 0
0.2 0.23333333 0
0.23333333 0.23333333 0
0.26666667 0.23333333 0
0.3 0.23333333 0
0.33333333 0.23333333 0
0.36666667 0.23333333 0
0.4 0.23333333 0
0.43333333 0.23333333 0
0.46666667 0.23333333 0
0.5 0.23333333 0
0.53333333 0.23333333 0
0.56666667 0.23333333 0
0.6 0.23333333 0
0.63333333 0.23333333 0
0.66666667 0.23333333 0
0.7 0.23333333 0
0.73333333 0.23333333 0
0.76666667 0.23333333 0
0.8 0.23333333 0
0.83333333 0.23333333 0
0.86666667 0.23333333 0
0.9 0.23333333 0
0.93333333 0.23333333 0
0.96666667 0.23333333 0
1 0.23333333 0
0 0.26666667 0
0.033333333 0.26666667 0
0.066666667 0.26666667 0
0.1 0.26666667 0
0.13333333 0.26666667 0
0.16666667 0.26666667 0
0.2 0.26666667 0
0.23333333 0.26666667 0
0.26666667 0.26666667 0
0.3 0.26666667 0
0.33333333 0.26666667 0
0.36666667 0.26666667 0
0.4 0.26666667 0
0.43333333 0.26666667 0
0.46666667 0.26666667 0
0.5 0.26666667 0
0.53333333 0.26666667 0
0.56666667 0.26666667 0
0.6 0.26666667 0
0.63333333 0.26666667 0
0.66666667 0.26666667 0
0.7 0.26666667 0
0.73333333 0.26666667 0
0.76666667 0.26666667 0
0.8 0.26666667 0
0.83333333 0.26666667 0
0.86666667 0.26666667 0
0.9 0.26666667 0
0.93333333 0.26666667 0
0.96666667 0.26666667 0
1 0.26666667 0
0 0.3 0
0.033333333 0.3 0
0.066666667 0.3 0
0.1 0.3 0
0.13333333 0.3 0
0.16666667 0.3 0
0.2 0.3 0
0.23333333 0.3 0
0.26666667 0.3 0
0.3 0.3 0
0.33333333 0.3 0
0.36666667 0.3 0
0.4 0.3 0
0.43333333 0.3 0
0.46666667 0.3 0
0.5 0.3 0
0.53333333 0.3 0
0.56666667 0.3 0
0.6 0.3 0
0.63333333 0.3 0
0.66666667 0.3 0
0.7 0.3 0
0.73333333 0.3 0
0.76666667 0.3 0
0.8 0.3 0
0.83333333 0.3 0
0.86666667 0.3 0
0.9 0.3 0
0.93333333 0.3 0
0.96666667 0.3 0
1 0.3 0
0 0.33333333 0
0.033333333 0.33333333 0
0.066666667 0.33333333 0
0.1 0.33333333 0
0.13333333 0.33333333 0
0.16666667 0.33333333 0
0.2 0.33333333 0
0.23333333 0.33333333 0
0.26666667 0.33333333 0
0.3 0.33333333 0
0.33333333 0.33333333 0
0.36666667 0.33333333 0
0.4 0.33333333 0
0.43333333 0.33333333 0
0.46666667 0.33333333 0
0.5 0.33333333 0
0.53333333 0.33333333 0
0.56666667 0.33333333 0
0.6 0.33333333 0
0.63333333 0.33333333 0
0.66666667 0.33333333 0
0.7 0.33333333 0
0.73333333 0.33333333 0
0.76666667 0.33333333 0
0.8 0.33333333 0
0.83333333 0.33333333 0
0.86666667 0.33333333 0
0.9 0.33333333 0
0.93333333 0.33333333 0
0.96666667 0.33333333 0
1 0.33333333 0
0 0.36666667 0
0.033333333 0.36666667 0
0.066666667 0.36666667 0
0.1 0.36666667 0
0.13333333 0.36666667 0
0.16666667 0.36666667 0
0.2 0.36666667 0
0.23333333 0.36666667 0
0.26666667 0.36666667 0
0.3 0.36666667 0
0.33333333 0.36666667 0
0.36666667 0.36666667 0
0.4 0.36666667 0
0.43333333 0.36666667 0
0.46666667 0.36666667 0
0.5 0.36666667 0
0.53333333 0.36666667 0
0.56666667 0.36666667 0
0.6 0.36666667 0
0.63333333 0.36666667 0
0.66666667 0.36666667 0
0.7 0.36666667 0
0.73333333 0.36666667 0
0.76666667 0.36666667 0
0.8 0.36666667 0
0.83333333 0.36666667 0
0.86666667 0.36666667 0
0.9 0.36666667 0
0.93333333 0.36666667 0
0.96666667 0.36666667 0
1 0.36666667 0
0 0.4 0
0.033333333 0.4 0
0.066666667 0.4 0
0.1 0.4 0
0.13333333 0.4 0
0.16666667 0.4 0
0.2 0.4 0
0.23333333 0.4 0
0.26666667 0.4 0
0.3 0.4 0
0.33333333 0.4 0
0.36666667 0.4 0
0.4 0.4 0
0.43333333 0.4 0
0.46666667 0.4 0
0.5 0.4 0
0.53333333 0.4 0
0.56666667 0.4 0
0.6 0.4 0
0.63333333 0.4 0
0.66666667 0.4 0
0.7 0.4 0
0.73333333 0.4 0
0.76666667 0.4 0
0.8 0.4 0
0.83333333 0.4 0
0.86666667 0.4 0
0.9 0.4 0
0.93333333 0.4 0
0.96666667 0.4 0
1 0.4 0
0 0.43333333 0
0.033333333 0.43333333 0
0.066666667 0.43333333 0
0.1 0.43333333 0
0.13333333 0.43333333 0
0.16666667 0.43333333 0
0.2 0.43333333 0
0.23333333 0.43333333 0
0.26666667 0.43333333 0
0.3 0.43333333 0
0.33333333 0.43333333 0
0.36666667 0.43333333 0
0.4 0.43333333 0
0.43333333 0.43333333 0
0.46666667 0.43333333 0
0.5 0.43333333 0
0.53333333 0.43333333 0
0.56666667 0.43333333 0
0.6 0.43333333 0
0.63333333 0.43333333 0
0.66666667 0.43333333 0
0.7 0.43333333 0
0.73333333 0.43333333 0
0.76666667 0.43333333 0
0.8 0.43333333 0
0.83333333 0.43333333 0
0.86666667 0.43333333 0
0.9 0.43333333 0
0.93333333 0.43333333 0
0.96666667 0.43333333 0
1 0.43333333 0
0 0.46666667 0
0.033333333 0.46666667 0
0.066666667 0.46666667 0
0.1 0.46666667 0
0.13333333 0.46666667 0
0.16666667 0.46666667 0
0.2 0.46666667 0
0.23333333 0.46666667 0
0.26666667 0.46666667 0
0.3 0.46666667 0
0.33333333 0.46666667 0
0.36666667 0.46666667 0
0.4 0.46666667 0
0.43333333 0.46666667 0
0.46666667 0.46666667 0
0.5 0.46666667 0
0.53333333 0.46666667 0
0.56666667 0.46666667 0
0.6 0.46666667 0
0.63333333 0.46666667 0
0.66666667 0.46666667 0
0.7 0.46666667 0
0.73333333 0.46666667 0
0.76666667 0.46666667 0
0.8 0.46666667 0
0.83333333 0.46666667 0
0.86666667 0.46666667 0
0.9 0.46666667 0
0.93333333 0.46666667 0
0.96666667 0.46666667 0
1 0.46666667 0
0 0.5 0
0.033333333 0.5 0
0.066666667 0.5 0
0.1 0.5 0
0.13333333 0.5 0
0.16666667 0.5 0
0.2 0.5 0
0.23333333 0.5 0
0.26666667 0.5 0
0.3 0.5 0
0.33333333 0.5 0
0.36666667 0.5 0
0.4 0.5 0
0.43333333 0.5 0
0.46666667 0.5 0
0.5 0.5 0
0.53333333 0.5 0
0.56666667 0.5 0
0.6 0.5 0
0.63333333 0.5 0
0.66666667 0.5 0
0.7 0.5 0
0.73333333 0.5 0
0.76666667 0.5 0
0.8 0.5 0
0.83333333 0.5 0
0.86666667 0.5 0
0.9 0.5 0
0.93333333 0.5 0
0.96666667 0.5 0
1 0.5 0
0 0.53333333 0
0.033333333 0.53333333 0
0.066666667 0.53333333 0
0.1 0.53333333 0
0.13333333 0.53333333 0
0.16666667 0.53333333 0
0.2 0.53333333 0
0.23333333 0.53333333 0
0.26666667 0.53333333 0
0.3 0.53333333 0
0.33333333 0.53333333 0
0.36666667 0.53333333 0
0.4 0.53333333 0
0.43333333 0.53333333 0
0.46666667 0.53333333 0
0.5 0.53333333 0
0.53333333 0.53333333 0
0.56666667 0.53333333 0
0.6 0.53333333 0
0.63333333 0.53333333 0
0.66666667 0.53333333 0
0.7 0.53333333 0
0.73333333 0.53333333 0
0.76666667 0.53333333 0
0.8 0.53333333 0
[...]
CELL_DATA 1920
Scalars  Label int 1
LOOKUP_TABLE FreeFempp_table
0
0
0
0
0
0
0
0
0
0
0
0
0
0
0
0
0
0
0
0
0
0
0
0
0
0
0
0
0
0
0
0
0
0
0
0
0
0
0
0
0
0
0
0
0
0
0
0
0
0
0
0
0
0
0
0
0
0
0
0
0
0
0
0
0
0
0
0
0
0
0
0
0
0
0
0
0
0
0
0
0
0
0
0
0
0
0
0
0
0
0
0
0
0
0
0
0
0
0
0
0
0
0
0
0
0
0
0
0
0
0
0
0
0
0
0
0
0
0
0
0
0
0
0
0
0
0
0
0
0
0
0
0
0
0
0
0
0
0
0
0
0
0
0
0
0
0
0
0
0
0
0
0
0
0
0
0
0
0
0
0
0
0
0
0
0
0
0
0
0
0
0
0
0
0
0
0
0
0
0
0
0
0
0
0
0
0
0
0
0
0
0
0
0
0
0
0
0
0
0
0
0
0
0
0
0
0
0
0
0
0
0
0
0
0
0
0
0
0
0
0
0
0
0
0
0
0
0
0
0
0
0
0
0
0
0
0
0
0
0
0
0
0
0
0
0
0
0
0
0
0
0
0
0
0
0
0
0
0
0
0
0
0
0
0
0
0
0
0
0
0
0
0
0
0
0
0
0
0
0
0
0
0
0
0
0
0
0
0
0
0
0
0
0
0
0
0
0
0
0
0
0
0
0
0
0
0
0
0
0
0
0
0
0
0
0
0
0
0
0
0
0
0
0
0
0
0
0
0
0
0
0
0
0
0
0
0
0
0
0
0
0
0
0
0
0
0
0
0
0
0
0
0
0
0
0
0
0
0
0
0
0
0
0
0
0
0
0
0
0
0
0
0
0
0
0
0
0
0
0
0
0
0
0
0
0
0
0
0
0
0
0
0
0
0
0
0
0
0
0
0
0
0
0
0
0
0
0
0
0
0
0
0
0
0
0
0
0
0
0
0
0
0
0
0
0
0
0
0
0
0
0
0
0
0
0
0
0
0
0
0
0
0
0
0
0
0
0
0
0
0
0
0
0
0
0
0
0
0
0
0
0
0
0
0
0
0
0
0
0
0
0
0
0
0
0
0
0
0
0
0
0
0
0
0
0
0
0
0
0
0
0
0
0
0
0
0
0
0
0
0
0
0
0
0
0
0
0
0
0
0
0
0
0
0
0
0
0
0
0
0
0
0
0
0
0
0
0
0
0
0
0
0
0
0
0
0
0
0
0
0
0
0
0
0
0
0
0
0
0
0
0
0
0
0
0
0
0
0
0
0
0
0
0
0
0
0
0
0
0
0
0
0
0
0
0
0
0
0
0
0
0
0
0
0
0
0
0
0
0
0
0
0
0
0
0
0
0
0
0
0
0
0
0
0
0
0
0
0
0
0
0
0
0
0
0
0
0
0
0
0
0
0
0
0
0
0
0
0
0
0
0
0
0
0
0
0
0
0
0
0
0
0
0
0
0
0
0
0
0
0
0
0
0
0
0
0
0
0
0
0
0
0
0
0
0
0
0
0
0
0
0
0
0
0
0
0
0
0
0
0
0
0
0
0
0
0
0
0
0
0
0
0
0
0
0
0
0
0
0
0
0
0
0
0
0
0
0
0
0
0
0
0
0
0
0
0
0
0
0
0
0
0
0
0
0
0
0
0
0
0
0
0
0
0
0
0
0
0
0
0
0
0
0
0
0
0
0
0
0
0
0
0
0
0
0
0
0
0
0
0
0
0
0
0
0
0
0
0
0
0
0
0
0
0
0
0
0
0
0
0
0
0
0
0
0
0
0
0
0
0
0
0
0
0
0
0
0
0
0
0
0
0
0
0
0
0
0
0
0
0
0
0
0
0
0
0
0
0
0
0
0
0
0
0
0
0
0
0
0
0
0
0
0
0
0
0
0
0
0
0
0
0
0
0
0
0
0
0
0
0
0
0
0
0
0
0
0
0
0
0
0
0
0
0
0
0
0
0
0
0
0
0
0
0
0
0
0
0
0
0
0
0
0
0
0
0
0
0
0
0
0
0
0
0
0
0
0
0
0
0
0
0
0
0
0
0
0
0
0
0
0
0
0
0
0
0
0
0
0
0
0
0
0
0
0
0
0
0
0
0
0
0
0
0
0
0
0
0
0
0
0
0
0
0
0
0
0
0
0
0
0
0
0
0
0
0
0
0
0
0
0
0
0
0
0
0
0
0
0
0
0
0
0
0
0
0
0
0
0
0
0
0
0
0
0
0
0
0
0
0
0
0
0
0
0
0
0
0
0
0
0
0
0
0
0
0
0
0
0
0
0
0
0
0
0
0
0
0
0
0
0
0
0
0
0
0
0
0
0
0
0
0
0
0
0
0
0
0
0
0
0
0
0
0
0
0
0
0
0
0
0
0
0
0
0
0
0
0
0
0
0
0
0
0
0
0
0
0
0
0
0
0
0
0
0
0
0
0
0
0
0
0
0
0
0
0
0
0
0
0
0
0
0
0
0
0
0
0
0
0
0
0
0
0
0
0
0
0
0
0
0
0
0
0
0
0
0
0
0
0
0
0
0
0
0
0
0
0
0
0
0
0
0
0
0
0
0
0
0
0
0
0
0
0
0
0
0
0
0
0
0
0
0
0
0
0
0
0
0
0
0
0
0
0
0
0
0
0
0
0
0
0
0
0
0
0
0
0
0
0
0
0
0
0
0
0
0
0
0
0
0
0
0
0
0
0
0
0
0
0
0
0
0
0
0
0
0
0
0
0
0
0
0
0
0
0
0
0
0
0
0
0
0
0
0
0
0
0
0
0
0
0
0
0
0
0
0
0
0
0
0
0
0
0
0
0
0
0
0
0
0
0
0
0
0
0
0
0
0
0
0
0
0
0
0
0
0
0
0
0
0
0
0
0
0
0
0
0
0
0
0
0
0
0
0
0
0
0
0
0
0
0
0
0
0
0
0
0
0
0
0
0
0
0
0
0
0
0
0
0
0
0
0
0
0
0
0
0
0
0
0
0
0
0
0
0
0
0
0
0
0
0
0
0
0
0
0
0
0
0
0
0
0
0
0
0
0
0
0
0
0
0
0
0
0
0
0
0
0
0
0
0
0
0
0
0
0
0
0
0
0
0
0
0
0
0
0
0
0
0
0
0
0
0
0
0
0
0
0
0
0
0
0
0
0
0
0
0
0
0
0
0
0
0
0
0
0
0
0
0
0
0
0
0
0
0
0
0
0
0
0
0
0
0
0
0
0
0
0
0
0
0
0
0
0
0
0
0
0
0
0
0
0
0
0
0
0
0
0
0
0
0
0
0
0
0
0
0
0
0
0
0
0
0
0
0
0
0
0
0
0
0
0
0
0
0
0
0
0
0
0
0
0
0
0
0
0
0
0
0
0
0
0
0
0
0
0
0
0
0
0
0
0
0
0
0
0
0
0
0
0
0
0
0
0
0
0
0
0
0
0
0
0
0
0
0
0
0
0
0
0
0
0
0
0
0
0
0
0
0
0
0
0
0
0
0
0
0
0
0
0
0
0
0
0
0
0
0
0
0
0
0
0
0
0
0
0
0
0
0
0
0
0
0
0
0
0
0
0
0
0
0
0
0
0
0
0
0
0
0
0
0
0
0
0
0
0
0
0
0
0
0
0
0
0
0
0
0
0
0
0
0
0
0
0
0
0
0
0
0
0
0
0
0
0
0
0
0
0
0
0
0
0
0
0
0
0
0
0
0
0
0
0
0
0
0
0
0
0
0
0
0
0
0
0
0
0
0
0
0
0
0
0
0
0
0
0
0
0
0
0
0
0
0
0
0
0
0
0
0
0
0
0
0
0
0
0
0
0
0
0
0
0
0
0
0
0
0
0
0
0
0
0
0
0
0
0
0
0
0
0
0
0
0
0
0
0
0
0
0
0
0
0
0
0
0
0
0
0
0
0
0
0
0
0
0
0
0
0
0
0
0
0
0
0
0
0
0
0
0
0
0
0
0
0
0
0
0
0
0
0
0
0
0
0
0
0
0
0
0
0
0
0
0
0
0
0
0
0
0
0
0
0
0
0
0
0
0
0
0
0
0
0
0
0
0
0
0
0
1
1
1
1
1
1
1
1
1
1
1
1
1
1
1
1
1
1
1
1
1
1
1
1
1
1
1
1
1
1
2
2
2
2
2
2
2
2
2
2
2
2
2
2
2
2
2
2
2
2
2
2
2
2
2
2
2
2
2
2
3
3
3
3
3
3
3
3
3
3
3
3
3
3
3
3
3
3
3
3
3
3
3
3
3
3
3
3
3
3
4
4
4
4
4
4
4
4
4
4
4
4
4
4
4
4
4
4
4
4
4
4
4
4
4
4
4
4
4
4

LOOKUP_TABLE FreeFempp_table 5
1.00000000 0.00000000 0.00000000 1.00000000
1.00000000 1.00000000 0.00000000 1.00000000
1.00000000 0.00000000 1.00000000 1.00000000
0.00000000 1.00000000 0.00000000 1.00000000
0.00000000 1.00000000 1.00000000 1.00000000

POINT_DATA 961
FIELD FieldData 1
Density 1 961 float
-3.89930862e-03 1.58384502e-01 6.49206042e-01 4.79215443e-01 3.85874271e-01 3.69691133e-01 3.60005289e-01 3.46276522e-01 3.35534662e-01 3.32789093e-01 3.40806156e-01 3.48992884e-01 3.50266904e-01 3.47611159e-01 3.44281912e-01 3.39608669e-01 3.21197629e-01 2.56578326e-01 1.60536274e-01 8.35350826e-02 4.54648770e-02 3.26241218e-02 3.23770344e-02 4.48779650e-02 8.60696957e-02 1.69614241e-01 2.67113298e-01 3.24924231e-01 3.46931279e-01 3.54999244e-01 3.52293849e-01 7.44241709e-03 1.49898425e-01 6.92412674e-01 5.81613719e-01 3.69077533e-01 2.83377320e-01 2.23846599e-01 1.70996264e-01 1.34068489e-01 1.13595828e-01 1.05310343e-01 1.01678498e-01 9.76716876e-02 9.31439176e-02 8.90167952e-02 8.55301395e-02 8.08155090e-02 6.72456250e-02 4.49824892e-02 2.59562656e-02 1.70052797e-02 1.46246012e-02 1.42416256e-02 1.53343389e-02 2.19893958e-02 3.89066972e-02 6.30043969e-02 8.05836618e-02 8.70285705e-02 9.53205004e-02 1.20976359e-01 6.79496070e-03 1.44783616e-01 6.97975874e-01 5.89672089e-01 3.46590042e-01 2.04299927e-01 1.12378195e-01 6.66928217e-02 4.36202064e-02 3.25042643e-02 2.72963047e-02 2.41931546e-02 2.18854733e-02 2.03992631e-02 2.03127954e-02 2.35500410e-02 3.16178016e-02 4.26831730e-02 5.46669029e-02 6.62994683e-02 7.38796741e-02 7.74129033e-02 7.92351663e-02 7.93377161e-02 7.87479505e-02 7.91977197e-02 8.11562613e-02 6.68666214e-02 2.90651098e-02 1.02602262e-02 1.26432208e-02 6.91681076e-03 1.49950117e-01 6.96534991e-01 5.51407337e-01 2.68828630e-01 1.28345981e-01 6.39591888e-02 4.34368737e-02 4.01277542e-02 4.70873490e-02 6.17405847e-02 7.91145191e-02 9.64218751e-02 1.09176256e-01 1.20523788e-01 1.40825734e-01 1.77681863e-01 2.28207156e-01 2.81227827e-01 3.32474828e-01 3.66021037e-01 3.78265142e-01 3.84158164e-01 3.88985097e-01 3.93263996e-01 3.98405254e-01 4.02874917e-01 3.75833154e-01 2.23322451e-01 1.12768307e-01 8.68119374e-02 5.32773137e-03 1.47499844e-01 6.94716573e-01 5.19435823e-01 2.05722734e-01 8.44038501e-02 5.11417836e-02 5.38039468e-02 8.23008642e-02 1.37515217e-01 2.13121325e-01 2.90317565e-01 3.63530874e-01 4.11153793e-01 4.25437957e-01 4.26426172e-01 4.25756335e-01 4.24397051e-01 4.23764706e-01 4.30075467e-01 4.43664223e-01 4.55314755e-01 4.64361608e-01 4.72464263e-01 4.79599237e-01 4.86210138e-01 4.91663665e-01 4.90889788e-01 4.57930595e-01 4.25730526e-01 4.14454967e-01 4.24525375e-03 1.45584226e-01 6.93307459e-01 5.10609210e-01 1.80493757e-01 7.85837844e-02 7.23615885e-02 1.09020777e-01 1.86528102e-01 2.93588370e-01 3.86218756e-01 4.47474658e-01 4.84790027e-01 5.04394293e-01 5.11293054e-01 5.10307372e-01 5.06324828e-01 4.99624908e-01 4.91441965e-01 4.85589802e-01 4.85404372e-01 4.88270819e-01 4.92428213e-01 4.98489350e-01 5.03480434e-01 5.08500159e-01 5.14537334e-01 5.18468440e-01 5.16779542e-01 5.14194906e-01 5.11919260e-01 5.21034375e-03 1.44005388e-01 6.92887306e-01 5.17730832e-01 1.78420410e-01 1.02496609e-01 1.30449161e-01 2.08433568e-01 3.16664070e-01 4.18697417e-01 4.80392933e-01 5.07894635e-01 5.17927647e-01 5.22993386e-01 5.25047600e-01 5.28001130e-01 5.29771447e-01 5.30614495e-01 5.30877829e-01 5.30742109e-01 5.30488372e-01 5.29853463e-01 5.28575957e-01 5.29027402e-01 5.30739248e-01 5.31457305e-01 5.34619451e-01 5.38772285e-01 5.41579366e-01 5.38351476e-01 5.24449885e-01 6.15444826e-03 1.41699314e-01 6.94755733e-01 5.66312671e-01 1.93390369e-01 1.46091744e-01 2.14161754e-01 3.09716433e-01 4.10597473e-01 4.84696567e-01 5.16894221e-01 5.26859820e-01 5.30628145e-01 5.33779562e-01 5.37997663e-01 5.43230891e-01 5.47792912e-01 5.51524401e-01 5.54736912e-01 5.57031214e-01 5.57688475e-01 5.56698203e-01 5.54489195e-01 5.52492499e-01 5.51961899e-01 5.51390886e-01 5.51279128e-01 5.50846100e-01 5.50682783e-01 5.46231449e-01 5.31757474e-01 6.75172172e-03 1.37270600e-01 6.89929724e-01 6.53767467e-01 2.96968132e-01 2.01189294e-01 2.79130310e-01 3.82285535e-01 4.63838309e-01 5.12917101e-01 5.30222356e-01 5.34927130e-01 5.38653910e-01 5.43106973e-01 5.48353076e-01 5.53684652e-01 5.57980299e-01 5.60802221e-01 5.61742842e-01 5.60300052e-01 5.57316124e-01 5.55136323e-01 5.54227948e-01 5.53871274e-01 5.54013908e-01 5.54734468e-01 5.55918574e-01 5.51603794e-01 5.44967949e-01 5.39796948e-01 5.29377639e-01 7.30672572e-03 1.31188944e-01 6.71394646e-01 7.28603482e-01 4.88867462e-01 3.21386099e-01 3.37248653e-01 4.22640175e-01 4.87893194e-01 5.22458971e-01 5.34808457e-01 5.38984358e-01 5.42848051e-01 5.47662020e-01 5.53262413e-01 5.58030486e-01 5.60555100e-01 5.59781730e-01 5.52853525e-01 5.37087023e-01 5.18077612e-01 5.08823156e-01 5.12269437e-01 5.20273566e-01 5.26206315e-01 5.29962599e-01 5.33479631e-01 5.30058265e-01 5.24305403e-01 5.19978225e-01 5.19651055e-01 1.38007952e-02 1.27063408e-01 6.37613177e-01 7.58726299e-01 6.26122415e-01 4.73975927e-01 4.22575116e-01 4.55832630e-01 4.98649031e-01 5.24818659e-01 5.36475241e-01 5.40724516e-01 5.43457031e-01 5.46985567e-01 5.52050054e-01 5.56356013e-01 5.57301342e-01 5.53154051e-01 5.37772000e-01 5.00110447e-01 4.48157459e-01 4.13618237e-01 4.12568331e-01 4.35634196e-01 4.59449381e-01 4.74111021e-01 4.82763231e-01 4.82813388e-01 4.83681977e-01 4.89447415e-01 5.02379477e-01 2.31909342e-02 8.81736949e-02 5.46088278e-01 7.60038972e-01 6.93054020e-01 5.78979492e-01 5.08081436e-01 4.97412771e-01 5.13187766e-01 5.29300869e-01 5.38926125e-01 5.42121887e-01 5.41930676e-01 5.42224407e-01 5.45588076e-01 5.50098956e-01 5.51292300e-01 5.47370791e-01 5.33897638e-01 4.93695110e-01 4.14665639e-01 3.36938351e-01 2.96100467e-01 2.98373491e-01 3.34321380e-01 3.77419323e-01 4.13018644e-01 4.31519777e-01 4.45159376e-01 4.60893720e-01 4.80931461e-01 6.14435188e-02 2.49106307e-02 2.17987001e-01 7.01150119e-01 7.27446914e-01 6.40701652e-01 5.72033048e-01 5.41604757e-01 5.36781847e-01 5.40976524e-01 5.45049548e-01 5.45077443e-01 5.40684760e-01 5.35713673e-01 5.35388291e-01 5.40278375e-01 5.44184983e-01 5.43270826e-01 5.37669361e-01 5.19311547e-01 4.63428527e-01 3.61343145e-01 2.64564276e-01 2.06680059e-01 1.92461058e-01 2.24947721e-01 3.10051054e-01 3.82535189e-01 4.21330899e-01 4.46286231e-01 4.68257040e-01 2.70667642e-01 6.44707009e-02 1.38410836e-01 6.44319654e-01 7.49044776e-01 6.78987503e-01 6.15542710e-01 5.79060555e-01 5.63366055e-01 5.58073938e-01 5.55671513e-01 5.51665187e-01 5.43410242e-01 5.32341897e-01 5.25233626e-01 5.27598083e-01 5.35408318e-01 5.39585173e-01 5.39076388e-01 5.35391271e-01 5.19016206e-01 4.65820163e-01 3.61630350e-01 2.45772958e-01 1.56123132e-01 1.18950874e-01 1.58555269e-01 2.94244260e-01 3.98865432e-01 4.44475979e-01 4.67280090e-01 3.32359612e-01 9.62278992e-02 9.09009129e-02 5.38017392e-01 7.36876309e-01 6.98960900e-01 6.43850565e-01 6.06645226e-01 5.86261809e-01 5.75324833e-01 5.68103552e-01 5.61199129e-01 5.51823199e-01 5.37835240e-01 5.23115098e-01 5.17113447e-01 5.23989558e-01 5.34428060e-01 5.39085090e-01 5.39382994e-01 5.36591172e-01 5.23287416e-01 4.84306574e-01 4.04646903e-01 2.72541791e-01 1.37181386e-01 8.24812800e-02 1.45177811e-01 3.27487618e-01 4.40373719e-01 4.71796989e-01 3.65695000e-01 1.23801447e-01 2.76367795e-02 2.25362703e-01 6.64183915e-01 7.08431304e-01 6.63777471e-01 6.26632154e-01 6.03354096e-01 5.88732541e-01 5.78324795e-01 5.69911778e-01 5.61879754e-01 5.51100671e-01 5.34922123e-01 5.19658625e-01 5.16683042e-01 5.26639402e-01 5.37260294e-01 5.41355312e-01 5.40783882e-01 5.35927713e-01 5.23337245e-01 4.98069912e-01 4.45156902e-01 3.23710740e-01 1.25590086e-01 6.73658922e-02 1.74343333e-01 3.92794192e-01 4.68333989e-01 4.34681743e-01 2.58287579e-01 4.65472899e-02 1.31125689e-01 5.86579144e-01 7.08391845e-01 6.76433086e-01 6.40241385e-01 6.14399850e-01 5.96644878e-01 5.84035397e-01 5.75080812e-01 5.68908334e-01 5.63444853e-01 5.54085433e-01 5.38307309e-01 5.24904907e-01 5.24477661e-01 5.33817053e-01 5.41996419e-01 5.44391811e-01 5.41657984e-01 5.33945918e-01 5.21100581e-01 5.03300846e-01 4.63277072e-01 3.11453074e-01 8.58977214e-02 7.40551800e-02 2.63652474e-01 4.28262144e-01 4.78437424e-01 3.75965804e-01 8.76377076e-02 8.31988752e-02 4.65458900e-01 6.76313639e-01 6.77966416e-01 6.47766054e-01 6.19726419e-01 5.98904610e-01 5.85150063e-01 5.77047288e-01 5.73130012e-01 5.71610868e-01 5.69166958e-01 5.60960829e-01 5.46563447e-01 5.35746992e-01 5.35745144e-01 5.41896641e-01 5.46580672e-01 5.46450198e-01 5.41228950e-01 5.31609535e-01 5.19346237e-01 5.03629744e-01 4.32925493e-01 1.69743106e-01 4.50517796e-02 1.40996426e-01 3.69221359e-01 4.89303589e-01 4.36901361e-01 1.56054080e-01 3.76051404e-02 1.83412969e-01 5.77556133e-01 6.70669973e-01 6.53160512e-01 6.21577740e-01 5.96398830e-01 5.82860112e-01 5.77888489e-01 5.77576697e-01 5.79180360e-01 5.80296934e-01 5.77796698e-01 5.68711758e-01 5.55336177e-01 5.46236455e-01 5.45164943e-01 5.47787488e-01 5.48825085e-01 5.45755327e-01 5.38586855e-01 5.28731525e-01 5.17414570e-01 4.90776509e-01 3.27822834e-01 6.85581341e-02 1.06670000e-01 3.42454016e-01 5.04302323e-01 4.91719902e-01 3.58878464e-01 9.12708193e-02 8.16596970e-02 4.01729703e-01 6.33688748e-01 6.55715346e-01 6.24322712e-01 5.92446744e-01 5.80231249e-01 5.80813050e-01 5.85396349e-01 5.89635968e-01 5.91844261e-01 5.90823948e-01 5.84902048e-01 5.73505104e-01 5.60657740e-01 5.52550912e-01 5.50163269e-01 5.49699128e-01 5.47566354e-01 5.42466700e-01 5.35000145e-01 5.26302636e-01 5.12030959e-01 3.99136961e-01 9.10421163e-02 9.77102146e-02 3.31061691e-01 5.38857341e-01 5.39939165e-01 4.87865359e-01 2.44743332e-01 6.61019012e-02 1.39123589e-01 4.56183076e-01 5.90498388e-01 6.20371401e-01 5.95985830e-01 5.86205244e-01 5.91803253e-01 5.99963903e-01 6.04616046e-01 6.05150700e-01 6.02289617e-01 5.96008003e-01 5.85669219e-01 5.72438538e-01 5.60576022e-01 5.53472936e-01 5.50179064e-01 5.47638416e-01 5.43771923e-01 5.38225710e-01 5.31830966e-01 5.22441208e-01 4.25659806e-01 1.01654492e-01 7.17542320e-02 2.69225657e-01 5.96715271e-01 6.16199851e-01 6.06745958e-01 5.15233815e-01 2.19800189e-01 7.04634264e-02 1.12730607e-01 2.42506072e-01 4.73464429e-01 5.78627110e-01 6.09798253e-01 6.19066238e-01 6.24478459e-01 6.24182999e-01 6.19087160e-01 6.11420810e-01 6.02239311e-01 5.91162264e-01 5.78084648e-01 5.65104842e-01 5.55334926e-01 5.49604952e-01 5.46141028e-01 5.42873800e-01 5.38779616e-01 5.33878684e-01 5.26790559e-01 4.64259565e-01 1.48123845e-01 3.47741395e-02 9.33047682e-02 6.46516085e-01 6.83952570e-01 6.91868424e-01 6.86920822e-01 5.94193101e-01 2.61147767e-01 9.56978351e-02 7.58438259e-02 1.68060437e-01 4.18982387e-01 6.19146883e-01 6.60338283e-01 6.56859338e-01 6.44758582e-01 6.30068660e-01 6.15608037e-01 6.02403700e-01 5.89797080e-01 5.76852560e-01 5.64145148e-01 5.53693354e-01 5.46788692e-01 5.42790711e-01 5.40220559e-01 5.37936389e-01 5.35268307e-01 5.31279266e-01 5.12324691e-01 3.45863253e-01 6.35991991e-02 3.15167867e-02 6.57378256e-01 7.05457747e-01 7.19979823e-01 7.31269062e-01 7.48784721e-01 6.84160471e-01 3.98999691e-01 2.29637995e-01 1.81601375e-01 2.67789453e-01 5.85683823e-01 6.92260385e-01 6.83177054e-01 6.56693041e-01 6.31659448e-01 6.11023545e-01 5.94772041e-01 5.81431210e-01 5.69294274e-01 5.57901621e-01 5.48272789e-01 5.41546106e-01 5.37796199e-01 5.36323071e-01 5.36349952e-01 5.36936283e-01 5.35983145e-01 5.26802480e-01 4.14291352e-01 8.89219940e-02 1.94911547e-02 6.27354264e-01 6.78170681e-01 6.90862834e-01 6.96338654e-01 7.12601960e-01 7.49873340e-01 7.53289044e-01 7.22555637e-01 6.64192855e-01 6.26731157e-01 6.90798461e-01 7.18229353e-01 6.86318517e-01 6.48272455e-01 6.17583692e-01 5.94908595e-01 5.78732789e-01 5.66770196e-01 5.56800842e-01 5.47770202e-01 5.40043890e-01 5.34506321e-01 5.31608760e-01 5.31290054e-01 5.33314526e-01 5.36988795e-01 5.39552629e-01 5.34902811e-01 4.32980359e-01 9.10779014e-02 1.42198782e-02 5.78139126e-01 6.19153798e-01 6.24653280e-01 6.11151993e-01 5.95562279e-01 5.97020924e-01 6.40717864e-01 7.06227422e-01 7.35092163e-01 7.31184065e-01 7.22468078e-01 6.92735016e-01 6.51139081e-01 6.14691675e-01 5.87522209e-01 5.68849683e-01 5.56587458e-01 5.48292816e-01 5.41751504e-01 5.35781384e-01 5.30460536e-01 5.26511967e-01 5.24566472e-01 5.24941325e-01 5.27831435e-01 5.33194304e-01 5.39106309e-01 5.40510595e-01 4.45847660e-01 9.29767638e-02 1.31733138e-02 5.37742913e-01 5.62004685e-01 5.63975751e-01 5.39621174e-01 5.01435637e-01 4.63057667e-01 4.56308633e-01 4.98657376e-01 5.64928353e-01 6.11434579e-01 6.25636399e-01 6.12547040e-01 5.88374555e-01 5.65931439e-01 5.49570620e-01 5.39281368e-01 5.33420444e-01 5.29994071e-01 5.27248681e-01 5.24264574e-01 5.21126628e-01 5.18507302e-01 5.17115116e-01 5.17433405e-01 5.19854367e-01 5.24985254e-01 5.33141494e-01 5.43048143e-01 4.57343549e-01 9.50298905e-02 1.26468102e-02 5.14415026e-01 5.25835216e-01 5.29525697e-01 5.11371076e-01 4.76119220e-01 4.31546837e-01 4.00140285e-01 4.05351967e-01 4.46436793e-01 4.92453128e-01 5.19131958e-01 5.25546968e-01 5.22288203e-01 5.17613828e-01 5.14884233e-01 5.14413893e-01 5.15263677e-01 5.16251862e-01 5.16421616e-01 5.15408218e-01 5.13516784e-01 5.11453092e-01 5.09946048e-01 5.09501576e-01 5.10467052e-01 5.13593197e-01 5.21564901e-01 5.41508973e-01 4.70443279e-01 9.71571803e-02 1.16307344e-02 5.03635526e-01 5.08116841e-01 5.14249921e-01 5.08956075e-01 4.89615589e-01 4.56969857e-01 4.21508998e-01 4.01086390e-01 4.03452873e-01 4.19153094e-01 4.37875688e-01 4.55214709e-01 4.70273942e-01 4.83030021e-01 4.93497163e-01 5.01622081e-01 5.07329822e-01 5.10605574e-01 5.11586785e-01 5.10669291e-01 5.08514047e-01 5.05921543e-01 5.03632128e-01 5.02135813e-01 5.01648068e-01 5.02587259e-01 5.08193791e-01 5.34784734e-01 4.84901726e-01 9.99215022e-02 1.00547774e-02 5.02090394e-01 5.04256964e-01 5.11560261e-01 5.16765237e-01 5.15404642e-01 5.01991093e-01 4.72500354e-01 4.31870282e-01 3.93318474e-01 3.70983124e-01 3.76003504e-01 4.02646750e-01 4.35691684e-01 4.64786559e-01 4.86391902e-01 5.00517249e-01 5.08434474e-01 5.11664689e-01 5.11587024e-01 5.09357393e-01 5.05963445e-01 5.02281129e-01 4.99064445e-01 4.96870816e-01 4.96020675e-01 4.96847421e-01 5.01376510e-01 5.22040248e-01 4.91002768e-01 1.06265686e-01 8.15262087e-03 5.03055632e-01 5.05062342e-01 5.11530221e-01 5.18615544e-01 5.24129510e-01 5.23230493e-01 5.07533491e-01 4.71613824e-01 4.23033804e-01 3.82942885e-01 3.73535216e-01 3.96329075e-01 4.31876570e-01 4.63662028e-01 4.86347735e-01 5.00327826e-01 5.07579803e-01 5.10148525e-01 5.09696901e-01 5.07452071e-01 5.04316986e-01 5.01005650e-01 4.98120278e-01 4.96161848e-01 4.95528430e-01 4.96612877e-01 5.00131369e-01 5.07236898e-01 4.71592039e-01 1.22091040e-01 2.94120237e-03 
