# vtk DataFile Version 2.0
results_case1_non_linear/iter2.vtk, Created by Freefem++ 
ASCII
DATASET UNSTRUCTURED_GRID
POINTS 961 float
0 0 0
0.033333333 0 0
0.066666667 0 0
0.1 0 0
0.13333333 0 0
0.16666667 0 0
0.2 0 0
0.23333333 0 0
0.26666667 0 0
0.3 0 0
0.33333333 0 0
0.36666667 0 0
0.4 0 0
0.43333333 0 0
0.46666667 0 0
0.5 0 0
0.53333333 0 0
0.56666667 0 0
0.6 0 0
0.63333333 0 0
0.66666667 0 0
0.7 0 0
0.73333333 0 0
0.76666667 0 0
0.8 0 0
0.83333333 0 0
0.86666667 0 0
0.9 0 0
0.93333333 0 0
0.96666667 0 0
1 0 0
0 0.033333333 0
0.033333333 0.033333333 0
0.066666667 0.033333333 0
0.1 0.033333333 0
0.13333333 0.033333333 0
0.16666667 0.033333333 0
0.2 0.033333333 0
0.23333333 0.033333333 0
0.26666667 0.033333333 0
0.3 0.033333333 0
0.33333333 0.033333333 0
0.36666667 0.033333333 0
0.4 0.033333333 0
0.43333333 0.033333333 0
0.46666667 0.033333333 0
0.5 0.033333333 0
0.53333333 0.033333333 0
0.56666667 0.033333333 0
0.6 0.033333333 0
0.63333333 0.033333333 0
0.66666667 0.033333333 0
0.7 0.033333333 0
0.73333333 0.033333333 0
0.76666667 0.033333333 0
0.8 0.033333333 0
0.83333333 0.033333333 0
0.86666667 0.033333333 0
0.9 0.033333333 0
0.93333333 0.033333333 0
0.96666667 0.033333333 0
1 0.033333333 0
0 0.066666667 0
0.033333333 0.066666667 0
0.066666667 0.066666667 0
0.1 0.066666667 0
0.13333333 0.066666667 0
0.16666667 0.066666667 0
0.2 0.066666667 0
0.23333333 0.066666667 0
0.26666667 0.066666667 0
0.3 0.066666667 0
0.33333333 0.066666667 0
0.36666667 0.066666667 0
0.4 0.066666667 0
0.43333333 0.066666667 0
0.46666667 0.066666667 0
0.5 0.066666667 0
0.53333333 0.066666667 0
0.56666667 0.066666667 0
0.6 0.066666667 0
0.63333333 0.066666667 0
0.66666667 0.066666667 0
0.7 0.066666667 0
0.73333333 0.066666667 0
0.76666667 0.066666667 0
0.8 0.066666667 0
0.83333333 0.066666667 0
0.86666667 0.066666667 0
0.9 0.066666667 0
0.93333333 0.066666667 0
0.96666667 0.066666667 0
1 0.066666667 0
0 0.1 0
0.033333333 0.1 0
0.066666667 0.1 0
0.1 0.1 0
0.13333333 0.1 0
0.16666667 0.1 0
0.2 0.1 0
0.23333333 0.1 0
0.26666667 0.1 0
0.3 0.1 0
0.33333333 0.1 0
0.36666667 0.1 0
0.4 0.1 0
0.43333333 0.1 0
0.46666667 0.1 0
0.5 0.1 0
0.53333333 0.1 0
0.56666667 0.1 0
0.6 0.1 0
0.63333333 0.1 0
0.66666667 0.1 0
0.7 0.1 0
0.73333333 0.1 0
0.76666667 0.1 0
0.8 0.1 0
0.83333333 0.1 0
0.86666667 0.1 0
0.9 0.1 0
0.93333333 0.1 0
0.96666667 0.1 0
1 0.1 0
0 0.13333333 0
0.033333333 0.13333333 0
0.066666667 0.13333333 0
0.1 0.13333333 0
0.13333333 0.13333333 0
0.16666667 0.13333333 0
0.2 0.13333333 0
0.23333333 0.13333333 0
0.26666667 0.13333333 0
0.3 0.13333333 0
0.33333333 0.13333333 0
0.36666667 0.13333333 0
0.4 0.13333333 0
0.43333333 0.13333333 0
0.46666667 0.13333333 0
0.5 0.13333333 0
0.53333333 0.13333333 0
0.56666667 0.13333333 0
0.6 0.13333333 0
0.63333333 0.13333333 0
0.66666667 0.13333333 0
0.7 0.13333333 0
0.73333333 0.13333333 0
0.76666667 0.13333333 0
0.8 0.13333333 0
0.83333333 0.13333333 0
0.86666667 0.13333333 0
0.9 0.13333333 0
0.93333333 0.13333333 0
0.96666667 0.13333333 0
1 0.13333333 0
0 0.16666667 0
0.033333333 0.16666667 0
0.066666667 0.16666667 0
0.1 0.16666667 0
0.13333333 0.16666667 0
0.16666667 0.16666667 0
0.2 0.16666667 0
0.23333333 0.16666667 0
0.26666667 0.16666667 0
0.3 0.16666667 0
0.33333333 0.16666667 0
0.36666667 0.16666667 0
0.4 0.16666667 0
0.43333333 0.16666667 0
0.46666667 0.16666667 0
0.5 0.16666667 0
0.53333333 0.16666667 0
0.56666667 0.16666667 0
0.6 0.16666667 0
0.63333333 0.16666667 0
0.66666667 0.16666667 0
0.7 0.16666667 0
0.73333333 0.16666667 0
0.76666667 0.16666667 0
0.8 0.16666667 0
0.83333333 0.16666667 0
0.86666667 0.16666667 0
0.9 0.16666667 0
0.93333333 0.16666667 0
0.96666667 0.16666667 0
1 0.16666667 0
0 0.2 0
0.033333333 0.2 0
0.066666667 0.2 0
0.1 0.2 0
0.13333333 0.2 0
0.16666667 0.2 0
0.2 0.2 0
0.23333333 0.2 0
0.26666667 0.2 0
0.3 0.2 0
0.33333333 0.2 0
0.36666667 0.2 0
0.4 0.2 0
0.43333333 0.2 0
0.46666667 0.2 0
0.5 0.2 0
0.53333333 0.2 0
0.56666667 0.2 0
0.6 0.2 0
0.63333333 0.2 0
0.66666667 0.2 0
0.7 0.2 0
0.73333333 0.2 0
0.76666667 0.2 0
0.8 0.2 0
0.83333333 0.2 0
0.86666667 0.2 0
0.9 0.2 0
0.93333333 0.2 0
0.96666667 0.2 0
1 0.2 0
0 0.23333333 0
0.033333333 0.23333333 0
0.066666667 0.23333333 0
0.1 0.23333333 0
0.13333333 0.23333333 0
0.16666667 0.23333333 0
0.2 0.23333333 0
0.23333333 0.23333333 0
0.26666667 0.23333333 0
0.3 0.23333333 0
0.33333333 0.23333333 0
0.36666667 0.23333333 0
0.4 0.23333333 0
0.43333333 0.23333333 0
0.46666667 0.23333333 0
0.5 0.23333333 0
0.53333333 0.23333333 0
0.56666667 0.23333333 0
0.6 0.23333333 0
0.63333333 0.23333333 0
0.66666667 0.23333333 0
0.7 0.23333333 0
0.73333333 0.23333333 0
0.76666667 0.23333333 0
0.8 0.23333333 0
0.83333333 0.23333333 0
0.86666667 0.23333333 0
0.9 0.23333333 0
0.93333333 0.23333333 0
0.96666667 0.23333333 0
1 0.23333333 0
0 0.26666667 0
0.033333333 0.26666667 0
0.066666667 0.26666667 0
0.1 0.26666667 0
0.13333333 0.26666667 0
0.16666667 0.26666667 0
0.2 0.26666667 0
0.23333333 0.26666667 0
0.26666667 0.26666667 0
0.3 0.26666667 0
0.33333333 0.26666667 0
0.36666667 0.26666667 0
0.4 0.26666667 0
0.43333333 0.26666667 0
0.46666667 0.26666667 0
0.5 0.26666667 0
0.53333333 0.26666667 0
0.56666667 0.26666667 0
0.6 0.26666667 0
0.63333333 0.26666667 0
0.66666667 0.26666667 0
0.7 0.26666667 0
0.73333333 0.26666667 0
0.76666667 0.26666667 0
0.8 0.26666667 0
0.83333333 0.26666667 0
0.86666667 0.26666667 0
0.9 0.26666667 0
0.93333333 0.26666667 0
0.96666667 0.26666667 0
1 0.26666667 0
0 0.3 0
0.033333333 0.3 0
0.066666667 0.3 0
0.1 0.3 0
0.13333333 0.3 0
0.16666667 0.3 0
0.2 0.3 0
0.23333333 0.3 0
0.26666667 0.3 0
0.3 0.3 0
0.33333333 0.3 0
0.36666667 0.3 0
0.4 0.3 0
0.43333333 0.3 0
0.46666667 0.3 0
0.5 0.3 0
0.53333333 0.3 0
0.56666667 0.3 0
0.6 0.3 0
0.63333333 0.3 0
0.66666667 0.3 0
0.7 0.3 0
0.73333333 0.3 0
0.76666667 0.3 0
0.8 0.3 0
0.83333333 0.3 0
0.86666667 0.3 0
0.9 0.3 0
0.93333333 0.3 0
0.96666667 0.3 0
1 0.3 0
0 0.33333333 0
0.033333333 0.33333333 0
0.066666667 0.33333333 0
0.1 0.33333333 0
0.13333333 0.33333333 0
0.16666667 0.33333333 0
0.2 0.33333333 0
0.23333333 0.33333333 0
0.26666667 0.33333333 0
0.3 0.33333333 0
0.33333333 0.33333333 0
0.36666667 0.33333333 0
0.4 0.33333333 0
0.43333333 0.33333333 0
0.46666667 0.33333333 0
0.5 0.33333333 0
0.53333333 0.33333333 0
0.56666667 0.33333333 0
0.6 0.33333333 0
0.63333333 0.33333333 0
0.66666667 0.33333333 0
0.7 0.33333333 0
0.73333333 0.33333333 0
0.76666667 0.33333333 0
0.8 0.33333333 0
0.83333333 0.33333333 0
0.86666667 0.33333333 0
0.9 0.33333333 0
0.93333333 0.33333333 0
0.96666667 0.33333333 0
1 0.33333333 0
0 0.36666667 0
0.033333333 0.36666667 0
0.066666667 0.36666667 0
0.1 0.36666667 0
0.13333333 0.36666667 0
0.16666667 0.36666667 0
0.2 0.36666667 0
0.23333333 0.36666667 0
0.26666667 0.36666667 0
0.3 0.36666667 0
0.33333333 0.36666667 0
0.36666667 0.36666667 0
0.4 0.36666667 0
0.43333333 0.36666667 0
0.46666667 0.36666667 0
0.5 0.36666667 0
0.53333333 0.36666667 0
0.56666667 0.36666667 0
0.6 0.36666667 0
0.63333333 0.36666667 0
0.66666667 0.36666667 0
0.7 0.36666667 0
0.73333333 0.36666667 0
0.76666667 0.36666667 0
0.8 0.36666667 0
0.83333333 0.36666667 0
0.86666667 0.36666667 0
0.9 0.36666667 0
0.93333333 0.36666667 0
0.96666667 0.36666667 0
1 0.36666667 0
0 0.4 0
0.033333333 0.4 0
0.066666667 0.4 0
0.1 0.4 0
0.13333333 0.4 0
0.16666667 0.4 0
0.2 0.4 0
0.23333333 0.4 0
0.26666667 0.4 0
0.3 0.4 0
0.33333333 0.4 0
0.36666667 0.4 0
0.4 0.4 0
0.43333333 0.4 0
0.46666667 0.4 0
0.5 0.4 0
0.53333333 0.4 0
0.56666667 0.4 0
0.6 0.4 0
0.63333333 0.4 0
0.66666667 0.4 0
0.7 0.4 0
0.73333333 0.4 0
0.76666667 0.4 0
0.8 0.4 0
0.83333333 0.4 0
0.86666667 0.4 0
0.9 0.4 0
0.93333333 0.4 0
0.96666667 0.4 0
1 0.4 0
0 0.43333333 0
0.033333333 0.43333333 0
0.066666667 0.43333333 0
0.1 0.43333333 0
0.13333333 0.43333333 0
0.16666667 0.43333333 0
0.2 0.43333333 0
0.23333333 0.43333333 0
0.26666667 0.43333333 0
0.3 0.43333333 0
0.33333333 0.43333333 0
0.36666667 0.43333333 0
0.4 0.43333333 0
0.43333333 0.43333333 0
0.46666667 0.43333333 0
0.5 0.43333333 0
0.53333333 0.43333333 0
0.56666667 0.43333333 0
0.6 0.43333333 0
0.63333333 0.43333333 0
0.66666667 0.43333333 0
0.7 0.43333333 0
0.73333333 0.43333333 0
0.76666667 0.43333333 0
0.8 0.43333333 0
0.83333333 0.43333333 0
0.86666667 0.43333333 0
0.9 0.43333333 0
0.93333333 0.43333333 0
0.96666667 0.43333333 0
1 0.43333333 0
0 0.46666667 0
0.033333333 0.46666667 0
0.066666667 0.46666667 0
0.1 0.46666667 0
0.13333333 0.46666667 0
0.16666667 0.46666667 0
0.2 0.46666667 0
0.23333333 0.46666667 0
0.26666667 0.46666667 0
0.3 0.46666667 0
0.33333333 0.46666667 0
0.36666667 0.46666667 0
0.4 0.46666667 0
0.43333333 0.46666667 0
0.46666667 0.46666667 0
0.5 0.46666667 0
0.53333333 0.46666667 0
0.56666667 0.46666667 0
0.6 0.46666667 0
0.63333333 0.46666667 0
0.66666667 0.46666667 0
0.7 0.46666667 0
0.73333333 0.46666667 0
0.76666667 0.46666667 0
0.8 0.46666667 0
0.83333333 0.46666667 0
0.86666667 0.46666667 0
0.9 0.46666667 0
0.93333333 0.46666667 0
0.96666667 0.46666667 0
1 0.46666667 0
0 0.5 0
0.033333333 0.5 0
0.066666667 0.5 0
0.1 0.5 0
0.13333333 0.5 0
0.16666667 0.5 0
0.2 0.5 0
0.23333333 0.5 0
0.26666667 0.5 0
0.3 0.5 0
0.33333333 0.5 0
0.36666667 0.5 0
0.4 0.5 0
0.43333333 0.5 0
0.46666667 0.5 0
0.5 0.5 0
0.53333333 0.5 0
0.56666667 0.5 0
0.6 0.5 0
0.63333333 0.5 0
0.66666667 0.5 0
0.7 0.5 0
0.73333333 0.5 0
0.76666667 0.5 0
0.8 0.5 0
0.83333333 0.5 0
0.86666667 0.5 0
0.9 0.5 0
0.93333333 0.5 0
0.96666667 0.5 0
1 0.5 0
0 0.53333333 0
0.033333333 0.53333333 0
0.066666667 0.53333333 0
0.1 0.53333333 0
0.13333333 0.53333333 0
0.16666667 0.53333333 0
0.2 0.53333333 0
0.23333333 0.53333333 0
0.26666667 0.53333333 0
0.3 0.53333333 0
0.33333333 0.53333333 0
0.36666667 0.53333333 0
0.4 0.53333333 0
0.43333333 0.53333333 0
0.46666667 0.53333333 0
0.5 0.53333333 0
0.53333333 0.53333333 0
0.56666667 0.53333333 0
0.6 0.53333333 0
0.63333333 0.53333333 0
0.66666667 0.53333333 0
0.7 0.53333333 0
0.73333333 0.53333333 0
0.76666667 0.53333333 0
[...]
CELL_DATA 1920
Scalars  Label int 1
LOOKUP_TABLE FreeFempp_table
0
0
0
0
0
0
0
0
0
0
0
0
0
0
0
0
0
0
0
0
0
0
0
0
0
0
0
0
0
0
0
0
0
0
0
0
0
0
0
0
0
0
0
0
0
0
0
0
0
0
0
0
0
0
0
0
0
0
0
0
0
0
0
0
0
0
0
0
0
0
0
0
0
0
0
0
0
0
0
0
0
0
0
0
0
0
0
0
0
0
0
0
0
0
0
0
0
0
0
0
0
0
0
0
0
0
0
0
0
0
0
0
0
0
0
0
0
0
0
0
0
0
0
0
0
0
0
0
0
0
0
0
0
0
0
0
0
0
0
0
0
0
0
0
0
0
0
0
0
0
0
0
0
0
0
0
0
0
0
0
0
0
0
0
0
0
0
0
0
0
0
0
0
0
0
0
0
0
0
0
0
0
0
0
0
0
0
0
0
0
0
0
0
0
0
0
0
0
0
0
0
0
0
0
0
0
0
0
0
0
0
0
0
0
0
0
0
0
0
0
0
0
0
0
0
0
0
0
0
0
0
0
0
0
0
0
0
0
0
0
0
0
0
0
0
0
0
0
0
0
0
0
0
0
0
0
0
0
0
0
0
0
0
0
0
0
0
0
0
0
0
0
0
0
0
0
0
0
0
0
0
0
0
0
0
0
0
0
0
0
0
0
0
0
0
0
0
0
0
0
0
0
0
0
0
0
0
0
0
0
0
0
0
0
0
0
0
0
0
0
0
0
0
0
0
0
0
0
0
0
0
0
0
0
0
0
0
0
0
0
0
0
0
0
0
0
0
0
0
0
0
0
0
0
0
0
0
0
0
0
0
0
0
0
0
0
0
0
0
0
0
0
0
0
0
0
0
0
0
0
0
0
0
0
0
0
0
0
0
0
0
0
0
0
0
0
0
0
0
0
0
0
0
0
0
0
0
0
0
0
0
0
0
0
0
0
0
0
0
0
0
0
0
0
0
0
0
0
0
0
0
0
0
0
0
0
0
0
0
0
0
0
0
0
0
0
0
0
0
0
0
0
0
0
0
0
0
0
0
0
0
0
0
0
0
0
0
0
0
0
0
0
0
0
0
0
0
0
0
0
0
0
0
0
0
0
0
0
0
0
0
0
0
0
0
0
0
0
0
0
0
0
0
0
0
0
0
0
0
0
0
0
0
0
0
0
0
0
0
0
0
0
0
0
0
0
0
0
0
0
0
0
0
0
0
0
0
0
0
0
0
0
0
0
0
0
0
0
0
0
0
0
0
0
0
0
0
0
0
0
0
0
0
0
0
0
0
0
0
0
0
0
0
0
0
0
0
0
0
0
0
0
0
0
0
0
0
0
0
0
0
0
0
0
0
0
0
0
0
0
0
0
0
0
0
0
0
0
0
0
0
0
0
0
0
0
0
0
0
0
0
0
0
0
0
0
0
0
0
0
0
0
0
0
0
0
0
0
0
0
0
0
0
0
0
0
0
0
0
0
0
0
0
0
0
0
0
0
0
0
0
0
0
0
0
0
0
0
0
0
0
0
0
0
0
0
0
0
0
0
0
0
0
0
0
0
0
0
0
0
0
0
0
0
0
0
0
0
0
0
0
0
0
0
0
0
0
0
0
0
0
0
0
0
0
0
0
0
0
0
0
0
0
0
0
0
0
0
0
0
0
0
0
0
0
0
0
0
0
0
0
0
0
0
0
0
0
0
0
0
0
0
0
0
0
0
0
0
0
0
0
0
0
0
0
0
0
0
0
0
0
0
0
0
0
0
0
0
0
0
0
0
0
0
0
0
0
0
0
0
0
0
0
0
0
0
0
0
0
0
0
0
0
0
0
0
0
0
0
0
0
0
0
0
0
0
0
0
0
0
0
0
0
0
0
0
0
0
0
0
0
0
0
0
0
0
0
0
0
0
0
0
0
0
0
0
0
0
0
0
0
0
0
0
0
0
0
0
0
0
0
0
0
0
0
0
0
0
0
0
0
0
0
0
0
0
0
0
0
0
0
0
0
0
0
0
0
0
0
0
0
0
0
0
0
0
0
0
0
0
0
0
0
0
0
0
0
0
0
0
0
0
0
0
0
0
0
0
0
0
0
0
0
0
0
0
0
0
0
0
0
0
0
0
0
0
0
0
0
0
0
0
0
0
0
0
0
0
0
0
0
0
0
0
0
0
0
0
0
0
0
0
0
0
0
0
0
0
0
0
0
0
0
0
0
0
0
0
0
0
0
0
0
0
0
0
0
0
0
0
0
0
0
0
0
0
0
0
0
0
0
0
0
0
0
0
0
0
0
0
0
0
0
0
0
0
0
0
0
0
0
0
0
0
0
0
0
0
0
0
0
0
0
0
0
0
0
0
0
0
0
0
0
0
0
0
0
0
0
0
0
0
0
0
0
0
0
0
0
0
0
0
0
0
0
0
0
0
0
0
0
0
0
0
0
0
0
0
0
0
0
0
0
0
0
0
0
0
0
0
0
0
0
0
0
0
0
0
0
0
0
0
0
0
0
0
0
0
0
0
0
0
0
0
0
0
0
0
0
0
0
0
0
0
0
0
0
0
0
0
0
0
0
0
0
0
0
0
0
0
0
0
0
0
0
0
0
0
0
0
0
0
0
0
0
0
0
0
0
0
0
0
0
0
0
0
0
0
0
0
0
0
0
0
0
0
0
0
0
0
0
0
0
0
0
0
0
0
0
0
0
0
0
0
0
0
0
0
0
0
0
0
0
0
0
0
0
0
0
0
0
0
0
0
0
0
0
0
0
0
0
0
0
0
0
0
0
0
0
0
0
0
0
0
0
0
0
0
0
0
0
0
0
0
0
0
0
0
0
0
0
0
0
0
0
0
0
0
0
0
0
0
0
0
0
0
0
0
0
0
0
0
0
0
0
0
0
0
0
0
0
0
0
0
0
0
0
0
0
0
0
0
0
0
0
0
0
0
0
0
0
0
0
0
0
0
0
0
0
0
0
0
0
0
0
0
0
0
0
0
0
0
0
0
0
0
0
0
0
0
0
0
0
0
0
0
0
0
0
0
0
0
0
0
0
0
0
0
0
0
0
0
0
0
0
0
0
0
0
0
0
0
0
0
0
0
0
0
0
0
0
0
0
0
0
0
0
0
0
0
0
0
0
0
0
0
0
0
0
0
0
0
0
0
0
0
0
0
0
0
0
0
0
0
0
0
0
0
0
0
0
0
0
0
0
0
0
0
0
0
0
0
0
0
0
0
0
0
0
0
0
0
0
0
0
0
0
0
0
0
0
0
0
0
0
0
0
0
0
0
0
0
0
0
0
0
0
0
0
0
0
0
0
0
0
0
0
0
0
0
0
0
0
0
0
0
0
0
0
0
0
0
0
0
0
0
0
0
0
0
0
0
0
0
0
0
0
0
0
0
0
0
0
0
0
0
0
0
0
0
0
0
0
0
0
0
0
0
0
0
0
0
0
0
0
0
0
0
0
0
0
0
0
0
0
0
0
0
0
0
0
0
0
0
0
0
0
0
0
0
0
0
0
0
0
0
0
0
0
0
0
0
0
0
0
0
0
0
0
0
0
0
0
0
0
0
0
0
0
0
0
0
0
0
0
0
0
0
0
0
0
0
0
0
0
0
0
0
0
0
0
0
0
0
0
0
0
0
0
0
0
0
0
0
0
0
0
0
0
0
0
0
0
0
0
0
0
0
0
0
0
0
0
0
0
0
0
0
0
0
0
0
0
0
0
0
0
0
0
0
0
0
0
0
0
0
0
0
0
0
0
0
0
0
0
0
0
0
0
0
0
0
0
0
0
0
0
0
0
0
0
0
0
0
0
0
0
0
0
0
0
0
0
0
0
0
0
0
0
0
0
0
0
0
0
0
0
0
0
0
0
0
0
0
0
0
0
0
0
0
0
0
0
0
0
0
0
0
0
0
0
0
0
0
0
0
0
0
0
0
0
0
0
0
0
0
0
0
0
0
0
0
0
0
0
0
0
0
0
0
0
0
0
0
0
0
0
0
0
0
0
0
0
0
0
0
0
0
0
0
0
0
0
0
0
0
0
0
0
0
0
0
0
0
0
0
0
0
0
0
1
1
1
1
1
1
1
1
1
1
1
1
1
1
1
1
1
1
1
1
1
1
1
1
1
1
1
1
1
1
2
2
2
2
2
2
2
2
2
2
2
2
2
2
2
2
2
2
2
2
2
2
2
2
2
2
2
2
2
2
3
3
3
3
3
3
3
3
3
3
3
3
3
3
3
3
3
3
3
3
3
3
3
3
3
3
3
3
3
3
4
4
4
4
4
4
4
4
4
4
4
4
4
4
4
4
4
4
4
4
4
4
4
4
4
4
4
4
4
4

LOOKUP_TABLE FreeFempp_table 5
1.00000000 0.00000000 0.00000000 1.00000000
1.00000000 1.00000000 0.00000000 1.00000000
1.00000000 0.00000000 1.00000000 1.00000000
0.00000000 1.00000000 0.00000000 1.00000000
0.00000000 1.00000000 1.00000000 1.00000000

POINT_DATA 961
FIELD FieldData 1
Density 1 961 float
7.25216269e-02 5.78905009e-02 4.76492755e-02 3.72948609e-02 3.02386731e-02 2.73686778e-02 2.93059479e-02 3.51237468e-02 4.14711796e-02 4.53119315e-02 4.70066369e-02 4.86310497e-02 5.05510718e-02 5.14246784e-02 5.34080453e-02 6.36068732e-02 8.55243430e-02 1.15262598e-01 1.45356312e-01 1.69012770e-01 1.82208970e-01 1.83908969e-01 1.75451696e-01 1.60308555e-01 1.42726183e-01 1.26266733e-01 1.12020329e-01 9.52105001e-02 7.03376457e-02 7.04071000e-02 1.00863867e-01 6.86357915e-02 4.75253575e-02 4.36901115e-02 3.66321504e-02 3.06839943e-02 2.74270978e-02 2.75937021e-02 2.98027042e-02 2.96620764e-02 2.50575468e-02 2.22237315e-02 2.57561468e-02 2.81545538e-02 2.06057411e-02 3.90901323e-03 1.10785896e-03 3.53818983e-02 1.02563813e-01 1.80253714e-01 2.45771006e-01 2.84976035e-01 2.93503016e-01 2.74672627e-01 2.37143114e-01 1.92780897e-01 1.52505025e-01 1.21929057e-01 9.58163366e-02 6.20509163e-02 4.86718714e-02 7.33457804e-02 8.68994147e-02 6.30600601e-02 7.03096613e-02 8.55015665e-02 1.01192504e-01 1.19223088e-01 1.37436137e-01 1.53524652e-01 1.65748760e-01 1.73776090e-01 1.78956211e-01 1.83266670e-01 1.88108161e-01 1.93001479e-01 1.94974303e-01 1.93076998e-01 1.92603886e-01 1.99487224e-01 2.12844029e-01 2.26194367e-01 2.33154133e-01 2.30680138e-01 2.19254598e-01 2.01651379e-01 1.81315660e-01 1.60899192e-01 1.41183808e-01 1.19879022e-01 7.87224397e-02 4.65481207e-02 6.29335120e-02 1.11587897e-01 9.13584456e-02 1.03057168e-01 1.25923187e-01 1.48883373e-01 1.71872780e-01 1.93763822e-01 2.14121565e-01 2.32614070e-01 2.48993620e-01 2.63121217e-01 2.74936259e-01 2.84418553e-01 2.91480213e-01 2.95847237e-01 2.97267377e-01 2.96033531e-01 2.93241382e-01 2.90071696e-01 2.86452860e-01 2.80663520e-01 2.70482510e-01 2.54783601e-01 2.34243155e-01 2.10819140e-01 1.86603308e-01 1.62857667e-01 1.38894677e-01 1.00942798e-01 4.55075987e-02 5.48860095e-02 1.35617107e-01 1.20329961e-01 1.24525696e-01 1.52952746e-01 1.81847021e-01 2.11729094e-01 2.41096005e-01 2.69035459e-01 2.94900954e-01 3.18197131e-01 3.38538736e-01 3.55623901e-01 3.69215220e-01 3.79116654e-01 3.85163903e-01 3.87272090e-01 3.85519415e-01 3.80179942e-01 3.71594250e-01 3.59901547e-01 3.44889373e-01 3.26170295e-01 3.03576082e-01 2.77456671e-01 2.48689964e-01 2.18461126e-01 1.87954366e-01 1.57518029e-01 1.16497524e-01 4.56705019e-02 5.05031906e-02 1.60717145e-01 1.53528363e-01 1.42913997e-01 1.76806211e-01 2.12832943e-01 2.50568181e-01 2.87857056e-01 3.23390156e-01 3.56274366e-01 3.85853857e-01 4.11628574e-01 4.33212310e-01 4.50309545e-01 4.62699622e-01 4.70230579e-01 4.72826868e-01 4.70502168e-01 4.63357806e-01 4.51547503e-01 4.35216367e-01 4.14466649e-01 3.89399618e-01 3.60224158e-01 3.27369690e-01 2.91546345e-01 2.53744483e-01 2.15165123e-01 1.76664591e-01 1.29969478e-01 4.67513874e-02 4.89878692e-02 1.87588319e-01 1.97878107e-01 1.61564946e-01 1.99924394e-01 2.42968515e-01 2.88414717e-01 3.33265454e-01 3.75887185e-01 4.15208489e-01 4.50462103e-01 4.81076181e-01 5.06621957e-01 5.26784956e-01 5.41344821e-01 5.50161123e-01 5.53163230e-01 5.50343931e-01 5.41753411e-01 5.27490079e-01 5.07691205e-01 4.82534230e-01 4.52259451e-01 4.17214751e-01 3.77909333e-01 3.35062802e-01 2.89646208e-01 2.42891967e-01 1.95948288e-01 1.42548040e-01 4.88560945e-02 4.92345914e-02 2.13663235e-01 2.54067302e-01 1.80687219e-01 2.22440898e-01 2.71719396e-01 3.24352205e-01 3.76180112e-01 4.25251454e-01 4.70351189e-01 5.10627210e-01 5.45457542e-01 5.74393928e-01 5.97130418e-01 6.13477707e-01 6.23335123e-01 6.26662135e-01 6.23454690e-01 6.13734722e-01 5.97554326e-01 5.75012326e-01 5.46278536e-01 5.11622667e-01 4.71444488e-01 4.26305473e-01 3.76962930e-01 3.24411124e-01 2.69918829e-01 2.14828372e-01 1.54502049e-01 5.16511723e-02 5.05920984e-02 2.33591169e-01 3.12353700e-01 1.98476255e-01 2.43559390e-01 2.98303515e-01 3.57503504e-01 4.15646613e-01 4.70471561e-01 5.20640969e-01 5.65230489e-01 6.03578687e-01 6.35235429e-01 6.59936786e-01 6.77574277e-01 6.88144684e-01 6.91686332e-01 6.88222766e-01 6.77739263e-01 6.60203099e-01 6.35616183e-01 6.04076028e-01 5.65823555e-01 5.21271884e-01 4.71021622e-01 4.15876925e-01 3.56875032e-01 2.95334011e-01 2.32753143e-01 1.65894777e-01 5.44939265e-02 5.26146218e-02 2.40505084e-01 3.55260551e-01 2.11946890e-01 2.61760265e-01 3.21930051e-01 3.87153566e-01 4.50923741e-01 5.10768294e-01 5.65255344e-01 6.13391042e-01 6.54471755e-01 6.88055992e-01 7.13962495e-01 7.32239723e-01 7.43078947e-01 7.46680737e-01 7.43130326e-01 7.32348025e-01 7.14136899e-01 6.88304901e-01 6.54795587e-01 6.13773286e-01 5.65647840e-01 5.11064470e-01 4.50890422e-01 3.86226833e-01 3.18458259e-01 2.49228403e-01 1.76519841e-01 5.66767938e-02 5.48774637e-02 2.28660747e-01 3.65631580e-01 2.19019964e-01 2.75594980e-01 3.41997892e-01 4.12779123e-01 4.81460720e-01 5.45557678e-01 6.03579640e-01 6.54454231e-01 6.97416186e-01 7.32031167e-01 7.58247793e-01 7.76378512e-01 7.86943376e-01 7.90413320e-01 7.86977351e-01 7.76451051e-01 7.58366704e-01 7.32203782e-01 6.97643995e-01 6.54724777e-01 6.03853941e-01 5.45745432e-01 4.81358171e-01 4.11881000e-01 3.38781923e-01 2.63841033e-01 1.86029777e-01 5.83761521e-02 5.72189316e-02 1.97490290e-01 3.34639043e-01 2.19921634e-01 2.84913421e-01 3.58286798e-01 4.34054554e-01 5.06868482e-01 5.74421942e-01 6.35191083e-01 6.88003957e-01 7.32000172e-01 7.66745150e-01 7.92375803e-01 8.09593797e-01 8.19376767e-01 8.22549462e-01 8.19399178e-01 8.09642911e-01 7.92459428e-01 7.66871572e-01 7.32172906e-01 6.88215315e-01 6.35412395e-01 5.74584365e-01 5.06816268e-01 4.33407903e-01 3.55921745e-01 2.76263177e-01 1.94137767e-01 6.09872602e-02 6.01154938e-02 1.55109018e-01 2.67830908e-01 2.16997519e-01 2.91058421e-01 3.70917290e-01 4.50804710e-01 5.26882529e-01 5.97081482e-01 6.59843326e-01 7.13872731e-01 7.58184254e-01 7.92345285e-01 8.16753685e-01 8.32696915e-01 8.41541052e-01 8.44349563e-01 8.41556191e-01 8.32731009e-01 8.16814184e-01 7.92441964e-01 7.58323550e-01 7.14052439e-01 6.60045743e-01 5.97260773e-01 5.26936531e-01 4.50497001e-01 3.69599640e-01 2.86256254e-01 2.00733945e-01 6.78840950e-02 6.49589077e-02 1.15198568e-01 1.86805934e-01 2.13376999e-01 2.95494735e-01 3.80057216e-01 4.62917328e-01 5.41321754e-01 6.13364160e-01 6.77437425e-01 7.32115626e-01 7.76285589e-01 8.09537053e-01 8.32671702e-01 8.47295642e-01 8.55081558e-01 8.57583225e-01 8.55092049e-01 8.47320259e-01 8.32717657e-01 8.09614062e-01 7.76403487e-01 7.32278228e-01 6.77638352e-01 6.13580048e-01 5.41498840e-01 4.62939143e-01 3.79643738e-01 2.93712318e-01 2.06064299e-01 8.65786597e-02 7.42293075e-02 8.69019106e-02 1.19385809e-01 2.11041093e-01 2.98544317e-01 3.85683417e-01 4.70281392e-01 5.50059199e-01 6.23174548e-01 6.87972367e-01 7.42924511e-01 7.86823869e-01 8.19296837e-01 8.41494203e-01 8.55061114e-01 8.63216460e-01 8.63741398e-01 8.63224328e-01 8.55080247e-01 8.41531157e-01 8.19361269e-01 7.86928415e-01 7.43079424e-01 6.88183129e-01 6.23440325e-01 5.50370038e-01 4.70616221e-01 3.86007369e-01 2.98792988e-01 2.11109549e-01 1.29824072e-01 9.18616802e-02 7.04511851e-02 7.98078850e-02 2.09740862e-01 2.99629331e-01 3.87620419e-01 4.72791970e-01 5.53013206e-01 6.26466990e-01 6.91483140e-01 7.46496797e-01 7.90266395e-01 8.22444141e-01 8.44280779e-01 8.57543290e-01 8.63722801e-01 8.63721550e-01 8.63729954e-01 8.57559860e-01 8.44312787e-01 8.22502017e-01 7.90364504e-01 7.46652186e-01 6.91714466e-01 6.26797974e-01 5.53482234e-01 4.73481357e-01 3.88757795e-01 3.02064002e-01 2.17389539e-01 2.07545057e-01 1.22925080e-01 6.21271916e-02 6.29261136e-02 2.08035916e-01 2.98174232e-01 3.85717392e-01 4.70389843e-01 5.50150394e-01 6.23226106e-01 6.87986970e-01 7.42912889e-01 7.86797523e-01 8.19264889e-01 8.41461003e-01 8.55028749e-01 8.63186002e-01 8.63710284e-01 8.63192797e-01 8.55044663e-01 8.41491342e-01 8.19320619e-01 7.86895931e-01 7.43077159e-01 6.88249767e-01 6.23638868e-01 5.50808847e-01 4.71512675e-01 3.87937129e-01 3.04032832e-01 2.25371391e-01 3.07072878e-01 1.69089422e-01 5.85027486e-02 5.82345910e-02 2.04848453e-01 2.93971986e-01 3.79944175e-01 4.63088393e-01 5.41490853e-01 6.13461494e-01 6.77462637e-01 7.32088864e-01 7.76229382e-01 8.09469283e-01 8.32601726e-01 8.47227275e-01 8.55015516e-01 8.57517540e-01 8.55022430e-01 8.47243547e-01 8.32633436e-01 8.09527993e-01 7.76334345e-01 7.32269287e-01 6.77764535e-01 6.13963664e-01 5.42347789e-01 4.64664876e-01 3.83344710e-01 3.03937405e-01 2.33021021e-01 3.92072618e-01 2.20432580e-01 5.68513907e-02 5.80355115e-02 1.99804381e-01 2.87075371e-01 3.70387614e-01 4.50978130e-01 5.27113318e-01 5.97216725e-01 6.59873009e-01 7.13825583e-01 7.58093178e-01 7.92236209e-01 8.16642284e-01 8.32587540e-01 8.41434181e-01 8.44241500e-01 8.41442108e-01 8.32606435e-01 8.16678584e-01 7.92302191e-01 7.58209407e-01 7.14025855e-01 6.60213709e-01 5.97797155e-01 5.28128862e-01 4.52885926e-01 3.74567449e-01 2.99555957e-01 2.36331701e-01 4.26157981e-01 2.56974876e-01 5.41643873e-02 5.81916869e-02 1.93064243e-01 2.77679235e-01 3.57227415e-01 4.34223592e-01 5.07161856e-01 5.74591637e-01 6.35219872e-01 6.87931836e-01 7.31870949e-01 7.66591847e-01 7.92218149e-01 8.09439898e-01 8.19226265e-01 8.22395325e-01 8.19236934e-01 8.09464216e-01 7.92262673e-01 7.66668558e-01 7.32000887e-01 6.88150764e-01 6.35588825e-01 5.75217664e-01 5.08247614e-01 4.36215997e-01 3.61397028e-01 2.89396048e-01 2.31120259e-01 3.92598271e-01 2.63051152e-01 5.02469353e-02 5.39901964e-02 1.85233220e-01 2.66077518e-01 3.40721130e-01 4.13061172e-01 4.81854796e-01 5.45769095e-01 6.03606522e-01 6.54356599e-01 6.97250903e-01 7.31837690e-01 7.58048415e-01 7.76181996e-01 7.86749005e-01 7.90214241e-01 7.86764026e-01 7.76214600e-01 7.58104324e-01 7.31927752e-01 6.97394550e-01 6.54588282e-01 6.03985190e-01 5.46395004e-01 4.82903361e-01 4.14876550e-01 3.44172835e-01 2.74597824e-01 2.16294125e-01 3.03022742e-01 2.37288460e-01 4.63098697e-02 4.90621254e-02 1.76797211e-01 2.52627075e-01 3.21196616e-01 3.87800694e-01 4.51496959e-01 5.11041939e-01 5.65286875e-01 6.13275468e-01 6.54282391e-01 6.87838018e-01 7.13738859e-01 7.32018232e-01 7.42857218e-01 7.46449828e-01 7.42877781e-01 7.32061148e-01 7.13808358e-01 6.87942564e-01 6.54438019e-01 6.13511622e-01 5.65654218e-01 5.11622488e-01 4.52416897e-01 3.89259309e-01 3.23610753e-01 2.57644117e-01 1.96705118e-01 1.99352011e-01 1.92229941e-01 4.22666408e-02 4.46142890e-02 1.68170139e-01 2.37784132e-01 2.99064994e-01 3.58836144e-01 4.16498214e-01 4.70839143e-01 5.20696759e-01 5.65120339e-01 6.03394032e-01 6.35025084e-01 6.59722269e-01 6.77360415e-01 6.87926233e-01 6.91450894e-01 6.87952697e-01 6.77414298e-01 6.59805834e-01 6.35143697e-01 6.03558660e-01 5.65352499e-01 5.21034181e-01 4.71339077e-01 4.17228729e-01 3.59846711e-01 3.00391197e-01 2.40015626e-01 1.79017261e-01 1.28612638e-01 1.46449938e-01 3.81089970e-02 4.05150764e-02 1.60003349e-01 2.22157940e-01 2.74836034e-01 3.26666594e-01 3.77405882e-01 4.25760806e-01 4.70478773e-01 5.10577440e-01 5.45336664e-01 5.74250102e-01 5.96980631e-01 6.13322675e-01 6.23166144e-01 6.26462102e-01 6.23197675e-01 6.13385975e-01 5.97076178e-01 5.74379802e-01 5.45505702e-01 5.10797501e-01 4.70771939e-01 4.26156461e-01 3.77911359e-01 3.27176273e-01 2.75019526e-01 2.21969977e-01 1.65156022e-01 9.49980170e-02 1.11070640e-01 3.39184962e-02 3.67627107e-02 1.53324991e-01 2.06572726e-01 2.49136224e-01 2.91943908e-01 3.34971994e-01 3.76639932e-01 4.15522844e-01 4.50592846e-01 4.81135279e-01 5.06651819e-01 5.26796162e-01 5.41334271e-01 5.50117850e-01 5.53065777e-01 5.50152302e-01 5.41402817e-01 5.26897967e-01 5.06785512e-01 4.81299967e-01 4.50789869e-01 4.15757328e-01 3.76913130e-01 3.35231215e-01 2.91907072e-01 2.47971654e-01 2.03438476e-01 1.53584316e-01 8.11703131e-02 8.67141709e-02 2.95483544e-02 3.32440510e-02 1.49552718e-01 1.92028850e-01 2.22705543e-01 2.55580157e-01 2.90292650e-01 3.24661732e-01 3.57050687e-01 3.86421353e-01 4.12100911e-01 4.33628231e-01 4.50675547e-01 4.63010877e-01 4.70478594e-01 4.72988963e-01 4.70512539e-01 4.63077903e-01 4.50773418e-01 4.33752358e-01 4.12243843e-01 3.86572719e-01 3.57197940e-01 3.24781448e-01 2.90287524e-01 2.54997522e-01 2.19952106e-01 1.84584424e-01 1.43187761e-01 7.06308261e-02 7.01448694e-02 2.43775919e-02 2.96913423e-02 1.49800301e-01 1.78992778e-01 1.96285322e-01 2.18973562e-01 2.45076314e-01 2.71581858e-01 2.96785146e-01 3.19765389e-01 3.39953721e-01 3.56951475e-01 3.70462477e-01 3.80268157e-01 3.86217058e-01 3.88219893e-01 3.86246771e-01 3.80325884e-01 3.70543718e-01 3.57046425e-01 3.40044171e-01 3.19822192e-01 2.96770006e-01 2.71450013e-01 2.44733378e-01 2.17960641e-01 1.92284688e-01 1.66001081e-01 1.33202091e-01 5.73603883e-02 5.41294143e-02 1.82365198e-02 2.55755950e-02 1.52925745e-01 1.65723056e-01 1.70665443e-01 1.84493229e-01 2.02068180e-01 2.20065683e-01 2.37270668e-01 2.53117085e-01 2.67197162e-01 2.79172659e-01 2.88768411e-01 2.95773506e-01 3.00039887e-01 3.01479846e-01 3.00063610e-01 2.95817882e-01 2.88824797e-01 2.79221237e-01 2.67197728e-01 2.52997875e-01 2.36926913e-01 2.19393492e-01 2.01029807e-01 1.82970926e-01 1.67062640e-01 1.50417477e-01 1.22214325e-01 4.22817133e-02 3.61883081e-02 1.35407802e-02 2.07013395e-02 1.51912346e-01 1.50082678e-01 1.48539037e-01 1.56074017e-01 1.65113449e-01 1.73870027e-01 1.82391301e-01 1.90592036e-01 1.98181555e-01 2.04836249e-01 2.10282356e-01 2.14314356e-01 2.16792047e-01 2.17633933e-01 2.16812432e-01 2.14350924e-01 2.10322276e-01 2.04847127e-01 1.98089898e-01 1.90249667e-01 1.81546256e-01 1.72213942e-01 1.62525520e-01 1.52853817e-01 1.44417614e-01 1.40788421e-01 1.28740549e-01 3.41493376e-02 2.27388218e-02 2.27376446e-02 1.73776690e-02 1.50967747e-01 1.41997173e-01 1.37082770e-01 1.37296513e-01 1.36933804e-01 1.36923686e-01 1.37848377e-01 1.39496684e-01 1.41462743e-01 1.43409014e-01 1.45105928e-01 1.46405831e-01 1.47218764e-01 1.47501141e-01 1.47236705e-01 1.46437854e-01 1.45139694e-01 1.43407926e-01 1.41336247e-01 1.39041334e-01 1.36664301e-01 1.34379476e-01 1.32432193e-01 1.31135553e-01 1.30665049e-01 1.33303106e-01 1.61734164e-01 2.43248940e-01 1.85920056e-02 1.16827086e-01 8.38653818e-02 1.68458655e-01 1.35702774e-01 1.32540345e-01 1.27344102e-01 1.22710638e-01 1.19655706e-01 1.17904596e-01 1.16956741e-01 1.16448656e-01 1.16170943e-01 1.16014466e-01 1.15925044e-01 1.15876496e-01 1.15856767e-01 1.15861438e-01 1.15891106e-01 1.15950793e-01 1.16050735e-01 1.16208531e-01 1.16453297e-01 1.16834231e-01 1.17440678e-01 1.18451372e-01 1.20224893e-01 1.23245567e-01 1.26911879e-01 1.36590540e-01 5.68346024e-01 1.72809511e-01 
