# vtk DataFile Version 2.0
results_case1_non_linear/iter6.vtk, Created by Freefem++ 
ASCII
DATASET UNSTRUCTURED_GRID
POINTS 961 float
0 0 0
0.033333333 0 0
0.066666667 0 0
0.1 0 0
0.13333333 0 0
0.16666667 0 0
0.2 0 0
0.23333333 0 0
0.26666667 0 0
0.3 0 0
0.33333333 0 0
0.36666667 0 0
0.4 0 0
0.43333333 0 0
0.46666667 0 0
0.5 0 0
0.53333333 0 0
0.56666667 0 0
0.6 0 0
0.63333333 0 0
0.66666667 0 0
0.7 0 0
0.73333333 0 0
0.76666667 0 0
0.8 0 0
0.83333333 0 0
0.86666667 0 0
0.9 0 0
0.93333333 0 0
0.96666667 0 0
1 0 0
0 0.033333333 0
0.033333333 0.033333333 0
0.066666667 0.033333333 0
0.1 0.033333333 0
0.13333333 0.033333333 0
0.16666667 0.033333333 0
0.2 0.033333333 0
0.23333333 0.033333333 0
0.26666667 0.033333333 0
0.3 0.033333333 0
0.33333333 0.033333333 0
0.36666667 0.033333333 0
0.4 0.033333333 0
0.43333333 0.033333333 0
0.46666667 0.033333333 0
0.5 0.033333333 0
0.53333333 0.033333333 0
0.56666667 0.033333333 0
0.6 0.033333333 0
0.63333333 0.033333333 0
0.66666667 0.033333333 0
0.7 0.033333333 0
0.73333333 0.033333333 0
0.76666667 0.033333333 0
0.8 0.033333333 0
0.83333333 0.033333333 0
0.86666667 0.033333333 0
0.9 0.033333333 0
0.93333333 0.033333333 0
0.96666667 0.033333333 0
1 0.033333333 0
0 0.066666667 0
0.033333333 0.066666667 0
0.066666667 0.066666667 0
0.1 0.066666667 0
0.13333333 0.066666667 0
0.16666667 0.066666667 0
0.2 0.066666667 0
0.23333333 0.066666667 0
0.26666667 0.066666667 0
0.3 0.066666667 0
0.33333333 0.066666667 0
0.36666667 0.066666667 0
0.4 0.066666667 0
0.43333333 0.066666667 0
0.46666667 0.066666667 0
0.5 0.066666667 0
0.53333333 0.066666667 0
0.56666667 0.066666667 0
0.6 0.066666667 0
0.63333333 0.066666667 0
0.66666667 0.066666667 0
0.7 0.066666667 0
0.73333333 0.066666667 0
0.76666667 0.066666667 0
0.8 0.066666667 0
0.83333333 0.066666667 0
0.86666667 0.066666667 0
0.9 0.066666667 0
0.93333333 0.066666667 0
0.96666667 0.066666667 0
1 0.066666667 0
0 0.1 0
0.033333333 0.1 0
0.066666667 0.1 0
0.1 0.1 0
0.13333333 0.1 0
0.16666667 0.1 0
0.2 0.1 0
0.23333333 0.1 0
0.26666667 0.1 0
0.3 0.1 0
0.33333333 0.1 0
0.36666667 0.1 0
0.4 0.1 0
0.43333333 0.1 0
0.46666667 0.1 0
0.5 0.1 0
0.53333333 0.1 0
0.56666667 0.1 0
0.6 0.1 0
0.63333333 0.1 0
0.66666667 0.1 0
0.7 0.1 0
0.73333333 0.1 0
0.76666667 0.1 0
0.8 0.1 0
0.83333333 0.1 0
0.86666667 0.1 0
0.9 0.1 0
0.93333333 0.1 0
0.96666667 0.1 0
1 0.1 0
0 0.13333333 0
0.033333333 0.13333333 0
0.066666667 0.13333333 0
0.1 0.13333333 0
0.13333333 0.13333333 0
0.16666667 0.13333333 0
0.2 0.13333333 0
0.23333333 0.13333333 0
0.26666667 0.13333333 0
0.3 0.13333333 0
0.33333333 0.13333333 0
0.36666667 0.13333333 0
0.4 0.13333333 0
0.43333333 0.13333333 0
0.46666667 0.13333333 0
0.5 0.13333333 0
0.53333333 0.13333333 0
0.56666667 0.13333333 0
0.6 0.13333333 0
0.63333333 0.13333333 0
0.66666667 0.13333333 0
0.7 0.13333333 0
0.73333333 0.13333333 0
0.76666667 0.13333333 0
0.8 0.13333333 0
0.83333333 0.13333333 0
0.86666667 0.13333333 0
0.9 0.13333333 0
0.93333333 0.13333333 0
0.96666667 0.13333333 0
1 0.13333333 0
0 0.16666667 0
0.033333333 0.16666667 0
0.066666667 0.16666667 0
0.1 0.16666667 0
0.13333333 0.16666667 0
0.16666667 0.16666667 0
0.2 0.16666667 0
0.23333333 0.16666667 0
0.26666667 0.16666667 0
0.3 0.16666667 0
0.33333333 0.16666667 0
0.36666667 0.16666667 0
0.4 0.16666667 0
0.43333333 0.16666667 0
0.46666667 0.16666667 0
0.5 0.16666667 0
0.53333333 0.16666667 0
0.56666667 0.16666667 0
0.6 0.16666667 0
0.63333333 0.16666667 0
0.66666667 0.16666667 0
0.7 0.16666667 0
0.73333333 0.16666667 0
0.76666667 0.16666667 0
0.8 0.16666667 0
0.83333333 0.16666667 0
0.86666667 0.16666667 0
0.9 0.16666667 0
0.93333333 0.16666667 0
0.96666667 0.16666667 0
1 0.16666667 0
0 0.2 0
0.033333333 0.2 0
0.066666667 0.2 0
0.1 0.2 0
0.13333333 0.2 0
0.16666667 0.2 0
0.2 0.2 0
0.23333333 0.2 0
0.26666667 0.2 0
0.3 0.2 0
0.33333333 0.2 0
0.36666667 0.2 0
0.4 0.2 0
0.43333333 0.2 0
0.46666667 0.2 0
0.5 0.2 0
0.53333333 0.2 0
0.56666667 0.2 0
0.6 0.2 0
0.63333333 0.2 0
0.66666667 0.2 0
0.7 0.2 0
0.73333333 0.2 0
0.76666667 0.2 0
0.8 0.2 0
0.83333333 0.2 0
0.86666667 0.2 0
0.9 0.2 0
0.93333333 0.2 0
0.96666667 0.2 0
1 0.2 0
0 0.23333333 0
0.033333333 0.23333333 0
0.066666667 0.23333333 0
0.1 0.23333333 0
0.13333333 0.23333333 0
0.16666667 0.23333333 0
0.2 0.23333333 0
0.23333333 0.23333333 0
0.26666667 0.23333333 0
0.3 0.23333333 0
0.33333333 0.23333333 0
0.36666667 0.23333333 0
0.4 0.23333333 0
0.43333333 0.23333333 0
0.46666667 0.23333333 0
0.5 0.23333333 0
0.53333333 0.23333333 0
0.56666667 0.23333333 0
0.6 0.23333333 0
0.63333333 0.23333333 0
0.66666667 0.23333333 0
0.7 0.23333333 0
0.73333333 0.23333333 0
0.76666667 0.23333333 0
0.8 0.23333333 0
0.83333333 0.23333333 0
0.86666667 0.23333333 0
0.9 0.23333333 0
0.93333333 0.23333333 0
0.96666667 0.23333333 0
1 0.23333333 0
0 0.26666667 0
0.033333333 0.26666667 0
0.066666667 0.26666667 0
0.1 0.26666667 0
0.13333333 0.26666667 0
0.16666667 0.26666667 0
0.2 0.26666667 0
0.23333333 0.26666667 0
0.26666667 0.26666667 0
0.3 0.26666667 0
0.33333333 0.26666667 0
0.36666667 0.26666667 0
0.4 0.26666667 0
0.43333333 0.26666667 0
0.46666667 0.26666667 0
0.5 0.26666667 0
0.53333333 0.26666667 0
0.56666667 0.26666667 0
0.6 0.26666667 0
0.63333333 0.26666667 0
0.66666667 0.26666667 0
0.7 0.26666667 0
0.73333333 0.26666667 0
0.76666667 0.26666667 0
0.8 0.26666667 0
0.83333333 0.26666667 0
0.86666667 0.26666667 0
0.9 0.26666667 0
0.93333333 0.26666667 0
0.96666667 0.26666667 0
1 0.26666667 0
0 0.3 0
0.033333333 0.3 0
0.066666667 0.3 0
0.1 0.3 0
0.13333333 0.3 0
0.16666667 0.3 0
0.2 0.3 0
0.23333333 0.3 0
0.26666667 0.3 0
0.3 0.3 0
0.33333333 0.3 0
0.36666667 0.3 0
0.4 0.3 0
0.43333333 0.3 0
0.46666667 0.3 0
0.5 0.3 0
0.53333333 0.3 0
0.56666667 0.3 0
0.6 0.3 0
0.63333333 0.3 0
0.66666667 0.3 0
0.7 0.3 0
0.73333333 0.3 0
0.76666667 0.3 0
0.8 0.3 0
0.83333333 0.3 0
0.86666667 0.3 0
0.9 0.3 0
0.93333333 0.3 0
0.96666667 0.3 0
1 0.3 0
0 0.33333333 0
0.033333333 0.33333333 0
0.066666667 0.33333333 0
0.1 0.33333333 0
0.13333333 0.33333333 0
0.16666667 0.33333333 0
0.2 0.33333333 0
0.23333333 0.33333333 0
0.26666667 0.33333333 0
0.3 0.33333333 0
0.33333333 0.33333333 0
0.36666667 0.33333333 0
0.4 0.33333333 0
0.43333333 0.33333333 0
0.46666667 0.33333333 0
0.5 0.33333333 0
0.53333333 0.33333333 0
0.56666667 0.33333333 0
0.6 0.33333333 0
0.63333333 0.33333333 0
0.66666667 0.33333333 0
0.7 0.33333333 0
0.73333333 0.33333333 0
0.76666667 0.33333333 0
0.8 0.33333333 0
0.83333333 0.33333333 0
0.86666667 0.33333333 0
0.9 0.33333333 0
0.93333333 0.33333333 0
0.96666667 0.33333333 0
1 0.33333333 0
0 0.36666667 0
0.033333333 0.36666667 0
0.066666667 0.36666667 0
0.1 0.36666667 0
0.13333333 0.36666667 0
0.16666667 0.36666667 0
0.2 0.36666667 0
0.23333333 0.36666667 0
0.26666667 0.36666667 0
0.3 0.36666667 0
0.33333333 0.36666667 0
0.36666667 0.36666667 0
0.4 0.36666667 0
0.43333333 0.36666667 0
0.46666667 0.36666667 0
0.5 0.36666667 0
0.53333333 0.36666667 0
0.56666667 0.36666667 0
0.6 0.36666667 0
0.63333333 0.36666667 0
0.66666667 0.36666667 0
0.7 0.36666667 0
0.73333333 0.36666667 0
0.76666667 0.36666667 0
0.8 0.36666667 0
0.83333333 0.36666667 0
0.86666667 0.36666667 0
0.9 0.36666667 0
0.93333333 0.36666667 0
0.96666667 0.36666667 0
1 0.36666667 0
0 0.4 0
0.033333333 0.4 0
0.066666667 0.4 0
0.1 0.4 0
0.13333333 0.4 0
0.16666667 0.4 0
0.2 0.4 0
0.23333333 0.4 0
0.26666667 0.4 0
0.3 0.4 0
0.33333333 0.4 0
0.36666667 0.4 0
0.4 0.4 0
0.43333333 0.4 0
0.46666667 0.4 0
0.5 0.4 0
0.53333333 0.4 0
0.56666667 0.4 0
0.6 0.4 0
0.63333333 0.4 0
0.66666667 0.4 0
0.7 0.4 0
0.73333333 0.4 0
0.76666667 0.4 0
0.8 0.4 0
0.83333333 0.4 0
0.86666667 0.4 0
0.9 0.4 0
0.93333333 0.4 0
0.96666667 0.4 0
1 0.4 0
0 0.43333333 0
0.033333333 0.43333333 0
0.066666667 0.43333333 0
0.1 0.43333333 0
0.13333333 0.43333333 0
0.16666667 0.43333333 0
0.2 0.43333333 0
0.23333333 0.43333333 0
0.26666667 0.43333333 0
0.3 0.43333333 0
0.33333333 0.43333333 0
0.36666667 0.43333333 0
0.4 0.43333333 0
0.43333333 0.43333333 0
0.46666667 0.43333333 0
0.5 0.43333333 0
0.53333333 0.43333333 0
0.56666667 0.43333333 0
0.6 0.43333333 0
0.63333333 0.43333333 0
0.66666667 0.43333333 0
0.7 0.43333333 0
0.73333333 0.43333333 0
0.76666667 0.43333333 0
0.8 0.43333333 0
0.83333333 0.43333333 0
0.86666667 0.43333333 0
0.9 0.43333333 0
0.93333333 0.43333333 0
0.96666667 0.43333333 0
1 0.43333333 0
0 0.46666667 0
0.033333333 0.46666667 0
0.066666667 0.46666667 0
0.1 0.46666667 0
0.13333333 0.46666667 0
0.16666667 0.46666667 0
0.2 0.46666667 0
0.23333333 0.46666667 0
0.26666667 0.46666667 0
0.3 0.46666667 0
0.33333333 0.46666667 0
0.36666667 0.46666667 0
0.4 0.46666667 0
0.43333333 0.46666667 0
0.46666667 0.46666667 0
0.5 0.46666667 0
0.53333333 0.46666667 0
0.56666667 0.46666667 0
0.6 0.46666667 0
0.63333333 0.46666667 0
0.66666667 0.46666667 0
0.7 0.46666667 0
0.73333333 0.46666667 0
0.76666667 0.46666667 0
0.8 0.46666667 0
0.83333333 0.46666667 0
0.86666667 0.46666667 0
0.9 0.46666667 0
0.93333333 0.46666667 0
0.96666667 0.46666667 0
1 0.46666667 0
0 0.5 0
0.033333333 0.5 0
0.066666667 0.5 0
0.1 0.5 0
0.13333333 0.5 0
0.16666667 0.5 0
0.2 0.5 0
0.23333333 0.5 0
0.26666667 0.5 0
0.3 0.5 0
0.33333333 0.5 0
0.36666667 0.5 0
0.4 0.5 0
0.43333333 0.5 0
0.46666667 0.5 0
0.5 0.5 0
0.53333333 0.5 0
0.56666667 0.5 0
0.6 0.5 0
0.63333333 0.5 0
0.66666667 0.5 0
0.7 0.5 0
0.73333333 0.5 0
0.76666667 0.5 0
0.8 0.5 0
0.83333333 0.5 0
0.86666667 0.5 0
0.9 0.5 0
0.93333333 0.5 0
0.96666667 0.5 0
1 0.5 0
0 0.53333333 0
0.033333333 0.53333333 0
0.066666667 0.53333333 0
0.1 0.53333333 0
0.13333333 0.53333333 0
0.16666667 0.53333333 0
0.2 0.53333333 0
0.23333333 0.53333333 0
0.26666667 0.53333333 0
0.3 0.53333333 0
0.33333333 0.53333333 0
0.36666667 0.53333333 0
0.4 0.53333333 0
0.43333333 0.53333333 0
0.46666667 0.53333333 0
0.5 0.53333333 0
0.53333333 0.53333333 0
0.56666667 0.53333333 0
0.6 0.53333333 0
0.63333333 0.53333333 0
0.66666667 0.53333333 0
0.7 0.53333333 0
0.73333333 0.53333333 0
0.76666667 0.53333333 0
[...]
CELL_DATA 1920
Scalars  Label int 1
LOOKUP_TABLE FreeFempp_table
0
0
0
0
0
0
0
0
0
0
0
0
0
0
0
0
0
0
0
0
0
0
0
0
0
0
0
0
0
0
0
0
0
0
0
0
0
0
0
0
0
0
0
0
0
0
0
0
0
0
0
0
0
0
0
0
0
0
0
0
0
0
0
0
0
0
0
0
0
0
0
0
0
0
0
0
0
0
0
0
0
0
0
0
0
0
0
0
0
0
0
0
0
0
0
0
0
0
0
0
0
0
0
0
0
0
0
0
0
0
0
0
0
0
0
0
0
0
0
0
0
0
0
0
0
0
0
0
0
0
0
0
0
0
0
0
0
0
0
0
0
0
0
0
0
0
0
0
0
0
0
0
0
0
0
0
0
0
0
0
0
0
0
0
0
0
0
0
0
0
0
0
0
0
0
0
0
0
0
0
0
0
0
0
0
0
0
0
0
0
0
0
0
0
0
0
0
0
0
0
0
0
0
0
0
0
0
0
0
0
0
0
0
0
0
0
0
0
0
0
0
0
0
0
0
0
0
0
0
0
0
0
0
0
0
0
0
0
0
0
0
0
0
0
0
0
0
0
0
0
0
0
0
0
0
0
0
0
0
0
0
0
0
0
0
0
0
0
0
0
0
0
0
0
0
0
0
0
0
0
0
0
0
0
0
0
0
0
0
0
0
0
0
0
0
0
0
0
0
0
0
0
0
0
0
0
0
0
0
0
0
0
0
0
0
0
0
0
0
0
0
0
0
0
0
0
0
0
0
0
0
0
0
0
0
0
0
0
0
0
0
0
0
0
0
0
0
0
0
0
0
0
0
0
0
0
0
0
0
0
0
0
0
0
0
0
0
0
0
0
0
0
0
0
0
0
0
0
0
0
0
0
0
0
0
0
0
0
0
0
0
0
0
0
0
0
0
0
0
0
0
0
0
0
0
0
0
0
0
0
0
0
0
0
0
0
0
0
0
0
0
0
0
0
0
0
0
0
0
0
0
0
0
0
0
0
0
0
0
0
0
0
0
0
0
0
0
0
0
0
0
0
0
0
0
0
0
0
0
0
0
0
0
0
0
0
0
0
0
0
0
0
0
0
0
0
0
0
0
0
0
0
0
0
0
0
0
0
0
0
0
0
0
0
0
0
0
0
0
0
0
0
0
0
0
0
0
0
0
0
0
0
0
0
0
0
0
0
0
0
0
0
0
0
0
0
0
0
0
0
0
0
0
0
0
0
0
0
0
0
0
0
0
0
0
0
0
0
0
0
0
0
0
0
0
0
0
0
0
0
0
0
0
0
0
0
0
0
0
0
0
0
0
0
0
0
0
0
0
0
0
0
0
0
0
0
0
0
0
0
0
0
0
0
0
0
0
0
0
0
0
0
0
0
0
0
0
0
0
0
0
0
0
0
0
0
0
0
0
0
0
0
0
0
0
0
0
0
0
0
0
0
0
0
0
0
0
0
0
0
0
0
0
0
0
0
0
0
0
0
0
0
0
0
0
0
0
0
0
0
0
0
0
0
0
0
0
0
0
0
0
0
0
0
0
0
0
0
0
0
0
0
0
0
0
0
0
0
0
0
0
0
0
0
0
0
0
0
0
0
0
0
0
0
0
0
0
0
0
0
0
0
0
0
0
0
0
0
0
0
0
0
0
0
0
0
0
0
0
0
0
0
0
0
0
0
0
0
0
0
0
0
0
0
0
0
0
0
0
0
0
0
0
0
0
0
0
0
0
0
0
0
0
0
0
0
0
0
0
0
0
0
0
0
0
0
0
0
0
0
0
0
0
0
0
0
0
0
0
0
0
0
0
0
0
0
0
0
0
0
0
0
0
0
0
0
0
0
0
0
0
0
0
0
0
0
0
0
0
0
0
0
0
0
0
0
0
0
0
0
0
0
0
0
0
0
0
0
0
0
0
0
0
0
0
0
0
0
0
0
0
0
0
0
0
0
0
0
0
0
0
0
0
0
0
0
0
0
0
0
0
0
0
0
0
0
0
0
0
0
0
0
0
0
0
0
0
0
0
0
0
0
0
0
0
0
0
0
0
0
0
0
0
0
0
0
0
0
0
0
0
0
0
0
0
0
0
0
0
0
0
0
0
0
0
0
0
0
0
0
0
0
0
0
0
0
0
0
0
0
0
0
0
0
0
0
0
0
0
0
0
0
0
0
0
0
0
0
0
0
0
0
0
0
0
0
0
0
0
0
0
0
0
0
0
0
0
0
0
0
0
0
0
0
0
0
0
0
0
0
0
0
0
0
0
0
0
0
0
0
0
0
0
0
0
0
0
0
0
0
0
0
0
0
0
0
0
0
0
0
0
0
0
0
0
0
0
0
0
0
0
0
0
0
0
0
0
0
0
0
0
0
0
0
0
0
0
0
0
0
0
0
0
0
0
0
0
0
0
0
0
0
0
0
0
0
0
0
0
0
0
0
0
0
0
0
0
0
0
0
0
0
0
0
0
0
0
0
0
0
0
0
0
0
0
0
0
0
0
0
0
0
0
0
0
0
0
0
0
0
0
0
0
0
0
0
0
0
0
0
0
0
0
0
0
0
0
0
0
0
0
0
0
0
0
0
0
0
0
0
0
0
0
0
0
0
0
0
0
0
0
0
0
0
0
0
0
0
0
0
0
0
0
0
0
0
0
0
0
0
0
0
0
0
0
0
0
0
0
0
0
0
0
0
0
0
0
0
0
0
0
0
0
0
0
0
0
0
0
0
0
0
0
0
0
0
0
0
0
0
0
0
0
0
0
0
0
0
0
0
0
0
0
0
0
0
0
0
0
0
0
0
0
0
0
0
0
0
0
0
0
0
0
0
0
0
0
0
0
0
0
0
0
0
0
0
0
0
0
0
0
0
0
0
0
0
0
0
0
0
0
0
0
0
0
0
0
0
0
0
0
0
0
0
0
0
0
0
0
0
0
0
0
0
0
0
0
0
0
0
0
0
0
0
0
0
0
0
0
0
0
0
0
0
0
0
0
0
0
0
0
0
0
0
0
0
0
0
0
0
0
0
0
0
0
0
0
0
0
0
0
0
0
0
0
0
0
0
0
0
0
0
0
0
0
0
0
0
0
0
0
0
0
0
0
0
0
0
0
0
0
0
0
0
0
0
0
0
0
0
0
0
0
0
0
0
0
0
0
0
0
0
0
0
0
0
0
0
0
0
0
0
0
0
0
0
0
0
0
0
0
0
0
0
0
0
0
0
0
0
0
0
0
0
0
0
0
0
0
0
0
0
0
0
0
0
0
0
0
0
0
0
0
0
0
0
0
0
0
0
0
0
0
0
0
0
0
0
0
0
0
0
0
0
0
0
0
0
0
0
0
0
0
0
0
0
0
0
0
0
0
0
0
0
0
0
0
0
0
0
0
0
0
0
0
0
0
0
0
0
0
0
0
0
0
0
0
0
0
0
0
0
0
0
0
0
0
0
0
0
0
0
0
0
0
0
0
0
0
0
0
0
0
0
0
0
0
0
0
0
0
0
0
0
0
0
0
0
0
0
0
0
0
0
0
0
0
0
0
0
0
0
0
0
0
0
0
0
0
0
0
0
0
0
0
0
0
0
0
0
0
0
0
0
0
0
0
0
0
0
0
0
0
0
0
0
0
0
0
0
0
0
0
0
0
0
0
0
0
0
0
0
0
0
0
0
0
0
0
0
0
0
0
0
0
0
0
0
0
0
0
0
0
0
0
0
0
0
0
0
0
0
0
0
0
0
0
0
0
0
0
0
0
0
0
0
0
0
0
0
0
0
0
0
0
0
0
0
0
0
0
0
0
0
0
0
0
0
0
0
0
0
0
0
0
0
0
0
0
0
0
0
0
0
0
0
0
0
0
0
0
0
0
0
0
0
0
0
0
0
0
0
0
0
0
0
0
0
0
0
0
0
0
0
0
0
0
0
0
0
0
0
0
0
0
0
0
0
0
0
0
0
0
0
0
0
0
0
0
0
0
0
0
0
0
0
0
0
0
0
0
0
0
0
0
0
0
0
0
0
0
0
0
0
0
0
0
0
0
0
0
0
0
0
0
0
0
0
0
0
0
0
0
0
0
0
0
0
0
0
1
1
1
1
1
1
1
1
1
1
1
1
1
1
1
1
1
1
1
1
1
1
1
1
1
1
1
1
1
1
2
2
2
2
2
2
2
2
2
2
2
2
2
2
2
2
2
2
2
2
2
2
2
2
2
2
2
2
2
2
3
3
3
3
3
3
3
3
3
3
3
3
3
3
3
3
3
3
3
3
3
3
3
3
3
3
3
3
3
3
4
4
4
4
4
4
4
4
4
4
4
4
4
4
4
4
4
4
4
4
4
4
4
4
4
4
4
4
4
4

LOOKUP_TABLE FreeFempp_table 5
1.00000000 0.00000000 0.00000000 1.00000000
1.00000000 1.00000000 0.00000000 1.00000000
1.00000000 0.00000000 1.00000000 1.00000000
0.00000000 1.00000000 0.00000000 1.00000000
0.00000000 1.00000000 1.00000000 1.00000000

POINT_DATA 961
FIELD FieldData 1
Density 1 961 float
5.62038943e-02 4.25910093e-02 3.45408134e-02 2.98616923e-02 2.77818274e-02 2.70628855e-02 2.81590354e-02 3.10489703e-02 3.46385762e-02 3.75109054e-02 3.91143933e-02 4.05729562e-02 4.32015397e-02 4.59461957e-02 4.86804917e-02 5.54779842e-02 6.69801235e-02 8.59246105e-02 1.15611412e-01 1.47211909e-01 1.73445016e-01 1.88768983e-01 1.89576417e-01 1.77297413e-01 1.57760918e-01 1.37486532e-01 1.19146675e-01 9.65836868e-02 6.09968156e-02 6.28210902e-02 1.00359991e-01 5.35308979e-02 3.16507071e-02 3.26909199e-02 2.92405579e-02 2.73991022e-02 2.67061200e-02 2.71597169e-02 2.81859096e-02 2.79285759e-02 2.56842207e-02 2.45425012e-02 2.68075764e-02 2.86479704e-02 2.49589477e-02 1.98632106e-02 1.98390707e-02 3.04525625e-02 6.21587224e-02 1.07244693e-01 1.73998237e-01 2.43836075e-01 2.88862139e-01 2.95527220e-01 2.67144501e-01 2.19700769e-01 1.71781451e-01 1.33932993e-01 1.00518942e-01 5.38126081e-02 3.71042788e-02 6.91429824e-02 7.98067749e-02 5.26137017e-02 6.36693761e-02 8.23934749e-02 1.01105236e-01 1.19941622e-01 1.38181657e-01 1.54165760e-01 1.66297793e-01 1.74270689e-01 1.79416791e-01 1.83691800e-01 1.88495427e-01 1.93358749e-01 1.95299074e-01 1.93145171e-01 1.90089107e-01 1.84187621e-01 1.77616626e-01 1.84992075e-01 2.08573207e-01 2.29755521e-01 2.32972324e-01 2.18904331e-01 1.95919275e-01 1.71423405e-01 1.48230925e-01 1.23729147e-01 7.44017065e-02 3.63830253e-02 5.60711138e-02 1.07683972e-01 8.40538368e-02 9.80928391e-02 1.23820178e-01 1.48294762e-01 1.71807557e-01 1.93841353e-01 2.14211136e-01 2.32670113e-01 2.49003112e-01 2.63083458e-01 2.74855644e-01 2.84302115e-01 2.91334242e-01 2.95666158e-01 2.96980619e-01 2.95248955e-01 2.90448040e-01 2.82552809e-01 2.73678273e-01 2.69304097e-01 2.69290328e-01 2.64819652e-01 2.49015898e-01 2.23876134e-01 1.95587352e-01 1.68359607e-01 1.41985655e-01 9.99432504e-02 3.63444313e-02 4.56952937e-02 1.31918103e-01 1.10482469e-01 1.16829693e-01 1.49707898e-01 1.80722609e-01 2.11304113e-01 2.40876228e-01 2.68848151e-01 2.94686496e-01 3.17936659e-01 3.38229448e-01 3.55269969e-01 3.68823647e-01 3.78694117e-01 3.84710103e-01 3.86759728e-01 3.84833097e-01 3.78998697e-01 3.69444758e-01 3.56762260e-01 3.42182785e-01 3.26295584e-01 3.07544380e-01 2.83802122e-01 2.55083948e-01 2.23549917e-01 1.91580638e-01 1.59976125e-01 1.17043376e-01 3.77733037e-02 4.13389504e-02 1.57442123e-01 1.42119303e-01 1.33237794e-01 1.72388673e-01 2.11416766e-01 2.50011712e-01 2.87518233e-01 3.23065877e-01 3.55903566e-01 3.85421872e-01 4.11136478e-01 4.32667106e-01 4.49720353e-01 4.62075293e-01 4.69576448e-01 4.72137213e-01 4.69744414e-01 4.62456703e-01 4.50426012e-01 4.33949798e-01 4.13479805e-01 3.89372468e-01 3.61578137e-01 3.29852313e-01 2.94445157e-01 2.56445795e-01 2.17433646e-01 1.78507581e-01 1.30858421e-01 3.95365469e-02 4.06583101e-02 1.85173303e-01 1.87454879e-01 1.52352020e-01 1.95010513e-01 2.41682321e-01 2.87971318e-01 3.32950801e-01 3.75518233e-01 4.14746970e-01 4.49908942e-01 4.80442047e-01 5.05919695e-01 5.26027560e-01 5.40544987e-01 5.49329817e-01 5.52307427e-01 5.49462557e-01 5.40837467e-01 5.26541591e-01 5.06768584e-01 4.81797129e-01 4.51937020e-01 4.17473614e-01 3.78727555e-01 3.36245298e-01 2.90966570e-01 2.44215518e-01 1.97230831e-01 1.43377736e-01 4.18988094e-02 4.16593403e-02 2.12609157e-01 2.47941732e-01 1.76090851e-01 2.19385743e-01 2.71389604e-01 3.24334532e-01 3.76016825e-01 4.24896926e-01 4.69831884e-01 5.09974062e-01 5.44695675e-01 5.73543608e-01 5.96209586e-01 6.12503529e-01 6.22324646e-01 6.25631452e-01 6.22418046e-01 6.12705469e-01 5.96552253e-01 5.74077964e-01 5.45484364e-01 5.11060953e-01 4.71188515e-01 4.26370591e-01 3.77303392e-01 3.24956447e-01 2.70617634e-01 2.15659216e-01 1.55162930e-01 4.48474064e-02 4.35538106e-02 2.34844029e-01 3.13497275e-01 2.02728108e-01 2.46623099e-01 3.00084054e-01 3.58214974e-01 4.15713876e-01 4.70152348e-01 5.20069718e-01 5.64478695e-01 6.02687120e-01 6.34231329e-01 6.58842444e-01 6.76411629e-01 6.86937273e-01 6.90459132e-01 6.87000930e-01 6.76547587e-01 6.59067810e-01 6.34568751e-01 6.03156149e-01 5.65074623e-01 5.20729065e-01 4.70700145e-01 4.15770918e-01 3.56969416e-01 2.95621485e-01 2.33244315e-01 1.66390941e-01 4.81221452e-02 4.60876189e-02 2.45589077e-01 3.65542531e-01 2.25997061e-01 2.74410695e-01 3.26494217e-01 3.88664424e-01 4.51195031e-01 5.10457695e-01 5.64615488e-01 6.12529516e-01 6.53440297e-01 6.86885178e-01 7.12677181e-01 7.30866551e-01 7.41649032e-01 7.45228887e-01 7.41692722e-01 7.30959475e-01 7.12829351e-01 6.87107086e-01 6.53733611e-01 6.12869501e-01 5.64918160e-01 5.10515988e-01 4.50523436e-01 3.86042148e-01 3.18468690e-01 2.49470934e-01 1.76888034e-01 5.12807257e-02 4.90870886e-02 2.38642827e-01 3.85302424e-01 2.38453060e-01 2.96040118e-01 3.48443776e-01 4.14712608e-01 4.81777191e-01 5.45188248e-01 6.02841794e-01 6.53468609e-01 6.96234286e-01 7.30681479e-01 7.56755829e-01 7.74775743e-01 7.85269320e-01 7.88713753e-01 7.85300076e-01 7.74841666e-01 7.56864488e-01 7.30839014e-01 6.96436942e-01 6.53686583e-01 6.02987885e-01 5.45048773e-01 4.80825871e-01 4.11513537e-01 3.38598520e-01 2.63897628e-01 1.86291873e-01 5.43057472e-02 5.24529070e-02 2.10142434e-01 3.59626859e-01 2.37207085e-01 3.05213839e-01 3.64287585e-01 4.35715288e-01 5.07009625e-01 5.73919356e-01 6.34330511e-01 6.86886668e-01 7.30665088e-01 7.65214145e-01 7.90674090e-01 8.07758629e-01 8.17456841e-01 8.20600569e-01 8.17479432e-01 8.07807863e-01 7.90757179e-01 7.65337229e-01 7.30825603e-01 6.87059522e-01 6.34441793e-01 5.73786616e-01 5.06177247e-01 4.32918876e-01 3.55595917e-01 2.76163608e-01 1.94260955e-01 5.80668710e-02 5.64263724e-02 1.64534554e-01 2.87675679e-01 2.26987764e-01 3.03464055e-01 3.74554843e-01 4.51672256e-01 5.26704013e-01 5.96407592e-01 6.58855379e-01 7.12630510e-01 7.56707072e-01 7.90646970e-01 8.14860642e-01 8.30652356e-01 8.39401722e-01 8.42179060e-01 8.39419484e-01 8.30691576e-01 8.14928472e-01 7.90751636e-01 7.56850541e-01 7.12798059e-01 6.58997357e-01 5.96398830e-01 5.26238382e-01 4.49939728e-01 3.69169384e-01 2.85983473e-01 2.00538531e-01 6.53550997e-02 6.20340370e-02 1.18554935e-01 1.94547534e-01 2.16408983e-01 2.99573779e-01 3.81267875e-01 4.62980390e-01 5.40831149e-01 6.12534344e-01 6.76341176e-01 7.30770826e-01 7.74692953e-01 8.07704270e-01 8.30626905e-01 8.45088899e-01 8.52777481e-01 8.55247259e-01 8.52792382e-01 8.45122397e-01 8.30686152e-01 8.07798803e-01 7.74830997e-01 7.30950475e-01 6.76540554e-01 6.12691462e-01 5.40797055e-01 4.62394893e-01 3.79196733e-01 2.93221951e-01 2.05181733e-01 8.34142640e-02 7.15853423e-02 8.68510902e-02 1.19737469e-01 2.10905030e-01 2.98793197e-01 3.85596871e-01 4.69861031e-01 5.49363852e-01 6.22238398e-01 6.86802447e-01 7.41510987e-01 7.85154998e-01 8.17376733e-01 8.39352787e-01 8.52755189e-01 8.60798299e-01 8.61317456e-01 8.60811532e-01 8.52785408e-01 8.39407206e-01 8.17466140e-01 7.85293460e-01 7.41710067e-01 6.87068284e-01 6.22569084e-01 5.49744606e-01 4.70255435e-01 3.85913491e-01 2.98702121e-01 2.09969074e-01 1.26483083e-01 8.95619765e-02 6.94778934e-02 7.89088681e-02 2.09315479e-01 2.99273610e-01 3.87170792e-01 4.72185910e-01 5.52222788e-01 6.25477731e-01 6.90277934e-01 7.45053709e-01 7.88567662e-01 8.20491791e-01 8.42105091e-01 8.55202258e-01 8.61295521e-01 8.61296475e-01 8.61308575e-01 8.55231285e-01 8.42157423e-01 8.20580244e-01 7.88711071e-01 7.45277286e-01 6.90616727e-01 6.25991225e-01 5.53034663e-01 4.73596156e-01 3.89970124e-01 3.05752307e-01 2.18718305e-01 2.09051967e-01 1.22831568e-01 6.05433695e-02 6.21093214e-02 2.07992822e-01 2.97895968e-01 3.85235757e-01 4.69742388e-01 5.49333334e-01 6.22224987e-01 6.86781526e-01 7.41479278e-01 7.85116732e-01 8.17337394e-01 8.39314640e-01 8.52719307e-01 8.60765040e-01 8.61284018e-01 8.60778093e-01 8.52748454e-01 8.39367270e-01 8.17428052e-01 7.85269797e-01 7.41732121e-01 6.87197566e-01 6.22927785e-01 5.50605059e-01 4.72338110e-01 3.91455263e-01 3.16117823e-01 2.33183980e-01 3.19141150e-01 1.73938692e-01 5.57136200e-02 5.65299168e-02 2.04976365e-01 2.93768615e-01 3.79492730e-01 4.62451965e-01 5.40683806e-01 6.12477601e-01 6.76286280e-01 7.30699778e-01 7.74610817e-01 8.07620466e-01 8.30546439e-01 8.45013201e-01 8.52705896e-01 8.55177164e-01 8.52719307e-01 8.45043421e-01 8.30601931e-01 8.07717383e-01 7.74777293e-01 7.30983078e-01 6.76772475e-01 6.13341689e-01 5.42336524e-01 4.66037244e-01 3.88734937e-01 3.23180497e-01 2.48060718e-01 4.10006821e-01 2.28853688e-01 5.23897223e-02 5.44350520e-02 1.99981913e-01 2.86929131e-01 3.69979858e-01 4.50375080e-01 5.26338160e-01 5.96271515e-01 6.58749163e-01 7.12509632e-01 7.56573200e-01 7.90511549e-01 8.14732134e-01 8.30531240e-01 8.39286387e-01 8.42064857e-01 8.39301050e-01 8.30564618e-01 8.14793229e-01 7.90617585e-01 7.56754041e-01 7.12817550e-01 6.59280419e-01 5.97218812e-01 5.28139234e-01 4.54203129e-01 3.79581034e-01 3.16621244e-01 2.53099322e-01 4.40079719e-01 2.63940185e-01 4.86709960e-02 5.25342673e-02 1.93279952e-01 2.77598679e-01 3.56877863e-01 4.33670640e-01 5.06435156e-01 5.73701620e-01 6.34166539e-01 6.86709642e-01 7.30474532e-01 7.65022755e-01 7.90491760e-01 8.07588160e-01 8.17295015e-01 8.20438743e-01 8.17312419e-01 8.07627022e-01 7.90561199e-01 7.65139341e-01 7.30667293e-01 6.87029362e-01 6.34703934e-01 5.74627519e-01 5.08101642e-01 4.36911047e-01 3.64038855e-01 2.96798855e-01 2.40264028e-01 3.97264510e-01 2.65862286e-01 4.47758660e-02 4.79696691e-02 1.85530126e-01 2.66086698e-01 3.40451181e-01 4.12575901e-01 4.81191546e-01 5.44948161e-01 6.02637053e-01 6.53241396e-01 6.95991397e-01 7.30439007e-01 7.56524324e-01 7.74557710e-01 7.85060585e-01 7.88505673e-01 7.85081923e-01 7.74603963e-01 7.56603420e-01 7.30565488e-01 6.96190655e-01 6.53556705e-01 6.03141248e-01 5.45763552e-01 4.82529551e-01 4.14830625e-01 3.44445348e-01 2.73924470e-01 2.12801769e-01 2.96648651e-01 2.36437112e-01 4.12847064e-02 4.35706675e-02 1.77232787e-01 2.52765983e-01 3.21036994e-01 3.87403786e-01 4.50912267e-01 5.10302424e-01 5.64411700e-01 6.12275183e-01 6.53164327e-01 6.86610758e-01 7.12415695e-01 7.30619490e-01 7.41410434e-01 7.44987965e-01 7.41436005e-01 7.30673313e-01 7.12503791e-01 6.86744392e-01 6.53363109e-01 6.12571418e-01 5.64854622e-01 5.10958552e-01 4.51856315e-01 3.88695896e-01 3.22688818e-01 2.54701346e-01 1.86606556e-01 1.85434863e-01 1.88966051e-01 3.79829705e-02 3.98772210e-02 1.68818161e-01 2.38126889e-01 2.99062759e-01 3.58553380e-01 4.16008353e-01 4.70193595e-01 5.19925594e-01 5.64240873e-01 6.02418005e-01 6.33963346e-01 6.58587813e-01 6.76169991e-01 6.86700523e-01 6.90213799e-01 6.86729491e-01 6.76229477e-01 6.58681512e-01 6.34098589e-01 6.02607846e-01 5.64506173e-01 5.20292580e-01 4.70677286e-01 4.16564465e-01 3.58993411e-01 2.99013793e-01 2.37393573e-01 1.71083853e-01 1.15233958e-01 1.41129807e-01 3.48355286e-02 3.66648138e-02 1.60998106e-01 2.22841218e-01 2.75061429e-01 3.26528996e-01 3.77029538e-01 4.25224572e-01 4.69824165e-01 5.09826839e-01 5.44504523e-01 5.73348463e-01 5.96022010e-01 6.12321138e-01 6.22137547e-01 6.25423908e-01 6.22167706e-01 6.12381816e-01 5.96114278e-01 5.73475361e-01 5.44672608e-01 5.10047078e-01 4.70105380e-01 4.25540090e-01 3.77219737e-01 3.26123297e-01 2.73218572e-01 2.19300672e-01 1.60897166e-01 8.54647681e-02 1.04884371e-01 3.18407565e-02 3.38500775e-02 1.54928803e-01 2.07823664e-01 2.49678493e-01 2.91984022e-01 3.34732443e-01 3.76235902e-01 4.15005177e-01 4.49986309e-01 4.80455488e-01 5.05911589e-01 5.26007712e-01 5.40510118e-01 5.49270809e-01 5.52208960e-01 5.49298644e-01 5.40564597e-01 5.26086748e-01 5.06012797e-01 4.80577976e-01 4.50132310e-01 4.15174752e-01 3.76383394e-01 3.34594131e-01 2.90665001e-01 2.45343879e-01 1.99362233e-01 1.49812222e-01 7.46644884e-02 8.16949382e-02 2.89417151e-02 3.13504003e-02 1.52202368e-01 1.94122106e-01 2.23626703e-01 2.55821139e-01 2.90224671e-01 3.24430257e-01 3.56706530e-01 3.85987848e-01 4.11594421e-01 4.33062941e-01 4.50064749e-01 4.62366849e-01 4.69812900e-01 4.72312242e-01 4.69834208e-01 4.62406009e-01 4.50114280e-01 4.33111191e-01 4.11626548e-01 3.85990769e-01 3.56674999e-01 3.24344933e-01 2.89838254e-01 2.53739357e-01 2.15856314e-01 1.76705062e-01 1.36584416e-01 6.68469220e-02 6.75580502e-02 2.57889926e-02 2.90938504e-02 1.54017910e-01 1.81994587e-01 1.97498158e-01 2.19419181e-01 2.45246395e-01 2.71599859e-01 2.96680689e-01 3.19557369e-01 3.39661956e-01 3.56594950e-01 3.70057881e-01 3.79829586e-01 3.85756284e-01 3.87746543e-01 3.85768026e-01 3.79845679e-01 3.70061338e-01 3.56555074e-01 3.39531064e-01 3.19274902e-01 2.96200037e-01 2.70947367e-01 2.44491279e-01 2.17546403e-01 1.87174141e-01 1.49613813e-01 1.17341407e-01 5.60023077e-02 5.51325344e-02 2.19846070e-02 2.68852748e-02 1.59089684e-01 1.69070080e-01 1.71860486e-01 1.85169861e-01 2.02616662e-01 2.20470920e-01 2.37514958e-01 2.53220975e-01 2.67193973e-01 2.79092669e-01 2.88635045e-01 2.95604199e-01 2.99847752e-01 3.01274538e-01 2.99850911e-01 2.95597702e-01 2.88587153e-01 2.78939068e-01 2.66817719e-01 2.52435565e-01 2.36090556e-01 2.18302339e-01 2.00133964e-01 1.83443442e-01 1.67213634e-01 1.31443858e-01 9.04852450e-02 4.03375365e-02 4.08157483e-02 1.05871009e-02 2.46054828e-02 1.59443647e-01 1.53034985e-01 1.49702340e-01 1.57247901e-01 1.66293398e-01 1.74845085e-01 1.83121756e-01 1.91129550e-01 1.98588774e-01 2.05159605e-01 2.10551858e-01 2.14549467e-01 2.17006087e-01 2.17835978e-01 2.17006713e-01 2.14533344e-01 2.10472435e-01 2.04913214e-01 1.97964042e-01 1.89738065e-01 1.80363938e-01 1.70106128e-01 1.59754604e-01 1.51353329e-01 1.48949072e-01 1.48352399e-01 1.13970935e-01 3.28112543e-02 2.94993445e-02 1.06038619e-02 1.11784963e-02 1.60031870e-01 1.46379426e-01 1.39687657e-01 1.39768049e-01 1.39064312e-01 1.38612017e-01 1.39186934e-01 1.40615523e-01 1.42458394e-01 1.44337371e-01 1.45996034e-01 1.47272736e-01 1.48070708e-01 1.48342073e-01 1.48065567e-01 1.47244290e-01 1.45894617e-01 1.44044518e-01 1.41715989e-01 1.38902053e-01 1.35565326e-01 1.31722137e-01 1.27808422e-01 1.25502855e-01 1.28745556e-01 1.44050419e-01 1.72288030e-01 2.20931202e-01 2.31140703e-02 4.54139411e-02 1.63675398e-02 1.78859368e-01 1.41796231e-01 1.37126341e-01 1.30739093e-01 1.25354201e-01 1.21853411e-01 1.19853109e-01 1.18778765e-01 1.18213207e-01 1.17912546e-01 1.17748603e-01 1.17657840e-01 1.17609881e-01 1.17590733e-01 1.17594481e-01 1.17619097e-01 1.17663510e-01 1.17723934e-01 1.17787831e-01 1.17825314e-01 1.17784828e-01 1.17619187e-01 1.17424779e-01 1.17911644e-01 1.21115930e-01 1.28467858e-01 1.42470211e-01 5.68073153e-01 1.64214119e-01 
