# vtk DataFile Version 2.0
results/11_density.vtk, Created by Freefem++ 
ASCII
DATASET UNSTRUCTURED_GRID
POINTS 961 float
0 0 0
0.033333333 0 0
0.066666667 0 0
0.1 0 0
0.13333333 0 0
0.16666667 0 0
0.2 0 0
0.23333333 0 0
0.26666667 0 0
0.3 0 0
0.33333333 0 0
0.36666667 0 0
0.4 0 0
0.43333333 0 0
0.46666667 0 0
0.5 0 0
0.53333333 0 0
0.56666667 0 0
0.6 0 0
0.63333333 0 0
0.66666667 0 0
0.7 0 0
0.73333333 0 0
0.76666667 0 0
0.8 0 0
0.83333333 0 0
0.86666667 0 0
0.9 0 0
0.93333333 0 0
0.96666667 0 0
1 0 0
0 0.033333333 0
0.033333333 0.033333333 0
0.066666667 0.033333333 0
0.1 0.033333333 0
0.13333333 0.033333333 0
0.16666667 0.033333333 0
0.2 0.033333333 0
0.23333333 0.033333333 0
0.26666667 0.033333333 0
0.3 0.033333333 0
0.33333333 0.033333333 0
0.36666667 0.033333333 0
0.4 0.033333333 0
0.43333333 0.033333333 0
0.46666667 0.033333333 0
0.5 0.033333333 0
0.53333333 0.033333333 0
0.56666667 0.033333333 0
0.6 0.033333333 0
0.63333333 0.033333333 0
0.66666667 0.033333333 0
0.7 0.033333333 0
0.73333333 0.033333333 0
0.76666667 0.033333333 0
0.8 0.033333333 0
0.83333333 0.033333333 0
0.86666667 0.033333333 0
0.9 0.033333333 0
0.93333333 0.033333333 0
0.96666667 0.033333333 0
1 0.033333333 0
0 0.066666667 0
0.033333333 0.066666667 0
0.066666667 0.066666667 0
0.1 0.066666667 0
0.13333333 0.066666667 0
0.16666667 0.066666667 0
0.2 0.066666667 0
0.23333333 0.066666667 0
0.26666667 0.066666667 0
0.3 0.066666667 0
0.33333333 0.066666667 0
0.36666667 0.066666667 0
0.4 0.066666667 0
0.43333333 0.066666667 0
0.46666667 0.066666667 0
0.5 0.066666667 0
0.53333333 0.066666667 0
0.56666667 0.066666667 0
0.6 0.066666667 0
0.63333333 0.066666667 0
0.66666667 0.066666667 0
0.7 0.066666667 0
0.73333333 0.066666667 0
0.76666667 0.066666667 0
0.8 0.066666667 0
0.83333333 0.066666667 0
0.86666667 0.066666667 0
0.9 0.066666667 0
0.93333333 0.066666667 0
0.96666667 0.066666667 0
1 0.066666667 0
0 0.1 0
0.033333333 0.1 0
0.066666667 0.1 0
0.1 0.1 0
0.13333333 0.1 0
0.16666667 0.1 0
0.2 0.1 0
0.23333333 0.1 0
0.26666667 0.1 0
0.3 0.1 0
0.33333333 0.1 0
0.36666667 0.1 0
0.4 0.1 0
0.43333333 0.1 0
0.46666667 0.1 0
0.5 0.1 0
0.53333333 0.1 0
0.56666667 0.1 0
0.6 0.1 0
0.63333333 0.1 0
0.66666667 0.1 0
0.7 0.1 0
0.73333333 0.1 0
0.76666667 0.1 0
0.8 0.1 0
0.83333333 0.1 0
0.86666667 0.1 0
0.9 0.1 0
0.93333333 0.1 0
0.96666667 0.1 0
1 0.1 0
0 0.13333333 0
0.033333333 0.13333333 0
0.066666667 0.13333333 0
0.1 0.13333333 0
0.13333333 0.13333333 0
0.16666667 0.13333333 0
0.2 0.13333333 0
0.23333333 0.13333333 0
0.26666667 0.13333333 0
0.3 0.13333333 0
0.33333333 0.13333333 0
0.36666667 0.13333333 0
0.4 0.13333333 0
0.43333333 0.13333333 0
0.46666667 0.13333333 0
0.5 0.13333333 0
0.53333333 0.13333333 0
0.56666667 0.13333333 0
0.6 0.13333333 0
0.63333333 0.13333333 0
0.66666667 0.13333333 0
0.7 0.13333333 0
0.73333333 0.13333333 0
0.76666667 0.13333333 0
0.8 0.13333333 0
0.83333333 0.13333333 0
0.86666667 0.13333333 0
0.9 0.13333333 0
0.93333333 0.13333333 0
0.96666667 0.13333333 0
1 0.13333333 0
0 0.16666667 0
0.033333333 0.16666667 0
0.066666667 0.16666667 0
0.1 0.16666667 0
0.13333333 0.16666667 0
0.16666667 0.16666667 0
0.2 0.16666667 0
0.23333333 0.16666667 0
0.26666667 0.16666667 0
0.3 0.16666667 0
0.33333333 0.16666667 0
0.36666667 0.16666667 0
0.4 0.16666667 0
0.43333333 0.16666667 0
0.46666667 0.16666667 0
0.5 0.16666667 0
0.53333333 0.16666667 0
0.56666667 0.16666667 0
0.6 0.16666667 0
0.63333333 0.16666667 0
0.66666667 0.16666667 0
0.7 0.16666667 0
0.73333333 0.16666667 0
0.76666667 0.16666667 0
0.8 0.16666667 0
0.83333333 0.16666667 0
0.86666667 0.16666667 0
0.9 0.16666667 0
0.93333333 0.16666667 0
0.96666667 0.16666667 0
1 0.16666667 0
0 0.2 0
0.033333333 0.2 0
0.066666667 0.2 0
0.1 0.2 0
0.13333333 0.2 0
0.16666667 0.2 0
0.2 0.2 0
0.23333333 0.2 0
0.26666667 0.2 0
0.3 0.2 0
0.33333333 0.2 0
0.36666667 0.2 0
0.4 0.2 0
0.43333333 0.2 0
0.46666667 0.2 0
0.5 0.2 0
0.53333333 0.2 0
0.56666667 0.2 0
0.6 0.2 0
0.63333333 0.2 0
0.66666667 0.2 0
0.7 0.2 0
0.73333333 0.2 0
0.76666667 0.2 0
0.8 0.2 0
0.83333333 0.2 0
0.86666667 0.2 0
0.9 0.2 0
0.93333333 0.2 0
0.96666667 0.2 0
1 0.2 0
0 0.23333333 0
0.033333333 0.23333333 0
0.066666667 0.23333333 0
0.1 0.23333333 0
0.13333333 0.23333333 0
0.16666667 0.23333333 0
0.2 0.23333333 0
0.23333333 0.23333333 0
0.26666667 0.23333333 0
0.3 0.23333333 0
0.33333333 0.23333333 0
0.36666667 0.23333333 0
0.4 0.23333333 0
0.43333333 0.23333333 0
0.46666667 0.23333333 0
0.5 0.23333333 0
0.53333333 0.23333333 0
0.56666667 0.23333333 0
0.6 0.23333333 0
0.63333333 0.23333333 0
0.66666667 0.23333333 0
0.7 0.23333333 0
0.73333333 0.23333333 0
0.76666667 0.23333333 0
0.8 0.23333333 0
0.83333333 0.23333333 0
0.86666667 0.23333333 0
0.9 0.23333333 0
0.93333333 0.23333333 0
0.96666667 0.23333333 0
1 0.23333333 0
0 0.26666667 0
0.033333333 0.26666667 0
0.066666667 0.26666667 0
0.1 0.26666667 0
0.13333333 0.26666667 0
0.16666667 0.26666667 0
0.2 0.26666667 0
0.23333333 0.26666667 0
0.26666667 0.26666667 0
0.3 0.26666667 0
0.33333333 0.26666667 0
0.36666667 0.26666667 0
0.4 0.26666667 0
0.43333333 0.26666667 0
0.46666667 0.26666667 0
0.5 0.26666667 0
0.53333333 0.26666667 0
0.56666667 0.26666667 0
0.6 0.26666667 0
0.63333333 0.26666667 0
0.66666667 0.26666667 0
0.7 0.26666667 0
0.73333333 0.26666667 0
0.76666667 0.26666667 0
0.8 0.26666667 0
0.83333333 0.26666667 0
0.86666667 0.26666667 0
0.9 0.26666667 0
0.93333333 0.26666667 0
0.96666667 0.26666667 0
1 0.26666667 0
0 0.3 0
0.033333333 0.3 0
0.066666667 0.3 0
0.1 0.3 0
0.13333333 0.3 0
0.16666667 0.3 0
0.2 0.3 0
0.23333333 0.3 0
0.26666667 0.3 0
0.3 0.3 0
0.33333333 0.3 0
0.36666667 0.3 0
0.4 0.3 0
0.43333333 0.3 0
0.46666667 0.3 0
0.5 0.3 0
0.53333333 0.3 0
0.56666667 0.3 0
0.6 0.3 0
0.63333333 0.3 0
0.66666667 0.3 0
0.7 0.3 0
0.73333333 0.3 0
0.76666667 0.3 0
0.8 0.3 0
0.83333333 0.3 0
0.86666667 0.3 0
0.9 0.3 0
0.93333333 0.3 0
0.96666667 0.3 0
1 0.3 0
0 0.33333333 0
0.033333333 0.33333333 0
0.066666667 0.33333333 0
0.1 0.33333333 0
0.13333333 0.33333333 0
0.16666667 0.33333333 0
0.2 0.33333333 0
0.23333333 0.33333333 0
0.26666667 0.33333333 0
0.3 0.33333333 0
0.33333333 0.33333333 0
0.36666667 0.33333333 0
0.4 0.33333333 0
0.43333333 0.33333333 0
0.46666667 0.33333333 0
0.5 0.33333333 0
0.53333333 0.33333333 0
0.56666667 0.33333333 0
0.6 0.33333333 0
0.63333333 0.33333333 0
0.66666667 0.33333333 0
0.7 0.33333333 0
0.73333333 0.33333333 0
0.76666667 0.33333333 0
0.8 0.33333333 0
0.83333333 0.33333333 0
0.86666667 0.33333333 0
0.9 0.33333333 0
0.93333333 0.33333333 0
0.96666667 0.33333333 0
1 0.33333333 0
0 0.36666667 0
0.033333333 0.36666667 0
0.066666667 0.36666667 0
0.1 0.36666667 0
0.13333333 0.36666667 0
0.16666667 0.36666667 0
0.2 0.36666667 0
0.23333333 0.36666667 0
0.26666667 0.36666667 0
0.3 0.36666667 0
0.33333333 0.36666667 0
0.36666667 0.36666667 0
0.4 0.36666667 0
0.43333333 0.36666667 0
0.46666667 0.36666667 0
0.5 0.36666667 0
0.53333333 0.36666667 0
0.56666667 0.36666667 0
0.6 0.36666667 0
0.63333333 0.36666667 0
0.66666667 0.36666667 0
0.7 0.36666667 0
0.73333333 0.36666667 0
0.76666667 0.36666667 0
0.8 0.36666667 0
0.83333333 0.36666667 0
0.86666667 0.36666667 0
0.9 0.36666667 0
0.93333333 0.36666667 0
0.96666667 0.36666667 0
1 0.36666667 0
0 0.4 0
0.033333333 0.4 0
0.066666667 0.4 0
0.1 0.4 0
0.13333333 0.4 0
0.16666667 0.4 0
0.2 0.4 0
0.23333333 0.4 0
0.26666667 0.4 0
0.3 0.4 0
0.33333333 0.4 0
0.36666667 0.4 0
0.4 0.4 0
0.43333333 0.4 0
0.46666667 0.4 0
0.5 0.4 0
0.53333333 0.4 0
0.56666667 0.4 0
0.6 0.4 0
0.63333333 0.4 0
0.66666667 0.4 0
0.7 0.4 0
0.73333333 0.4 0
0.76666667 0.4 0
0.8 0.4 0
0.83333333 0.4 0
0.86666667 0.4 0
0.9 0.4 0
0.93333333 0.4 0
0.96666667 0.4 0
1 0.4 0
0 0.43333333 0
0.033333333 0.43333333 0
0.066666667 0.43333333 0
0.1 0.43333333 0
0.13333333 0.43333333 0
0.16666667 0.43333333 0
0.2 0.43333333 0
0.23333333 0.43333333 0
0.26666667 0.43333333 0
0.3 0.43333333 0
0.33333333 0.43333333 0
0.36666667 0.43333333 0
0.4 0.43333333 0
0.43333333 0.43333333 0
0.46666667 0.43333333 0
0.5 0.43333333 0
0.53333333 0.43333333 0
0.56666667 0.43333333 0
0.6 0.43333333 0
0.63333333 0.43333333 0
0.66666667 0.43333333 0
0.7 0.43333333 0
0.73333333 0.43333333 0
0.76666667 0.43333333 0
0.8 0.43333333 0
0.83333333 0.43333333 0
0.86666667 0.43333333 0
0.9 0.43333333 0
0.93333333 0.43333333 0
0.96666667 0.43333333 0
1 0.43333333 0
0 0.46666667 0
0.033333333 0.46666667 0
0.066666667 0.46666667 0
0.1 0.46666667 0
0.13333333 0.46666667 0
0.16666667 0.46666667 0
0.2 0.46666667 0
0.23333333 0.46666667 0
0.26666667 0.46666667 0
0.3 0.46666667 0
0.33333333 0.46666667 0
0.36666667 0.46666667 0
0.4 0.46666667 0
0.43333333 0.46666667 0
0.46666667 0.46666667 0
0.5 0.46666667 0
0.53333333 0.46666667 0
0.56666667 0.46666667 0
0.6 0.46666667 0
0.63333333 0.46666667 0
0.66666667 0.46666667 0
0.7 0.46666667 0
0.73333333 0.46666667 0
0.76666667 0.46666667 0
0.8 0.46666667 0
0.83333333 0.46666667 0
0.86666667 0.46666667 0
0.9 0.46666667 0
0.93333333 0.46666667 0
0.96666667 0.46666667 0
1 0.46666667 0
0 0.5 0
0.033333333 0.5 0
0.066666667 0.5 0
0.1 0.5 0
0.13333333 0.5 0
0.16666667 0.5 0
0.2 0.5 0
0.23333333 0.5 0
0.26666667 0.5 0
0.3 0.5 0
0.33333333 0.5 0
0.36666667 0.5 0
0.4 0.5 0
0.43333333 0.5 0
0.46666667 0.5 0
0.5 0.5 0
0.53333333 0.5 0
0.56666667 0.5 0
0.6 0.5 0
0.63333333 0.5 0
0.66666667 0.5 0
0.7 0.5 0
0.73333333 0.5 0
0.76666667 0.5 0
0.8 0.5 0
0.83333333 0.5 0
0.86666667 0.5 0
0.9 0.5 0
0.93333333 0.5 0
0.96666667 0.5 0
1 0.5 0
0 0.53333333 0
0.033333333 0.53333333 0
0.066666667 0.53333333 0
0.1 0.53333333 0
0.13333333 0.53333333 0
0.16666667 0.53333333 0
0.2 0.53333333 0
0.23333333 0.53333333 0
0.26666667 0.53333333 0
0.3 0.53333333 0
0.33333333 0.53333333 0
0.36666667 0.53333333 0
0.4 0.53333333 0
0.43333333 0.53333333 0
0.46666667 0.53333333 0
0.5 0.53333333 0
0.53333333 0.53333333 0
0.56666667 0.53333333 0
0.6 0.53333333 0
0.63333333 0.53333333 0
0.66666667 0.53333333 0
0.7 0.53333333 0
0.73333333 0.53333333 0
0.76666667 0.53333333 0
0.8 0.53333333 0
[...]
CELL_DATA 1920
Scalars  Label int 1
LOOKUP_TABLE FreeFempp_table
0
0
0
0
0
0
0
0
0
0
0
0
0
0
0
0
0
0
0
0
0
0
0
0
0
0
0
0
0
0
0
0
0
0
0
0
0
0
0
0
0
0
0
0
0
0
0
0
0
0
0
0
0
0
0
0
0
0
0
0
0
0
0
0
0
0
0
0
0
0
0
0
0
0
0
0
0
0
0
0
0
0
0
0
0
0
0
0
0
0
0
0
0
0
0
0
0
0
0
0
0
0
0
0
0
0
0
0
0
0
0
0
0
0
0
0
0
0
0
0
0
0
0
0
0
0
0
0
0
0
0
0
0
0
0
0
0
0
0
0
0
0
0
0
0
0
0
0
0
0
0
0
0
0
0
0
0
0
0
0
0
0
0
0
0
0
0
0
0
0
0
0
0
0
0
0
0
0
0
0
0
0
0
0
0
0
0
0
0
0
0
0
0
0
0
0
0
0
0
0
0
0
0
0
0
0
0
0
0
0
0
0
0
0
0
0
0
0
0
0
0
0
0
0
0
0
0
0
0
0
0
0
0
0
0
0
0
0
0
0
0
0
0
0
0
0
0
0
0
0
0
0
0
0
0
0
0
0
0
0
0
0
0
0
0
0
0
0
0
0
0
0
0
0
0
0
0
0
0
0
0
0
0
0
0
0
0
0
0
0
0
0
0
0
0
0
0
0
0
0
0
0
0
0
0
0
0
0
0
0
0
0
0
0
0
0
0
0
0
0
0
0
0
0
0
0
0
0
0
0
0
0
0
0
0
0
0
0
0
0
0
0
0
0
0
0
0
0
0
0
0
0
0
0
0
0
0
0
0
0
0
0
0
0
0
0
0
0
0
0
0
0
0
0
0
0
0
0
0
0
0
0
0
0
0
0
0
0
0
0
0
0
0
0
0
0
0
0
0
0
0
0
0
0
0
0
0
0
0
0
0
0
0
0
0
0
0
0
0
0
0
0
0
0
0
0
0
0
0
0
0
0
0
0
0
0
0
0
0
0
0
0
0
0
0
0
0
0
0
0
0
0
0
0
0
0
0
0
0
0
0
0
0
0
0
0
0
0
0
0
0
0
0
0
0
0
0
0
0
0
0
0
0
0
0
0
0
0
0
0
0
0
0
0
0
0
0
0
0
0
0
0
0
0
0
0
0
0
0
0
0
0
0
0
0
0
0
0
0
0
0
0
0
0
0
0
0
0
0
0
0
0
0
0
0
0
0
0
0
0
0
0
0
0
0
0
0
0
0
0
0
0
0
0
0
0
0
0
0
0
0
0
0
0
0
0
0
0
0
0
0
0
0
0
0
0
0
0
0
0
0
0
0
0
0
0
0
0
0
0
0
0
0
0
0
0
0
0
0
0
0
0
0
0
0
0
0
0
0
0
0
0
0
0
0
0
0
0
0
0
0
0
0
0
0
0
0
0
0
0
0
0
0
0
0
0
0
0
0
0
0
0
0
0
0
0
0
0
0
0
0
0
0
0
0
0
0
0
0
0
0
0
0
0
0
0
0
0
0
0
0
0
0
0
0
0
0
0
0
0
0
0
0
0
0
0
0
0
0
0
0
0
0
0
0
0
0
0
0
0
0
0
0
0
0
0
0
0
0
0
0
0
0
0
0
0
0
0
0
0
0
0
0
0
0
0
0
0
0
0
0
0
0
0
0
0
0
0
0
0
0
0
0
0
0
0
0
0
0
0
0
0
0
0
0
0
0
0
0
0
0
0
0
0
0
0
0
0
0
0
0
0
0
0
0
0
0
0
0
0
0
0
0
0
0
0
0
0
0
0
0
0
0
0
0
0
0
0
0
0
0
0
0
0
0
0
0
0
0
0
0
0
0
0
0
0
0
0
0
0
0
0
0
0
0
0
0
0
0
0
0
0
0
0
0
0
0
0
0
0
0
0
0
0
0
0
0
0
0
0
0
0
0
0
0
0
0
0
0
0
0
0
0
0
0
0
0
0
0
0
0
0
0
0
0
0
0
0
0
0
0
0
0
0
0
0
0
0
0
0
0
0
0
0
0
0
0
0
0
0
0
0
0
0
0
0
0
0
0
0
0
0
0
0
0
0
0
0
0
0
0
0
0
0
0
0
0
0
0
0
0
0
0
0
0
0
0
0
0
0
0
0
0
0
0
0
0
0
0
0
0
0
0
0
0
0
0
0
0
0
0
0
0
0
0
0
0
0
0
0
0
0
0
0
0
0
0
0
0
0
0
0
0
0
0
0
0
0
0
0
0
0
0
0
0
0
0
0
0
0
0
0
0
0
0
0
0
0
0
0
0
0
0
0
0
0
0
0
0
0
0
0
0
0
0
0
0
0
0
0
0
0
0
0
0
0
0
0
0
0
0
0
0
0
0
0
0
0
0
0
0
0
0
0
0
0
0
0
0
0
0
0
0
0
0
0
0
0
0
0
0
0
0
0
0
0
0
0
0
0
0
0
0
0
0
0
0
0
0
0
0
0
0
0
0
0
0
0
0
0
0
0
0
0
0
0
0
0
0
0
0
0
0
0
0
0
0
0
0
0
0
0
0
0
0
0
0
0
0
0
0
0
0
0
0
0
0
0
0
0
0
0
0
0
0
0
0
0
0
0
0
0
0
0
0
0
0
0
0
0
0
0
0
0
0
0
0
0
0
0
0
0
0
0
0
0
0
0
0
0
0
0
0
0
0
0
0
0
0
0
0
0
0
0
0
0
0
0
0
0
0
0
0
0
0
0
0
0
0
0
0
0
0
0
0
0
0
0
0
0
0
0
0
0
0
0
0
0
0
0
0
0
0
0
0
0
0
0
0
0
0
0
0
0
0
0
0
0
0
0
0
0
0
0
0
0
0
0
0
0
0
0
0
0
0
0
0
0
0
0
0
0
0
0
0
0
0
0
0
0
0
0
0
0
0
0
0
0
0
0
0
0
0
0
0
0
0
0
0
0
0
0
0
0
0
0
0
0
0
0
0
0
0
0
0
0
0
0
0
0
0
0
0
0
0
0
0
0
0
0
0
0
0
0
0
0
0
0
0
0
0
0
0
0
0
0
0
0
0
0
0
0
0
0
0
0
0
0
0
0
0
0
0
0
0
0
0
0
0
0
0
0
0
0
0
0
0
0
0
0
0
0
0
0
0
0
0
0
0
0
0
0
0
0
0
0
0
0
0
0
0
0
0
0
0
0
0
0
0
0
0
0
0
0
0
0
0
0
0
0
0
0
0
0
0
0
0
0
0
0
0
0
0
0
0
0
0
0
0
0
0
0
0
0
0
0
0
0
0
0
0
0
0
0
0
0
0
0
0
0
0
0
0
0
0
0
0
0
0
0
0
0
0
0
0
0
0
0
0
0
0
0
0
0
0
0
0
0
0
0
0
0
0
0
0
0
0
0
0
0
0
0
0
0
0
0
0
0
0
0
0
0
0
0
0
0
0
0
0
0
0
0
0
0
0
0
0
0
0
0
0
0
0
0
0
0
0
0
0
0
0
0
0
0
0
0
0
0
0
0
0
0
0
0
0
0
0
0
0
0
0
0
0
0
0
0
0
0
0
0
0
0
0
0
0
0
0
0
0
0
0
0
0
0
0
0
0
0
0
0
0
0
0
0
0
0
0
0
0
0
0
0
0
0
0
0
0
0
0
0
0
0
0
0
0
0
0
0
0
0
0
0
0
0
0
0
0
0
0
0
0
0
0
0
0
0
0
0
0
0
0
0
0
0
0
0
0
0
0
0
0
0
0
0
0
0
0
0
0
0
0
0
0
0
0
0
0
0
0
0
0
0
0
0
0
0
0
0
0
0
0
0
0
0
0
0
0
0
0
0
0
0
0
0
0
0
0
0
0
0
0
0
0
0
0
0
0
0
0
0
0
0
0
0
0
0
0
0
0
0
0
0
0
0
0
0
0
0
0
0
0
0
0
0
0
0
0
0
0
0
0
0
0
0
0
0
0
0
0
0
0
0
0
0
0
0
0
0
0
0
0
0
0
0
0
0
0
0
0
0
0
0
0
0
0
0
0
0
0
0
0
0
0
0
0
0
0
0
0
0
0
0
0
0
0
0
0
0
0
0
1
1
1
1
1
1
1
1
1
1
1
1
1
1
1
1
1
1
1
1
1
1
1
1
1
1
1
1
1
1
2
2
2
2
2
2
2
2
2
2
2
2
2
2
2
2
2
2
2
2
2
2
2
2
2
2
2
2
2
2
3
3
3
3
3
3
3
3
3
3
3
3
3
3
3
3
3
3
3
3
3
3
3
3
3
3
3
3
3
3
4
4
4
4
4
4
4
4
4
4
4
4
4
4
4
4
4
4
4
4
4
4
4
4
4
4
4
4
4
4

LOOKUP_TABLE FreeFempp_table 5
1.00000000 0.00000000 0.00000000 1.00000000
1.00000000 1.00000000 0.00000000 1.00000000
1.00000000 0.00000000 1.00000000 1.00000000
0.00000000 1.00000000 0.00000000 1.00000000
0.00000000 1.00000000 1.00000000 1.00000000

POINT_DATA 961
FIELD FieldData 1
Density 1 961 float
9.12386866e-04 8.75264057e-04 8.64660833e-04 8.50592740e-04 8.08446901e-04 6.79715769e-04 4.09362401e-04 1.87982063e-04 1.77404858e-04 5.19557681e-04 1.45569537e-02 2.62334079e-01 7.75537014e-01 8.16844165e-01 6.63631380e-01 6.52574062e-01 7.26489902e-01 7.61783242e-01 7.72661269e-01 7.72631705e-01 7.68734276e-01 7.65165746e-01 7.66000092e-01 7.73727834e-01 7.85276473e-01 7.95485497e-01 8.01838994e-01 8.04500461e-01 8.04981589e-01 8.04259837e-01 8.01146567e-01 2.99768115e-04 3.19702754e-04 3.19911633e-04 3.18569597e-04 3.13195545e-04 2.92139332e-04 2.43943403e-04 1.85632176e-04 1.82692631e-04 3.75890289e-04 5.80811827e-03 1.30716145e-01 6.95309401e-01 7.75004029e-01 4.91806597e-01 4.03664559e-01 4.99935269e-01 5.60810983e-01 5.89763522e-01 6.11889303e-01 6.29841566e-01 6.46763265e-01 6.72315717e-01 7.07311690e-01 7.41001010e-01 7.65917361e-01 7.80884445e-01 7.88228452e-01 7.91174948e-01 7.92690933e-01 7.91969597e-01 4.77229682e-04 4.24359692e-04 4.02242906e-04 4.06262407e-04 4.23096615e-04 4.33848298e-04 4.19114513e-04 3.79696314e-04 3.54978110e-04 4.06463747e-04 1.04394415e-03 1.03659639e-02 2.51570225e-01 5.36099017e-01 1.45864934e-01 4.52709161e-02 4.20973487e-02 4.85265255e-02 5.65218478e-02 7.18131587e-02 9.47978646e-02 1.25255868e-01 1.91818684e-01 3.34204286e-01 4.96129900e-01 6.11528933e-01 6.77611291e-01 7.12138355e-01 7.29789138e-01 7.41007507e-01 7.47418404e-01 6.18964154e-03 4.51163994e-03 3.76462191e-03 3.88443447e-03 4.53057140e-03 5.40690031e-03 6.08300883e-03 6.03520777e-03 4.72368905e-03 2.38700514e-03 1.13173376e-03 1.50051853e-03 1.04976296e-02 1.78412929e-01 8.78200606e-02 9.38881282e-03 2.89064646e-03 1.85952336e-03 1.62977830e-03 1.69880094e-03 1.93399459e-03 2.38110963e-03 4.13956493e-03 1.71020702e-02 8.79870281e-02 2.67709881e-01 4.40965265e-01 5.47760904e-01 6.05859399e-01 6.40918851e-01 6.60417616e-01 3.63580100e-02 2.74935327e-02 2.10270379e-02 2.06389111e-02 2.38377005e-02 2.89363004e-02 3.38506326e-02 3.57597284e-02 3.13906819e-02 1.96427312e-02 7.86744058e-03 2.33448343e-03 2.41671526e-03 9.73668508e-03 7.43171200e-02 1.48826903e-02 2.28908821e-03 1.02916895e-03 7.91637111e-04 7.36738206e-04 7.02397374e-04 6.33476244e-04 6.23457367e-04 1.01670309e-03 3.50064319e-03 3.36460434e-02 1.55133843e-01 3.13306302e-01 4.30214882e-01 5.03698826e-01 5.40732801e-01 9.71414521e-02 7.57865161e-02 5.76395355e-02 5.32337539e-02 5.65693676e-02 6.35194108e-02 7.06524551e-02 7.43382126e-02 7.04039708e-02 5.59007935e-02 3.49430628e-02 1.63837373e-02 8.01180955e-03 3.61790648e-03 7.58000277e-03 3.96522656e-02 1.35482950e-02 7.26712029e-03 6.87351311e-03 6.38783537e-03 5.00535965e-03 2.99002929e-03 1.46040774e-03 9.56345757e-04 9.61871760e-04 2.30472116e-03 2.20872089e-02 1.10739619e-01 2.45139152e-01 3.55006844e-01 4.08880174e-01 1.81022510e-01 1.47465304e-01 1.16257973e-01 1.03908144e-01 1.01751342e-01 1.04211852e-01 1.07835650e-01 1.09732427e-01 1.06348008e-01 9.39559862e-02 7.25222751e-02 4.80746813e-02 2.83876751e-02 1.15641328e-02 3.56676662e-03 6.65850472e-03 5.57627305e-02 1.42291054e-01 2.47396067e-01 2.40824819e-01 1.46603644e-01 6.21206611e-02 2.18735822e-02 8.11765622e-03 2.84013571e-03 9.63491562e-04 1.85844710e-03 1.87220126e-02 1.01208985e-01 2.18531325e-01 2.82674372e-01 2.87956059e-01 2.46391341e-01 2.04002440e-01 1.81198269e-01 1.68663993e-01 1.61418587e-01 1.57104030e-01 1.53704241e-01 1.48060948e-01 1.35966331e-01 1.14879146e-01 8.71079862e-02 5.84677681e-02 3.16471793e-02 1.12138921e-02 3.40682897e-03 6.74133282e-03 7.07731247e-02 2.29412407e-01 2.88381815e-01 2.39588752e-01 1.81850433e-01 1.23238482e-01 5.52774221e-02 1.30833816e-02 1.59551913e-03 6.69417612e-04 2.10779416e-03 2.78823487e-02 1.13785930e-01 1.75243616e-01 4.21220332e-01 3.79502147e-01 3.31957936e-01 2.99285829e-01 2.74126470e-01 2.53979385e-01 2.38490045e-01 2.26682961e-01 2.15596825e-01 2.00463742e-01 1.76902622e-01 1.44147456e-01 1.05843395e-01 6.66156933e-02 3.27654406e-02 1.08710798e-02 2.92312237e-03 3.20954435e-03 7.60314008e-03 1.16247684e-02 1.23036746e-02 1.40237873e-02 2.97859758e-02 6.94200844e-02 5.90765961e-02 7.65950140e-03 8.57455831e-04 8.53604230e-04 7.60844396e-03 5.22262715e-02 9.73908454e-02 5.71453929e-01 5.39611936e-01 4.97873992e-01 4.61969584e-01 4.28049177e-01 3.96776617e-01 3.70202273e-01 3.48975420e-01 3.30953360e-01 3.11360329e-01 2.84520179e-01 2.46610209e-01 1.97629765e-01 1.40994430e-01 8.41693431e-02 3.86344567e-02 1.12204263e-02 2.01087608e-03 8.59879248e-04 6.61929662e-04 6.37224002e-04 7.87015073e-04 1.57046132e-03 6.37938129e-03 5.80171123e-02 5.94536141e-02 3.09056463e-03 7.30761967e-04 2.32177251e-03 2.10970547e-02 4.78151776e-02 7.11352766e-01 6.94673121e-01 6.67492628e-01 6.38130963e-01 6.05820715e-01 5.72924495e-01 5.42685091e-01 5.17155886e-01 4.95770067e-01 4.75124091e-01 4.49994355e-01 4.15004194e-01 3.65950108e-01 3.00267547e-01 2.19049051e-01 1.32468000e-01 5.93980812e-02 1.43583994e-02 1.62808760e-03 4.60839976e-04 2.97195831e-04 2.90032360e-04 4.14882059e-04 1.10025634e-03 9.98929609e-03 1.32955298e-01 3.07922885e-02 1.22422900e-03 9.96652409e-04 7.28649646e-03 1.88650358e-02 8.15358937e-01 8.10677528e-01 7.97076166e-01 7.77887106e-01 7.54369795e-01 7.28962421e-01 7.04423487e-01 6.82848871e-01 6.64707065e-01 6.48476243e-01 6.31087303e-01 6.08763039e-01 5.77500045e-01 5.32642007e-01 4.68115777e-01 3.77482772e-01 2.60135293e-01 1.28563866e-01 2.80912947e-02 2.82499823e-03 7.72908446e-04 4.84633434e-04 4.82503383e-04 8.13312305e-04 4.02958738e-03 8.78264010e-02 1.32834807e-01 2.60247523e-03 5.79464133e-04 1.67675188e-03 4.27365256e-03 8.78742099e-01 8.80076468e-01 8.73968959e-01 8.61862540e-01 8.46184075e-01 8.29068840e-01 8.12402546e-01 7.97548234e-01 7.84970403e-01 7.74076462e-01 7.63455331e-01 7.51358151e-01 7.36044943e-01 7.15680718e-01 6.87717915e-01 6.47670269e-01 5.87353170e-01 4.90312845e-01 3.17520559e-01 1.07428990e-01 2.13272218e-02 7.45849265e-03 3.67541262e-03 2.81116855e-03 5.58878621e-03 6.11530356e-02 2.53549755e-01 5.81595162e-03 4.09881119e-04 3.20897321e-04 5.13247447e-04 9.11006033e-01 9.14452374e-01 9.10957575e-01 9.01697516e-01 8.89935315e-01 8.77745032e-01 8.66423130e-01 8.56587827e-01 8.48241866e-01 8.40860307e-01 8.33595753e-01 8.25572729e-01 8.16123784e-01 8.04849565e-01 7.91480482e-01 7.75492728e-01 7.55369782e-01 7.27956176e-01 6.85322464e-01 6.16190732e-01 5.16906619e-01 3.67760509e-01 1.64996505e-01 5.89790680e-02 4.93780859e-02 1.80291384e-01 4.83251005e-01 2.37049125e-02 4.85418946e-04 1.80320538e-04 1.68395156e-04 9.21833098e-01 9.25514936e-01 9.21262681e-01 9.10940468e-01 8.99284303e-01 8.88910353e-01 8.80724132e-01 8.74495208e-01 8.69473100e-01 8.64750087e-01 8.59474778e-01 8.53016019e-01 8.45062792e-01 8.35617542e-01 8.24875295e-01 8.13005865e-01 7.99928665e-01 7.85711050e-01 7.73204029e-01 7.73240805e-01 7.96591580e-01 8.07443798e-01 7.23878026e-01 5.17735183e-01 4.69623923e-01 7.04768181e-01 7.54673541e-01 6.82820901e-02 6.98889897e-04 1.66561265e-04 1.41684097e-04 9.14940357e-01 9.17014360e-01 9.06847835e-01 8.88796151e-01 8.72162104e-01 8.61678541e-01 8.57278168e-01 8.56558919e-01 8.56982350e-01 8.56677711e-01 8.54517102e-01 8.50009978e-01 8.43169212e-01 8.34335566e-01 8.23931992e-01 8.12176287e-01 7.98927009e-01 7.84126282e-01 7.69677401e-01 7.62153864e-01 7.67700791e-01 7.71997452e-01 7.47919381e-01 7.19463289e-01 8.04343581e-01 9.14900959e-01 8.35040450e-01 5.80640696e-02 7.18220312e-04 1.78019254e-04 1.54398513e-04 8.87101114e-01 8.82193685e-01 8.50182533e-01 8.04306984e-01 7.71428525e-01 7.62538671e-01 7.71643102e-01 7.88206518e-01 8.04398894e-01 8.16186965e-01 8.22254717e-01 8.22807848e-01 8.18781495e-01 8.11358333e-01 8.01597893e-01 7.90124774e-01 7.77017653e-01 7.62125492e-01 7.45834887e-01 7.29416847e-01 7.13041723e-01 6.95213497e-01 6.91610157e-01 7.56737649e-01 8.89663339e-01 9.49388385e-01 7.98937440e-01 2.54686438e-02 5.57260355e-04 2.08927828e-04 2.24234303e-04 8.30176950e-01 8.02543581e-01 7.00931132e-01 5.77026188e-01 5.13524055e-01 5.20280361e-01 5.70478916e-01 6.35475039e-01 6.94414258e-01 7.37563074e-01 7.63899148e-01 7.76347220e-01 7.78633058e-01 7.74094880e-01 7.65366018e-01 7.54304111e-01 7.42105007e-01 7.29633152e-01 7.17696130e-01 7.06774890e-01 6.97175562e-01 6.95414543e-01 7.29838848e-01 8.31421256e-01 9.33860719e-01 9.54470336e-01 6.81278646e-01 1.09928334e-02 4.33173089e-04 2.52022495e-04 4.00928111e-04 7.41218925e-01 6.62962198e-01 4.29647058e-01 2.40113601e-01 1.83396593e-01 2.05066815e-01 2.82091498e-01 3.99633348e-01 5.25193274e-01 6.25446141e-01 6.89486384e-01 7.23209739e-01 7.36056328e-01 7.35756278e-01 7.27952898e-01 7.16857791e-01 7.05882132e-01 6.98109388e-01 6.96404815e-01 7.03178763e-01 7.21159995e-01 7.57396340e-01 8.23609233e-01 9.07120705e-01 9.56936300e-01 9.40068066e-01 4.32442367e-01 4.93257213e-03 3.56817472e-04 2.88915908e-04 6.15737226e-04 6.37415886e-01 4.94582117e-01 1.86003789e-01 6.00891784e-02 3.89742181e-02 4.97413613e-02 9.28494856e-02 1.90909311e-01 3.46823335e-01 5.07449210e-01 6.20933652e-01 6.82828903e-01 7.08907843e-01 7.13435411e-01 7.06312001e-01 6.94901466e-01 6.85536802e-01 6.84184492e-01 6.96264088e-01 7.25679815e-01 7.73490787e-01 8.36148918e-01 9.01565611e-01 9.48817372e-01 9.63156104e-01 8.82213235e-01 1.44619018e-01 2.09282944e-03 3.03458364e-04 3.21116240e-04 8.03565199e-04 5.48023343e-01 3.60554844e-01 7.55243152e-02 1.50177227e-02 8.37428868e-03 1.17006097e-02 2.82515977e-02 8.36791098e-02 2.20574826e-01 4.17757899e-01 5.79095662e-01 6.69350564e-01 7.08220661e-01 7.17605770e-01 7.11835742e-01 7.01158702e-01 6.94507837e-01 7.00318515e-01 7.25606143e-01 7.72993624e-01 8.36225808e-01 8.99051070e-01 9.44282830e-01 9.65359867e-01 9.55266953e-01 7.25064456e-01 3.57022993e-02 9.69326531e-04 2.73242535e-04 3.69969872e-04 1.03527226e-03 4.87223417e-01 2.81386703e-01 3.73049416e-02 5.05755516e-03 2.45848810e-03 3.60856252e-03 1.06511172e-02 4.27631848e-02 1.56092316e-01 3.72422665e-01 5.71269214e-01 6.82807922e-01 7.31122136e-01 7.45501935e-01 7.43362904e-01 7.36347318e-01 7.34499276e-01 7.47028947e-01 7.80215085e-01 8.32589924e-01 8.91086757e-01 9.37576532e-01 9.63161349e-01 9.67914581e-01 9.22623515e-01 4.29692924e-01 1.03429463e-02 5.76947001e-04 2.73764541e-04 4.80547402e-04 1.48567930e-03 4.50418711e-01 2.40797028e-01 2.35125404e-02 2.34640157e-03 1.02877163e-03 1.56201713e-03 5.54541079e-03 2.90789641e-02 1.35279357e-01 3.70212168e-01 5.90843201e-01 7.11125314e-01 7.64394403e-01 7.84416318e-01 7.89027214e-01 7.89237916e-01 7.94182599e-01 8.11521351e-01 8.44567239e-01 8.88245285e-01 9.29724693e-01 9.57688391e-01 9.68989313e-01 9.57246721e-01 8.16973448e-01 1.47661999e-01 3.68086295e-03 4.42042190e-04 3.20956082e-04 7.77250214e-04 2.59272452e-03 4.28244621e-01 2.21984297e-01 1.82216968e-02 1.42420386e-03 5.85241418e-04 9.18087608e-04 3.97505471e-03 2.69883759e-02 1.45540297e-01 4.02027607e-01 6.22231305e-01 7.38177896e-01 7.93595910e-01 8.20554018e-01 8.34253132e-01 8.43534410e-01 8.55298460e-01 8.74409318e-01 9.01242495e-01 9.30341303e-01 9.53826904e-01 9.66705441e-01 9.64882374e-01 9.15522397e-01 5.29272735e-01 3.41220833e-02 1.62822346e-03 4.26596205e-04 4.78301285e-04 1.71658979e-03 5.83934691e-03 4.14315373e-01 2.16455191e-01 1.67902242e-02 1.07546768e-03 4.21404286e-04 6.89322595e-04 3.76294274e-03 3.27919833e-02 1.83120936e-01 4.51560467e-01 6.47174180e-01 7.51192272e-01 8.09441984e-01 8.45456064e-01 8.69280279e-01 8.87074530e-01 9.03675973e-01 9.21924889e-01 9.41233575e-01 9.58000183e-01 9.68399882e-01 9.68965113e-01 9.44325626e-01 7.66800940e-01 1.70073479e-01 8.70843790e-03 1.04656990e-03 5.65710128e-04 1.05630502e-03 5.43735269e-03 1.73193421e-02 4.05709624e-01 2.21294016e-01 1.81024112e-02 9.72834008e-04 3.57836776e-04 6.17970305e-04 4.43094689e-03 4.77280729e-02 2.42386311e-01 4.95130956e-01 6.50816381e-01 7.42571115e-01 8.07484269e-01 8.55802536e-01 8.90612364e-01 9.15742159e-01 9.35239494e-01 9.51648116e-01 9.65212107e-01 9.74540532e-01 9.77592528e-01 9.67585921e-01 8.90770674e-01 4.34265494e-01 4.03004251e-02 4.02089208e-03 1.27143296e-03 1.37380336e-03 4.37010871e-03 2.56905369e-02 6.75136968e-02 4.02559787e-01 2.36991182e-01 2.27925070e-02 1.03660044e-03 3.40725848e-04 6.22439955e-04 6.00240659e-03 7.36451671e-02 3.03834289e-01 5.10441422e-01 6.24359190e-01 7.07930923e-01 7.84655035e-01 8.49653125e-01 8.97693396e-01 9.30547655e-01 9.52733934e-01 9.67951715e-01 9.78150487e-01 9.83880401e-01 9.84204590e-01 9.69925225e-01 8.44466031e-01 2.55084813e-01 2.75026057e-02 6.33015763e-03 4.65310458e-03 9.65552032e-03 4.14520726e-02 1.73772365e-01 2.99351245e-01 4.10106391e-01 2.67257392e-01 3.37687284e-02 1.31764589e-03 3.55327211e-04 6.71053305e-04 8.56534950e-03 1.07027858e-01 3.41143638e-01 4.88314867e-01 5.67223966e-01 6.46581054e-01 7.37881660e-01 8.23507667e-01 8.89132082e-01 9.32984710e-01 9.59967196e-01 9.75812674e-01 9.84737217e-01 9.89138246e-01 9.89542842e-01 9.81011868e-01 9.11161721e-01 4.77361441e-01 1.15349144e-01 5.76388873e-02 7.66332597e-02 1.90822527e-01 4.68282253e-01 7.05335319e-01 7.62046099e-01 4.47135419e-01 3.21528971e-01 5.91177903e-02 2.09959853e-03 4.07774758e-04 7.51509215e-04 1.19722364e-02 1.38930440e-01 3.48136693e-01 4.41992670e-01 4.94444638e-01 5.68559408e-01 6.69365764e-01 7.74366736e-01 8.61878395e-01 9.22734559e-01 9.59062278e-01 9.78382170e-01 9.87910748e-01 9.92250621e-01 9.93533790e-01 9.91414845e-01 9.77950215e-01 9.09516215e-01 7.57699668e-01 7.13254273e-01 7.96080470e-01 8.76325727e-01 9.21509802e-01 9.40950632e-01 9.40538883e-01 5.25630295e-01 4.09540743e-01 1.15250222e-01 4.51330654e-03 5.27110242e-04 8.80752399e-04 1.62968226e-02 1.70021519e-01 3.55563134e-01 4.13555682e-01 4.45897371e-01 5.08872926e-01 6.06479108e-01 7.18804002e-01 8.22795928e-01 9.01874244e-01 9.51049924e-01 9.76655006e-01 9.88454282e-01 9.93513644e-01 9.95430231e-01 9.95520592e-01 9.93475616e-01 9.87288117e-01 9.77233589e-01 9.71631348e-01 9.71528709e-01 9.70306575e-01 9.66919601e-01 9.65168893e-01 9.63438511e-01 5.48493862e-01 4.61649537e-01 1.64231017e-01 9.71649308e-03 6.96084113e-04 9.25338070e-04 2.00486556e-02 2.04114214e-01 3.90118480e-01 4.32216585e-01 4.52788949e-01 5.05982816e-01 5.95572591e-01 7.02696085e-01 8.05784404e-01 8.88321459e-01 9.42668855e-01 9.72374976e-01 9.86493170e-01 9.92651641e-01 9.95105267e-01 9.95661616e-01 9.94717300e-01 9.91916418e-01 9.87602234e-01 9.83645916e-01 9.79645789e-01 9.72925186e-01 9.63837683e-01 9.58582640e-01 9.57199752e-01 
