# vtk DataFile Version 2.0
results/1_density.vtk, Created by Freefem++ 
ASCII
DATASET UNSTRUCTURED_GRID
POINTS 961 float
0 0 0
0.033333333 0 0
0.066666667 0 0
0.1 0 0
0.13333333 0 0
0.16666667 0 0
0.2 0 0
0.23333333 0 0
0.26666667 0 0
0.3 0 0
0.33333333 0 0
0.36666667 0 0
0.4 0 0
0.43333333 0 0
0.46666667 0 0
0.5 0 0
0.53333333 0 0
0.56666667 0 0
0.6 0 0
0.63333333 0 0
0.66666667 0 0
0.7 0 0
0.73333333 0 0
0.76666667 0 0
0.8 0 0
0.83333333 0 0
0.86666667 0 0
0.9 0 0
0.93333333 0 0
0.96666667 0 0
1 0 0
0 0.033333333 0
0.033333333 0.033333333 0
0.066666667 0.033333333 0
0.1 0.033333333 0
0.13333333 0.033333333 0
0.16666667 0.033333333 0
0.2 0.033333333 0
0.23333333 0.033333333 0
0.26666667 0.033333333 0
0.3 0.033333333 0
0.33333333 0.033333333 0
0.36666667 0.033333333 0
0.4 0.033333333 0
0.43333333 0.033333333 0
0.46666667 0.033333333 0
0.5 0.033333333 0
0.53333333 0.033333333 0
0.56666667 0.033333333 0
0.6 0.033333333 0
0.63333333 0.033333333 0
0.66666667 0.033333333 0
0.7 0.033333333 0
0.73333333 0.033333333 0
0.76666667 0.033333333 0
0.8 0.033333333 0
0.83333333 0.033333333 0
0.86666667 0.033333333 0
0.9 0.033333333 0
0.93333333 0.033333333 0
0.96666667 0.033333333 0
1 0.033333333 0
0 0.066666667 0
0.033333333 0.066666667 0
0.066666667 0.066666667 0
0.1 0.066666667 0
0.13333333 0.066666667 0
0.16666667 0.066666667 0
0.2 0.066666667 0
0.23333333 0.066666667 0
0.26666667 0.066666667 0
0.3 0.066666667 0
0.33333333 0.066666667 0
0.36666667 0.066666667 0
0.4 0.066666667 0
0.43333333 0.066666667 0
0.46666667 0.066666667 0
0.5 0.066666667 0
0.53333333 0.066666667 0
0.56666667 0.066666667 0
0.6 0.066666667 0
0.63333333 0.066666667 0
0.66666667 0.066666667 0
0.7 0.066666667 0
0.73333333 0.066666667 0
0.76666667 0.066666667 0
0.8 0.066666667 0
0.83333333 0.066666667 0
0.86666667 0.066666667 0
0.9 0.066666667 0
0.93333333 0.066666667 0
0.96666667 0.066666667 0
1 0.066666667 0
0 0.1 0
0.033333333 0.1 0
0.066666667 0.1 0
0.1 0.1 0
0.13333333 0.1 0
0.16666667 0.1 0
0.2 0.1 0
0.23333333 0.1 0
0.26666667 0.1 0
0.3 0.1 0
0.33333333 0.1 0
0.36666667 0.1 0
0.4 0.1 0
0.43333333 0.1 0
0.46666667 0.1 0
0.5 0.1 0
0.53333333 0.1 0
0.56666667 0.1 0
0.6 0.1 0
0.63333333 0.1 0
0.66666667 0.1 0
0.7 0.1 0
0.73333333 0.1 0
0.76666667 0.1 0
0.8 0.1 0
0.83333333 0.1 0
0.86666667 0.1 0
0.9 0.1 0
0.93333333 0.1 0
0.96666667 0.1 0
1 0.1 0
0 0.13333333 0
0.033333333 0.13333333 0
0.066666667 0.13333333 0
0.1 0.13333333 0
0.13333333 0.13333333 0
0.16666667 0.13333333 0
0.2 0.13333333 0
0.23333333 0.13333333 0
0.26666667 0.13333333 0
0.3 0.13333333 0
0.33333333 0.13333333 0
0.36666667 0.13333333 0
0.4 0.13333333 0
0.43333333 0.13333333 0
0.46666667 0.13333333 0
0.5 0.13333333 0
0.53333333 0.13333333 0
0.56666667 0.13333333 0
0.6 0.13333333 0
0.63333333 0.13333333 0
0.66666667 0.13333333 0
0.7 0.13333333 0
0.73333333 0.13333333 0
0.76666667 0.13333333 0
0.8 0.13333333 0
0.83333333 0.13333333 0
0.86666667 0.13333333 0
0.9 0.13333333 0
0.93333333 0.13333333 0
0.96666667 0.13333333 0
1 0.13333333 0
0 0.16666667 0
0.033333333 0.16666667 0
0.066666667 0.16666667 0
0.1 0.16666667 0
0.13333333 0.16666667 0
0.16666667 0.16666667 0
0.2 0.16666667 0
0.23333333 0.16666667 0
0.26666667 0.16666667 0
0.3 0.16666667 0
0.33333333 0.16666667 0
0.36666667 0.16666667 0
0.4 0.16666667 0
0.43333333 0.16666667 0
0.46666667 0.16666667 0
0.5 0.16666667 0
0.53333333 0.16666667 0
0.56666667 0.16666667 0
0.6 0.16666667 0
0.63333333 0.16666667 0
0.66666667 0.16666667 0
0.7 0.16666667 0
0.73333333 0.16666667 0
0.76666667 0.16666667 0
0.8 0.16666667 0
0.83333333 0.16666667 0
0.86666667 0.16666667 0
0.9 0.16666667 0
0.93333333 0.16666667 0
0.96666667 0.16666667 0
1 0.16666667 0
0 0.2 0
0.033333333 0.2 0
0.066666667 0.2 0
0.1 0.2 0
0.13333333 0.2 0
0.16666667 0.2 0
0.2 0.2 0
0.23333333 0.2 0
0.26666667 0.2 0
0.3 0.2 0
0.33333333 0.2 0
0.36666667 0.2 0
0.4 0.2 0
0.43333333 0.2 0
0.46666667 0.2 0
0.5 0.2 0
0.53333333 0.2 0
0.56666667 0.2 0
0.6 0.2 0
0.63333333 0.2 0
0.66666667 0.2 0
0.7 0.2 0
0.73333333 0.2 0
0.76666667 0.2 0
0.8 0.2 0
0.83333333 0.2 0
0.86666667 0.2 0
0.9 0.2 0
0.93333333 0.2 0
0.96666667 0.2 0
1 0.2 0
0 0.23333333 0
0.033333333 0.23333333 0
0.066666667 0.23333333 0
0.1 0.23333333 0
0.13333333 0.23333333 0
0.16666667 0.23333333 0
0.2 0.23333333 0
0.23333333 0.23333333 0
0.26666667 0.23333333 0
0.3 0.23333333 0
0.33333333 0.23333333 0
0.36666667 0.23333333 0
0.4 0.23333333 0
0.43333333 0.23333333 0
0.46666667 0.23333333 0
0.5 0.23333333 0
0.53333333 0.23333333 0
0.56666667 0.23333333 0
0.6 0.23333333 0
0.63333333 0.23333333 0
0.66666667 0.23333333 0
0.7 0.23333333 0
0.73333333 0.23333333 0
0.76666667 0.23333333 0
0.8 0.23333333 0
0.83333333 0.23333333 0
0.86666667 0.23333333 0
0.9 0.23333333 0
0.93333333 0.23333333 0
0.96666667 0.23333333 0
1 0.23333333 0
0 0.26666667 0
0.033333333 0.26666667 0
0.066666667 0.26666667 0
0.1 0.26666667 0
0.13333333 0.26666667 0
0.16666667 0.26666667 0
0.2 0.26666667 0
0.23333333 0.26666667 0
0.26666667 0.26666667 0
0.3 0.26666667 0
0.33333333 0.26666667 0
0.36666667 0.26666667 0
0.4 0.26666667 0
0.43333333 0.26666667 0
0.46666667 0.26666667 0
0.5 0.26666667 0
0.53333333 0.26666667 0
0.56666667 0.26666667 0
0.6 0.26666667 0
0.63333333 0.26666667 0
0.66666667 0.26666667 0
0.7 0.26666667 0
0.73333333 0.26666667 0
0.76666667 0.26666667 0
0.8 0.26666667 0
0.83333333 0.26666667 0
0.86666667 0.26666667 0
0.9 0.26666667 0
0.93333333 0.26666667 0
0.96666667 0.26666667 0
1 0.26666667 0
0 0.3 0
0.033333333 0.3 0
0.066666667 0.3 0
0.1 0.3 0
0.13333333 0.3 0
0.16666667 0.3 0
0.2 0.3 0
0.23333333 0.3 0
0.26666667 0.3 0
0.3 0.3 0
0.33333333 0.3 0
0.36666667 0.3 0
0.4 0.3 0
0.43333333 0.3 0
0.46666667 0.3 0
0.5 0.3 0
0.53333333 0.3 0
0.56666667 0.3 0
0.6 0.3 0
0.63333333 0.3 0
0.66666667 0.3 0
0.7 0.3 0
0.73333333 0.3 0
0.76666667 0.3 0
0.8 0.3 0
0.83333333 0.3 0
0.86666667 0.3 0
0.9 0.3 0
0.93333333 0.3 0
0.96666667 0.3 0
1 0.3 0
0 0.33333333 0
0.033333333 0.33333333 0
0.066666667 0.33333333 0
0.1 0.33333333 0
0.13333333 0.33333333 0
0.16666667 0.33333333 0
0.2 0.33333333 0
0.23333333 0.33333333 0
0.26666667 0.33333333 0
0.3 0.33333333 0
0.33333333 0.33333333 0
0.36666667 0.33333333 0
0.4 0.33333333 0
0.43333333 0.33333333 0
0.46666667 0.33333333 0
0.5 0.33333333 0
0.53333333 0.33333333 0
0.56666667 0.33333333 0
0.6 0.33333333 0
0.63333333 0.33333333 0
0.66666667 0.33333333 0
0.7 0.33333333 0
0.73333333 0.33333333 0
0.76666667 0.33333333 0
0.8 0.33333333 0
0.83333333 0.33333333 0
0.86666667 0.33333333 0
0.9 0.33333333 0
0.93333333 0.33333333 0
0.96666667 0.33333333 0
1 0.33333333 0
0 0.36666667 0
0.033333333 0.36666667 0
0.066666667 0.36666667 0
0.1 0.36666667 0
0.13333333 0.36666667 0
0.16666667 0.36666667 0
0.2 0.36666667 0
0.23333333 0.36666667 0
0.26666667 0.36666667 0
0.3 0.36666667 0
0.33333333 0.36666667 0
0.36666667 0.36666667 0
0.4 0.36666667 0
0.43333333 0.36666667 0
0.46666667 0.36666667 0
0.5 0.36666667 0
0.53333333 0.36666667 0
0.56666667 0.36666667 0
0.6 0.36666667 0
0.63333333 0.36666667 0
0.66666667 0.36666667 0
0.7 0.36666667 0
0.73333333 0.36666667 0
0.76666667 0.36666667 0
0.8 0.36666667 0
0.83333333 0.36666667 0
0.86666667 0.36666667 0
0.9 0.36666667 0
0.93333333 0.36666667 0
0.96666667 0.36666667 0
1 0.36666667 0
0 0.4 0
0.033333333 0.4 0
0.066666667 0.4 0
0.1 0.4 0
0.13333333 0.4 0
0.16666667 0.4 0
0.2 0.4 0
0.23333333 0.4 0
0.26666667 0.4 0
0.3 0.4 0
0.33333333 0.4 0
0.36666667 0.4 0
0.4 0.4 0
0.43333333 0.4 0
0.46666667 0.4 0
0.5 0.4 0
0.53333333 0.4 0
0.56666667 0.4 0
0.6 0.4 0
0.63333333 0.4 0
0.66666667 0.4 0
0.7 0.4 0
0.73333333 0.4 0
0.76666667 0.4 0
0.8 0.4 0
0.83333333 0.4 0
0.86666667 0.4 0
0.9 0.4 0
0.93333333 0.4 0
0.96666667 0.4 0
1 0.4 0
0 0.43333333 0
0.033333333 0.43333333 0
0.066666667 0.43333333 0
0.1 0.43333333 0
0.13333333 0.43333333 0
0.16666667 0.43333333 0
0.2 0.43333333 0
0.23333333 0.43333333 0
0.26666667 0.43333333 0
0.3 0.43333333 0
0.33333333 0.43333333 0
0.36666667 0.43333333 0
0.4 0.43333333 0
0.43333333 0.43333333 0
0.46666667 0.43333333 0
0.5 0.43333333 0
0.53333333 0.43333333 0
0.56666667 0.43333333 0
0.6 0.43333333 0
0.63333333 0.43333333 0
0.66666667 0.43333333 0
0.7 0.43333333 0
0.73333333 0.43333333 0
0.76666667 0.43333333 0
0.8 0.43333333 0
0.83333333 0.43333333 0
0.86666667 0.43333333 0
0.9 0.43333333 0
0.93333333 0.43333333 0
0.96666667 0.43333333 0
1 0.43333333 0
0 0.46666667 0
0.033333333 0.46666667 0
0.066666667 0.46666667 0
0.1 0.46666667 0
0.13333333 0.46666667 0
0.16666667 0.46666667 0
0.2 0.46666667 0
0.23333333 0.46666667 0
0.26666667 0.46666667 0
0.3 0.46666667 0
0.33333333 0.46666667 0
0.36666667 0.46666667 0
0.4 0.46666667 0
0.43333333 0.46666667 0
0.46666667 0.46666667 0
0.5 0.46666667 0
0.53333333 0.46666667 0
0.56666667 0.46666667 0
0.6 0.46666667 0
0.63333333 0.46666667 0
0.66666667 0.46666667 0
0.7 0.46666667 0
0.73333333 0.46666667 0
0.76666667 0.46666667 0
0.8 0.46666667 0
0.83333333 0.46666667 0
0.86666667 0.46666667 0
0.9 0.46666667 0
0.93333333 0.46666667 0
0.96666667 0.46666667 0
1 0.46666667 0
0 0.5 0
0.033333333 0.5 0
0.066666667 0.5 0
0.1 0.5 0
0.13333333 0.5 0
0.16666667 0.5 0
0.2 0.5 0
0.23333333 0.5 0
0.26666667 0.5 0
0.3 0.5 0
0.33333333 0.5 0
0.36666667 0.5 0
0.4 0.5 0
0.43333333 0.5 0
0.46666667 0.5 0
0.5 0.5 0
0.53333333 0.5 0
0.56666667 0.5 0
0.6 0.5 0
0.63333333 0.5 0
0.66666667 0.5 0
0.7 0.5 0
0.73333333 0.5 0
0.76666667 0.5 0
0.8 0.5 0
0.83333333 0.5 0
0.86666667 0.5 0
0.9 0.5 0
0.93333333 0.5 0
0.96666667 0.5 0
1 0.5 0
0 0.53333333 0
0.033333333 0.53333333 0
0.066666667 0.53333333 0
0.1 0.53333333 0
0.13333333 0.53333333 0
0.16666667 0.53333333 0
0.2 0.53333333 0
0.23333333 0.53333333 0
0.26666667 0.53333333 0
0.3 0.53333333 0
0.33333333 0.53333333 0
0.36666667 0.53333333 0
0.4 0.53333333 0
0.43333333 0.53333333 0
0.46666667 0.53333333 0
0.5 0.53333333 0
0.53333333 0.53333333 0
0.56666667 0.53333333 0
0.6 0.53333333 0
0.63333333 0.53333333 0
0.66666667 0.53333333 0
0.7 0.53333333 0
0.73333333 0.53333333 0
0.76666667 0.53333333 0
0.8 0.53333333 0
[...]
CELL_DATA 1920
Scalars  Label int 1
LOOKUP_TABLE FreeFempp_table
0
0
0
0
0
0
0
0
0
0
0
0
0
0
0
0
0
0
0
0
0
0
0
0
0
0
0
0
0
0
0
0
0
0
0
0
0
0
0
0
0
0
0
0
0
0
0
0
0
0
0
0
0
0
0
0
0
0
0
0
0
0
0
0
0
0
0
0
0
0
0
0
0
0
0
0
0
0
0
0
0
0
0
0
0
0
0
0
0
0
0
0
0
0
0
0
0
0
0
0
0
0
0
0
0
0
0
0
0
0
0
0
0
0
0
0
0
0
0
0
0
0
0
0
0
0
0
0
0
0
0
0
0
0
0
0
0
0
0
0
0
0
0
0
0
0
0
0
0
0
0
0
0
0
0
0
0
0
0
0
0
0
0
0
0
0
0
0
0
0
0
0
0
0
0
0
0
0
0
0
0
0
0
0
0
0
0
0
0
0
0
0
0
0
0
0
0
0
0
0
0
0
0
0
0
0
0
0
0
0
0
0
0
0
0
0
0
0
0
0
0
0
0
0
0
0
0
0
0
0
0
0
0
0
0
0
0
0
0
0
0
0
0
0
0
0
0
0
0
0
0
0
0
0
0
0
0
0
0
0
0
0
0
0
0
0
0
0
0
0
0
0
0
0
0
0
0
0
0
0
0
0
0
0
0
0
0
0
0
0
0
0
0
0
0
0
0
0
0
0
0
0
0
0
0
0
0
0
0
0
0
0
0
0
0
0
0
0
0
0
0
0
0
0
0
0
0
0
0
0
0
0
0
0
0
0
0
0
0
0
0
0
0
0
0
0
0
0
0
0
0
0
0
0
0
0
0
0
0
0
0
0
0
0
0
0
0
0
0
0
0
0
0
0
0
0
0
0
0
0
0
0
0
0
0
0
0
0
0
0
0
0
0
0
0
0
0
0
0
0
0
0
0
0
0
0
0
0
0
0
0
0
0
0
0
0
0
0
0
0
0
0
0
0
0
0
0
0
0
0
0
0
0
0
0
0
0
0
0
0
0
0
0
0
0
0
0
0
0
0
0
0
0
0
0
0
0
0
0
0
0
0
0
0
0
0
0
0
0
0
0
0
0
0
0
0
0
0
0
0
0
0
0
0
0
0
0
0
0
0
0
0
0
0
0
0
0
0
0
0
0
0
0
0
0
0
0
0
0
0
0
0
0
0
0
0
0
0
0
0
0
0
0
0
0
0
0
0
0
0
0
0
0
0
0
0
0
0
0
0
0
0
0
0
0
0
0
0
0
0
0
0
0
0
0
0
0
0
0
0
0
0
0
0
0
0
0
0
0
0
0
0
0
0
0
0
0
0
0
0
0
0
0
0
0
0
0
0
0
0
0
0
0
0
0
0
0
0
0
0
0
0
0
0
0
0
0
0
0
0
0
0
0
0
0
0
0
0
0
0
0
0
0
0
0
0
0
0
0
0
0
0
0
0
0
0
0
0
0
0
0
0
0
0
0
0
0
0
0
0
0
0
0
0
0
0
0
0
0
0
0
0
0
0
0
0
0
0
0
0
0
0
0
0
0
0
0
0
0
0
0
0
0
0
0
0
0
0
0
0
0
0
0
0
0
0
0
0
0
0
0
0
0
0
0
0
0
0
0
0
0
0
0
0
0
0
0
0
0
0
0
0
0
0
0
0
0
0
0
0
0
0
0
0
0
0
0
0
0
0
0
0
0
0
0
0
0
0
0
0
0
0
0
0
0
0
0
0
0
0
0
0
0
0
0
0
0
0
0
0
0
0
0
0
0
0
0
0
0
0
0
0
0
0
0
0
0
0
0
0
0
0
0
0
0
0
0
0
0
0
0
0
0
0
0
0
0
0
0
0
0
0
0
0
0
0
0
0
0
0
0
0
0
0
0
0
0
0
0
0
0
0
0
0
0
0
0
0
0
0
0
0
0
0
0
0
0
0
0
0
0
0
0
0
0
0
0
0
0
0
0
0
0
0
0
0
0
0
0
0
0
0
0
0
0
0
0
0
0
0
0
0
0
0
0
0
0
0
0
0
0
0
0
0
0
0
0
0
0
0
0
0
0
0
0
0
0
0
0
0
0
0
0
0
0
0
0
0
0
0
0
0
0
0
0
0
0
0
0
0
0
0
0
0
0
0
0
0
0
0
0
0
0
0
0
0
0
0
0
0
0
0
0
0
0
0
0
0
0
0
0
0
0
0
0
0
0
0
0
0
0
0
0
0
0
0
0
0
0
0
0
0
0
0
0
0
0
0
0
0
0
0
0
0
0
0
0
0
0
0
0
0
0
0
0
0
0
0
0
0
0
0
0
0
0
0
0
0
0
0
0
0
0
0
0
0
0
0
0
0
0
0
0
0
0
0
0
0
0
0
0
0
0
0
0
0
0
0
0
0
0
0
0
0
0
0
0
0
0
0
0
0
0
0
0
0
0
0
0
0
0
0
0
0
0
0
0
0
0
0
0
0
0
0
0
0
0
0
0
0
0
0
0
0
0
0
0
0
0
0
0
0
0
0
0
0
0
0
0
0
0
0
0
0
0
0
0
0
0
0
0
0
0
0
0
0
0
0
0
0
0
0
0
0
0
0
0
0
0
0
0
0
0
0
0
0
0
0
0
0
0
0
0
0
0
0
0
0
0
0
0
0
0
0
0
0
0
0
0
0
0
0
0
0
0
0
0
0
0
0
0
0
0
0
0
0
0
0
0
0
0
0
0
0
0
0
0
0
0
0
0
0
0
0
0
0
0
0
0
0
0
0
0
0
0
0
0
0
0
0
0
0
0
0
0
0
0
0
0
0
0
0
0
0
0
0
0
0
0
0
0
0
0
0
0
0
0
0
0
0
0
0
0
0
0
0
0
0
0
0
0
0
0
0
0
0
0
0
0
0
0
0
0
0
0
0
0
0
0
0
0
0
0
0
0
0
0
0
0
0
0
0
0
0
0
0
0
0
0
0
0
0
0
0
0
0
0
0
0
0
0
0
0
0
0
0
0
0
0
0
0
0
0
0
0
0
0
0
0
0
0
0
0
0
0
0
0
0
0
0
0
0
0
0
0
0
0
0
0
0
0
0
0
0
0
0
0
0
0
0
0
0
0
0
0
0
0
0
0
0
0
0
0
0
0
0
0
0
0
0
0
0
0
0
0
0
0
0
0
0
0
0
0
0
0
0
0
0
0
0
0
0
0
0
0
0
0
0
0
0
0
0
0
0
0
0
0
0
0
0
0
0
0
0
0
0
0
0
0
0
0
0
0
0
0
0
0
0
0
0
0
0
0
0
0
0
0
0
0
0
0
0
0
0
0
0
0
0
0
0
0
0
0
0
0
0
0
0
0
0
0
0
0
0
0
0
0
0
0
0
0
0
0
0
0
0
0
0
0
0
0
0
0
0
0
0
0
0
0
0
0
0
0
0
0
0
0
0
0
0
0
0
0
0
0
0
0
0
0
0
0
0
0
0
0
0
0
0
0
0
0
0
0
0
0
0
0
0
0
0
0
0
0
0
0
0
0
0
0
0
0
0
0
0
0
0
0
0
0
0
0
0
0
0
0
0
0
0
0
0
0
0
0
0
0
0
0
0
0
0
0
0
0
0
0
0
0
0
0
0
0
0
0
0
0
0
0
0
0
0
0
0
0
0
0
0
0
0
0
0
0
0
0
0
0
0
0
0
0
0
0
0
0
0
0
0
0
0
0
0
0
0
0
0
0
0
0
0
0
0
0
0
0
0
0
0
0
0
0
0
0
0
0
0
0
0
0
0
0
0
0
0
0
0
0
0
0
0
0
0
0
0
0
0
0
0
0
0
0
0
0
0
0
0
0
0
0
0
0
0
0
0
0
0
0
0
0
0
0
0
0
0
0
0
0
0
0
0
0
0
0
0
0
0
0
0
0
0
0
0
0
0
0
0
0
0
0
0
0
0
0
0
0
0
0
0
0
0
0
0
0
0
0
0
0
0
0
0
0
0
0
0
0
0
0
0
0
0
0
0
0
0
0
0
0
0
0
0
0
0
0
0
0
0
0
0
0
0
0
0
0
0
0
0
0
0
0
0
0
0
0
0
0
0
0
0
0
0
0
0
1
1
1
1
1
1
1
1
1
1
1
1
1
1
1
1
1
1
1
1
1
1
1
1
1
1
1
1
1
1
2
2
2
2
2
2
2
2
2
2
2
2
2
2
2
2
2
2
2
2
2
2
2
2
2
2
2
2
2
2
3
3
3
3
3
3
3
3
3
3
3
3
3
3
3
3
3
3
3
3
3
3
3
3
3
3
3
3
3
3
4
4
4
4
4
4
4
4
4
4
4
4
4
4
4
4
4
4
4
4
4
4
4
4
4
4
4
4
4
4

LOOKUP_TABLE FreeFempp_table 5
1.00000000 0.00000000 0.00000000 1.00000000
1.00000000 1.00000000 0.00000000 1.00000000
1.00000000 0.00000000 1.00000000 1.00000000
0.00000000 1.00000000 0.00000000 1.00000000
0.00000000 1.00000000 1.00000000 1.00000000

POINT_DATA 961
FIELD FieldData 1
Density 1 961 float
7.51315728e-02 8.26294124e-02 9.37482715e-02 9.91332978e-02 9.74796787e-02 9.02743042e-02 7.86560178e-02 6.43540025e-02 5.20461611e-02 4.93082367e-02 6.42771646e-02 1.05992451e-01 1.68253258e-01 2.27410764e-01 2.82038331e-01 3.46957177e-01 4.40708309e-01 5.66602886e-01 6.68251216e-01 6.86706841e-01 6.35549366e-01 5.74283361e-01 5.49218357e-01 5.43068409e-01 5.38330853e-01 5.45082450e-01 5.62488914e-01 5.86199462e-01 6.14172220e-01 6.26912534e-01 6.21306121e-01 5.27334362e-02 6.31299689e-02 7.29142949e-02 7.73927420e-02 7.69343823e-02 7.25123808e-02 6.48453981e-02 5.50618917e-02 4.61375639e-02 4.36068438e-02 5.52961268e-02 9.13147777e-02 1.49743602e-01 2.05197930e-01 2.57492244e-01 3.20559055e-01 4.08211350e-01 5.30278504e-01 6.31102204e-01 6.31573796e-01 5.50510406e-01 4.61811841e-01 4.18373138e-01 4.10663694e-01 4.10850883e-01 4.25545603e-01 4.62956548e-01 5.15873790e-01 5.68864822e-01 5.97371340e-01 6.00742877e-01 4.77304906e-02 4.37152311e-02 4.28039022e-02 4.36953120e-02 4.53806370e-02 4.56718132e-02 4.40764986e-02 4.10827845e-02 3.79595459e-02 3.70891429e-02 4.32034396e-02 6.71633109e-02 1.11072347e-01 1.51190832e-01 1.97475538e-01 2.63566911e-01 3.36816639e-01 4.32039917e-01 4.99230474e-01 4.32079941e-01 2.97632903e-01 2.10273817e-01 1.67147681e-01 1.50689051e-01 1.48062155e-01 1.60504490e-01 2.00260207e-01 2.87772477e-01 3.98331106e-01 4.77497071e-01 5.03409147e-01 1.03652477e-01 6.85690790e-02 4.90211658e-02 4.82633337e-02 5.64953834e-02 6.28478304e-02 6.57284483e-02 6.60146102e-02 6.44269064e-02 6.05342984e-02 5.44249676e-02 5.39812781e-02 6.45039976e-02 7.70043433e-02 9.87929925e-02 1.59277022e-01 2.19106644e-01 2.86760688e-01 3.48653167e-01 2.57726371e-01 1.55946940e-01 1.01483837e-01 7.49541745e-02 6.25861809e-02 5.77158593e-02 5.95009662e-02 7.16743842e-02 1.08023517e-01 1.97276324e-01 3.09867859e-01 3.60465705e-01 1.90238565e-01 1.47510305e-01 9.27534476e-02 9.02230218e-02 1.27488852e-01 1.58297136e-01 1.74214900e-01 1.80874616e-01 1.80387959e-01 1.68121442e-01 1.35361120e-01 9.64056849e-02 8.42251703e-02 7.55444616e-02 6.88183233e-02 8.00167322e-02 9.91545692e-02 1.33440241e-01 2.20626503e-01 2.61024296e-01 1.60328254e-01 9.51156542e-02 6.54859766e-02 5.10021746e-02 4.36539017e-02 4.02398147e-02 4.08174209e-02 5.01291081e-02 8.33035633e-02 1.66028529e-01 2.27333024e-01 2.47692451e-01 2.07860693e-01 1.39942959e-01 1.29156440e-01 1.84038341e-01 2.45722711e-01 2.81440049e-01 2.98291504e-01 3.03020746e-01 2.94829726e-01 2.68984646e-01 2.32419446e-01 2.06836417e-01 1.74217120e-01 1.18462279e-01 9.80794281e-02 8.77661407e-02 8.59090239e-02 1.22097224e-01 2.25370288e-01 2.69203842e-01 1.73836663e-01 1.10755138e-01 8.13027993e-02 6.60249665e-02 5.53305745e-02 4.54905070e-02 3.92230563e-02 4.64490727e-02 8.37875232e-02 1.35745078e-01 2.99495518e-01 2.61729240e-01 1.96121737e-01 1.75339028e-01 2.25078672e-01 3.01120371e-01 3.52524847e-01 3.78844053e-01 3.89717698e-01 3.89116883e-01 3.77583832e-01 3.59430224e-01 3.42073381e-01 3.16870600e-01 2.70758778e-01 2.31091499e-01 1.87604055e-01 1.27078041e-01 1.08710721e-01 1.25740275e-01 1.90227598e-01 2.84491032e-01 2.38870576e-01 1.77433863e-01 1.40558362e-01 1.11641876e-01 8.20707828e-02 5.23036271e-02 4.03452404e-02 5.82980290e-02 9.69825387e-02 3.90197963e-01 3.55242193e-01 2.99263656e-01 2.71399021e-01 3.06192994e-01 3.74720812e-01 4.26735312e-01 4.54723269e-01 4.67300713e-01 4.69912320e-01 4.64956939e-01 4.54971224e-01 4.42757130e-01 4.26194966e-01 4.01631951e-01 3.73969734e-01 3.36580276e-01 2.74895191e-01 2.06514329e-01 1.33626297e-01 1.17564447e-01 1.74447611e-01 3.26384813e-01 3.47732216e-01 2.84521967e-01 2.18241617e-01 1.48525760e-01 8.31512287e-02 4.66494262e-02 5.35163172e-02 8.69157910e-02 5.33102214e-01 5.09010553e-01 4.70129609e-01 4.46136773e-01 4.58341956e-01 4.95688587e-01 5.26860476e-01 5.43404281e-01 5.49546182e-01 5.48844159e-01 5.43252409e-01 5.34290493e-01 5.23233294e-01 5.09852827e-01 4.93153721e-01 4.73252296e-01 4.46825206e-01 4.06920075e-01 3.47768098e-01 2.50890255e-01 1.42512038e-01 1.17988646e-01 1.84597597e-01 3.73347461e-01 4.35225427e-01 3.66422683e-01 2.49142259e-01 1.30306482e-01 5.90805672e-02 5.37862964e-02 8.22970048e-02 6.59612775e-01 6.55410409e-01 6.38892293e-01 6.24884784e-01 6.22061729e-01 6.28189683e-01 6.33533001e-01 6.33753300e-01 6.29613161e-01 6.22343242e-01 6.12814426e-01 6.01753891e-01 5.89720845e-01 5.76747477e-01 5.62459111e-01 5.46314418e-01 5.26413202e-01 4.98901874e-01 4.57365513e-01 3.87722433e-01 2.72680610e-01 1.51193544e-01 1.24116674e-01 1.89772993e-01 3.65162849e-01 4.17414308e-01 3.45032096e-01 2.00376928e-01 7.76728317e-02 5.17333187e-02 6.87970445e-02 6.87598825e-01 6.99753284e-01 7.03029394e-01 7.04209685e-01 7.06075370e-01 7.06722617e-01 7.03886151e-01 6.97323322e-01 6.88038468e-01 6.77020073e-01 6.64992034e-01 6.52500868e-01 6.39900923e-01 6.27256811e-01 6.14366114e-01 6.00738287e-01 5.85205078e-01 5.65538645e-01 5.37689269e-01 4.93446112e-01 4.18389469e-01 2.94161201e-01 1.61074072e-01 1.24489143e-01 1.64150342e-01 2.54184246e-01 2.65974283e-01 2.57830948e-01 1.13680936e-01 5.20644262e-02 4.67242412e-02 5.89915693e-01 6.10283434e-01 6.34837210e-01 6.62741721e-01 6.89629853e-01 7.08433270e-01 7.16975212e-01 7.17048168e-01 7.11468339e-01 7.02540278e-01 6.91857398e-01 6.80477142e-01 6.69047713e-01 6.57868981e-01 6.46946013e-01 6.35979116e-01 6.24246716e-01 6.10452235e-01 5.92361987e-01 5.65875173e-01 5.23192704e-01 4.48612541e-01 3.17598343e-01 1.69590548e-01 1.16121933e-01 1.15691490e-01 1.30563691e-01 1.77219748e-01 1.81841850e-01 6.98717535e-02 4.71427515e-02 3.98813993e-01 4.07557219e-01 4.44523990e-01 5.06796420e-01 5.78048050e-01 6.36796415e-01 6.74122512e-01 6.92958295e-01 6.99265957e-01 6.97934568e-01 6.92273259e-01 6.84419811e-01 6.75722063e-01 6.66973650e-01 6.58546269e-01 6.50434792e-01 6.42254472e-01 6.33216441e-01 6.22017205e-01 6.06575429e-01 5.83399296e-01 5.45186520e-01 4.74992186e-01 3.44059020e-01 1.86840311e-01 1.16095044e-01 1.01606727e-01 1.56651974e-01 2.48826399e-01 9.85835716e-02 5.80386892e-02 2.29328394e-01 2.24812403e-01 2.50160486e-01 3.16502452e-01 4.15000290e-01 5.15427768e-01 5.90505779e-01 6.36219203e-01 6.60131752e-01 6.70165420e-01 6.71902657e-01 6.68949604e-01 6.63624704e-01 6.57421649e-01 6.51255369e-01 6.45563543e-01 6.40340686e-01 6.35137081e-01 6.29006922e-01 6.20415390e-01 6.07122898e-01 5.85610688e-01 5.49335480e-01 4.86095577e-01 3.73060465e-01 2.20620096e-01 1.38537049e-01 1.82237715e-01 3.01061839e-01 1.22469947e-01 6.89795911e-02 1.29039958e-01 1.24083340e-01 1.39680862e-01 1.91383615e-01 2.83922255e-01 3.98558676e-01 4.99156803e-01 5.68470240e-01 6.09787226e-01 6.31678224e-01 6.41220570e-01 6.43231153e-01 6.40918136e-01 6.36487663e-01 6.31488919e-01 6.26954794e-01 6.23421669e-01 6.20876908e-01 6.18647337e-01 6.15237355e-01 6.08124018e-01 5.93386233e-01 5.65193594e-01 5.17435312e-01 4.48675126e-01 3.46198797e-01 2.14996010e-01 2.33278111e-01 3.45621318e-01 1.39102444e-01 7.72038400e-02 7.54496902e-02 7.43497089e-02 8.81727338e-02 1.31625161e-01 2.14245230e-01 3.25283885e-01 4.32225317e-01 5.12774229e-01 5.65111399e-01 5.95814049e-01 6.11665785e-01 6.17721021e-01 6.17551684e-01 6.13791049e-01 6.08508706e-01 6.03366971e-01 5.99599540e-01 5.97861171e-01 5.98004162e-01 5.98838985e-01 5.97875118e-01 5.90798616e-01 5.70150077e-01 5.24285853e-01 4.48666334e-01 3.70276570e-01 2.93776602e-01 3.01251322e-01 3.81767005e-01 1.50288954e-01 8.25573727e-02 4.74648438e-02 4.97308895e-02 6.55218512e-02 1.09137557e-01 1.90547749e-01 2.97274768e-01 4.00168359e-01 4.80595827e-01 5.36073983e-01 5.71090877e-01 5.90936661e-01 5.99902749e-01 6.01240516e-01 5.97529590e-01 5.91017067e-01 5.83794534e-01 5.77763796e-01 5.74390590e-01 5.74336529e-01 5.77144980e-01 5.81119359e-01 5.83207309e-01 5.78057170e-01 5.54931521e-01 4.97466952e-01 4.25136030e-01 3.92152876e-01 4.15183514e-01 4.21167344e-01 1.57038853e-01 8.48633200e-02 3.36157307e-02 3.83049250e-02 5.83391935e-02 1.09184936e-01 1.97797433e-01 3.02631766e-01 3.97185653e-01 4.70854312e-01 5.23809016e-01 5.59395552e-01 5.81194222e-01 5.92249393e-01 5.95025599e-01 5.91608703e-01 5.83976567e-01 5.74219704e-01 5.64586222e-01 5.57255387e-01 5.53887188e-01 5.55203438e-01 5.60867488e-01 5.69595635e-01 5.78989923e-01 5.84065616e-01 5.72351754e-01 5.36847234e-01 5.29065549e-01 5.55072188e-01 4.53229576e-01 1.55828327e-01 8.25829655e-02 2.78308932e-02 3.47093642e-02 6.18759356e-02 1.27150968e-01 2.27322504e-01 3.29054266e-01 4.12507445e-01 4.76523399e-01 5.24179459e-01 5.58139324e-01 5.80546200e-01 5.93230963e-01 5.97764015e-01 5.95523059e-01 5.87862432e-01 5.76359987e-01 5.63025355e-01 5.50316811e-01 5.40926635e-01 5.37460268e-01 5.42027295e-01 5.55515349e-01 5.76803505e-01 6.03124261e-01 6.28482699e-01 6.41194761e-01 6.41648889e-01 6.11488938e-01 4.14433718e-01 1.35203540e-01 7.21949711e-02 2.71256585e-02 3.68076377e-02 7.54124522e-02 1.61958382e-01 2.71445483e-01 3.65332961e-01 4.36038613e-01 4.89995092e-01 5.31679511e-01 5.63097119e-01 5.85358322e-01 5.99386930e-01 6.06024563e-01 6.05984747e-01 5.99883795e-01 5.88429451e-01 5.72761238e-01 5.54891050e-01 5.38239539e-01 5.28069735e-01 5.30649424e-01 5.50083935e-01 5.84662318e-01 6.28010631e-01 6.71165109e-01 6.98858082e-01 6.84976220e-01 5.63432395e-01 2.69437134e-01 9.35533047e-02 5.47789223e-02 2.99909804e-02 4.39256579e-02 1.00406691e-01 2.09878564e-01 3.21070224e-01 4.02446032e-01 4.60565865e-01 5.05456626e-01 5.41541815e-01 5.70189953e-01 5.91864824e-01 6.06936455e-01 6.15788698e-01 6.18691504e-01 6.15680397e-01 6.06595159e-01 5.91425240e-01 5.71169078e-01 5.49443424e-01 5.34176469e-01 5.36490381e-01 5.63733757e-01 6.11261964e-01 6.64266825e-01 7.05373883e-01 7.12299228e-01 6.44379854e-01 4.35285091e-01 1.59346476e-01 6.05436414e-02 4.05482501e-02 3.50347310e-02 5.46520166e-02 1.36995867e-01 2.63236523e-01 3.67327571e-01 4.34767336e-01 4.81934100e-01 5.19197226e-01 5.50313890e-01 5.76183379e-01 5.96925437e-01 6.12628698e-01 6.23466492e-01 6.29550874e-01 6.30710602e-01 6.26367986e-01 6.15801454e-01 5.99280000e-01 5.80404282e-01 5.68173707e-01 5.74599504e-01 6.05800152e-01 6.53441191e-01 6.95846915e-01 7.08122790e-01 6.62511110e-01 5.14048517e-01 2.53167778e-01 9.49951410e-02 4.52616699e-02 3.53852995e-02 4.04248685e-02 6.55787960e-02 1.75113916e-01 3.10825169e-01 4.04024929e-01 4.59687024e-01 4.98124093e-01 5.29053509e-01 5.55712581e-01 5.78786850e-01 5.98253667e-01 6.14076674e-01 6.26384854e-01 6.35408223e-01 6.41280532e-01 6.43851399e-01 6.42842591e-01 6.38897479e-01 6.35333478e-01 6.37302697e-01 6.46409214e-01 6.61782324e-01 6.78629458e-01 6.81122303e-01 6.28196359e-01 5.00783145e-01 3.17749143e-01 1.40394092e-01 6.75005913e-02 4.70534712e-02 4.46668901e-02 4.47796062e-02 7.39561245e-02 2.03527078e-01 3.44835162e-01 4.29262131e-01 4.76573735e-01 5.08263171e-01 5.33797324e-01 5.56332409e-01 5.76566279e-01 5.94447613e-01 6.09885097e-01 6.23049200e-01 6.34494364e-01 6.45147264e-01 6.56162381e-01 6.68765545e-01 6.84278131e-01 7.03374147e-01 7.20518410e-01 7.12746739e-01 6.64135277e-01 6.04009807e-01 5.44145346e-01 4.23301905e-01 2.49832898e-01 1.56819329e-01 1.02745362e-01 7.86865875e-02 8.05052891e-02 9.15694758e-02 4.77866195e-02 7.95019120e-02 2.21286103e-01 3.66083235e-01 4.44696307e-01 4.85905647e-01 5.12074769e-01 5.32829881e-01 5.51495910e-01 5.68884611e-01 5.84971011e-01 5.99642813e-01 6.13118231e-01 6.26278102e-01 6.40911281e-01 6.59621954e-01 6.84986770e-01 7.17645764e-01 7.53107190e-01 7.76511490e-01 7.51345277e-01 6.07597709e-01 4.21531081e-01 3.15499187e-01 2.40881145e-01 1.75776720e-01 1.55213371e-01 1.69534549e-01 1.85833320e-01 2.15203092e-01 2.52017617e-01 4.97825816e-02 8.31615925e-02 2.32576311e-01 3.78985256e-01 4.52788085e-01 4.88609403e-01 5.09834826e-01 5.26259959e-01 5.41324854e-01 5.55936038e-01 5.70132375e-01 5.83822906e-01 5.97222626e-01 6.11278951e-01 6.28098011e-01 6.50950491e-01 6.82980478e-01 7.24043250e-01 7.67069101e-01 7.96940982e-01 7.89128900e-01 6.94230795e-01 4.91117716e-01 3.72084230e-01 3.19828957e-01 2.98914611e-01 3.36360127e-01 4.73959208e-01 5.53396761e-01 5.84827781e-01 5.83956480e-01 5.12063727e-02 8.58430266e-02 2.40647808e-01 3.86618108e-01 4.55244213e-01 4.85841930e-01 5.02577305e-01 5.15149176e-01 5.26925087e-01 5.38861275e-01 5.51122010e-01 5.63726008e-01 5.76866329e-01 5.91234744e-01 6.08437836e-01 6.31178200e-01 6.62315905e-01 7.02074766e-01 7.44834423e-01 7.79285192e-01 7.91905761e-01 7.68916190e-01 7.09044516e-01 6.70154572e-01 6.65044963e-01 6.71178102e-01 6.96017206e-01 7.44843245e-01 7.75536954e-01 7.81822503e-01 7.75325119e-01 5.24159335e-02 8.81768614e-02 2.47330531e-01 3.90677869e-01 4.53573108e-01 4.79425788e-01 4.92417961e-01 5.01755238e-01 5.10589480e-01 5.19937932e-01 5.30187368e-01 5.41598260e-01 5.54434836e-01 5.69043696e-01 5.86047351e-01 6.06579900e-01 6.32077754e-01 6.62958682e-01 6.96595192e-01 7.26882160e-01 7.46772587e-01 7.52014756e-01 7.47077882e-01 7.48657227e-01 7.58034110e-01 7.67898619e-01 7.78865397e-01 7.90876031e-01 7.95758843e-01 7.94224143e-01 7.89157093e-01 5.37681095e-02 9.07264650e-02 2.54380465e-01 3.93378556e-01 4.50624853e-01 4.72790033e-01 4.83050525e-01 4.89838749e-01 4.96090502e-01 5.02951264e-01 5.11107028e-01 5.21157444e-01 5.33586919e-01 5.48598170e-01 5.65985978e-01 5.85173190e-01 6.05362236e-01 6.25513792e-01 6.43960238e-01 6.58250630e-01 6.66330516e-01 6.68993175e-01 6.71424806e-01 6.79458797e-01 6.90641820e-01 7.01116681e-01 7.10422337e-01 7.18758881e-01 7.24405706e-01 7.27222741e-01 7.27568448e-01 5.59334122e-02 9.37915295e-02 2.64595449e-01 3.99929792e-01 4.52427238e-01 4.72150952e-01 4.80637401e-01 4.85571057e-01 4.89759594e-01 4.94489878e-01 5.00692666e-01 5.09240687e-01 5.20854533e-01 5.35811305e-01 5.53594947e-01 5.72657585e-01 5.90456843e-01 6.03820562e-01 6.09559000e-01 6.05443537e-01 5.92232943e-01 5.76790214e-01 5.71276248e-01 5.81829786e-01 6.01134360e-01 6.19261205e-01 6.32408559e-01 6.41350985e-01 6.47635400e-01 6.52679980e-01 6.56099260e-01 6.08361401e-02 9.31718796e-02 2.70752162e-01 4.11823332e-01 4.60652769e-01 4.78665918e-01 4.86206710e-01 4.90338057e-01 4.93674755e-01 4.97481763e-01 5.02718389e-01 5.10294676e-01 5.20970225e-01 5.35056949e-01 5.52040398e-01 5.70271254e-01 5.86908340e-01 5.98231733e-01 6.00357950e-01 5.90546548e-01 5.69733381e-01 5.46155572e-01 5.34697771e-01 5.44226587e-01 5.67385256e-01 5.90437174e-01 6.06621504e-01 6.16133809e-01 6.21543229e-01 6.24881625e-01 6.25109732e-01 
