# vtk DataFile Version 2.0
results/4_density.vtk, Created by Freefem++ 
ASCII
DATASET UNSTRUCTURED_GRID
POINTS 961 float
0 0 0
0.033333333 0 0
0.066666667 0 0
0.1 0 0
0.13333333 0 0
0.16666667 0 0
0.2 0 0
0.23333333 0 0
0.26666667 0 0
0.3 0 0
0.33333333 0 0
0.36666667 0 0
0.4 0 0
0.43333333 0 0
0.46666667 0 0
0.5 0 0
0.53333333 0 0
0.56666667 0 0
0.6 0 0
0.63333333 0 0
0.66666667 0 0
0.7 0 0
0.73333333 0 0
0.76666667 0 0
0.8 0 0
0.83333333 0 0
0.86666667 0 0
0.9 0 0
0.93333333 0 0
0.96666667 0 0
1 0 0
0 0.033333333 0
0.033333333 0.033333333 0
0.066666667 0.033333333 0
0.1 0.033333333 0
0.13333333 0.033333333 0
0.16666667 0.033333333 0
0.2 0.033333333 0
0.23333333 0.033333333 0
0.26666667 0.033333333 0
0.3 0.033333333 0
0.33333333 0.033333333 0
0.36666667 0.033333333 0
0.4 0.033333333 0
0.43333333 0.033333333 0
0.46666667 0.033333333 0
0.5 0.033333333 0
0.53333333 0.033333333 0
0.56666667 0.033333333 0
0.6 0.033333333 0
0.63333333 0.033333333 0
0.66666667 0.033333333 0
0.7 0.033333333 0
0.73333333 0.033333333 0
0.76666667 0.033333333 0
0.8 0.033333333 0
0.83333333 0.033333333 0
0.86666667 0.033333333 0
0.9 0.033333333 0
0.93333333 0.033333333 0
0.96666667 0.033333333 0
1 0.033333333 0
0 0.066666667 0
0.033333333 0.066666667 0
0.066666667 0.066666667 0
0.1 0.066666667 0
0.13333333 0.066666667 0
0.16666667 0.066666667 0
0.2 0.066666667 0
0.23333333 0.066666667 0
0.26666667 0.066666667 0
0.3 0.066666667 0
0.33333333 0.066666667 0
0.36666667 0.066666667 0
0.4 0.066666667 0
0.43333333 0.066666667 0
0.46666667 0.066666667 0
0.5 0.066666667 0
0.53333333 0.066666667 0
0.56666667 0.066666667 0
0.6 0.066666667 0
0.63333333 0.066666667 0
0.66666667 0.066666667 0
0.7 0.066666667 0
0.73333333 0.066666667 0
0.76666667 0.066666667 0
0.8 0.066666667 0
0.83333333 0.066666667 0
0.86666667 0.066666667 0
0.9 0.066666667 0
0.93333333 0.066666667 0
0.96666667 0.066666667 0
1 0.066666667 0
0 0.1 0
0.033333333 0.1 0
0.066666667 0.1 0
0.1 0.1 0
0.13333333 0.1 0
0.16666667 0.1 0
0.2 0.1 0
0.23333333 0.1 0
0.26666667 0.1 0
0.3 0.1 0
0.33333333 0.1 0
0.36666667 0.1 0
0.4 0.1 0
0.43333333 0.1 0
0.46666667 0.1 0
0.5 0.1 0
0.53333333 0.1 0
0.56666667 0.1 0
0.6 0.1 0
0.63333333 0.1 0
0.66666667 0.1 0
0.7 0.1 0
0.73333333 0.1 0
0.76666667 0.1 0
0.8 0.1 0
0.83333333 0.1 0
0.86666667 0.1 0
0.9 0.1 0
0.93333333 0.1 0
0.96666667 0.1 0
1 0.1 0
0 0.13333333 0
0.033333333 0.13333333 0
0.066666667 0.13333333 0
0.1 0.13333333 0
0.13333333 0.13333333 0
0.16666667 0.13333333 0
0.2 0.13333333 0
0.23333333 0.13333333 0
0.26666667 0.13333333 0
0.3 0.13333333 0
0.33333333 0.13333333 0
0.36666667 0.13333333 0
0.4 0.13333333 0
0.43333333 0.13333333 0
0.46666667 0.13333333 0
0.5 0.13333333 0
0.53333333 0.13333333 0
0.56666667 0.13333333 0
0.6 0.13333333 0
0.63333333 0.13333333 0
0.66666667 0.13333333 0
0.7 0.13333333 0
0.73333333 0.13333333 0
0.76666667 0.13333333 0
0.8 0.13333333 0
0.83333333 0.13333333 0
0.86666667 0.13333333 0
0.9 0.13333333 0
0.93333333 0.13333333 0
0.96666667 0.13333333 0
1 0.13333333 0
0 0.16666667 0
0.033333333 0.16666667 0
0.066666667 0.16666667 0
0.1 0.16666667 0
0.13333333 0.16666667 0
0.16666667 0.16666667 0
0.2 0.16666667 0
0.23333333 0.16666667 0
0.26666667 0.16666667 0
0.3 0.16666667 0
0.33333333 0.16666667 0
0.36666667 0.16666667 0
0.4 0.16666667 0
0.43333333 0.16666667 0
0.46666667 0.16666667 0
0.5 0.16666667 0
0.53333333 0.16666667 0
0.56666667 0.16666667 0
0.6 0.16666667 0
0.63333333 0.16666667 0
0.66666667 0.16666667 0
0.7 0.16666667 0
0.73333333 0.16666667 0
0.76666667 0.16666667 0
0.8 0.16666667 0
0.83333333 0.16666667 0
0.86666667 0.16666667 0
0.9 0.16666667 0
0.93333333 0.16666667 0
0.96666667 0.16666667 0
1 0.16666667 0
0 0.2 0
0.033333333 0.2 0
0.066666667 0.2 0
0.1 0.2 0
0.13333333 0.2 0
0.16666667 0.2 0
0.2 0.2 0
0.23333333 0.2 0
0.26666667 0.2 0
0.3 0.2 0
0.33333333 0.2 0
0.36666667 0.2 0
0.4 0.2 0
0.43333333 0.2 0
0.46666667 0.2 0
0.5 0.2 0
0.53333333 0.2 0
0.56666667 0.2 0
0.6 0.2 0
0.63333333 0.2 0
0.66666667 0.2 0
0.7 0.2 0
0.73333333 0.2 0
0.76666667 0.2 0
0.8 0.2 0
0.83333333 0.2 0
0.86666667 0.2 0
0.9 0.2 0
0.93333333 0.2 0
0.96666667 0.2 0
1 0.2 0
0 0.23333333 0
0.033333333 0.23333333 0
0.066666667 0.23333333 0
0.1 0.23333333 0
0.13333333 0.23333333 0
0.16666667 0.23333333 0
0.2 0.23333333 0
0.23333333 0.23333333 0
0.26666667 0.23333333 0
0.3 0.23333333 0
0.33333333 0.23333333 0
0.36666667 0.23333333 0
0.4 0.23333333 0
0.43333333 0.23333333 0
0.46666667 0.23333333 0
0.5 0.23333333 0
0.53333333 0.23333333 0
0.56666667 0.23333333 0
0.6 0.23333333 0
0.63333333 0.23333333 0
0.66666667 0.23333333 0
0.7 0.23333333 0
0.73333333 0.23333333 0
0.76666667 0.23333333 0
0.8 0.23333333 0
0.83333333 0.23333333 0
0.86666667 0.23333333 0
0.9 0.23333333 0
0.93333333 0.23333333 0
0.96666667 0.23333333 0
1 0.23333333 0
0 0.26666667 0
0.033333333 0.26666667 0
0.066666667 0.26666667 0
0.1 0.26666667 0
0.13333333 0.26666667 0
0.16666667 0.26666667 0
0.2 0.26666667 0
0.23333333 0.26666667 0
0.26666667 0.26666667 0
0.3 0.26666667 0
0.33333333 0.26666667 0
0.36666667 0.26666667 0
0.4 0.26666667 0
0.43333333 0.26666667 0
0.46666667 0.26666667 0
0.5 0.26666667 0
0.53333333 0.26666667 0
0.56666667 0.26666667 0
0.6 0.26666667 0
0.63333333 0.26666667 0
0.66666667 0.26666667 0
0.7 0.26666667 0
0.73333333 0.26666667 0
0.76666667 0.26666667 0
0.8 0.26666667 0
0.83333333 0.26666667 0
0.86666667 0.26666667 0
0.9 0.26666667 0
0.93333333 0.26666667 0
0.96666667 0.26666667 0
1 0.26666667 0
0 0.3 0
0.033333333 0.3 0
0.066666667 0.3 0
0.1 0.3 0
0.13333333 0.3 0
0.16666667 0.3 0
0.2 0.3 0
0.23333333 0.3 0
0.26666667 0.3 0
0.3 0.3 0
0.33333333 0.3 0
0.36666667 0.3 0
0.4 0.3 0
0.43333333 0.3 0
0.46666667 0.3 0
0.5 0.3 0
0.53333333 0.3 0
0.56666667 0.3 0
0.6 0.3 0
0.63333333 0.3 0
0.66666667 0.3 0
0.7 0.3 0
0.73333333 0.3 0
0.76666667 0.3 0
0.8 0.3 0
0.83333333 0.3 0
0.86666667 0.3 0
0.9 0.3 0
0.93333333 0.3 0
0.96666667 0.3 0
1 0.3 0
0 0.33333333 0
0.033333333 0.33333333 0
0.066666667 0.33333333 0
0.1 0.33333333 0
0.13333333 0.33333333 0
0.16666667 0.33333333 0
0.2 0.33333333 0
0.23333333 0.33333333 0
0.26666667 0.33333333 0
0.3 0.33333333 0
0.33333333 0.33333333 0
0.36666667 0.33333333 0
0.4 0.33333333 0
0.43333333 0.33333333 0
0.46666667 0.33333333 0
0.5 0.33333333 0
0.53333333 0.33333333 0
0.56666667 0.33333333 0
0.6 0.33333333 0
0.63333333 0.33333333 0
0.66666667 0.33333333 0
0.7 0.33333333 0
0.73333333 0.33333333 0
0.76666667 0.33333333 0
0.8 0.33333333 0
0.83333333 0.33333333 0
0.86666667 0.33333333 0
0.9 0.33333333 0
0.93333333 0.33333333 0
0.96666667 0.33333333 0
1 0.33333333 0
0 0.36666667 0
0.033333333 0.36666667 0
0.066666667 0.36666667 0
0.1 0.36666667 0
0.13333333 0.36666667 0
0.16666667 0.36666667 0
0.2 0.36666667 0
0.23333333 0.36666667 0
0.26666667 0.36666667 0
0.3 0.36666667 0
0.33333333 0.36666667 0
0.36666667 0.36666667 0
0.4 0.36666667 0
0.43333333 0.36666667 0
0.46666667 0.36666667 0
0.5 0.36666667 0
0.53333333 0.36666667 0
0.56666667 0.36666667 0
0.6 0.36666667 0
0.63333333 0.36666667 0
0.66666667 0.36666667 0
0.7 0.36666667 0
0.73333333 0.36666667 0
0.76666667 0.36666667 0
0.8 0.36666667 0
0.83333333 0.36666667 0
0.86666667 0.36666667 0
0.9 0.36666667 0
0.93333333 0.36666667 0
0.96666667 0.36666667 0
1 0.36666667 0
0 0.4 0
0.033333333 0.4 0
0.066666667 0.4 0
0.1 0.4 0
0.13333333 0.4 0
0.16666667 0.4 0
0.2 0.4 0
0.23333333 0.4 0
0.26666667 0.4 0
0.3 0.4 0
0.33333333 0.4 0
0.36666667 0.4 0
0.4 0.4 0
0.43333333 0.4 0
0.46666667 0.4 0
0.5 0.4 0
0.53333333 0.4 0
0.56666667 0.4 0
0.6 0.4 0
0.63333333 0.4 0
0.66666667 0.4 0
0.7 0.4 0
0.73333333 0.4 0
0.76666667 0.4 0
0.8 0.4 0
0.83333333 0.4 0
0.86666667 0.4 0
0.9 0.4 0
0.93333333 0.4 0
0.96666667 0.4 0
1 0.4 0
0 0.43333333 0
0.033333333 0.43333333 0
0.066666667 0.43333333 0
0.1 0.43333333 0
0.13333333 0.43333333 0
0.16666667 0.43333333 0
0.2 0.43333333 0
0.23333333 0.43333333 0
0.26666667 0.43333333 0
0.3 0.43333333 0
0.33333333 0.43333333 0
0.36666667 0.43333333 0
0.4 0.43333333 0
0.43333333 0.43333333 0
0.46666667 0.43333333 0
0.5 0.43333333 0
0.53333333 0.43333333 0
0.56666667 0.43333333 0
0.6 0.43333333 0
0.63333333 0.43333333 0
0.66666667 0.43333333 0
0.7 0.43333333 0
0.73333333 0.43333333 0
0.76666667 0.43333333 0
0.8 0.43333333 0
0.83333333 0.43333333 0
0.86666667 0.43333333 0
0.9 0.43333333 0
0.93333333 0.43333333 0
0.96666667 0.43333333 0
1 0.43333333 0
0 0.46666667 0
0.033333333 0.46666667 0
0.066666667 0.46666667 0
0.1 0.46666667 0
0.13333333 0.46666667 0
0.16666667 0.46666667 0
0.2 0.46666667 0
0.23333333 0.46666667 0
0.26666667 0.46666667 0
0.3 0.46666667 0
0.33333333 0.46666667 0
0.36666667 0.46666667 0
0.4 0.46666667 0
0.43333333 0.46666667 0
0.46666667 0.46666667 0
0.5 0.46666667 0
0.53333333 0.46666667 0
0.56666667 0.46666667 0
0.6 0.46666667 0
0.63333333 0.46666667 0
0.66666667 0.46666667 0
0.7 0.46666667 0
0.73333333 0.46666667 0
0.76666667 0.46666667 0
0.8 0.46666667 0
0.83333333 0.46666667 0
0.86666667 0.46666667 0
0.9 0.46666667 0
0.93333333 0.46666667 0
0.96666667 0.46666667 0
1 0.46666667 0
0 0.5 0
0.033333333 0.5 0
0.066666667 0.5 0
0.1 0.5 0
0.13333333 0.5 0
0.16666667 0.5 0
0.2 0.5 0
0.23333333 0.5 0
0.26666667 0.5 0
0.3 0.5 0
0.33333333 0.5 0
0.36666667 0.5 0
0.4 0.5 0
0.43333333 0.5 0
0.46666667 0.5 0
0.5 0.5 0
0.53333333 0.5 0
0.56666667 0.5 0
0.6 0.5 0
0.63333333 0.5 0
0.66666667 0.5 0
0.7 0.5 0
0.73333333 0.5 0
0.76666667 0.5 0
0.8 0.5 0
0.83333333 0.5 0
0.86666667 0.5 0
0.9 0.5 0
0.93333333 0.5 0
0.96666667 0.5 0
1 0.5 0
0 0.53333333 0
0.033333333 0.53333333 0
0.066666667 0.53333333 0
0.1 0.53333333 0
0.13333333 0.53333333 0
0.16666667 0.53333333 0
0.2 0.53333333 0
0.23333333 0.53333333 0
0.26666667 0.53333333 0
0.3 0.53333333 0
0.33333333 0.53333333 0
0.36666667 0.53333333 0
0.4 0.53333333 0
0.43333333 0.53333333 0
0.46666667 0.53333333 0
0.5 0.53333333 0
0.53333333 0.53333333 0
0.56666667 0.53333333 0
0.6 0.53333333 0
0.63333333 0.53333333 0
0.66666667 0.53333333 0
0.7 0.53333333 0
0.73333333 0.53333333 0
0.76666667 0.53333333 0
0.8 0.53333333 0
[...]
CELL_DATA 1920
Scalars  Label int 1
LOOKUP_TABLE FreeFempp_table
0
0
0
0
0
0
0
0
0
0
0
0
0
0
0
0
0
0
0
0
0
0
0
0
0
0
0
0
0
0
0
0
0
0
0
0
0
0
0
0
0
0
0
0
0
0
0
0
0
0
0
0
0
0
0
0
0
0
0
0
0
0
0
0
0
0
0
0
0
0
0
0
0
0
0
0
0
0
0
0
0
0
0
0
0
0
0
0
0
0
0
0
0
0
0
0
0
0
0
0
0
0
0
0
0
0
0
0
0
0
0
0
0
0
0
0
0
0
0
0
0
0
0
0
0
0
0
0
0
0
0
0
0
0
0
0
0
0
0
0
0
0
0
0
0
0
0
0
0
0
0
0
0
0
0
0
0
0
0
0
0
0
0
0
0
0
0
0
0
0
0
0
0
0
0
0
0
0
0
0
0
0
0
0
0
0
0
0
0
0
0
0
0
0
0
0
0
0
0
0
0
0
0
0
0
0
0
0
0
0
0
0
0
0
0
0
0
0
0
0
0
0
0
0
0
0
0
0
0
0
0
0
0
0
0
0
0
0
0
0
0
0
0
0
0
0
0
0
0
0
0
0
0
0
0
0
0
0
0
0
0
0
0
0
0
0
0
0
0
0
0
0
0
0
0
0
0
0
0
0
0
0
0
0
0
0
0
0
0
0
0
0
0
0
0
0
0
0
0
0
0
0
0
0
0
0
0
0
0
0
0
0
0
0
0
0
0
0
0
0
0
0
0
0
0
0
0
0
0
0
0
0
0
0
0
0
0
0
0
0
0
0
0
0
0
0
0
0
0
0
0
0
0
0
0
0
0
0
0
0
0
0
0
0
0
0
0
0
0
0
0
0
0
0
0
0
0
0
0
0
0
0
0
0
0
0
0
0
0
0
0
0
0
0
0
0
0
0
0
0
0
0
0
0
0
0
0
0
0
0
0
0
0
0
0
0
0
0
0
0
0
0
0
0
0
0
0
0
0
0
0
0
0
0
0
0
0
0
0
0
0
0
0
0
0
0
0
0
0
0
0
0
0
0
0
0
0
0
0
0
0
0
0
0
0
0
0
0
0
0
0
0
0
0
0
0
0
0
0
0
0
0
0
0
0
0
0
0
0
0
0
0
0
0
0
0
0
0
0
0
0
0
0
0
0
0
0
0
0
0
0
0
0
0
0
0
0
0
0
0
0
0
0
0
0
0
0
0
0
0
0
0
0
0
0
0
0
0
0
0
0
0
0
0
0
0
0
0
0
0
0
0
0
0
0
0
0
0
0
0
0
0
0
0
0
0
0
0
0
0
0
0
0
0
0
0
0
0
0
0
0
0
0
0
0
0
0
0
0
0
0
0
0
0
0
0
0
0
0
0
0
0
0
0
0
0
0
0
0
0
0
0
0
0
0
0
0
0
0
0
0
0
0
0
0
0
0
0
0
0
0
0
0
0
0
0
0
0
0
0
0
0
0
0
0
0
0
0
0
0
0
0
0
0
0
0
0
0
0
0
0
0
0
0
0
0
0
0
0
0
0
0
0
0
0
0
0
0
0
0
0
0
0
0
0
0
0
0
0
0
0
0
0
0
0
0
0
0
0
0
0
0
0
0
0
0
0
0
0
0
0
0
0
0
0
0
0
0
0
0
0
0
0
0
0
0
0
0
0
0
0
0
0
0
0
0
0
0
0
0
0
0
0
0
0
0
0
0
0
0
0
0
0
0
0
0
0
0
0
0
0
0
0
0
0
0
0
0
0
0
0
0
0
0
0
0
0
0
0
0
0
0
0
0
0
0
0
0
0
0
0
0
0
0
0
0
0
0
0
0
0
0
0
0
0
0
0
0
0
0
0
0
0
0
0
0
0
0
0
0
0
0
0
0
0
0
0
0
0
0
0
0
0
0
0
0
0
0
0
0
0
0
0
0
0
0
0
0
0
0
0
0
0
0
0
0
0
0
0
0
0
0
0
0
0
0
0
0
0
0
0
0
0
0
0
0
0
0
0
0
0
0
0
0
0
0
0
0
0
0
0
0
0
0
0
0
0
0
0
0
0
0
0
0
0
0
0
0
0
0
0
0
0
0
0
0
0
0
0
0
0
0
0
0
0
0
0
0
0
0
0
0
0
0
0
0
0
0
0
0
0
0
0
0
0
0
0
0
0
0
0
0
0
0
0
0
0
0
0
0
0
0
0
0
0
0
0
0
0
0
0
0
0
0
0
0
0
0
0
0
0
0
0
0
0
0
0
0
0
0
0
0
0
0
0
0
0
0
0
0
0
0
0
0
0
0
0
0
0
0
0
0
0
0
0
0
0
0
0
0
0
0
0
0
0
0
0
0
0
0
0
0
0
0
0
0
0
0
0
0
0
0
0
0
0
0
0
0
0
0
0
0
0
0
0
0
0
0
0
0
0
0
0
0
0
0
0
0
0
0
0
0
0
0
0
0
0
0
0
0
0
0
0
0
0
0
0
0
0
0
0
0
0
0
0
0
0
0
0
0
0
0
0
0
0
0
0
0
0
0
0
0
0
0
0
0
0
0
0
0
0
0
0
0
0
0
0
0
0
0
0
0
0
0
0
0
0
0
0
0
0
0
0
0
0
0
0
0
0
0
0
0
0
0
0
0
0
0
0
0
0
0
0
0
0
0
0
0
0
0
0
0
0
0
0
0
0
0
0
0
0
0
0
0
0
0
0
0
0
0
0
0
0
0
0
0
0
0
0
0
0
0
0
0
0
0
0
0
0
0
0
0
0
0
0
0
0
0
0
0
0
0
0
0
0
0
0
0
0
0
0
0
0
0
0
0
0
0
0
0
0
0
0
0
0
0
0
0
0
0
0
0
0
0
0
0
0
0
0
0
0
0
0
0
0
0
0
0
0
0
0
0
0
0
0
0
0
0
0
0
0
0
0
0
0
0
0
0
0
0
0
0
0
0
0
0
0
0
0
0
0
0
0
0
0
0
0
0
0
0
0
0
0
0
0
0
0
0
0
0
0
0
0
0
0
0
0
0
0
0
0
0
0
0
0
0
0
0
0
0
0
0
0
0
0
0
0
0
0
0
0
0
0
0
0
0
0
0
0
0
0
0
0
0
0
0
0
0
0
0
0
0
0
0
0
0
0
0
0
0
0
0
0
0
0
0
0
0
0
0
0
0
0
0
0
0
0
0
0
0
0
0
0
0
0
0
0
0
0
0
0
0
0
0
0
0
0
0
0
0
0
0
0
0
0
0
0
0
0
0
0
0
0
0
0
0
0
0
0
0
0
0
0
0
0
0
0
0
0
0
0
0
0
0
0
0
0
0
0
0
0
0
0
0
0
0
0
0
0
0
0
0
0
0
0
0
0
0
0
0
0
0
0
0
0
0
0
0
0
0
0
0
0
0
0
0
0
0
0
0
0
0
0
0
0
0
0
0
0
0
0
0
0
0
0
0
0
0
0
0
0
0
0
0
0
0
0
0
0
0
0
0
0
0
0
0
0
0
0
0
0
0
0
0
0
0
0
0
0
0
0
0
0
0
0
0
0
0
0
0
0
0
0
0
0
0
0
0
0
0
0
0
0
0
0
0
0
0
0
0
0
0
0
0
0
0
0
0
0
0
0
0
0
0
0
0
0
0
0
0
0
0
0
0
0
0
0
0
0
0
0
0
0
0
0
0
0
0
0
0
0
0
0
0
0
0
0
0
0
0
0
0
0
0
0
0
0
0
0
0
0
0
0
0
0
0
0
0
0
0
0
0
0
0
0
0
0
0
0
0
0
0
0
0
0
0
0
0
0
0
0
0
0
0
0
0
0
0
0
0
0
0
0
0
0
0
0
0
0
0
0
0
0
0
0
0
0
0
0
0
0
0
0
0
0
0
0
0
0
0
0
0
0
0
0
0
0
0
0
0
0
0
0
0
0
0
0
0
0
0
0
0
0
0
0
0
0
0
0
0
0
0
0
0
0
0
0
0
0
0
0
0
0
0
0
0
0
0
0
0
0
0
0
0
0
0
0
0
0
0
0
0
0
0
0
0
0
0
0
0
0
0
0
0
0
0
0
0
0
0
0
0
0
0
0
0
0
0
0
0
1
1
1
1
1
1
1
1
1
1
1
1
1
1
1
1
1
1
1
1
1
1
1
1
1
1
1
1
1
1
2
2
2
2
2
2
2
2
2
2
2
2
2
2
2
2
2
2
2
2
2
2
2
2
2
2
2
2
2
2
3
3
3
3
3
3
3
3
3
3
3
3
3
3
3
3
3
3
3
3
3
3
3
3
3
3
3
3
3
3
4
4
4
4
4
4
4
4
4
4
4
4
4
4
4
4
4
4
4
4
4
4
4
4
4
4
4
4
4
4

LOOKUP_TABLE FreeFempp_table 5
1.00000000 0.00000000 0.00000000 1.00000000
1.00000000 1.00000000 0.00000000 1.00000000
1.00000000 0.00000000 1.00000000 1.00000000
0.00000000 1.00000000 0.00000000 1.00000000
0.00000000 1.00000000 1.00000000 1.00000000

POINT_DATA 961
FIELD FieldData 1
Density 1 961 float
2.35395040e-03 2.45001493e-03 2.59788963e-03 3.30940052e-03 4.95588360e-03 6.69638859e-03 7.12650036e-03 6.55463338e-03 6.84936019e-03 1.08177699e-02 3.19461972e-02 1.05798736e-01 2.13129759e-01 3.04444522e-01 3.81351799e-01 4.77212816e-01 5.75429678e-01 5.68581700e-01 4.08683479e-01 3.16011637e-01 4.45116609e-01 5.56635678e-01 5.17180800e-01 4.89772856e-01 5.11470199e-01 5.52276373e-01 5.88582456e-01 6.13536000e-01 6.28243148e-01 6.35738671e-01 6.35964990e-01 4.21358179e-03 3.82920611e-03 3.61131434e-03 3.87437898e-03 4.64559859e-03 5.51502081e-03 5.88074606e-03 5.78489853e-03 6.03847159e-03 8.10715277e-03 1.79541148e-02 6.99473619e-02 1.71638012e-01 2.63968050e-01 3.39638531e-01 4.34316814e-01 5.39992571e-01 5.36628842e-01 3.34764540e-01 1.83602929e-01 2.18582049e-01 3.37105572e-01 3.43716621e-01 3.46518576e-01 4.04192060e-01 4.82754529e-01 5.43982089e-01 5.83124638e-01 6.05612934e-01 6.18126094e-01 6.22999072e-01 1.79913994e-02 1.37914745e-02 1.12840375e-02 1.06472466e-02 1.08847683e-02 1.13465171e-02 1.15726590e-02 1.14348708e-02 1.10748466e-02 1.08704548e-02 1.31606814e-02 2.76060682e-02 8.81730691e-02 1.73440650e-01 2.46264398e-01 3.39229226e-01 4.56016719e-01 4.77012098e-01 2.49623433e-01 8.69191587e-02 5.98795265e-02 6.82545304e-02 7.07745999e-02 8.42715651e-02 1.36947751e-01 2.57915676e-01 3.90715688e-01 4.80555087e-01 5.32269835e-01 5.61592996e-01 5.74851513e-01 8.29962119e-02 6.96589425e-02 5.83163202e-02 5.40941954e-02 5.32564037e-02 5.37245385e-02 5.41909374e-02 5.32849319e-02 4.88896705e-02 3.89421545e-02 2.72980575e-02 2.45018397e-02 3.39001529e-02 7.39956871e-02 1.23871379e-01 2.05199912e-01 3.27148110e-01 4.33033675e-01 3.05771440e-01 8.32964927e-02 3.04821171e-02 2.02421751e-02 1.73520520e-02 1.89451780e-02 2.93060616e-02 6.78067580e-02 1.80845082e-01 3.21744829e-01 4.19463366e-01 4.76157576e-01 5.00505924e-01 1.91321373e-01 1.71639785e-01 1.50824472e-01 1.41301438e-01 1.37902975e-01 1.37533098e-01 1.38503462e-01 1.38740197e-01 1.34484768e-01 1.21026181e-01 9.71974358e-02 6.79903626e-02 3.46754268e-02 2.93136407e-02 3.97359245e-02 8.56970996e-02 1.74755439e-01 3.22573692e-01 4.16286409e-01 1.93204537e-01 4.35183384e-02 1.65477041e-02 1.04946326e-02 9.16160364e-03 1.07815601e-02 1.88447069e-02 5.38082682e-02 1.60794824e-01 2.90074617e-01 3.77147853e-01 4.13078368e-01 3.04595381e-01 2.81400740e-01 2.55800337e-01 2.42323458e-01 2.35845909e-01 2.33134016e-01 2.32660204e-01 2.32803330e-01 2.30442107e-01 2.20924944e-01 1.99462384e-01 1.59937248e-01 9.41203460e-02 4.22248654e-02 2.98608039e-02 3.40167359e-02 6.90383762e-02 1.50519490e-01 3.41063648e-01 3.76598567e-01 1.22143045e-01 3.18033956e-02 1.56217106e-02 1.09944344e-02 9.42396186e-03 1.05461916e-02 1.90630723e-02 6.03856631e-02 1.66956678e-01 2.73369849e-01 3.19280565e-01 4.17434424e-01 3.95706922e-01 3.71342689e-01 3.56883705e-01 3.48030448e-01 3.42388600e-01 3.38885486e-01 3.36482853e-01 3.33073765e-01 3.24998707e-01 3.07125509e-01 2.71929204e-01 2.11689219e-01 1.38217226e-01 8.22942331e-02 3.86312120e-02 3.01201902e-02 4.40866053e-02 1.20524570e-01 2.69423604e-01 2.61902004e-01 1.11838691e-01 4.94547002e-02 3.16062756e-02 2.23313738e-02 1.51749048e-02 1.36133051e-02 2.37531457e-02 7.53210932e-02 1.69449508e-01 2.19711006e-01 5.32341778e-01 5.16665578e-01 4.98221368e-01 4.85578984e-01 4.75926965e-01 4.68115926e-01 4.61752027e-01 4.56416965e-01 4.50980306e-01 4.43083823e-01 4.28904533e-01 4.02790368e-01 3.58378351e-01 2.95747191e-01 2.19730318e-01 1.20405987e-01 4.40702885e-02 2.67909635e-02 3.16737369e-02 5.05732633e-02 9.01750252e-02 1.78794950e-01 1.67376742e-01 1.32636696e-01 9.69320461e-02 5.38078547e-02 2.47173812e-02 1.79043841e-02 2.83034984e-02 7.77825341e-02 1.20934598e-01 6.38926983e-01 6.31889343e-01 6.21504724e-01 6.12605691e-01 6.04338050e-01 5.96592128e-01 5.89494348e-01 5.83099008e-01 5.77017963e-01 5.70034623e-01 5.59866726e-01 5.43065012e-01 5.15379548e-01 4.73021626e-01 4.09878731e-01 3.09447467e-01 1.68264762e-01 6.33869022e-02 3.57558504e-02 2.68295556e-02 2.84443386e-02 4.29614447e-02 7.26180971e-02 1.58797175e-01 1.59103453e-01 9.61263552e-02 7.72077069e-02 3.53664197e-02 1.92095507e-02 2.69518401e-02 4.70418483e-02 7.16833711e-01 7.17636287e-01 7.14224339e-01 7.09408462e-01 7.04132974e-01 6.98754489e-01 6.93503857e-01 6.88557088e-01 6.83871090e-01 6.78938150e-01 6.72644615e-01 6.63302064e-01 6.48806155e-01 6.26578808e-01 5.91794968e-01 5.33779562e-01 4.37365651e-01 2.96700299e-01 1.66221812e-01 7.42244497e-02 4.47677523e-02 3.31403799e-02 2.99481302e-02 3.83802280e-02 4.34925221e-02 4.17827964e-02 6.60223514e-02 1.17338084e-01 2.87959687e-02 1.49896406e-02 1.77127048e-02 7.51177430e-01 7.57098973e-01 7.58206844e-01 7.56702006e-01 7.54849970e-01 7.53032982e-01 7.51268864e-01 7.49515414e-01 7.47653902e-01 7.45369673e-01 7.42115259e-01 7.37204254e-01 7.29919195e-01 7.19384730e-01 7.03911543e-01 6.80176795e-01 6.43358350e-01 5.87289810e-01 5.04246533e-01 3.76086861e-01 2.48166069e-01 1.33414388e-01 6.53762817e-02 4.02374193e-02 2.82996204e-02 2.69117318e-02 4.57457639e-02 1.41250744e-01 5.92578463e-02 1.54537810e-02 1.11293895e-02 7.34360337e-01 7.42416263e-01 7.45834172e-01 7.46794522e-01 7.48701036e-01 7.51801312e-01 7.55638719e-01 7.59533167e-01 7.62745917e-01 7.64568448e-01 7.64455914e-01 7.62158215e-01 7.57740319e-01 7.51419604e-01 7.43273258e-01 7.33109355e-01 7.20666528e-01 7.05468535e-01 6.85214400e-01 6.51541293e-01 5.97134113e-01 4.99582857e-01 3.55595589e-01 2.00387552e-01 9.06810537e-02 5.69019429e-02 5.75494096e-02 1.31522983e-01 1.86677635e-01 2.95734517e-02 1.40282148e-02 6.57724679e-01 6.62418008e-01 6.64080918e-01 6.65872633e-01 6.72377825e-01 6.83843255e-01 6.98885560e-01 7.15105891e-01 7.29763806e-01 7.40620315e-01 7.46544540e-01 7.47570932e-01 7.44562149e-01 7.38779843e-01 7.31554687e-01 7.24167109e-01 7.17834055e-01 7.13453054e-01 7.10973680e-01 7.08513558e-01 7.02511728e-01 6.84378624e-01 6.42900169e-01 5.60575604e-01 4.32706118e-01 2.94679284e-01 1.90773606e-01 2.35475689e-01 3.16572338e-01 5.22141904e-02 1.98513325e-02 5.21615505e-01 5.12884140e-01 5.02886176e-01 5.00245631e-01 5.10190368e-01 5.33840120e-01 5.69112718e-01 6.10208213e-01 6.49126887e-01 6.79264128e-01 6.97855830e-01 7.05559254e-01 7.04786241e-01 6.98452413e-01 6.89394891e-01 6.80162072e-01 6.72855318e-01 6.68842494e-01 6.68491840e-01 6.71120286e-01 6.75027490e-01 6.76721394e-01 6.71447873e-01 6.53762043e-01 6.24459922e-01 5.85273802e-01 5.33767521e-01 5.40213585e-01 4.61204290e-01 6.98641911e-02 2.44517736e-02 3.60892236e-01 3.34364980e-01 3.06013018e-01 2.94269472e-01 3.02616566e-01 3.33735675e-01 3.88601273e-01 4.60961491e-01 5.35398126e-01 5.95665455e-01 6.34321749e-01 6.52701914e-01 6.55859947e-01 6.49250150e-01 6.37680948e-01 6.25131130e-01 6.14624202e-01 6.08008981e-01 6.05866671e-01 6.07706308e-01 6.12250388e-01 6.17526174e-01 6.21465564e-01 6.23704195e-01 6.30375206e-01 6.54823422e-01 7.02660203e-01 7.35094666e-01 5.38168252e-01 7.57964775e-02 2.56110411e-02 2.25971177e-01 1.91415891e-01 1.55668676e-01 1.40872747e-01 1.46067172e-01 1.74023882e-01 2.31816277e-01 3.21495622e-01 4.26439434e-01 5.17566442e-01 5.77676535e-01 6.07399344e-01 6.14805400e-01 6.08210146e-01 5.94419658e-01 5.78777671e-01 5.65270901e-01 5.56452453e-01 5.53439975e-01 5.56183457e-01 5.63927054e-01 5.75779915e-01 5.91713369e-01 6.14389300e-01 6.51400030e-01 7.11443484e-01 7.80123651e-01 7.77682006e-01 4.86173868e-01 6.35889769e-02 2.21021045e-02 1.35705203e-01 1.04394503e-01 7.46828839e-02 6.40044585e-02 6.84237182e-02 9.05912519e-02 1.41780064e-01 2.34334230e-01 3.56965095e-01 4.69777733e-01 5.44641912e-01 5.81406593e-01 5.91040850e-01 5.84107339e-01 5.68675339e-01 5.50894082e-01 5.35479724e-01 5.25799215e-01 5.23874521e-01 5.30610621e-01 5.46308815e-01 5.71382463e-01 6.07157171e-01 6.56096280e-01 7.18976796e-01 7.85099745e-01 8.18622649e-01 7.21233308e-01 2.80263603e-01 3.86802964e-02 1.55403810e-02 8.07648897e-02 5.71596995e-02 3.73202562e-02 3.17580476e-02 3.67919207e-02 5.62775955e-02 1.04618505e-01 2.01297566e-01 3.36707592e-01 4.60288107e-01 5.38941145e-01 5.75739563e-01 5.84550977e-01 5.76899290e-01 5.60891628e-01 5.42609751e-01 5.27043939e-01 5.18321276e-01 5.19612730e-01 5.33143103e-01 5.60440600e-01 6.02500021e-01 6.59095883e-01 7.26158261e-01 7.91242778e-01 8.31032097e-01 7.99467087e-01 5.44573188e-01 1.09667778e-01 1.96659807e-02 9.89664067e-03 4.79473360e-02 3.19920182e-02 2.03934573e-02 1.85177159e-02 2.47779917e-02 4.56403345e-02 1.00300275e-01 2.11923718e-01 3.59657973e-01 4.81879979e-01 5.52892566e-01 5.83540320e-01 5.89527607e-01 5.81731141e-01 5.67144930e-01 5.51017225e-01 5.38151801e-01 5.33249795e-01 5.40600538e-01 5.63554287e-01 6.03907108e-01 6.60673738e-01 7.27766573e-01 7.92003512e-01 8.34575236e-01 8.28685820e-01 6.90596282e-01 2.78689593e-01 4.41293791e-02 1.11209210e-02 6.88762683e-03 2.83608846e-02 1.85398981e-02 1.24858879e-02 1.30810887e-02 2.14915257e-02 4.88859564e-02 1.22571036e-01 2.60094881e-01 4.12272066e-01 5.18774331e-01 5.73984623e-01 5.95769048e-01 5.99145949e-01 5.93020380e-01 5.82673311e-01 5.72183251e-01 5.65869808e-01 5.68643332e-01 5.85303545e-01 6.19037867e-01 6.69449747e-01 7.30551124e-01 7.90168703e-01 8.32343698e-01 8.37485850e-01 7.56006062e-01 4.52177852e-01 1.00694887e-01 2.04471797e-02 7.97103252e-03 6.04580855e-03 1.65715292e-02 1.13058425e-02 8.71955603e-03 1.13201309e-02 2.38375347e-02 6.62180781e-02 1.74482316e-01 3.36401016e-01 4.74167615e-01 5.54339468e-01 5.91756582e-01 6.05809033e-01 6.08629644e-01 6.06617212e-01 6.03356004e-01 6.01851583e-01 6.05805099e-01 6.19718075e-01 6.47554457e-01 6.90105319e-01 7.42414653e-01 7.93763220e-01 8.30914140e-01 8.38758290e-01 7.83555925e-01 5.65678477e-01 1.92807138e-01 4.05098498e-02 1.27861286e-02 7.96898920e-03 7.60645326e-03 9.51411389e-03 7.34801497e-03 7.04929745e-03 1.19741661e-02 3.26570086e-02 1.04012214e-01 2.55451381e-01 4.19550806e-01 5.25681436e-01 5.78258991e-01 6.01186395e-01 6.10840380e-01 6.15748286e-01 6.19943202e-01 6.25656068e-01 6.35085702e-01 6.51196241e-01 6.77273989e-01 7.14904666e-01 7.60970056e-01 8.06389689e-01 8.38909507e-01 8.45286250e-01 7.99877048e-01 6.29603088e-01 2.90488064e-01 7.38539770e-02 2.24523488e-02 1.22068403e-02 1.20478207e-02 1.46938032e-02 5.69773652e-03 5.26510226e-03 6.70098560e-03 1.52454283e-02 5.22240624e-02 1.68843538e-01 3.48765165e-01 4.86580223e-01 5.57149172e-01 5.87924719e-01 6.01775646e-01 6.10641479e-01 6.19746208e-01 6.31186545e-01 6.46202564e-01 6.66368067e-01 6.93736911e-01 7.29768991e-01 7.73074090e-01 8.17358911e-01 8.52174580e-01 8.65184307e-01 8.35153520e-01 7.00264394e-01 3.84817004e-01 1.21379435e-01 3.98320444e-02 2.06820313e-02 1.89440902e-02 2.69485191e-02 3.87906916e-02 4.01786435e-03 4.43573389e-03 7.59151392e-03 2.27348171e-02 9.00907442e-02 2.55672187e-01 4.29212332e-01 5.27108729e-01 5.68566501e-01 5.85261166e-01 5.95117986e-01 6.05916440e-01 6.20239615e-01 6.38731837e-01 6.61894679e-01 6.90726399e-01 7.26295888e-01 7.68288553e-01 8.13125312e-01 8.53383541e-01 8.79514933e-01 8.79112244e-01 8.17925274e-01 5.90995848e-01 2.38897726e-01 8.30030143e-02 4.25509848e-02 3.69539633e-02 5.00880294e-02 8.54369104e-02 1.19353123e-01 3.50839784e-03 4.51342296e-03 1.01576755e-02 3.84180360e-02 1.51849076e-01 3.43933731e-01 4.81822252e-01 5.42592824e-01 5.64310789e-01 5.73675573e-01 5.83218694e-01 5.97353697e-01 6.16794825e-01 6.41203940e-01 6.70492768e-01 7.05075264e-01 7.45180547e-01 7.89406538e-01 8.33400309e-01 8.70199442e-01 8.91987920e-01 8.87985885e-01 8.24824572e-01 6.04073465e-01 2.82141089e-01 1.36024415e-01 1.06582291e-01 1.29731044e-01 2.01898038e-01 2.99299121e-01 3.47779751e-01 3.69534083e-03 5.38466731e-03 1.54316612e-02 6.95252344e-02 2.32000127e-01 4.12160426e-01 5.05897045e-01 5.39380014e-01 5.49825370e-01 5.56708395e-01 5.67905068e-01 5.85472345e-01 6.09071255e-01 6.37820899e-01 6.71126783e-01 7.08769083e-01 7.50334442e-01 7.94118464e-01 8.36200953e-01 8.70860100e-01 8.92018616e-01 8.92201900e-01 8.52921009e-01 7.27820396e-01 5.21228075e-01 3.99550736e-01 4.08088356e-01 4.94550049e-01 5.92055798e-01 6.52956486e-01 6.60585105e-01 4.48351447e-03 7.31105544e-03 2.56881081e-02 1.20854415e-01 3.11347395e-01 4.51769590e-01 5.08459330e-01 5.25195599e-01 5.30730486e-01 5.37808895e-01 5.50935447e-01 5.70934892e-01 5.97193301e-01 6.28686905e-01 6.64388061e-01 7.03340709e-01 7.44474411e-01 7.86115170e-01 8.25412691e-01 8.58352900e-01 8.80564988e-01 8.87575984e-01 8.73006940e-01 8.28997970e-01 7.68555582e-01 7.42346644e-01 7.61828363e-01 7.94843912e-01 8.19516361e-01 8.27876508e-01 8.18979740e-01 5.91631047e-03 1.08725317e-02 4.65643890e-02 1.88168943e-01 3.71233732e-01 4.67463225e-01 4.99890000e-01 5.08508861e-01 5.12816906e-01 5.20573974e-01 5.34458041e-01 5.55088103e-01 5.82195699e-01 6.14969850e-01 6.52102172e-01 6.91851616e-01 7.32253015e-01 7.71330655e-01 8.07082355e-01 8.37283075e-01 8.59456241e-01 8.71129334e-01 8.70321929e-01 8.57732832e-01 8.42444658e-01 8.38336766e-01 8.44835103e-01 8.52514863e-01 8.56899202e-01 8.56054604e-01 8.48954022e-01 7.81469047e-03 1.59295537e-02 8.33580717e-02 2.58898437e-01 4.09105003e-01 4.72503483e-01 4.92485374e-01 4.98165190e-01 5.02042651e-01 5.09179652e-01 5.21771967e-01 5.40881276e-01 5.66911995e-01 5.99534333e-01 6.37444079e-01 6.78307533e-01 7.19138622e-01 7.57026255e-01 7.89765537e-01 8.15970719e-01 8.34709287e-01 8.45127285e-01 8.46655190e-01 8.40353310e-01 8.30805540e-01 8.23906600e-01 8.20924640e-01 8.20024729e-01 8.20113003e-01 8.19874346e-01 8.17211092e-01 9.71754268e-03 2.06457749e-02 1.21914379e-01 3.14440668e-01 4.36247259e-01 4.83159512e-01 4.98094559e-01 5.02273142e-01 5.04723608e-01 5.09619117e-01 5.19286096e-01 5.35270572e-01 5.58543861e-01 5.89272499e-01 6.26424730e-01 6.67546391e-01 7.09045231e-01 7.47047544e-01 7.78399348e-01 8.01193655e-01 8.14619958e-01 8.18548501e-01 8.13539326e-01 8.01656187e-01 7.87122428e-01 7.74517477e-01 7.65861154e-01 7.60978520e-01 7.59289503e-01 7.60406554e-01 7.61989534e-01 1.15369987e-02 2.18854193e-02 1.38964981e-01 3.46148252e-01 4.57427591e-01 4.98757511e-01 5.11595070e-01 5.14716268e-01 5.16090155e-01 5.19575536e-01 5.27457833e-01 5.41339457e-01 5.62294006e-01 5.90630352e-01 6.25500143e-01 6.64643466e-01 7.04587340e-01 7.41396785e-01 7.71637797e-01 7.92986631e-01 8.04239690e-01 8.05077910e-01 7.96264589e-01 7.80548871e-01 7.62977183e-01 7.48517394e-01 7.39034653e-01 7.33768404e-01 7.31566548e-01 7.31684506e-01 7.30894208e-01 
