# vtk DataFile Version 2.0
results_case1_non_linear/8_density.vtk, Created by Freefem++ 
ASCII
DATASET UNSTRUCTURED_GRID
POINTS 961 float
0 0 0
0.033333333 0 0
0.066666667 0 0
0.1 0 0
0.13333333 0 0
0.16666667 0 0
0.2 0 0
0.23333333 0 0
0.26666667 0 0
0.3 0 0
0.33333333 0 0
0.36666667 0 0
0.4 0 0
0.43333333 0 0
0.46666667 0 0
0.5 0 0
0.53333333 0 0
0.56666667 0 0
0.6 0 0
0.63333333 0 0
0.66666667 0 0
0.7 0 0
0.73333333 0 0
0.76666667 0 0
0.8 0 0
0.83333333 0 0
0.86666667 0 0
0.9 0 0
0.93333333 0 0
0.96666667 0 0
1 0 0
0 0.033333333 0
0.033333333 0.033333333 0
0.066666667 0.033333333 0
0.1 0.033333333 0
0.13333333 0.033333333 0
0.16666667 0.033333333 0
0.2 0.033333333 0
0.23333333 0.033333333 0
0.26666667 0.033333333 0
0.3 0.033333333 0
0.33333333 0.033333333 0
0.36666667 0.033333333 0
0.4 0.033333333 0
0.43333333 0.033333333 0
0.46666667 0.033333333 0
0.5 0.033333333 0
0.53333333 0.033333333 0
0.56666667 0.033333333 0
0.6 0.033333333 0
0.63333333 0.033333333 0
0.66666667 0.033333333 0
0.7 0.033333333 0
0.73333333 0.033333333 0
0.76666667 0.033333333 0
0.8 0.033333333 0
0.83333333 0.033333333 0
0.86666667 0.033333333 0
0.9 0.033333333 0
0.93333333 0.033333333 0
0.96666667 0.033333333 0
1 0.033333333 0
0 0.066666667 0
0.033333333 0.066666667 0
0.066666667 0.066666667 0
0.1 0.066666667 0
0.13333333 0.066666667 0
0.16666667 0.066666667 0
0.2 0.066666667 0
0.23333333 0.066666667 0
0.26666667 0.066666667 0
0.3 0.066666667 0
0.33333333 0.066666667 0
0.36666667 0.066666667 0
0.4 0.066666667 0
0.43333333 0.066666667 0
0.46666667 0.066666667 0
0.5 0.066666667 0
0.53333333 0.066666667 0
0.56666667 0.066666667 0
0.6 0.066666667 0
0.63333333 0.066666667 0
0.66666667 0.066666667 0
0.7 0.066666667 0
0.73333333 0.066666667 0
0.76666667 0.066666667 0
0.8 0.066666667 0
0.83333333 0.066666667 0
0.86666667 0.066666667 0
0.9 0.066666667 0
0.93333333 0.066666667 0
0.96666667 0.066666667 0
1 0.066666667 0
0 0.1 0
0.033333333 0.1 0
0.066666667 0.1 0
0.1 0.1 0
0.13333333 0.1 0
0.16666667 0.1 0
0.2 0.1 0
0.23333333 0.1 0
0.26666667 0.1 0
0.3 0.1 0
0.33333333 0.1 0
0.36666667 0.1 0
0.4 0.1 0
0.43333333 0.1 0
0.46666667 0.1 0
0.5 0.1 0
0.53333333 0.1 0
0.56666667 0.1 0
0.6 0.1 0
0.63333333 0.1 0
0.66666667 0.1 0
0.7 0.1 0
0.73333333 0.1 0
0.76666667 0.1 0
0.8 0.1 0
0.83333333 0.1 0
0.86666667 0.1 0
0.9 0.1 0
0.93333333 0.1 0
0.96666667 0.1 0
1 0.1 0
0 0.13333333 0
0.033333333 0.13333333 0
0.066666667 0.13333333 0
0.1 0.13333333 0
0.13333333 0.13333333 0
0.16666667 0.13333333 0
0.2 0.13333333 0
0.23333333 0.13333333 0
0.26666667 0.13333333 0
0.3 0.13333333 0
0.33333333 0.13333333 0
0.36666667 0.13333333 0
0.4 0.13333333 0
0.43333333 0.13333333 0
0.46666667 0.13333333 0
0.5 0.13333333 0
0.53333333 0.13333333 0
0.56666667 0.13333333 0
0.6 0.13333333 0
0.63333333 0.13333333 0
0.66666667 0.13333333 0
0.7 0.13333333 0
0.73333333 0.13333333 0
0.76666667 0.13333333 0
0.8 0.13333333 0
0.83333333 0.13333333 0
0.86666667 0.13333333 0
0.9 0.13333333 0
0.93333333 0.13333333 0
0.96666667 0.13333333 0
1 0.13333333 0
0 0.16666667 0
0.033333333 0.16666667 0
0.066666667 0.16666667 0
0.1 0.16666667 0
0.13333333 0.16666667 0
0.16666667 0.16666667 0
0.2 0.16666667 0
0.23333333 0.16666667 0
0.26666667 0.16666667 0
0.3 0.16666667 0
0.33333333 0.16666667 0
0.36666667 0.16666667 0
0.4 0.16666667 0
0.43333333 0.16666667 0
0.46666667 0.16666667 0
0.5 0.16666667 0
0.53333333 0.16666667 0
0.56666667 0.16666667 0
0.6 0.16666667 0
0.63333333 0.16666667 0
0.66666667 0.16666667 0
0.7 0.16666667 0
0.73333333 0.16666667 0
0.76666667 0.16666667 0
0.8 0.16666667 0
0.83333333 0.16666667 0
0.86666667 0.16666667 0
0.9 0.16666667 0
0.93333333 0.16666667 0
0.96666667 0.16666667 0
1 0.16666667 0
0 0.2 0
0.033333333 0.2 0
0.066666667 0.2 0
0.1 0.2 0
0.13333333 0.2 0
0.16666667 0.2 0
0.2 0.2 0
0.23333333 0.2 0
0.26666667 0.2 0
0.3 0.2 0
0.33333333 0.2 0
0.36666667 0.2 0
0.4 0.2 0
0.43333333 0.2 0
0.46666667 0.2 0
0.5 0.2 0
0.53333333 0.2 0
0.56666667 0.2 0
0.6 0.2 0
0.63333333 0.2 0
0.66666667 0.2 0
0.7 0.2 0
0.73333333 0.2 0
0.76666667 0.2 0
0.8 0.2 0
0.83333333 0.2 0
0.86666667 0.2 0
0.9 0.2 0
0.93333333 0.2 0
0.96666667 0.2 0
1 0.2 0
0 0.23333333 0
0.033333333 0.23333333 0
0.066666667 0.23333333 0
0.1 0.23333333 0
0.13333333 0.23333333 0
0.16666667 0.23333333 0
0.2 0.23333333 0
0.23333333 0.23333333 0
0.26666667 0.23333333 0
0.3 0.23333333 0
0.33333333 0.23333333 0
0.36666667 0.23333333 0
0.4 0.23333333 0
0.43333333 0.23333333 0
0.46666667 0.23333333 0
0.5 0.23333333 0
0.53333333 0.23333333 0
0.56666667 0.23333333 0
0.6 0.23333333 0
0.63333333 0.23333333 0
0.66666667 0.23333333 0
0.7 0.23333333 0
0.73333333 0.23333333 0
0.76666667 0.23333333 0
0.8 0.23333333 0
0.83333333 0.23333333 0
0.86666667 0.23333333 0
0.9 0.23333333 0
0.93333333 0.23333333 0
0.96666667 0.23333333 0
1 0.23333333 0
0 0.26666667 0
0.033333333 0.26666667 0
0.066666667 0.26666667 0
0.1 0.26666667 0
0.13333333 0.26666667 0
0.16666667 0.26666667 0
0.2 0.26666667 0
0.23333333 0.26666667 0
0.26666667 0.26666667 0
0.3 0.26666667 0
0.33333333 0.26666667 0
0.36666667 0.26666667 0
0.4 0.26666667 0
0.43333333 0.26666667 0
0.46666667 0.26666667 0
0.5 0.26666667 0
0.53333333 0.26666667 0
0.56666667 0.26666667 0
0.6 0.26666667 0
0.63333333 0.26666667 0
0.66666667 0.26666667 0
0.7 0.26666667 0
0.73333333 0.26666667 0
0.76666667 0.26666667 0
0.8 0.26666667 0
0.83333333 0.26666667 0
0.86666667 0.26666667 0
0.9 0.26666667 0
0.93333333 0.26666667 0
0.96666667 0.26666667 0
1 0.26666667 0
0 0.3 0
0.033333333 0.3 0
0.066666667 0.3 0
0.1 0.3 0
0.13333333 0.3 0
0.16666667 0.3 0
0.2 0.3 0
0.23333333 0.3 0
0.26666667 0.3 0
0.3 0.3 0
0.33333333 0.3 0
0.36666667 0.3 0
0.4 0.3 0
0.43333333 0.3 0
0.46666667 0.3 0
0.5 0.3 0
0.53333333 0.3 0
0.56666667 0.3 0
0.6 0.3 0
0.63333333 0.3 0
0.66666667 0.3 0
0.7 0.3 0
0.73333333 0.3 0
0.76666667 0.3 0
0.8 0.3 0
0.83333333 0.3 0
0.86666667 0.3 0
0.9 0.3 0
0.93333333 0.3 0
0.96666667 0.3 0
1 0.3 0
0 0.33333333 0
0.033333333 0.33333333 0
0.066666667 0.33333333 0
0.1 0.33333333 0
0.13333333 0.33333333 0
0.16666667 0.33333333 0
0.2 0.33333333 0
0.23333333 0.33333333 0
0.26666667 0.33333333 0
0.3 0.33333333 0
0.33333333 0.33333333 0
0.36666667 0.33333333 0
0.4 0.33333333 0
0.43333333 0.33333333 0
0.46666667 0.33333333 0
0.5 0.33333333 0
0.53333333 0.33333333 0
0.56666667 0.33333333 0
0.6 0.33333333 0
0.63333333 0.33333333 0
0.66666667 0.33333333 0
0.7 0.33333333 0
0.73333333 0.33333333 0
0.76666667 0.33333333 0
0.8 0.33333333 0
0.83333333 0.33333333 0
0.86666667 0.33333333 0
0.9 0.33333333 0
0.93333333 0.33333333 0
0.96666667 0.33333333 0
1 0.33333333 0
0 0.36666667 0
0.033333333 0.36666667 0
0.066666667 0.36666667 0
0.1 0.36666667 0
0.13333333 0.36666667 0
0.16666667 0.36666667 0
0.2 0.36666667 0
0.23333333 0.36666667 0
0.26666667 0.36666667 0
0.3 0.36666667 0
0.33333333 0.36666667 0
0.36666667 0.36666667 0
0.4 0.36666667 0
0.43333333 0.36666667 0
0.46666667 0.36666667 0
0.5 0.36666667 0
0.53333333 0.36666667 0
0.56666667 0.36666667 0
0.6 0.36666667 0
0.63333333 0.36666667 0
0.66666667 0.36666667 0
0.7 0.36666667 0
0.73333333 0.36666667 0
0.76666667 0.36666667 0
0.8 0.36666667 0
0.83333333 0.36666667 0
0.86666667 0.36666667 0
0.9 0.36666667 0
0.93333333 0.36666667 0
0.96666667 0.36666667 0
1 0.36666667 0
0 0.4 0
0.033333333 0.4 0
0.066666667 0.4 0
0.1 0.4 0
0.13333333 0.4 0
0.16666667 0.4 0
0.2 0.4 0
0.23333333 0.4 0
0.26666667 0.4 0
0.3 0.4 0
0.33333333 0.4 0
0.36666667 0.4 0
0.4 0.4 0
0.43333333 0.4 0
0.46666667 0.4 0
0.5 0.4 0
0.53333333 0.4 0
0.56666667 0.4 0
0.6 0.4 0
0.63333333 0.4 0
0.66666667 0.4 0
0.7 0.4 0
0.73333333 0.4 0
0.76666667 0.4 0
0.8 0.4 0
0.83333333 0.4 0
0.86666667 0.4 0
0.9 0.4 0
0.93333333 0.4 0
0.96666667 0.4 0
1 0.4 0
0 0.43333333 0
0.033333333 0.43333333 0
0.066666667 0.43333333 0
0.1 0.43333333 0
0.13333333 0.43333333 0
0.16666667 0.43333333 0
0.2 0.43333333 0
0.23333333 0.43333333 0
0.26666667 0.43333333 0
0.3 0.43333333 0
0.33333333 0.43333333 0
0.36666667 0.43333333 0
0.4 0.43333333 0
0.43333333 0.43333333 0
0.46666667 0.43333333 0
0.5 0.43333333 0
0.53333333 0.43333333 0
0.56666667 0.43333333 0
0.6 0.43333333 0
0.63333333 0.43333333 0
0.66666667 0.43333333 0
0.7 0.43333333 0
0.73333333 0.43333333 0
0.76666667 0.43333333 0
0.8 0.43333333 0
0.83333333 0.43333333 0
0.86666667 0.43333333 0
0.9 0.43333333 0
0.93333333 0.43333333 0
0.96666667 0.43333333 0
1 0.43333333 0
0 0.46666667 0
0.033333333 0.46666667 0
0.066666667 0.46666667 0
0.1 0.46666667 0
0.13333333 0.46666667 0
0.16666667 0.46666667 0
0.2 0.46666667 0
0.23333333 0.46666667 0
0.26666667 0.46666667 0
0.3 0.46666667 0
0.33333333 0.46666667 0
0.36666667 0.46666667 0
0.4 0.46666667 0
0.43333333 0.46666667 0
0.46666667 0.46666667 0
0.5 0.46666667 0
0.53333333 0.46666667 0
0.56666667 0.46666667 0
0.6 0.46666667 0
0.63333333 0.46666667 0
0.66666667 0.46666667 0
0.7 0.46666667 0
0.73333333 0.46666667 0
0.76666667 0.46666667 0
0.8 0.46666667 0
0.83333333 0.46666667 0
0.86666667 0.46666667 0
0.9 0.46666667 0
0.93333333 0.46666667 0
0.96666667 0.46666667 0
1 0.46666667 0
0 0.5 0
0.033333333 0.5 0
0.066666667 0.5 0
0.1 0.5 0
0.13333333 0.5 0
0.16666667 0.5 0
0.2 0.5 0
0.23333333 0.5 0
0.26666667 0.5 0
0.3 0.5 0
0.33333333 0.5 0
0.36666667 0.5 0
0.4 0.5 0
0.43333333 0.5 0
0.46666667 0.5 0
0.5 0.5 0
0.53333333 0.5 0
0.56666667 0.5 0
0.6 0.5 0
0.63333333 0.5 0
0.66666667 0.5 0
0.7 0.5 0
0.73333333 0.5 0
0.76666667 0.5 0
0.8 0.5 0
0.83333333 0.5 0
0.86666667 0.5 0
0.9 0.5 0
0.93333333 0.5 0
0.96666667 0.5 0
1 0.5 0
0 0.53333333 0
0.033333333 0.53333333 0
0.066666667 0.53333333 0
0.1 0.53333333 0
0.13333333 0.53333333 0
0.16666667 0.53333333 0
0.2 0.53333333 0
0.23333333 0.53333333 0
0.26666667 0.53333333 0
0.3 0.53333333 0
0.33333333 0.53333333 0
0.36666667 0.53333333 0
0.4 0.53333333 0
0.43333333 0.53333333 0
0.46666667 0.53333333 0
0.5 0.53333333 0
0.53333333 0.53333333 0
0.56666667 0.53333333 0
0.6 0.53333333 0
0.63333333 0.53333333 0
0.66666667 0.53333333 0
0.7 0.53333333 0
0.73333333 0.53333333 0
0.76666667 0.53333333 0
[...]
CELL_DATA 1920
Scalars  Label int 1
LOOKUP_TABLE FreeFempp_table
0
0
0
0
0
0
0
0
0
0
0
0
0
0
0
0
0
0
0
0
0
0
0
0
0
0
0
0
0
0
0
0
0
0
0
0
0
0
0
0
0
0
0
0
0
0
0
0
0
0
0
0
0
0
0
0
0
0
0
0
0
0
0
0
0
0
0
0
0
0
0
0
0
0
0
0
0
0
0
0
0
0
0
0
0
0
0
0
0
0
0
0
0
0
0
0
0
0
0
0
0
0
0
0
0
0
0
0
0
0
0
0
0
0
0
0
0
0
0
0
0
0
0
0
0
0
0
0
0
0
0
0
0
0
0
0
0
0
0
0
0
0
0
0
0
0
0
0
0
0
0
0
0
0
0
0
0
0
0
0
0
0
0
0
0
0
0
0
0
0
0
0
0
0
0
0
0
0
0
0
0
0
0
0
0
0
0
0
0
0
0
0
0
0
0
0
0
0
0
0
0
0
0
0
0
0
0
0
0
0
0
0
0
0
0
0
0
0
0
0
0
0
0
0
0
0
0
0
0
0
0
0
0
0
0
0
0
0
0
0
0
0
0
0
0
0
0
0
0
0
0
0
0
0
0
0
0
0
0
0
0
0
0
0
0
0
0
0
0
0
0
0
0
0
0
0
0
0
0
0
0
0
0
0
0
0
0
0
0
0
0
0
0
0
0
0
0
0
0
0
0
0
0
0
0
0
0
0
0
0
0
0
0
0
0
0
0
0
0
0
0
0
0
0
0
0
0
0
0
0
0
0
0
0
0
0
0
0
0
0
0
0
0
0
0
0
0
0
0
0
0
0
0
0
0
0
0
0
0
0
0
0
0
0
0
0
0
0
0
0
0
0
0
0
0
0
0
0
0
0
0
0
0
0
0
0
0
0
0
0
0
0
0
0
0
0
0
0
0
0
0
0
0
0
0
0
0
0
0
0
0
0
0
0
0
0
0
0
0
0
0
0
0
0
0
0
0
0
0
0
0
0
0
0
0
0
0
0
0
0
0
0
0
0
0
0
0
0
0
0
0
0
0
0
0
0
0
0
0
0
0
0
0
0
0
0
0
0
0
0
0
0
0
0
0
0
0
0
0
0
0
0
0
0
0
0
0
0
0
0
0
0
0
0
0
0
0
0
0
0
0
0
0
0
0
0
0
0
0
0
0
0
0
0
0
0
0
0
0
0
0
0
0
0
0
0
0
0
0
0
0
0
0
0
0
0
0
0
0
0
0
0
0
0
0
0
0
0
0
0
0
0
0
0
0
0
0
0
0
0
0
0
0
0
0
0
0
0
0
0
0
0
0
0
0
0
0
0
0
0
0
0
0
0
0
0
0
0
0
0
0
0
0
0
0
0
0
0
0
0
0
0
0
0
0
0
0
0
0
0
0
0
0
0
0
0
0
0
0
0
0
0
0
0
0
0
0
0
0
0
0
0
0
0
0
0
0
0
0
0
0
0
0
0
0
0
0
0
0
0
0
0
0
0
0
0
0
0
0
0
0
0
0
0
0
0
0
0
0
0
0
0
0
0
0
0
0
0
0
0
0
0
0
0
0
0
0
0
0
0
0
0
0
0
0
0
0
0
0
0
0
0
0
0
0
0
0
0
0
0
0
0
0
0
0
0
0
0
0
0
0
0
0
0
0
0
0
0
0
0
0
0
0
0
0
0
0
0
0
0
0
0
0
0
0
0
0
0
0
0
0
0
0
0
0
0
0
0
0
0
0
0
0
0
0
0
0
0
0
0
0
0
0
0
0
0
0
0
0
0
0
0
0
0
0
0
0
0
0
0
0
0
0
0
0
0
0
0
0
0
0
0
0
0
0
0
0
0
0
0
0
0
0
0
0
0
0
0
0
0
0
0
0
0
0
0
0
0
0
0
0
0
0
0
0
0
0
0
0
0
0
0
0
0
0
0
0
0
0
0
0
0
0
0
0
0
0
0
0
0
0
0
0
0
0
0
0
0
0
0
0
0
0
0
0
0
0
0
0
0
0
0
0
0
0
0
0
0
0
0
0
0
0
0
0
0
0
0
0
0
0
0
0
0
0
0
0
0
0
0
0
0
0
0
0
0
0
0
0
0
0
0
0
0
0
0
0
0
0
0
0
0
0
0
0
0
0
0
0
0
0
0
0
0
0
0
0
0
0
0
0
0
0
0
0
0
0
0
0
0
0
0
0
0
0
0
0
0
0
0
0
0
0
0
0
0
0
0
0
0
0
0
0
0
0
0
0
0
0
0
0
0
0
0
0
0
0
0
0
0
0
0
0
0
0
0
0
0
0
0
0
0
0
0
0
0
0
0
0
0
0
0
0
0
0
0
0
0
0
0
0
0
0
0
0
0
0
0
0
0
0
0
0
0
0
0
0
0
0
0
0
0
0
0
0
0
0
0
0
0
0
0
0
0
0
0
0
0
0
0
0
0
0
0
0
0
0
0
0
0
0
0
0
0
0
0
0
0
0
0
0
0
0
0
0
0
0
0
0
0
0
0
0
0
0
0
0
0
0
0
0
0
0
0
0
0
0
0
0
0
0
0
0
0
0
0
0
0
0
0
0
0
0
0
0
0
0
0
0
0
0
0
0
0
0
0
0
0
0
0
0
0
0
0
0
0
0
0
0
0
0
0
0
0
0
0
0
0
0
0
0
0
0
0
0
0
0
0
0
0
0
0
0
0
0
0
0
0
0
0
0
0
0
0
0
0
0
0
0
0
0
0
0
0
0
0
0
0
0
0
0
0
0
0
0
0
0
0
0
0
0
0
0
0
0
0
0
0
0
0
0
0
0
0
0
0
0
0
0
0
0
0
0
0
0
0
0
0
0
0
0
0
0
0
0
0
0
0
0
0
0
0
0
0
0
0
0
0
0
0
0
0
0
0
0
0
0
0
0
0
0
0
0
0
0
0
0
0
0
0
0
0
0
0
0
0
0
0
0
0
0
0
0
0
0
0
0
0
0
0
0
0
0
0
0
0
0
0
0
0
0
0
0
0
0
0
0
0
0
0
0
0
0
0
0
0
0
0
0
0
0
0
0
0
0
0
0
0
0
0
0
0
0
0
0
0
0
0
0
0
0
0
0
0
0
0
0
0
0
0
0
0
0
0
0
0
0
0
0
0
0
0
0
0
0
0
0
0
0
0
0
0
0
0
0
0
0
0
0
0
0
0
0
0
0
0
0
0
0
0
0
0
0
0
0
0
0
0
0
0
0
0
0
0
0
0
0
0
0
0
0
0
0
0
0
0
0
0
0
0
0
0
0
0
0
0
0
0
0
0
0
0
0
0
0
0
0
0
0
0
0
0
0
0
0
0
0
0
0
0
0
0
0
0
0
0
0
0
0
0
0
0
0
0
0
0
0
0
0
0
0
0
0
0
0
0
0
0
0
0
0
0
0
0
0
0
0
0
0
0
0
0
0
0
0
0
0
0
0
0
0
0
0
0
0
0
0
0
0
0
0
0
0
0
0
0
0
0
0
0
0
0
0
0
0
0
0
0
0
0
0
0
0
0
0
0
0
0
0
0
0
0
0
0
0
0
0
0
0
0
0
0
0
0
0
0
0
0
0
0
0
0
0
0
0
0
0
0
0
0
0
0
0
0
0
0
0
0
0
0
0
0
0
0
0
0
0
0
0
0
0
0
0
0
0
0
0
0
0
0
0
0
0
0
0
0
0
0
0
0
0
0
0
0
0
0
0
0
0
0
0
0
0
0
0
0
0
0
0
0
0
0
0
0
0
0
0
0
0
0
0
0
0
0
0
0
0
0
0
0
0
0
0
0
0
0
0
0
0
0
0
0
0
0
0
0
0
0
0
0
0
0
0
0
0
0
0
0
0
0
0
0
0
0
0
0
0
0
0
0
0
0
0
0
0
0
0
0
0
0
0
0
0
0
0
0
0
0
0
0
0
0
0
0
0
0
0
0
0
0
0
0
0
0
0
0
0
0
0
0
0
0
0
0
0
0
0
0
0
0
0
0
0
0
0
0
0
0
0
0
0
0
0
0
0
0
0
0
0
0
0
0
0
0
0
0
0
0
0
0
0
0
0
0
0
0
0
0
0
0
1
1
1
1
1
1
1
1
1
1
1
1
1
1
1
1
1
1
1
1
1
1
1
1
1
1
1
1
1
1
2
2
2
2
2
2
2
2
2
2
2
2
2
2
2
2
2
2
2
2
2
2
2
2
2
2
2
2
2
2
3
3
3
3
3
3
3
3
3
3
3
3
3
3
3
3
3
3
3
3
3
3
3
3
3
3
3
3
3
3
4
4
4
4
4
4
4
4
4
4
4
4
4
4
4
4
4
4
4
4
4
4
4
4
4
4
4
4
4
4

LOOKUP_TABLE FreeFempp_table 5
1.00000000 0.00000000 0.00000000 1.00000000
1.00000000 1.00000000 0.00000000 1.00000000
1.00000000 0.00000000 1.00000000 1.00000000
0.00000000 1.00000000 0.00000000 1.00000000
0.00000000 1.00000000 1.00000000 1.00000000

POINT_DATA 961
FIELD FieldData 1
Density 1 961 float
5.00410460e-02 2.06548393e-01 5.49863517e-01 5.28469682e-01 4.17449802e-01 3.23968440e-01 2.75779516e-01 2.61465639e-01 2.54814655e-01 2.49700829e-01 2.47506469e-01 2.47506633e-01 2.46189520e-01 2.43412048e-01 2.44765401e-01 2.55003601e-01 2.70998716e-01 2.76465714e-01 2.74890482e-01 2.72685587e-01 2.71420985e-01 2.71180570e-01 2.71620482e-01 2.72167981e-01 2.72377133e-01 2.72773862e-01 2.77423352e-01 3.27986538e-01 4.18575615e-01 4.53938901e-01 4.51425135e-01 6.31944686e-02 1.96876451e-01 5.55005670e-01 5.27321994e-01 3.59250247e-01 2.13223770e-01 1.31776214e-01 1.08870350e-01 1.05423942e-01 1.07354447e-01 1.09369315e-01 1.11024298e-01 1.11795381e-01 1.11572646e-01 1.12240933e-01 1.15729362e-01 1.21562250e-01 1.24654584e-01 1.24355793e-01 1.23370878e-01 1.22652300e-01 1.22213848e-01 1.22023597e-01 1.22038126e-01 1.22331709e-01 1.23782605e-01 1.27937451e-01 1.66979954e-01 3.07431489e-01 3.70302230e-01 3.89284790e-01 6.31890073e-02 1.91715419e-01 5.26438475e-01 4.24077064e-01 2.18983546e-01 9.63745266e-02 4.71625663e-02 3.98493968e-02 6.08418137e-02 9.61173475e-02 1.20123059e-01 1.34156153e-01 1.43412858e-01 1.49618551e-01 1.54485554e-01 1.58651084e-01 1.62354261e-01 1.64852574e-01 1.65972710e-01 1.65987045e-01 1.65059790e-01 1.63300365e-01 1.61395252e-01 1.60096288e-01 1.59363419e-01 1.56653896e-01 1.29060149e-01 8.78334641e-02 1.10385440e-01 1.38473287e-01 1.53585568e-01 5.95895387e-02 1.83873266e-01 4.86621678e-01 2.81085193e-01 1.06236383e-01 4.18830067e-02 3.80350277e-02 7.66368657e-02 1.53727263e-01 2.70573139e-01 3.51801902e-01 3.96316439e-01 4.25494999e-01 4.45497066e-01 4.61195886e-01 4.73517746e-01 4.83851433e-01 4.92258996e-01 4.98329103e-01 5.01318932e-01 5.01529694e-01 4.98984873e-01 4.95015502e-01 4.91316825e-01 4.88535374e-01 4.81164753e-01 4.33860451e-01 2.73748517e-01 2.08264038e-01 1.90367699e-01 1.69936240e-01 5.61184548e-02 1.75432324e-01 4.63709027e-01 2.27656856e-01 6.80772439e-02 4.66611981e-02 9.53231305e-02 1.96987286e-01 3.38406354e-01 4.45334017e-01 5.11793315e-01 5.46777248e-01 5.66109240e-01 5.79380095e-01 5.90932786e-01 6.01393044e-01 6.11664712e-01 6.21427059e-01 6.30586565e-01 6.39247715e-01 6.47138536e-01 6.53672338e-01 6.57961607e-01 6.58740580e-01 6.57652974e-01 6.56489432e-01 6.47577643e-01 6.08975649e-01 5.83369792e-01 5.68524718e-01 5.30010164e-01 5.34739606e-02 1.69230700e-01 4.41408366e-01 2.05852225e-01 7.11793602e-02 9.74534005e-02 2.26313695e-01 3.84173691e-01 4.93175000e-01 5.55409372e-01 5.82995117e-01 5.93634605e-01 5.97827494e-01 6.00435793e-01 6.03431225e-01 6.06944263e-01 6.11687303e-01 6.17685139e-01 6.24558806e-01 6.31933689e-01 6.38871789e-01 6.42526984e-01 6.38372064e-01 6.27726197e-01 6.26948655e-01 6.41661465e-01 6.54674411e-01 6.60982430e-01 6.72269881e-01 6.75398469e-01 6.62137091e-01 5.31110018e-02 1.71416655e-01 4.43092614e-01 1.99331164e-01 1.05122782e-01 1.82907358e-01 3.71180862e-01 5.10280073e-01 5.74386716e-01 5.94422340e-01 5.96401870e-01 5.92301846e-01 5.87518573e-01 5.84163427e-01 5.82412660e-01 5.81774175e-01 5.82235456e-01 5.83423615e-01 5.84595859e-01 5.84524691e-01 5.80564559e-01 5.65095544e-01 5.24912000e-01 4.66807842e-01 4.39656585e-01 4.81039017e-01 5.38677216e-01 5.72881341e-01 5.92428684e-01 6.02586746e-01 6.00061119e-01 5.57261109e-02 1.81085259e-01 4.95586246e-01 2.60370970e-01 1.59033000e-01 2.67628074e-01 4.61819619e-01 5.68015695e-01 5.95482111e-01 5.92809916e-01 5.81896603e-01 5.70263028e-01 5.60893834e-01 5.54508805e-01 5.50623238e-01 5.48372090e-01 5.46966076e-01 5.45354724e-01 5.42228162e-01 5.36000311e-01 5.24069428e-01 4.98493731e-01 4.38373476e-01 3.36927414e-01 2.59910136e-01 2.72866458e-01 3.73587161e-01 4.59934801e-01 5.04764616e-01 5.25119901e-01 5.30338109e-01 5.88191375e-02 1.87914848e-01 5.61715245e-01 4.75068390e-01 3.08511347e-01 3.61713111e-01 5.04961908e-01 5.76713979e-01 5.85556626e-01 5.73548973e-01 5.57059824e-01 5.41904688e-01 5.30557215e-01 5.23434520e-01 5.19743741e-01 5.18179476e-01 5.17302275e-01 5.15622497e-01 5.11714637e-01 5.04370570e-01 4.92660224e-01 4.73844171e-01 4.33881611e-01 3.42458487e-01 2.09681109e-01 1.48854285e-01 2.10325226e-01 3.48357677e-01 4.41371351e-01 4.79981214e-01 4.91630316e-01 5.94188534e-02 1.82302088e-01 5.75655818e-01 6.44324601e-01 5.21041751e-01 4.81857747e-01 5.30749798e-01 5.63604414e-01 5.63766599e-01 5.50134480e-01 5.32544613e-01 5.16486764e-01 5.05195439e-01 4.99346882e-01 4.97833341e-01 4.98803139e-01 5.00296593e-01 5.00593126e-01 4.98401642e-01 4.93041903e-01 4.84814197e-01 4.74693358e-01 4.59563643e-01 4.18637574e-01 3.10604125e-01 1.57379806e-01 1.19550340e-01 2.27937609e-01 3.80999565e-01 4.54875410e-01 4.74140704e-01 5.68870604e-02 1.61589399e-01 5.30063331e-01 6.95056081e-01 6.48026943e-01 5.80451965e-01 5.57047129e-01 5.51644027e-01 5.44269860e-01 5.32454729e-01 5.17343938e-01 5.02614677e-01 4.92483765e-01 4.88627553e-01 4.89847690e-01 4.93707150e-01 4.97813046e-01 5.00347257e-01 5.00207901e-01 4.97069836e-01 4.91642475e-01 4.85847920e-01 4.81094599e-01 4.70646262e-01 4.23047900e-01 2.81435341e-01 1.22814037e-01 1.27525747e-01 2.91582674e-01 4.26970184e-01 4.62034941e-01 5.09187616e-02 1.17681392e-01 4.21695858e-01 6.66463912e-01 6.95028722e-01 6.41128600e-01 5.83751976e-01 5.47078192e-01 5.30436993e-01 5.23217380e-01 5.15941679e-01 5.06202579e-01 4.97732133e-01 4.94645536e-01 4.97030497e-01 5.02238870e-01 5.07486284e-01 5.10906637e-01 5.11572123e-01 5.09361327e-01 5.05007088e-01 5.00242889e-01 4.97164547e-01 4.94656563e-01 4.78657901e-01 3.99684906e-01 2.01137945e-01 9.51072499e-02 1.66106939e-01 3.67719978e-01 4.38523144e-01 7.49817267e-02 7.89023936e-02 2.38457650e-01 5.64732432e-01 6.91675484e-01 6.79361880e-01 6.15065753e-01 5.54283500e-01 5.24619818e-01 5.21588862e-01 5.26654899e-01 5.27078390e-01 5.21676660e-01 5.17129958e-01 5.17335474e-01 5.20886183e-01 5.24769604e-01 5.27017057e-01 5.26782274e-01 5.24007440e-01 5.19313753e-01 5.14048636e-01 5.10007799e-01 5.07696390e-01 5.01653135e-01 4.69535321e-01 3.45980555e-01 1.39790252e-01 1.07280426e-01 2.72388697e-01 3.87694687e-01 2.40424171e-01 1.38538629e-01 1.48453966e-01 4.00380522e-01 6.19016945e-01 6.78712785e-01 6.37301981e-01 5.70510507e-01 5.34991205e-01 5.34950018e-01 5.49299300e-01 5.60380161e-01 5.59502244e-01 5.52114487e-01 5.46448052e-01 5.44850707e-01 5.44768035e-01 5.43962181e-01 5.41479647e-01 5.37157655e-01 5.31415224e-01 5.25222898e-01 5.19940019e-01 5.16356289e-01 5.12216985e-01 4.96694446e-01 4.30491626e-01 2.40915269e-01 9.51428339e-02 1.56102523e-01 3.01100045e-01 3.90082389e-01 3.12666088e-01 1.64178684e-01 1.95232227e-01 3.95461887e-01 5.22826195e-01 5.48905432e-01 5.30998349e-01 5.35999000e-01 5.66375494e-01 5.89596808e-01 6.03097141e-01 6.03724122e-01 5.92905104e-01 5.79010427e-01 5.69204450e-01 5.63146055e-01 5.58138549e-01 5.52786529e-01 5.46629071e-01 5.39805949e-01 5.32929718e-01 5.26937246e-01 5.22473633e-01 5.18446684e-01 5.09222746e-01 4.74208921e-01 3.40676486e-01 1.22796185e-01 1.05244935e-01 2.17545956e-01 4.89160836e-01 4.57321972e-01 3.43339115e-01 1.86419204e-01 1.54512212e-01 1.89192370e-01 2.39615694e-01 3.20353121e-01 4.44697589e-01 5.79754531e-01 6.41533315e-01 6.52788162e-01 6.46588147e-01 6.30397975e-01 6.09043360e-01 5.89754403e-01 5.76554894e-01 5.67026317e-01 5.58938682e-01 5.51283956e-01 5.43858051e-01 5.36934853e-01 5.31057477e-01 5.26579559e-01 5.22724569e-01 5.15987933e-01 4.94209826e-01 4.04803306e-01 1.70264751e-01 7.44561851e-02 1.18320309e-01 5.88707507e-01 5.90475798e-01 5.52141547e-01 4.36859578e-01 2.23918855e-01 1.22402392e-01 1.06793284e-01 1.40957057e-01 2.89526671e-01 5.46659768e-01 6.79960907e-01 6.99633121e-01 6.81128204e-01 6.56046629e-01 6.28997326e-01 6.02631211e-01 5.82697451e-01 5.69099426e-01 5.58991969e-01 5.50635219e-01 5.43408871e-01 5.37264168e-01 5.32386243e-01 5.28810740e-01 5.25781214e-01 5.20842791e-01 5.07017255e-01 4.56982374e-01 2.89040893e-01 8.75133201e-02 5.54717295e-02 6.81431770e-01 7.11160183e-01 7.23850429e-01 6.98153555e-01 5.69638789e-01 3.37945193e-01 2.34295592e-01 1.98393226e-01 2.75947332e-01 5.29716074e-01 7.00122833e-01 7.27771759e-01 6.99097514e-01 6.64587736e-01 6.33194745e-01 6.04534149e-01 5.80312312e-01 5.63759685e-01 5.52711725e-01 5.44701338e-01 5.38618922e-01 5.34096360e-01 5.31014502e-01 5.29129505e-01 5.27599037e-01 5.24408221e-01 5.14781892e-01 4.81513739e-01 3.53368700e-01 1.12784281e-01 4.53645922e-02 7.20699728e-01 7.62697935e-01 7.86768913e-01 7.99965620e-01 7.91107416e-01 7.13977396e-01 5.98963737e-01 5.11742055e-01 5.24617791e-01 6.41005039e-01 7.29444265e-01 7.32587695e-01 6.94032669e-01 6.53630555e-01 6.21152580e-01 5.93254626e-01 5.69102287e-01 5.51458895e-01 5.40639818e-01 5.34026027e-01 5.29952049e-01 5.27734995e-01 5.27030051e-01 5.27399063e-01 5.27911603e-01 5.26703417e-01 5.19698918e-01 4.92281616e-01 3.75227571e-01 1.21407345e-01 4.38984744e-02 7.03160703e-01 7.45221674e-01 7.62440443e-01 7.69018948e-01 7.77118444e-01 7.75060892e-01 7.53820777e-01 7.17277527e-01 7.04176247e-01 7.25458384e-01 7.33415306e-01 7.07210362e-01 6.63874507e-01 6.24182463e-01 5.94520211e-01 5.70538938e-01 5.49492955e-01 5.33565462e-01 5.24187267e-01 5.19697666e-01 5.18156767e-01 5.18609107e-01 5.20561397e-01 5.23479044e-01 5.26403904e-01 5.27552724e-01 5.23059368e-01 4.98694003e-01 3.84197503e-01 1.24135010e-01 4.33096811e-02 6.58275962e-01 6.92319095e-01 6.97341681e-01 6.85302138e-01 6.74628675e-01 6.70201421e-01 6.74325466e-01 6.81461215e-01 6.89271033e-01 6.94663167e-01 6.83408201e-01 6.52764142e-01 6.14232183e-01 5.81021845e-01 5.57687342e-01 5.39961815e-01 5.24179935e-01 5.11912227e-01 5.05061209e-01 5.03010511e-01 5.04115045e-01 5.07266939e-01 5.11872470e-01 5.17384708e-01 5.22905648e-01 5.26763320e-01 5.25172770e-01 5.03705323e-01 3.90173137e-01 1.25711739e-01 4.31203879e-02 6.11476541e-01 6.35065973e-01 6.31785989e-01 6.09685957e-01 5.88547945e-01 5.76416492e-01 5.78578234e-01 5.92601538e-01 6.09294653e-01 6.17475450e-01 6.08685076e-01 5.84615171e-01 5.55370808e-01 5.31437039e-01 5.16188443e-01 5.05645037e-01 4.96001810e-01 4.88237590e-01 4.84541833e-01 4.85091001e-01 4.88738567e-01 4.94405210e-01 5.01454592e-01 5.09400070e-01 5.17502725e-01 5.24282634e-01 5.26030064e-01 5.07965088e-01 3.95650774e-01 1.27176389e-01 4.31142300e-02 5.72649360e-01 5.87277770e-01 5.80836654e-01 5.57918847e-01 5.36310792e-01 5.23502350e-01 5.22680700e-01 5.31640410e-01 5.42663991e-01 5.46216905e-01 5.36994457e-01 5.17828763e-01 4.97052789e-01 4.82291073e-01 4.75128651e-01 4.71506566e-01 4.67768759e-01 4.64505106e-01 4.64033782e-01 4.67136472e-01 4.73097801e-01 4.80953068e-01 4.90083694e-01 5.00114620e-01 5.10552526e-01 5.20226121e-01 5.25575757e-01 5.11390507e-01 4.00830477e-01 1.28655702e-01 4.31884713e-02 5.41913569e-01 5.49860418e-01 5.43396294e-01 5.24266303e-01 5.06045520e-01 4.94906276e-01 4.91926432e-01 4.94000494e-01 4.95289177e-01 4.90242422e-01 4.77368683e-01 4.60532814e-01 4.46244359e-01 4.39157456e-01 4.38865066e-01 4.41027641e-01 4.42222387e-01 4.42862362e-01 4.45259899e-01 4.50608939e-01 4.58515167e-01 4.68115747e-01 4.78833288e-01 4.90421146e-01 5.02680779e-01 5.14886558e-01 5.23807466e-01 5.13785064e-01 4.05388802e-01 1.30046487e-01 4.32901643e-02 5.17466843e-01 5.20485163e-01 5.15181482e-01 5.01084208e-01 4.86930668e-01 4.77288812e-01 4.71984446e-01 4.67620462e-01 4.60221767e-01 4.47787315e-01 4.31855381e-01 4.16916996e-01 4.07777727e-01 4.06559527e-01 4.11263883e-01 4.17459369e-01 4.22120303e-01 4.25656706e-01 4.30275619e-01 4.37338442e-01 4.46644306e-01 4.57397401e-01 4.69057322e-01 4.81487602e-01 4.94777590e-01 5.08765697e-01 5.20848691e-01 5.15099645e-01 4.09182757e-01 1.31258518e-01 4.34024557e-02 4.99199539e-01 4.98505920e-01 4.93838519e-01 4.83525783e-01 4.72252399e-01 4.62964833e-01 4.54981297e-01 4.45483506e-01 4.32419151e-01 4.16332513e-01 4.00374711e-01 3.88743013e-01 3.84447873e-01 3.87641251e-01 3.95433336e-01 4.03760612e-01 4.10260081e-01 4.15487766e-01 4.21465248e-01 4.29487407e-01 4.39418316e-01 4.50515807e-01 4.62276876e-01 4.74640131e-01 4.87913638e-01 5.02537549e-01 5.16953707e-01 5.15511096e-01 4.12598342e-01 1.32268786e-01 4.34421077e-02 4.88670111e-01 4.85581428e-01 4.79953676e-01 4.70031381e-01 4.58596557e-01 4.47437167e-01 4.36165601e-01 4.23244625e-01 4.08220202e-01 3.92857999e-01 3.80528212e-01 3.74352932e-01 3.75473708e-01 3.82523537e-01 3.92304629e-01 4.01512027e-01 4.08644676e-01 4.14512068e-01 4.20929730e-01 4.29002285e-01 4.38592732e-01 4.49032009e-01 4.59872961e-01 4.71096814e-01 4.83115524e-01 4.96839434e-01 5.12208283e-01 5.15105903e-01 4.16204602e-01 1.33379906e-01 4.34060618e-02 4.86112148e-01 4.82880116e-01 4.76116627e-01 4.63347673e-01 4.47889179e-01 4.31326002e-01 4.14800584e-01 3.98986608e-01 3.84536713e-01 3.72974843e-01 3.66793334e-01 3.67685467e-01 3.75126600e-01 3.86609882e-01 3.98835212e-01 4.09204304e-01 4.16956127e-01 4.23135400e-01 4.29403156e-01 4.36722726e-01 4.45016831e-01 4.53769267e-01 4.62644696e-01 4.71660733e-01 4.81206536e-01 4.92304683e-01 5.06358325e-01 5.13136029e-01 4.20322865e-01 1.34735808e-01 4.32933718e-02 4.87153769e-01 4.86821443e-01 4.82658595e-01 4.68839645e-01 4.49062347e-01 4.24506873e-01 3.98608387e-01 3.76040757e-01 3.59626293e-01 3.50641698e-01 3.50660741e-01 3.59305590e-01 3.74085933e-01 3.91483366e-01 4.08085674e-01 4.21625942e-01 4.31604058e-01 4.39025760e-01 4.45384949e-01 4.51649904e-01 4.57999945e-01 4.64263320e-01 4.70375836e-01 4.76500243e-01 4.83005226e-01 4.90659326e-01 5.00966489e-01 5.08298516e-01 4.23385501e-01 1.36244282e-01 4.32232767e-02 4.86758977e-01 4.90582526e-01 4.94100899e-01 4.86110836e-01 4.68658179e-01 4.40331250e-01 4.04651672e-01 3.70353192e-01 3.44873667e-01 3.31566215e-01 3.34039807e-01 3.49446297e-01 3.71524513e-01 3.95062655e-01 4.16611224e-01 4.34275031e-01 4.47603852e-01 4.57261354e-01 4.64363813e-01 4.69843447e-01 4.74229038e-01 4.77842897e-01 4.81051058e-01 4.84332800e-01 4.88238543e-01 4.93351668e-01 4.99866903e-01 5.01257241e-01 4.21929240e-01 1.37268767e-01 4.12661172e-02 4.88653511e-01 4.91834313e-01 5.00759363e-01 4.98969495e-01 4.87342447e-01 4.63206649e-01 4.27709788e-01 3.89515281e-01 3.58700037e-01 3.41000766e-01 3.41089219e-01 3.57475370e-01 3.81405562e-01 4.05969173e-01 4.27773207e-01 4.45501119e-01 4.59007293e-01 4.68836337e-01 4.75800455e-01 4.80645955e-01 4.83945936e-01 4.86194938e-01 4.87926483e-01 4.89738405e-01 4.92238283e-01 4.95820433e-01 4.99364525e-01 4.92790461e-01 4.16552126e-01 1.40972942e-01 3.03890575e-02 
