# vtk DataFile Version 2.0
results_case1_non_linear/1616512367/sol_toll1e-05_vf0.3iter0.vtk, Created by Freefem++ 
ASCII
DATASET UNSTRUCTURED_GRID
POINTS 961 float
0 0 0
0.033333333 0 0
0.066666667 0 0
0.1 0 0
0.13333333 0 0
0.16666667 0 0
0.2 0 0
0.23333333 0 0
0.26666667 0 0
0.3 0 0
0.33333333 0 0
0.36666667 0 0
0.4 0 0
0.43333333 0 0
0.46666667 0 0
0.5 0 0
0.53333333 0 0
0.56666667 0 0
0.6 0 0
0.63333333 0 0
0.66666667 0 0
0.7 0 0
0.73333333 0 0
0.76666667 0 0
0.8 0 0
0.83333333 0 0
0.86666667 0 0
0.9 0 0
0.93333333 0 0
0.96666667 0 0
1 0 0
0 0.033333333 0
0.033333333 0.033333333 0
0.066666667 0.033333333 0
0.1 0.033333333 0
0.13333333 0.033333333 0
0.16666667 0.033333333 0
0.2 0.033333333 0
0.23333333 0.033333333 0
0.26666667 0.033333333 0
0.3 0.033333333 0
0.33333333 0.033333333 0
0.36666667 0.033333333 0
0.4 0.033333333 0
0.43333333 0.033333333 0
0.46666667 0.033333333 0
0.5 0.033333333 0
0.53333333 0.033333333 0
0.56666667 0.033333333 0
0.6 0.033333333 0
0.63333333 0.033333333 0
0.66666667 0.033333333 0
0.7 0.033333333 0
0.73333333 0.033333333 0
0.76666667 0.033333333 0
0.8 0.033333333 0
0.83333333 0.033333333 0
0.86666667 0.033333333 0
0.9 0.033333333 0
0.93333333 0.033333333 0
0.96666667 0.033333333 0
1 0.033333333 0
0 0.066666667 0
0.033333333 0.066666667 0
0.066666667 0.066666667 0
0.1 0.066666667 0
0.13333333 0.066666667 0
0.16666667 0.066666667 0
0.2 0.066666667 0
0.23333333 0.066666667 0
0.26666667 0.066666667 0
0.3 0.066666667 0
0.33333333 0.066666667 0
0.36666667 0.066666667 0
0.4 0.066666667 0
0.43333333 0.066666667 0
0.46666667 0.066666667 0
0.5 0.066666667 0
0.53333333 0.066666667 0
0.56666667 0.066666667 0
0.6 0.066666667 0
0.63333333 0.066666667 0
0.66666667 0.066666667 0
0.7 0.066666667 0
0.73333333 0.066666667 0
0.76666667 0.066666667 0
0.8 0.066666667 0
0.83333333 0.066666667 0
0.86666667 0.066666667 0
0.9 0.066666667 0
0.93333333 0.066666667 0
0.96666667 0.066666667 0
1 0.066666667 0
0 0.1 0
0.033333333 0.1 0
0.066666667 0.1 0
0.1 0.1 0
0.13333333 0.1 0
0.16666667 0.1 0
0.2 0.1 0
0.23333333 0.1 0
0.26666667 0.1 0
0.3 0.1 0
0.33333333 0.1 0
0.36666667 0.1 0
0.4 0.1 0
0.43333333 0.1 0
0.46666667 0.1 0
0.5 0.1 0
0.53333333 0.1 0
0.56666667 0.1 0
0.6 0.1 0
0.63333333 0.1 0
0.66666667 0.1 0
0.7 0.1 0
0.73333333 0.1 0
0.76666667 0.1 0
0.8 0.1 0
0.83333333 0.1 0
0.86666667 0.1 0
0.9 0.1 0
0.93333333 0.1 0
0.96666667 0.1 0
1 0.1 0
0 0.13333333 0
0.033333333 0.13333333 0
0.066666667 0.13333333 0
0.1 0.13333333 0
0.13333333 0.13333333 0
0.16666667 0.13333333 0
0.2 0.13333333 0
0.23333333 0.13333333 0
0.26666667 0.13333333 0
0.3 0.13333333 0
0.33333333 0.13333333 0
0.36666667 0.13333333 0
0.4 0.13333333 0
0.43333333 0.13333333 0
0.46666667 0.13333333 0
0.5 0.13333333 0
0.53333333 0.13333333 0
0.56666667 0.13333333 0
0.6 0.13333333 0
0.63333333 0.13333333 0
0.66666667 0.13333333 0
0.7 0.13333333 0
0.73333333 0.13333333 0
0.76666667 0.13333333 0
0.8 0.13333333 0
0.83333333 0.13333333 0
0.86666667 0.13333333 0
0.9 0.13333333 0
0.93333333 0.13333333 0
0.96666667 0.13333333 0
1 0.13333333 0
0 0.16666667 0
0.033333333 0.16666667 0
0.066666667 0.16666667 0
0.1 0.16666667 0
0.13333333 0.16666667 0
0.16666667 0.16666667 0
0.2 0.16666667 0
0.23333333 0.16666667 0
0.26666667 0.16666667 0
0.3 0.16666667 0
0.33333333 0.16666667 0
0.36666667 0.16666667 0
0.4 0.16666667 0
0.43333333 0.16666667 0
0.46666667 0.16666667 0
0.5 0.16666667 0
0.53333333 0.16666667 0
0.56666667 0.16666667 0
0.6 0.16666667 0
0.63333333 0.16666667 0
0.66666667 0.16666667 0
0.7 0.16666667 0
0.73333333 0.16666667 0
0.76666667 0.16666667 0
0.8 0.16666667 0
0.83333333 0.16666667 0
0.86666667 0.16666667 0
0.9 0.16666667 0
0.93333333 0.16666667 0
0.96666667 0.16666667 0
1 0.16666667 0
0 0.2 0
0.033333333 0.2 0
0.066666667 0.2 0
0.1 0.2 0
0.13333333 0.2 0
0.16666667 0.2 0
0.2 0.2 0
0.23333333 0.2 0
0.26666667 0.2 0
0.3 0.2 0
0.33333333 0.2 0
0.36666667 0.2 0
0.4 0.2 0
0.43333333 0.2 0
0.46666667 0.2 0
0.5 0.2 0
0.53333333 0.2 0
0.56666667 0.2 0
0.6 0.2 0
0.63333333 0.2 0
0.66666667 0.2 0
0.7 0.2 0
0.73333333 0.2 0
0.76666667 0.2 0
0.8 0.2 0
0.83333333 0.2 0
0.86666667 0.2 0
0.9 0.2 0
0.93333333 0.2 0
0.96666667 0.2 0
1 0.2 0
0 0.23333333 0
0.033333333 0.23333333 0
0.066666667 0.23333333 0
0.1 0.23333333 0
0.13333333 0.23333333 0
0.16666667 0.23333333 0
0.2 0.23333333 0
0.23333333 0.23333333 0
0.26666667 0.23333333 0
0.3 0.23333333 0
0.33333333 0.23333333 0
0.36666667 0.23333333 0
0.4 0.23333333 0
0.43333333 0.23333333 0
0.46666667 0.23333333 0
0.5 0.23333333 0
0.53333333 0.23333333 0
0.56666667 0.23333333 0
0.6 0.23333333 0
0.63333333 0.23333333 0
0.66666667 0.23333333 0
0.7 0.23333333 0
0.73333333 0.23333333 0
0.76666667 0.23333333 0
0.8 0.23333333 0
0.83333333 0.23333333 0
0.86666667 0.23333333 0
0.9 0.23333333 0
0.93333333 0.23333333 0
0.96666667 0.23333333 0
1 0.23333333 0
0 0.26666667 0
0.033333333 0.26666667 0
0.066666667 0.26666667 0
0.1 0.26666667 0
0.13333333 0.26666667 0
0.16666667 0.26666667 0
0.2 0.26666667 0
0.23333333 0.26666667 0
0.26666667 0.26666667 0
0.3 0.26666667 0
0.33333333 0.26666667 0
0.36666667 0.26666667 0
0.4 0.26666667 0
0.43333333 0.26666667 0
0.46666667 0.26666667 0
0.5 0.26666667 0
0.53333333 0.26666667 0
0.56666667 0.26666667 0
0.6 0.26666667 0
0.63333333 0.26666667 0
0.66666667 0.26666667 0
0.7 0.26666667 0
0.73333333 0.26666667 0
0.76666667 0.26666667 0
0.8 0.26666667 0
0.83333333 0.26666667 0
0.86666667 0.26666667 0
0.9 0.26666667 0
0.93333333 0.26666667 0
0.96666667 0.26666667 0
1 0.26666667 0
0 0.3 0
0.033333333 0.3 0
0.066666667 0.3 0
0.1 0.3 0
0.13333333 0.3 0
0.16666667 0.3 0
0.2 0.3 0
0.23333333 0.3 0
0.26666667 0.3 0
0.3 0.3 0
0.33333333 0.3 0
0.36666667 0.3 0
0.4 0.3 0
0.43333333 0.3 0
0.46666667 0.3 0
0.5 0.3 0
0.53333333 0.3 0
0.56666667 0.3 0
0.6 0.3 0
0.63333333 0.3 0
0.66666667 0.3 0
0.7 0.3 0
0.73333333 0.3 0
0.76666667 0.3 0
0.8 0.3 0
0.83333333 0.3 0
0.86666667 0.3 0
0.9 0.3 0
0.93333333 0.3 0
0.96666667 0.3 0
1 0.3 0
0 0.33333333 0
0.033333333 0.33333333 0
0.066666667 0.33333333 0
0.1 0.33333333 0
0.13333333 0.33333333 0
0.16666667 0.33333333 0
0.2 0.33333333 0
0.23333333 0.33333333 0
0.26666667 0.33333333 0
0.3 0.33333333 0
0.33333333 0.33333333 0
0.36666667 0.33333333 0
0.4 0.33333333 0
0.43333333 0.33333333 0
0.46666667 0.33333333 0
0.5 0.33333333 0
0.53333333 0.33333333 0
0.56666667 0.33333333 0
0.6 0.33333333 0
0.63333333 0.33333333 0
0.66666667 0.33333333 0
0.7 0.33333333 0
0.73333333 0.33333333 0
0.76666667 0.33333333 0
0.8 0.33333333 0
0.83333333 0.33333333 0
0.86666667 0.33333333 0
0.9 0.33333333 0
0.93333333 0.33333333 0
0.96666667 0.33333333 0
1 0.33333333 0
0 0.36666667 0
0.033333333 0.36666667 0
0.066666667 0.36666667 0
0.1 0.36666667 0
0.13333333 0.36666667 0
0.16666667 0.36666667 0
0.2 0.36666667 0
0.23333333 0.36666667 0
0.26666667 0.36666667 0
0.3 0.36666667 0
0.33333333 0.36666667 0
0.36666667 0.36666667 0
0.4 0.36666667 0
0.43333333 0.36666667 0
0.46666667 0.36666667 0
0.5 0.36666667 0
0.53333333 0.36666667 0
0.56666667 0.36666667 0
0.6 0.36666667 0
0.63333333 0.36666667 0
0.66666667 0.36666667 0
0.7 0.36666667 0
0.73333333 0.36666667 0
0.76666667 0.36666667 0
0.8 0.36666667 0
0.83333333 0.36666667 0
0.86666667 0.36666667 0
0.9 0.36666667 0
0.93333333 0.36666667 0
0.96666667 0.36666667 0
1 0.36666667 0
0 0.4 0
0.033333333 0.4 0
0.066666667 0.4 0
0.1 0.4 0
0.13333333 0.4 0
0.16666667 0.4 0
0.2 0.4 0
0.23333333 0.4 0
0.26666667 0.4 0
0.3 0.4 0
0.33333333 0.4 0
0.36666667 0.4 0
0.4 0.4 0
0.43333333 0.4 0
0.46666667 0.4 0
0.5 0.4 0
0.53333333 0.4 0
0.56666667 0.4 0
0.6 0.4 0
0.63333333 0.4 0
0.66666667 0.4 0
0.7 0.4 0
0.73333333 0.4 0
0.76666667 0.4 0
0.8 0.4 0
0.83333333 0.4 0
0.86666667 0.4 0
0.9 0.4 0
0.93333333 0.4 0
0.96666667 0.4 0
1 0.4 0
0 0.43333333 0
0.033333333 0.43333333 0
0.066666667 0.43333333 0
0.1 0.43333333 0
0.13333333 0.43333333 0
0.16666667 0.43333333 0
0.2 0.43333333 0
0.23333333 0.43333333 0
0.26666667 0.43333333 0
0.3 0.43333333 0
0.33333333 0.43333333 0
0.36666667 0.43333333 0
0.4 0.43333333 0
0.43333333 0.43333333 0
0.46666667 0.43333333 0
0.5 0.43333333 0
0.53333333 0.43333333 0
0.56666667 0.43333333 0
0.6 0.43333333 0
0.63333333 0.43333333 0
0.66666667 0.43333333 0
0.7 0.43333333 0
0.73333333 0.43333333 0
0.76666667 0.43333333 0
0.8 0.43333333 0
0.83333333 0.43333333 0
0.86666667 0.43333333 0
0.9 0.43333333 0
0.93333333 0.43333333 0
0.96666667 0.43333333 0
1 0.43333333 0
0 0.46666667 0
0.033333333 0.46666667 0
0.066666667 0.46666667 0
0.1 0.46666667 0
0.13333333 0.46666667 0
0.16666667 0.46666667 0
0.2 0.46666667 0
0.23333333 0.46666667 0
0.26666667 0.46666667 0
0.3 0.46666667 0
0.33333333 0.46666667 0
0.36666667 0.46666667 0
0.4 0.46666667 0
0.43333333 0.46666667 0
0.46666667 0.46666667 0
0.5 0.46666667 0
0.53333333 0.46666667 0
0.56666667 0.46666667 0
0.6 0.46666667 0
0.63333333 0.46666667 0
0.66666667 0.46666667 0
0.7 0.46666667 0
0.73333333 0.46666667 0
0.76666667 0.46666667 0
0.8 0.46666667 0
0.83333333 0.46666667 0
0.86666667 0.46666667 0
0.9 0.46666667 0
0.93333333 0.46666667 0
0.96666667 0.46666667 0
1 0.46666667 0
0 0.5 0
0.033333333 0.5 0
0.066666667 0.5 0
0.1 0.5 0
0.13333333 0.5 0
0.16666667 0.5 0
0.2 0.5 0
0.23333333 0.5 0
0.26666667 0.5 0
0.3 0.5 0
0.33333333 0.5 0
0.36666667 0.5 0
0.4 0.5 0
0.43333333 0.5 0
0.46666667 0.5 0
0.5 0.5 0
0.53333333 0.5 0
0.56666667 0.5 0
0.6 0.5 0
0.63333333 0.5 0
0.66666667 0.5 0
0.7 0.5 0
0.73333333 0.5 0
0.76666667 0.5 0
0.8 0.5 0
0.83333333 0.5 0
0.86666667 0.5 0
0.9 0.5 0
0.93333333 0.5 0
0.96666667 0.5 0
1 0.5 0
0 0.53333333 0
0.033333333 0.53333333 0
0.066666667 0.53333333 0
0.1 0.53333333 0
0.13333333 0.53333333 0
0.16666667 0.53333333 0
0.2 0.53333333 0
0.23333333 0.53333333 0
0.26666667 0.53333333 0
0.3 0.53333333 0
0.33333333 0.53333333 0
0.36666667 0.53333333 0
0.4 0.53333333 0
0.43333333 0.53333333 0
0.46666667 0.53333333 0
0.5 0.53333333 0
0.53333333 0.53333333 0
0.56666667 0.53333333 0
0.6 0.53333333 0
0.63333333 0.53333333 0
0.66666667 0.53333333 0
0.7 0.53333333 0
0.73333333 0.53333333 0
[...]
CELL_DATA 1920
Scalars  Label int 1
LOOKUP_TABLE FreeFempp_table
0
0
0
0
0
0
0
0
0
0
0
0
0
0
0
0
0
0
0
0
0
0
0
0
0
0
0
0
0
0
0
0
0
0
0
0
0
0
0
0
0
0
0
0
0
0
0
0
0
0
0
0
0
0
0
0
0
0
0
0
0
0
0
0
0
0
0
0
0
0
0
0
0
0
0
0
0
0
0
0
0
0
0
0
0
0
0
0
0
0
0
0
0
0
0
0
0
0
0
0
0
0
0
0
0
0
0
0
0
0
0
0
0
0
0
0
0
0
0
0
0
0
0
0
0
0
0
0
0
0
0
0
0
0
0
0
0
0
0
0
0
0
0
0
0
0
0
0
0
0
0
0
0
0
0
0
0
0
0
0
0
0
0
0
0
0
0
0
0
0
0
0
0
0
0
0
0
0
0
0
0
0
0
0
0
0
0
0
0
0
0
0
0
0
0
0
0
0
0
0
0
0
0
0
0
0
0
0
0
0
0
0
0
0
0
0
0
0
0
0
0
0
0
0
0
0
0
0
0
0
0
0
0
0
0
0
0
0
0
0
0
0
0
0
0
0
0
0
0
0
0
0
0
0
0
0
0
0
0
0
0
0
0
0
0
0
0
0
0
0
0
0
0
0
0
0
0
0
0
0
0
0
0
0
0
0
0
0
0
0
0
0
0
0
0
0
0
0
0
0
0
0
0
0
0
0
0
0
0
0
0
0
0
0
0
0
0
0
0
0
0
0
0
0
0
0
0
0
0
0
0
0
0
0
0
0
0
0
0
0
0
0
0
0
0
0
0
0
0
0
0
0
0
0
0
0
0
0
0
0
0
0
0
0
0
0
0
0
0
0
0
0
0
0
0
0
0
0
0
0
0
0
0
0
0
0
0
0
0
0
0
0
0
0
0
0
0
0
0
0
0
0
0
0
0
0
0
0
0
0
0
0
0
0
0
0
0
0
0
0
0
0
0
0
0
0
0
0
0
0
0
0
0
0
0
0
0
0
0
0
0
0
0
0
0
0
0
0
0
0
0
0
0
0
0
0
0
0
0
0
0
0
0
0
0
0
0
0
0
0
0
0
0
0
0
0
0
0
0
0
0
0
0
0
0
0
0
0
0
0
0
0
0
0
0
0
0
0
0
0
0
0
0
0
0
0
0
0
0
0
0
0
0
0
0
0
0
0
0
0
0
0
0
0
0
0
0
0
0
0
0
0
0
0
0
0
0
0
0
0
0
0
0
0
0
0
0
0
0
0
0
0
0
0
0
0
0
0
0
0
0
0
0
0
0
0
0
0
0
0
0
0
0
0
0
0
0
0
0
0
0
0
0
0
0
0
0
0
0
0
0
0
0
0
0
0
0
0
0
0
0
0
0
0
0
0
0
0
0
0
0
0
0
0
0
0
0
0
0
0
0
0
0
0
0
0
0
0
0
0
0
0
0
0
0
0
0
0
0
0
0
0
0
0
0
0
0
0
0
0
0
0
0
0
0
0
0
0
0
0
0
0
0
0
0
0
0
0
0
0
0
0
0
0
0
0
0
0
0
0
0
0
0
0
0
0
0
0
0
0
0
0
0
0
0
0
0
0
0
0
0
0
0
0
0
0
0
0
0
0
0
0
0
0
0
0
0
0
0
0
0
0
0
0
0
0
0
0
0
0
0
0
0
0
0
0
0
0
0
0
0
0
0
0
0
0
0
0
0
0
0
0
0
0
0
0
0
0
0
0
0
0
0
0
0
0
0
0
0
0
0
0
0
0
0
0
0
0
0
0
0
0
0
0
0
0
0
0
0
0
0
0
0
0
0
0
0
0
0
0
0
0
0
0
0
0
0
0
0
0
0
0
0
0
0
0
0
0
0
0
0
0
0
0
0
0
0
0
0
0
0
0
0
0
0
0
0
0
0
0
0
0
0
0
0
0
0
0
0
0
0
0
0
0
0
0
0
0
0
0
0
0
0
0
0
0
0
0
0
0
0
0
0
0
0
0
0
0
0
0
0
0
0
0
0
0
0
0
0
0
0
0
0
0
0
0
0
0
0
0
0
0
0
0
0
0
0
0
0
0
0
0
0
0
0
0
0
0
0
0
0
0
0
0
0
0
0
0
0
0
0
0
0
0
0
0
0
0
0
0
0
0
0
0
0
0
0
0
0
0
0
0
0
0
0
0
0
0
0
0
0
0
0
0
0
0
0
0
0
0
0
0
0
0
0
0
0
0
0
0
0
0
0
0
0
0
0
0
0
0
0
0
0
0
0
0
0
0
0
0
0
0
0
0
0
0
0
0
0
0
0
0
0
0
0
0
0
0
0
0
0
0
0
0
0
0
0
0
0
0
0
0
0
0
0
0
0
0
0
0
0
0
0
0
0
0
0
0
0
0
0
0
0
0
0
0
0
0
0
0
0
0
0
0
0
0
0
0
0
0
0
0
0
0
0
0
0
0
0
0
0
0
0
0
0
0
0
0
0
0
0
0
0
0
0
0
0
0
0
0
0
0
0
0
0
0
0
0
0
0
0
0
0
0
0
0
0
0
0
0
0
0
0
0
0
0
0
0
0
0
0
0
0
0
0
0
0
0
0
0
0
0
0
0
0
0
0
0
0
0
0
0
0
0
0
0
0
0
0
0
0
0
0
0
0
0
0
0
0
0
0
0
0
0
0
0
0
0
0
0
0
0
0
0
0
0
0
0
0
0
0
0
0
0
0
0
0
0
0
0
0
0
0
0
0
0
0
0
0
0
0
0
0
0
0
0
0
0
0
0
0
0
0
0
0
0
0
0
0
0
0
0
0
0
0
0
0
0
0
0
0
0
0
0
0
0
0
0
0
0
0
0
0
0
0
0
0
0
0
0
0
0
0
0
0
0
0
0
0
0
0
0
0
0
0
0
0
0
0
0
0
0
0
0
0
0
0
0
0
0
0
0
0
0
0
0
0
0
0
0
0
0
0
0
0
0
0
0
0
0
0
0
0
0
0
0
0
0
0
0
0
0
0
0
0
0
0
0
0
0
0
0
0
0
0
0
0
0
0
0
0
0
0
0
0
0
0
0
0
0
0
0
0
0
0
0
0
0
0
0
0
0
0
0
0
0
0
0
0
0
0
0
0
0
0
0
0
0
0
0
0
0
0
0
0
0
0
0
0
0
0
0
0
0
0
0
0
0
0
0
0
0
0
0
0
0
0
0
0
0
0
0
0
0
0
0
0
0
0
0
0
0
0
0
0
0
0
0
0
0
0
0
0
0
0
0
0
0
0
0
0
0
0
0
0
0
0
0
0
0
0
0
0
0
0
0
0
0
0
0
0
0
0
0
0
0
0
0
0
0
0
0
0
0
0
0
0
0
0
0
0
0
0
0
0
0
0
0
0
0
0
0
0
0
0
0
0
0
0
0
0
0
0
0
0
0
0
0
0
0
0
0
0
0
0
0
0
0
0
0
0
0
0
0
0
0
0
0
0
0
0
0
0
0
0
0
0
0
0
0
0
0
0
0
0
0
0
0
0
0
0
0
0
0
0
0
0
0
0
0
0
0
0
0
0
0
0
0
0
0
0
0
0
0
0
0
0
0
0
0
0
0
0
0
0
0
0
0
0
0
0
0
0
0
0
0
0
0
0
0
0
0
0
0
0
0
0
0
0
0
0
0
0
0
0
0
0
0
0
0
0
0
0
0
0
0
0
0
0
0
0
0
0
0
0
0
0
0
0
0
0
0
0
0
0
0
0
0
0
0
0
0
0
0
0
0
0
0
0
0
0
0
0
0
0
0
0
0
0
0
0
0
0
0
0
0
0
0
0
0
0
0
0
0
0
0
0
0
0
0
0
0
0
0
0
0
0
0
0
0
0
0
0
0
0
0
0
0
0
0
0
0
0
0
0
0
0
0
0
0
0
0
0
0
0
0
0
0
0
0
0
0
0
0
0
0
0
0
0
0
0
0
0
0
0
0
0
0
0
0
0
0
0
0
0
0
0
0
0
0
0
0
0
0
0
0
0
0
0
0
0
0
0
0
0
0
0
0
0
0
0
0
0
0
0
0
0
0
0
0
0
0
0
0
0
0
0
0
0
0
1
1
1
1
1
1
1
1
1
1
1
1
1
1
1
1
1
1
1
1
1
1
1
1
1
1
1
1
1
1
2
2
2
2
2
2
2
2
2
2
2
2
2
2
2
2
2
2
2
2
2
2
2
2
2
2
2
2
2
2
3
3
3
3
3
3
3
3
3
3
3
3
3
3
3
3
3
3
3
3
3
3
3
3
3
3
3
3
3
3
4
4
4
4
4
4
4
4
4
4
4
4
4
4
4
4
4
4
4
4
4
4
4
4
4
4
4
4
4
4

LOOKUP_TABLE FreeFempp_table 5
1.00000000 0.00000000 0.00000000 1.00000000
1.00000000 1.00000000 0.00000000 1.00000000
1.00000000 0.00000000 1.00000000 1.00000000
0.00000000 1.00000000 0.00000000 1.00000000
0.00000000 1.00000000 1.00000000 1.00000000

POINT_DATA 961
FIELD FieldData 1
Density 1 961 float
1.45238101e-01 1.47321999e-01 1.44457608e-01 1.40326902e-01 1.39915124e-01 1.40256584e-01 1.40716881e-01 1.41240895e-01 1.41851336e-01 1.42535314e-01 1.43238202e-01 1.43898815e-01 1.44473836e-01 1.44942924e-01 1.45304769e-01 1.45577908e-01 1.45800591e-01 1.46011323e-01 1.46220580e-01 1.46414414e-01 1.46587133e-01 1.46747753e-01 1.46902457e-01 1.47048920e-01 1.47181883e-01 1.47297367e-01 1.47393048e-01 1.47466853e-01 1.47505298e-01 1.47066712e-01 1.45238101e-01 3.32643121e-01 1.41647264e-01 1.36560351e-01 1.46009937e-01 1.84687465e-01 2.39333570e-01 3.01514089e-01 3.62556696e-01 4.13225174e-01 4.47140813e-01 4.63194400e-01 4.64629114e-01 4.56428975e-01 4.43125695e-01 4.27856922e-01 4.12403494e-01 3.97616118e-01 3.83833647e-01 3.71159464e-01 3.59610260e-01 3.49184960e-01 3.39887708e-01 3.31724912e-01 3.24694067e-01 3.18775088e-01 3.13925117e-01 3.10079724e-01 3.07167917e-01 3.05140316e-01 3.04321945e-01 3.32643121e-01 1.72116846e-01 1.39851734e-01 1.83227897e-01 2.69954652e-01 3.49083573e-01 4.03269291e-01 4.25073504e-01 4.18957442e-01 3.96188706e-01 3.66977394e-01 3.37553799e-01 3.10748011e-01 2.87428916e-01 2.67551363e-01 2.50735939e-01 2.36561209e-01 2.24659234e-01 2.14704424e-01 2.06382975e-01 1.99388668e-01 1.93452984e-01 1.88385397e-01 1.84082344e-01 1.80493802e-01 1.77582309e-01 1.75303206e-01 1.73599690e-01 1.72400504e-01 1.71629772e-01 1.71275154e-01 1.72116846e-01 1.66016936e-01 1.45371452e-01 2.74217159e-01 3.78646463e-01 4.17238623e-01 4.02118534e-01 3.63839954e-01 3.19538951e-01 2.79678404e-01 2.47554123e-01 2.22877547e-01 2.04363525e-01 1.90670848e-01 1.80643111e-01 1.73378825e-01 1.68228135e-01 1.64721251e-01 1.62489295e-01 1.61224753e-01 1.60671800e-01 1.60622060e-01 1.60907835e-01 1.61394507e-01 1.61974415e-01 1.62564993e-01 1.63111895e-01 1.63591892e-01 1.64003491e-01 1.64344832e-01 1.64598197e-01 1.66016936e-01 2.04123035e-01 1.75004900e-01 3.58354449e-01 4.23171639e-01 3.95786077e-01 3.36885482e-01 2.81056851e-01 2.38058463e-01 2.07709506e-01 1.87445745e-01 1.74610406e-01 1.67042881e-01 1.63187549e-01 1.61966205e-01 1.62595913e-01 1.64494351e-01 1.67238444e-01 1.70523420e-01 1.74123794e-01 1.77866876e-01 1.81616843e-01 1.85264826e-01 1.88721776e-01 1.91912621e-01 1.94771275e-01 1.97238237e-01 1.99263692e-01 2.00817257e-01 2.01894566e-01 2.02505156e-01 2.04123035e-01 2.56930888e-01 2.12748736e-01 4.16632593e-01 4.14980680e-01 3.43111306e-01 2.73293614e-01 2.23827660e-01 1.92591995e-01 1.74451336e-01 1.65166348e-01 1.61808088e-01 1.62424952e-01 1.65683433e-01 1.70678094e-01 1.76793560e-01 1.83591157e-01 1.90749690e-01 1.98034137e-01 2.05269411e-01 2.12319836e-01 2.19076499e-01 2.25450039e-01 2.31366113e-01 2.36762032e-01 2.41583720e-01 2.45782509e-01 2.49311507e-01 2.52122223e-01 2.54162341e-01 2.55374372e-01 2.56930888e-01 3.11997712e-01 2.51246542e-01 4.44236368e-01 3.82341653e-01 2.92319834e-01 2.28288442e-01 1.90570801e-01 1.70904994e-01 1.62718609e-01 1.61772370e-01 1.65423155e-01 1.72025412e-01 1.80530742e-01 1.90231174e-01 2.00627655e-01 2.11356387e-01 2.22142279e-01 2.32773826e-01 2.43088141e-01 2.52958477e-01 2.62283564e-01 2.70979106e-01 2.78971523e-01 2.86193907e-01 2.92584091e-01 2.98085570e-01 3.02649200e-01 3.06234837e-01 3.08811277e-01 3.10354114e-01 3.11997712e-01 3.63114864e-01 2.86028326e-01 4.47195590e-01 3.44373226e-01 2.53107309e-01 1.99582413e-01 1.72976077e-01 1.62704095e-01 1.62163630e-01 1.67507127e-01 1.76501274e-01 1.87801316e-01 2.00543910e-01 2.14132369e-01 2.28125483e-01 2.42184281e-01 2.56044686e-01 2.69499958e-01 2.82387912e-01 2.94579804e-01 3.05970520e-01 3.16471785e-01 3.26008677e-01 3.34518820e-01 3.41953307e-01 3.48276764e-01 3.53466034e-01 3.57507616e-01 3.60394210e-01 3.62122148e-01 3.63114864e-01 4.06848609e-01 3.15022558e-01 4.35421467e-01 3.10393453e-01 2.25213945e-01 1.82199240e-01 1.64793402e-01 1.61858961e-01 1.67206958e-01 1.77477181e-01 1.90778747e-01 2.05963627e-01 2.22267091e-01 2.39136279e-01 2.56148964e-01 2.72973746e-01 2.89347976e-01 3.05063188e-01 3.19953054e-01 3.33884269e-01 3.46750200e-01 3.58467698e-01 3.68975967e-01 3.78236115e-01 3.86229783e-01 3.92955810e-01 3.98424834e-01 4.02653366e-01 4.05658394e-01 4.07454252e-01 4.06848609e-01 4.41607684e-01 3.37949127e-01 4.17374730e-01 2.83035398e-01 2.06030533e-01 1.72120512e-01 1.62036881e-01 1.64809704e-01 1.74792856e-01 1.89044729e-01 2.05910906e-01 2.24350229e-01 2.43636414e-01 2.63226926e-01 2.82701075e-01 3.01726848e-01 3.20039719e-01 3.37427825e-01 3.53721917e-01 3.68789256e-01 3.82530749e-01 3.94880295e-01 4.05804306e-01 4.15300310e-01 4.23392743e-01 4.30125445e-01 4.35550809e-01 4.39718753e-01 4.42668974e-01 4.44429785e-01 4.41607684e-01 4.68382388e-01 3.55334848e-01 3.98413628e-01 2.62068033e-01 1.93058059e-01 1.66578591e-01 1.62214682e-01 1.69439852e-01 1.83114916e-01 2.00612679e-01 2.20421508e-01 2.41547719e-01 2.63272852e-01 2.85049915e-01 3.06451827e-01 3.27140421e-01 3.46845478e-01 3.65351051e-01 3.82488161e-01 3.98132563e-01 4.12205637e-01 4.24675763e-01 4.35558289e-01 4.44911242e-01 4.52824980e-01 4.59404171e-01 4.64742810e-01 4.68899995e-01 4.71890181e-01 4.73698854e-01 4.68382388e-01 4.94343400e-01 3.67996871e-01 3.81338000e-01 2.46508881e-01 1.84405789e-01 1.63744792e-01 1.63764164e-01 1.74433514e-01 1.91027388e-01 2.11131141e-01 2.33309999e-01 2.56585628e-01 2.80233949e-01 3.03697497e-01 3.26538265e-01 3.48407447e-01 3.69025797e-01 3.88173223e-01 4.05687004e-01 4.21466529e-01 4.35481459e-01 4.47779000e-01 4.58484888e-01 4.67791110e-01 4.75923151e-01 4.83082950e-01 4.89373952e-01 4.94732738e-01 4.98918682e-01 5.01605511e-01 4.94343400e-01 5.35312355e-01 3.76882166e-01 3.67420018e-01 2.35385090e-01 1.78753138e-01 1.62437752e-01 1.65700793e-01 1.78955242e-01 1.97779462e-01 2.19890714e-01 2.43891373e-01 2.68803507e-01 2.93892860e-01 3.18589389e-01 3.42441797e-01 3.65088135e-01 3.86238992e-01 4.05673385e-01 4.23247159e-01 4.38912243e-01 4.52743381e-01 4.64964330e-01 4.75958616e-01 4.86239910e-01 4.96352702e-01 5.06686807e-01 5.17234802e-01 5.27408957e-01 5.36059797e-01 5.41884542e-01 5.35312355e-01 5.87930202e-01 3.82776171e-01 3.57156545e-01 2.27938011e-01 1.75234318e-01 1.61922157e-01 1.67420983e-01 1.82482481e-01 2.02885613e-01 2.26423040e-01 2.51712829e-01 2.77772248e-01 3.03856790e-01 3.29384506e-01 3.53891224e-01 3.77002358e-01 3.98420274e-01 4.17929113e-01 4.35418457e-01 4.50927526e-01 4.64707583e-01 4.77290720e-01 4.89530295e-01 5.02540112e-01 5.17426610e-01 5.34732103e-01 5.53672135e-01 5.71630061e-01 5.85015118e-01 5.91975391e-01 5.87930202e-01 5.66116273e-01 3.85853499e-01 3.50661755e-01 2.23655298e-01 1.73327461e-01 1.61772773e-01 1.68576881e-01 1.84705272e-01 2.06049263e-01 2.30438486e-01 2.56496012e-01 2.83234149e-01 3.09900820e-01 3.35905492e-01 3.60774547e-01 3.84124219e-01 4.05652314e-01 4.25151169e-01 4.42547590e-01 4.57974106e-01 4.71874565e-01 4.85127777e-01 4.99127388e-01 5.15662491e-01 5.36312521e-01 5.60950041e-01 5.85014522e-01 5.96659362e-01 5.78337908e-01 5.70772588e-01 5.66116273e-01 5.65917253e-01 3.86541277e-01 3.47908229e-01 2.22204268e-01 1.72724992e-01 1.61752298e-01 1.68979317e-01 1.85455218e-01 2.07109034e-01 2.31780365e-01 2.58092523e-01 2.85055429e-01 3.11914235e-01 3.38075161e-01 3.63060951e-01 3.86484414e-01 4.08041537e-01 4.27528501e-01 4.44888145e-01 4.60294336e-01 4.74277556e-01 4.87876236e-01 5.02735257e-01 5.20944118e-01 5.44187069e-01 5.71413219e-01 5.93821704e-01 5.86368799e-01 5.70769131e-01 5.70795536e-01 5.65917253e-01 5.66129744e-01 3.85322362e-01 3.49041671e-01 2.23449573e-01 1.73293084e-01 1.61760986e-01 1.68555096e-01 1.84672788e-01 2.06011400e-01 2.30398625e-01 2.56455988e-01 2.83195317e-01 3.09864402e-01 3.35872620e-01 3.60745937e-01 3.84100020e-01 4.05631572e-01 4.25131679e-01 4.42525476e-01 4.57944036e-01 4.71830457e-01 4.85065192e-01 4.99048054e-01 5.15580058e-01 5.36254585e-01 5.60945213e-01 5.85049391e-01 5.96693754e-01 5.78368306e-01 5.70801675e-01 5.66129744e-01 5.87969959e-01 3.82062942e-01 3.54094744e-01 2.27508336e-01 1.75131887e-01 1.61875263e-01 1.67367071e-01 1.82415098e-01 2.02810973e-01 2.26345539e-01 2.51635015e-01 2.77696192e-01 3.03784490e-01 3.29317808e-01 3.53831410e-01 3.76949608e-01 3.98373187e-01 4.17884171e-01 4.35370088e-01 4.50868487e-01 4.64630485e-01 4.77191448e-01 4.89413142e-01 5.02423048e-01 5.17340481e-01 5.34704924e-01 5.53699076e-01 5.71678162e-01 5.85080206e-01 5.92052877e-01 5.87969959e-01 5.35588384e-01 3.76090854e-01 3.62972528e-01 2.34717488e-01 1.78575605e-01 1.62359998e-01 1.65626913e-01 1.78866133e-01 1.97679222e-01 2.19784185e-01 2.43781835e-01 2.68693805e-01 2.93785602e-01 3.18486810e-01 3.42345476e-01 3.64998519e-01 3.86154979e-01 4.05591935e-01 4.23163593e-01 4.38821256e-01 4.52641010e-01 4.64850813e-01 4.75841492e-01 4.86135006e-01 4.96279597e-01 5.06657600e-01 5.17245710e-01 5.27444541e-01 5.36133111e-01 5.42012870e-01 5.35588384e-01 4.94935036e-01 3.66880953e-01 3.75340939e-01 2.45579407e-01 1.84169352e-01 1.63662031e-01 1.63699418e-01 1.74347863e-01 1.90920129e-01 2.11008117e-01 2.33176321e-01 2.56445616e-01 2.80091047e-01 3.03554267e-01 3.26396555e-01 3.48268420e-01 3.68889779e-01 3.88039559e-01 4.05554354e-01 4.21333909e-01 4.35349971e-01 4.47653532e-01 4.58374768e-01 4.67708290e-01 4.75877255e-01 4.83075500e-01 4.89397973e-01 4.94784057e-01 4.99007553e-01 5.01740932e-01 4.94935036e-01 4.69149441e-01 3.54096919e-01 3.90838414e-01 2.60789305e-01 1.92735165e-01 1.66485161e-01 1.62168995e-01 1.69374257e-01 1.83015630e-01 2.00483292e-01 2.20268428e-01 2.41376951e-01 2.63088912e-01 2.84855843e-01 3.06249887e-01 3.26933295e-01 3.46636623e-01 3.65144461e-01 3.82288039e-01 3.97943586e-01 4.12033588e-01 4.24528152e-01 4.35443908e-01 4.44837898e-01 4.52796489e-01 4.59418267e-01 4.64793116e-01 4.68981951e-01 4.72003669e-01 4.73837852e-01 4.69149441e-01 4.42504227e-01 3.36857527e-01 4.08463418e-01 2.81278461e-01 2.05557749e-01 1.71985239e-01 1.62000135e-01 1.64769590e-01 1.74711630e-01 1.88915953e-01 2.05739155e-01 2.24142432e-01 2.43398488e-01 2.62963116e-01 2.82415390e-01 3.01425129e-01 3.19730818e-01 3.37123066e-01 3.53433460e-01 3.68528306e-01 3.82307053e-01 3.94701868e-01 4.05677229e-01 4.15227830e-01 4.23374355e-01 4.30156857e-01 4.35625762e-01 4.39831018e-01 4.42811966e-01 4.44590956e-01 4.42504227e-01 4.07610446e-01 3.14202607e-01 4.25863594e-01 3.08048099e-01 2.24494755e-01 1.81974888e-01 1.64747506e-01 1.61845013e-01 1.67153269e-01 1.77356482e-01 1.90587208e-01 2.05706999e-01 2.21953303e-01 2.38773361e-01 2.55746245e-01 2.72544146e-01 2.88908988e-01 3.04635733e-01 3.19558471e-01 3.33541006e-01 3.46471429e-01 3.58260542e-01 3.68842125e-01 3.78172904e-01 3.86231333e-01 3.93014342e-01 3.98532301e-01 4.02802289e-01 4.05841172e-01 4.07659322e-01 4.07610446e-01 3.63176405e-01 2.85416037e-01 4.37995136e-01 3.41559350e-01 2.52031982e-01 1.99184269e-01 1.72880113e-01 1.62711173e-01 1.62147880e-01 1.67406276e-01 1.76292822e-01 1.87484413e-01 2.00128943e-01 2.13635802e-01 2.27569431e-01 2.41595536e-01 2.55452901e-01 2.68935710e-01 2.81880170e-01 2.94152677e-01 3.05640638e-01 3.16246480e-01 3.25886220e-01 3.34490299e-01 3.42005491e-01 3.48395050e-01 3.53637040e-01 3.57720822e-01 3.60643119e-01 3.62402022e-01 3.63176405e-01 3.11249584e-01 2.50754178e-01 4.35949177e-01 3.79401445e-01 2.90905088e-01 2.27600470e-01 1.90337002e-01 1.70892105e-01 1.62745148e-01 1.61713064e-01 1.65217936e-01 1.71658397e-01 1.80010006e-01 1.89586923e-01 1.99903876e-01 2.10599765e-01 2.21397042e-01 2.32079059e-01 2.42476091e-01 2.52454430e-01 2.61906177e-01 2.70739555e-01 2.78871924e-01 2.86226004e-01 2.92730540e-01 2.98323214e-01 3.02953780e-01 3.06586266e-01 3.09199512e-01 3.10787618e-01 3.11249584e-01 2.56469131e-01 2.12375760e-01 4.09408927e-01 4.11960691e-01 3.41361701e-01 2.72245616e-01 2.23341316e-01 1.92487046e-01 1.74499258e-01 1.65189967e-01 1.61686242e-01 1.62086204e-01 1.65127233e-01 1.69952899e-01 1.75962538e-01 1.82720467e-01 1.89901918e-01 1.97259650e-01 2.04602927e-01 2.11783409e-01 2.18684688e-01 2.25214109e-01 2.31296077e-01 2.36865580e-01 2.41862521e-01 2.46227473e-01 2.49900982e-01 2.52827197e-01 2.54961550e-01 2.56284684e-01 2.56469131e-01 2.05202609e-01 1.74756825e-01 3.52109760e-01 4.19190735e-01 3.93530637e-01 3.35083097e-01 2.79925823e-01 2.37653449e-01 2.07828969e-01 1.87753290e-01 1.74809799e-01 1.66983321e-01 1.62844822e-01 1.61384016e-01 1.61854684e-01 1.63687497e-01 1.66448340e-01 1.69810876e-01 1.73530266e-01 1.77419424e-01 1.81331292e-01 1.85147822e-01 1.88773766e-01 1.92132682e-01 1.95163980e-01 1.97819814e-01 2.00062066e-01 2.01860651e-01 2.03196123e-01 2.04076543e-01 2.05202609e-01 1.67914793e-01 1.45618960e-01 2.68179536e-01 3.73612076e-01 4.13085699e-01 3.98423105e-01 3.59847605e-01 3.17267150e-01 2.79248208e-01 2.48177305e-01 2.23874941e-01 2.05302939e-01 1.91297546e-01 1.80852935e-01 1.73206970e-01 1.67813480e-01 1.64224654e-01 1.62026212e-01 1.60860568e-01 1.60441190e-01 1.60544097e-01 1.60993606e-01 1.61649719e-01 1.62399545e-01 1.63152888e-01 1.63840413e-01 1.64413899e-01 1.64846584e-01 1.65131360e-01 1.65250719e-01 1.67914793e-01 1.72061682e-01 1.41843081e-01 1.80188671e-01 2.65329003e-01 3.40572536e-01 3.87645632e-01 4.05571818e-01 4.01920110e-01 3.85272324e-01 3.62290263e-01 3.37318271e-01 3.12909812e-01 2.90426731e-01 2.70438462e-01 2.53004342e-01 2.37984926e-01 2.25204378e-01 2.14413375e-01 2.05345213e-01 1.97814271e-01 1.91656336e-01 1.86664954e-01 1.82626471e-01 1.79359093e-01 1.76719949e-01 1.74600407e-01 1.72921255e-01 1.71628922e-01 1.70689374e-01 1.70077577e-01 1.72061682e-01 3.28699589e-01 1.48526847e-01 1.39126763e-01 1.46615028e-01 1.77850977e-01 2.16523871e-01 2.57054836e-01 2.95967370e-01 3.30836087e-01 3.59818280e-01 3.82029593e-01 3.97517920e-01 4.06944275e-01 4.11273986e-01 4.11552072e-01 4.08777326e-01 4.03852344e-01 3.97534788e-01 3.90404701e-01 3.82912278e-01 3.75427663e-01 3.68233174e-01 3.61520946e-01 3.55417013e-01 3.50006849e-01 3.45351875e-01 3.41498435e-01 3.38481307e-01 3.36326540e-01 3.35102111e-01 3.28699589e-01 1.45238101e-01 1.47321999e-01 1.44457608e-01 1.40326902e-01 1.39915124e-01 1.40256584e-01 1.40716881e-01 1.41240895e-01 1.41851336e-01 1.42535314e-01 1.43238202e-01 1.43898815e-01 1.44473836e-01 1.44942924e-01 1.45304769e-01 1.45577908e-01 1.45800591e-01 1.46011323e-01 1.46220580e-01 1.46414414e-01 1.46587133e-01 1.46747753e-01 1.46902457e-01 1.47048920e-01 1.47181883e-01 1.47297367e-01 1.47393048e-01 1.47466853e-01 1.47505298e-01 1.47066712e-01 1.45238101e-01 
