# vtk DataFile Version 2.0
results_case1_non_linear/iter1.vtk, Created by Freefem++ 
ASCII
DATASET UNSTRUCTURED_GRID
POINTS 961 float
0 0 0
0.033333333 0 0
0.066666667 0 0
0.1 0 0
0.13333333 0 0
0.16666667 0 0
0.2 0 0
0.23333333 0 0
0.26666667 0 0
0.3 0 0
0.33333333 0 0
0.36666667 0 0
0.4 0 0
0.43333333 0 0
0.46666667 0 0
0.5 0 0
0.53333333 0 0
0.56666667 0 0
0.6 0 0
0.63333333 0 0
0.66666667 0 0
0.7 0 0
0.73333333 0 0
0.76666667 0 0
0.8 0 0
0.83333333 0 0
0.86666667 0 0
0.9 0 0
0.93333333 0 0
0.96666667 0 0
1 0 0
0 0.033333333 0
0.033333333 0.033333333 0
0.066666667 0.033333333 0
0.1 0.033333333 0
0.13333333 0.033333333 0
0.16666667 0.033333333 0
0.2 0.033333333 0
0.23333333 0.033333333 0
0.26666667 0.033333333 0
0.3 0.033333333 0
0.33333333 0.033333333 0
0.36666667 0.033333333 0
0.4 0.033333333 0
0.43333333 0.033333333 0
0.46666667 0.033333333 0
0.5 0.033333333 0
0.53333333 0.033333333 0
0.56666667 0.033333333 0
0.6 0.033333333 0
0.63333333 0.033333333 0
0.66666667 0.033333333 0
0.7 0.033333333 0
0.73333333 0.033333333 0
0.76666667 0.033333333 0
0.8 0.033333333 0
0.83333333 0.033333333 0
0.86666667 0.033333333 0
0.9 0.033333333 0
0.93333333 0.033333333 0
0.96666667 0.033333333 0
1 0.033333333 0
0 0.066666667 0
0.033333333 0.066666667 0
0.066666667 0.066666667 0
0.1 0.066666667 0
0.13333333 0.066666667 0
0.16666667 0.066666667 0
0.2 0.066666667 0
0.23333333 0.066666667 0
0.26666667 0.066666667 0
0.3 0.066666667 0
0.33333333 0.066666667 0
0.36666667 0.066666667 0
0.4 0.066666667 0
0.43333333 0.066666667 0
0.46666667 0.066666667 0
0.5 0.066666667 0
0.53333333 0.066666667 0
0.56666667 0.066666667 0
0.6 0.066666667 0
0.63333333 0.066666667 0
0.66666667 0.066666667 0
0.7 0.066666667 0
0.73333333 0.066666667 0
0.76666667 0.066666667 0
0.8 0.066666667 0
0.83333333 0.066666667 0
0.86666667 0.066666667 0
0.9 0.066666667 0
0.93333333 0.066666667 0
0.96666667 0.066666667 0
1 0.066666667 0
0 0.1 0
0.033333333 0.1 0
0.066666667 0.1 0
0.1 0.1 0
0.13333333 0.1 0
0.16666667 0.1 0
0.2 0.1 0
0.23333333 0.1 0
0.26666667 0.1 0
0.3 0.1 0
0.33333333 0.1 0
0.36666667 0.1 0
0.4 0.1 0
0.43333333 0.1 0
0.46666667 0.1 0
0.5 0.1 0
0.53333333 0.1 0
0.56666667 0.1 0
0.6 0.1 0
0.63333333 0.1 0
0.66666667 0.1 0
0.7 0.1 0
0.73333333 0.1 0
0.76666667 0.1 0
0.8 0.1 0
0.83333333 0.1 0
0.86666667 0.1 0
0.9 0.1 0
0.93333333 0.1 0
0.96666667 0.1 0
1 0.1 0
0 0.13333333 0
0.033333333 0.13333333 0
0.066666667 0.13333333 0
0.1 0.13333333 0
0.13333333 0.13333333 0
0.16666667 0.13333333 0
0.2 0.13333333 0
0.23333333 0.13333333 0
0.26666667 0.13333333 0
0.3 0.13333333 0
0.33333333 0.13333333 0
0.36666667 0.13333333 0
0.4 0.13333333 0
0.43333333 0.13333333 0
0.46666667 0.13333333 0
0.5 0.13333333 0
0.53333333 0.13333333 0
0.56666667 0.13333333 0
0.6 0.13333333 0
0.63333333 0.13333333 0
0.66666667 0.13333333 0
0.7 0.13333333 0
0.73333333 0.13333333 0
0.76666667 0.13333333 0
0.8 0.13333333 0
0.83333333 0.13333333 0
0.86666667 0.13333333 0
0.9 0.13333333 0
0.93333333 0.13333333 0
0.96666667 0.13333333 0
1 0.13333333 0
0 0.16666667 0
0.033333333 0.16666667 0
0.066666667 0.16666667 0
0.1 0.16666667 0
0.13333333 0.16666667 0
0.16666667 0.16666667 0
0.2 0.16666667 0
0.23333333 0.16666667 0
0.26666667 0.16666667 0
0.3 0.16666667 0
0.33333333 0.16666667 0
0.36666667 0.16666667 0
0.4 0.16666667 0
0.43333333 0.16666667 0
0.46666667 0.16666667 0
0.5 0.16666667 0
0.53333333 0.16666667 0
0.56666667 0.16666667 0
0.6 0.16666667 0
0.63333333 0.16666667 0
0.66666667 0.16666667 0
0.7 0.16666667 0
0.73333333 0.16666667 0
0.76666667 0.16666667 0
0.8 0.16666667 0
0.83333333 0.16666667 0
0.86666667 0.16666667 0
0.9 0.16666667 0
0.93333333 0.16666667 0
0.96666667 0.16666667 0
1 0.16666667 0
0 0.2 0
0.033333333 0.2 0
0.066666667 0.2 0
0.1 0.2 0
0.13333333 0.2 0
0.16666667 0.2 0
0.2 0.2 0
0.23333333 0.2 0
0.26666667 0.2 0
0.3 0.2 0
0.33333333 0.2 0
0.36666667 0.2 0
0.4 0.2 0
0.43333333 0.2 0
0.46666667 0.2 0
0.5 0.2 0
0.53333333 0.2 0
0.56666667 0.2 0
0.6 0.2 0
0.63333333 0.2 0
0.66666667 0.2 0
0.7 0.2 0
0.73333333 0.2 0
0.76666667 0.2 0
0.8 0.2 0
0.83333333 0.2 0
0.86666667 0.2 0
0.9 0.2 0
0.93333333 0.2 0
0.96666667 0.2 0
1 0.2 0
0 0.23333333 0
0.033333333 0.23333333 0
0.066666667 0.23333333 0
0.1 0.23333333 0
0.13333333 0.23333333 0
0.16666667 0.23333333 0
0.2 0.23333333 0
0.23333333 0.23333333 0
0.26666667 0.23333333 0
0.3 0.23333333 0
0.33333333 0.23333333 0
0.36666667 0.23333333 0
0.4 0.23333333 0
0.43333333 0.23333333 0
0.46666667 0.23333333 0
0.5 0.23333333 0
0.53333333 0.23333333 0
0.56666667 0.23333333 0
0.6 0.23333333 0
0.63333333 0.23333333 0
0.66666667 0.23333333 0
0.7 0.23333333 0
0.73333333 0.23333333 0
0.76666667 0.23333333 0
0.8 0.23333333 0
0.83333333 0.23333333 0
0.86666667 0.23333333 0
0.9 0.23333333 0
0.93333333 0.23333333 0
0.96666667 0.23333333 0
1 0.23333333 0
0 0.26666667 0
0.033333333 0.26666667 0
0.066666667 0.26666667 0
0.1 0.26666667 0
0.13333333 0.26666667 0
0.16666667 0.26666667 0
0.2 0.26666667 0
0.23333333 0.26666667 0
0.26666667 0.26666667 0
0.3 0.26666667 0
0.33333333 0.26666667 0
0.36666667 0.26666667 0
0.4 0.26666667 0
0.43333333 0.26666667 0
0.46666667 0.26666667 0
0.5 0.26666667 0
0.53333333 0.26666667 0
0.56666667 0.26666667 0
0.6 0.26666667 0
0.63333333 0.26666667 0
0.66666667 0.26666667 0
0.7 0.26666667 0
0.73333333 0.26666667 0
0.76666667 0.26666667 0
0.8 0.26666667 0
0.83333333 0.26666667 0
0.86666667 0.26666667 0
0.9 0.26666667 0
0.93333333 0.26666667 0
0.96666667 0.26666667 0
1 0.26666667 0
0 0.3 0
0.033333333 0.3 0
0.066666667 0.3 0
0.1 0.3 0
0.13333333 0.3 0
0.16666667 0.3 0
0.2 0.3 0
0.23333333 0.3 0
0.26666667 0.3 0
0.3 0.3 0
0.33333333 0.3 0
0.36666667 0.3 0
0.4 0.3 0
0.43333333 0.3 0
0.46666667 0.3 0
0.5 0.3 0
0.53333333 0.3 0
0.56666667 0.3 0
0.6 0.3 0
0.63333333 0.3 0
0.66666667 0.3 0
0.7 0.3 0
0.73333333 0.3 0
0.76666667 0.3 0
0.8 0.3 0
0.83333333 0.3 0
0.86666667 0.3 0
0.9 0.3 0
0.93333333 0.3 0
0.96666667 0.3 0
1 0.3 0
0 0.33333333 0
0.033333333 0.33333333 0
0.066666667 0.33333333 0
0.1 0.33333333 0
0.13333333 0.33333333 0
0.16666667 0.33333333 0
0.2 0.33333333 0
0.23333333 0.33333333 0
0.26666667 0.33333333 0
0.3 0.33333333 0
0.33333333 0.33333333 0
0.36666667 0.33333333 0
0.4 0.33333333 0
0.43333333 0.33333333 0
0.46666667 0.33333333 0
0.5 0.33333333 0
0.53333333 0.33333333 0
0.56666667 0.33333333 0
0.6 0.33333333 0
0.63333333 0.33333333 0
0.66666667 0.33333333 0
0.7 0.33333333 0
0.73333333 0.33333333 0
0.76666667 0.33333333 0
0.8 0.33333333 0
0.83333333 0.33333333 0
0.86666667 0.33333333 0
0.9 0.33333333 0
0.93333333 0.33333333 0
0.96666667 0.33333333 0
1 0.33333333 0
0 0.36666667 0
0.033333333 0.36666667 0
0.066666667 0.36666667 0
0.1 0.36666667 0
0.13333333 0.36666667 0
0.16666667 0.36666667 0
0.2 0.36666667 0
0.23333333 0.36666667 0
0.26666667 0.36666667 0
0.3 0.36666667 0
0.33333333 0.36666667 0
0.36666667 0.36666667 0
0.4 0.36666667 0
0.43333333 0.36666667 0
0.46666667 0.36666667 0
0.5 0.36666667 0
0.53333333 0.36666667 0
0.56666667 0.36666667 0
0.6 0.36666667 0
0.63333333 0.36666667 0
0.66666667 0.36666667 0
0.7 0.36666667 0
0.73333333 0.36666667 0
0.76666667 0.36666667 0
0.8 0.36666667 0
0.83333333 0.36666667 0
0.86666667 0.36666667 0
0.9 0.36666667 0
0.93333333 0.36666667 0
0.96666667 0.36666667 0
1 0.36666667 0
0 0.4 0
0.033333333 0.4 0
0.066666667 0.4 0
0.1 0.4 0
0.13333333 0.4 0
0.16666667 0.4 0
0.2 0.4 0
0.23333333 0.4 0
0.26666667 0.4 0
0.3 0.4 0
0.33333333 0.4 0
0.36666667 0.4 0
0.4 0.4 0
0.43333333 0.4 0
0.46666667 0.4 0
0.5 0.4 0
0.53333333 0.4 0
0.56666667 0.4 0
0.6 0.4 0
0.63333333 0.4 0
0.66666667 0.4 0
0.7 0.4 0
0.73333333 0.4 0
0.76666667 0.4 0
0.8 0.4 0
0.83333333 0.4 0
0.86666667 0.4 0
0.9 0.4 0
0.93333333 0.4 0
0.96666667 0.4 0
1 0.4 0
0 0.43333333 0
0.033333333 0.43333333 0
0.066666667 0.43333333 0
0.1 0.43333333 0
0.13333333 0.43333333 0
0.16666667 0.43333333 0
0.2 0.43333333 0
0.23333333 0.43333333 0
0.26666667 0.43333333 0
0.3 0.43333333 0
0.33333333 0.43333333 0
0.36666667 0.43333333 0
0.4 0.43333333 0
0.43333333 0.43333333 0
0.46666667 0.43333333 0
0.5 0.43333333 0
0.53333333 0.43333333 0
0.56666667 0.43333333 0
0.6 0.43333333 0
0.63333333 0.43333333 0
0.66666667 0.43333333 0
0.7 0.43333333 0
0.73333333 0.43333333 0
0.76666667 0.43333333 0
0.8 0.43333333 0
0.83333333 0.43333333 0
0.86666667 0.43333333 0
0.9 0.43333333 0
0.93333333 0.43333333 0
0.96666667 0.43333333 0
1 0.43333333 0
0 0.46666667 0
0.033333333 0.46666667 0
0.066666667 0.46666667 0
0.1 0.46666667 0
0.13333333 0.46666667 0
0.16666667 0.46666667 0
0.2 0.46666667 0
0.23333333 0.46666667 0
0.26666667 0.46666667 0
0.3 0.46666667 0
0.33333333 0.46666667 0
0.36666667 0.46666667 0
0.4 0.46666667 0
0.43333333 0.46666667 0
0.46666667 0.46666667 0
0.5 0.46666667 0
0.53333333 0.46666667 0
0.56666667 0.46666667 0
0.6 0.46666667 0
0.63333333 0.46666667 0
0.66666667 0.46666667 0
0.7 0.46666667 0
0.73333333 0.46666667 0
0.76666667 0.46666667 0
0.8 0.46666667 0
0.83333333 0.46666667 0
0.86666667 0.46666667 0
0.9 0.46666667 0
0.93333333 0.46666667 0
0.96666667 0.46666667 0
1 0.46666667 0
0 0.5 0
0.033333333 0.5 0
0.066666667 0.5 0
0.1 0.5 0
0.13333333 0.5 0
0.16666667 0.5 0
0.2 0.5 0
0.23333333 0.5 0
0.26666667 0.5 0
0.3 0.5 0
0.33333333 0.5 0
0.36666667 0.5 0
0.4 0.5 0
0.43333333 0.5 0
0.46666667 0.5 0
0.5 0.5 0
0.53333333 0.5 0
0.56666667 0.5 0
0.6 0.5 0
0.63333333 0.5 0
0.66666667 0.5 0
0.7 0.5 0
0.73333333 0.5 0
0.76666667 0.5 0
0.8 0.5 0
0.83333333 0.5 0
0.86666667 0.5 0
0.9 0.5 0
0.93333333 0.5 0
0.96666667 0.5 0
1 0.5 0
0 0.53333333 0
0.033333333 0.53333333 0
0.066666667 0.53333333 0
0.1 0.53333333 0
0.13333333 0.53333333 0
0.16666667 0.53333333 0
0.2 0.53333333 0
0.23333333 0.53333333 0
0.26666667 0.53333333 0
0.3 0.53333333 0
0.33333333 0.53333333 0
0.36666667 0.53333333 0
0.4 0.53333333 0
0.43333333 0.53333333 0
0.46666667 0.53333333 0
0.5 0.53333333 0
0.53333333 0.53333333 0
0.56666667 0.53333333 0
0.6 0.53333333 0
0.63333333 0.53333333 0
0.66666667 0.53333333 0
0.7 0.53333333 0
0.73333333 0.53333333 0
0.76666667 0.53333333 0
[...]
CELL_DATA 1920
Scalars  Label int 1
LOOKUP_TABLE FreeFempp_table
0
0
0
0
0
0
0
0
0
0
0
0
0
0
0
0
0
0
0
0
0
0
0
0
0
0
0
0
0
0
0
0
0
0
0
0
0
0
0
0
0
0
0
0
0
0
0
0
0
0
0
0
0
0
0
0
0
0
0
0
0
0
0
0
0
0
0
0
0
0
0
0
0
0
0
0
0
0
0
0
0
0
0
0
0
0
0
0
0
0
0
0
0
0
0
0
0
0
0
0
0
0
0
0
0
0
0
0
0
0
0
0
0
0
0
0
0
0
0
0
0
0
0
0
0
0
0
0
0
0
0
0
0
0
0
0
0
0
0
0
0
0
0
0
0
0
0
0
0
0
0
0
0
0
0
0
0
0
0
0
0
0
0
0
0
0
0
0
0
0
0
0
0
0
0
0
0
0
0
0
0
0
0
0
0
0
0
0
0
0
0
0
0
0
0
0
0
0
0
0
0
0
0
0
0
0
0
0
0
0
0
0
0
0
0
0
0
0
0
0
0
0
0
0
0
0
0
0
0
0
0
0
0
0
0
0
0
0
0
0
0
0
0
0
0
0
0
0
0
0
0
0
0
0
0
0
0
0
0
0
0
0
0
0
0
0
0
0
0
0
0
0
0
0
0
0
0
0
0
0
0
0
0
0
0
0
0
0
0
0
0
0
0
0
0
0
0
0
0
0
0
0
0
0
0
0
0
0
0
0
0
0
0
0
0
0
0
0
0
0
0
0
0
0
0
0
0
0
0
0
0
0
0
0
0
0
0
0
0
0
0
0
0
0
0
0
0
0
0
0
0
0
0
0
0
0
0
0
0
0
0
0
0
0
0
0
0
0
0
0
0
0
0
0
0
0
0
0
0
0
0
0
0
0
0
0
0
0
0
0
0
0
0
0
0
0
0
0
0
0
0
0
0
0
0
0
0
0
0
0
0
0
0
0
0
0
0
0
0
0
0
0
0
0
0
0
0
0
0
0
0
0
0
0
0
0
0
0
0
0
0
0
0
0
0
0
0
0
0
0
0
0
0
0
0
0
0
0
0
0
0
0
0
0
0
0
0
0
0
0
0
0
0
0
0
0
0
0
0
0
0
0
0
0
0
0
0
0
0
0
0
0
0
0
0
0
0
0
0
0
0
0
0
0
0
0
0
0
0
0
0
0
0
0
0
0
0
0
0
0
0
0
0
0
0
0
0
0
0
0
0
0
0
0
0
0
0
0
0
0
0
0
0
0
0
0
0
0
0
0
0
0
0
0
0
0
0
0
0
0
0
0
0
0
0
0
0
0
0
0
0
0
0
0
0
0
0
0
0
0
0
0
0
0
0
0
0
0
0
0
0
0
0
0
0
0
0
0
0
0
0
0
0
0
0
0
0
0
0
0
0
0
0
0
0
0
0
0
0
0
0
0
0
0
0
0
0
0
0
0
0
0
0
0
0
0
0
0
0
0
0
0
0
0
0
0
0
0
0
0
0
0
0
0
0
0
0
0
0
0
0
0
0
0
0
0
0
0
0
0
0
0
0
0
0
0
0
0
0
0
0
0
0
0
0
0
0
0
0
0
0
0
0
0
0
0
0
0
0
0
0
0
0
0
0
0
0
0
0
0
0
0
0
0
0
0
0
0
0
0
0
0
0
0
0
0
0
0
0
0
0
0
0
0
0
0
0
0
0
0
0
0
0
0
0
0
0
0
0
0
0
0
0
0
0
0
0
0
0
0
0
0
0
0
0
0
0
0
0
0
0
0
0
0
0
0
0
0
0
0
0
0
0
0
0
0
0
0
0
0
0
0
0
0
0
0
0
0
0
0
0
0
0
0
0
0
0
0
0
0
0
0
0
0
0
0
0
0
0
0
0
0
0
0
0
0
0
0
0
0
0
0
0
0
0
0
0
0
0
0
0
0
0
0
0
0
0
0
0
0
0
0
0
0
0
0
0
0
0
0
0
0
0
0
0
0
0
0
0
0
0
0
0
0
0
0
0
0
0
0
0
0
0
0
0
0
0
0
0
0
0
0
0
0
0
0
0
0
0
0
0
0
0
0
0
0
0
0
0
0
0
0
0
0
0
0
0
0
0
0
0
0
0
0
0
0
0
0
0
0
0
0
0
0
0
0
0
0
0
0
0
0
0
0
0
0
0
0
0
0
0
0
0
0
0
0
0
0
0
0
0
0
0
0
0
0
0
0
0
0
0
0
0
0
0
0
0
0
0
0
0
0
0
0
0
0
0
0
0
0
0
0
0
0
0
0
0
0
0
0
0
0
0
0
0
0
0
0
0
0
0
0
0
0
0
0
0
0
0
0
0
0
0
0
0
0
0
0
0
0
0
0
0
0
0
0
0
0
0
0
0
0
0
0
0
0
0
0
0
0
0
0
0
0
0
0
0
0
0
0
0
0
0
0
0
0
0
0
0
0
0
0
0
0
0
0
0
0
0
0
0
0
0
0
0
0
0
0
0
0
0
0
0
0
0
0
0
0
0
0
0
0
0
0
0
0
0
0
0
0
0
0
0
0
0
0
0
0
0
0
0
0
0
0
0
0
0
0
0
0
0
0
0
0
0
0
0
0
0
0
0
0
0
0
0
0
0
0
0
0
0
0
0
0
0
0
0
0
0
0
0
0
0
0
0
0
0
0
0
0
0
0
0
0
0
0
0
0
0
0
0
0
0
0
0
0
0
0
0
0
0
0
0
0
0
0
0
0
0
0
0
0
0
0
0
0
0
0
0
0
0
0
0
0
0
0
0
0
0
0
0
0
0
0
0
0
0
0
0
0
0
0
0
0
0
0
0
0
0
0
0
0
0
0
0
0
0
0
0
0
0
0
0
0
0
0
0
0
0
0
0
0
0
0
0
0
0
0
0
0
0
0
0
0
0
0
0
0
0
0
0
0
0
0
0
0
0
0
0
0
0
0
0
0
0
0
0
0
0
0
0
0
0
0
0
0
0
0
0
0
0
0
0
0
0
0
0
0
0
0
0
0
0
0
0
0
0
0
0
0
0
0
0
0
0
0
0
0
0
0
0
0
0
0
0
0
0
0
0
0
0
0
0
0
0
0
0
0
0
0
0
0
0
0
0
0
0
0
0
0
0
0
0
0
0
0
0
0
0
0
0
0
0
0
0
0
0
0
0
0
0
0
0
0
0
0
0
0
0
0
0
0
0
0
0
0
0
0
0
0
0
0
0
0
0
0
0
0
0
0
0
0
0
0
0
0
0
0
0
0
0
0
0
0
0
0
0
0
0
0
0
0
0
0
0
0
0
0
0
0
0
0
0
0
0
0
0
0
0
0
0
0
0
0
0
0
0
0
0
0
0
0
0
0
0
0
0
0
0
0
0
0
0
0
0
0
0
0
0
0
0
0
0
0
0
0
0
0
0
0
0
0
0
0
0
0
0
0
0
0
0
0
0
0
0
0
0
0
0
0
0
0
0
0
0
0
0
0
0
0
0
0
0
0
0
0
0
0
0
0
0
0
0
0
0
0
0
0
0
0
0
0
0
0
0
0
0
0
0
0
0
0
0
0
0
0
0
0
0
0
0
0
0
0
0
0
0
0
0
0
0
0
0
0
0
0
0
0
0
0
0
0
0
0
0
0
0
0
0
0
0
0
0
0
0
0
0
0
0
0
0
0
0
0
0
0
0
0
0
0
0
0
0
0
0
0
0
0
0
0
0
0
0
0
0
0
0
0
0
0
0
0
0
0
0
0
0
0
0
0
0
0
0
0
0
0
0
0
0
0
0
0
0
0
0
0
0
0
0
0
0
0
0
0
0
0
0
0
0
0
0
0
0
0
0
0
0
0
0
0
0
0
0
0
0
0
0
0
0
0
0
0
0
0
0
0
0
0
0
0
0
0
0
0
0
0
0
0
0
0
0
0
0
0
0
0
0
0
0
0
0
0
0
0
0
0
0
0
0
0
0
0
0
0
0
0
0
0
0
0
0
0
0
0
0
0
0
0
0
0
0
0
0
0
0
0
0
0
0
0
0
0
0
0
0
0
0
0
0
0
0
0
0
0
0
0
0
0
0
0
0
0
0
0
0
0
0
0
0
0
1
1
1
1
1
1
1
1
1
1
1
1
1
1
1
1
1
1
1
1
1
1
1
1
1
1
1
1
1
1
2
2
2
2
2
2
2
2
2
2
2
2
2
2
2
2
2
2
2
2
2
2
2
2
2
2
2
2
2
2
3
3
3
3
3
3
3
3
3
3
3
3
3
3
3
3
3
3
3
3
3
3
3
3
3
3
3
3
3
3
4
4
4
4
4
4
4
4
4
4
4
4
4
4
4
4
4
4
4
4
4
4
4
4
4
4
4
4
4
4

LOOKUP_TABLE FreeFempp_table 5
1.00000000 0.00000000 0.00000000 1.00000000
1.00000000 1.00000000 0.00000000 1.00000000
1.00000000 0.00000000 1.00000000 1.00000000
0.00000000 1.00000000 0.00000000 1.00000000
0.00000000 1.00000000 1.00000000 1.00000000

POINT_DATA 961
FIELD FieldData 1
Density 1 961 float
5.27249753e-01 5.29047310e-01 5.20429552e-01 5.18633723e-01 5.28272867e-01 5.44974267e-01 5.56189775e-01 5.47988534e-01 5.26872635e-01 5.07781208e-01 5.03815711e-01 5.03659844e-01 5.03340781e-01 5.02771854e-01 5.01326561e-01 4.98973012e-01 4.97832477e-01 4.98727918e-01 5.00267088e-01 5.01167595e-01 5.00078440e-01 4.96835560e-01 4.87547934e-01 4.57867235e-01 4.24517334e-01 4.92207170e-01 6.14169419e-01 4.87832844e-01 1.07963830e-01 1.86893672e-01 5.74894488e-01 7.52641866e-03 6.80089789e-03 6.38924353e-03 5.59980562e-03 5.84747037e-03 6.09126547e-03 6.56939624e-03 6.73508830e-03 7.00310804e-03 7.08880881e-03 4.13183808e-01 4.19563413e-01 4.18491751e-01 4.17547256e-01 4.16280150e-01 4.15319413e-01 4.16279584e-01 4.16010529e-01 4.14677024e-01 4.13050830e-01 4.10935014e-01 4.08858567e-01 4.06041086e-01 3.66004795e-01 3.01465213e-01 3.32467705e-01 5.80374300e-01 3.47417623e-01 5.85237630e-02 9.56793725e-02 5.27674437e-01 1.04783159e-02 5.82791120e-03 6.78684702e-03 5.92134334e-03 5.72448084e-03 5.92153892e-03 6.30474323e-03 6.68758061e-03 6.84695365e-03 4.35353816e-03 4.37334087e-03 7.64305517e-03 8.01362377e-03 8.37983843e-03 8.73839762e-03 9.11281537e-03 9.47493128e-03 9.81251337e-03 1.01164626e-02 1.03862993e-02 1.06261661e-02 1.08512538e-02 1.20361410e-02 1.13101965e-02 2.22538263e-01 1.85507342e-01 4.31494087e-01 2.02222437e-01 2.30471808e-02 1.74931102e-02 4.88566697e-01 4.74264592e-01 4.26525809e-02 2.52035316e-02 5.11427745e-02 4.80793267e-01 4.18127358e-01 4.03372258e-01 4.07135516e-01 4.15068120e-01 5.07262647e-01 6.71637431e-03 7.30261533e-03 7.64362328e-03 8.12484417e-03 8.45863856e-03 8.82147532e-03 9.18331463e-03 9.52367671e-03 9.83139686e-03 1.01007521e-02 1.03246765e-02 1.05297389e-02 1.11079812e-02 7.10875494e-03 7.33319670e-03 1.00945741e-01 1.55969203e-01 4.72862065e-01 6.63440749e-02 1.24355778e-02 1.97834708e-02 4.83690619e-01 4.72849339e-01 2.26840191e-02 2.96894163e-02 4.51992363e-01 4.27214712e-01 4.12747264e-01 4.10026550e-01 4.10115629e-01 4.10689861e-01 4.07087445e-01 4.05547857e-01 4.16849792e-01 4.23526198e-01 4.38610196e-01 4.44135070e-01 4.45717782e-01 4.43050474e-01 4.52100396e-01 4.49411541e-01 4.51432765e-01 4.64850813e-01 4.51135755e-01 4.35410768e-01 8.08770489e-03 9.02903266e-03 1.72146093e-02 7.05608308e-01 3.60903591e-01 1.60297193e-02 1.87967066e-02 4.85109866e-01 4.54528332e-01 2.95032114e-02 2.71160938e-02 4.37535524e-01 4.23130661e-01 4.15516764e-01 4.12763506e-01 4.14217770e-01 4.17569339e-01 4.21562433e-01 4.24267709e-01 4.31968927e-01 4.40762937e-01 4.48717892e-01 4.53628600e-01 4.51317132e-01 4.56606597e-01 4.68575358e-01 4.75351542e-01 4.71688241e-01 4.63910699e-01 4.62616295e-01 4.81853366e-01 4.95578498e-01 1.48806684e-02 1.31405853e-02 1.83446761e-02 9.81804132e-01 1.30342022e-02 1.55159971e-02 4.86359209e-01 4.67303902e-01 3.39320302e-02 3.02543864e-02 4.39128369e-01 4.18881118e-01 4.16754097e-01 4.19477373e-01 4.25687760e-01 4.33214247e-01 4.40468550e-01 4.46384043e-01 4.51818287e-01 4.57958877e-01 4.63924229e-01 4.69468355e-01 4.74640816e-01 4.70128745e-01 4.69199061e-01 4.73397017e-01 4.75749493e-01 4.77899939e-01 4.81708884e-01 4.89957660e-01 5.08017957e-01 5.98854005e-01 4.63829398e-01 2.97205169e-02 1.13009647e-01 1.25012342e-02 1.25176320e-02 4.82884586e-01 4.65909719e-01 4.09149975e-02 3.54343131e-02 4.45437282e-01 4.20187712e-01 4.24365550e-01 4.35228556e-01 4.46734190e-01 4.56755579e-01 4.64426070e-01 4.69549000e-01 4.73045856e-01 4.76041436e-01 4.78438109e-01 4.80119318e-01 4.81536269e-01 4.83512133e-01 4.84922379e-01 4.82999444e-01 4.79373872e-01 4.78389889e-01 4.79979604e-01 4.83335733e-01 4.89619255e-01 5.07896841e-01 6.77959323e-01 9.47714686e-01 9.80821669e-01 1.47488657e-02 1.33079700e-02 4.55013305e-01 3.50066006e-01 5.27805164e-02 4.32414711e-02 4.41625267e-01 4.32640910e-01 4.49043483e-01 4.66300488e-01 4.78842467e-01 4.87112850e-01 4.91781116e-01 4.93494630e-01 4.93286788e-01 4.92128462e-01 4.90275800e-01 4.87872452e-01 4.85272169e-01 4.83063996e-01 4.81753588e-01 4.79325145e-01 4.75483716e-01 4.71527487e-01 4.67444688e-01 4.63097274e-01 4.59342241e-01 4.61999983e-01 5.04958689e-01 6.58129096e-01 7.90779054e-01 1.56540535e-02 1.45383431e-02 3.86641026e-01 2.13178292e-01 7.64516890e-02 5.85651509e-02 4.41752285e-01 4.78408545e-01 4.97782052e-01 5.11342704e-01 5.18314123e-01 5.20822227e-01 5.20000100e-01 5.16686797e-01 5.11818171e-01 5.06183803e-01 5.00171661e-01 4.94066834e-01 4.88206148e-01 4.82928544e-01 4.78381991e-01 4.73877460e-01 4.68823344e-01 4.63143677e-01 4.56733942e-01 4.50298339e-01 4.46416736e-01 4.53181833e-01 4.91353840e-01 5.86502373e-01 7.60534465e-01 1.70208942e-02 1.58483088e-02 3.31352144e-01 1.73737526e-01 1.24207139e-01 1.05822206e-01 5.23572981e-01 5.50402939e-01 5.56279302e-01 5.60582042e-01 5.59382856e-01 5.54753482e-01 5.47719002e-01 5.39048135e-01 5.29494822e-01 5.19677162e-01 5.09996831e-01 5.00771284e-01 4.92278188e-01 4.84681100e-01 4.77904677e-01 4.71522719e-01 4.65207726e-01 4.58937824e-01 4.53103960e-01 4.49219584e-01 4.51049894e-01 4.67151970e-01 5.11107743e-01 5.99346459e-01 7.10376203e-01 1.85637232e-02 1.72708556e-02 3.57020259e-01 1.92507744e-01 1.96950316e-01 2.68175930e-01 6.23765111e-01 6.10823750e-01 6.12131417e-01 6.09137952e-01 5.99894702e-01 5.88158846e-01 5.75170279e-01 5.61590314e-01 5.47938168e-01 5.34635842e-01 5.21996677e-01 5.10265768e-01 4.99621212e-01 4.90112185e-01 4.81610566e-01 4.73876625e-01 4.66871083e-01 4.60971892e-01 4.57204849e-01 4.57772344e-01 4.66775566e-01 4.91132438e-01 5.37024915e-01 6.06605768e-01 6.62617326e-01 2.04687621e-02 1.89606659e-02 5.04368246e-01 4.19469804e-01 5.46224833e-01 7.50969946e-01 7.32167840e-01 6.80869877e-01 6.72999620e-01 6.58740580e-01 6.40260637e-01 6.21528506e-01 6.03302717e-01 5.85767448e-01 5.69026470e-01 5.53200126e-01 5.38413107e-01 5.24761796e-01 5.12327671e-01 5.01117110e-01 4.91076976e-01 4.82201189e-01 4.74730700e-01 4.69381809e-01 4.67684209e-01 4.72399354e-01 4.87534672e-01 5.17203927e-01 5.59658170e-01 6.01967216e-01 6.10750556e-01 2.28940286e-02 2.10453235e-02 8.47233117e-01 8.70136797e-01 8.73715699e-01 8.65137935e-01 8.08486760e-01 7.51420200e-01 7.27309287e-01 7.00826347e-01 6.75258338e-01 6.51998162e-01 6.30764723e-01 6.11212492e-01 5.93056560e-01 5.76110184e-01 5.60267568e-01 5.45467377e-01 5.31751990e-01 5.19150913e-01 5.07741094e-01 4.97773856e-01 4.89726871e-01 4.84439135e-01 4.83515918e-01 4.89967406e-01 5.08018076e-01 5.39715528e-01 5.75686872e-01 5.87696493e-01 5.50859213e-01 2.60851867e-02 2.36872565e-02 7.48412013e-01 8.88343394e-01 8.68884265e-01 8.43527138e-01 7.96418309e-01 7.66103685e-01 7.44103909e-01 7.17875183e-01 6.93438351e-01 6.71355486e-01 6.51318729e-01 6.33009017e-01 6.16091788e-01 6.00259244e-01 5.85229576e-01 5.70898831e-01 5.57259381e-01 5.44378757e-01 5.32405734e-01 5.21852970e-01 5.13403952e-01 5.07850945e-01 5.06174564e-01 5.10359585e-01 5.24867654e-01 5.53823471e-01 5.84854186e-01 5.70927620e-01 4.73638475e-01 3.06717400e-02 2.72268206e-02 2.86952764e-01 3.46121132e-01 5.01697183e-01 6.62038803e-01 7.10135758e-01 7.22006619e-01 7.15633273e-01 7.00845361e-01 6.85415745e-01 6.70464277e-01 6.56283319e-01 6.42972827e-01 6.30464673e-01 6.18582368e-01 6.07070923e-01 5.95850587e-01 5.84827483e-01 5.74056089e-01 5.63701212e-01 5.54376662e-01 5.46900094e-01 5.42083204e-01 5.40161610e-01 5.40463626e-01 5.44915676e-01 5.63171983e-01 5.84534883e-01 5.38229942e-01 3.13488185e-01 3.78200710e-02 3.25443484e-02 1.36414200e-01 1.27010629e-01 2.22213745e-01 4.34953183e-01 5.60334444e-01 6.20536625e-01 6.43819034e-01 6.49874032e-01 6.49317443e-01 6.45742536e-01 6.40743792e-01 6.35188401e-01 6.29515767e-01 6.23895407e-01 6.18298113e-01 6.12730682e-01 6.07137084e-01 6.01511419e-01 5.96014917e-01 5.91143489e-01 5.87596834e-01 5.86178839e-01 5.87175608e-01 5.88545263e-01 5.84800124e-01 5.76025307e-01 5.48507571e-01 3.71373773e-01 1.42748043e-01 4.66247573e-02 4.24406603e-02 6.72745034e-02 7.33245090e-02 1.55146986e-01 3.59022081e-01 4.53504205e-01 5.19724190e-01 5.60987830e-01 5.83793342e-01 5.96563220e-01 6.03846431e-01 6.08012676e-01 6.10465229e-01 6.12058818e-01 6.13293469e-01 6.14429414e-01 6.15606427e-01 6.16901815e-01 6.18378758e-01 6.20243549e-01 6.22826278e-01 6.26575589e-01 6.32004201e-01 6.39436603e-01 6.47755444e-01 6.48569524e-01 6.21868551e-01 5.07358491e-01 2.83707082e-01 1.15898468e-01 6.63129613e-02 6.79737702e-02 4.20910791e-02 4.89725024e-02 1.75537929e-01 3.63805771e-01 4.19917911e-01 4.63933229e-01 5.00531912e-01 5.26972532e-01 5.45350611e-01 5.58462381e-01 5.68299890e-01 5.76210082e-01 5.83119869e-01 5.89664936e-01 5.96271574e-01 6.03231966e-01 6.10771775e-01 6.19090915e-01 6.28435671e-01 6.39103651e-01 6.51409566e-01 6.65550709e-01 6.81395233e-01 6.98190391e-01 7.11438298e-01 7.05852866e-01 6.39970481e-01 3.99381906e-01 1.85491398e-01 1.39822334e-01 1.83294535e-01 3.21772099e-02 3.70127633e-02 2.80197322e-01 3.85610849e-01 4.17392582e-01 4.42543745e-01 4.67017740e-01 4.88671869e-01 5.06196916e-01 5.20182490e-01 5.31682491e-01 5.41647434e-01 5.50849736e-01 5.59908569e-01 5.69322944e-01 5.79503298e-01 5.90797305e-01 6.03512406e-01 6.17954969e-01 6.34450316e-01 6.53286517e-01 6.74537778e-01 6.97846591e-01 7.22620308e-01 7.47795582e-01 7.66291797e-01 7.78676331e-01 7.94483542e-01 7.63735294e-01 7.03265727e-01 4.80537355e-01 2.70118807e-02 3.00478730e-02 3.65705520e-01 4.04520124e-01 4.21184301e-01 4.35749620e-01 4.50982928e-01 4.66031849e-01 4.79823172e-01 4.91988748e-01 5.02725780e-01 5.12457490e-01 5.21669865e-01 5.30855775e-01 5.40496945e-01 5.51057518e-01 5.62971234e-01 5.76626003e-01 5.92378974e-01 6.10568702e-01 6.31458044e-01 6.55040205e-01 6.80796325e-01 7.08045900e-01 7.37127900e-01 7.65723169e-01 8.09128046e-01 8.69848847e-01 9.01478827e-01 9.17303860e-01 8.49387050e-01 2.37078499e-02 2.57349685e-02 3.97610694e-01 4.14577842e-01 4.23186392e-01 4.32823002e-01 4.42751825e-01 4.52792823e-01 4.62752670e-01 4.72351849e-01 4.81413186e-01 4.89943534e-01 4.98113155e-01 5.06211698e-01 5.14608681e-01 5.23721993e-01 5.33982515e-01 5.45792937e-01 5.59504509e-01 5.75398743e-01 5.93604028e-01 6.13846481e-01 6.35072470e-01 6.55627668e-01 6.74100578e-01 6.88243389e-01 7.29027092e-01 7.71615386e-01 6.96436346e-01 6.73201382e-01 7.60975599e-01 2.12619752e-02 2.27862280e-02 4.12630379e-01 4.21316206e-01 4.24017698e-01 4.30243582e-01 4.37046528e-01 4.44036722e-01 4.51275706e-01 4.58687097e-01 4.66057807e-01 4.73202944e-01 4.80066746e-01 4.86741006e-01 4.93441343e-01 5.00470817e-01 5.08177876e-01 5.16908288e-01 5.26963711e-01 5.38556278e-01 5.51682234e-01 5.65741003e-01 5.78771234e-01 5.86847603e-01 5.83899856e-01 5.63704550e-01 5.54683268e-01 4.92118210e-01 2.81835705e-01 2.63897151e-01 3.85632157e-01 1.93195939e-02 2.05279309e-02 4.21740890e-01 4.26708132e-01 4.24940437e-01 4.27928895e-01 4.32416856e-01 4.37491596e-01 4.43023294e-01 4.48910654e-01 4.54937130e-01 4.60856616e-01 4.66498345e-01 4.71817106e-01 4.76892292e-01 4.81900722e-01 4.87079293e-01 4.92685437e-01 4.98966157e-01 5.06130338e-01 5.14254868e-01 5.22908509e-01 5.30193686e-01 5.31621099e-01 5.20195484e-01 4.92198974e-01 4.46068019e-01 2.45391205e-01 1.54813007e-01 1.75599501e-01 3.17722201e-01 1.77326947e-02 1.87302977e-02 4.27615464e-01 4.30353791e-01 4.25675482e-01 4.26132590e-01 4.28783596e-01 4.32500362e-01 4.36906248e-01 4.41757679e-01 4.46782351e-01 4.51703846e-01 4.56304401e-01 4.60464835e-01 4.64170426e-01 4.67493087e-01 4.70562994e-01 4.73540455e-01 4.76601601e-01 4.79943603e-01 4.83758509e-01 4.87955928e-01 4.91140902e-01 4.88776773e-01 4.72617596e-01 4.36952114e-01 3.60400766e-01 1.25165999e-01 1.02126896e-01 1.35930568e-01 3.11719567e-01 1.63593963e-02 1.72586981e-02 4.31215346e-01 4.32200551e-01 4.25883114e-01 4.24770862e-01 4.26174283e-01 4.28922087e-01 4.32502031e-01 4.36559200e-01 4.40769792e-01 4.44844455e-01 4.48555559e-01 4.51754361e-01 4.54371035e-01 4.56401736e-01 4.57888484e-01 4.58899111e-01 4.59521770e-01 4.59887922e-01 4.60201502e-01 4.60595787e-01 4.60263401e-01 4.55225527e-01 4.36789632e-01 3.98679376e-01 3.27702492e-01 7.82114044e-02 7.70091042e-02 1.29962906e-01 3.69684547e-01 1.50461495e-02 1.59786083e-02 4.32844937e-01 4.32411432e-01 4.25553352e-01 4.23836529e-01 4.24601495e-01 4.26698774e-01 4.29595709e-01 4.32918161e-01 4.36348110e-01 4.39619213e-01 4.42523152e-01 4.44909036e-01 4.46677417e-01 4.47770864e-01 4.48161453e-01 4.47838366e-01 4.46805418e-01 4.45109218e-01 4.42905694e-01 4.40468669e-01 4.37709510e-01 4.32310939e-01 4.17577446e-01 3.89373541e-01 3.47271204e-01 6.02315292e-02 5.56688048e-02 1.27219811e-01 4.45317924e-01 1.35741765e-02 1.47784967e-02 4.32346791e-01 4.31494117e-01 4.25015628e-01 4.23506528e-01 4.24090087e-01 4.25715238e-01 4.27942842e-01 4.30476755e-01 4.33070332e-01 4.35518116e-01 4.37651485e-01 4.39330161e-01 4.40434396e-01 4.40860003e-01 4.40515071e-01 4.39316928e-01 4.37196016e-01 4.34127659e-01 4.30224538e-01 4.25878972e-01 4.21727300e-01 4.17679995e-01 4.10728395e-01 3.97925794e-01 3.77005488e-01 6.41698167e-02 3.88105512e-02 1.07600182e-01 4.86671865e-01 1.14862202e-02 1.37351481e-02 4.33078766e-01 4.30256486e-01 4.24929768e-01 4.24048066e-01 4.24563348e-01 4.25672948e-01 4.27136660e-01 4.28795248e-01 4.30503964e-01 4.32129800e-01 4.33544964e-01 4.34616059e-01 4.35196579e-01 4.35125768e-01 4.34233934e-01 4.32353050e-01 4.29335952e-01 4.25102234e-01 4.19752896e-01 4.13806587e-01 4.08522695e-01 4.06006426e-01 4.08019930e-01 4.13819879e-01 4.06703800e-01 1.11611597e-01 3.12346797e-02 5.55903316e-02 4.94918615e-01 1.14426659e-02 1.16900057e-02 4.42086220e-01 4.30160433e-01 4.26245421e-01 4.25599039e-01 4.25647706e-01 4.26021278e-01 4.26654518e-01 4.27476496e-01 4.28405881e-01 4.29354429e-01 4.30213630e-01 4.30837482e-01 4.31030214e-01 4.30544376e-01 4.29091841e-01 4.26370174e-01 4.22110617e-01 4.16161627e-01 4.08640265e-01 4.00211692e-01 3.92558217e-01 3.89132917e-01 3.96980971e-01 4.17899877e-01 4.04806852e-01 2.50900835e-01 3.28157060e-02 2.83808894e-02 4.72243965e-01 3.53860669e-02 1.93001032e-02 5.43143213e-01 5.12277365e-01 5.10511160e-01 5.08938015e-01 5.08040190e-01 5.07723689e-01 5.07761061e-01 5.08003235e-01 5.08364677e-01 5.08785963e-01 5.09202838e-01 5.09523690e-01 5.09615421e-01 5.09296715e-01 5.08338153e-01 5.06469369e-01 5.03392935e-01 4.98810977e-01 4.92475241e-01 4.84302133e-01 4.74665344e-01 4.65180725e-01 4.62082118e-01 4.76731867e-01 4.84606296e-01 3.79680425e-01 1.20256014e-01 3.91537100e-02 9.19694155e-02 
