# vtk DataFile Version 2.0
results_case1_non_linear/iter2.vtk, Created by Freefem++ 
ASCII
DATASET UNSTRUCTURED_GRID
POINTS 961 float
0 0 0
0.033333333 0 0
0.066666667 0 0
0.1 0 0
0.13333333 0 0
0.16666667 0 0
0.2 0 0
0.23333333 0 0
0.26666667 0 0
0.3 0 0
0.33333333 0 0
0.36666667 0 0
0.4 0 0
0.43333333 0 0
0.46666667 0 0
0.5 0 0
0.53333333 0 0
0.56666667 0 0
0.6 0 0
0.63333333 0 0
0.66666667 0 0
0.7 0 0
0.73333333 0 0
0.76666667 0 0
0.8 0 0
0.83333333 0 0
0.86666667 0 0
0.9 0 0
0.93333333 0 0
0.96666667 0 0
1 0 0
0 0.033333333 0
0.033333333 0.033333333 0
0.066666667 0.033333333 0
0.1 0.033333333 0
0.13333333 0.033333333 0
0.16666667 0.033333333 0
0.2 0.033333333 0
0.23333333 0.033333333 0
0.26666667 0.033333333 0
0.3 0.033333333 0
0.33333333 0.033333333 0
0.36666667 0.033333333 0
0.4 0.033333333 0
0.43333333 0.033333333 0
0.46666667 0.033333333 0
0.5 0.033333333 0
0.53333333 0.033333333 0
0.56666667 0.033333333 0
0.6 0.033333333 0
0.63333333 0.033333333 0
0.66666667 0.033333333 0
0.7 0.033333333 0
0.73333333 0.033333333 0
0.76666667 0.033333333 0
0.8 0.033333333 0
0.83333333 0.033333333 0
0.86666667 0.033333333 0
0.9 0.033333333 0
0.93333333 0.033333333 0
0.96666667 0.033333333 0
1 0.033333333 0
0 0.066666667 0
0.033333333 0.066666667 0
0.066666667 0.066666667 0
0.1 0.066666667 0
0.13333333 0.066666667 0
0.16666667 0.066666667 0
0.2 0.066666667 0
0.23333333 0.066666667 0
0.26666667 0.066666667 0
0.3 0.066666667 0
0.33333333 0.066666667 0
0.36666667 0.066666667 0
0.4 0.066666667 0
0.43333333 0.066666667 0
0.46666667 0.066666667 0
0.5 0.066666667 0
0.53333333 0.066666667 0
0.56666667 0.066666667 0
0.6 0.066666667 0
0.63333333 0.066666667 0
0.66666667 0.066666667 0
0.7 0.066666667 0
0.73333333 0.066666667 0
0.76666667 0.066666667 0
0.8 0.066666667 0
0.83333333 0.066666667 0
0.86666667 0.066666667 0
0.9 0.066666667 0
0.93333333 0.066666667 0
0.96666667 0.066666667 0
1 0.066666667 0
0 0.1 0
0.033333333 0.1 0
0.066666667 0.1 0
0.1 0.1 0
0.13333333 0.1 0
0.16666667 0.1 0
0.2 0.1 0
0.23333333 0.1 0
0.26666667 0.1 0
0.3 0.1 0
0.33333333 0.1 0
0.36666667 0.1 0
0.4 0.1 0
0.43333333 0.1 0
0.46666667 0.1 0
0.5 0.1 0
0.53333333 0.1 0
0.56666667 0.1 0
0.6 0.1 0
0.63333333 0.1 0
0.66666667 0.1 0
0.7 0.1 0
0.73333333 0.1 0
0.76666667 0.1 0
0.8 0.1 0
0.83333333 0.1 0
0.86666667 0.1 0
0.9 0.1 0
0.93333333 0.1 0
0.96666667 0.1 0
1 0.1 0
0 0.13333333 0
0.033333333 0.13333333 0
0.066666667 0.13333333 0
0.1 0.13333333 0
0.13333333 0.13333333 0
0.16666667 0.13333333 0
0.2 0.13333333 0
0.23333333 0.13333333 0
0.26666667 0.13333333 0
0.3 0.13333333 0
0.33333333 0.13333333 0
0.36666667 0.13333333 0
0.4 0.13333333 0
0.43333333 0.13333333 0
0.46666667 0.13333333 0
0.5 0.13333333 0
0.53333333 0.13333333 0
0.56666667 0.13333333 0
0.6 0.13333333 0
0.63333333 0.13333333 0
0.66666667 0.13333333 0
0.7 0.13333333 0
0.73333333 0.13333333 0
0.76666667 0.13333333 0
0.8 0.13333333 0
0.83333333 0.13333333 0
0.86666667 0.13333333 0
0.9 0.13333333 0
0.93333333 0.13333333 0
0.96666667 0.13333333 0
1 0.13333333 0
0 0.16666667 0
0.033333333 0.16666667 0
0.066666667 0.16666667 0
0.1 0.16666667 0
0.13333333 0.16666667 0
0.16666667 0.16666667 0
0.2 0.16666667 0
0.23333333 0.16666667 0
0.26666667 0.16666667 0
0.3 0.16666667 0
0.33333333 0.16666667 0
0.36666667 0.16666667 0
0.4 0.16666667 0
0.43333333 0.16666667 0
0.46666667 0.16666667 0
0.5 0.16666667 0
0.53333333 0.16666667 0
0.56666667 0.16666667 0
0.6 0.16666667 0
0.63333333 0.16666667 0
0.66666667 0.16666667 0
0.7 0.16666667 0
0.73333333 0.16666667 0
0.76666667 0.16666667 0
0.8 0.16666667 0
0.83333333 0.16666667 0
0.86666667 0.16666667 0
0.9 0.16666667 0
0.93333333 0.16666667 0
0.96666667 0.16666667 0
1 0.16666667 0
0 0.2 0
0.033333333 0.2 0
0.066666667 0.2 0
0.1 0.2 0
0.13333333 0.2 0
0.16666667 0.2 0
0.2 0.2 0
0.23333333 0.2 0
0.26666667 0.2 0
0.3 0.2 0
0.33333333 0.2 0
0.36666667 0.2 0
0.4 0.2 0
0.43333333 0.2 0
0.46666667 0.2 0
0.5 0.2 0
0.53333333 0.2 0
0.56666667 0.2 0
0.6 0.2 0
0.63333333 0.2 0
0.66666667 0.2 0
0.7 0.2 0
0.73333333 0.2 0
0.76666667 0.2 0
0.8 0.2 0
0.83333333 0.2 0
0.86666667 0.2 0
0.9 0.2 0
0.93333333 0.2 0
0.96666667 0.2 0
1 0.2 0
0 0.23333333 0
0.033333333 0.23333333 0
0.066666667 0.23333333 0
0.1 0.23333333 0
0.13333333 0.23333333 0
0.16666667 0.23333333 0
0.2 0.23333333 0
0.23333333 0.23333333 0
0.26666667 0.23333333 0
0.3 0.23333333 0
0.33333333 0.23333333 0
0.36666667 0.23333333 0
0.4 0.23333333 0
0.43333333 0.23333333 0
0.46666667 0.23333333 0
0.5 0.23333333 0
0.53333333 0.23333333 0
0.56666667 0.23333333 0
0.6 0.23333333 0
0.63333333 0.23333333 0
0.66666667 0.23333333 0
0.7 0.23333333 0
0.73333333 0.23333333 0
0.76666667 0.23333333 0
0.8 0.23333333 0
0.83333333 0.23333333 0
0.86666667 0.23333333 0
0.9 0.23333333 0
0.93333333 0.23333333 0
0.96666667 0.23333333 0
1 0.23333333 0
0 0.26666667 0
0.033333333 0.26666667 0
0.066666667 0.26666667 0
0.1 0.26666667 0
0.13333333 0.26666667 0
0.16666667 0.26666667 0
0.2 0.26666667 0
0.23333333 0.26666667 0
0.26666667 0.26666667 0
0.3 0.26666667 0
0.33333333 0.26666667 0
0.36666667 0.26666667 0
0.4 0.26666667 0
0.43333333 0.26666667 0
0.46666667 0.26666667 0
0.5 0.26666667 0
0.53333333 0.26666667 0
0.56666667 0.26666667 0
0.6 0.26666667 0
0.63333333 0.26666667 0
0.66666667 0.26666667 0
0.7 0.26666667 0
0.73333333 0.26666667 0
0.76666667 0.26666667 0
0.8 0.26666667 0
0.83333333 0.26666667 0
0.86666667 0.26666667 0
0.9 0.26666667 0
0.93333333 0.26666667 0
0.96666667 0.26666667 0
1 0.26666667 0
0 0.3 0
0.033333333 0.3 0
0.066666667 0.3 0
0.1 0.3 0
0.13333333 0.3 0
0.16666667 0.3 0
0.2 0.3 0
0.23333333 0.3 0
0.26666667 0.3 0
0.3 0.3 0
0.33333333 0.3 0
0.36666667 0.3 0
0.4 0.3 0
0.43333333 0.3 0
0.46666667 0.3 0
0.5 0.3 0
0.53333333 0.3 0
0.56666667 0.3 0
0.6 0.3 0
0.63333333 0.3 0
0.66666667 0.3 0
0.7 0.3 0
0.73333333 0.3 0
0.76666667 0.3 0
0.8 0.3 0
0.83333333 0.3 0
0.86666667 0.3 0
0.9 0.3 0
0.93333333 0.3 0
0.96666667 0.3 0
1 0.3 0
0 0.33333333 0
0.033333333 0.33333333 0
0.066666667 0.33333333 0
0.1 0.33333333 0
0.13333333 0.33333333 0
0.16666667 0.33333333 0
0.2 0.33333333 0
0.23333333 0.33333333 0
0.26666667 0.33333333 0
0.3 0.33333333 0
0.33333333 0.33333333 0
0.36666667 0.33333333 0
0.4 0.33333333 0
0.43333333 0.33333333 0
0.46666667 0.33333333 0
0.5 0.33333333 0
0.53333333 0.33333333 0
0.56666667 0.33333333 0
0.6 0.33333333 0
0.63333333 0.33333333 0
0.66666667 0.33333333 0
0.7 0.33333333 0
0.73333333 0.33333333 0
0.76666667 0.33333333 0
0.8 0.33333333 0
0.83333333 0.33333333 0
0.86666667 0.33333333 0
0.9 0.33333333 0
0.93333333 0.33333333 0
0.96666667 0.33333333 0
1 0.33333333 0
0 0.36666667 0
0.033333333 0.36666667 0
0.066666667 0.36666667 0
0.1 0.36666667 0
0.13333333 0.36666667 0
0.16666667 0.36666667 0
0.2 0.36666667 0
0.23333333 0.36666667 0
0.26666667 0.36666667 0
0.3 0.36666667 0
0.33333333 0.36666667 0
0.36666667 0.36666667 0
0.4 0.36666667 0
0.43333333 0.36666667 0
0.46666667 0.36666667 0
0.5 0.36666667 0
0.53333333 0.36666667 0
0.56666667 0.36666667 0
0.6 0.36666667 0
0.63333333 0.36666667 0
0.66666667 0.36666667 0
0.7 0.36666667 0
0.73333333 0.36666667 0
0.76666667 0.36666667 0
0.8 0.36666667 0
0.83333333 0.36666667 0
0.86666667 0.36666667 0
0.9 0.36666667 0
0.93333333 0.36666667 0
0.96666667 0.36666667 0
1 0.36666667 0
0 0.4 0
0.033333333 0.4 0
0.066666667 0.4 0
0.1 0.4 0
0.13333333 0.4 0
0.16666667 0.4 0
0.2 0.4 0
0.23333333 0.4 0
0.26666667 0.4 0
0.3 0.4 0
0.33333333 0.4 0
0.36666667 0.4 0
0.4 0.4 0
0.43333333 0.4 0
0.46666667 0.4 0
0.5 0.4 0
0.53333333 0.4 0
0.56666667 0.4 0
0.6 0.4 0
0.63333333 0.4 0
0.66666667 0.4 0
0.7 0.4 0
0.73333333 0.4 0
0.76666667 0.4 0
0.8 0.4 0
0.83333333 0.4 0
0.86666667 0.4 0
0.9 0.4 0
0.93333333 0.4 0
0.96666667 0.4 0
1 0.4 0
0 0.43333333 0
0.033333333 0.43333333 0
0.066666667 0.43333333 0
0.1 0.43333333 0
0.13333333 0.43333333 0
0.16666667 0.43333333 0
0.2 0.43333333 0
0.23333333 0.43333333 0
0.26666667 0.43333333 0
0.3 0.43333333 0
0.33333333 0.43333333 0
0.36666667 0.43333333 0
0.4 0.43333333 0
0.43333333 0.43333333 0
0.46666667 0.43333333 0
0.5 0.43333333 0
0.53333333 0.43333333 0
0.56666667 0.43333333 0
0.6 0.43333333 0
0.63333333 0.43333333 0
0.66666667 0.43333333 0
0.7 0.43333333 0
0.73333333 0.43333333 0
0.76666667 0.43333333 0
0.8 0.43333333 0
0.83333333 0.43333333 0
0.86666667 0.43333333 0
0.9 0.43333333 0
0.93333333 0.43333333 0
0.96666667 0.43333333 0
1 0.43333333 0
0 0.46666667 0
0.033333333 0.46666667 0
0.066666667 0.46666667 0
0.1 0.46666667 0
0.13333333 0.46666667 0
0.16666667 0.46666667 0
0.2 0.46666667 0
0.23333333 0.46666667 0
0.26666667 0.46666667 0
0.3 0.46666667 0
0.33333333 0.46666667 0
0.36666667 0.46666667 0
0.4 0.46666667 0
0.43333333 0.46666667 0
0.46666667 0.46666667 0
0.5 0.46666667 0
0.53333333 0.46666667 0
0.56666667 0.46666667 0
0.6 0.46666667 0
0.63333333 0.46666667 0
0.66666667 0.46666667 0
0.7 0.46666667 0
0.73333333 0.46666667 0
0.76666667 0.46666667 0
0.8 0.46666667 0
0.83333333 0.46666667 0
0.86666667 0.46666667 0
0.9 0.46666667 0
0.93333333 0.46666667 0
0.96666667 0.46666667 0
1 0.46666667 0
0 0.5 0
0.033333333 0.5 0
0.066666667 0.5 0
0.1 0.5 0
0.13333333 0.5 0
0.16666667 0.5 0
0.2 0.5 0
0.23333333 0.5 0
0.26666667 0.5 0
0.3 0.5 0
0.33333333 0.5 0
0.36666667 0.5 0
0.4 0.5 0
0.43333333 0.5 0
0.46666667 0.5 0
0.5 0.5 0
0.53333333 0.5 0
0.56666667 0.5 0
0.6 0.5 0
0.63333333 0.5 0
0.66666667 0.5 0
0.7 0.5 0
0.73333333 0.5 0
0.76666667 0.5 0
0.8 0.5 0
0.83333333 0.5 0
0.86666667 0.5 0
0.9 0.5 0
0.93333333 0.5 0
0.96666667 0.5 0
1 0.5 0
0 0.53333333 0
0.033333333 0.53333333 0
0.066666667 0.53333333 0
0.1 0.53333333 0
0.13333333 0.53333333 0
0.16666667 0.53333333 0
0.2 0.53333333 0
0.23333333 0.53333333 0
0.26666667 0.53333333 0
0.3 0.53333333 0
0.33333333 0.53333333 0
0.36666667 0.53333333 0
0.4 0.53333333 0
0.43333333 0.53333333 0
0.46666667 0.53333333 0
0.5 0.53333333 0
0.53333333 0.53333333 0
0.56666667 0.53333333 0
0.6 0.53333333 0
0.63333333 0.53333333 0
0.66666667 0.53333333 0
0.7 0.53333333 0
0.73333333 0.53333333 0
0.76666667 0.53333333 0
[...]
CELL_DATA 1920
Scalars  Label int 1
LOOKUP_TABLE FreeFempp_table
0
0
0
0
0
0
0
0
0
0
0
0
0
0
0
0
0
0
0
0
0
0
0
0
0
0
0
0
0
0
0
0
0
0
0
0
0
0
0
0
0
0
0
0
0
0
0
0
0
0
0
0
0
0
0
0
0
0
0
0
0
0
0
0
0
0
0
0
0
0
0
0
0
0
0
0
0
0
0
0
0
0
0
0
0
0
0
0
0
0
0
0
0
0
0
0
0
0
0
0
0
0
0
0
0
0
0
0
0
0
0
0
0
0
0
0
0
0
0
0
0
0
0
0
0
0
0
0
0
0
0
0
0
0
0
0
0
0
0
0
0
0
0
0
0
0
0
0
0
0
0
0
0
0
0
0
0
0
0
0
0
0
0
0
0
0
0
0
0
0
0
0
0
0
0
0
0
0
0
0
0
0
0
0
0
0
0
0
0
0
0
0
0
0
0
0
0
0
0
0
0
0
0
0
0
0
0
0
0
0
0
0
0
0
0
0
0
0
0
0
0
0
0
0
0
0
0
0
0
0
0
0
0
0
0
0
0
0
0
0
0
0
0
0
0
0
0
0
0
0
0
0
0
0
0
0
0
0
0
0
0
0
0
0
0
0
0
0
0
0
0
0
0
0
0
0
0
0
0
0
0
0
0
0
0
0
0
0
0
0
0
0
0
0
0
0
0
0
0
0
0
0
0
0
0
0
0
0
0
0
0
0
0
0
0
0
0
0
0
0
0
0
0
0
0
0
0
0
0
0
0
0
0
0
0
0
0
0
0
0
0
0
0
0
0
0
0
0
0
0
0
0
0
0
0
0
0
0
0
0
0
0
0
0
0
0
0
0
0
0
0
0
0
0
0
0
0
0
0
0
0
0
0
0
0
0
0
0
0
0
0
0
0
0
0
0
0
0
0
0
0
0
0
0
0
0
0
0
0
0
0
0
0
0
0
0
0
0
0
0
0
0
0
0
0
0
0
0
0
0
0
0
0
0
0
0
0
0
0
0
0
0
0
0
0
0
0
0
0
0
0
0
0
0
0
0
0
0
0
0
0
0
0
0
0
0
0
0
0
0
0
0
0
0
0
0
0
0
0
0
0
0
0
0
0
0
0
0
0
0
0
0
0
0
0
0
0
0
0
0
0
0
0
0
0
0
0
0
0
0
0
0
0
0
0
0
0
0
0
0
0
0
0
0
0
0
0
0
0
0
0
0
0
0
0
0
0
0
0
0
0
0
0
0
0
0
0
0
0
0
0
0
0
0
0
0
0
0
0
0
0
0
0
0
0
0
0
0
0
0
0
0
0
0
0
0
0
0
0
0
0
0
0
0
0
0
0
0
0
0
0
0
0
0
0
0
0
0
0
0
0
0
0
0
0
0
0
0
0
0
0
0
0
0
0
0
0
0
0
0
0
0
0
0
0
0
0
0
0
0
0
0
0
0
0
0
0
0
0
0
0
0
0
0
0
0
0
0
0
0
0
0
0
0
0
0
0
0
0
0
0
0
0
0
0
0
0
0
0
0
0
0
0
0
0
0
0
0
0
0
0
0
0
0
0
0
0
0
0
0
0
0
0
0
0
0
0
0
0
0
0
0
0
0
0
0
0
0
0
0
0
0
0
0
0
0
0
0
0
0
0
0
0
0
0
0
0
0
0
0
0
0
0
0
0
0
0
0
0
0
0
0
0
0
0
0
0
0
0
0
0
0
0
0
0
0
0
0
0
0
0
0
0
0
0
0
0
0
0
0
0
0
0
0
0
0
0
0
0
0
0
0
0
0
0
0
0
0
0
0
0
0
0
0
0
0
0
0
0
0
0
0
0
0
0
0
0
0
0
0
0
0
0
0
0
0
0
0
0
0
0
0
0
0
0
0
0
0
0
0
0
0
0
0
0
0
0
0
0
0
0
0
0
0
0
0
0
0
0
0
0
0
0
0
0
0
0
0
0
0
0
0
0
0
0
0
0
0
0
0
0
0
0
0
0
0
0
0
0
0
0
0
0
0
0
0
0
0
0
0
0
0
0
0
0
0
0
0
0
0
0
0
0
0
0
0
0
0
0
0
0
0
0
0
0
0
0
0
0
0
0
0
0
0
0
0
0
0
0
0
0
0
0
0
0
0
0
0
0
0
0
0
0
0
0
0
0
0
0
0
0
0
0
0
0
0
0
0
0
0
0
0
0
0
0
0
0
0
0
0
0
0
0
0
0
0
0
0
0
0
0
0
0
0
0
0
0
0
0
0
0
0
0
0
0
0
0
0
0
0
0
0
0
0
0
0
0
0
0
0
0
0
0
0
0
0
0
0
0
0
0
0
0
0
0
0
0
0
0
0
0
0
0
0
0
0
0
0
0
0
0
0
0
0
0
0
0
0
0
0
0
0
0
0
0
0
0
0
0
0
0
0
0
0
0
0
0
0
0
0
0
0
0
0
0
0
0
0
0
0
0
0
0
0
0
0
0
0
0
0
0
0
0
0
0
0
0
0
0
0
0
0
0
0
0
0
0
0
0
0
0
0
0
0
0
0
0
0
0
0
0
0
0
0
0
0
0
0
0
0
0
0
0
0
0
0
0
0
0
0
0
0
0
0
0
0
0
0
0
0
0
0
0
0
0
0
0
0
0
0
0
0
0
0
0
0
0
0
0
0
0
0
0
0
0
0
0
0
0
0
0
0
0
0
0
0
0
0
0
0
0
0
0
0
0
0
0
0
0
0
0
0
0
0
0
0
0
0
0
0
0
0
0
0
0
0
0
0
0
0
0
0
0
0
0
0
0
0
0
0
0
0
0
0
0
0
0
0
0
0
0
0
0
0
0
0
0
0
0
0
0
0
0
0
0
0
0
0
0
0
0
0
0
0
0
0
0
0
0
0
0
0
0
0
0
0
0
0
0
0
0
0
0
0
0
0
0
0
0
0
0
0
0
0
0
0
0
0
0
0
0
0
0
0
0
0
0
0
0
0
0
0
0
0
0
0
0
0
0
0
0
0
0
0
0
0
0
0
0
0
0
0
0
0
0
0
0
0
0
0
0
0
0
0
0
0
0
0
0
0
0
0
0
0
0
0
0
0
0
0
0
0
0
0
0
0
0
0
0
0
0
0
0
0
0
0
0
0
0
0
0
0
0
0
0
0
0
0
0
0
0
0
0
0
0
0
0
0
0
0
0
0
0
0
0
0
0
0
0
0
0
0
0
0
0
0
0
0
0
0
0
0
0
0
0
0
0
0
0
0
0
0
0
0
0
0
0
0
0
0
0
0
0
0
0
0
0
0
0
0
0
0
0
0
0
0
0
0
0
0
0
0
0
0
0
0
0
0
0
0
0
0
0
0
0
0
0
0
0
0
0
0
0
0
0
0
0
0
0
0
0
0
0
0
0
0
0
0
0
0
0
0
0
0
0
0
0
0
0
0
0
0
0
0
0
0
0
0
0
0
0
0
0
0
0
0
0
0
0
0
0
0
0
0
0
0
0
0
0
0
0
0
0
0
0
0
0
0
0
0
0
0
0
0
0
0
0
0
0
0
0
0
0
0
0
0
0
0
0
0
0
0
0
0
0
0
0
0
0
0
0
0
0
0
0
0
0
0
0
0
0
0
0
0
0
0
0
0
0
0
0
0
0
0
0
0
0
0
0
0
0
0
0
0
0
0
0
0
0
0
0
0
0
0
0
0
0
0
0
0
0
0
0
0
0
0
0
0
0
0
0
0
0
0
0
0
0
0
0
0
0
0
0
0
0
0
0
0
0
0
0
0
0
0
0
0
0
0
0
0
0
0
0
0
0
0
0
0
0
0
0
0
0
0
0
0
0
0
0
0
0
0
0
0
0
0
0
0
0
0
0
0
0
0
0
0
0
0
0
0
0
0
0
0
0
0
0
0
0
0
0
0
0
0
0
0
0
0
0
0
0
0
0
0
0
0
0
0
0
0
0
0
0
0
0
0
0
0
0
0
0
0
0
0
0
0
0
0
0
0
0
0
0
0
0
0
0
0
0
0
0
0
0
0
0
0
0
0
0
0
0
0
0
0
0
0
0
0
0
0
0
0
0
0
0
0
0
0
0
0
1
1
1
1
1
1
1
1
1
1
1
1
1
1
1
1
1
1
1
1
1
1
1
1
1
1
1
1
1
1
2
2
2
2
2
2
2
2
2
2
2
2
2
2
2
2
2
2
2
2
2
2
2
2
2
2
2
2
2
2
3
3
3
3
3
3
3
3
3
3
3
3
3
3
3
3
3
3
3
3
3
3
3
3
3
3
3
3
3
3
4
4
4
4
4
4
4
4
4
4
4
4
4
4
4
4
4
4
4
4
4
4
4
4
4
4
4
4
4
4

LOOKUP_TABLE FreeFempp_table 5
1.00000000 0.00000000 0.00000000 1.00000000
1.00000000 1.00000000 0.00000000 1.00000000
1.00000000 0.00000000 1.00000000 1.00000000
0.00000000 1.00000000 0.00000000 1.00000000
0.00000000 1.00000000 1.00000000 1.00000000

POINT_DATA 961
FIELD FieldData 1
Density 1 961 float
7.63685107e-02 7.75026307e-02 3.30377966e-02 1.26408637e-02 9.95437242e-03 1.04462709e-02 1.23211378e-02 1.45768486e-02 2.02650949e-02 4.77703214e-02 8.31991062e-02 2.01594368e-01 7.36471176e-01 8.97426546e-01 9.04715955e-01 8.88044655e-01 7.96348393e-01 5.82796812e-01 2.98494667e-01 1.81391716e-01 1.47845730e-01 1.67603463e-01 2.82006294e-01 4.48024601e-01 6.93711102e-01 7.92985618e-01 7.37153411e-01 4.40427661e-01 2.51921900e-02 3.00733745e-02 3.33949238e-01 2.42937766e-02 1.29624587e-02 1.35409655e-02 1.94833986e-02 2.03343686e-02 1.75682399e-02 1.74698941e-02 1.85835976e-02 1.60834249e-02 1.16154552e-02 1.25449430e-02 2.15227138e-02 4.65296321e-02 1.39703974e-01 8.20637286e-01 8.40640664e-01 7.78730094e-01 4.51537341e-01 7.94766769e-02 4.83183563e-02 4.69607785e-02 5.10194041e-02 6.12253025e-02 1.72849193e-01 6.04903102e-01 9.06024516e-01 7.91600645e-01 5.01918435e-01 2.79610604e-02 1.05320271e-02 6.30329475e-02 3.64376828e-02 1.77309960e-02 2.03500967e-02 1.95660926e-02 3.30401100e-02 5.36623411e-02 7.27836341e-02 8.52214247e-02 7.32941404e-02 3.02948486e-02 2.66077127e-02 1.22367814e-02 1.24390749e-02 1.49714975e-02 2.92138159e-02 3.03388573e-02 3.39018665e-02 3.54656950e-02 3.80935259e-02 4.10052165e-02 4.43830751e-02 6.08202778e-02 1.21863343e-01 2.75063872e-01 8.06987047e-01 8.88120592e-01 8.06177020e-01 6.52040780e-01 1.27209127e-01 1.51926037e-02 2.36886665e-02 1.04780421e-01 5.64618036e-02 7.26451278e-02 1.59397498e-01 2.23360121e-01 2.67732680e-01 3.15046638e-01 3.56212527e-01 3.82270753e-01 3.80675435e-01 3.14465076e-01 1.43747032e-01 4.38169166e-02 2.69933324e-02 1.97803061e-02 2.44278312e-02 2.37555802e-02 2.56312545e-02 2.96501648e-02 4.37823460e-02 1.31992161e-01 5.01070559e-01 6.45393670e-01 7.41890907e-01 8.36477876e-01 8.64246488e-01 8.00434530e-01 6.59931362e-01 4.30688322e-01 1.91462599e-02 1.87324919e-02 1.70855150e-01 7.55758956e-02 1.27911627e-01 2.78555185e-01 3.53664547e-01 3.93794179e-01 4.21069890e-01 4.39609021e-01 4.48990315e-01 4.47288245e-01 4.31344420e-01 3.92869860e-01 3.05226773e-01 1.73538253e-01 1.01662427e-01 6.08540550e-02 4.82997149e-02 4.70123366e-02 5.75668998e-02 9.95416418e-02 3.72695535e-01 5.93358934e-01 6.94014728e-01 7.44945526e-01 7.89751232e-01 8.12221408e-01 7.77985871e-01 6.81621432e-01 5.23214579e-01 1.98992174e-02 1.90209784e-02 2.94340014e-01 1.12796590e-01 2.39424244e-01 3.79215389e-01 4.30717468e-01 4.60824281e-01 4.79753643e-01 4.91667181e-01 4.97847855e-01 4.98065621e-01 4.92220372e-01 4.80993390e-01 4.65087891e-01 4.39345777e-01 3.88516277e-01 3.09103042e-01 2.45167613e-01 2.08843365e-01 1.92217857e-01 2.83804715e-01 4.56159681e-01 5.94753027e-01 6.85399592e-01 7.37744451e-01 7.77047932e-01 7.99841583e-01 7.81773448e-01 7.08962739e-01 5.54274082e-01 2.10829265e-02 1.99011583e-02 4.85217333e-01 1.78757891e-01 4.22737539e-01 4.73142684e-01 5.10866702e-01 5.33804417e-01 5.46622634e-01 5.53559184e-01 5.56396246e-01 5.55332959e-01 5.50423801e-01 5.42357147e-01 5.32542527e-01 5.22972584e-01 5.13129652e-01 4.97156024e-01 4.75097150e-01 4.44666028e-01 4.26780134e-01 4.57120836e-01 5.19944489e-01 6.06546283e-01 6.79488778e-01 7.29891062e-01 7.65071690e-01 7.84824371e-01 7.77242362e-01 7.26235926e-01 5.65287113e-01 2.24516746e-02 2.08669491e-02 6.82070076e-01 3.31184238e-01 6.80682480e-01 6.13319695e-01 6.31115437e-01 6.35569096e-01 6.34899676e-01 6.31013155e-01 6.24879420e-01 6.16461515e-01 6.05630040e-01 5.92697561e-01 5.78467309e-01 5.64122438e-01 5.50215185e-01 5.36026716e-01 5.22322655e-01 5.10838389e-01 5.09127617e-01 5.28259337e-01 5.70916831e-01 6.30469203e-01 6.84913754e-01 7.25900650e-01 7.54233301e-01 7.70686567e-01 7.71059752e-01 7.38074720e-01 5.70771873e-01 2.40792781e-02 2.21117903e-02 8.22406471e-01 5.58694422e-01 8.65061462e-01 7.62820244e-01 7.57469416e-01 7.39934266e-01 7.23212183e-01 7.05971956e-01 6.88341737e-01 6.70107543e-01 6.51147127e-01 6.31690264e-01 6.12313032e-01 5.93829155e-01 5.76933682e-01 5.62238574e-01 5.51455140e-01 5.47334671e-01 5.53973794e-01 5.75195134e-01 6.10610008e-01 6.53572202e-01 6.93005383e-01 7.23331690e-01 7.44154215e-01 7.57080674e-01 7.61613250e-01 7.41225064e-01 5.74477434e-01 2.60465834e-02 2.38737147e-02 8.35093558e-01 7.32949138e-01 8.84521067e-01 8.19710791e-01 8.13992620e-01 7.94001937e-01 7.73608088e-01 7.51636326e-01 7.28799045e-01 7.05564559e-01 6.82430089e-01 6.60012722e-01 6.38993859e-01 6.20091021e-01 6.04099810e-01 5.92178702e-01 5.86085379e-01 5.87527990e-01 5.97702563e-01 6.16849780e-01 6.43048406e-01 6.72274292e-01 6.99436486e-01 7.20706224e-01 7.35242307e-01 7.44556546e-01 7.48539925e-01 7.32834160e-01 5.74441612e-01 2.81970948e-02 2.64326632e-02 7.58795679e-01 6.77693844e-01 8.45053017e-01 8.00285399e-01 8.03388238e-01 7.92924762e-01 7.79079437e-01 7.61532903e-01 7.41703570e-01 7.20765889e-01 6.99841917e-01 6.79968715e-01 6.61972046e-01 6.46527231e-01 6.34459615e-01 6.27052128e-01 6.25730872e-01 6.30840480e-01 6.41159475e-01 6.54847503e-01 6.70526147e-01 6.87415838e-01 7.03957975e-01 7.17623651e-01 7.27092922e-01 7.32864916e-01 7.32892692e-01 7.11789787e-01 5.60868382e-01 2.99797151e-02 2.96002384e-02 5.21539807e-01 3.42231274e-01 6.43221378e-01 6.85550988e-01 7.31843054e-01 7.46579528e-01 7.47898400e-01 7.41409183e-01 7.30663538e-01 7.17828989e-01 7.04501092e-01 6.91880047e-01 6.80719197e-01 6.71567678e-01 6.65196955e-01 6.62934482e-01 6.65863872e-01 6.73050344e-01 6.81649148e-01 6.89145386e-01 6.95202351e-01 7.01221526e-01 7.07954526e-01 7.14276731e-01 7.18527913e-01 7.19910800e-01 7.15930462e-01 6.82433009e-01 5.16895950e-01 3.11555378e-02 3.24236043e-02 2.39746287e-01 1.56996459e-01 3.03690642e-01 5.01010537e-01 6.15120769e-01 6.69591486e-01 6.91783845e-01 6.99890733e-01 7.01320350e-01 6.99635088e-01 6.96866691e-01 6.94157779e-01 6.91951632e-01 6.90494299e-01 6.90682471e-01 6.93409324e-01 7.00192451e-01 7.09162474e-01 7.16500998e-01 7.19817221e-01 7.19277501e-01 7.16917515e-01 7.14723170e-01 7.13188827e-01 7.10869551e-01 7.04621494e-01 6.94003522e-01 6.48366272e-01 4.20746922e-01 3.26419398e-02 3.45053114e-02 1.51674613e-01 9.18671340e-02 1.33078247e-01 3.73051345e-01 5.17339647e-01 5.93861878e-01 6.31116629e-01 6.50603414e-01 6.62562847e-01 6.71314418e-01 6.78965509e-01 6.86278462e-01 6.93084776e-01 6.99223816e-01 7.05998302e-01 7.13898003e-01 7.24037707e-01 7.35677361e-01 7.44011223e-01 7.46817231e-01 7.44300544e-01 7.37883329e-01 7.29353487e-01 7.20247030e-01 7.10272610e-01 6.92701697e-01 6.59280837e-01 5.90753376e-01 2.64925301e-01 3.53255495e-02 3.69175263e-02 9.25410464e-02 6.41612411e-02 1.12829715e-01 3.37887079e-01 4.71478552e-01 5.41260660e-01 5.82063615e-01 6.06824517e-01 6.24675572e-01 6.40200317e-01 6.55485094e-01 6.70848429e-01 6.85196519e-01 6.97765768e-01 7.11020589e-01 7.21647620e-01 7.37770379e-01 7.51754344e-01 7.63374746e-01 7.69170463e-01 7.69415140e-01 7.64625311e-01 7.55320311e-01 7.42170691e-01 7.25120544e-01 6.95916653e-01 6.24581397e-01 4.92255181e-01 1.53873757e-01 3.93010192e-02 4.23769318e-02 6.28405064e-02 5.33828549e-02 1.29183501e-01 3.77463847e-01 4.66985434e-01 5.14657080e-01 5.49264252e-01 5.74086845e-01 5.93739271e-01 6.12111211e-01 6.31363571e-01 6.51748598e-01 6.71614945e-01 6.89249635e-01 7.04048753e-01 7.18361497e-01 7.38561332e-01 7.57804334e-01 7.73391247e-01 7.84421086e-01 7.90578842e-01 7.92030454e-01 7.88421690e-01 7.78984249e-01 7.61520922e-01 7.27890849e-01 6.38737202e-01 4.50229317e-01 1.29744843e-01 4.74213399e-02 5.79989962e-02 4.87039648e-02 4.54251915e-02 2.03454390e-01 4.19934541e-01 4.74112600e-01 5.04571080e-01 5.30043781e-01 5.51499724e-01 5.70291996e-01 5.88855445e-01 6.09091401e-01 6.31371915e-01 6.54200494e-01 6.75218344e-01 6.95244372e-01 7.12619960e-01 7.34986901e-01 7.53941059e-01 7.73047984e-01 7.89485216e-01 8.02547991e-01 8.11945140e-01 8.17185223e-01 8.17453325e-01 8.10363412e-01 7.88709164e-01 7.32010424e-01 5.76205909e-01 2.98759490e-01 6.48987815e-02 9.83346403e-02 4.16068658e-02 3.92638706e-02 2.89725929e-01 4.41911668e-01 4.80137408e-01 5.00679195e-01 5.18540502e-01 5.35532296e-01 5.52127659e-01 5.69477081e-01 5.88890791e-01 6.10776901e-01 6.34016275e-01 6.56495094e-01 6.77182674e-01 6.97813809e-01 7.18795657e-01 7.39751637e-01 7.61165977e-01 7.81941473e-01 8.01227808e-01 8.18160653e-01 8.31984043e-01 8.42090487e-01 8.47237706e-01 8.44086051e-01 8.25894892e-01 7.80854285e-01 7.10746527e-01 1.93035185e-01 2.68876076e-01 3.70640717e-02 3.47690620e-02 3.22252750e-01 4.58133161e-01 4.85261530e-01 4.98342156e-01 5.09857297e-01 5.22663772e-01 5.36765754e-01 5.52343786e-01 5.70032835e-01 5.90126276e-01 6.11893952e-01 6.33735716e-01 6.54359519e-01 6.74070656e-01 6.94169998e-01 7.14751780e-01 7.36740232e-01 7.60020554e-01 7.83823371e-01 8.06965947e-01 8.28232050e-01 8.46659243e-01 8.61139774e-01 8.69954765e-01 8.71679246e-01 8.61380339e-01 8.77731979e-01 6.96428955e-01 7.20827818e-01 3.41966972e-02 3.18268314e-02 3.30017626e-01 4.77542937e-01 4.92274553e-01 4.96033907e-01 5.01562119e-01 5.10731757e-01 5.22556603e-01 5.36315024e-01 5.52003324e-01 5.69685817e-01 5.88872910e-01 6.08444154e-01 6.27292037e-01 6.45190895e-01 6.62885427e-01 6.81358278e-01 7.01710641e-01 7.24562168e-01 7.49612629e-01 7.75918484e-01 8.02259505e-01 8.27348828e-01 8.49490941e-01 8.66622925e-01 8.78315568e-01 8.77845943e-01 9.13588047e-01 8.57453048e-01 9.02825475e-01 3.21372002e-02 3.01637277e-02 3.41628224e-01 4.98762220e-01 5.00911117e-01 4.93582398e-01 4.93017703e-01 4.98950154e-01 5.08815467e-01 5.20951152e-01 5.34784853e-01 5.50114751e-01 5.66536307e-01 5.83275497e-01 5.99495053e-01 6.14842296e-01 6.29693866e-01 6.44913554e-01 6.61613047e-01 6.80631459e-01 7.02178776e-01 7.25920737e-01 7.51211762e-01 7.77143419e-01 8.01748514e-01 8.21065485e-01 8.31624210e-01 8.25917065e-01 9.03462231e-01 4.84546244e-01 9.14874554e-01 2.98184343e-02 2.88979951e-02 3.64731312e-01 5.18828392e-01 5.09033501e-01 4.90551054e-01 4.84078377e-01 4.87179548e-01 4.95433807e-01 5.06238282e-01 5.18555403e-01 5.31959116e-01 5.46044171e-01 5.60231745e-01 5.73894203e-01 5.86660147e-01 5.98618746e-01 6.10262334e-01 6.22307301e-01 6.35372698e-01 6.49709582e-01 6.65180147e-01 6.81352317e-01 6.97441578e-01 7.11084843e-01 7.14604378e-01 6.91242337e-01 6.23233497e-01 5.91867149e-01 2.38716274e-01 6.37364089e-01 2.73039863e-02 2.73095500e-02 3.96969140e-01 5.35244465e-01 5.13867974e-01 4.85653281e-01 4.74340260e-01 4.75360394e-01 4.82482910e-01 4.92285043e-01 5.03418803e-01 5.15334427e-01 5.27619421e-01 5.39790571e-01 5.51332593e-01 5.61856568e-01 5.71230531e-01 5.79576492e-01 5.87163508e-01 5.94214678e-01 6.00723505e-01 6.06384635e-01 6.10623538e-01 6.12562895e-01 6.09923899e-01 5.94859362e-01 5.50148487e-01 4.69444096e-01 3.59424889e-01 1.67649314e-01 3.78260791e-01 2.50829440e-02 2.54625846e-02 4.29424345e-01 5.43877482e-01 5.12064695e-01 4.77295190e-01 4.63304877e-01 4.63466734e-01 4.70088243e-01 4.79199171e-01 4.89356279e-01 5.00020027e-01 5.10814250e-01 5.21318972e-01 5.31078458e-01 5.39687395e-01 5.46867847e-01 5.52478015e-01 5.56454062e-01 5.58705151e-01 5.59022963e-01 5.57070196e-01 5.52502453e-01 5.45218706e-01 5.34934044e-01 5.18141329e-01 4.85091150e-01 4.27957833e-01 2.97940850e-01 1.31632313e-01 2.73097277e-01 2.31317766e-02 2.36597583e-02 4.52748358e-01 5.39941490e-01 5.01228690e-01 4.64858383e-01 4.51132745e-01 4.51910406e-01 4.58604902e-01 4.67154264e-01 4.76302534e-01 4.85665202e-01 4.94960576e-01 5.03839254e-01 5.11899948e-01 5.18747747e-01 5.24040997e-01 5.27498543e-01 5.28868675e-01 5.27888417e-01 5.24286211e-01 5.17867506e-01 5.08698821e-01 4.97455716e-01 4.85506564e-01 4.72957313e-01 4.55218852e-01 4.23303246e-01 3.06321383e-01 9.43421647e-02 2.31924579e-01 2.13636197e-02 2.17843018e-02 4.64453667e-01 5.23204088e-01 4.82629716e-01 4.49894786e-01 4.39542025e-01 4.42139924e-01 4.48940426e-01 4.56533581e-01 4.64211404e-01 4.71872419e-01 4.79365468e-01 4.86416101e-01 4.92680132e-01 4.97799039e-01 5.01432955e-01 5.03264010e-01 5.02976775e-01 5.00247180e-01 4.94795233e-01 4.86528665e-01 4.75719690e-01 4.63257074e-01 4.51198637e-01 4.42308515e-01 4.36816573e-01 4.27041292e-01 3.41800153e-01 7.51932487e-02 1.78315476e-01 2.06877887e-02 1.95561294e-02 4.84170973e-01 5.03881097e-01 4.62074995e-01 4.36843872e-01 4.32443887e-01 4.36857671e-01 4.42540616e-01 4.47836995e-01 4.52950865e-01 4.58109617e-01 4.63258296e-01 4.68154043e-01 4.72475857e-01 4.75889057e-01 4.78074223e-01 4.78728801e-01 4.77551937e-01 4.74236727e-01 4.68522131e-01 4.60352182e-01 4.50079441e-01 4.38572913e-01 4.27782953e-01 4.22037393e-01 4.25930589e-01 4.36949790e-01 4.14793074e-01 6.36252463e-02 1.14028037e-01 1.81841161e-02 2.06679758e-02 6.17475629e-01 5.08566022e-01 4.51325774e-01 4.34007674e-01 4.34931546e-01 4.38404739e-01 4.40066457e-01 4.40846056e-01 4.41874146e-01 4.43545014e-01 4.45755303e-01 4.48187709e-01 4.50467229e-01 4.52229530e-01 4.53145683e-01 4.52924877e-01 4.51306403e-01 4.48059440e-01 4.43031460e-01 4.36316639e-01 4.28555042e-01 4.20975387e-01 4.14804906e-01 4.13150549e-01 4.28801119e-01 4.82115149e-01 6.20991170e-01 5.24623170e-02 7.39021152e-02 2.70945113e-02 1.73956808e-02 7.83205092e-01 6.15281105e-01 4.72055554e-01 4.47666854e-01 4.46243376e-01 4.43716049e-01 4.38506961e-01 4.33321059e-01 4.29542959e-01 4.27374929e-01 4.26497072e-01 4.26433772e-01 4.26704168e-01 4.26874071e-01 4.26569819e-01 4.25480634e-01 4.23365057e-01 4.20078069e-01 4.15650785e-01 4.10490602e-01 4.05804724e-01 4.04045612e-01 4.08021659e-01 4.20439303e-01 4.71288353e-01 6.91407263e-01 7.34133661e-01 5.64992316e-02 6.80368915e-02 1.64654013e-02 2.30632685e-02 8.62824976e-01 8.00824940e-01 5.16955197e-01 4.57720935e-01 4.49261874e-01 4.41852689e-01 4.32530701e-01 4.24185425e-01 4.17881280e-01 4.13538605e-01 4.10692215e-01 4.08808559e-01 4.07383949e-01 4.05960917e-01 4.04120862e-01 4.01479363e-01 3.97703022e-01 3.92565161e-01 3.86063039e-01 3.78631830e-01 3.71607751e-01 3.68565619e-01 3.78874600e-01 4.24921900e-01 6.03526115e-01 7.89859235e-01 8.31349254e-01 3.44435014e-02 6.02243133e-02 1.54225761e-02 1.60098542e-02 9.17451620e-01 5.77932835e-01 6.49966657e-01 6.34642482e-01 6.39508903e-01 6.40779138e-01 6.38571799e-01 6.35614514e-01 6.33137703e-01 6.31324470e-01 6.29996181e-01 6.28915846e-01 6.27869010e-01 6.26662374e-01 6.25101924e-01 6.22978091e-01 6.20069325e-01 6.16174817e-01 6.11185908e-01 6.05193555e-01 5.98630786e-01 5.92602491e-01 5.90234101e-01 6.00377083e-01 6.49615467e-01 8.00678730e-01 9.09224331e-01 1.69974104e-01 7.43339360e-02 
