# vtk DataFile Version 2.0
results_case1_non_linear/10_density.vtk, Created by Freefem++ 
ASCII
DATASET UNSTRUCTURED_GRID
POINTS 961 float
0 0 0
0.033333333 0 0
0.066666667 0 0
0.1 0 0
0.13333333 0 0
0.16666667 0 0
0.2 0 0
0.23333333 0 0
0.26666667 0 0
0.3 0 0
0.33333333 0 0
0.36666667 0 0
0.4 0 0
0.43333333 0 0
0.46666667 0 0
0.5 0 0
0.53333333 0 0
0.56666667 0 0
0.6 0 0
0.63333333 0 0
0.66666667 0 0
0.7 0 0
0.73333333 0 0
0.76666667 0 0
0.8 0 0
0.83333333 0 0
0.86666667 0 0
0.9 0 0
0.93333333 0 0
0.96666667 0 0
1 0 0
0 0.033333333 0
0.033333333 0.033333333 0
0.066666667 0.033333333 0
0.1 0.033333333 0
0.13333333 0.033333333 0
0.16666667 0.033333333 0
0.2 0.033333333 0
0.23333333 0.033333333 0
0.26666667 0.033333333 0
0.3 0.033333333 0
0.33333333 0.033333333 0
0.36666667 0.033333333 0
0.4 0.033333333 0
0.43333333 0.033333333 0
0.46666667 0.033333333 0
0.5 0.033333333 0
0.53333333 0.033333333 0
0.56666667 0.033333333 0
0.6 0.033333333 0
0.63333333 0.033333333 0
0.66666667 0.033333333 0
0.7 0.033333333 0
0.73333333 0.033333333 0
0.76666667 0.033333333 0
0.8 0.033333333 0
0.83333333 0.033333333 0
0.86666667 0.033333333 0
0.9 0.033333333 0
0.93333333 0.033333333 0
0.96666667 0.033333333 0
1 0.033333333 0
0 0.066666667 0
0.033333333 0.066666667 0
0.066666667 0.066666667 0
0.1 0.066666667 0
0.13333333 0.066666667 0
0.16666667 0.066666667 0
0.2 0.066666667 0
0.23333333 0.066666667 0
0.26666667 0.066666667 0
0.3 0.066666667 0
0.33333333 0.066666667 0
0.36666667 0.066666667 0
0.4 0.066666667 0
0.43333333 0.066666667 0
0.46666667 0.066666667 0
0.5 0.066666667 0
0.53333333 0.066666667 0
0.56666667 0.066666667 0
0.6 0.066666667 0
0.63333333 0.066666667 0
0.66666667 0.066666667 0
0.7 0.066666667 0
0.73333333 0.066666667 0
0.76666667 0.066666667 0
0.8 0.066666667 0
0.83333333 0.066666667 0
0.86666667 0.066666667 0
0.9 0.066666667 0
0.93333333 0.066666667 0
0.96666667 0.066666667 0
1 0.066666667 0
0 0.1 0
0.033333333 0.1 0
0.066666667 0.1 0
0.1 0.1 0
0.13333333 0.1 0
0.16666667 0.1 0
0.2 0.1 0
0.23333333 0.1 0
0.26666667 0.1 0
0.3 0.1 0
0.33333333 0.1 0
0.36666667 0.1 0
0.4 0.1 0
0.43333333 0.1 0
0.46666667 0.1 0
0.5 0.1 0
0.53333333 0.1 0
0.56666667 0.1 0
0.6 0.1 0
0.63333333 0.1 0
0.66666667 0.1 0
0.7 0.1 0
0.73333333 0.1 0
0.76666667 0.1 0
0.8 0.1 0
0.83333333 0.1 0
0.86666667 0.1 0
0.9 0.1 0
0.93333333 0.1 0
0.96666667 0.1 0
1 0.1 0
0 0.13333333 0
0.033333333 0.13333333 0
0.066666667 0.13333333 0
0.1 0.13333333 0
0.13333333 0.13333333 0
0.16666667 0.13333333 0
0.2 0.13333333 0
0.23333333 0.13333333 0
0.26666667 0.13333333 0
0.3 0.13333333 0
0.33333333 0.13333333 0
0.36666667 0.13333333 0
0.4 0.13333333 0
0.43333333 0.13333333 0
0.46666667 0.13333333 0
0.5 0.13333333 0
0.53333333 0.13333333 0
0.56666667 0.13333333 0
0.6 0.13333333 0
0.63333333 0.13333333 0
0.66666667 0.13333333 0
0.7 0.13333333 0
0.73333333 0.13333333 0
0.76666667 0.13333333 0
0.8 0.13333333 0
0.83333333 0.13333333 0
0.86666667 0.13333333 0
0.9 0.13333333 0
0.93333333 0.13333333 0
0.96666667 0.13333333 0
1 0.13333333 0
0 0.16666667 0
0.033333333 0.16666667 0
0.066666667 0.16666667 0
0.1 0.16666667 0
0.13333333 0.16666667 0
0.16666667 0.16666667 0
0.2 0.16666667 0
0.23333333 0.16666667 0
0.26666667 0.16666667 0
0.3 0.16666667 0
0.33333333 0.16666667 0
0.36666667 0.16666667 0
0.4 0.16666667 0
0.43333333 0.16666667 0
0.46666667 0.16666667 0
0.5 0.16666667 0
0.53333333 0.16666667 0
0.56666667 0.16666667 0
0.6 0.16666667 0
0.63333333 0.16666667 0
0.66666667 0.16666667 0
0.7 0.16666667 0
0.73333333 0.16666667 0
0.76666667 0.16666667 0
0.8 0.16666667 0
0.83333333 0.16666667 0
0.86666667 0.16666667 0
0.9 0.16666667 0
0.93333333 0.16666667 0
0.96666667 0.16666667 0
1 0.16666667 0
0 0.2 0
0.033333333 0.2 0
0.066666667 0.2 0
0.1 0.2 0
0.13333333 0.2 0
0.16666667 0.2 0
0.2 0.2 0
0.23333333 0.2 0
0.26666667 0.2 0
0.3 0.2 0
0.33333333 0.2 0
0.36666667 0.2 0
0.4 0.2 0
0.43333333 0.2 0
0.46666667 0.2 0
0.5 0.2 0
0.53333333 0.2 0
0.56666667 0.2 0
0.6 0.2 0
0.63333333 0.2 0
0.66666667 0.2 0
0.7 0.2 0
0.73333333 0.2 0
0.76666667 0.2 0
0.8 0.2 0
0.83333333 0.2 0
0.86666667 0.2 0
0.9 0.2 0
0.93333333 0.2 0
0.96666667 0.2 0
1 0.2 0
0 0.23333333 0
0.033333333 0.23333333 0
0.066666667 0.23333333 0
0.1 0.23333333 0
0.13333333 0.23333333 0
0.16666667 0.23333333 0
0.2 0.23333333 0
0.23333333 0.23333333 0
0.26666667 0.23333333 0
0.3 0.23333333 0
0.33333333 0.23333333 0
0.36666667 0.23333333 0
0.4 0.23333333 0
0.43333333 0.23333333 0
0.46666667 0.23333333 0
0.5 0.23333333 0
0.53333333 0.23333333 0
0.56666667 0.23333333 0
0.6 0.23333333 0
0.63333333 0.23333333 0
0.66666667 0.23333333 0
0.7 0.23333333 0
0.73333333 0.23333333 0
0.76666667 0.23333333 0
0.8 0.23333333 0
0.83333333 0.23333333 0
0.86666667 0.23333333 0
0.9 0.23333333 0
0.93333333 0.23333333 0
0.96666667 0.23333333 0
1 0.23333333 0
0 0.26666667 0
0.033333333 0.26666667 0
0.066666667 0.26666667 0
0.1 0.26666667 0
0.13333333 0.26666667 0
0.16666667 0.26666667 0
0.2 0.26666667 0
0.23333333 0.26666667 0
0.26666667 0.26666667 0
0.3 0.26666667 0
0.33333333 0.26666667 0
0.36666667 0.26666667 0
0.4 0.26666667 0
0.43333333 0.26666667 0
0.46666667 0.26666667 0
0.5 0.26666667 0
0.53333333 0.26666667 0
0.56666667 0.26666667 0
0.6 0.26666667 0
0.63333333 0.26666667 0
0.66666667 0.26666667 0
0.7 0.26666667 0
0.73333333 0.26666667 0
0.76666667 0.26666667 0
0.8 0.26666667 0
0.83333333 0.26666667 0
0.86666667 0.26666667 0
0.9 0.26666667 0
0.93333333 0.26666667 0
0.96666667 0.26666667 0
1 0.26666667 0
0 0.3 0
0.033333333 0.3 0
0.066666667 0.3 0
0.1 0.3 0
0.13333333 0.3 0
0.16666667 0.3 0
0.2 0.3 0
0.23333333 0.3 0
0.26666667 0.3 0
0.3 0.3 0
0.33333333 0.3 0
0.36666667 0.3 0
0.4 0.3 0
0.43333333 0.3 0
0.46666667 0.3 0
0.5 0.3 0
0.53333333 0.3 0
0.56666667 0.3 0
0.6 0.3 0
0.63333333 0.3 0
0.66666667 0.3 0
0.7 0.3 0
0.73333333 0.3 0
0.76666667 0.3 0
0.8 0.3 0
0.83333333 0.3 0
0.86666667 0.3 0
0.9 0.3 0
0.93333333 0.3 0
0.96666667 0.3 0
1 0.3 0
0 0.33333333 0
0.033333333 0.33333333 0
0.066666667 0.33333333 0
0.1 0.33333333 0
0.13333333 0.33333333 0
0.16666667 0.33333333 0
0.2 0.33333333 0
0.23333333 0.33333333 0
0.26666667 0.33333333 0
0.3 0.33333333 0
0.33333333 0.33333333 0
0.36666667 0.33333333 0
0.4 0.33333333 0
0.43333333 0.33333333 0
0.46666667 0.33333333 0
0.5 0.33333333 0
0.53333333 0.33333333 0
0.56666667 0.33333333 0
0.6 0.33333333 0
0.63333333 0.33333333 0
0.66666667 0.33333333 0
0.7 0.33333333 0
0.73333333 0.33333333 0
0.76666667 0.33333333 0
0.8 0.33333333 0
0.83333333 0.33333333 0
0.86666667 0.33333333 0
0.9 0.33333333 0
0.93333333 0.33333333 0
0.96666667 0.33333333 0
1 0.33333333 0
0 0.36666667 0
0.033333333 0.36666667 0
0.066666667 0.36666667 0
0.1 0.36666667 0
0.13333333 0.36666667 0
0.16666667 0.36666667 0
0.2 0.36666667 0
0.23333333 0.36666667 0
0.26666667 0.36666667 0
0.3 0.36666667 0
0.33333333 0.36666667 0
0.36666667 0.36666667 0
0.4 0.36666667 0
0.43333333 0.36666667 0
0.46666667 0.36666667 0
0.5 0.36666667 0
0.53333333 0.36666667 0
0.56666667 0.36666667 0
0.6 0.36666667 0
0.63333333 0.36666667 0
0.66666667 0.36666667 0
0.7 0.36666667 0
0.73333333 0.36666667 0
0.76666667 0.36666667 0
0.8 0.36666667 0
0.83333333 0.36666667 0
0.86666667 0.36666667 0
0.9 0.36666667 0
0.93333333 0.36666667 0
0.96666667 0.36666667 0
1 0.36666667 0
0 0.4 0
0.033333333 0.4 0
0.066666667 0.4 0
0.1 0.4 0
0.13333333 0.4 0
0.16666667 0.4 0
0.2 0.4 0
0.23333333 0.4 0
0.26666667 0.4 0
0.3 0.4 0
0.33333333 0.4 0
0.36666667 0.4 0
0.4 0.4 0
0.43333333 0.4 0
0.46666667 0.4 0
0.5 0.4 0
0.53333333 0.4 0
0.56666667 0.4 0
0.6 0.4 0
0.63333333 0.4 0
0.66666667 0.4 0
0.7 0.4 0
0.73333333 0.4 0
0.76666667 0.4 0
0.8 0.4 0
0.83333333 0.4 0
0.86666667 0.4 0
0.9 0.4 0
0.93333333 0.4 0
0.96666667 0.4 0
1 0.4 0
0 0.43333333 0
0.033333333 0.43333333 0
0.066666667 0.43333333 0
0.1 0.43333333 0
0.13333333 0.43333333 0
0.16666667 0.43333333 0
0.2 0.43333333 0
0.23333333 0.43333333 0
0.26666667 0.43333333 0
0.3 0.43333333 0
0.33333333 0.43333333 0
0.36666667 0.43333333 0
0.4 0.43333333 0
0.43333333 0.43333333 0
0.46666667 0.43333333 0
0.5 0.43333333 0
0.53333333 0.43333333 0
0.56666667 0.43333333 0
0.6 0.43333333 0
0.63333333 0.43333333 0
0.66666667 0.43333333 0
0.7 0.43333333 0
0.73333333 0.43333333 0
0.76666667 0.43333333 0
0.8 0.43333333 0
0.83333333 0.43333333 0
0.86666667 0.43333333 0
0.9 0.43333333 0
0.93333333 0.43333333 0
0.96666667 0.43333333 0
1 0.43333333 0
0 0.46666667 0
0.033333333 0.46666667 0
0.066666667 0.46666667 0
0.1 0.46666667 0
0.13333333 0.46666667 0
0.16666667 0.46666667 0
0.2 0.46666667 0
0.23333333 0.46666667 0
0.26666667 0.46666667 0
0.3 0.46666667 0
0.33333333 0.46666667 0
0.36666667 0.46666667 0
0.4 0.46666667 0
0.43333333 0.46666667 0
0.46666667 0.46666667 0
0.5 0.46666667 0
0.53333333 0.46666667 0
0.56666667 0.46666667 0
0.6 0.46666667 0
0.63333333 0.46666667 0
0.66666667 0.46666667 0
0.7 0.46666667 0
0.73333333 0.46666667 0
0.76666667 0.46666667 0
0.8 0.46666667 0
0.83333333 0.46666667 0
0.86666667 0.46666667 0
0.9 0.46666667 0
0.93333333 0.46666667 0
0.96666667 0.46666667 0
1 0.46666667 0
0 0.5 0
0.033333333 0.5 0
0.066666667 0.5 0
0.1 0.5 0
0.13333333 0.5 0
0.16666667 0.5 0
0.2 0.5 0
0.23333333 0.5 0
0.26666667 0.5 0
0.3 0.5 0
0.33333333 0.5 0
0.36666667 0.5 0
0.4 0.5 0
0.43333333 0.5 0
0.46666667 0.5 0
0.5 0.5 0
0.53333333 0.5 0
0.56666667 0.5 0
0.6 0.5 0
0.63333333 0.5 0
0.66666667 0.5 0
0.7 0.5 0
0.73333333 0.5 0
0.76666667 0.5 0
0.8 0.5 0
0.83333333 0.5 0
0.86666667 0.5 0
0.9 0.5 0
0.93333333 0.5 0
0.96666667 0.5 0
1 0.5 0
0 0.53333333 0
0.033333333 0.53333333 0
0.066666667 0.53333333 0
0.1 0.53333333 0
0.13333333 0.53333333 0
0.16666667 0.53333333 0
0.2 0.53333333 0
0.23333333 0.53333333 0
0.26666667 0.53333333 0
0.3 0.53333333 0
0.33333333 0.53333333 0
0.36666667 0.53333333 0
0.4 0.53333333 0
0.43333333 0.53333333 0
0.46666667 0.53333333 0
0.5 0.53333333 0
0.53333333 0.53333333 0
0.56666667 0.53333333 0
0.6 0.53333333 0
0.63333333 0.53333333 0
0.66666667 0.53333333 0
0.7 0.53333333 0
0.73333333 0.53333333 0
0.76666667 0.53333333 0
[...]
CELL_DATA 1920
Scalars  Label int 1
LOOKUP_TABLE FreeFempp_table
0
0
0
0
0
0
0
0
0
0
0
0
0
0
0
0
0
0
0
0
0
0
0
0
0
0
0
0
0
0
0
0
0
0
0
0
0
0
0
0
0
0
0
0
0
0
0
0
0
0
0
0
0
0
0
0
0
0
0
0
0
0
0
0
0
0
0
0
0
0
0
0
0
0
0
0
0
0
0
0
0
0
0
0
0
0
0
0
0
0
0
0
0
0
0
0
0
0
0
0
0
0
0
0
0
0
0
0
0
0
0
0
0
0
0
0
0
0
0
0
0
0
0
0
0
0
0
0
0
0
0
0
0
0
0
0
0
0
0
0
0
0
0
0
0
0
0
0
0
0
0
0
0
0
0
0
0
0
0
0
0
0
0
0
0
0
0
0
0
0
0
0
0
0
0
0
0
0
0
0
0
0
0
0
0
0
0
0
0
0
0
0
0
0
0
0
0
0
0
0
0
0
0
0
0
0
0
0
0
0
0
0
0
0
0
0
0
0
0
0
0
0
0
0
0
0
0
0
0
0
0
0
0
0
0
0
0
0
0
0
0
0
0
0
0
0
0
0
0
0
0
0
0
0
0
0
0
0
0
0
0
0
0
0
0
0
0
0
0
0
0
0
0
0
0
0
0
0
0
0
0
0
0
0
0
0
0
0
0
0
0
0
0
0
0
0
0
0
0
0
0
0
0
0
0
0
0
0
0
0
0
0
0
0
0
0
0
0
0
0
0
0
0
0
0
0
0
0
0
0
0
0
0
0
0
0
0
0
0
0
0
0
0
0
0
0
0
0
0
0
0
0
0
0
0
0
0
0
0
0
0
0
0
0
0
0
0
0
0
0
0
0
0
0
0
0
0
0
0
0
0
0
0
0
0
0
0
0
0
0
0
0
0
0
0
0
0
0
0
0
0
0
0
0
0
0
0
0
0
0
0
0
0
0
0
0
0
0
0
0
0
0
0
0
0
0
0
0
0
0
0
0
0
0
0
0
0
0
0
0
0
0
0
0
0
0
0
0
0
0
0
0
0
0
0
0
0
0
0
0
0
0
0
0
0
0
0
0
0
0
0
0
0
0
0
0
0
0
0
0
0
0
0
0
0
0
0
0
0
0
0
0
0
0
0
0
0
0
0
0
0
0
0
0
0
0
0
0
0
0
0
0
0
0
0
0
0
0
0
0
0
0
0
0
0
0
0
0
0
0
0
0
0
0
0
0
0
0
0
0
0
0
0
0
0
0
0
0
0
0
0
0
0
0
0
0
0
0
0
0
0
0
0
0
0
0
0
0
0
0
0
0
0
0
0
0
0
0
0
0
0
0
0
0
0
0
0
0
0
0
0
0
0
0
0
0
0
0
0
0
0
0
0
0
0
0
0
0
0
0
0
0
0
0
0
0
0
0
0
0
0
0
0
0
0
0
0
0
0
0
0
0
0
0
0
0
0
0
0
0
0
0
0
0
0
0
0
0
0
0
0
0
0
0
0
0
0
0
0
0
0
0
0
0
0
0
0
0
0
0
0
0
0
0
0
0
0
0
0
0
0
0
0
0
0
0
0
0
0
0
0
0
0
0
0
0
0
0
0
0
0
0
0
0
0
0
0
0
0
0
0
0
0
0
0
0
0
0
0
0
0
0
0
0
0
0
0
0
0
0
0
0
0
0
0
0
0
0
0
0
0
0
0
0
0
0
0
0
0
0
0
0
0
0
0
0
0
0
0
0
0
0
0
0
0
0
0
0
0
0
0
0
0
0
0
0
0
0
0
0
0
0
0
0
0
0
0
0
0
0
0
0
0
0
0
0
0
0
0
0
0
0
0
0
0
0
0
0
0
0
0
0
0
0
0
0
0
0
0
0
0
0
0
0
0
0
0
0
0
0
0
0
0
0
0
0
0
0
0
0
0
0
0
0
0
0
0
0
0
0
0
0
0
0
0
0
0
0
0
0
0
0
0
0
0
0
0
0
0
0
0
0
0
0
0
0
0
0
0
0
0
0
0
0
0
0
0
0
0
0
0
0
0
0
0
0
0
0
0
0
0
0
0
0
0
0
0
0
0
0
0
0
0
0
0
0
0
0
0
0
0
0
0
0
0
0
0
0
0
0
0
0
0
0
0
0
0
0
0
0
0
0
0
0
0
0
0
0
0
0
0
0
0
0
0
0
0
0
0
0
0
0
0
0
0
0
0
0
0
0
0
0
0
0
0
0
0
0
0
0
0
0
0
0
0
0
0
0
0
0
0
0
0
0
0
0
0
0
0
0
0
0
0
0
0
0
0
0
0
0
0
0
0
0
0
0
0
0
0
0
0
0
0
0
0
0
0
0
0
0
0
0
0
0
0
0
0
0
0
0
0
0
0
0
0
0
0
0
0
0
0
0
0
0
0
0
0
0
0
0
0
0
0
0
0
0
0
0
0
0
0
0
0
0
0
0
0
0
0
0
0
0
0
0
0
0
0
0
0
0
0
0
0
0
0
0
0
0
0
0
0
0
0
0
0
0
0
0
0
0
0
0
0
0
0
0
0
0
0
0
0
0
0
0
0
0
0
0
0
0
0
0
0
0
0
0
0
0
0
0
0
0
0
0
0
0
0
0
0
0
0
0
0
0
0
0
0
0
0
0
0
0
0
0
0
0
0
0
0
0
0
0
0
0
0
0
0
0
0
0
0
0
0
0
0
0
0
0
0
0
0
0
0
0
0
0
0
0
0
0
0
0
0
0
0
0
0
0
0
0
0
0
0
0
0
0
0
0
0
0
0
0
0
0
0
0
0
0
0
0
0
0
0
0
0
0
0
0
0
0
0
0
0
0
0
0
0
0
0
0
0
0
0
0
0
0
0
0
0
0
0
0
0
0
0
0
0
0
0
0
0
0
0
0
0
0
0
0
0
0
0
0
0
0
0
0
0
0
0
0
0
0
0
0
0
0
0
0
0
0
0
0
0
0
0
0
0
0
0
0
0
0
0
0
0
0
0
0
0
0
0
0
0
0
0
0
0
0
0
0
0
0
0
0
0
0
0
0
0
0
0
0
0
0
0
0
0
0
0
0
0
0
0
0
0
0
0
0
0
0
0
0
0
0
0
0
0
0
0
0
0
0
0
0
0
0
0
0
0
0
0
0
0
0
0
0
0
0
0
0
0
0
0
0
0
0
0
0
0
0
0
0
0
0
0
0
0
0
0
0
0
0
0
0
0
0
0
0
0
0
0
0
0
0
0
0
0
0
0
0
0
0
0
0
0
0
0
0
0
0
0
0
0
0
0
0
0
0
0
0
0
0
0
0
0
0
0
0
0
0
0
0
0
0
0
0
0
0
0
0
0
0
0
0
0
0
0
0
0
0
0
0
0
0
0
0
0
0
0
0
0
0
0
0
0
0
0
0
0
0
0
0
0
0
0
0
0
0
0
0
0
0
0
0
0
0
0
0
0
0
0
0
0
0
0
0
0
0
0
0
0
0
0
0
0
0
0
0
0
0
0
0
0
0
0
0
0
0
0
0
0
0
0
0
0
0
0
0
0
0
0
0
0
0
0
0
0
0
0
0
0
0
0
0
0
0
0
0
0
0
0
0
0
0
0
0
0
0
0
0
0
0
0
0
0
0
0
0
0
0
0
0
0
0
0
0
0
0
0
0
0
0
0
0
0
0
0
0
0
0
0
0
0
0
0
0
0
0
0
0
0
0
0
0
0
0
0
0
0
0
0
0
0
0
0
0
0
0
0
0
0
0
0
0
0
0
0
0
0
0
0
0
0
0
0
0
0
0
0
0
0
0
0
0
0
0
0
0
0
0
0
0
0
0
0
0
0
0
0
0
0
0
0
0
0
0
0
0
0
0
0
0
0
0
0
0
0
0
0
0
0
0
0
0
0
0
0
0
0
0
0
0
0
0
0
0
0
0
0
0
0
0
0
0
0
0
0
0
0
0
0
0
0
0
0
0
0
0
0
0
0
0
0
0
0
0
0
0
0
0
0
0
0
0
0
0
0
0
0
0
0
0
0
0
0
0
0
0
0
0
0
0
0
0
0
0
0
0
0
0
0
0
0
0
0
0
0
0
0
0
1
1
1
1
1
1
1
1
1
1
1
1
1
1
1
1
1
1
1
1
1
1
1
1
1
1
1
1
1
1
2
2
2
2
2
2
2
2
2
2
2
2
2
2
2
2
2
2
2
2
2
2
2
2
2
2
2
2
2
2
3
3
3
3
3
3
3
3
3
3
3
3
3
3
3
3
3
3
3
3
3
3
3
3
3
3
3
3
3
3
4
4
4
4
4
4
4
4
4
4
4
4
4
4
4
4
4
4
4
4
4
4
4
4
4
4
4
4
4
4

LOOKUP_TABLE FreeFempp_table 5
1.00000000 0.00000000 0.00000000 1.00000000
1.00000000 1.00000000 0.00000000 1.00000000
1.00000000 0.00000000 1.00000000 1.00000000
0.00000000 1.00000000 0.00000000 1.00000000
0.00000000 1.00000000 1.00000000 1.00000000

POINT_DATA 961
FIELD FieldData 1
Density 1 961 float
5.71870923e-01 5.18637240e-01 5.24150968e-01 5.30293763e-01 5.36053300e-01 5.38783371e-01 5.30131280e-01 4.29786831e-01 8.06189491e-04 4.88653663e-04 1.37116772e-03 4.67006147e-01 5.77695787e-01 5.89874804e-01 6.32693768e-01 7.67347038e-01 9.09904182e-01 9.24259663e-01 8.00764441e-01 8.18606973e-01 9.45704997e-01 9.18571830e-01 8.24640691e-01 7.88691640e-01 7.89686561e-01 7.90655732e-01 7.81694114e-01 7.70379364e-01 7.58523822e-01 7.57481754e-01 7.11438715e-01 5.46932817e-01 4.18449193e-01 4.18916047e-01 4.25688326e-01 4.28669333e-01 4.29468364e-01 4.30520892e-01 3.74583483e-01 1.14308053e-03 3.84788233e-04 5.22215501e-04 2.67044067e-01 4.57359374e-01 4.67026800e-01 5.00333786e-01 6.94731712e-01 9.52017426e-01 9.76427197e-01 7.99795985e-01 6.47414327e-01 9.33485091e-01 9.76903319e-01 9.22308564e-01 8.78855944e-01 8.80957901e-01 8.71394098e-01 8.51430595e-01 8.31695855e-01 8.17525148e-01 8.12183678e-01 7.56707251e-01 1.49260421e-04 1.38053074e-04 1.40299337e-04 1.44875870e-04 1.45668833e-04 1.46170350e-04 1.46731167e-04 1.46907798e-04 1.45704587e-04 1.44435442e-04 1.34941685e-04 3.31003070e-01 4.88080829e-01 4.82547581e-01 4.76959109e-01 5.70696294e-01 9.21203434e-01 9.45586085e-01 2.76537938e-03 3.65515752e-03 7.79899163e-03 7.69341318e-03 4.95077446e-02 4.15192038e-01 7.03716397e-01 7.53393948e-01 7.62022316e-01 7.39086688e-01 7.29921699e-01 7.25564122e-01 7.21156538e-01 1.72700922e-04 1.37969837e-04 1.35955896e-04 1.43393627e-04 1.45225131e-04 1.45716389e-04 1.46203631e-04 1.46599617e-04 1.46100385e-04 1.47615283e-04 1.22901722e-04 1.22912257e-04 1.42524979e-04 1.46676597e-04 1.41927027e-04 4.65018421e-01 7.74182498e-01 9.96082366e-01 1.49952248e-01 1.78505003e-03 6.73410308e-04 4.04154445e-04 3.09858093e-04 2.99150794e-04 3.59642843e-04 1.37765182e-03 3.27030003e-01 6.14955246e-01 6.11504138e-01 6.12190843e-01 6.65129125e-01 6.39901876e-01 4.51390117e-01 3.67157310e-01 2.60776162e-01 2.11595699e-01 2.20631912e-01 2.73488969e-01 3.44184220e-01 4.05626118e-01 4.43952650e-01 4.39092606e-01 1.36900882e-04 1.43440338e-04 1.43119643e-04 1.25941398e-04 1.26469051e-04 1.54894427e-04 1.49590254e-04 9.99685347e-01 4.27949615e-03 1.76310900e-03 6.31696079e-04 3.77043238e-04 2.85051618e-04 2.27158424e-04 2.17366993e-04 2.80246604e-04 7.18341768e-02 4.89654779e-01 5.15256286e-01 6.20001316e-01 8.26413751e-01 8.09435487e-01 6.93970859e-01 5.00105262e-01 3.37992430e-01 2.88906902e-01 3.18920434e-01 3.78665447e-01 4.34670180e-01 4.75749373e-01 4.93351579e-01 4.84286308e-01 4.84455973e-01 4.94635552e-01 4.91176546e-01 1.42676887e-04 1.52810666e-04 1.31916735e-04 1.33086709e-04 9.99550581e-01 1.20876981e-02 1.22806486e-02 1.11644799e-02 8.70802160e-03 9.71918227e-04 2.40302688e-04 1.91101994e-04 2.02696669e-04 6.17974475e-02 4.33966458e-01 5.87610960e-01 9.23530877e-01 9.71941352e-01 9.58071172e-01 9.26467776e-01 8.40829313e-01 7.05884695e-01 6.06868744e-01 5.75911880e-01 5.76778769e-01 5.82608283e-01 5.82125545e-01 5.72763503e-01 5.62453210e-01 5.48757493e-01 5.29767096e-01 5.12730241e-01 4.95088398e-01 4.20376658e-01 1.37688912e-04 1.41499710e-04 9.98157322e-01 9.81375992e-01 9.82654274e-01 9.33859944e-01 5.41414976e-01 5.26295155e-02 3.28785187e-04 1.86485355e-04 2.23186580e-04 1.49782225e-01 5.39885819e-01 9.27446306e-01 9.87201869e-01 9.85128701e-01 9.84628916e-01 9.74730551e-01 9.45620000e-01 8.87836218e-01 8.17156076e-01 7.59691656e-01 7.17770159e-01 6.82812035e-01 6.52342558e-01 6.29347980e-01 6.10036254e-01 5.87391794e-01 5.63305020e-01 5.33331275e-01 4.97850120e-01 1.61475599e-01 1.46290025e-04 1.54924885e-04 8.97782922e-01 9.63830292e-01 9.68682766e-01 9.88910019e-01 8.90486717e-01 1.00530416e-01 2.53108476e-04 1.77194117e-04 4.11194720e-04 4.48667973e-01 8.69710505e-01 9.72509086e-01 9.37692344e-01 9.56471086e-01 9.85550880e-01 9.82663691e-01 9.66932476e-01 9.36842263e-01 8.94438982e-01 8.44582796e-01 7.92569041e-01 7.45504618e-01 7.08194137e-01 6.77180886e-01 6.46329403e-01 6.14435256e-01 5.79096317e-01 5.35766840e-01 4.44251180e-01 9.33627132e-04 1.67352031e-04 1.92608219e-04 1.97107042e-03 7.70657184e-03 4.16716281e-03 7.43117452e-01 9.60033655e-01 4.08524126e-02 1.73190216e-04 1.99616261e-04 3.18247408e-01 8.06899190e-01 9.09920394e-01 3.70056033e-01 1.04515903e-01 6.46312118e-01 9.71207380e-01 9.77143764e-01 9.65135217e-01 9.44180906e-01 9.15157974e-01 8.77236605e-01 8.34310710e-01 7.93964982e-01 7.57566333e-01 7.20623791e-01 6.80194676e-01 6.34330213e-01 5.97543657e-01 5.92409849e-01 2.31063012e-02 4.90147155e-04 2.10623068e-04 2.58530315e-04 4.61534539e-04 1.32179586e-03 7.27180042e-04 8.98998439e-01 9.71424580e-01 2.00696028e-04 1.75371402e-04 3.35741118e-02 7.90794611e-01 8.77532780e-01 2.63902843e-01 9.91201401e-03 2.16381531e-02 5.17800212e-01 9.40367341e-01 9.57327425e-01 9.48700786e-01 9.33991551e-01 9.14242744e-01 8.88092995e-01 8.58280241e-01 8.27697098e-01 7.94690311e-01 7.56298125e-01 7.14093149e-01 6.88775599e-01 7.33030677e-01 3.96444708e-01 8.46867543e-03 5.57298947e-04 3.35964549e-04 3.56525707e-04 3.63761501e-04 1.48568489e-03 1.41485978e-03 9.99227166e-01 4.41515498e-04 1.75095120e-04 2.81609362e-04 7.79945374e-01 8.66433203e-01 4.85189736e-01 5.83198573e-03 2.96597648e-03 3.58075723e-02 6.33701444e-01 8.94729793e-01 9.17153656e-01 9.18097436e-01 9.13279831e-01 9.02636588e-01 8.86646926e-01 8.67412388e-01 8.44315052e-01 8.14062893e-01 7.78677762e-01 7.61988342e-01 8.12067449e-01 7.83848643e-01 5.82517624e-01 1.27792405e-02 2.37513916e-03 2.15749699e-03 8.14723317e-04 1.02910853e-03 8.38929729e-04 9.97247458e-01 3.77021655e-02 2.11503022e-04 2.29202691e-04 7.62432396e-01 8.46122682e-01 6.42933190e-01 9.63084213e-03 1.47365383e-03 4.13278816e-03 1.64960131e-01 7.12916136e-01 8.25959265e-01 8.58860910e-01 8.76953125e-01 8.84291232e-01 8.82368505e-01 8.74779701e-01 8.61851692e-01 8.39324415e-01 8.08352888e-01 7.93330610e-01 8.41999829e-01 8.89751256e-01 8.92405987e-01 8.65800500e-01 6.10827148e-01 4.77327496e-01 1.25999004e-01 2.25518830e-02 8.83987080e-03 9.96731639e-01 8.62241209e-01 2.33230006e-04 2.29917074e-04 7.41603255e-01 8.17395985e-01 6.96086407e-01 2.79482473e-02 1.17383152e-03 1.53428083e-03 2.78759301e-02 4.39762086e-01 6.95992231e-01 7.48085260e-01 7.97980249e-01 8.32618475e-01 8.49528670e-01 8.54932964e-01 8.51631582e-01 8.35270882e-01 8.06118965e-01 7.86486626e-01 8.24752033e-01 8.39727879e-01 8.51336777e-01 8.66701245e-01 9.57873762e-01 9.16660428e-01 7.01574028e-01 1.10853970e-01 3.66815984e-01 9.98822749e-01 8.34232628e-01 2.47449265e-04 2.34267471e-04 7.19888687e-01 7.82181263e-01 7.02331662e-01 8.45758915e-02 1.19163876e-03 9.95873474e-04 5.89258224e-03 2.10253298e-01 5.76446891e-01 6.33550704e-01 6.91910565e-01 7.53289402e-01 7.93555439e-01 8.15117657e-01 8.22929919e-01 8.14125776e-01 7.87453949e-01 7.64151812e-01 7.72625506e-01 7.55420268e-01 7.50902176e-01 8.34549606e-01 9.17471707e-01 9.40167010e-01 7.99680650e-01 1.90889329e-01 8.46893370e-01 9.99085903e-01 1.23685718e-01 2.73458019e-04 2.52424885e-04 6.98478997e-01 7.42804706e-01 6.88575685e-01 2.00252548e-01 1.47562497e-03 7.52903288e-04 2.03542854e-03 8.67219195e-02 4.60873246e-01 5.60612977e-01 6.03271306e-01 6.72616363e-01 7.30253279e-01 7.67465353e-01 7.87346601e-01 7.88546264e-01 7.69547939e-01 7.48348594e-01 7.32795835e-01 7.09870815e-01 7.20259309e-01 8.15763295e-01 8.88404012e-01 9.01610732e-01 7.49455988e-01 4.27046835e-01 9.60997224e-01 9.98447776e-01 7.02516874e-03 3.20664141e-04 2.82537920e-04 6.78101301e-01 7.01593161e-01 6.68156683e-01 3.46879631e-01 2.32596137e-03 5.95791033e-04 1.01691985e-03 3.24380994e-02 3.59881759e-01 5.14931440e-01 5.51696479e-01 6.15774214e-01 6.78416729e-01 7.25099087e-01 7.54982710e-01 7.66775489e-01 7.60294437e-01 7.48888552e-01 7.36746132e-01 7.20728219e-01 7.20291317e-01 7.53675938e-01 7.93761671e-01 7.89072633e-01 6.91492021e-01 7.78343439e-01 9.83923018e-01 9.95151341e-01 1.81466539e-03 4.18577460e-04 3.48709465e-04 6.59464836e-01 6.60803020e-01 6.45379186e-01 4.72078264e-01 5.12638036e-03 4.98501642e-04 6.42503146e-04 1.17419977e-02 2.88627833e-01 4.82523501e-01 5.23576975e-01 5.83102882e-01 6.43954992e-01 6.93555832e-01 7.29517579e-01 7.50748575e-01 7.58412361e-01 7.61641741e-01 7.62691438e-01 7.53004730e-01 7.29320765e-01 6.99633360e-01 6.78417385e-01 6.78973317e-01 7.31809378e-01 9.17828918e-01 9.88568187e-01 9.78436172e-01 9.77559364e-04 5.65465889e-04 5.10604004e-04 6.43234849e-01 6.22814059e-01 6.20857835e-01 5.52651405e-01 1.58995688e-02 4.54867171e-04 4.87733865e-04 4.73717786e-03 2.49265075e-01 4.63877350e-01 5.06929755e-01 5.63570023e-01 6.21216834e-01 6.70625091e-01 7.09409475e-01 7.37774014e-01 7.57858813e-01 7.74543464e-01 7.86665022e-01 7.83530772e-01 7.55547643e-01 7.06712008e-01 6.71665668e-01 7.09572017e-01 8.41642797e-01 9.60411370e-01 9.87699747e-01 9.02053773e-01 7.24926533e-04 6.41532068e-04 9.31082875e-04 6.29665971e-01 5.89684486e-01 5.95624745e-01 5.89560091e-01 5.89374080e-02 4.55359812e-04 4.19419754e-04 2.22263159e-03 2.40002066e-01 4.57161069e-01 4.98287112e-01 5.50725758e-01 6.03551924e-01 6.51512563e-01 6.91512287e-01 7.24382222e-01 7.53033638e-01 7.79587686e-01 8.00778151e-01 8.08618248e-01 7.98967183e-01 7.78190553e-01 7.75627434e-01 8.29853773e-01 9.19037879e-01 9.71454620e-01 9.60629821e-01 1.68224908e-02 6.62407081e-04 6.22437045e-04 2.20642565e-03 6.18392706e-01 5.62244892e-01 5.72246492e-01 5.93823135e-01 1.93749130e-01 5.06538607e-04 3.81880673e-04 1.17294036e-03 2.60582536e-01 4.55245763e-01 4.95252639e-01 5.41767001e-01 5.87398827e-01 6.32243454e-01 6.72202945e-01 7.07458615e-01 7.41083622e-01 7.74818599e-01 8.05580497e-01 8.28992248e-01 8.46629143e-01 8.64191115e-01 8.89661491e-01 9.19780433e-01 9.34507370e-01 9.22346413e-01 1.91638365e-01 2.44824612e-03 8.01191840e-04 7.30410800e-04 8.86304490e-03 6.08793497e-01 5.39767325e-01 5.53251326e-01 5.80049992e-01 4.07387227e-01 6.57394412e-04 3.39658378e-04 6.78902958e-04 3.06234211e-01 4.51119542e-01 4.95774955e-01 5.34703612e-01 5.71222425e-01 6.10541642e-01 6.48357749e-01 6.84158325e-01 7.20382929e-01 7.59274960e-01 7.99625635e-01 8.39088976e-01 8.78192961e-01 9.14942443e-01 9.43268657e-01 9.52555299e-01 8.69603395e-01 6.96055070e-02 3.05915647e-03 1.35879859e-03 1.20314851e-03 1.33497431e-03 7.11413398e-02 6.00709498e-01 5.21741092e-01 5.38529277e-01 5.61173022e-01 5.03408551e-01 1.10805896e-03 2.85256363e-04 4.23414196e-04 3.45955431e-01 4.43441898e-01 4.99147713e-01 5.28199852e-01 5.54481506e-01 5.85675955e-01 6.18542612e-01 6.52528763e-01 6.89174652e-01 7.30643272e-01 7.77731121e-01 8.29628050e-01 8.82924318e-01 9.28586841e-01 9.57450509e-01 9.64275062e-01 8.81147683e-01 7.49525428e-02 3.91922705e-03 1.87530206e-03 2.27505597e-03 9.54455789e-03 3.10164809e-01 5.94477534e-01 5.09168565e-01 5.28126657e-01 5.44407368e-01 5.26063204e-01 3.40853841e-03 2.41064656e-04 2.95512960e-04 3.21773916e-01 4.35984284e-01 5.04868031e-01 5.21759748e-01 5.37316799e-01 5.58203220e-01 5.83238244e-01 6.12369955e-01 6.46326959e-01 6.86434567e-01 7.34255314e-01 7.91225553e-01 8.53940487e-01 9.10074532e-01 9.47317660e-01 9.61878657e-01 9.35549617e-01 4.98479873e-01 3.46877687e-02 3.98673192e-02 1.54660195e-01 6.03354037e-01 6.50839508e-01 5.90606332e-01 5.03054976e-01 5.24346173e-01 5.33078074e-01 5.52311301e-01 2.06808541e-02 2.16704837e-04 2.38435488e-04 2.13016123e-01 4.34251845e-01 5.11428177e-01 5.15292227e-01 5.20131946e-01 5.29576242e-01 5.44683874e-01 5.66048503e-01 5.93488932e-01 6.26967788e-01 6.67338192e-01 7.17293322e-01 7.78187156e-01 8.42970252e-01 8.97616446e-01 9.31844890e-01 9.40838516e-01 9.07421231e-01 8.44234765e-01 8.82412374e-01 9.36330378e-01 9.51790810e-01 8.61543417e-01 5.89530408e-01 5.01883626e-01 5.24443805e-01 5.30534625e-01 5.60142100e-01 2.55736470e-01 2.10921877e-04 2.14572807e-04 7.67820179e-02 4.44513768e-01 5.16995847e-01 5.08547127e-01 5.03463387e-01 5.01972258e-01 5.06835461e-01 5.18982947e-01 5.37040234e-01 5.59213638e-01 5.84707677e-01 6.15084946e-01 6.54039025e-01 7.03800738e-01 7.61406779e-01 8.18554938e-01 8.63893330e-01 8.89557958e-01 9.04370248e-01 9.21277940e-01 9.32521939e-01 9.41402256e-01 8.80436242e-01 5.92072129e-01 5.03696084e-01 5.21527886e-01 5.32979786e-01 5.57433546e-01 3.63039702e-01 2.32632359e-04 2.11846622e-04 9.95898806e-03 4.74065006e-01 5.21801353e-01 5.01830220e-01 4.88683403e-01 4.78701919e-01 4.75263834e-01 4.79119152e-01 4.87769216e-01 4.97723073e-01 5.06515980e-01 5.14013112e-01 5.22685349e-01 5.36435127e-01 5.59016049e-01 5.92993557e-01 6.36978149e-01 6.82432592e-01 7.21742868e-01 7.56191909e-01 7.88748205e-01 8.15383375e-01 7.99624443e-01 5.99238157e-01 5.09503007e-01 5.17009854e-01 5.30479312e-01 5.65123022e-01 4.65967089e-01 2.92145734e-04 2.00544964e-04 8.95574107e-04 5.08468390e-01 5.25982678e-01 4.95982051e-01 4.77994710e-01 4.63916659e-01 4.55947161e-01 4.54472542e-01 4.56629962e-01 4.57883656e-01 4.54637855e-01 4.45868403e-01 4.33169067e-01 4.19423670e-01 4.07076567e-01 3.97615820e-01 3.92436415e-01 3.92825931e-01 4.02409583e-01 4.34067041e-01 4.96841431e-01 5.59191883e-01 6.62591934e-01 6.11914158e-01 5.25907874e-01 5.24596035e-01 5.24391353e-01 5.55491149e-01 6.37425840e-01 6.68050488e-04 1.83174867e-04 2.80063396e-04 5.06679416e-01 5.23630321e-01 4.90412623e-01 4.72864211e-01 4.60448116e-01 4.52494949e-01 4.49417889e-01 4.48805958e-01 4.45847213e-01 4.36186403e-01 4.17812347e-01 3.91193122e-01 3.58219117e-01 3.20777386e-01 2.80850381e-01 2.44096026e-01 2.21495569e-01 2.20698327e-01 2.42611587e-01 2.98122555e-01 3.84210736e-01 5.61540008e-01 6.28586054e-01 5.63850343e-01 5.73781431e-01 5.74156046e-01 5.84630370e-01 6.62551641e-01 6.99284598e-02 1.72364322e-04 1.97277943e-04 5.50359607e-01 5.02316296e-01 4.82698351e-01 4.75043744e-01 4.71349299e-01 4.69318867e-01 4.67799067e-01 4.64728951e-01 4.57230747e-01 4.42319006e-01 4.17027712e-01 3.78446132e-01 3.25142711e-01 2.60124087e-01 1.93333596e-01 1.40084609e-01 1.12926021e-01 1.13991976e-01 1.35489225e-01 1.65950820e-01 2.18850046e-01 4.97578353e-01 6.73019052e-01 6.40274227e-01 6.52811348e-01 6.62093282e-01 6.77151740e-01 7.02377439e-01 9.40850496e-01 2.41607093e-04 2.00847804e-04 6.80829108e-01 5.82345963e-01 5.82676470e-01 5.85530162e-01 5.90642214e-01 5.96678853e-01 6.00031912e-01 5.98075151e-01 5.90336323e-01 5.77077270e-01 5.57374597e-01 5.28246462e-01 4.85223323e-01 4.24855530e-01 3.50094169e-01 2.76433349e-01 2.28666723e-01 2.24533141e-01 2.62957156e-01 3.10061306e-01 3.29848588e-01 4.80877757e-01 
