# vtk DataFile Version 2.0
results_case1_non_linear/6_density.vtk, Created by Freefem++ 
ASCII
DATASET UNSTRUCTURED_GRID
POINTS 961 float
0 0 0
0.033333333 0 0
0.066666667 0 0
0.1 0 0
0.13333333 0 0
0.16666667 0 0
0.2 0 0
0.23333333 0 0
0.26666667 0 0
0.3 0 0
0.33333333 0 0
0.36666667 0 0
0.4 0 0
0.43333333 0 0
0.46666667 0 0
0.5 0 0
0.53333333 0 0
0.56666667 0 0
0.6 0 0
0.63333333 0 0
0.66666667 0 0
0.7 0 0
0.73333333 0 0
0.76666667 0 0
0.8 0 0
0.83333333 0 0
0.86666667 0 0
0.9 0 0
0.93333333 0 0
0.96666667 0 0
1 0 0
0 0.033333333 0
0.033333333 0.033333333 0
0.066666667 0.033333333 0
0.1 0.033333333 0
0.13333333 0.033333333 0
0.16666667 0.033333333 0
0.2 0.033333333 0
0.23333333 0.033333333 0
0.26666667 0.033333333 0
0.3 0.033333333 0
0.33333333 0.033333333 0
0.36666667 0.033333333 0
0.4 0.033333333 0
0.43333333 0.033333333 0
0.46666667 0.033333333 0
0.5 0.033333333 0
0.53333333 0.033333333 0
0.56666667 0.033333333 0
0.6 0.033333333 0
0.63333333 0.033333333 0
0.66666667 0.033333333 0
0.7 0.033333333 0
0.73333333 0.033333333 0
0.76666667 0.033333333 0
0.8 0.033333333 0
0.83333333 0.033333333 0
0.86666667 0.033333333 0
0.9 0.033333333 0
0.93333333 0.033333333 0
0.96666667 0.033333333 0
1 0.033333333 0
0 0.066666667 0
0.033333333 0.066666667 0
0.066666667 0.066666667 0
0.1 0.066666667 0
0.13333333 0.066666667 0
0.16666667 0.066666667 0
0.2 0.066666667 0
0.23333333 0.066666667 0
0.26666667 0.066666667 0
0.3 0.066666667 0
0.33333333 0.066666667 0
0.36666667 0.066666667 0
0.4 0.066666667 0
0.43333333 0.066666667 0
0.46666667 0.066666667 0
0.5 0.066666667 0
0.53333333 0.066666667 0
0.56666667 0.066666667 0
0.6 0.066666667 0
0.63333333 0.066666667 0
0.66666667 0.066666667 0
0.7 0.066666667 0
0.73333333 0.066666667 0
0.76666667 0.066666667 0
0.8 0.066666667 0
0.83333333 0.066666667 0
0.86666667 0.066666667 0
0.9 0.066666667 0
0.93333333 0.066666667 0
0.96666667 0.066666667 0
1 0.066666667 0
0 0.1 0
0.033333333 0.1 0
0.066666667 0.1 0
0.1 0.1 0
0.13333333 0.1 0
0.16666667 0.1 0
0.2 0.1 0
0.23333333 0.1 0
0.26666667 0.1 0
0.3 0.1 0
0.33333333 0.1 0
0.36666667 0.1 0
0.4 0.1 0
0.43333333 0.1 0
0.46666667 0.1 0
0.5 0.1 0
0.53333333 0.1 0
0.56666667 0.1 0
0.6 0.1 0
0.63333333 0.1 0
0.66666667 0.1 0
0.7 0.1 0
0.73333333 0.1 0
0.76666667 0.1 0
0.8 0.1 0
0.83333333 0.1 0
0.86666667 0.1 0
0.9 0.1 0
0.93333333 0.1 0
0.96666667 0.1 0
1 0.1 0
0 0.13333333 0
0.033333333 0.13333333 0
0.066666667 0.13333333 0
0.1 0.13333333 0
0.13333333 0.13333333 0
0.16666667 0.13333333 0
0.2 0.13333333 0
0.23333333 0.13333333 0
0.26666667 0.13333333 0
0.3 0.13333333 0
0.33333333 0.13333333 0
0.36666667 0.13333333 0
0.4 0.13333333 0
0.43333333 0.13333333 0
0.46666667 0.13333333 0
0.5 0.13333333 0
0.53333333 0.13333333 0
0.56666667 0.13333333 0
0.6 0.13333333 0
0.63333333 0.13333333 0
0.66666667 0.13333333 0
0.7 0.13333333 0
0.73333333 0.13333333 0
0.76666667 0.13333333 0
0.8 0.13333333 0
0.83333333 0.13333333 0
0.86666667 0.13333333 0
0.9 0.13333333 0
0.93333333 0.13333333 0
0.96666667 0.13333333 0
1 0.13333333 0
0 0.16666667 0
0.033333333 0.16666667 0
0.066666667 0.16666667 0
0.1 0.16666667 0
0.13333333 0.16666667 0
0.16666667 0.16666667 0
0.2 0.16666667 0
0.23333333 0.16666667 0
0.26666667 0.16666667 0
0.3 0.16666667 0
0.33333333 0.16666667 0
0.36666667 0.16666667 0
0.4 0.16666667 0
0.43333333 0.16666667 0
0.46666667 0.16666667 0
0.5 0.16666667 0
0.53333333 0.16666667 0
0.56666667 0.16666667 0
0.6 0.16666667 0
0.63333333 0.16666667 0
0.66666667 0.16666667 0
0.7 0.16666667 0
0.73333333 0.16666667 0
0.76666667 0.16666667 0
0.8 0.16666667 0
0.83333333 0.16666667 0
0.86666667 0.16666667 0
0.9 0.16666667 0
0.93333333 0.16666667 0
0.96666667 0.16666667 0
1 0.16666667 0
0 0.2 0
0.033333333 0.2 0
0.066666667 0.2 0
0.1 0.2 0
0.13333333 0.2 0
0.16666667 0.2 0
0.2 0.2 0
0.23333333 0.2 0
0.26666667 0.2 0
0.3 0.2 0
0.33333333 0.2 0
0.36666667 0.2 0
0.4 0.2 0
0.43333333 0.2 0
0.46666667 0.2 0
0.5 0.2 0
0.53333333 0.2 0
0.56666667 0.2 0
0.6 0.2 0
0.63333333 0.2 0
0.66666667 0.2 0
0.7 0.2 0
0.73333333 0.2 0
0.76666667 0.2 0
0.8 0.2 0
0.83333333 0.2 0
0.86666667 0.2 0
0.9 0.2 0
0.93333333 0.2 0
0.96666667 0.2 0
1 0.2 0
0 0.23333333 0
0.033333333 0.23333333 0
0.066666667 0.23333333 0
0.1 0.23333333 0
0.13333333 0.23333333 0
0.16666667 0.23333333 0
0.2 0.23333333 0
0.23333333 0.23333333 0
0.26666667 0.23333333 0
0.3 0.23333333 0
0.33333333 0.23333333 0
0.36666667 0.23333333 0
0.4 0.23333333 0
0.43333333 0.23333333 0
0.46666667 0.23333333 0
0.5 0.23333333 0
0.53333333 0.23333333 0
0.56666667 0.23333333 0
0.6 0.23333333 0
0.63333333 0.23333333 0
0.66666667 0.23333333 0
0.7 0.23333333 0
0.73333333 0.23333333 0
0.76666667 0.23333333 0
0.8 0.23333333 0
0.83333333 0.23333333 0
0.86666667 0.23333333 0
0.9 0.23333333 0
0.93333333 0.23333333 0
0.96666667 0.23333333 0
1 0.23333333 0
0 0.26666667 0
0.033333333 0.26666667 0
0.066666667 0.26666667 0
0.1 0.26666667 0
0.13333333 0.26666667 0
0.16666667 0.26666667 0
0.2 0.26666667 0
0.23333333 0.26666667 0
0.26666667 0.26666667 0
0.3 0.26666667 0
0.33333333 0.26666667 0
0.36666667 0.26666667 0
0.4 0.26666667 0
0.43333333 0.26666667 0
0.46666667 0.26666667 0
0.5 0.26666667 0
0.53333333 0.26666667 0
0.56666667 0.26666667 0
0.6 0.26666667 0
0.63333333 0.26666667 0
0.66666667 0.26666667 0
0.7 0.26666667 0
0.73333333 0.26666667 0
0.76666667 0.26666667 0
0.8 0.26666667 0
0.83333333 0.26666667 0
0.86666667 0.26666667 0
0.9 0.26666667 0
0.93333333 0.26666667 0
0.96666667 0.26666667 0
1 0.26666667 0
0 0.3 0
0.033333333 0.3 0
0.066666667 0.3 0
0.1 0.3 0
0.13333333 0.3 0
0.16666667 0.3 0
0.2 0.3 0
0.23333333 0.3 0
0.26666667 0.3 0
0.3 0.3 0
0.33333333 0.3 0
0.36666667 0.3 0
0.4 0.3 0
0.43333333 0.3 0
0.46666667 0.3 0
0.5 0.3 0
0.53333333 0.3 0
0.56666667 0.3 0
0.6 0.3 0
0.63333333 0.3 0
0.66666667 0.3 0
0.7 0.3 0
0.73333333 0.3 0
0.76666667 0.3 0
0.8 0.3 0
0.83333333 0.3 0
0.86666667 0.3 0
0.9 0.3 0
0.93333333 0.3 0
0.96666667 0.3 0
1 0.3 0
0 0.33333333 0
0.033333333 0.33333333 0
0.066666667 0.33333333 0
0.1 0.33333333 0
0.13333333 0.33333333 0
0.16666667 0.33333333 0
0.2 0.33333333 0
0.23333333 0.33333333 0
0.26666667 0.33333333 0
0.3 0.33333333 0
0.33333333 0.33333333 0
0.36666667 0.33333333 0
0.4 0.33333333 0
0.43333333 0.33333333 0
0.46666667 0.33333333 0
0.5 0.33333333 0
0.53333333 0.33333333 0
0.56666667 0.33333333 0
0.6 0.33333333 0
0.63333333 0.33333333 0
0.66666667 0.33333333 0
0.7 0.33333333 0
0.73333333 0.33333333 0
0.76666667 0.33333333 0
0.8 0.33333333 0
0.83333333 0.33333333 0
0.86666667 0.33333333 0
0.9 0.33333333 0
0.93333333 0.33333333 0
0.96666667 0.33333333 0
1 0.33333333 0
0 0.36666667 0
0.033333333 0.36666667 0
0.066666667 0.36666667 0
0.1 0.36666667 0
0.13333333 0.36666667 0
0.16666667 0.36666667 0
0.2 0.36666667 0
0.23333333 0.36666667 0
0.26666667 0.36666667 0
0.3 0.36666667 0
0.33333333 0.36666667 0
0.36666667 0.36666667 0
0.4 0.36666667 0
0.43333333 0.36666667 0
0.46666667 0.36666667 0
0.5 0.36666667 0
0.53333333 0.36666667 0
0.56666667 0.36666667 0
0.6 0.36666667 0
0.63333333 0.36666667 0
0.66666667 0.36666667 0
0.7 0.36666667 0
0.73333333 0.36666667 0
0.76666667 0.36666667 0
0.8 0.36666667 0
0.83333333 0.36666667 0
0.86666667 0.36666667 0
0.9 0.36666667 0
0.93333333 0.36666667 0
0.96666667 0.36666667 0
1 0.36666667 0
0 0.4 0
0.033333333 0.4 0
0.066666667 0.4 0
0.1 0.4 0
0.13333333 0.4 0
0.16666667 0.4 0
0.2 0.4 0
0.23333333 0.4 0
0.26666667 0.4 0
0.3 0.4 0
0.33333333 0.4 0
0.36666667 0.4 0
0.4 0.4 0
0.43333333 0.4 0
0.46666667 0.4 0
0.5 0.4 0
0.53333333 0.4 0
0.56666667 0.4 0
0.6 0.4 0
0.63333333 0.4 0
0.66666667 0.4 0
0.7 0.4 0
0.73333333 0.4 0
0.76666667 0.4 0
0.8 0.4 0
0.83333333 0.4 0
0.86666667 0.4 0
0.9 0.4 0
0.93333333 0.4 0
0.96666667 0.4 0
1 0.4 0
0 0.43333333 0
0.033333333 0.43333333 0
0.066666667 0.43333333 0
0.1 0.43333333 0
0.13333333 0.43333333 0
0.16666667 0.43333333 0
0.2 0.43333333 0
0.23333333 0.43333333 0
0.26666667 0.43333333 0
0.3 0.43333333 0
0.33333333 0.43333333 0
0.36666667 0.43333333 0
0.4 0.43333333 0
0.43333333 0.43333333 0
0.46666667 0.43333333 0
0.5 0.43333333 0
0.53333333 0.43333333 0
0.56666667 0.43333333 0
0.6 0.43333333 0
0.63333333 0.43333333 0
0.66666667 0.43333333 0
0.7 0.43333333 0
0.73333333 0.43333333 0
0.76666667 0.43333333 0
0.8 0.43333333 0
0.83333333 0.43333333 0
0.86666667 0.43333333 0
0.9 0.43333333 0
0.93333333 0.43333333 0
0.96666667 0.43333333 0
1 0.43333333 0
0 0.46666667 0
0.033333333 0.46666667 0
0.066666667 0.46666667 0
0.1 0.46666667 0
0.13333333 0.46666667 0
0.16666667 0.46666667 0
0.2 0.46666667 0
0.23333333 0.46666667 0
0.26666667 0.46666667 0
0.3 0.46666667 0
0.33333333 0.46666667 0
0.36666667 0.46666667 0
0.4 0.46666667 0
0.43333333 0.46666667 0
0.46666667 0.46666667 0
0.5 0.46666667 0
0.53333333 0.46666667 0
0.56666667 0.46666667 0
0.6 0.46666667 0
0.63333333 0.46666667 0
0.66666667 0.46666667 0
0.7 0.46666667 0
0.73333333 0.46666667 0
0.76666667 0.46666667 0
0.8 0.46666667 0
0.83333333 0.46666667 0
0.86666667 0.46666667 0
0.9 0.46666667 0
0.93333333 0.46666667 0
0.96666667 0.46666667 0
1 0.46666667 0
0 0.5 0
0.033333333 0.5 0
0.066666667 0.5 0
0.1 0.5 0
0.13333333 0.5 0
0.16666667 0.5 0
0.2 0.5 0
0.23333333 0.5 0
0.26666667 0.5 0
0.3 0.5 0
0.33333333 0.5 0
0.36666667 0.5 0
0.4 0.5 0
0.43333333 0.5 0
0.46666667 0.5 0
0.5 0.5 0
0.53333333 0.5 0
0.56666667 0.5 0
0.6 0.5 0
0.63333333 0.5 0
0.66666667 0.5 0
0.7 0.5 0
0.73333333 0.5 0
0.76666667 0.5 0
0.8 0.5 0
0.83333333 0.5 0
0.86666667 0.5 0
0.9 0.5 0
0.93333333 0.5 0
0.96666667 0.5 0
1 0.5 0
0 0.53333333 0
0.033333333 0.53333333 0
0.066666667 0.53333333 0
0.1 0.53333333 0
0.13333333 0.53333333 0
0.16666667 0.53333333 0
0.2 0.53333333 0
0.23333333 0.53333333 0
0.26666667 0.53333333 0
0.3 0.53333333 0
0.33333333 0.53333333 0
0.36666667 0.53333333 0
0.4 0.53333333 0
0.43333333 0.53333333 0
0.46666667 0.53333333 0
0.5 0.53333333 0
0.53333333 0.53333333 0
0.56666667 0.53333333 0
0.6 0.53333333 0
0.63333333 0.53333333 0
0.66666667 0.53333333 0
0.7 0.53333333 0
0.73333333 0.53333333 0
0.76666667 0.53333333 0
[...]
CELL_DATA 1920
Scalars  Label int 1
LOOKUP_TABLE FreeFempp_table
0
0
0
0
0
0
0
0
0
0
0
0
0
0
0
0
0
0
0
0
0
0
0
0
0
0
0
0
0
0
0
0
0
0
0
0
0
0
0
0
0
0
0
0
0
0
0
0
0
0
0
0
0
0
0
0
0
0
0
0
0
0
0
0
0
0
0
0
0
0
0
0
0
0
0
0
0
0
0
0
0
0
0
0
0
0
0
0
0
0
0
0
0
0
0
0
0
0
0
0
0
0
0
0
0
0
0
0
0
0
0
0
0
0
0
0
0
0
0
0
0
0
0
0
0
0
0
0
0
0
0
0
0
0
0
0
0
0
0
0
0
0
0
0
0
0
0
0
0
0
0
0
0
0
0
0
0
0
0
0
0
0
0
0
0
0
0
0
0
0
0
0
0
0
0
0
0
0
0
0
0
0
0
0
0
0
0
0
0
0
0
0
0
0
0
0
0
0
0
0
0
0
0
0
0
0
0
0
0
0
0
0
0
0
0
0
0
0
0
0
0
0
0
0
0
0
0
0
0
0
0
0
0
0
0
0
0
0
0
0
0
0
0
0
0
0
0
0
0
0
0
0
0
0
0
0
0
0
0
0
0
0
0
0
0
0
0
0
0
0
0
0
0
0
0
0
0
0
0
0
0
0
0
0
0
0
0
0
0
0
0
0
0
0
0
0
0
0
0
0
0
0
0
0
0
0
0
0
0
0
0
0
0
0
0
0
0
0
0
0
0
0
0
0
0
0
0
0
0
0
0
0
0
0
0
0
0
0
0
0
0
0
0
0
0
0
0
0
0
0
0
0
0
0
0
0
0
0
0
0
0
0
0
0
0
0
0
0
0
0
0
0
0
0
0
0
0
0
0
0
0
0
0
0
0
0
0
0
0
0
0
0
0
0
0
0
0
0
0
0
0
0
0
0
0
0
0
0
0
0
0
0
0
0
0
0
0
0
0
0
0
0
0
0
0
0
0
0
0
0
0
0
0
0
0
0
0
0
0
0
0
0
0
0
0
0
0
0
0
0
0
0
0
0
0
0
0
0
0
0
0
0
0
0
0
0
0
0
0
0
0
0
0
0
0
0
0
0
0
0
0
0
0
0
0
0
0
0
0
0
0
0
0
0
0
0
0
0
0
0
0
0
0
0
0
0
0
0
0
0
0
0
0
0
0
0
0
0
0
0
0
0
0
0
0
0
0
0
0
0
0
0
0
0
0
0
0
0
0
0
0
0
0
0
0
0
0
0
0
0
0
0
0
0
0
0
0
0
0
0
0
0
0
0
0
0
0
0
0
0
0
0
0
0
0
0
0
0
0
0
0
0
0
0
0
0
0
0
0
0
0
0
0
0
0
0
0
0
0
0
0
0
0
0
0
0
0
0
0
0
0
0
0
0
0
0
0
0
0
0
0
0
0
0
0
0
0
0
0
0
0
0
0
0
0
0
0
0
0
0
0
0
0
0
0
0
0
0
0
0
0
0
0
0
0
0
0
0
0
0
0
0
0
0
0
0
0
0
0
0
0
0
0
0
0
0
0
0
0
0
0
0
0
0
0
0
0
0
0
0
0
0
0
0
0
0
0
0
0
0
0
0
0
0
0
0
0
0
0
0
0
0
0
0
0
0
0
0
0
0
0
0
0
0
0
0
0
0
0
0
0
0
0
0
0
0
0
0
0
0
0
0
0
0
0
0
0
0
0
0
0
0
0
0
0
0
0
0
0
0
0
0
0
0
0
0
0
0
0
0
0
0
0
0
0
0
0
0
0
0
0
0
0
0
0
0
0
0
0
0
0
0
0
0
0
0
0
0
0
0
0
0
0
0
0
0
0
0
0
0
0
0
0
0
0
0
0
0
0
0
0
0
0
0
0
0
0
0
0
0
0
0
0
0
0
0
0
0
0
0
0
0
0
0
0
0
0
0
0
0
0
0
0
0
0
0
0
0
0
0
0
0
0
0
0
0
0
0
0
0
0
0
0
0
0
0
0
0
0
0
0
0
0
0
0
0
0
0
0
0
0
0
0
0
0
0
0
0
0
0
0
0
0
0
0
0
0
0
0
0
0
0
0
0
0
0
0
0
0
0
0
0
0
0
0
0
0
0
0
0
0
0
0
0
0
0
0
0
0
0
0
0
0
0
0
0
0
0
0
0
0
0
0
0
0
0
0
0
0
0
0
0
0
0
0
0
0
0
0
0
0
0
0
0
0
0
0
0
0
0
0
0
0
0
0
0
0
0
0
0
0
0
0
0
0
0
0
0
0
0
0
0
0
0
0
0
0
0
0
0
0
0
0
0
0
0
0
0
0
0
0
0
0
0
0
0
0
0
0
0
0
0
0
0
0
0
0
0
0
0
0
0
0
0
0
0
0
0
0
0
0
0
0
0
0
0
0
0
0
0
0
0
0
0
0
0
0
0
0
0
0
0
0
0
0
0
0
0
0
0
0
0
0
0
0
0
0
0
0
0
0
0
0
0
0
0
0
0
0
0
0
0
0
0
0
0
0
0
0
0
0
0
0
0
0
0
0
0
0
0
0
0
0
0
0
0
0
0
0
0
0
0
0
0
0
0
0
0
0
0
0
0
0
0
0
0
0
0
0
0
0
0
0
0
0
0
0
0
0
0
0
0
0
0
0
0
0
0
0
0
0
0
0
0
0
0
0
0
0
0
0
0
0
0
0
0
0
0
0
0
0
0
0
0
0
0
0
0
0
0
0
0
0
0
0
0
0
0
0
0
0
0
0
0
0
0
0
0
0
0
0
0
0
0
0
0
0
0
0
0
0
0
0
0
0
0
0
0
0
0
0
0
0
0
0
0
0
0
0
0
0
0
0
0
0
0
0
0
0
0
0
0
0
0
0
0
0
0
0
0
0
0
0
0
0
0
0
0
0
0
0
0
0
0
0
0
0
0
0
0
0
0
0
0
0
0
0
0
0
0
0
0
0
0
0
0
0
0
0
0
0
0
0
0
0
0
0
0
0
0
0
0
0
0
0
0
0
0
0
0
0
0
0
0
0
0
0
0
0
0
0
0
0
0
0
0
0
0
0
0
0
0
0
0
0
0
0
0
0
0
0
0
0
0
0
0
0
0
0
0
0
0
0
0
0
0
0
0
0
0
0
0
0
0
0
0
0
0
0
0
0
0
0
0
0
0
0
0
0
0
0
0
0
0
0
0
0
0
0
0
0
0
0
0
0
0
0
0
0
0
0
0
0
0
0
0
0
0
0
0
0
0
0
0
0
0
0
0
0
0
0
0
0
0
0
0
0
0
0
0
0
0
0
0
0
0
0
0
0
0
0
0
0
0
0
0
0
0
0
0
0
0
0
0
0
0
0
0
0
0
0
0
0
0
0
0
0
0
0
0
0
0
0
0
0
0
0
0
0
0
0
0
0
0
0
0
0
0
0
0
0
0
0
0
0
0
0
0
0
0
0
0
0
0
0
0
0
0
0
0
0
0
0
0
0
0
0
0
0
0
0
0
0
0
0
0
0
0
0
0
0
0
0
0
0
0
0
0
0
0
0
0
0
0
0
0
0
0
0
0
0
0
0
0
0
0
0
0
0
0
0
0
0
0
0
0
0
0
0
0
0
0
0
0
0
0
0
0
0
0
0
0
0
0
0
0
0
0
0
0
0
0
0
0
0
0
0
0
0
0
0
0
0
0
0
0
0
0
0
0
0
0
0
0
0
0
0
0
0
0
0
0
0
0
0
0
0
0
0
0
0
0
0
0
0
0
0
0
0
0
0
0
0
0
0
0
0
0
0
0
0
0
0
0
0
0
0
0
0
0
0
0
0
0
0
0
0
0
0
0
0
0
0
0
0
0
0
0
0
0
0
0
0
0
0
0
0
0
0
0
0
0
0
0
0
0
0
0
0
0
0
0
0
0
0
0
0
0
0
0
0
0
0
0
0
0
0
0
0
0
0
0
0
0
0
0
0
0
0
0
0
0
0
0
0
0
0
0
0
0
0
0
0
0
0
0
0
0
0
0
0
0
0
0
0
0
0
0
0
0
0
0
0
0
0
0
0
0
0
0
0
0
0
0
0
0
0
0
0
0
1
1
1
1
1
1
1
1
1
1
1
1
1
1
1
1
1
1
1
1
1
1
1
1
1
1
1
1
1
1
2
2
2
2
2
2
2
2
2
2
2
2
2
2
2
2
2
2
2
2
2
2
2
2
2
2
2
2
2
2
3
3
3
3
3
3
3
3
3
3
3
3
3
3
3
3
3
3
3
3
3
3
3
3
3
3
3
3
3
3
4
4
4
4
4
4
4
4
4
4
4
4
4
4
4
4
4
4
4
4
4
4
4
4
4
4
4
4
4
4

LOOKUP_TABLE FreeFempp_table 5
1.00000000 0.00000000 0.00000000 1.00000000
1.00000000 1.00000000 0.00000000 1.00000000
1.00000000 0.00000000 1.00000000 1.00000000
0.00000000 1.00000000 0.00000000 1.00000000
0.00000000 1.00000000 1.00000000 1.00000000

POINT_DATA 961
FIELD FieldData 1
Density 1 961 float
4.40791667e-01 4.35993403e-01 4.90153104e-01 5.02714515e-01 5.05419135e-01 5.07358015e-01 4.93021548e-01 1.78823963e-01 4.75612050e-03 6.76794956e-03 2.38473371e-01 4.62092012e-01 4.85443771e-01 4.91004467e-01 5.13975620e-01 6.05104208e-01 7.49309242e-01 7.67095029e-01 6.25666916e-01 5.92244089e-01 6.59421980e-01 6.72203720e-01 6.64604604e-01 6.48921788e-01 6.36483073e-01 6.28065825e-01 6.22486830e-01 6.18431568e-01 6.15847290e-01 6.15168512e-01 6.02058411e-01 5.18938759e-04 3.43980677e-02 3.93667579e-01 4.30459768e-01 4.32937384e-01 4.33416992e-01 4.16224748e-01 2.10825995e-01 4.66378639e-03 3.37404315e-03 7.49768913e-02 3.85482579e-01 4.17988598e-01 4.19482023e-01 4.32121634e-01 5.41051149e-01 8.02730918e-01 8.54482532e-01 5.23865938e-01 3.91904891e-01 6.67303085e-01 7.50985146e-01 7.50772238e-01 7.25867927e-01 6.96278393e-01 6.66481853e-01 6.47250354e-01 6.37201548e-01 6.30443394e-01 6.26127303e-01 6.13543868e-01 5.46767900e-04 4.78153990e-04 7.66512821e-04 7.60301133e-04 7.74399086e-04 7.91657658e-04 7.86940800e-04 7.79232301e-04 7.68301892e-04 7.86924618e-04 5.02797426e-04 4.43552345e-01 4.47128564e-01 4.42781866e-01 4.29059863e-01 4.62240338e-01 7.50394642e-01 6.10475898e-01 1.78362075e-02 3.84049788e-02 1.29138783e-01 3.29362869e-01 5.21061063e-01 6.16995931e-01 6.60071492e-01 6.60952091e-01 6.29298329e-01 6.05981529e-01 5.96903801e-01 5.88679969e-01 5.98451257e-01 2.69917130e-01 3.40602215e-04 8.15596431e-04 7.50830106e-04 7.64617580e-04 7.83922791e-04 7.90645659e-04 7.79566530e-04 7.75820576e-04 8.09873978e-04 3.41505744e-04 4.14234644e-04 6.09722745e-04 6.60551654e-04 6.81733771e-04 3.94505948e-01 5.48399687e-01 9.47765946e-01 3.23551632e-02 1.88153591e-02 1.59554631e-02 1.38598625e-02 1.51687805e-02 2.18339488e-02 7.03329742e-02 2.78884441e-01 5.50805509e-01 5.50535977e-01 5.39147615e-01 5.32979071e-01 5.71590543e-01 4.73578066e-01 3.48816007e-01 3.28527004e-01 3.32239151e-01 3.36783558e-01 3.43067020e-01 3.51526260e-01 3.62737775e-01 3.77331614e-01 3.94523591e-01 3.96416992e-01 3.70946829e-04 7.29814637e-04 5.96861180e-04 4.61916701e-04 4.92931111e-04 8.69003707e-04 7.63700344e-04 9.96193349e-01 2.72200238e-02 1.68273561e-02 8.56702030e-03 3.49383755e-03 2.27710186e-03 1.74998667e-03 1.63467415e-03 1.35158328e-03 3.84643108e-01 4.87474531e-01 4.85155225e-01 5.44790924e-01 4.97604162e-01 3.81599367e-01 3.64702523e-01 3.64101171e-01 3.65232557e-01 3.68160784e-01 3.72033119e-01 3.76272529e-01 3.80282819e-01 3.83518040e-01 3.79414678e-01 3.52665901e-01 3.46878380e-01 3.84738415e-01 3.82985830e-01 7.36085174e-04 8.89993040e-04 5.40063833e-04 5.61126915e-04 9.94945705e-01 3.84006016e-02 1.93377659e-02 9.08140000e-03 3.33783822e-03 2.16235803e-03 1.76563882e-03 9.43754974e-04 9.10695759e-04 3.33959281e-01 4.62932020e-01 5.28629959e-01 5.32722712e-01 4.46042418e-01 4.42073286e-01 4.41001475e-01 4.38807279e-01 4.36737657e-01 4.34547454e-01 4.31550831e-01 4.27611709e-01 4.23526257e-01 4.18856531e-01 4.06211048e-01 3.84306401e-01 3.87834460e-01 3.88076752e-01 3.75508487e-01 3.83025378e-01 4.01028216e-01 6.28331618e-04 6.70970476e-04 9.48234677e-01 3.60792801e-02 9.44176391e-02 2.72352070e-01 5.16906440e-01 5.19381940e-01 1.14583172e-01 9.32637427e-04 8.38071574e-04 3.81263107e-01 5.21841824e-01 5.68450034e-01 5.17619729e-01 5.16490698e-01 5.15149474e-01 5.12172043e-01 5.07922053e-01 5.02826571e-01 4.96754944e-01 4.89952534e-01 4.83171344e-01 4.76648331e-01 4.67766643e-01 4.54335123e-01 4.41621274e-01 4.32376832e-01 4.18010920e-01 4.02910143e-01 4.04092520e-01 3.99199158e-01 6.98904740e-04 7.32159591e-04 9.26356256e-01 8.31646383e-01 9.25573289e-01 8.21107507e-01 5.54709621e-02 6.14374042e-01 1.80701047e-01 8.32429330e-04 1.19129964e-03 5.14324605e-01 6.01318300e-01 5.85980356e-01 5.85382283e-01 5.83015323e-01 5.79721153e-01 5.75178921e-01 5.69587648e-01 5.63011110e-01 5.55749595e-01 5.48216105e-01 5.40595114e-01 5.31964421e-01 5.20998955e-01 5.08418441e-01 4.95734721e-01 4.80453759e-01 4.61440116e-01 4.41736251e-01 4.11342710e-01 3.84815425e-01 7.64499593e-04 7.93066283e-04 5.97930968e-01 5.85604906e-01 6.00741319e-02 6.82483567e-03 1.52759217e-02 9.52936292e-01 1.32214965e-03 1.36540353e-03 5.10681152e-01 6.28094494e-01 6.42766356e-01 6.41393185e-01 6.38526320e-01 6.35142446e-01 6.30892932e-01 6.25816464e-01 6.19926989e-01 6.13389015e-01 6.06418490e-01 5.99225104e-01 5.91692448e-01 5.83403885e-01 5.74224114e-01 5.64297795e-01 5.52892447e-01 5.38825989e-01 5.21635056e-01 4.96066511e-01 4.50192273e-01 4.09933686e-01 7.97183893e-04 8.54860758e-04 1.75015104e-03 2.30742665e-03 3.49036464e-03 1.90209020e-02 9.87188458e-01 1.46130857e-03 1.37011311e-03 5.19583583e-01 6.46158695e-01 6.82486534e-01 6.79954052e-01 6.76994026e-01 6.73782051e-01 6.69937849e-01 6.65503383e-01 6.60458028e-01 6.54853880e-01 6.48840189e-01 6.42685592e-01 6.36632025e-01 6.30754590e-01 6.24991119e-01 6.19297981e-01 6.13560557e-01 6.07499421e-01 6.00816071e-01 5.91937840e-01 5.74948668e-01 5.40507674e-01 5.10562837e-01 1.30878587e-03 1.55239773e-03 1.80422666e-03 2.51905457e-03 4.54108790e-03 9.31483924e-01 1.27678795e-03 8.22616334e-04 5.16437769e-01 6.54039025e-01 7.03069329e-01 6.99728489e-01 6.96814775e-01 6.93864346e-01 6.90439880e-01 6.86537921e-01 6.82112813e-01 6.77176178e-01 6.71864569e-01 6.66465759e-01 6.61319792e-01 6.56658888e-01 6.52529895e-01 6.48922741e-01 6.45872414e-01 6.43433273e-01 6.41840041e-01 6.41614318e-01 6.43009007e-01 6.44342363e-01 6.50894165e-01 6.86446369e-01 5.97130597e-01 1.78522259e-01 9.02599692e-02 2.19778251e-02 2.02474482e-02 9.91721690e-01 7.85667333e-04 1.04630995e-03 6.51388407e-01 7.04410374e-01 7.00914979e-01 6.98089123e-01 6.95490241e-01 6.92570925e-01 6.89211130e-01 6.85299098e-01 6.80820823e-01 6.75901771e-01 6.70804024e-01 6.65837109e-01 6.61214948e-01 6.56975031e-01 6.53054416e-01 6.49369895e-01 6.45824254e-01 6.42461061e-01 6.39674187e-01 6.38097465e-01 6.38427198e-01 6.42184734e-01 6.72823846e-01 7.45161593e-01 7.80591846e-01 5.12590110e-01 6.42489940e-02 3.52263674e-02 9.82630193e-01 3.12643894e-03 1.48002012e-03 6.38789892e-01 6.86764300e-01 6.83639288e-01 6.80981696e-01 6.78983092e-01 6.76925182e-01 6.74441218e-01 6.71289742e-01 6.67401731e-01 6.62869990e-01 6.57902658e-01 6.52729988e-01 6.47488654e-01 6.42164230e-01 6.36642098e-01 6.30775332e-01 6.24437749e-01 6.17679656e-01 6.10837281e-01 6.04194045e-01 5.97256541e-01 5.88080883e-01 5.74925244e-01 5.69764256e-01 5.97285450e-01 5.77423990e-01 3.26251894e-01 1.68069437e-01 9.82308984e-01 2.92875315e-03 2.74536340e-03 6.17830634e-01 6.50776327e-01 6.47805572e-01 6.45487309e-01 6.44587517e-01 6.44074857e-01 6.43189192e-01 6.41466916e-01 6.38743520e-01 6.35053694e-01 6.30526960e-01 6.25289202e-01 6.19380951e-01 6.12736702e-01 6.05246484e-01 5.96860468e-01 5.87737083e-01 5.78473568e-01 5.70210159e-01 5.64171493e-01 5.60434520e-01 5.56056857e-01 5.43165445e-01 5.10443866e-01 4.57420796e-01 4.07299995e-01 4.51058507e-01 7.36951172e-01 9.74888265e-01 3.14344047e-03 2.88715912e-03 5.91078103e-01 5.98329067e-01 5.93615294e-01 5.92019916e-01 5.93215108e-01 5.95334768e-01 5.97083807e-01 5.97793818e-01 5.97238481e-01 5.95393538e-01 5.92273951e-01 5.87855995e-01 5.82051516e-01 5.74735522e-01 5.65835416e-01 5.55480123e-01 5.44233263e-01 5.33393264e-01 5.25102139e-01 5.21790862e-01 5.24648368e-01 5.31376541e-01 5.34491718e-01 5.22597730e-01 4.88787264e-01 4.67570454e-01 6.08920813e-01 8.80259395e-01 9.50221241e-01 3.49063263e-03 3.20493151e-03 5.62102318e-01 5.33505082e-01 5.22578716e-01 5.22383928e-01 5.27405679e-01 5.33708572e-01 5.39254367e-01 5.43445528e-01 5.46271563e-01 5.47737598e-01 5.47683597e-01 5.45826018e-01 5.41855216e-01 5.35535336e-01 5.26818871e-01 5.16007781e-01 5.04001617e-01 4.92601842e-01 4.84619379e-01 4.83322084e-01 4.90896225e-01 5.06353259e-01 5.24755597e-01 5.40892422e-01 5.59488058e-01 6.22016251e-01 8.00388277e-01 9.29560602e-01 8.91647100e-01 3.76077229e-03 3.52601404e-03 5.35148621e-01 4.62569386e-01 4.38559115e-01 4.41018820e-01 4.52433586e-01 4.64517802e-01 4.74516928e-01 4.82639134e-01 4.89733279e-01 4.96034890e-01 5.01078069e-01 5.04083216e-01 5.04318833e-01 5.01315773e-01 4.95000660e-01 4.85838592e-01 4.75034624e-01 4.64771390e-01 4.58316773e-01 4.59624052e-01 4.72078770e-01 4.96866852e-01 5.32879233e-01 5.80857694e-01 6.50530040e-01 7.63998687e-01 8.89770925e-01 9.34456170e-01 4.56813067e-01 4.12127748e-03 3.78143741e-03 5.14679551e-01 3.92291546e-01 3.47908169e-01 3.54938835e-01 3.76124710e-01 3.95092815e-01 4.08729941e-01 4.19711053e-01 4.30926412e-01 4.43099350e-01 4.55153197e-01 4.65375990e-01 4.72277313e-01 4.74975765e-01 4.73324597e-01 4.68011767e-01 4.60723639e-01 4.54291284e-01 4.52702105e-01 4.60809290e-01 4.83376771e-01 5.23593009e-01 5.82542360e-01 6.60949230e-01 7.57667840e-01 8.56304646e-01 9.20247555e-01 8.61226022e-01 5.56484424e-02 4.83744545e-03 4.18844773e-03 5.05132318e-01 3.27251196e-01 2.58151770e-01 2.72048980e-01 3.06766033e-01 3.33104312e-01 3.47509801e-01 3.58151674e-01 3.71903986e-01 3.90201241e-01 4.10799652e-01 4.30374891e-01 4.46178585e-01 4.56713945e-01 4.61812407e-01 4.62582558e-01 4.61524576e-01 4.62680995e-01 4.71426755e-01 4.93758172e-01 5.34963131e-01 5.97043455e-01 6.75937891e-01 7.62322128e-01 8.42211783e-01 8.97125125e-01 8.99272621e-01 3.42460483e-01 2.05029640e-02 6.79514278e-03 5.34279225e-03 5.10540009e-01 2.68265545e-01 1.76399201e-01 1.98586881e-01 2.50619978e-01 2.84735858e-01 2.94961572e-01 3.00116122e-01 3.13691974e-01 3.37720722e-01 3.68060678e-01 3.98971260e-01 4.25761163e-01 4.46025342e-01 4.59761083e-01 4.68962520e-01 4.77376461e-01 4.90595728e-01 5.15664041e-01 5.59059262e-01 6.23046279e-01 7.01441646e-01 7.78739154e-01 8.40264201e-01 8.78662407e-01 8.85963261e-01 6.74339831e-01 6.28406778e-02 1.26271136e-02 9.31919459e-03 9.56990849e-03 5.33909142e-01 2.13242695e-01 1.08847290e-01 1.37675777e-01 2.10677341e-01 2.53890634e-01 2.52936333e-01 2.46508583e-01 2.57132381e-01 2.86214769e-01 3.27158421e-01 3.71302724e-01 4.11230922e-01 4.43066120e-01 4.67019886e-01 4.86561209e-01 5.07240415e-01 5.35927951e-01 5.79881907e-01 6.43216193e-01 7.20557928e-01 7.95507669e-01 8.50062907e-01 8.75584900e-01 8.63101721e-01 7.36215651e-01 1.74087152e-01 2.77615655e-02 1.19229099e-02 1.14456248e-02 2.19580512e-02 5.75518668e-01 1.60522953e-01 6.05753921e-02 8.99390727e-02 1.87411070e-01 2.42476270e-01 2.20698670e-01 1.97477013e-01 2.03808367e-01 2.37250134e-01 2.88975924e-01 3.47751498e-01 4.02869225e-01 4.48150188e-01 4.83515143e-01 5.13923764e-01 5.47088087e-01 5.90804875e-01 6.49991632e-01 7.22614765e-01 7.96378255e-01 8.53913009e-01 8.83915901e-01 8.77025604e-01 7.75098205e-01 3.41089398e-01 5.31487688e-02 1.96043756e-02 1.50280837e-02 1.70400981e-02 8.01331252e-02 6.30128741e-01 1.12827346e-01 3.31829675e-02 5.53350113e-02 1.80926502e-01 2.50449449e-01 1.94704011e-01 1.53046533e-01 1.56242847e-01 1.93442240e-01 2.55063325e-01 3.28424543e-01 3.99602473e-01 4.59631562e-01 5.07285714e-01 5.47965050e-01 5.90736449e-01 6.43868625e-01 7.09318101e-01 7.79294789e-01 8.40054095e-01 8.80636215e-01 8.94161284e-01 8.60854447e-01 6.47252262e-01 1.46071330e-01 3.66852395e-02 2.15258040e-02 2.18921863e-02 3.66561152e-02 2.13047490e-01 6.86593711e-01 7.67525509e-02 2.15380397e-02 3.38179208e-02 1.92754522e-01 2.73748428e-01 1.69029787e-01 1.13681085e-01 1.16838507e-01 1.57394111e-01 2.27297619e-01 3.13019961e-01 3.98309529e-01 4.72419351e-01 5.32663941e-01 5.83099604e-01 6.31855190e-01 6.86564624e-01 7.48326004e-01 8.09171259e-01 8.57971132e-01 8.87745380e-01 8.92069280e-01 8.43578815e-01 5.87503135e-01 1.31155327e-01 4.00405601e-02 3.53324786e-02 4.68568951e-02 1.10241361e-01 3.59560758e-01 7.32609987e-01 5.59147410e-02 1.71442106e-02 2.33520884e-02 2.24750891e-01 3.01024199e-01 1.38533071e-01 8.05674940e-02 8.64051655e-02 1.30213559e-01 2.07051530e-01 3.00854117e-01 3.94544959e-01 4.78927165e-01 5.50835252e-01 6.11181557e-01 6.64425969e-01 7.16171682e-01 7.68604577e-01 8.18045914e-01 8.57635558e-01 8.81565630e-01 8.82573485e-01 8.34179103e-01 6.18336380e-01 2.12383896e-01 8.44917595e-02 9.64946449e-02 1.79754198e-01 3.49006265e-01 5.05063355e-01 7.60730088e-01 4.74487618e-02 1.49688199e-02 1.92420166e-02 2.72460073e-01 3.16341430e-01 1.04657069e-01 5.50888330e-02 6.38182759e-02 1.10907383e-01 1.93928689e-01 2.89842099e-01 3.83108467e-01 4.71117407e-01 5.52383065e-01 6.23643160e-01 6.83361709e-01 7.33429015e-01 7.76990771e-01 8.15278530e-01 8.46469879e-01 8.66343081e-01 8.67662370e-01 8.31328273e-01 6.95876598e-01 4.27569211e-01 2.85480320e-01 3.40996027e-01 5.05110145e-01 6.46784306e-01 6.30967796e-01 7.65168190e-01 4.69267480e-02 1.35163022e-02 1.72813181e-02 3.10407817e-01 3.08490485e-01 7.56979138e-02 3.74236107e-02 4.67856936e-02 9.62978527e-02 1.83384970e-01 2.73871005e-01 3.58187765e-01 4.43552822e-01 5.31457365e-01 6.14977717e-01 6.85659647e-01 7.39959598e-01 7.79859900e-01 8.09534907e-01 8.32019925e-01 8.47337186e-01 8.51535797e-01 8.34687412e-01 7.76153266e-01 6.71255887e-01 6.08112991e-01 6.55084848e-01 7.41405308e-01 8.05078268e-01 7.15003550e-01 7.46728897e-01 5.36628105e-02 1.22200260e-02 1.53264832e-02 3.17306548e-01 2.90468603e-01 5.89470267e-02 2.61895526e-02 3.30316536e-02 8.39674771e-02 1.74022034e-01 2.52014190e-01 3.21050048e-01 3.97308767e-01 4.84699756e-01 5.76316178e-01 6.60302877e-01 7.27546215e-01 7.75938332e-01 8.08739245e-01 8.30838323e-01 8.46064568e-01 8.55665505e-01 8.57438087e-01 8.46204400e-01 8.21907759e-01 8.02838385e-01 8.07330370e-01 8.24178398e-01 8.46028328e-01 7.50729084e-01 6.93805754e-01 9.20334831e-02 1.03541519e-02 1.35581251e-02 2.21092463e-01 2.41288275e-01 5.59640750e-02 2.02028751e-02 2.39301976e-02 6.21054620e-02 1.31787479e-01 1.90033078e-01 2.46653900e-01 3.18380892e-01 4.09434766e-01 5.15192270e-01 6.23432338e-01 7.19149232e-01 7.92612791e-01 8.42834413e-01 8.74364197e-01 8.92747700e-01 9.02138770e-01 9.04634476e-01 9.00167227e-01 8.87277305e-01 8.65427434e-01 8.37325692e-01 8.08909893e-01 7.97999680e-01 7.32745349e-01 6.16486609e-01 3.11765820e-01 2.09873263e-02 1.50486743e-02 2.94614077e-01 3.30964297e-01 1.15610108e-01 3.59937884e-02 2.92751994e-02 8.18861127e-02 1.89914122e-01 2.62701780e-01 3.25124651e-01 3.93273711e-01 4.66975063e-01 5.41707575e-01 6.12456501e-01 6.75373316e-01 7.28267550e-01 7.70226121e-01 8.01049113e-01 8.20897579e-01 8.30105007e-01 8.29020917e-01 8.17909539e-01 7.96956599e-01 7.66284287e-01 7.27139473e-01 6.85925484e-01 6.53409481e-01 6.42968833e-01 
