# vtk DataFile Version 2.0
results/3_density.vtk, Created by Freefem++ 
ASCII
DATASET UNSTRUCTURED_GRID
POINTS 961 float
0 0 0
0.033333333 0 0
0.066666667 0 0
0.1 0 0
0.13333333 0 0
0.16666667 0 0
0.2 0 0
0.23333333 0 0
0.26666667 0 0
0.3 0 0
0.33333333 0 0
0.36666667 0 0
0.4 0 0
0.43333333 0 0
0.46666667 0 0
0.5 0 0
0.53333333 0 0
0.56666667 0 0
0.6 0 0
0.63333333 0 0
0.66666667 0 0
0.7 0 0
0.73333333 0 0
0.76666667 0 0
0.8 0 0
0.83333333 0 0
0.86666667 0 0
0.9 0 0
0.93333333 0 0
0.96666667 0 0
1 0 0
0 0.033333333 0
0.033333333 0.033333333 0
0.066666667 0.033333333 0
0.1 0.033333333 0
0.13333333 0.033333333 0
0.16666667 0.033333333 0
0.2 0.033333333 0
0.23333333 0.033333333 0
0.26666667 0.033333333 0
0.3 0.033333333 0
0.33333333 0.033333333 0
0.36666667 0.033333333 0
0.4 0.033333333 0
0.43333333 0.033333333 0
0.46666667 0.033333333 0
0.5 0.033333333 0
0.53333333 0.033333333 0
0.56666667 0.033333333 0
0.6 0.033333333 0
0.63333333 0.033333333 0
0.66666667 0.033333333 0
0.7 0.033333333 0
0.73333333 0.033333333 0
0.76666667 0.033333333 0
0.8 0.033333333 0
0.83333333 0.033333333 0
0.86666667 0.033333333 0
0.9 0.033333333 0
0.93333333 0.033333333 0
0.96666667 0.033333333 0
1 0.033333333 0
0 0.066666667 0
0.033333333 0.066666667 0
0.066666667 0.066666667 0
0.1 0.066666667 0
0.13333333 0.066666667 0
0.16666667 0.066666667 0
0.2 0.066666667 0
0.23333333 0.066666667 0
0.26666667 0.066666667 0
0.3 0.066666667 0
0.33333333 0.066666667 0
0.36666667 0.066666667 0
0.4 0.066666667 0
0.43333333 0.066666667 0
0.46666667 0.066666667 0
0.5 0.066666667 0
0.53333333 0.066666667 0
0.56666667 0.066666667 0
0.6 0.066666667 0
0.63333333 0.066666667 0
0.66666667 0.066666667 0
0.7 0.066666667 0
0.73333333 0.066666667 0
0.76666667 0.066666667 0
0.8 0.066666667 0
0.83333333 0.066666667 0
0.86666667 0.066666667 0
0.9 0.066666667 0
0.93333333 0.066666667 0
0.96666667 0.066666667 0
1 0.066666667 0
0 0.1 0
0.033333333 0.1 0
0.066666667 0.1 0
0.1 0.1 0
0.13333333 0.1 0
0.16666667 0.1 0
0.2 0.1 0
0.23333333 0.1 0
0.26666667 0.1 0
0.3 0.1 0
0.33333333 0.1 0
0.36666667 0.1 0
0.4 0.1 0
0.43333333 0.1 0
0.46666667 0.1 0
0.5 0.1 0
0.53333333 0.1 0
0.56666667 0.1 0
0.6 0.1 0
0.63333333 0.1 0
0.66666667 0.1 0
0.7 0.1 0
0.73333333 0.1 0
0.76666667 0.1 0
0.8 0.1 0
0.83333333 0.1 0
0.86666667 0.1 0
0.9 0.1 0
0.93333333 0.1 0
0.96666667 0.1 0
1 0.1 0
0 0.13333333 0
0.033333333 0.13333333 0
0.066666667 0.13333333 0
0.1 0.13333333 0
0.13333333 0.13333333 0
0.16666667 0.13333333 0
0.2 0.13333333 0
0.23333333 0.13333333 0
0.26666667 0.13333333 0
0.3 0.13333333 0
0.33333333 0.13333333 0
0.36666667 0.13333333 0
0.4 0.13333333 0
0.43333333 0.13333333 0
0.46666667 0.13333333 0
0.5 0.13333333 0
0.53333333 0.13333333 0
0.56666667 0.13333333 0
0.6 0.13333333 0
0.63333333 0.13333333 0
0.66666667 0.13333333 0
0.7 0.13333333 0
0.73333333 0.13333333 0
0.76666667 0.13333333 0
0.8 0.13333333 0
0.83333333 0.13333333 0
0.86666667 0.13333333 0
0.9 0.13333333 0
0.93333333 0.13333333 0
0.96666667 0.13333333 0
1 0.13333333 0
0 0.16666667 0
0.033333333 0.16666667 0
0.066666667 0.16666667 0
0.1 0.16666667 0
0.13333333 0.16666667 0
0.16666667 0.16666667 0
0.2 0.16666667 0
0.23333333 0.16666667 0
0.26666667 0.16666667 0
0.3 0.16666667 0
0.33333333 0.16666667 0
0.36666667 0.16666667 0
0.4 0.16666667 0
0.43333333 0.16666667 0
0.46666667 0.16666667 0
0.5 0.16666667 0
0.53333333 0.16666667 0
0.56666667 0.16666667 0
0.6 0.16666667 0
0.63333333 0.16666667 0
0.66666667 0.16666667 0
0.7 0.16666667 0
0.73333333 0.16666667 0
0.76666667 0.16666667 0
0.8 0.16666667 0
0.83333333 0.16666667 0
0.86666667 0.16666667 0
0.9 0.16666667 0
0.93333333 0.16666667 0
0.96666667 0.16666667 0
1 0.16666667 0
0 0.2 0
0.033333333 0.2 0
0.066666667 0.2 0
0.1 0.2 0
0.13333333 0.2 0
0.16666667 0.2 0
0.2 0.2 0
0.23333333 0.2 0
0.26666667 0.2 0
0.3 0.2 0
0.33333333 0.2 0
0.36666667 0.2 0
0.4 0.2 0
0.43333333 0.2 0
0.46666667 0.2 0
0.5 0.2 0
0.53333333 0.2 0
0.56666667 0.2 0
0.6 0.2 0
0.63333333 0.2 0
0.66666667 0.2 0
0.7 0.2 0
0.73333333 0.2 0
0.76666667 0.2 0
0.8 0.2 0
0.83333333 0.2 0
0.86666667 0.2 0
0.9 0.2 0
0.93333333 0.2 0
0.96666667 0.2 0
1 0.2 0
0 0.23333333 0
0.033333333 0.23333333 0
0.066666667 0.23333333 0
0.1 0.23333333 0
0.13333333 0.23333333 0
0.16666667 0.23333333 0
0.2 0.23333333 0
0.23333333 0.23333333 0
0.26666667 0.23333333 0
0.3 0.23333333 0
0.33333333 0.23333333 0
0.36666667 0.23333333 0
0.4 0.23333333 0
0.43333333 0.23333333 0
0.46666667 0.23333333 0
0.5 0.23333333 0
0.53333333 0.23333333 0
0.56666667 0.23333333 0
0.6 0.23333333 0
0.63333333 0.23333333 0
0.66666667 0.23333333 0
0.7 0.23333333 0
0.73333333 0.23333333 0
0.76666667 0.23333333 0
0.8 0.23333333 0
0.83333333 0.23333333 0
0.86666667 0.23333333 0
0.9 0.23333333 0
0.93333333 0.23333333 0
0.96666667 0.23333333 0
1 0.23333333 0
0 0.26666667 0
0.033333333 0.26666667 0
0.066666667 0.26666667 0
0.1 0.26666667 0
0.13333333 0.26666667 0
0.16666667 0.26666667 0
0.2 0.26666667 0
0.23333333 0.26666667 0
0.26666667 0.26666667 0
0.3 0.26666667 0
0.33333333 0.26666667 0
0.36666667 0.26666667 0
0.4 0.26666667 0
0.43333333 0.26666667 0
0.46666667 0.26666667 0
0.5 0.26666667 0
0.53333333 0.26666667 0
0.56666667 0.26666667 0
0.6 0.26666667 0
0.63333333 0.26666667 0
0.66666667 0.26666667 0
0.7 0.26666667 0
0.73333333 0.26666667 0
0.76666667 0.26666667 0
0.8 0.26666667 0
0.83333333 0.26666667 0
0.86666667 0.26666667 0
0.9 0.26666667 0
0.93333333 0.26666667 0
0.96666667 0.26666667 0
1 0.26666667 0
0 0.3 0
0.033333333 0.3 0
0.066666667 0.3 0
0.1 0.3 0
0.13333333 0.3 0
0.16666667 0.3 0
0.2 0.3 0
0.23333333 0.3 0
0.26666667 0.3 0
0.3 0.3 0
0.33333333 0.3 0
0.36666667 0.3 0
0.4 0.3 0
0.43333333 0.3 0
0.46666667 0.3 0
0.5 0.3 0
0.53333333 0.3 0
0.56666667 0.3 0
0.6 0.3 0
0.63333333 0.3 0
0.66666667 0.3 0
0.7 0.3 0
0.73333333 0.3 0
0.76666667 0.3 0
0.8 0.3 0
0.83333333 0.3 0
0.86666667 0.3 0
0.9 0.3 0
0.93333333 0.3 0
0.96666667 0.3 0
1 0.3 0
0 0.33333333 0
0.033333333 0.33333333 0
0.066666667 0.33333333 0
0.1 0.33333333 0
0.13333333 0.33333333 0
0.16666667 0.33333333 0
0.2 0.33333333 0
0.23333333 0.33333333 0
0.26666667 0.33333333 0
0.3 0.33333333 0
0.33333333 0.33333333 0
0.36666667 0.33333333 0
0.4 0.33333333 0
0.43333333 0.33333333 0
0.46666667 0.33333333 0
0.5 0.33333333 0
0.53333333 0.33333333 0
0.56666667 0.33333333 0
0.6 0.33333333 0
0.63333333 0.33333333 0
0.66666667 0.33333333 0
0.7 0.33333333 0
0.73333333 0.33333333 0
0.76666667 0.33333333 0
0.8 0.33333333 0
0.83333333 0.33333333 0
0.86666667 0.33333333 0
0.9 0.33333333 0
0.93333333 0.33333333 0
0.96666667 0.33333333 0
1 0.33333333 0
0 0.36666667 0
0.033333333 0.36666667 0
0.066666667 0.36666667 0
0.1 0.36666667 0
0.13333333 0.36666667 0
0.16666667 0.36666667 0
0.2 0.36666667 0
0.23333333 0.36666667 0
0.26666667 0.36666667 0
0.3 0.36666667 0
0.33333333 0.36666667 0
0.36666667 0.36666667 0
0.4 0.36666667 0
0.43333333 0.36666667 0
0.46666667 0.36666667 0
0.5 0.36666667 0
0.53333333 0.36666667 0
0.56666667 0.36666667 0
0.6 0.36666667 0
0.63333333 0.36666667 0
0.66666667 0.36666667 0
0.7 0.36666667 0
0.73333333 0.36666667 0
0.76666667 0.36666667 0
0.8 0.36666667 0
0.83333333 0.36666667 0
0.86666667 0.36666667 0
0.9 0.36666667 0
0.93333333 0.36666667 0
0.96666667 0.36666667 0
1 0.36666667 0
0 0.4 0
0.033333333 0.4 0
0.066666667 0.4 0
0.1 0.4 0
0.13333333 0.4 0
0.16666667 0.4 0
0.2 0.4 0
0.23333333 0.4 0
0.26666667 0.4 0
0.3 0.4 0
0.33333333 0.4 0
0.36666667 0.4 0
0.4 0.4 0
0.43333333 0.4 0
0.46666667 0.4 0
0.5 0.4 0
0.53333333 0.4 0
0.56666667 0.4 0
0.6 0.4 0
0.63333333 0.4 0
0.66666667 0.4 0
0.7 0.4 0
0.73333333 0.4 0
0.76666667 0.4 0
0.8 0.4 0
0.83333333 0.4 0
0.86666667 0.4 0
0.9 0.4 0
0.93333333 0.4 0
0.96666667 0.4 0
1 0.4 0
0 0.43333333 0
0.033333333 0.43333333 0
0.066666667 0.43333333 0
0.1 0.43333333 0
0.13333333 0.43333333 0
0.16666667 0.43333333 0
0.2 0.43333333 0
0.23333333 0.43333333 0
0.26666667 0.43333333 0
0.3 0.43333333 0
0.33333333 0.43333333 0
0.36666667 0.43333333 0
0.4 0.43333333 0
0.43333333 0.43333333 0
0.46666667 0.43333333 0
0.5 0.43333333 0
0.53333333 0.43333333 0
0.56666667 0.43333333 0
0.6 0.43333333 0
0.63333333 0.43333333 0
0.66666667 0.43333333 0
0.7 0.43333333 0
0.73333333 0.43333333 0
0.76666667 0.43333333 0
0.8 0.43333333 0
0.83333333 0.43333333 0
0.86666667 0.43333333 0
0.9 0.43333333 0
0.93333333 0.43333333 0
0.96666667 0.43333333 0
1 0.43333333 0
0 0.46666667 0
0.033333333 0.46666667 0
0.066666667 0.46666667 0
0.1 0.46666667 0
0.13333333 0.46666667 0
0.16666667 0.46666667 0
0.2 0.46666667 0
0.23333333 0.46666667 0
0.26666667 0.46666667 0
0.3 0.46666667 0
0.33333333 0.46666667 0
0.36666667 0.46666667 0
0.4 0.46666667 0
0.43333333 0.46666667 0
0.46666667 0.46666667 0
0.5 0.46666667 0
0.53333333 0.46666667 0
0.56666667 0.46666667 0
0.6 0.46666667 0
0.63333333 0.46666667 0
0.66666667 0.46666667 0
0.7 0.46666667 0
0.73333333 0.46666667 0
0.76666667 0.46666667 0
0.8 0.46666667 0
0.83333333 0.46666667 0
0.86666667 0.46666667 0
0.9 0.46666667 0
0.93333333 0.46666667 0
0.96666667 0.46666667 0
1 0.46666667 0
0 0.5 0
0.033333333 0.5 0
0.066666667 0.5 0
0.1 0.5 0
0.13333333 0.5 0
0.16666667 0.5 0
0.2 0.5 0
0.23333333 0.5 0
0.26666667 0.5 0
0.3 0.5 0
0.33333333 0.5 0
0.36666667 0.5 0
0.4 0.5 0
0.43333333 0.5 0
0.46666667 0.5 0
0.5 0.5 0
0.53333333 0.5 0
0.56666667 0.5 0
0.6 0.5 0
0.63333333 0.5 0
0.66666667 0.5 0
0.7 0.5 0
0.73333333 0.5 0
0.76666667 0.5 0
0.8 0.5 0
0.83333333 0.5 0
0.86666667 0.5 0
0.9 0.5 0
0.93333333 0.5 0
0.96666667 0.5 0
1 0.5 0
0 0.53333333 0
0.033333333 0.53333333 0
0.066666667 0.53333333 0
0.1 0.53333333 0
0.13333333 0.53333333 0
0.16666667 0.53333333 0
0.2 0.53333333 0
0.23333333 0.53333333 0
0.26666667 0.53333333 0
0.3 0.53333333 0
0.33333333 0.53333333 0
0.36666667 0.53333333 0
0.4 0.53333333 0
0.43333333 0.53333333 0
0.46666667 0.53333333 0
0.5 0.53333333 0
0.53333333 0.53333333 0
0.56666667 0.53333333 0
0.6 0.53333333 0
0.63333333 0.53333333 0
0.66666667 0.53333333 0
0.7 0.53333333 0
0.73333333 0.53333333 0
0.76666667 0.53333333 0
0.8 0.53333333 0
[...]
CELL_DATA 1920
Scalars  Label int 1
LOOKUP_TABLE FreeFempp_table
0
0
0
0
0
0
0
0
0
0
0
0
0
0
0
0
0
0
0
0
0
0
0
0
0
0
0
0
0
0
0
0
0
0
0
0
0
0
0
0
0
0
0
0
0
0
0
0
0
0
0
0
0
0
0
0
0
0
0
0
0
0
0
0
0
0
0
0
0
0
0
0
0
0
0
0
0
0
0
0
0
0
0
0
0
0
0
0
0
0
0
0
0
0
0
0
0
0
0
0
0
0
0
0
0
0
0
0
0
0
0
0
0
0
0
0
0
0
0
0
0
0
0
0
0
0
0
0
0
0
0
0
0
0
0
0
0
0
0
0
0
0
0
0
0
0
0
0
0
0
0
0
0
0
0
0
0
0
0
0
0
0
0
0
0
0
0
0
0
0
0
0
0
0
0
0
0
0
0
0
0
0
0
0
0
0
0
0
0
0
0
0
0
0
0
0
0
0
0
0
0
0
0
0
0
0
0
0
0
0
0
0
0
0
0
0
0
0
0
0
0
0
0
0
0
0
0
0
0
0
0
0
0
0
0
0
0
0
0
0
0
0
0
0
0
0
0
0
0
0
0
0
0
0
0
0
0
0
0
0
0
0
0
0
0
0
0
0
0
0
0
0
0
0
0
0
0
0
0
0
0
0
0
0
0
0
0
0
0
0
0
0
0
0
0
0
0
0
0
0
0
0
0
0
0
0
0
0
0
0
0
0
0
0
0
0
0
0
0
0
0
0
0
0
0
0
0
0
0
0
0
0
0
0
0
0
0
0
0
0
0
0
0
0
0
0
0
0
0
0
0
0
0
0
0
0
0
0
0
0
0
0
0
0
0
0
0
0
0
0
0
0
0
0
0
0
0
0
0
0
0
0
0
0
0
0
0
0
0
0
0
0
0
0
0
0
0
0
0
0
0
0
0
0
0
0
0
0
0
0
0
0
0
0
0
0
0
0
0
0
0
0
0
0
0
0
0
0
0
0
0
0
0
0
0
0
0
0
0
0
0
0
0
0
0
0
0
0
0
0
0
0
0
0
0
0
0
0
0
0
0
0
0
0
0
0
0
0
0
0
0
0
0
0
0
0
0
0
0
0
0
0
0
0
0
0
0
0
0
0
0
0
0
0
0
0
0
0
0
0
0
0
0
0
0
0
0
0
0
0
0
0
0
0
0
0
0
0
0
0
0
0
0
0
0
0
0
0
0
0
0
0
0
0
0
0
0
0
0
0
0
0
0
0
0
0
0
0
0
0
0
0
0
0
0
0
0
0
0
0
0
0
0
0
0
0
0
0
0
0
0
0
0
0
0
0
0
0
0
0
0
0
0
0
0
0
0
0
0
0
0
0
0
0
0
0
0
0
0
0
0
0
0
0
0
0
0
0
0
0
0
0
0
0
0
0
0
0
0
0
0
0
0
0
0
0
0
0
0
0
0
0
0
0
0
0
0
0
0
0
0
0
0
0
0
0
0
0
0
0
0
0
0
0
0
0
0
0
0
0
0
0
0
0
0
0
0
0
0
0
0
0
0
0
0
0
0
0
0
0
0
0
0
0
0
0
0
0
0
0
0
0
0
0
0
0
0
0
0
0
0
0
0
0
0
0
0
0
0
0
0
0
0
0
0
0
0
0
0
0
0
0
0
0
0
0
0
0
0
0
0
0
0
0
0
0
0
0
0
0
0
0
0
0
0
0
0
0
0
0
0
0
0
0
0
0
0
0
0
0
0
0
0
0
0
0
0
0
0
0
0
0
0
0
0
0
0
0
0
0
0
0
0
0
0
0
0
0
0
0
0
0
0
0
0
0
0
0
0
0
0
0
0
0
0
0
0
0
0
0
0
0
0
0
0
0
0
0
0
0
0
0
0
0
0
0
0
0
0
0
0
0
0
0
0
0
0
0
0
0
0
0
0
0
0
0
0
0
0
0
0
0
0
0
0
0
0
0
0
0
0
0
0
0
0
0
0
0
0
0
0
0
0
0
0
0
0
0
0
0
0
0
0
0
0
0
0
0
0
0
0
0
0
0
0
0
0
0
0
0
0
0
0
0
0
0
0
0
0
0
0
0
0
0
0
0
0
0
0
0
0
0
0
0
0
0
0
0
0
0
0
0
0
0
0
0
0
0
0
0
0
0
0
0
0
0
0
0
0
0
0
0
0
0
0
0
0
0
0
0
0
0
0
0
0
0
0
0
0
0
0
0
0
0
0
0
0
0
0
0
0
0
0
0
0
0
0
0
0
0
0
0
0
0
0
0
0
0
0
0
0
0
0
0
0
0
0
0
0
0
0
0
0
0
0
0
0
0
0
0
0
0
0
0
0
0
0
0
0
0
0
0
0
0
0
0
0
0
0
0
0
0
0
0
0
0
0
0
0
0
0
0
0
0
0
0
0
0
0
0
0
0
0
0
0
0
0
0
0
0
0
0
0
0
0
0
0
0
0
0
0
0
0
0
0
0
0
0
0
0
0
0
0
0
0
0
0
0
0
0
0
0
0
0
0
0
0
0
0
0
0
0
0
0
0
0
0
0
0
0
0
0
0
0
0
0
0
0
0
0
0
0
0
0
0
0
0
0
0
0
0
0
0
0
0
0
0
0
0
0
0
0
0
0
0
0
0
0
0
0
0
0
0
0
0
0
0
0
0
0
0
0
0
0
0
0
0
0
0
0
0
0
0
0
0
0
0
0
0
0
0
0
0
0
0
0
0
0
0
0
0
0
0
0
0
0
0
0
0
0
0
0
0
0
0
0
0
0
0
0
0
0
0
0
0
0
0
0
0
0
0
0
0
0
0
0
0
0
0
0
0
0
0
0
0
0
0
0
0
0
0
0
0
0
0
0
0
0
0
0
0
0
0
0
0
0
0
0
0
0
0
0
0
0
0
0
0
0
0
0
0
0
0
0
0
0
0
0
0
0
0
0
0
0
0
0
0
0
0
0
0
0
0
0
0
0
0
0
0
0
0
0
0
0
0
0
0
0
0
0
0
0
0
0
0
0
0
0
0
0
0
0
0
0
0
0
0
0
0
0
0
0
0
0
0
0
0
0
0
0
0
0
0
0
0
0
0
0
0
0
0
0
0
0
0
0
0
0
0
0
0
0
0
0
0
0
0
0
0
0
0
0
0
0
0
0
0
0
0
0
0
0
0
0
0
0
0
0
0
0
0
0
0
0
0
0
0
0
0
0
0
0
0
0
0
0
0
0
0
0
0
0
0
0
0
0
0
0
0
0
0
0
0
0
0
0
0
0
0
0
0
0
0
0
0
0
0
0
0
0
0
0
0
0
0
0
0
0
0
0
0
0
0
0
0
0
0
0
0
0
0
0
0
0
0
0
0
0
0
0
0
0
0
0
0
0
0
0
0
0
0
0
0
0
0
0
0
0
0
0
0
0
0
0
0
0
0
0
0
0
0
0
0
0
0
0
0
0
0
0
0
0
0
0
0
0
0
0
0
0
0
0
0
0
0
0
0
0
0
0
0
0
0
0
0
0
0
0
0
0
0
0
0
0
0
0
0
0
0
0
0
0
0
0
0
0
0
0
0
0
0
0
0
0
0
0
0
0
0
0
0
0
0
0
0
0
0
0
0
0
0
0
0
0
0
0
0
0
0
0
0
0
0
0
0
0
0
0
0
0
0
0
0
0
0
0
0
0
0
0
0
0
0
0
0
0
0
0
0
0
0
0
0
0
0
0
0
0
0
0
0
0
0
0
0
0
0
0
0
0
0
0
0
0
0
0
0
0
0
0
0
0
0
0
0
0
0
0
0
0
0
0
0
0
0
0
0
0
0
0
0
0
0
0
0
0
0
0
0
0
0
0
0
0
0
0
0
0
0
0
0
0
0
0
0
0
0
0
0
0
0
0
0
0
0
0
0
0
0
0
0
0
0
0
0
0
0
0
0
0
0
0
0
0
0
0
0
0
0
0
0
0
0
0
0
0
0
0
0
0
0
0
0
0
0
0
0
0
0
0
0
0
0
0
0
0
0
0
0
0
0
0
0
0
0
0
0
0
0
0
0
0
0
0
0
0
0
0
0
0
0
0
0
0
0
0
0
0
0
0
1
1
1
1
1
1
1
1
1
1
1
1
1
1
1
1
1
1
1
1
1
1
1
1
1
1
1
1
1
1
2
2
2
2
2
2
2
2
2
2
2
2
2
2
2
2
2
2
2
2
2
2
2
2
2
2
2
2
2
2
3
3
3
3
3
3
3
3
3
3
3
3
3
3
3
3
3
3
3
3
3
3
3
3
3
3
3
3
3
3
4
4
4
4
4
4
4
4
4
4
4
4
4
4
4
4
4
4
4
4
4
4
4
4
4
4
4
4
4
4

LOOKUP_TABLE FreeFempp_table 5
1.00000000 0.00000000 0.00000000 1.00000000
1.00000000 1.00000000 0.00000000 1.00000000
1.00000000 0.00000000 1.00000000 1.00000000
0.00000000 1.00000000 0.00000000 1.00000000
0.00000000 1.00000000 1.00000000 1.00000000

POINT_DATA 961
FIELD FieldData 1
Density 1 961 float
1.64725378e-01 1.64168134e-01 1.64107576e-01 1.65723532e-01 1.71301275e-01 1.83482990e-01 2.00835183e-01 2.19003141e-01 2.32941613e-01 2.42140874e-01 2.47978762e-01 2.51695752e-01 2.55412102e-01 2.61442691e-01 2.69764841e-01 2.78157324e-01 2.86324084e-01 2.94630051e-01 3.02631140e-01 3.08309495e-01 3.09175074e-01 3.05048674e-01 2.99320757e-01 2.93389201e-01 2.75921792e-01 2.50036985e-01 2.58464247e-01 3.11259776e-01 3.86084229e-01 4.37242091e-01 4.50060189e-01 1.61892116e-01 1.62025928e-01 1.61188006e-01 1.61833197e-01 1.66116059e-01 1.76228032e-01 1.92752898e-01 2.11645365e-01 2.25889757e-01 2.34476760e-01 2.39599958e-01 2.42562622e-01 2.45661333e-01 2.52120972e-01 2.61645019e-01 2.70007640e-01 2.77458489e-01 2.85054296e-01 2.92947680e-01 2.99464285e-01 3.01787794e-01 2.98872888e-01 2.93436468e-01 2.88231283e-01 2.74474651e-01 2.49694750e-01 2.54816234e-01 3.04052114e-01 3.82609636e-01 4.37874526e-01 4.53485608e-01 1.84908196e-01 1.82466060e-01 1.78385928e-01 1.75583348e-01 1.76862881e-01 1.83377787e-01 1.94640651e-01 2.07984269e-01 2.18919113e-01 2.25172520e-01 2.27377579e-01 2.27058366e-01 2.26836845e-01 2.30593145e-01 2.40830570e-01 2.47853726e-01 2.52583593e-01 2.57584304e-01 2.64039755e-01 2.71448731e-01 2.77223498e-01 2.78895617e-01 2.77171195e-01 2.74951369e-01 2.66264200e-01 2.45809823e-01 2.48910755e-01 2.94559062e-01 3.75408530e-01 4.34179217e-01 4.51434642e-01 2.38804206e-01 2.35821471e-01 2.27662653e-01 2.19836950e-01 2.17758566e-01 2.22446889e-01 2.31700182e-01 2.42274538e-01 2.50551313e-01 2.54068732e-01 2.51762211e-01 2.44902015e-01 2.36774400e-01 2.30175152e-01 2.27940232e-01 2.25982919e-01 2.23693982e-01 2.23242238e-01 2.25527361e-01 2.30698317e-01 2.38143459e-01 2.45303929e-01 2.50644177e-01 2.54066318e-01 2.51811475e-01 2.38138810e-01 2.41500974e-01 2.85561174e-01 3.67608696e-01 4.28434789e-01 4.46446419e-01 2.86839724e-01 2.86567062e-01 2.83423454e-01 2.80854702e-01 2.83017188e-01 2.91832715e-01 3.04873079e-01 3.18204641e-01 3.27843845e-01 3.30691814e-01 3.24914753e-01 3.09391916e-01 2.90603429e-01 2.69946426e-01 2.54164249e-01 2.39331394e-01 2.26003289e-01 2.15556800e-01 2.08017617e-01 2.03748167e-01 2.03782797e-01 2.08750695e-01 2.17523620e-01 2.26809070e-01 2.30820820e-01 2.25040093e-01 2.31880113e-01 2.76685655e-01 3.60062063e-01 4.22451317e-01 4.41078544e-01 3.03400606e-01 3.03913862e-01 3.01830113e-01 3.04359227e-01 3.12932193e-01 3.29845488e-01 3.52586329e-01 3.76542449e-01 3.95610929e-01 4.06119823e-01 4.06731904e-01 3.96885842e-01 3.78131419e-01 3.51755321e-01 3.27080786e-01 2.98889786e-01 2.70661592e-01 2.46066391e-01 2.24547088e-01 2.06694260e-01 1.94023415e-01 1.87835783e-01 1.89361930e-01 1.97781906e-01 2.05033094e-01 2.07172453e-01 2.20480800e-01 2.68188119e-01 3.53414536e-01 4.17314380e-01 4.36546087e-01 2.88387388e-01 2.86207348e-01 2.81389147e-01 2.83194691e-01 2.96155393e-01 3.21153373e-01 3.55935633e-01 3.95370334e-01 4.29224193e-01 4.52286392e-01 4.64281410e-01 4.66145158e-01 4.58817035e-01 4.42585200e-01 4.20571536e-01 3.91687393e-01 3.56702000e-01 3.18765193e-01 2.79974014e-01 2.43573397e-01 2.13006660e-01 1.90471575e-01 1.78036526e-01 1.75670281e-01 1.80586785e-01 1.89164892e-01 2.09901586e-01 2.61566252e-01 3.48836243e-01 4.14130211e-01 4.33916003e-01 2.59392679e-01 2.54507661e-01 2.48186573e-01 2.52923906e-01 2.71923482e-01 3.04775208e-01 3.47829401e-01 3.95711690e-01 4.39668596e-01 4.72988516e-01 4.95342880e-01 5.08056462e-01 5.12129247e-01 5.07951438e-01 4.95757878e-01 4.74353045e-01 4.43282247e-01 4.03809041e-01 3.58329564e-01 3.10179949e-01 2.62209773e-01 2.18114838e-01 1.87472418e-01 1.71822697e-01 1.69264928e-01 1.78731501e-01 2.04117596e-01 2.59033859e-01 3.47816139e-01 4.13993865e-01 4.34127003e-01 2.28875503e-01 2.23207757e-01 2.18122005e-01 2.28072360e-01 2.55364716e-01 2.97309786e-01 3.47700745e-01 3.98659408e-01 4.43952948e-01 4.80765730e-01 5.09046137e-01 5.29431224e-01 5.42217672e-01 5.47475815e-01 5.44812977e-01 5.32795370e-01 5.09904563e-01 4.75844383e-01 4.32075113e-01 3.81217897e-01 3.25363815e-01 2.67410934e-01 2.17356935e-01 1.86091989e-01 1.73894852e-01 1.79542959e-01 2.05665171e-01 2.62258112e-01 3.51605505e-01 4.17839170e-01 4.37942594e-01 2.01606855e-01 1.96282327e-01 1.94981128e-01 2.11166039e-01 2.47740015e-01 2.98904538e-01 3.54592472e-01 4.05626118e-01 4.48686719e-01 4.84435529e-01 5.14236867e-01 5.38487971e-01 5.56802988e-01 5.68676531e-01 5.73519111e-01 5.70059657e-01 5.56477666e-01 5.31347990e-01 4.94488567e-01 4.46890265e-01 3.89654517e-01 3.25445205e-01 2.63586491e-01 2.16400757e-01 1.91798583e-01 1.90671235e-01 2.14771286e-01 2.71709859e-01 3.60750765e-01 4.26261634e-01 4.45938289e-01 1.80240855e-01 1.75442964e-01 1.78793728e-01 2.01372012e-01 2.46733665e-01 3.04833621e-01 3.62641037e-01 4.12575275e-01 4.53323245e-01 4.87121075e-01 5.16142786e-01 5.41218102e-01 5.62055349e-01 5.77922046e-01 5.88064790e-01 5.91484547e-01 5.86631596e-01 5.71675360e-01 5.45039475e-01 5.05534172e-01 4.52054620e-01 3.86094421e-01 3.17267507e-01 2.57724196e-01 2.19652712e-01 2.09877014e-01 2.30413347e-01 2.86922246e-01 3.75007629e-01 4.39175606e-01 4.58170831e-01 1.65872633e-01 1.61783770e-01 1.69044226e-01 1.97401360e-01 2.50010729e-01 3.12258512e-01 3.70180547e-01 4.18453306e-01 4.57257152e-01 4.89214510e-01 5.16698956e-01 5.40908277e-01 5.62024832e-01 5.79594791e-01 5.92927337e-01 6.01223290e-01 6.03349626e-01 5.97667336e-01 5.82104266e-01 5.54093242e-01 5.10098636e-01 4.47805107e-01 3.74902368e-01 3.05262387e-01 2.54911363e-01 2.35701114e-01 2.51629740e-01 3.07089865e-01 3.93576354e-01 4.55845028e-01 4.73997712e-01 1.57429874e-01 1.54214904e-01 1.64734542e-01 1.98318601e-01 2.56350577e-01 3.20508927e-01 3.77318412e-01 4.23615515e-01 4.60492969e-01 4.90574718e-01 5.16207635e-01 5.38765788e-01 5.58814704e-01 5.76335073e-01 5.90936959e-01 6.02048635e-01 6.08895898e-01 6.10294640e-01 6.04463875e-01 5.88773727e-01 5.58906078e-01 5.08675814e-01 4.38299507e-01 3.61083716e-01 2.98328191e-01 2.68115073e-01 2.77659029e-01 3.30768824e-01 4.15029824e-01 4.75104034e-01 4.92375821e-01 1.53053790e-01 1.50954917e-01 1.64758712e-01 2.03670189e-01 2.65528679e-01 3.29623371e-01 3.84354413e-01 4.28299487e-01 4.63031143e-01 4.91021782e-01 5.14510334e-01 5.34955740e-01 5.53154290e-01 5.69422185e-01 5.83711326e-01 5.95737636e-01 6.05054736e-01 6.10973239e-01 6.12354994e-01 6.07271850e-01 5.92100859e-01 5.59910119e-01 5.03294408e-01 4.26680833e-01 3.52447808e-01 3.08133572e-01 3.07920694e-01 3.55623662e-01 4.37315077e-01 4.95754778e-01 5.12357950e-01 1.51124880e-01 1.50363520e-01 1.67807251e-01 2.12645710e-01 2.76574224e-01 3.39172572e-01 3.91172975e-01 4.32412684e-01 4.64687109e-01 4.90285188e-01 5.11314690e-01 5.29278874e-01 5.45110106e-01 5.59322238e-01 5.72114468e-01 5.83470047e-01 5.93255818e-01 6.01245344e-01 6.06990933e-01 6.09466076e-01 6.06176317e-01 5.91425002e-01 5.56065738e-01 4.94124711e-01 4.16584402e-01 3.56829673e-01 3.42974126e-01 3.80963117e-01 4.58859503e-01 5.17220616e-01 5.33670425e-01 1.50714144e-01 1.51024476e-01 1.71838284e-01 2.22531632e-01 2.87335038e-01 3.47952455e-01 3.97157639e-01 4.35530633e-01 4.65069145e-01 4.87979174e-01 5.06273448e-01 5.21475732e-01 5.34592628e-01 5.46229780e-01 5.56711197e-01 5.66194415e-01 5.74797213e-01 5.82689226e-01 5.90050399e-01 5.96745908e-01 6.01457417e-01 6.00077212e-01 5.84659457e-01 5.46033323e-01 4.81503099e-01 4.13880229e-01 3.84975255e-01 4.09896344e-01 4.80522603e-01 5.40098071e-01 5.57042718e-01 1.50472984e-01 1.51604980e-01 1.74869403e-01 2.29769975e-01 2.95575827e-01 3.54718626e-01 4.01522905e-01 4.37064737e-01 4.63695049e-01 4.83708411e-01 4.99098033e-01 5.11393368e-01 5.21624446e-01 5.30411124e-01 5.38095772e-01 5.44892251e-01 5.51055312e-01 5.57039082e-01 5.63545346e-01 5.71277857e-01 5.80141664e-01 5.87764561e-01 5.88175774e-01 5.72783470e-01 5.33845067e-01 4.76056784e-01 4.37419415e-01 4.49175984e-01 5.08241236e-01 5.66765130e-01 5.84045291e-01 1.48334667e-01 1.50928408e-01 1.76323622e-01 2.33761817e-01 3.00779253e-01 3.59020323e-01 4.03745741e-01 4.36544657e-01 4.60210741e-01 4.77251172e-01 4.89707589e-01 4.99107987e-01 5.06464601e-01 5.12353361e-01 5.17052889e-01 5.20725012e-01 5.23634613e-01 5.26381195e-01 5.30046701e-01 5.36064684e-01 5.45548022e-01 5.57955921e-01 5.69651186e-01 5.73894382e-01 5.63077688e-01 5.33762097e-01 5.02042770e-01 5.05212963e-01 5.50605178e-01 6.00268006e-01 6.15492880e-01 1.43435523e-01 1.48655340e-01 1.76806614e-01 2.36615509e-01 3.04135591e-01 3.61205548e-01 4.03769463e-01 4.33859736e-01 4.54605818e-01 4.68730003e-01 4.78352547e-01 4.85002011e-01 4.89649862e-01 4.92791355e-01 4.94588137e-01 4.95074660e-01 4.94426280e-01 4.93261993e-01 4.92883921e-01 4.95260656e-01 5.02507687e-01 5.15750766e-01 5.33728540e-01 5.52149355e-01 5.64901531e-01 5.67377865e-01 5.63138127e-01 5.70036411e-01 6.02547228e-01 6.36635065e-01 6.46808803e-01 1.38207689e-01 1.46051839e-01 1.77197233e-01 2.39408568e-01 3.06666225e-01 3.61813277e-01 4.01919693e-01 4.29320782e-01 4.47286069e-01 4.58663702e-01 4.65644747e-01 4.69770551e-01 4.71975416e-01 4.72666472e-01 4.71870840e-01 4.69464689e-01 4.65482622e-01 4.60474014e-01 4.55804378e-01 4.53716308e-01 4.56941187e-01 4.67788041e-01 4.86953467e-01 5.12643695e-01 5.40722430e-01 5.66429317e-01 5.88013589e-01 6.09730661e-01 6.36625648e-01 6.59299254e-01 6.65320396e-01 1.35720029e-01 1.45085886e-01 1.78493768e-01 2.42263824e-01 3.08600634e-01 3.61280799e-01 3.98724228e-01 4.23531860e-01 4.38959539e-01 4.47865248e-01 4.52474326e-01 4.54354227e-01 4.54430729e-01 4.53050524e-01 4.50128734e-01 4.45396304e-01 4.38738674e-01 4.30580884e-01 4.22212869e-01 4.15885568e-01 4.14521724e-01 4.21020150e-01 4.37329173e-01 4.63612258e-01 4.97810751e-01 5.35859346e-01 5.73203444e-01 6.07123017e-01 6.36123300e-01 6.55344844e-01 6.60162628e-01 1.36241004e-01 1.46580026e-01 1.81602001e-01 2.45733589e-01 3.10250640e-01 3.60050380e-01 3.94762903e-01 4.17183161e-01 4.30431336e-01 4.37256247e-01 4.39855576e-01 4.39821184e-01 4.38109130e-01 4.35063899e-01 4.30548489e-01 4.24196810e-01 4.15764868e-01 4.05521512e-01 3.94570589e-01 3.84959161e-01 3.79468620e-01 3.81109625e-01 3.92441481e-01 4.14855957e-01 4.47907656e-01 4.88722354e-01 5.32104015e-01 5.72192550e-01 6.04166567e-01 6.23984337e-01 6.29552960e-01 1.39445975e-01 1.50698617e-01 1.87373340e-01 2.50621408e-01 3.12151015e-01 3.58584762e-01 3.90554786e-01 4.10887092e-01 4.22425598e-01 4.27685350e-01 4.28753525e-01 4.27218616e-01 4.24094647e-01 4.19791937e-01 4.14204925e-01 4.06942576e-01 3.97670329e-01 3.86489570e-01 3.74247193e-01 3.62653702e-01 3.54143530e-01 3.51525754e-01 3.57514739e-01 3.74156326e-01 4.02068049e-01 4.39445227e-01 4.81489211e-01 5.21587789e-01 5.53732693e-01 5.73927939e-01 5.80470443e-01 1.44945756e-01 1.57460377e-01 1.96518257e-01 2.57379174e-01 3.14540803e-01 3.57147723e-01 3.86469096e-01 4.05107290e-01 4.15490508e-01 4.19795811e-01 4.19919640e-01 4.17399853e-01 4.13307458e-01 4.08166796e-01 4.01983708e-01 3.94423813e-01 3.85117412e-01 3.74013871e-01 3.61680001e-01 3.49434197e-01 3.39264870e-01 3.33587259e-01 3.34934622e-01 3.45558137e-01 3.66721213e-01 3.97513688e-01 4.33867574e-01 4.69489694e-01 4.98522967e-01 5.17364919e-01 5.24154484e-01 1.51772007e-01 1.65759712e-01 2.08057895e-01 2.65299946e-01 3.17049086e-01 3.55737507e-01 3.82740468e-01 4.00177509e-01 4.09982949e-01 4.13959324e-01 4.13770765e-01 4.10858691e-01 4.06320453e-01 4.00799662e-01 3.94458652e-01 3.87087852e-01 3.78347337e-01 3.68079364e-01 3.56593341e-01 3.44821543e-01 3.34285855e-01 3.26912969e-01 3.24804693e-01 3.29990417e-01 3.43935698e-01 3.66484851e-01 3.94674867e-01 4.23215270e-01 4.47054565e-01 4.63238895e-01 4.69642907e-01 1.58622265e-01 1.73711777e-01 2.18458965e-01 2.72280812e-01 3.18938792e-01 3.54307771e-01 3.79593521e-01 3.96359801e-01 4.06093806e-01 4.10277039e-01 4.10355091e-01 4.07646507e-01 4.03228790e-01 3.97826612e-01 3.91752005e-01 3.84949476e-01 3.77162963e-01 3.68188292e-01 3.58133584e-01 3.47591341e-01 3.37648690e-01 3.29735279e-01 3.25397432e-01 3.26094359e-01 3.32957506e-01 3.46235037e-01 3.64455879e-01 3.84321958e-01 4.02126610e-01 4.15303946e-01 4.21117604e-01 1.64866373e-01 1.80715516e-01 2.26466283e-01 2.77271390e-01 3.20094049e-01 3.53118420e-01 3.77334237e-01 3.93853098e-01 4.03859138e-01 4.08621550e-01 4.09413040e-01 4.07420486e-01 4.03655589e-01 3.98862958e-01 3.93453389e-01 3.87506366e-01 3.80869031e-01 3.73341709e-01 3.64897162e-01 3.55853289e-01 3.46917540e-01 3.39066774e-01 3.33307713e-01 3.30429941e-01 3.30872357e-01 3.34746540e-01 3.41926247e-01 3.52019042e-01 3.63671750e-01 3.74253899e-01 3.79606724e-01 1.70354232e-01 1.86866492e-01 2.34011009e-01 2.81697333e-01 3.21358114e-01 3.52688015e-01 3.76215965e-01 3.92691612e-01 4.03131425e-01 4.08682197e-01 4.10479486e-01 4.09571886e-01 4.06867355e-01 4.03070450e-01 3.98624212e-01 3.93691093e-01 3.88203949e-01 3.81990016e-01 3.74939293e-01 3.67157966e-01 3.59031975e-01 3.51146102e-01 3.44067007e-01 3.38086516e-01 3.33098322e-01 3.28853875e-01 3.25814605e-01 3.25997382e-01 3.31434965e-01 3.40020716e-01 3.45228910e-01 1.74914852e-01 1.91793546e-01 2.39450932e-01 2.85712212e-01 3.23128670e-01 3.53148818e-01 3.76135796e-01 3.92634094e-01 4.03572917e-01 4.10008788e-01 4.12950784e-01 4.13305044e-01 4.11852807e-01 4.09216642e-01 4.05818194e-01 4.01853323e-01 3.97311866e-01 3.92050922e-01 3.85908306e-01 3.78821224e-01 3.70899200e-01 3.62398416e-01 3.53582919e-01 3.44545901e-01 3.35140377e-01 3.25177133e-01 3.15121800e-01 3.07452291e-01 3.06534708e-01 3.12894821e-01 3.18232685e-01 1.78846925e-01 1.95973292e-01 2.44640082e-01 2.89139569e-01 3.25071484e-01 3.54170173e-01 3.76793325e-01 3.93398941e-01 4.04841304e-01 4.12092447e-01 4.16058749e-01 4.17530864e-01 4.17175949e-01 4.15526718e-01 4.12960619e-01 4.09681767e-01 4.05723512e-01 4.00980115e-01 3.95265162e-01 3.88386399e-01 3.80219042e-01 3.70747238e-01 3.60048652e-01 3.48253429e-01 3.35562408e-01 3.22339028e-01 3.09216559e-01 2.97671497e-01 2.91570485e-01 2.94408083e-01 2.99490690e-01 1.82338908e-01 1.97190940e-01 2.47689217e-01 2.91554123e-01 3.26439291e-01 3.55196238e-01 3.77726197e-01 3.94429356e-01 4.06110227e-01 4.13705826e-01 4.18089122e-01 4.20012355e-01 4.20098662e-01 4.18839633e-01 4.16587025e-01 4.13543791e-01 4.09764141e-01 4.05169994e-01 3.99583638e-01 3.92777056e-01 3.84535044e-01 3.74719292e-01 3.63315493e-01 3.50471348e-01 3.36565137e-01 3.22275370e-01 3.08507293e-01 2.96376139e-01 2.88295984e-01 2.88176268e-01 2.91776836e-01 
