# vtk DataFile Version 2.0
results/8_density.vtk, Created by Freefem++ 
ASCII
DATASET UNSTRUCTURED_GRID
POINTS 961 float
0 0 0
0.033333333 0 0
0.066666667 0 0
0.1 0 0
0.13333333 0 0
0.16666667 0 0
0.2 0 0
0.23333333 0 0
0.26666667 0 0
0.3 0 0
0.33333333 0 0
0.36666667 0 0
0.4 0 0
0.43333333 0 0
0.46666667 0 0
0.5 0 0
0.53333333 0 0
0.56666667 0 0
0.6 0 0
0.63333333 0 0
0.66666667 0 0
0.7 0 0
0.73333333 0 0
0.76666667 0 0
0.8 0 0
0.83333333 0 0
0.86666667 0 0
0.9 0 0
0.93333333 0 0
0.96666667 0 0
1 0 0
0 0.033333333 0
0.033333333 0.033333333 0
0.066666667 0.033333333 0
0.1 0.033333333 0
0.13333333 0.033333333 0
0.16666667 0.033333333 0
0.2 0.033333333 0
0.23333333 0.033333333 0
0.26666667 0.033333333 0
0.3 0.033333333 0
0.33333333 0.033333333 0
0.36666667 0.033333333 0
0.4 0.033333333 0
0.43333333 0.033333333 0
0.46666667 0.033333333 0
0.5 0.033333333 0
0.53333333 0.033333333 0
0.56666667 0.033333333 0
0.6 0.033333333 0
0.63333333 0.033333333 0
0.66666667 0.033333333 0
0.7 0.033333333 0
0.73333333 0.033333333 0
0.76666667 0.033333333 0
0.8 0.033333333 0
0.83333333 0.033333333 0
0.86666667 0.033333333 0
0.9 0.033333333 0
0.93333333 0.033333333 0
0.96666667 0.033333333 0
1 0.033333333 0
0 0.066666667 0
0.033333333 0.066666667 0
0.066666667 0.066666667 0
0.1 0.066666667 0
0.13333333 0.066666667 0
0.16666667 0.066666667 0
0.2 0.066666667 0
0.23333333 0.066666667 0
0.26666667 0.066666667 0
0.3 0.066666667 0
0.33333333 0.066666667 0
0.36666667 0.066666667 0
0.4 0.066666667 0
0.43333333 0.066666667 0
0.46666667 0.066666667 0
0.5 0.066666667 0
0.53333333 0.066666667 0
0.56666667 0.066666667 0
0.6 0.066666667 0
0.63333333 0.066666667 0
0.66666667 0.066666667 0
0.7 0.066666667 0
0.73333333 0.066666667 0
0.76666667 0.066666667 0
0.8 0.066666667 0
0.83333333 0.066666667 0
0.86666667 0.066666667 0
0.9 0.066666667 0
0.93333333 0.066666667 0
0.96666667 0.066666667 0
1 0.066666667 0
0 0.1 0
0.033333333 0.1 0
0.066666667 0.1 0
0.1 0.1 0
0.13333333 0.1 0
0.16666667 0.1 0
0.2 0.1 0
0.23333333 0.1 0
0.26666667 0.1 0
0.3 0.1 0
0.33333333 0.1 0
0.36666667 0.1 0
0.4 0.1 0
0.43333333 0.1 0
0.46666667 0.1 0
0.5 0.1 0
0.53333333 0.1 0
0.56666667 0.1 0
0.6 0.1 0
0.63333333 0.1 0
0.66666667 0.1 0
0.7 0.1 0
0.73333333 0.1 0
0.76666667 0.1 0
0.8 0.1 0
0.83333333 0.1 0
0.86666667 0.1 0
0.9 0.1 0
0.93333333 0.1 0
0.96666667 0.1 0
1 0.1 0
0 0.13333333 0
0.033333333 0.13333333 0
0.066666667 0.13333333 0
0.1 0.13333333 0
0.13333333 0.13333333 0
0.16666667 0.13333333 0
0.2 0.13333333 0
0.23333333 0.13333333 0
0.26666667 0.13333333 0
0.3 0.13333333 0
0.33333333 0.13333333 0
0.36666667 0.13333333 0
0.4 0.13333333 0
0.43333333 0.13333333 0
0.46666667 0.13333333 0
0.5 0.13333333 0
0.53333333 0.13333333 0
0.56666667 0.13333333 0
0.6 0.13333333 0
0.63333333 0.13333333 0
0.66666667 0.13333333 0
0.7 0.13333333 0
0.73333333 0.13333333 0
0.76666667 0.13333333 0
0.8 0.13333333 0
0.83333333 0.13333333 0
0.86666667 0.13333333 0
0.9 0.13333333 0
0.93333333 0.13333333 0
0.96666667 0.13333333 0
1 0.13333333 0
0 0.16666667 0
0.033333333 0.16666667 0
0.066666667 0.16666667 0
0.1 0.16666667 0
0.13333333 0.16666667 0
0.16666667 0.16666667 0
0.2 0.16666667 0
0.23333333 0.16666667 0
0.26666667 0.16666667 0
0.3 0.16666667 0
0.33333333 0.16666667 0
0.36666667 0.16666667 0
0.4 0.16666667 0
0.43333333 0.16666667 0
0.46666667 0.16666667 0
0.5 0.16666667 0
0.53333333 0.16666667 0
0.56666667 0.16666667 0
0.6 0.16666667 0
0.63333333 0.16666667 0
0.66666667 0.16666667 0
0.7 0.16666667 0
0.73333333 0.16666667 0
0.76666667 0.16666667 0
0.8 0.16666667 0
0.83333333 0.16666667 0
0.86666667 0.16666667 0
0.9 0.16666667 0
0.93333333 0.16666667 0
0.96666667 0.16666667 0
1 0.16666667 0
0 0.2 0
0.033333333 0.2 0
0.066666667 0.2 0
0.1 0.2 0
0.13333333 0.2 0
0.16666667 0.2 0
0.2 0.2 0
0.23333333 0.2 0
0.26666667 0.2 0
0.3 0.2 0
0.33333333 0.2 0
0.36666667 0.2 0
0.4 0.2 0
0.43333333 0.2 0
0.46666667 0.2 0
0.5 0.2 0
0.53333333 0.2 0
0.56666667 0.2 0
0.6 0.2 0
0.63333333 0.2 0
0.66666667 0.2 0
0.7 0.2 0
0.73333333 0.2 0
0.76666667 0.2 0
0.8 0.2 0
0.83333333 0.2 0
0.86666667 0.2 0
0.9 0.2 0
0.93333333 0.2 0
0.96666667 0.2 0
1 0.2 0
0 0.23333333 0
0.033333333 0.23333333 0
0.066666667 0.23333333 0
0.1 0.23333333 0
0.13333333 0.23333333 0
0.16666667 0.23333333 0
0.2 0.23333333 0
0.23333333 0.23333333 0
0.26666667 0.23333333 0
0.3 0.23333333 0
0.33333333 0.23333333 0
0.36666667 0.23333333 0
0.4 0.23333333 0
0.43333333 0.23333333 0
0.46666667 0.23333333 0
0.5 0.23333333 0
0.53333333 0.23333333 0
0.56666667 0.23333333 0
0.6 0.23333333 0
0.63333333 0.23333333 0
0.66666667 0.23333333 0
0.7 0.23333333 0
0.73333333 0.23333333 0
0.76666667 0.23333333 0
0.8 0.23333333 0
0.83333333 0.23333333 0
0.86666667 0.23333333 0
0.9 0.23333333 0
0.93333333 0.23333333 0
0.96666667 0.23333333 0
1 0.23333333 0
0 0.26666667 0
0.033333333 0.26666667 0
0.066666667 0.26666667 0
0.1 0.26666667 0
0.13333333 0.26666667 0
0.16666667 0.26666667 0
0.2 0.26666667 0
0.23333333 0.26666667 0
0.26666667 0.26666667 0
0.3 0.26666667 0
0.33333333 0.26666667 0
0.36666667 0.26666667 0
0.4 0.26666667 0
0.43333333 0.26666667 0
0.46666667 0.26666667 0
0.5 0.26666667 0
0.53333333 0.26666667 0
0.56666667 0.26666667 0
0.6 0.26666667 0
0.63333333 0.26666667 0
0.66666667 0.26666667 0
0.7 0.26666667 0
0.73333333 0.26666667 0
0.76666667 0.26666667 0
0.8 0.26666667 0
0.83333333 0.26666667 0
0.86666667 0.26666667 0
0.9 0.26666667 0
0.93333333 0.26666667 0
0.96666667 0.26666667 0
1 0.26666667 0
0 0.3 0
0.033333333 0.3 0
0.066666667 0.3 0
0.1 0.3 0
0.13333333 0.3 0
0.16666667 0.3 0
0.2 0.3 0
0.23333333 0.3 0
0.26666667 0.3 0
0.3 0.3 0
0.33333333 0.3 0
0.36666667 0.3 0
0.4 0.3 0
0.43333333 0.3 0
0.46666667 0.3 0
0.5 0.3 0
0.53333333 0.3 0
0.56666667 0.3 0
0.6 0.3 0
0.63333333 0.3 0
0.66666667 0.3 0
0.7 0.3 0
0.73333333 0.3 0
0.76666667 0.3 0
0.8 0.3 0
0.83333333 0.3 0
0.86666667 0.3 0
0.9 0.3 0
0.93333333 0.3 0
0.96666667 0.3 0
1 0.3 0
0 0.33333333 0
0.033333333 0.33333333 0
0.066666667 0.33333333 0
0.1 0.33333333 0
0.13333333 0.33333333 0
0.16666667 0.33333333 0
0.2 0.33333333 0
0.23333333 0.33333333 0
0.26666667 0.33333333 0
0.3 0.33333333 0
0.33333333 0.33333333 0
0.36666667 0.33333333 0
0.4 0.33333333 0
0.43333333 0.33333333 0
0.46666667 0.33333333 0
0.5 0.33333333 0
0.53333333 0.33333333 0
0.56666667 0.33333333 0
0.6 0.33333333 0
0.63333333 0.33333333 0
0.66666667 0.33333333 0
0.7 0.33333333 0
0.73333333 0.33333333 0
0.76666667 0.33333333 0
0.8 0.33333333 0
0.83333333 0.33333333 0
0.86666667 0.33333333 0
0.9 0.33333333 0
0.93333333 0.33333333 0
0.96666667 0.33333333 0
1 0.33333333 0
0 0.36666667 0
0.033333333 0.36666667 0
0.066666667 0.36666667 0
0.1 0.36666667 0
0.13333333 0.36666667 0
0.16666667 0.36666667 0
0.2 0.36666667 0
0.23333333 0.36666667 0
0.26666667 0.36666667 0
0.3 0.36666667 0
0.33333333 0.36666667 0
0.36666667 0.36666667 0
0.4 0.36666667 0
0.43333333 0.36666667 0
0.46666667 0.36666667 0
0.5 0.36666667 0
0.53333333 0.36666667 0
0.56666667 0.36666667 0
0.6 0.36666667 0
0.63333333 0.36666667 0
0.66666667 0.36666667 0
0.7 0.36666667 0
0.73333333 0.36666667 0
0.76666667 0.36666667 0
0.8 0.36666667 0
0.83333333 0.36666667 0
0.86666667 0.36666667 0
0.9 0.36666667 0
0.93333333 0.36666667 0
0.96666667 0.36666667 0
1 0.36666667 0
0 0.4 0
0.033333333 0.4 0
0.066666667 0.4 0
0.1 0.4 0
0.13333333 0.4 0
0.16666667 0.4 0
0.2 0.4 0
0.23333333 0.4 0
0.26666667 0.4 0
0.3 0.4 0
0.33333333 0.4 0
0.36666667 0.4 0
0.4 0.4 0
0.43333333 0.4 0
0.46666667 0.4 0
0.5 0.4 0
0.53333333 0.4 0
0.56666667 0.4 0
0.6 0.4 0
0.63333333 0.4 0
0.66666667 0.4 0
0.7 0.4 0
0.73333333 0.4 0
0.76666667 0.4 0
0.8 0.4 0
0.83333333 0.4 0
0.86666667 0.4 0
0.9 0.4 0
0.93333333 0.4 0
0.96666667 0.4 0
1 0.4 0
0 0.43333333 0
0.033333333 0.43333333 0
0.066666667 0.43333333 0
0.1 0.43333333 0
0.13333333 0.43333333 0
0.16666667 0.43333333 0
0.2 0.43333333 0
0.23333333 0.43333333 0
0.26666667 0.43333333 0
0.3 0.43333333 0
0.33333333 0.43333333 0
0.36666667 0.43333333 0
0.4 0.43333333 0
0.43333333 0.43333333 0
0.46666667 0.43333333 0
0.5 0.43333333 0
0.53333333 0.43333333 0
0.56666667 0.43333333 0
0.6 0.43333333 0
0.63333333 0.43333333 0
0.66666667 0.43333333 0
0.7 0.43333333 0
0.73333333 0.43333333 0
0.76666667 0.43333333 0
0.8 0.43333333 0
0.83333333 0.43333333 0
0.86666667 0.43333333 0
0.9 0.43333333 0
0.93333333 0.43333333 0
0.96666667 0.43333333 0
1 0.43333333 0
0 0.46666667 0
0.033333333 0.46666667 0
0.066666667 0.46666667 0
0.1 0.46666667 0
0.13333333 0.46666667 0
0.16666667 0.46666667 0
0.2 0.46666667 0
0.23333333 0.46666667 0
0.26666667 0.46666667 0
0.3 0.46666667 0
0.33333333 0.46666667 0
0.36666667 0.46666667 0
0.4 0.46666667 0
0.43333333 0.46666667 0
0.46666667 0.46666667 0
0.5 0.46666667 0
0.53333333 0.46666667 0
0.56666667 0.46666667 0
0.6 0.46666667 0
0.63333333 0.46666667 0
0.66666667 0.46666667 0
0.7 0.46666667 0
0.73333333 0.46666667 0
0.76666667 0.46666667 0
0.8 0.46666667 0
0.83333333 0.46666667 0
0.86666667 0.46666667 0
0.9 0.46666667 0
0.93333333 0.46666667 0
0.96666667 0.46666667 0
1 0.46666667 0
0 0.5 0
0.033333333 0.5 0
0.066666667 0.5 0
0.1 0.5 0
0.13333333 0.5 0
0.16666667 0.5 0
0.2 0.5 0
0.23333333 0.5 0
0.26666667 0.5 0
0.3 0.5 0
0.33333333 0.5 0
0.36666667 0.5 0
0.4 0.5 0
0.43333333 0.5 0
0.46666667 0.5 0
0.5 0.5 0
0.53333333 0.5 0
0.56666667 0.5 0
0.6 0.5 0
0.63333333 0.5 0
0.66666667 0.5 0
0.7 0.5 0
0.73333333 0.5 0
0.76666667 0.5 0
0.8 0.5 0
0.83333333 0.5 0
0.86666667 0.5 0
0.9 0.5 0
0.93333333 0.5 0
0.96666667 0.5 0
1 0.5 0
0 0.53333333 0
0.033333333 0.53333333 0
0.066666667 0.53333333 0
0.1 0.53333333 0
0.13333333 0.53333333 0
0.16666667 0.53333333 0
0.2 0.53333333 0
0.23333333 0.53333333 0
0.26666667 0.53333333 0
0.3 0.53333333 0
0.33333333 0.53333333 0
0.36666667 0.53333333 0
0.4 0.53333333 0
0.43333333 0.53333333 0
0.46666667 0.53333333 0
0.5 0.53333333 0
0.53333333 0.53333333 0
0.56666667 0.53333333 0
0.6 0.53333333 0
0.63333333 0.53333333 0
0.66666667 0.53333333 0
0.7 0.53333333 0
0.73333333 0.53333333 0
0.76666667 0.53333333 0
0.8 0.53333333 0
[...]
CELL_DATA 1920
Scalars  Label int 1
LOOKUP_TABLE FreeFempp_table
0
0
0
0
0
0
0
0
0
0
0
0
0
0
0
0
0
0
0
0
0
0
0
0
0
0
0
0
0
0
0
0
0
0
0
0
0
0
0
0
0
0
0
0
0
0
0
0
0
0
0
0
0
0
0
0
0
0
0
0
0
0
0
0
0
0
0
0
0
0
0
0
0
0
0
0
0
0
0
0
0
0
0
0
0
0
0
0
0
0
0
0
0
0
0
0
0
0
0
0
0
0
0
0
0
0
0
0
0
0
0
0
0
0
0
0
0
0
0
0
0
0
0
0
0
0
0
0
0
0
0
0
0
0
0
0
0
0
0
0
0
0
0
0
0
0
0
0
0
0
0
0
0
0
0
0
0
0
0
0
0
0
0
0
0
0
0
0
0
0
0
0
0
0
0
0
0
0
0
0
0
0
0
0
0
0
0
0
0
0
0
0
0
0
0
0
0
0
0
0
0
0
0
0
0
0
0
0
0
0
0
0
0
0
0
0
0
0
0
0
0
0
0
0
0
0
0
0
0
0
0
0
0
0
0
0
0
0
0
0
0
0
0
0
0
0
0
0
0
0
0
0
0
0
0
0
0
0
0
0
0
0
0
0
0
0
0
0
0
0
0
0
0
0
0
0
0
0
0
0
0
0
0
0
0
0
0
0
0
0
0
0
0
0
0
0
0
0
0
0
0
0
0
0
0
0
0
0
0
0
0
0
0
0
0
0
0
0
0
0
0
0
0
0
0
0
0
0
0
0
0
0
0
0
0
0
0
0
0
0
0
0
0
0
0
0
0
0
0
0
0
0
0
0
0
0
0
0
0
0
0
0
0
0
0
0
0
0
0
0
0
0
0
0
0
0
0
0
0
0
0
0
0
0
0
0
0
0
0
0
0
0
0
0
0
0
0
0
0
0
0
0
0
0
0
0
0
0
0
0
0
0
0
0
0
0
0
0
0
0
0
0
0
0
0
0
0
0
0
0
0
0
0
0
0
0
0
0
0
0
0
0
0
0
0
0
0
0
0
0
0
0
0
0
0
0
0
0
0
0
0
0
0
0
0
0
0
0
0
0
0
0
0
0
0
0
0
0
0
0
0
0
0
0
0
0
0
0
0
0
0
0
0
0
0
0
0
0
0
0
0
0
0
0
0
0
0
0
0
0
0
0
0
0
0
0
0
0
0
0
0
0
0
0
0
0
0
0
0
0
0
0
0
0
0
0
0
0
0
0
0
0
0
0
0
0
0
0
0
0
0
0
0
0
0
0
0
0
0
0
0
0
0
0
0
0
0
0
0
0
0
0
0
0
0
0
0
0
0
0
0
0
0
0
0
0
0
0
0
0
0
0
0
0
0
0
0
0
0
0
0
0
0
0
0
0
0
0
0
0
0
0
0
0
0
0
0
0
0
0
0
0
0
0
0
0
0
0
0
0
0
0
0
0
0
0
0
0
0
0
0
0
0
0
0
0
0
0
0
0
0
0
0
0
0
0
0
0
0
0
0
0
0
0
0
0
0
0
0
0
0
0
0
0
0
0
0
0
0
0
0
0
0
0
0
0
0
0
0
0
0
0
0
0
0
0
0
0
0
0
0
0
0
0
0
0
0
0
0
0
0
0
0
0
0
0
0
0
0
0
0
0
0
0
0
0
0
0
0
0
0
0
0
0
0
0
0
0
0
0
0
0
0
0
0
0
0
0
0
0
0
0
0
0
0
0
0
0
0
0
0
0
0
0
0
0
0
0
0
0
0
0
0
0
0
0
0
0
0
0
0
0
0
0
0
0
0
0
0
0
0
0
0
0
0
0
0
0
0
0
0
0
0
0
0
0
0
0
0
0
0
0
0
0
0
0
0
0
0
0
0
0
0
0
0
0
0
0
0
0
0
0
0
0
0
0
0
0
0
0
0
0
0
0
0
0
0
0
0
0
0
0
0
0
0
0
0
0
0
0
0
0
0
0
0
0
0
0
0
0
0
0
0
0
0
0
0
0
0
0
0
0
0
0
0
0
0
0
0
0
0
0
0
0
0
0
0
0
0
0
0
0
0
0
0
0
0
0
0
0
0
0
0
0
0
0
0
0
0
0
0
0
0
0
0
0
0
0
0
0
0
0
0
0
0
0
0
0
0
0
0
0
0
0
0
0
0
0
0
0
0
0
0
0
0
0
0
0
0
0
0
0
0
0
0
0
0
0
0
0
0
0
0
0
0
0
0
0
0
0
0
0
0
0
0
0
0
0
0
0
0
0
0
0
0
0
0
0
0
0
0
0
0
0
0
0
0
0
0
0
0
0
0
0
0
0
0
0
0
0
0
0
0
0
0
0
0
0
0
0
0
0
0
0
0
0
0
0
0
0
0
0
0
0
0
0
0
0
0
0
0
0
0
0
0
0
0
0
0
0
0
0
0
0
0
0
0
0
0
0
0
0
0
0
0
0
0
0
0
0
0
0
0
0
0
0
0
0
0
0
0
0
0
0
0
0
0
0
0
0
0
0
0
0
0
0
0
0
0
0
0
0
0
0
0
0
0
0
0
0
0
0
0
0
0
0
0
0
0
0
0
0
0
0
0
0
0
0
0
0
0
0
0
0
0
0
0
0
0
0
0
0
0
0
0
0
0
0
0
0
0
0
0
0
0
0
0
0
0
0
0
0
0
0
0
0
0
0
0
0
0
0
0
0
0
0
0
0
0
0
0
0
0
0
0
0
0
0
0
0
0
0
0
0
0
0
0
0
0
0
0
0
0
0
0
0
0
0
0
0
0
0
0
0
0
0
0
0
0
0
0
0
0
0
0
0
0
0
0
0
0
0
0
0
0
0
0
0
0
0
0
0
0
0
0
0
0
0
0
0
0
0
0
0
0
0
0
0
0
0
0
0
0
0
0
0
0
0
0
0
0
0
0
0
0
0
0
0
0
0
0
0
0
0
0
0
0
0
0
0
0
0
0
0
0
0
0
0
0
0
0
0
0
0
0
0
0
0
0
0
0
0
0
0
0
0
0
0
0
0
0
0
0
0
0
0
0
0
0
0
0
0
0
0
0
0
0
0
0
0
0
0
0
0
0
0
0
0
0
0
0
0
0
0
0
0
0
0
0
0
0
0
0
0
0
0
0
0
0
0
0
0
0
0
0
0
0
0
0
0
0
0
0
0
0
0
0
0
0
0
0
0
0
0
0
0
0
0
0
0
0
0
0
0
0
0
0
0
0
0
0
0
0
0
0
0
0
0
0
0
0
0
0
0
0
0
0
0
0
0
0
0
0
0
0
0
0
0
0
0
0
0
0
0
0
0
0
0
0
0
0
0
0
0
0
0
0
0
0
0
0
0
0
0
0
0
0
0
0
0
0
0
0
0
0
0
0
0
0
0
0
0
0
0
0
0
0
0
0
0
0
0
0
0
0
0
0
0
0
0
0
0
0
0
0
0
0
0
0
0
0
0
0
0
0
0
0
0
0
0
0
0
0
0
0
0
0
0
0
0
0
0
0
0
0
0
0
0
0
0
0
0
0
0
0
0
0
0
0
0
0
0
0
0
0
0
0
0
0
0
0
0
0
0
0
0
0
0
0
0
0
0
0
0
0
0
0
0
0
0
0
0
0
0
0
0
0
0
0
0
0
0
0
0
0
0
0
0
0
0
0
0
0
0
0
0
0
0
0
0
0
0
0
0
0
0
0
0
0
0
0
0
0
0
0
0
0
0
0
0
0
0
0
0
0
0
0
0
0
0
0
0
0
0
0
0
0
0
0
0
0
0
0
0
0
0
0
0
0
0
0
0
0
0
0
0
0
0
0
0
0
0
0
0
0
0
0
0
0
0
0
0
0
0
0
0
0
0
0
0
0
0
0
0
0
0
0
0
0
0
0
0
0
0
0
0
0
0
0
0
0
0
0
0
0
0
0
0
0
0
0
0
0
0
0
0
0
0
0
0
0
0
0
0
0
0
0
0
0
0
0
0
0
0
0
0
0
0
0
0
0
0
0
0
0
0
0
0
0
0
0
0
0
0
0
0
0
0
0
0
0
0
0
0
0
0
0
0
0
0
0
0
0
0
0
0
0
0
0
0
1
1
1
1
1
1
1
1
1
1
1
1
1
1
1
1
1
1
1
1
1
1
1
1
1
1
1
1
1
1
2
2
2
2
2
2
2
2
2
2
2
2
2
2
2
2
2
2
2
2
2
2
2
2
2
2
2
2
2
2
3
3
3
3
3
3
3
3
3
3
3
3
3
3
3
3
3
3
3
3
3
3
3
3
3
3
3
3
3
3
4
4
4
4
4
4
4
4
4
4
4
4
4
4
4
4
4
4
4
4
4
4
4
4
4
4
4
4
4
4

LOOKUP_TABLE FreeFempp_table 5
1.00000000 0.00000000 0.00000000 1.00000000
1.00000000 1.00000000 0.00000000 1.00000000
1.00000000 0.00000000 1.00000000 1.00000000
0.00000000 1.00000000 0.00000000 1.00000000
0.00000000 1.00000000 1.00000000 1.00000000

POINT_DATA 961
FIELD FieldData 1
Density 1 961 float
6.46195561e-02 6.48836941e-02 8.97202715e-02 1.63796633e-01 2.78653473e-01 3.89128208e-01 4.48467046e-01 4.52426851e-01 4.26402181e-01 3.95576119e-01 3.72959197e-01 3.61456454e-01 3.59671742e-01 3.65520716e-01 3.77271265e-01 3.93416584e-01 4.12493020e-01 4.33044463e-01 4.53755319e-01 4.73582923e-01 4.91826594e-01 5.08373380e-01 5.23270845e-01 5.36484957e-01 5.48001170e-01 5.57851732e-01 5.66102743e-01 5.72844028e-01 5.78185141e-01 5.82322478e-01 5.84147871e-01 6.54456839e-02 6.49879277e-02 8.72512981e-02 1.58083841e-01 2.73767769e-01 3.87515217e-01 4.49048251e-01 4.52042073e-01 4.23208058e-01 3.90185624e-01 3.66868943e-01 3.55718136e-01 3.54654372e-01 3.61193419e-01 3.73493820e-01 3.90062809e-01 4.09475803e-01 4.30341542e-01 4.51418132e-01 4.71741617e-01 4.90425199e-01 5.07170618e-01 5.22140741e-01 5.35391331e-01 5.46926320e-01 5.56785285e-01 5.65038919e-01 5.71779788e-01 5.77122808e-01 5.81269681e-01 5.83590686e-01 6.41323328e-02 6.34320453e-02 8.36863965e-02 1.50508702e-01 2.64454395e-01 3.78638834e-01 4.39773768e-01 4.41274583e-01 4.11008835e-01 3.78064573e-01 3.56231540e-01 3.47325623e-01 3.48590076e-01 3.57143372e-01 3.71009350e-01 3.88715923e-01 4.08906519e-01 4.30278540e-01 4.51697409e-01 4.72329855e-01 4.91542399e-01 5.08530319e-01 5.23354948e-01 5.36357582e-01 5.47640026e-01 5.57265341e-01 5.65313995e-01 5.71881354e-01 5.77079654e-01 5.81102252e-01 5.83364785e-01 6.15005717e-02 6.07055761e-02 7.93223456e-02 1.42206043e-01 2.54999638e-01 3.67283672e-01 4.24418002e-01 4.22574013e-01 3.92367035e-01 3.62962276e-01 3.46018493e-01 3.41745615e-01 3.46741617e-01 3.58011514e-01 3.73745382e-01 3.92682254e-01 4.13625658e-01 4.35402066e-01 4.57002670e-01 4.77632314e-01 4.96712148e-01 5.13704300e-01 5.28086662e-01 5.40416539e-01 5.51066458e-01 5.60136437e-01 5.67712665e-01 5.73888540e-01 5.78766823e-01 5.82521915e-01 5.84625959e-01 5.83098494e-02 5.74750826e-02 7.46502131e-02 1.33881241e-01 2.46497408e-01 3.55341643e-01 4.05274123e-01 3.99227917e-01 3.71576726e-01 3.48895788e-01 3.39427590e-01 3.41286063e-01 3.50573808e-01 3.64516228e-01 3.81753266e-01 4.01443064e-01 4.22658592e-01 4.44381773e-01 4.65740889e-01 4.86097276e-01 5.04790127e-01 5.21274507e-01 5.35182774e-01 5.46576738e-01 5.56271255e-01 5.64519107e-01 5.71404994e-01 5.77015996e-01 5.81440151e-01 5.84825575e-01 5.86711347e-01 5.48972562e-02 5.40780500e-02 7.00753480e-02 1.26301870e-01 2.39047781e-01 3.42449158e-01 3.82889003e-01 3.73830229e-01 3.52282315e-01 3.39018911e-01 3.38128686e-01 3.46070349e-01 3.58933896e-01 3.74693841e-01 3.92644346e-01 4.12376761e-01 4.33266431e-01 4.54475582e-01 4.75215316e-01 4.94951993e-01 5.13224185e-01 5.29228926e-01 5.42549670e-01 5.53196132e-01 5.61836302e-01 5.69126487e-01 5.75210750e-01 5.80169499e-01 5.84076762e-01 5.87048471e-01 5.88687062e-01 5.14271669e-02 5.06718270e-02 6.57252446e-02 1.19465925e-01 2.31281832e-01 3.26953232e-01 3.57894808e-01 3.49807054e-01 3.37512046e-01 3.34887385e-01 3.41958433e-01 3.54439795e-01 3.69308293e-01 3.85620624e-01 4.03269917e-01 4.22213048e-01 4.42149222e-01 4.62473154e-01 4.82454985e-01 5.01460075e-01 5.19077063e-01 5.34747124e-01 5.47770977e-01 5.58017015e-01 5.65856099e-01 5.72268188e-01 5.77609301e-01 5.81964493e-01 5.85398018e-01 5.87994158e-01 5.89398623e-01 4.79497500e-02 4.72767018e-02 6.14883490e-02 1.12896517e-01 2.22187862e-01 3.08469445e-01 3.32729071e-01 3.30285370e-01 3.29007864e-01 3.36470753e-01 3.49508107e-01 3.64211380e-01 3.78934413e-01 3.93872470e-01 4.09532785e-01 4.26330894e-01 4.44434613e-01 4.63546962e-01 4.82969314e-01 5.01727819e-01 5.19098759e-01 5.34665942e-01 5.47816157e-01 5.58216572e-01 5.65949857e-01 5.71898222e-01 5.76790750e-01 5.80776870e-01 5.83920419e-01 5.86284280e-01 5.87524533e-01 4.44321707e-02 4.38317582e-02 5.71359955e-02 1.05942599e-01 2.11549714e-01 2.88769960e-01 3.10518861e-01 3.17227513e-01 3.26974094e-01 3.41794461e-01 3.57477784e-01 3.71025026e-01 3.82005364e-01 3.92324477e-01 4.03425992e-01 4.16278005e-01 4.31561053e-01 4.49508458e-01 4.69513267e-01 4.89598304e-01 5.08311272e-01 5.24967790e-01 5.39289415e-01 5.50798953e-01 5.59439063e-01 5.65772533e-01 5.70805371e-01 5.74881315e-01 5.78083575e-01 5.80477476e-01 5.81689775e-01 4.08036634e-02 4.02581804e-02 5.24705499e-02 9.80312675e-02 1.99744001e-01 2.71562427e-01 2.95593053e-01 3.11436206e-01 3.28477889e-01 3.44196498e-01 3.56132805e-01 3.62277716e-01 3.62447143e-01 3.62671405e-01 3.66437197e-01 3.74845654e-01 3.88449371e-01 4.07464921e-01 4.31700498e-01 4.56870973e-01 4.80264217e-01 5.00795543e-01 5.18298328e-01 5.32678068e-01 5.43714643e-01 5.51767528e-01 5.57851970e-01 5.62699974e-01 5.66476822e-01 5.69276035e-01 5.70658386e-01 3.69977206e-02 3.65154557e-02 4.74584140e-02 8.89756456e-02 1.86845019e-01 2.59236693e-01 2.88822174e-01 3.07779789e-01 3.20583612e-01 3.24922830e-01 3.21912348e-01 3.08980018e-01 2.88452923e-01 2.74572045e-01 2.70381808e-01 2.75905371e-01 2.91722029e-01 3.20269674e-01 3.58873308e-01 3.96151930e-01 4.29462463e-01 4.57961798e-01 4.81831729e-01 5.01448512e-01 5.16867220e-01 5.28301358e-01 5.36695182e-01 5.43171346e-01 5.48157871e-01 5.51811993e-01 5.53597033e-01 3.29527743e-02 3.26237418e-02 4.22118008e-02 7.88206533e-02 1.70179188e-01 2.43705466e-01 2.75627255e-01 2.82967299e-01 2.71409988e-01 2.55209357e-01 2.36478850e-01 2.10733846e-01 1.75903067e-01 1.57309934e-01 1.52120829e-01 1.56052902e-01 1.68717459e-01 1.97573304e-01 2.52729684e-01 3.08923244e-01 3.56602013e-01 3.96548986e-01 4.29696590e-01 4.56906527e-01 4.78604257e-01 4.95057464e-01 5.07127047e-01 5.16154230e-01 5.22990286e-01 5.27939618e-01 5.30344367e-01 2.85753068e-02 2.87008081e-02 3.69801410e-02 6.76988363e-02 1.45456240e-01 2.06924394e-01 2.27316275e-01 2.17629999e-01 1.82401195e-01 1.60131603e-01 1.44956350e-01 1.30025193e-01 1.13727733e-01 1.03592820e-01 1.02196768e-01 1.06659546e-01 1.13502704e-01 1.27343118e-01 1.58989206e-01 2.15514183e-01 2.73390532e-01 3.23628426e-01 3.66410255e-01 4.02098268e-01 4.31029260e-01 4.53508228e-01 4.70247537e-01 4.82628942e-01 4.91825849e-01 4.98389542e-01 5.01554132e-01 2.41488721e-02 2.51427572e-02 3.23637016e-02 5.68330176e-02 1.17942825e-01 1.58926785e-01 1.59079015e-01 1.50838584e-01 1.35125965e-01 1.22611918e-01 1.15224913e-01 1.07397437e-01 9.83205736e-02 9.26042572e-02 9.38181132e-02 1.01764314e-01 1.06852986e-01 1.10021099e-01 1.21082291e-01 1.46400347e-01 1.96119875e-01 2.50189632e-01 2.99605280e-01 3.42713952e-01 3.78481328e-01 4.06866908e-01 4.28489625e-01 4.44567263e-01 4.56355423e-01 4.64634925e-01 4.68577027e-01 2.17987485e-02 2.31801458e-02 2.93723997e-02 4.79673930e-02 9.45490450e-02 1.37197748e-01 1.38811409e-01 1.37133792e-01 1.35305405e-01 1.32148057e-01 1.30931824e-01 1.26962736e-01 1.17564440e-01 1.09282330e-01 1.07315734e-01 1.12652995e-01 1.18983380e-01 1.21920034e-01 1.23084866e-01 1.22382656e-01 1.39476731e-01 1.84060931e-01 2.35919654e-01 2.84388930e-01 3.25768113e-01 3.59100699e-01 3.84932250e-01 4.04370576e-01 4.18582708e-01 4.28436816e-01 4.33051139e-01 2.35001892e-02 2.45123822e-02 2.93004904e-02 4.28924821e-02 7.50306174e-02 1.19179554e-01 1.45992041e-01 1.62364796e-01 1.77990675e-01 1.81247607e-01 1.76415890e-01 1.66843370e-01 1.53274119e-01 1.40504882e-01 1.33486286e-01 1.33419394e-01 1.36779472e-01 1.38422176e-01 1.35762677e-01 1.26565471e-01 1.18159629e-01 1.33845210e-01 1.78780779e-01 2.30858833e-01 2.76247740e-01 3.13130021e-01 3.42013776e-01 3.64000827e-01 3.80145907e-01 3.91260773e-01 3.96367282e-01 3.21770124e-02 3.18480544e-02 3.41459960e-02 4.37353440e-02 6.71734884e-02 1.03587113e-01 1.46370292e-01 1.84725881e-01 2.11424232e-01 2.20382944e-01 2.17307374e-01 2.07706615e-01 1.93870500e-01 1.79614499e-01 1.69075832e-01 1.63856491e-01 1.62302166e-01 1.60090551e-01 1.53000683e-01 1.38801679e-01 1.20063901e-01 1.14299178e-01 1.35928899e-01 1.85073569e-01 2.31847659e-01 2.70170778e-01 3.00692379e-01 3.24298859e-01 3.41806322e-01 3.53834778e-01 3.59252810e-01 5.52835725e-02 5.21317087e-02 4.82206866e-02 5.17647639e-02 6.86179549e-02 9.83016789e-02 1.36778578e-01 1.77311823e-01 2.08491668e-01 2.23902896e-01 2.27047354e-01 2.23765984e-01 2.17462987e-01 2.10433602e-01 2.04151496e-01 1.99237749e-01 1.95369244e-01 1.89987540e-01 1.79391518e-01 1.61690190e-01 1.38813332e-01 1.18319504e-01 1.19865812e-01 1.51988119e-01 1.93543062e-01 2.30175257e-01 2.60689586e-01 2.85030603e-01 3.03423256e-01 3.16098213e-01 3.21700752e-01 9.81033295e-02 9.27348211e-02 8.09004754e-02 7.20383748e-02 7.71818981e-02 9.94844958e-02 1.30089983e-01 1.61472932e-01 1.88173831e-01 2.05242231e-01 2.11208045e-01 2.10449323e-01 2.09808245e-01 2.13384092e-01 2.20351949e-01 2.26118043e-01 2.27740481e-01 2.23765969e-01 2.12652639e-01 1.93938509e-01 1.69903025e-01 1.44446045e-01 1.24269828e-01 1.28502056e-01 1.58166900e-01 1.91657349e-01 2.21050203e-01 2.45459437e-01 2.64417857e-01 2.77594835e-01 2.83317626e-01 1.64101854e-01 1.57444000e-01 1.40405849e-01 1.17575638e-01 1.02722108e-01 1.05797984e-01 1.24726638e-01 1.44739687e-01 1.63934484e-01 1.78653732e-01 1.82718083e-01 1.79214686e-01 1.78770408e-01 1.89083517e-01 2.10464582e-01 2.33062938e-01 2.47274622e-01 2.50254005e-01 2.42818326e-01 2.26650774e-01 2.04236984e-01 1.78617805e-01 1.51490375e-01 1.28455684e-01 1.29059345e-01 1.53412357e-01 1.81020424e-01 2.05014706e-01 2.24363223e-01 2.38027677e-01 2.43862465e-01 2.50978500e-01 2.44564950e-01 2.26763561e-01 1.98774427e-01 1.64808661e-01 1.38829663e-01 1.30575225e-01 1.32698506e-01 1.40950680e-01 1.52469158e-01 1.54614657e-01 1.49346799e-01 1.48353294e-01 1.60904244e-01 1.90724745e-01 2.26726800e-01 2.52225965e-01 2.62472391e-01 2.60530233e-01 2.49739856e-01 2.32257470e-01 2.09648788e-01 1.82881594e-01 1.52396590e-01 1.25047013e-01 1.21384144e-01 1.40783533e-01 1.63794711e-01 1.83430582e-01 1.97699875e-01 2.03699678e-01 3.43020052e-01 3.38897318e-01 3.24730247e-01 3.01214635e-01 2.67974555e-01 2.25334570e-01 1.84641644e-01 1.60925984e-01 1.47771001e-01 1.44716546e-01 1.42702907e-01 1.39497206e-01 1.41514674e-01 1.54196560e-01 1.84956893e-01 2.24894151e-01 2.52196610e-01 2.63409764e-01 2.64523685e-01 2.59310633e-01 2.48466849e-01 2.31582761e-01 2.08210841e-01 1.78398281e-01 1.43537447e-01 1.12778045e-01 1.06457107e-01 1.22844249e-01 1.42673165e-01 1.57802060e-01 1.64079294e-01 4.17657226e-01 4.16063577e-01 4.06739175e-01 3.90508235e-01 3.68093014e-01 3.38376999e-01 3.00477743e-01 2.57965595e-01 2.14733034e-01 1.94487229e-01 1.84879586e-01 1.79147929e-01 1.77836373e-01 1.84952363e-01 2.05956370e-01 2.36159548e-01 2.53232449e-01 2.58247733e-01 2.59096712e-01 2.58079290e-01 2.53614575e-01 2.43247032e-01 2.25002378e-01 1.97899982e-01 1.62524655e-01 1.22162744e-01 9.19164568e-02 8.83370340e-02 1.04105256e-01 1.20470181e-01 1.27138749e-01 4.64255482e-01 4.63517159e-01 4.56848413e-01 4.45006549e-01 4.29245412e-01 4.10547674e-01 3.89308423e-01 3.64292413e-01 3.34055990e-01 3.10217828e-01 2.95337319e-01 2.83455849e-01 2.70658851e-01 2.58963406e-01 2.55553842e-01 2.55109340e-01 2.52300471e-01 2.49138296e-01 2.49247104e-01 2.51479119e-01 2.52169460e-01 2.47481376e-01 2.34390572e-01 2.10994124e-01 1.76856175e-01 1.33687809e-01 9.06871334e-02 7.15099424e-02 7.36747906e-02 8.84860009e-02 9.53999087e-02 4.87836510e-01 4.86488521e-01 4.80355263e-01 4.69884545e-01 4.56011653e-01 4.39789474e-01 4.22520638e-01 4.05229717e-01 3.88511896e-01 3.73628110e-01 3.60193044e-01 3.46497953e-01 3.27072680e-01 3.00814390e-01 2.76558369e-01 2.56840676e-01 2.43557245e-01 2.38138691e-01 2.39696562e-01 2.44863629e-01 2.49219254e-01 2.48561189e-01 2.39509910e-01 2.19754457e-01 1.88404441e-01 1.46872580e-01 1.00756116e-01 6.70585185e-02 5.77674285e-02 6.48265183e-02 7.06005916e-02 4.98633832e-01 4.96294856e-01 4.89922136e-01 4.79877353e-01 4.66571659e-01 4.50723827e-01 4.33446169e-01 4.16000515e-01 3.99483800e-01 3.84326249e-01 3.69563758e-01 3.52485955e-01 3.28522921e-01 2.97807485e-01 2.68376887e-01 2.46138230e-01 2.33655035e-01 2.30735049e-01 2.34865665e-01 2.42237672e-01 2.48649389e-01 2.50167876e-01 2.43521988e-01 2.26359144e-01 1.97593063e-01 1.58065006e-01 1.11696310e-01 6.93821013e-02 4.97204773e-02 4.72891331e-02 5.13216667e-02 5.04977226e-01 5.01869440e-01 4.95287001e-01 4.85762268e-01 4.73290920e-01 4.58276063e-01 4.41564262e-01 4.24211949e-01 4.06913102e-01 3.89470667e-01 3.70635718e-01 3.46776396e-01 3.15103829e-01 2.82979488e-01 2.56364197e-01 2.38420784e-01 2.30300337e-01 2.30765566e-01 2.36997545e-01 2.45466217e-01 2.52477825e-01 2.54550934e-01 2.48707294e-01 2.32752249e-01 2.05649480e-01 1.68094829e-01 1.23323612e-01 7.82746598e-02 4.79534939e-02 3.85617875e-02 3.92471850e-02 5.11781216e-01 5.08302569e-01 5.01799226e-01 4.92991686e-01 4.81642336e-01 4.67898488e-01 4.52255309e-01 4.35462773e-01 4.17736977e-01 3.98023814e-01 3.73976290e-01 3.41629058e-01 3.00239384e-01 2.68644422e-01 2.49249682e-01 2.38026470e-01 2.34732270e-01 2.38108411e-01 2.45644316e-01 2.54302740e-01 2.60909230e-01 2.62414366e-01 2.56158412e-01 2.40164191e-01 2.13510886e-01 1.76841617e-01 1.32829815e-01 8.62343088e-02 4.93451990e-02 3.46857198e-02 3.19298618e-02 5.20579875e-01 5.17174780e-01 5.11106253e-01 5.03093660e-01 4.92752731e-01 4.80023921e-01 4.64964151e-01 4.47734922e-01 4.28158909e-01 4.04652655e-01 3.74763608e-01 3.35674882e-01 2.90833771e-01 2.60300547e-01 2.48411924e-01 2.43906960e-01 2.44620651e-01 2.50076324e-01 2.58304477e-01 2.66700268e-01 2.72468597e-01 2.72897840e-01 2.65618980e-01 2.48876810e-01 2.21870929e-01 1.85232118e-01 1.41508326e-01 9.50427875e-02 5.42754047e-02 3.48027982e-02 3.01057938e-02 5.29312611e-01 5.26513457e-01 5.21155477e-01 5.13900101e-01 5.04279673e-01 4.92018849e-01 4.76829112e-01 4.58096832e-01 4.35243040e-01 4.06949311e-01 3.71807426e-01 3.30517799e-01 2.88610488e-01 2.61749446e-01 2.52088219e-01 2.52130419e-01 2.55630523e-01 2.62309015e-01 2.70858943e-01 2.78938144e-01 2.83939481e-01 2.83366352e-01 2.75081724e-01 2.57529080e-01 2.30023101e-01 1.93208128e-01 1.49651453e-01 1.04200214e-01 6.32651225e-02 3.74747664e-02 3.08032520e-02 5.32469273e-01 5.30951321e-01 5.26067376e-01 5.19174099e-01 5.09867549e-01 4.97774541e-01 4.82473135e-01 4.63104606e-01 4.38772947e-01 4.08577204e-01 3.71498406e-01 3.30152690e-01 2.90751845e-01 2.65699625e-01 2.57094860e-01 2.57363349e-01 2.61727482e-01 2.68695205e-01 2.77227283e-01 2.85088778e-01 2.89716661e-01 2.88677067e-01 2.79914856e-01 2.61949778e-01 2.34143987e-01 1.97150052e-01 1.53522313e-01 1.08158767e-01 6.76274896e-02 3.95328850e-02 3.08968723e-02 
