# vtk DataFile Version 2.0
results_case1_non_linear/6_density.vtk, Created by Freefem++ 
ASCII
DATASET UNSTRUCTURED_GRID
POINTS 961 float
0 0 0
0.033333333 0 0
0.066666667 0 0
0.1 0 0
0.13333333 0 0
0.16666667 0 0
0.2 0 0
0.23333333 0 0
0.26666667 0 0
0.3 0 0
0.33333333 0 0
0.36666667 0 0
0.4 0 0
0.43333333 0 0
0.46666667 0 0
0.5 0 0
0.53333333 0 0
0.56666667 0 0
0.6 0 0
0.63333333 0 0
0.66666667 0 0
0.7 0 0
0.73333333 0 0
0.76666667 0 0
0.8 0 0
0.83333333 0 0
0.86666667 0 0
0.9 0 0
0.93333333 0 0
0.96666667 0 0
1 0 0
0 0.033333333 0
0.033333333 0.033333333 0
0.066666667 0.033333333 0
0.1 0.033333333 0
0.13333333 0.033333333 0
0.16666667 0.033333333 0
0.2 0.033333333 0
0.23333333 0.033333333 0
0.26666667 0.033333333 0
0.3 0.033333333 0
0.33333333 0.033333333 0
0.36666667 0.033333333 0
0.4 0.033333333 0
0.43333333 0.033333333 0
0.46666667 0.033333333 0
0.5 0.033333333 0
0.53333333 0.033333333 0
0.56666667 0.033333333 0
0.6 0.033333333 0
0.63333333 0.033333333 0
0.66666667 0.033333333 0
0.7 0.033333333 0
0.73333333 0.033333333 0
0.76666667 0.033333333 0
0.8 0.033333333 0
0.83333333 0.033333333 0
0.86666667 0.033333333 0
0.9 0.033333333 0
0.93333333 0.033333333 0
0.96666667 0.033333333 0
1 0.033333333 0
0 0.066666667 0
0.033333333 0.066666667 0
0.066666667 0.066666667 0
0.1 0.066666667 0
0.13333333 0.066666667 0
0.16666667 0.066666667 0
0.2 0.066666667 0
0.23333333 0.066666667 0
0.26666667 0.066666667 0
0.3 0.066666667 0
0.33333333 0.066666667 0
0.36666667 0.066666667 0
0.4 0.066666667 0
0.43333333 0.066666667 0
0.46666667 0.066666667 0
0.5 0.066666667 0
0.53333333 0.066666667 0
0.56666667 0.066666667 0
0.6 0.066666667 0
0.63333333 0.066666667 0
0.66666667 0.066666667 0
0.7 0.066666667 0
0.73333333 0.066666667 0
0.76666667 0.066666667 0
0.8 0.066666667 0
0.83333333 0.066666667 0
0.86666667 0.066666667 0
0.9 0.066666667 0
0.93333333 0.066666667 0
0.96666667 0.066666667 0
1 0.066666667 0
0 0.1 0
0.033333333 0.1 0
0.066666667 0.1 0
0.1 0.1 0
0.13333333 0.1 0
0.16666667 0.1 0
0.2 0.1 0
0.23333333 0.1 0
0.26666667 0.1 0
0.3 0.1 0
0.33333333 0.1 0
0.36666667 0.1 0
0.4 0.1 0
0.43333333 0.1 0
0.46666667 0.1 0
0.5 0.1 0
0.53333333 0.1 0
0.56666667 0.1 0
0.6 0.1 0
0.63333333 0.1 0
0.66666667 0.1 0
0.7 0.1 0
0.73333333 0.1 0
0.76666667 0.1 0
0.8 0.1 0
0.83333333 0.1 0
0.86666667 0.1 0
0.9 0.1 0
0.93333333 0.1 0
0.96666667 0.1 0
1 0.1 0
0 0.13333333 0
0.033333333 0.13333333 0
0.066666667 0.13333333 0
0.1 0.13333333 0
0.13333333 0.13333333 0
0.16666667 0.13333333 0
0.2 0.13333333 0
0.23333333 0.13333333 0
0.26666667 0.13333333 0
0.3 0.13333333 0
0.33333333 0.13333333 0
0.36666667 0.13333333 0
0.4 0.13333333 0
0.43333333 0.13333333 0
0.46666667 0.13333333 0
0.5 0.13333333 0
0.53333333 0.13333333 0
0.56666667 0.13333333 0
0.6 0.13333333 0
0.63333333 0.13333333 0
0.66666667 0.13333333 0
0.7 0.13333333 0
0.73333333 0.13333333 0
0.76666667 0.13333333 0
0.8 0.13333333 0
0.83333333 0.13333333 0
0.86666667 0.13333333 0
0.9 0.13333333 0
0.93333333 0.13333333 0
0.96666667 0.13333333 0
1 0.13333333 0
0 0.16666667 0
0.033333333 0.16666667 0
0.066666667 0.16666667 0
0.1 0.16666667 0
0.13333333 0.16666667 0
0.16666667 0.16666667 0
0.2 0.16666667 0
0.23333333 0.16666667 0
0.26666667 0.16666667 0
0.3 0.16666667 0
0.33333333 0.16666667 0
0.36666667 0.16666667 0
0.4 0.16666667 0
0.43333333 0.16666667 0
0.46666667 0.16666667 0
0.5 0.16666667 0
0.53333333 0.16666667 0
0.56666667 0.16666667 0
0.6 0.16666667 0
0.63333333 0.16666667 0
0.66666667 0.16666667 0
0.7 0.16666667 0
0.73333333 0.16666667 0
0.76666667 0.16666667 0
0.8 0.16666667 0
0.83333333 0.16666667 0
0.86666667 0.16666667 0
0.9 0.16666667 0
0.93333333 0.16666667 0
0.96666667 0.16666667 0
1 0.16666667 0
0 0.2 0
0.033333333 0.2 0
0.066666667 0.2 0
0.1 0.2 0
0.13333333 0.2 0
0.16666667 0.2 0
0.2 0.2 0
0.23333333 0.2 0
0.26666667 0.2 0
0.3 0.2 0
0.33333333 0.2 0
0.36666667 0.2 0
0.4 0.2 0
0.43333333 0.2 0
0.46666667 0.2 0
0.5 0.2 0
0.53333333 0.2 0
0.56666667 0.2 0
0.6 0.2 0
0.63333333 0.2 0
0.66666667 0.2 0
0.7 0.2 0
0.73333333 0.2 0
0.76666667 0.2 0
0.8 0.2 0
0.83333333 0.2 0
0.86666667 0.2 0
0.9 0.2 0
0.93333333 0.2 0
0.96666667 0.2 0
1 0.2 0
0 0.23333333 0
0.033333333 0.23333333 0
0.066666667 0.23333333 0
0.1 0.23333333 0
0.13333333 0.23333333 0
0.16666667 0.23333333 0
0.2 0.23333333 0
0.23333333 0.23333333 0
0.26666667 0.23333333 0
0.3 0.23333333 0
0.33333333 0.23333333 0
0.36666667 0.23333333 0
0.4 0.23333333 0
0.43333333 0.23333333 0
0.46666667 0.23333333 0
0.5 0.23333333 0
0.53333333 0.23333333 0
0.56666667 0.23333333 0
0.6 0.23333333 0
0.63333333 0.23333333 0
0.66666667 0.23333333 0
0.7 0.23333333 0
0.73333333 0.23333333 0
0.76666667 0.23333333 0
0.8 0.23333333 0
0.83333333 0.23333333 0
0.86666667 0.23333333 0
0.9 0.23333333 0
0.93333333 0.23333333 0
0.96666667 0.23333333 0
1 0.23333333 0
0 0.26666667 0
0.033333333 0.26666667 0
0.066666667 0.26666667 0
0.1 0.26666667 0
0.13333333 0.26666667 0
0.16666667 0.26666667 0
0.2 0.26666667 0
0.23333333 0.26666667 0
0.26666667 0.26666667 0
0.3 0.26666667 0
0.33333333 0.26666667 0
0.36666667 0.26666667 0
0.4 0.26666667 0
0.43333333 0.26666667 0
0.46666667 0.26666667 0
0.5 0.26666667 0
0.53333333 0.26666667 0
0.56666667 0.26666667 0
0.6 0.26666667 0
0.63333333 0.26666667 0
0.66666667 0.26666667 0
0.7 0.26666667 0
0.73333333 0.26666667 0
0.76666667 0.26666667 0
0.8 0.26666667 0
0.83333333 0.26666667 0
0.86666667 0.26666667 0
0.9 0.26666667 0
0.93333333 0.26666667 0
0.96666667 0.26666667 0
1 0.26666667 0
0 0.3 0
0.033333333 0.3 0
0.066666667 0.3 0
0.1 0.3 0
0.13333333 0.3 0
0.16666667 0.3 0
0.2 0.3 0
0.23333333 0.3 0
0.26666667 0.3 0
0.3 0.3 0
0.33333333 0.3 0
0.36666667 0.3 0
0.4 0.3 0
0.43333333 0.3 0
0.46666667 0.3 0
0.5 0.3 0
0.53333333 0.3 0
0.56666667 0.3 0
0.6 0.3 0
0.63333333 0.3 0
0.66666667 0.3 0
0.7 0.3 0
0.73333333 0.3 0
0.76666667 0.3 0
0.8 0.3 0
0.83333333 0.3 0
0.86666667 0.3 0
0.9 0.3 0
0.93333333 0.3 0
0.96666667 0.3 0
1 0.3 0
0 0.33333333 0
0.033333333 0.33333333 0
0.066666667 0.33333333 0
0.1 0.33333333 0
0.13333333 0.33333333 0
0.16666667 0.33333333 0
0.2 0.33333333 0
0.23333333 0.33333333 0
0.26666667 0.33333333 0
0.3 0.33333333 0
0.33333333 0.33333333 0
0.36666667 0.33333333 0
0.4 0.33333333 0
0.43333333 0.33333333 0
0.46666667 0.33333333 0
0.5 0.33333333 0
0.53333333 0.33333333 0
0.56666667 0.33333333 0
0.6 0.33333333 0
0.63333333 0.33333333 0
0.66666667 0.33333333 0
0.7 0.33333333 0
0.73333333 0.33333333 0
0.76666667 0.33333333 0
0.8 0.33333333 0
0.83333333 0.33333333 0
0.86666667 0.33333333 0
0.9 0.33333333 0
0.93333333 0.33333333 0
0.96666667 0.33333333 0
1 0.33333333 0
0 0.36666667 0
0.033333333 0.36666667 0
0.066666667 0.36666667 0
0.1 0.36666667 0
0.13333333 0.36666667 0
0.16666667 0.36666667 0
0.2 0.36666667 0
0.23333333 0.36666667 0
0.26666667 0.36666667 0
0.3 0.36666667 0
0.33333333 0.36666667 0
0.36666667 0.36666667 0
0.4 0.36666667 0
0.43333333 0.36666667 0
0.46666667 0.36666667 0
0.5 0.36666667 0
0.53333333 0.36666667 0
0.56666667 0.36666667 0
0.6 0.36666667 0
0.63333333 0.36666667 0
0.66666667 0.36666667 0
0.7 0.36666667 0
0.73333333 0.36666667 0
0.76666667 0.36666667 0
0.8 0.36666667 0
0.83333333 0.36666667 0
0.86666667 0.36666667 0
0.9 0.36666667 0
0.93333333 0.36666667 0
0.96666667 0.36666667 0
1 0.36666667 0
0 0.4 0
0.033333333 0.4 0
0.066666667 0.4 0
0.1 0.4 0
0.13333333 0.4 0
0.16666667 0.4 0
0.2 0.4 0
0.23333333 0.4 0
0.26666667 0.4 0
0.3 0.4 0
0.33333333 0.4 0
0.36666667 0.4 0
0.4 0.4 0
0.43333333 0.4 0
0.46666667 0.4 0
0.5 0.4 0
0.53333333 0.4 0
0.56666667 0.4 0
0.6 0.4 0
0.63333333 0.4 0
0.66666667 0.4 0
0.7 0.4 0
0.73333333 0.4 0
0.76666667 0.4 0
0.8 0.4 0
0.83333333 0.4 0
0.86666667 0.4 0
0.9 0.4 0
0.93333333 0.4 0
0.96666667 0.4 0
1 0.4 0
0 0.43333333 0
0.033333333 0.43333333 0
0.066666667 0.43333333 0
0.1 0.43333333 0
0.13333333 0.43333333 0
0.16666667 0.43333333 0
0.2 0.43333333 0
0.23333333 0.43333333 0
0.26666667 0.43333333 0
0.3 0.43333333 0
0.33333333 0.43333333 0
0.36666667 0.43333333 0
0.4 0.43333333 0
0.43333333 0.43333333 0
0.46666667 0.43333333 0
0.5 0.43333333 0
0.53333333 0.43333333 0
0.56666667 0.43333333 0
0.6 0.43333333 0
0.63333333 0.43333333 0
0.66666667 0.43333333 0
0.7 0.43333333 0
0.73333333 0.43333333 0
0.76666667 0.43333333 0
0.8 0.43333333 0
0.83333333 0.43333333 0
0.86666667 0.43333333 0
0.9 0.43333333 0
0.93333333 0.43333333 0
0.96666667 0.43333333 0
1 0.43333333 0
0 0.46666667 0
0.033333333 0.46666667 0
0.066666667 0.46666667 0
0.1 0.46666667 0
0.13333333 0.46666667 0
0.16666667 0.46666667 0
0.2 0.46666667 0
0.23333333 0.46666667 0
0.26666667 0.46666667 0
0.3 0.46666667 0
0.33333333 0.46666667 0
0.36666667 0.46666667 0
0.4 0.46666667 0
0.43333333 0.46666667 0
0.46666667 0.46666667 0
0.5 0.46666667 0
0.53333333 0.46666667 0
0.56666667 0.46666667 0
0.6 0.46666667 0
0.63333333 0.46666667 0
0.66666667 0.46666667 0
0.7 0.46666667 0
0.73333333 0.46666667 0
0.76666667 0.46666667 0
0.8 0.46666667 0
0.83333333 0.46666667 0
0.86666667 0.46666667 0
0.9 0.46666667 0
0.93333333 0.46666667 0
0.96666667 0.46666667 0
1 0.46666667 0
0 0.5 0
0.033333333 0.5 0
0.066666667 0.5 0
0.1 0.5 0
0.13333333 0.5 0
0.16666667 0.5 0
0.2 0.5 0
0.23333333 0.5 0
0.26666667 0.5 0
0.3 0.5 0
0.33333333 0.5 0
0.36666667 0.5 0
0.4 0.5 0
0.43333333 0.5 0
0.46666667 0.5 0
0.5 0.5 0
0.53333333 0.5 0
0.56666667 0.5 0
0.6 0.5 0
0.63333333 0.5 0
0.66666667 0.5 0
0.7 0.5 0
0.73333333 0.5 0
0.76666667 0.5 0
0.8 0.5 0
0.83333333 0.5 0
0.86666667 0.5 0
0.9 0.5 0
0.93333333 0.5 0
0.96666667 0.5 0
1 0.5 0
0 0.53333333 0
0.033333333 0.53333333 0
0.066666667 0.53333333 0
0.1 0.53333333 0
0.13333333 0.53333333 0
0.16666667 0.53333333 0
0.2 0.53333333 0
0.23333333 0.53333333 0
0.26666667 0.53333333 0
0.3 0.53333333 0
0.33333333 0.53333333 0
0.36666667 0.53333333 0
0.4 0.53333333 0
0.43333333 0.53333333 0
0.46666667 0.53333333 0
0.5 0.53333333 0
0.53333333 0.53333333 0
0.56666667 0.53333333 0
0.6 0.53333333 0
0.63333333 0.53333333 0
0.66666667 0.53333333 0
0.7 0.53333333 0
0.73333333 0.53333333 0
0.76666667 0.53333333 0
[...]
CELL_DATA 1920
Scalars  Label int 1
LOOKUP_TABLE FreeFempp_table
0
0
0
0
0
0
0
0
0
0
0
0
0
0
0
0
0
0
0
0
0
0
0
0
0
0
0
0
0
0
0
0
0
0
0
0
0
0
0
0
0
0
0
0
0
0
0
0
0
0
0
0
0
0
0
0
0
0
0
0
0
0
0
0
0
0
0
0
0
0
0
0
0
0
0
0
0
0
0
0
0
0
0
0
0
0
0
0
0
0
0
0
0
0
0
0
0
0
0
0
0
0
0
0
0
0
0
0
0
0
0
0
0
0
0
0
0
0
0
0
0
0
0
0
0
0
0
0
0
0
0
0
0
0
0
0
0
0
0
0
0
0
0
0
0
0
0
0
0
0
0
0
0
0
0
0
0
0
0
0
0
0
0
0
0
0
0
0
0
0
0
0
0
0
0
0
0
0
0
0
0
0
0
0
0
0
0
0
0
0
0
0
0
0
0
0
0
0
0
0
0
0
0
0
0
0
0
0
0
0
0
0
0
0
0
0
0
0
0
0
0
0
0
0
0
0
0
0
0
0
0
0
0
0
0
0
0
0
0
0
0
0
0
0
0
0
0
0
0
0
0
0
0
0
0
0
0
0
0
0
0
0
0
0
0
0
0
0
0
0
0
0
0
0
0
0
0
0
0
0
0
0
0
0
0
0
0
0
0
0
0
0
0
0
0
0
0
0
0
0
0
0
0
0
0
0
0
0
0
0
0
0
0
0
0
0
0
0
0
0
0
0
0
0
0
0
0
0
0
0
0
0
0
0
0
0
0
0
0
0
0
0
0
0
0
0
0
0
0
0
0
0
0
0
0
0
0
0
0
0
0
0
0
0
0
0
0
0
0
0
0
0
0
0
0
0
0
0
0
0
0
0
0
0
0
0
0
0
0
0
0
0
0
0
0
0
0
0
0
0
0
0
0
0
0
0
0
0
0
0
0
0
0
0
0
0
0
0
0
0
0
0
0
0
0
0
0
0
0
0
0
0
0
0
0
0
0
0
0
0
0
0
0
0
0
0
0
0
0
0
0
0
0
0
0
0
0
0
0
0
0
0
0
0
0
0
0
0
0
0
0
0
0
0
0
0
0
0
0
0
0
0
0
0
0
0
0
0
0
0
0
0
0
0
0
0
0
0
0
0
0
0
0
0
0
0
0
0
0
0
0
0
0
0
0
0
0
0
0
0
0
0
0
0
0
0
0
0
0
0
0
0
0
0
0
0
0
0
0
0
0
0
0
0
0
0
0
0
0
0
0
0
0
0
0
0
0
0
0
0
0
0
0
0
0
0
0
0
0
0
0
0
0
0
0
0
0
0
0
0
0
0
0
0
0
0
0
0
0
0
0
0
0
0
0
0
0
0
0
0
0
0
0
0
0
0
0
0
0
0
0
0
0
0
0
0
0
0
0
0
0
0
0
0
0
0
0
0
0
0
0
0
0
0
0
0
0
0
0
0
0
0
0
0
0
0
0
0
0
0
0
0
0
0
0
0
0
0
0
0
0
0
0
0
0
0
0
0
0
0
0
0
0
0
0
0
0
0
0
0
0
0
0
0
0
0
0
0
0
0
0
0
0
0
0
0
0
0
0
0
0
0
0
0
0
0
0
0
0
0
0
0
0
0
0
0
0
0
0
0
0
0
0
0
0
0
0
0
0
0
0
0
0
0
0
0
0
0
0
0
0
0
0
0
0
0
0
0
0
0
0
0
0
0
0
0
0
0
0
0
0
0
0
0
0
0
0
0
0
0
0
0
0
0
0
0
0
0
0
0
0
0
0
0
0
0
0
0
0
0
0
0
0
0
0
0
0
0
0
0
0
0
0
0
0
0
0
0
0
0
0
0
0
0
0
0
0
0
0
0
0
0
0
0
0
0
0
0
0
0
0
0
0
0
0
0
0
0
0
0
0
0
0
0
0
0
0
0
0
0
0
0
0
0
0
0
0
0
0
0
0
0
0
0
0
0
0
0
0
0
0
0
0
0
0
0
0
0
0
0
0
0
0
0
0
0
0
0
0
0
0
0
0
0
0
0
0
0
0
0
0
0
0
0
0
0
0
0
0
0
0
0
0
0
0
0
0
0
0
0
0
0
0
0
0
0
0
0
0
0
0
0
0
0
0
0
0
0
0
0
0
0
0
0
0
0
0
0
0
0
0
0
0
0
0
0
0
0
0
0
0
0
0
0
0
0
0
0
0
0
0
0
0
0
0
0
0
0
0
0
0
0
0
0
0
0
0
0
0
0
0
0
0
0
0
0
0
0
0
0
0
0
0
0
0
0
0
0
0
0
0
0
0
0
0
0
0
0
0
0
0
0
0
0
0
0
0
0
0
0
0
0
0
0
0
0
0
0
0
0
0
0
0
0
0
0
0
0
0
0
0
0
0
0
0
0
0
0
0
0
0
0
0
0
0
0
0
0
0
0
0
0
0
0
0
0
0
0
0
0
0
0
0
0
0
0
0
0
0
0
0
0
0
0
0
0
0
0
0
0
0
0
0
0
0
0
0
0
0
0
0
0
0
0
0
0
0
0
0
0
0
0
0
0
0
0
0
0
0
0
0
0
0
0
0
0
0
0
0
0
0
0
0
0
0
0
0
0
0
0
0
0
0
0
0
0
0
0
0
0
0
0
0
0
0
0
0
0
0
0
0
0
0
0
0
0
0
0
0
0
0
0
0
0
0
0
0
0
0
0
0
0
0
0
0
0
0
0
0
0
0
0
0
0
0
0
0
0
0
0
0
0
0
0
0
0
0
0
0
0
0
0
0
0
0
0
0
0
0
0
0
0
0
0
0
0
0
0
0
0
0
0
0
0
0
0
0
0
0
0
0
0
0
0
0
0
0
0
0
0
0
0
0
0
0
0
0
0
0
0
0
0
0
0
0
0
0
0
0
0
0
0
0
0
0
0
0
0
0
0
0
0
0
0
0
0
0
0
0
0
0
0
0
0
0
0
0
0
0
0
0
0
0
0
0
0
0
0
0
0
0
0
0
0
0
0
0
0
0
0
0
0
0
0
0
0
0
0
0
0
0
0
0
0
0
0
0
0
0
0
0
0
0
0
0
0
0
0
0
0
0
0
0
0
0
0
0
0
0
0
0
0
0
0
0
0
0
0
0
0
0
0
0
0
0
0
0
0
0
0
0
0
0
0
0
0
0
0
0
0
0
0
0
0
0
0
0
0
0
0
0
0
0
0
0
0
0
0
0
0
0
0
0
0
0
0
0
0
0
0
0
0
0
0
0
0
0
0
0
0
0
0
0
0
0
0
0
0
0
0
0
0
0
0
0
0
0
0
0
0
0
0
0
0
0
0
0
0
0
0
0
0
0
0
0
0
0
0
0
0
0
0
0
0
0
0
0
0
0
0
0
0
0
0
0
0
0
0
0
0
0
0
0
0
0
0
0
0
0
0
0
0
0
0
0
0
0
0
0
0
0
0
0
0
0
0
0
0
0
0
0
0
0
0
0
0
0
0
0
0
0
0
0
0
0
0
0
0
0
0
0
0
0
0
0
0
0
0
0
0
0
0
0
0
0
0
0
0
0
0
0
0
0
0
0
0
0
0
0
0
0
0
0
0
0
0
0
0
0
0
0
0
0
0
0
0
0
0
0
0
0
0
0
0
0
0
0
0
0
0
0
0
0
0
0
0
0
0
0
0
0
0
0
0
0
0
0
0
0
0
0
0
0
0
0
0
0
0
0
0
0
0
0
0
0
0
0
0
0
0
0
0
0
0
0
0
0
0
0
0
0
0
0
0
0
0
0
0
0
0
0
0
0
0
0
0
0
0
0
0
0
0
0
0
0
0
0
0
0
0
0
0
0
0
0
0
0
0
0
0
0
0
0
0
0
0
0
0
0
0
0
0
0
0
0
0
0
0
0
0
0
0
0
0
0
0
0
0
0
0
0
0
0
0
0
0
0
0
0
0
0
0
0
0
0
0
0
0
0
0
0
0
0
0
0
0
0
0
0
0
0
0
0
0
0
0
0
0
0
0
0
0
0
0
0
0
0
0
0
0
0
0
0
0
0
0
0
0
0
0
0
0
0
0
0
0
0
0
0
0
1
1
1
1
1
1
1
1
1
1
1
1
1
1
1
1
1
1
1
1
1
1
1
1
1
1
1
1
1
1
2
2
2
2
2
2
2
2
2
2
2
2
2
2
2
2
2
2
2
2
2
2
2
2
2
2
2
2
2
2
3
3
3
3
3
3
3
3
3
3
3
3
3
3
3
3
3
3
3
3
3
3
3
3
3
3
3
3
3
3
4
4
4
4
4
4
4
4
4
4
4
4
4
4
4
4
4
4
4
4
4
4
4
4
4
4
4
4
4
4

LOOKUP_TABLE FreeFempp_table 5
1.00000000 0.00000000 0.00000000 1.00000000
1.00000000 1.00000000 0.00000000 1.00000000
1.00000000 0.00000000 1.00000000 1.00000000
0.00000000 1.00000000 0.00000000 1.00000000
0.00000000 1.00000000 1.00000000 1.00000000

POINT_DATA 961
FIELD FieldData 1
Density 1 961 float
2.04953209e-01 2.56109118e-01 3.91656101e-01 4.26836491e-01 4.30620551e-01 4.28841799e-01 4.26066667e-01 4.19286966e-01 3.73540014e-01 2.25324422e-01 9.40434113e-02 8.71176049e-02 1.95569441e-01 3.64278138e-01 4.34597433e-01 4.67040926e-01 5.03893316e-01 5.53584754e-01 5.93944490e-01 5.91338575e-01 5.56094229e-01 5.30352771e-01 5.22842109e-01 5.22024572e-01 5.22304118e-01 5.20976603e-01 5.19496202e-01 5.19088268e-01 5.18787801e-01 5.20761251e-01 5.26189446e-01 3.79671790e-02 7.50668123e-02 2.57739395e-01 3.18666846e-01 3.22073221e-01 3.19472969e-01 3.16467404e-01 3.10558498e-01 2.82513797e-01 1.86885670e-01 7.77208731e-02 5.52194938e-02 1.31650880e-01 3.19248021e-01 4.01763439e-01 4.34038490e-01 4.75080222e-01 5.41934967e-01 6.13664269e-01 6.32131577e-01 5.88771462e-01 5.45530558e-01 5.28917849e-01 5.22491217e-01 5.19183397e-01 5.14723897e-01 5.10862648e-01 5.09143651e-01 5.08489430e-01 5.10574281e-01 5.19451618e-01 6.54310063e-02 3.84747647e-02 3.34607214e-02 4.67589460e-02 4.60162796e-02 4.53914627e-02 4.49901186e-02 4.44168448e-02 4.20511924e-02 3.22484151e-02 1.70311611e-02 1.34812323e-02 4.72486503e-02 2.70790696e-01 3.98858309e-01 4.19043034e-01 4.48445618e-01 5.13091743e-01 6.14274740e-01 6.51338995e-01 5.86388588e-01 5.41182876e-01 5.40399015e-01 5.38281381e-01 5.31209230e-01 5.17763615e-01 5.06714225e-01 5.01099467e-01 4.98374730e-01 5.00372589e-01 5.11949182e-01 3.83400619e-01 2.99903870e-01 8.93613845e-02 5.49196675e-02 5.20899370e-02 5.19107655e-02 5.18479832e-02 5.17064035e-02 5.14163040e-02 5.07865660e-02 5.04772775e-02 5.22618182e-02 4.06608693e-02 7.13320225e-02 2.86081880e-01 3.64648849e-01 4.26830232e-01 4.73389357e-01 5.91822743e-01 6.23013735e-01 3.92875135e-01 3.17811400e-01 3.68910223e-01 4.16983634e-01 4.55083072e-01 4.86952990e-01 4.94176775e-01 4.88251507e-01 4.83946323e-01 4.86702889e-01 5.02844632e-01 4.75309551e-01 4.51045454e-01 3.92678171e-01 3.67951721e-01 3.70417953e-01 3.70334178e-01 3.69760722e-01 3.68799299e-01 3.67324889e-01 3.65184009e-01 3.62161547e-01 3.55647773e-01 3.00553232e-01 7.49586821e-02 4.18240316e-02 8.72835219e-02 2.84427762e-01 3.79612625e-01 5.30873120e-01 6.76074088e-01 2.89417118e-01 1.04153350e-01 8.05169046e-02 8.65108967e-02 1.15433268e-01 2.31875390e-01 3.86729926e-01 4.57320184e-01 4.62497890e-01 4.68510747e-01 4.90089417e-01 4.89108950e-01 4.68469203e-01 4.60977882e-01 4.66557533e-01 4.70067203e-01 4.70138967e-01 4.69830275e-01 4.69165683e-01 4.68104064e-01 4.66618836e-01 4.64630574e-01 4.61526424e-01 4.50428933e-01 3.40937525e-01 9.41061452e-02 4.18015979e-02 3.91702577e-02 8.85223150e-02 3.20730478e-01 5.84314466e-01 6.29068255e-01 2.70578295e-01 1.05376303e-01 4.01608348e-02 2.19837464e-02 3.53098027e-02 9.00534391e-02 3.30464721e-01 4.32906121e-01 4.51265514e-01 4.77782398e-01 4.96119082e-01 4.78208095e-01 4.73659784e-01 4.75163519e-01 4.76080209e-01 4.76728350e-01 4.77325678e-01 4.77742583e-01 4.78073180e-01 4.78382468e-01 4.78647053e-01 4.78723615e-01 4.78350878e-01 4.72697705e-01 4.17583615e-01 3.26759368e-01 1.00205101e-01 4.42446470e-02 3.98321785e-02 8.36676657e-02 1.86896369e-01 5.93444943e-01 5.09547710e-01 2.57688850e-01 1.39236629e-01 1.17257260e-01 7.90726915e-02 7.99021050e-02 3.22396696e-01 4.32990313e-01 4.68400329e-01 5.01016498e-01 4.85368878e-01 4.81609941e-01 4.82214868e-01 4.82865900e-01 4.84021872e-01 4.85378772e-01 4.86821562e-01 4.88390177e-01 4.90095824e-01 4.91869628e-01 4.93596137e-01 4.95436341e-01 4.98375744e-01 5.01998067e-01 5.04141092e-01 4.45637107e-01 3.48815531e-01 1.06841035e-01 4.75067534e-02 1.69921275e-02 7.85065666e-02 1.77321464e-01 5.71034849e-01 6.20116830e-01 6.32530332e-01 5.76374650e-01 1.31888971e-01 8.22152793e-02 3.32718939e-01 4.45189923e-01 5.04095197e-01 4.90052581e-01 4.86905485e-01 4.87578869e-01 4.88408476e-01 4.89838988e-01 4.91656452e-01 4.93726522e-01 4.95976657e-01 4.98335719e-01 5.00708222e-01 5.03031313e-01 5.05518794e-01 5.09022653e-01 5.14824390e-01 5.23559511e-01 5.31221449e-01 5.37320495e-01 4.79682863e-01 3.79984856e-01 1.23369738e-01 7.74970278e-02 5.26678860e-02 7.80864432e-02 1.36676222e-01 2.13511690e-01 3.01937729e-01 4.59985971e-01 1.37145430e-01 8.31417143e-02 2.77221918e-01 5.05135417e-01 4.91940230e-01 4.89190131e-01 4.90098864e-01 4.91210967e-01 4.92885977e-01 4.94941890e-01 4.97217089e-01 4.99571770e-01 5.01891077e-01 5.04087806e-01 5.06164372e-01 5.08371472e-01 5.11359036e-01 5.16021609e-01 5.23036778e-01 5.32756507e-01 5.46072304e-01 5.59614003e-01 5.73842943e-01 5.27976453e-01 4.83067036e-01 3.98908108e-01 1.33827627e-01 6.90850765e-02 4.08601165e-02 8.30937922e-02 3.01912218e-01 6.10574901e-01 8.11005756e-02 3.83366756e-02 5.03824115e-01 4.90601867e-01 4.88001883e-01 4.89155263e-01 4.90547687e-01 4.92412150e-01 4.94530648e-01 4.96694803e-01 4.98724043e-01 5.00492811e-01 5.01937687e-01 5.03102779e-01 5.04230797e-01 5.05805194e-01 5.08409739e-01 5.12490392e-01 5.18405676e-01 5.26704907e-01 5.38089097e-01 5.54306269e-01 5.72980821e-01 5.96342444e-01 6.03009522e-01 5.56178510e-01 4.80373442e-01 1.71616659e-01 1.45189077e-01 2.87135214e-01 6.62662745e-01 1.17768951e-01 1.13360770e-02 4.99921262e-01 4.85714048e-01 4.83069152e-01 4.84531939e-01 4.86240089e-01 4.88300443e-01 4.90426153e-01 4.92348671e-01 4.93856788e-01 4.94834483e-01 4.95247096e-01 4.95159119e-01 4.94779527e-01 4.94456023e-01 4.94561642e-01 4.95360017e-01 4.97036159e-01 4.99822646e-01 5.04087389e-01 5.10575175e-01 5.20341575e-01 5.34840882e-01 5.50949931e-01 5.69827020e-01 5.99331319e-01 5.73991060e-01 6.04193270e-01 6.78802311e-01 7.15964258e-01 1.17275044e-01 9.58212372e-03 4.93332475e-01 4.77152646e-01 4.74364847e-01 4.76374477e-01 4.78567570e-01 4.80970412e-01 4.83234972e-01 4.85019982e-01 4.86081749e-01 4.86327797e-01 4.85758662e-01 4.84455913e-01 4.82601672e-01 4.80454713e-01 4.78265911e-01 4.76200640e-01 4.74358708e-01 4.72845644e-01 4.71819669e-01 4.71526742e-01 4.72271502e-01 4.74215686e-01 4.77105141e-01 4.81764823e-01 4.89929467e-01 5.05487740e-01 5.66488564e-01 6.77489758e-01 6.82815552e-01 1.08570807e-01 1.08886585e-02 4.84132230e-01 4.64972585e-01 4.61970747e-01 4.64986444e-01 4.68062669e-01 4.71168786e-01 4.73937631e-01 4.75933790e-01 4.76863980e-01 4.76675153e-01 4.75421637e-01 4.73221838e-01 4.70261604e-01 4.66764241e-01 4.62930977e-01 4.58901167e-01 4.54773456e-01 4.50658381e-01 4.46719617e-01 4.43190545e-01 4.40356314e-01 4.38543111e-01 4.38467383e-01 4.42112923e-01 4.53632832e-01 4.83893991e-01 5.56493342e-01 6.61743939e-01 6.14543021e-01 1.00074038e-01 1.38515746e-02 4.72539634e-01 4.49316055e-01 4.45784837e-01 4.50406969e-01 4.55155343e-01 4.59711283e-01 4.63656783e-01 4.66425151e-01 4.67671275e-01 4.67430234e-01 4.65862334e-01 4.63169098e-01 4.59582299e-01 4.55334127e-01 4.50622231e-01 4.45599198e-01 4.40399915e-01 4.35188502e-01 4.30206209e-01 4.25823480e-01 4.22629952e-01 4.21663672e-01 4.24993008e-01 4.36664581e-01 4.64178652e-01 5.19862115e-01 6.08516812e-01 6.65420353e-01 5.19100845e-01 9.03859138e-02 1.73244383e-02 4.58796352e-01 4.30277497e-01 4.25380468e-01 4.32295382e-01 4.40082788e-01 4.47412908e-01 4.53556091e-01 4.57751751e-01 4.59706843e-01 4.59685594e-01 4.58063215e-01 4.55191135e-01 4.51383084e-01 4.46902841e-01 4.41962481e-01 4.36738998e-01 4.31409538e-01 4.26198304e-01 4.21438307e-01 4.17679220e-01 4.15911704e-01 4.18017089e-01 4.27518636e-01 4.50483203e-01 4.95835841e-01 5.69580317e-01 6.42296612e-01 6.13712668e-01 3.43059093e-01 7.07090050e-02 2.15087235e-02 4.42938179e-01 4.07728791e-01 4.00173485e-01 4.10354465e-01 4.23298866e-01 4.35311675e-01 4.44857419e-01 4.50971812e-01 4.53738600e-01 4.53933120e-01 4.52302754e-01 4.49403316e-01 4.45634156e-01 4.41283077e-01 4.36572164e-01 4.31701869e-01 4.26895797e-01 4.22455668e-01 4.18850660e-01 4.16898608e-01 4.18129742e-01 4.25411135e-01 4.43704098e-01 4.80051279e-01 5.40131092e-01 6.11410618e-01 6.29294395e-01 4.87322509e-01 1.97427124e-01 5.57512715e-02 3.10350265e-02 4.24515784e-01 3.81216168e-01 3.69874805e-01 3.84868860e-01 4.05837774e-01 4.24815416e-01 4.38750863e-01 4.46776688e-01 4.49990332e-01 4.50080097e-01 4.48301256e-01 4.45402294e-01 4.41818237e-01 4.37823504e-01 4.33633208e-01 4.29470837e-01 4.25625533e-01 4.22527134e-01 4.20881689e-01 4.21936750e-01 4.27950323e-01 4.42809492e-01 4.72162426e-01 5.20814836e-01 5.83387971e-01 6.21823609e-01 5.54179132e-01 3.16444486e-01 1.25391379e-01 5.89514896e-02 5.07643707e-02 4.02362674e-01 3.50124359e-01 3.35238546e-01 3.57301742e-01 3.89538080e-01 4.17599022e-01 4.36117649e-01 4.45266902e-01 4.48101759e-01 4.47585225e-01 4.45468426e-01 4.42576200e-01 4.39282089e-01 4.35795814e-01 4.32308674e-01 4.29074883e-01 4.26483274e-01 4.25164729e-01 4.26184207e-01 4.31367427e-01 4.43740219e-01 4.67707545e-01 5.07531881e-01 5.61205924e-01 6.07365251e-01 5.91609538e-01 4.37711149e-01 2.18323529e-01 1.02947459e-01 8.04028437e-02 9.06389132e-02 3.74474168e-01 3.14400256e-01 2.98499018e-01 3.30478787e-01 3.77033144e-01 4.15248483e-01 4.37163413e-01 4.45816308e-01 4.47231680e-01 4.45681006e-01 4.43152666e-01 4.40342367e-01 4.37457383e-01 4.34603691e-01 4.31943864e-01 4.29777980e-01 4.28629607e-01 4.29386705e-01 4.33531910e-01 4.43445057e-01 4.62563545e-01 4.94606465e-01 5.40026724e-01 5.88091075e-01 6.06616259e-01 5.39082110e-01 3.54007393e-01 1.86374053e-01 1.18183523e-01 1.23855449e-01 1.63937062e-01 3.37880224e-01 2.75214672e-01 2.63066232e-01 3.08181435e-01 3.71288091e-01 4.18620735e-01 4.41099524e-01 4.47177619e-01 4.46334302e-01 4.43628699e-01 4.40822273e-01 4.38267291e-01 4.35940057e-01 4.33835685e-01 4.32097852e-01 4.31087106e-01 4.31474209e-01 4.34397578e-01 4.41677690e-01 4.55967426e-01 4.80407774e-01 5.16786337e-01 5.60974240e-01 5.96477687e-01 5.90092599e-01 4.98164982e-01 3.30941617e-01 2.06308886e-01 1.65839776e-01 1.95292592e-01 2.68750340e-01 2.89872080e-01 2.34762192e-01 2.32553959e-01 2.94409990e-01 3.74661118e-01 4.27130461e-01 4.46125746e-01 4.47854966e-01 4.44509089e-01 4.40919369e-01 4.38148439e-01 4.36084419e-01 4.34475601e-01 4.33230758e-01 4.32491928e-01 4.32681203e-01 4.34590369e-01 4.39522594e-01 4.49426174e-01 4.66797590e-01 4.93817806e-01 5.29916406e-01 5.67710638e-01 5.89695871e-01 5.68963706e-01 4.81307924e-01 3.53842020e-01 2.66581118e-01 2.42122665e-01 2.81096786e-01 3.59784633e-01 2.33147532e-01 1.96086377e-01 2.10095912e-01 2.92611837e-01 3.87582183e-01 4.38362360e-01 4.49947357e-01 4.46634799e-01 4.41270202e-01 4.37353611e-01 4.34998065e-01 4.33654368e-01 4.32906449e-01 4.32618380e-01 4.32941854e-01 4.34340149e-01 4.37661618e-01 4.44237053e-01 4.55892652e-01 4.74608362e-01 5.01345217e-01 5.33685327e-01 5.63120365e-01 5.74481130e-01 5.49647748e-01 4.80425715e-01 3.94423187e-01 3.37394774e-01 3.21118504e-01 3.52202237e-01 4.14882898e-01 1.77283332e-01 1.62307456e-01 1.98316589e-01 3.05009395e-01 4.07481641e-01 4.48559493e-01 4.50649112e-01 4.43018973e-01 4.36623991e-01 4.32996839e-01 4.31370646e-01 4.30906326e-01 4.31118071e-01 4.31865573e-01 4.33307260e-01 4.35904682e-01 4.40474749e-01 4.48232710e-01 4.60691005e-01 4.79162246e-01 5.03559172e-01 5.30547559e-01 5.52180290e-01 5.56891382e-01 5.34052968e-01 4.83881116e-01 4.27417964e-01 3.89295757e-01 3.75984550e-01 3.96284312e-01 4.43078995e-01 1.30081341e-01 1.34824663e-01 1.99407592e-01 3.31514716e-01 4.28968102e-01 4.54184920e-01 4.47415054e-01 4.37279522e-01 4.30935562e-01 4.28058416e-01 4.27319318e-01 4.27785784e-01 4.28996950e-01 4.30838287e-01 4.33457762e-01 4.37256843e-01 4.42925930e-01 4.51446652e-01 4.63923842e-01 4.81053293e-01 5.02097905e-01 5.23656785e-01 5.39228737e-01 5.40741682e-01 5.22506118e-01 4.87342060e-01 4.49218601e-01 4.22091842e-01 4.10597175e-01 4.23571318e-01 4.59374726e-01 9.53093916e-02 1.14370272e-01 2.15399459e-01 3.67443949e-01 4.45745826e-01 4.53421444e-01 4.40708548e-01 4.30167645e-01 4.24704462e-01 4.22774643e-01 4.22892779e-01 4.24219728e-01 4.26399976e-01 4.29366738e-01 4.33236390e-01 4.38290775e-01 4.45004553e-01 4.54037338e-01 4.66065764e-01 4.81322408e-01 4.98832881e-01 5.15689850e-01 5.27092040e-01 5.27778864e-01 5.14860749e-01 4.91140395e-01 4.65344965e-01 4.45994705e-01 4.36767340e-01 4.45208639e-01 4.72880661e-01 7.26875365e-02 1.02204360e-01 2.47565255e-01 4.03253078e-01 4.53434020e-01 4.46630329e-01 4.31899607e-01 4.22627211e-01 4.18443710e-01 4.17368054e-01 4.18118060e-01 4.20100003e-01 4.23126996e-01 4.27200288e-01 4.32395160e-01 4.38834131e-01 4.46710050e-01 4.56294507e-01 4.67833221e-01 4.81236517e-01 4.95589137e-01 5.08753598e-01 5.17538369e-01 5.18743575e-01 5.10924459e-01 4.96078074e-01 4.79426950e-01 4.66304600e-01 4.59512144e-01 4.64993447e-01 4.85975325e-01 5.84835522e-02 9.67343077e-02 2.90678591e-01 4.29035872e-01 4.51064438e-01 4.36187953e-01 4.22931522e-01 4.15799201e-01 4.12751496e-01 4.12090600e-01 4.13007289e-01 4.15256858e-01 4.18859363e-01 4.23903137e-01 4.30437237e-01 4.38433111e-01 4.47794348e-01 4.58381355e-01 4.69995558e-01 4.82261866e-01 4.94406372e-01 5.05068600e-01 5.12402892e-01 5.14645815e-01 5.11056602e-01 5.02774060e-01 4.92737174e-01 4.84241962e-01 4.79376525e-01 4.82794672e-01 4.98261154e-01 4.81756367e-02 9.33221057e-02 3.30221027e-01 4.40862119e-01 4.41906691e-01 4.26010996e-01 4.15932566e-01 4.10482764e-01 4.07599628e-01 4.06413972e-01 4.06733990e-01 4.08679426e-01 4.12466049e-01 4.18275058e-01 4.26168561e-01 4.36037838e-01 4.47581977e-01 4.60316241e-01 4.73601490e-01 4.86673981e-01 4.98656303e-01 5.08563697e-01 5.15373647e-01 5.18242598e-01 5.16890407e-01 5.12009621e-01 5.05330384e-01 4.99045521e-01 4.94991958e-01 4.97071505e-01 5.08572221e-01 4.55661975e-02 9.60459188e-02 3.69208872e-01 4.55026835e-01 4.44747180e-01 4.31450248e-01 4.23473597e-01 4.17803347e-01 4.13522005e-01 4.10682142e-01 4.09574300e-01 4.10533100e-01 4.13865387e-01 4.19795990e-01 4.28410023e-01 4.39593017e-01 4.52980012e-01 4.67926532e-01 4.83517051e-01 4.98624355e-01 5.12024760e-01 5.22557914e-01 5.29307842e-01 5.31786859e-01 5.30110180e-01 5.25121689e-01 5.18348038e-01 5.11666656e-01 5.06888211e-01 5.07257223e-01 5.15977502e-01 6.40098900e-02 1.02649301e-01 4.19743985e-01 4.95529771e-01 4.75324571e-01 4.63796198e-01 4.56970572e-01 4.51215595e-01 4.46393907e-01 4.42869097e-01 4.40995514e-01 4.41079468e-01 4.43372160e-01 4.48041409e-01 4.55126524e-01 4.64489907e-01 4.75779682e-01 4.88414049e-01 5.01593471e-01 5.14346302e-01 5.25613844e-01 5.34379721e-01 5.39838135e-01 5.41578889e-01 5.39748192e-01 5.35119593e-01 5.28995514e-01 5.22915721e-01 5.18336058e-01 5.17160714e-01 5.22678673e-01 
