# vtk DataFile Version 2.0
results_case1_non_linear/9_density.vtk, Created by Freefem++ 
ASCII
DATASET UNSTRUCTURED_GRID
POINTS 961 float
0 0 0
0.033333333 0 0
0.066666667 0 0
0.1 0 0
0.13333333 0 0
0.16666667 0 0
0.2 0 0
0.23333333 0 0
0.26666667 0 0
0.3 0 0
0.33333333 0 0
0.36666667 0 0
0.4 0 0
0.43333333 0 0
0.46666667 0 0
0.5 0 0
0.53333333 0 0
0.56666667 0 0
0.6 0 0
0.63333333 0 0
0.66666667 0 0
0.7 0 0
0.73333333 0 0
0.76666667 0 0
0.8 0 0
0.83333333 0 0
0.86666667 0 0
0.9 0 0
0.93333333 0 0
0.96666667 0 0
1 0 0
0 0.033333333 0
0.033333333 0.033333333 0
0.066666667 0.033333333 0
0.1 0.033333333 0
0.13333333 0.033333333 0
0.16666667 0.033333333 0
0.2 0.033333333 0
0.23333333 0.033333333 0
0.26666667 0.033333333 0
0.3 0.033333333 0
0.33333333 0.033333333 0
0.36666667 0.033333333 0
0.4 0.033333333 0
0.43333333 0.033333333 0
0.46666667 0.033333333 0
0.5 0.033333333 0
0.53333333 0.033333333 0
0.56666667 0.033333333 0
0.6 0.033333333 0
0.63333333 0.033333333 0
0.66666667 0.033333333 0
0.7 0.033333333 0
0.73333333 0.033333333 0
0.76666667 0.033333333 0
0.8 0.033333333 0
0.83333333 0.033333333 0
0.86666667 0.033333333 0
0.9 0.033333333 0
0.93333333 0.033333333 0
0.96666667 0.033333333 0
1 0.033333333 0
0 0.066666667 0
0.033333333 0.066666667 0
0.066666667 0.066666667 0
0.1 0.066666667 0
0.13333333 0.066666667 0
0.16666667 0.066666667 0
0.2 0.066666667 0
0.23333333 0.066666667 0
0.26666667 0.066666667 0
0.3 0.066666667 0
0.33333333 0.066666667 0
0.36666667 0.066666667 0
0.4 0.066666667 0
0.43333333 0.066666667 0
0.46666667 0.066666667 0
0.5 0.066666667 0
0.53333333 0.066666667 0
0.56666667 0.066666667 0
0.6 0.066666667 0
0.63333333 0.066666667 0
0.66666667 0.066666667 0
0.7 0.066666667 0
0.73333333 0.066666667 0
0.76666667 0.066666667 0
0.8 0.066666667 0
0.83333333 0.066666667 0
0.86666667 0.066666667 0
0.9 0.066666667 0
0.93333333 0.066666667 0
0.96666667 0.066666667 0
1 0.066666667 0
0 0.1 0
0.033333333 0.1 0
0.066666667 0.1 0
0.1 0.1 0
0.13333333 0.1 0
0.16666667 0.1 0
0.2 0.1 0
0.23333333 0.1 0
0.26666667 0.1 0
0.3 0.1 0
0.33333333 0.1 0
0.36666667 0.1 0
0.4 0.1 0
0.43333333 0.1 0
0.46666667 0.1 0
0.5 0.1 0
0.53333333 0.1 0
0.56666667 0.1 0
0.6 0.1 0
0.63333333 0.1 0
0.66666667 0.1 0
0.7 0.1 0
0.73333333 0.1 0
0.76666667 0.1 0
0.8 0.1 0
0.83333333 0.1 0
0.86666667 0.1 0
0.9 0.1 0
0.93333333 0.1 0
0.96666667 0.1 0
1 0.1 0
0 0.13333333 0
0.033333333 0.13333333 0
0.066666667 0.13333333 0
0.1 0.13333333 0
0.13333333 0.13333333 0
0.16666667 0.13333333 0
0.2 0.13333333 0
0.23333333 0.13333333 0
0.26666667 0.13333333 0
0.3 0.13333333 0
0.33333333 0.13333333 0
0.36666667 0.13333333 0
0.4 0.13333333 0
0.43333333 0.13333333 0
0.46666667 0.13333333 0
0.5 0.13333333 0
0.53333333 0.13333333 0
0.56666667 0.13333333 0
0.6 0.13333333 0
0.63333333 0.13333333 0
0.66666667 0.13333333 0
0.7 0.13333333 0
0.73333333 0.13333333 0
0.76666667 0.13333333 0
0.8 0.13333333 0
0.83333333 0.13333333 0
0.86666667 0.13333333 0
0.9 0.13333333 0
0.93333333 0.13333333 0
0.96666667 0.13333333 0
1 0.13333333 0
0 0.16666667 0
0.033333333 0.16666667 0
0.066666667 0.16666667 0
0.1 0.16666667 0
0.13333333 0.16666667 0
0.16666667 0.16666667 0
0.2 0.16666667 0
0.23333333 0.16666667 0
0.26666667 0.16666667 0
0.3 0.16666667 0
0.33333333 0.16666667 0
0.36666667 0.16666667 0
0.4 0.16666667 0
0.43333333 0.16666667 0
0.46666667 0.16666667 0
0.5 0.16666667 0
0.53333333 0.16666667 0
0.56666667 0.16666667 0
0.6 0.16666667 0
0.63333333 0.16666667 0
0.66666667 0.16666667 0
0.7 0.16666667 0
0.73333333 0.16666667 0
0.76666667 0.16666667 0
0.8 0.16666667 0
0.83333333 0.16666667 0
0.86666667 0.16666667 0
0.9 0.16666667 0
0.93333333 0.16666667 0
0.96666667 0.16666667 0
1 0.16666667 0
0 0.2 0
0.033333333 0.2 0
0.066666667 0.2 0
0.1 0.2 0
0.13333333 0.2 0
0.16666667 0.2 0
0.2 0.2 0
0.23333333 0.2 0
0.26666667 0.2 0
0.3 0.2 0
0.33333333 0.2 0
0.36666667 0.2 0
0.4 0.2 0
0.43333333 0.2 0
0.46666667 0.2 0
0.5 0.2 0
0.53333333 0.2 0
0.56666667 0.2 0
0.6 0.2 0
0.63333333 0.2 0
0.66666667 0.2 0
0.7 0.2 0
0.73333333 0.2 0
0.76666667 0.2 0
0.8 0.2 0
0.83333333 0.2 0
0.86666667 0.2 0
0.9 0.2 0
0.93333333 0.2 0
0.96666667 0.2 0
1 0.2 0
0 0.23333333 0
0.033333333 0.23333333 0
0.066666667 0.23333333 0
0.1 0.23333333 0
0.13333333 0.23333333 0
0.16666667 0.23333333 0
0.2 0.23333333 0
0.23333333 0.23333333 0
0.26666667 0.23333333 0
0.3 0.23333333 0
0.33333333 0.23333333 0
0.36666667 0.23333333 0
0.4 0.23333333 0
0.43333333 0.23333333 0
0.46666667 0.23333333 0
0.5 0.23333333 0
0.53333333 0.23333333 0
0.56666667 0.23333333 0
0.6 0.23333333 0
0.63333333 0.23333333 0
0.66666667 0.23333333 0
0.7 0.23333333 0
0.73333333 0.23333333 0
0.76666667 0.23333333 0
0.8 0.23333333 0
0.83333333 0.23333333 0
0.86666667 0.23333333 0
0.9 0.23333333 0
0.93333333 0.23333333 0
0.96666667 0.23333333 0
1 0.23333333 0
0 0.26666667 0
0.033333333 0.26666667 0
0.066666667 0.26666667 0
0.1 0.26666667 0
0.13333333 0.26666667 0
0.16666667 0.26666667 0
0.2 0.26666667 0
0.23333333 0.26666667 0
0.26666667 0.26666667 0
0.3 0.26666667 0
0.33333333 0.26666667 0
0.36666667 0.26666667 0
0.4 0.26666667 0
0.43333333 0.26666667 0
0.46666667 0.26666667 0
0.5 0.26666667 0
0.53333333 0.26666667 0
0.56666667 0.26666667 0
0.6 0.26666667 0
0.63333333 0.26666667 0
0.66666667 0.26666667 0
0.7 0.26666667 0
0.73333333 0.26666667 0
0.76666667 0.26666667 0
0.8 0.26666667 0
0.83333333 0.26666667 0
0.86666667 0.26666667 0
0.9 0.26666667 0
0.93333333 0.26666667 0
0.96666667 0.26666667 0
1 0.26666667 0
0 0.3 0
0.033333333 0.3 0
0.066666667 0.3 0
0.1 0.3 0
0.13333333 0.3 0
0.16666667 0.3 0
0.2 0.3 0
0.23333333 0.3 0
0.26666667 0.3 0
0.3 0.3 0
0.33333333 0.3 0
0.36666667 0.3 0
0.4 0.3 0
0.43333333 0.3 0
0.46666667 0.3 0
0.5 0.3 0
0.53333333 0.3 0
0.56666667 0.3 0
0.6 0.3 0
0.63333333 0.3 0
0.66666667 0.3 0
0.7 0.3 0
0.73333333 0.3 0
0.76666667 0.3 0
0.8 0.3 0
0.83333333 0.3 0
0.86666667 0.3 0
0.9 0.3 0
0.93333333 0.3 0
0.96666667 0.3 0
1 0.3 0
0 0.33333333 0
0.033333333 0.33333333 0
0.066666667 0.33333333 0
0.1 0.33333333 0
0.13333333 0.33333333 0
0.16666667 0.33333333 0
0.2 0.33333333 0
0.23333333 0.33333333 0
0.26666667 0.33333333 0
0.3 0.33333333 0
0.33333333 0.33333333 0
0.36666667 0.33333333 0
0.4 0.33333333 0
0.43333333 0.33333333 0
0.46666667 0.33333333 0
0.5 0.33333333 0
0.53333333 0.33333333 0
0.56666667 0.33333333 0
0.6 0.33333333 0
0.63333333 0.33333333 0
0.66666667 0.33333333 0
0.7 0.33333333 0
0.73333333 0.33333333 0
0.76666667 0.33333333 0
0.8 0.33333333 0
0.83333333 0.33333333 0
0.86666667 0.33333333 0
0.9 0.33333333 0
0.93333333 0.33333333 0
0.96666667 0.33333333 0
1 0.33333333 0
0 0.36666667 0
0.033333333 0.36666667 0
0.066666667 0.36666667 0
0.1 0.36666667 0
0.13333333 0.36666667 0
0.16666667 0.36666667 0
0.2 0.36666667 0
0.23333333 0.36666667 0
0.26666667 0.36666667 0
0.3 0.36666667 0
0.33333333 0.36666667 0
0.36666667 0.36666667 0
0.4 0.36666667 0
0.43333333 0.36666667 0
0.46666667 0.36666667 0
0.5 0.36666667 0
0.53333333 0.36666667 0
0.56666667 0.36666667 0
0.6 0.36666667 0
0.63333333 0.36666667 0
0.66666667 0.36666667 0
0.7 0.36666667 0
0.73333333 0.36666667 0
0.76666667 0.36666667 0
0.8 0.36666667 0
0.83333333 0.36666667 0
0.86666667 0.36666667 0
0.9 0.36666667 0
0.93333333 0.36666667 0
0.96666667 0.36666667 0
1 0.36666667 0
0 0.4 0
0.033333333 0.4 0
0.066666667 0.4 0
0.1 0.4 0
0.13333333 0.4 0
0.16666667 0.4 0
0.2 0.4 0
0.23333333 0.4 0
0.26666667 0.4 0
0.3 0.4 0
0.33333333 0.4 0
0.36666667 0.4 0
0.4 0.4 0
0.43333333 0.4 0
0.46666667 0.4 0
0.5 0.4 0
0.53333333 0.4 0
0.56666667 0.4 0
0.6 0.4 0
0.63333333 0.4 0
0.66666667 0.4 0
0.7 0.4 0
0.73333333 0.4 0
0.76666667 0.4 0
0.8 0.4 0
0.83333333 0.4 0
0.86666667 0.4 0
0.9 0.4 0
0.93333333 0.4 0
0.96666667 0.4 0
1 0.4 0
0 0.43333333 0
0.033333333 0.43333333 0
0.066666667 0.43333333 0
0.1 0.43333333 0
0.13333333 0.43333333 0
0.16666667 0.43333333 0
0.2 0.43333333 0
0.23333333 0.43333333 0
0.26666667 0.43333333 0
0.3 0.43333333 0
0.33333333 0.43333333 0
0.36666667 0.43333333 0
0.4 0.43333333 0
0.43333333 0.43333333 0
0.46666667 0.43333333 0
0.5 0.43333333 0
0.53333333 0.43333333 0
0.56666667 0.43333333 0
0.6 0.43333333 0
0.63333333 0.43333333 0
0.66666667 0.43333333 0
0.7 0.43333333 0
0.73333333 0.43333333 0
0.76666667 0.43333333 0
0.8 0.43333333 0
0.83333333 0.43333333 0
0.86666667 0.43333333 0
0.9 0.43333333 0
0.93333333 0.43333333 0
0.96666667 0.43333333 0
1 0.43333333 0
0 0.46666667 0
0.033333333 0.46666667 0
0.066666667 0.46666667 0
0.1 0.46666667 0
0.13333333 0.46666667 0
0.16666667 0.46666667 0
0.2 0.46666667 0
0.23333333 0.46666667 0
0.26666667 0.46666667 0
0.3 0.46666667 0
0.33333333 0.46666667 0
0.36666667 0.46666667 0
0.4 0.46666667 0
0.43333333 0.46666667 0
0.46666667 0.46666667 0
0.5 0.46666667 0
0.53333333 0.46666667 0
0.56666667 0.46666667 0
0.6 0.46666667 0
0.63333333 0.46666667 0
0.66666667 0.46666667 0
0.7 0.46666667 0
0.73333333 0.46666667 0
0.76666667 0.46666667 0
0.8 0.46666667 0
0.83333333 0.46666667 0
0.86666667 0.46666667 0
0.9 0.46666667 0
0.93333333 0.46666667 0
0.96666667 0.46666667 0
1 0.46666667 0
0 0.5 0
0.033333333 0.5 0
0.066666667 0.5 0
0.1 0.5 0
0.13333333 0.5 0
0.16666667 0.5 0
0.2 0.5 0
0.23333333 0.5 0
0.26666667 0.5 0
0.3 0.5 0
0.33333333 0.5 0
0.36666667 0.5 0
0.4 0.5 0
0.43333333 0.5 0
0.46666667 0.5 0
0.5 0.5 0
0.53333333 0.5 0
0.56666667 0.5 0
0.6 0.5 0
0.63333333 0.5 0
0.66666667 0.5 0
0.7 0.5 0
0.73333333 0.5 0
0.76666667 0.5 0
0.8 0.5 0
0.83333333 0.5 0
0.86666667 0.5 0
0.9 0.5 0
0.93333333 0.5 0
0.96666667 0.5 0
1 0.5 0
0 0.53333333 0
0.033333333 0.53333333 0
0.066666667 0.53333333 0
0.1 0.53333333 0
0.13333333 0.53333333 0
0.16666667 0.53333333 0
0.2 0.53333333 0
0.23333333 0.53333333 0
0.26666667 0.53333333 0
0.3 0.53333333 0
0.33333333 0.53333333 0
0.36666667 0.53333333 0
0.4 0.53333333 0
0.43333333 0.53333333 0
0.46666667 0.53333333 0
0.5 0.53333333 0
0.53333333 0.53333333 0
0.56666667 0.53333333 0
0.6 0.53333333 0
0.63333333 0.53333333 0
0.66666667 0.53333333 0
0.7 0.53333333 0
0.73333333 0.53333333 0
0.76666667 0.53333333 0
[...]
CELL_DATA 1920
Scalars  Label int 1
LOOKUP_TABLE FreeFempp_table
0
0
0
0
0
0
0
0
0
0
0
0
0
0
0
0
0
0
0
0
0
0
0
0
0
0
0
0
0
0
0
0
0
0
0
0
0
0
0
0
0
0
0
0
0
0
0
0
0
0
0
0
0
0
0
0
0
0
0
0
0
0
0
0
0
0
0
0
0
0
0
0
0
0
0
0
0
0
0
0
0
0
0
0
0
0
0
0
0
0
0
0
0
0
0
0
0
0
0
0
0
0
0
0
0
0
0
0
0
0
0
0
0
0
0
0
0
0
0
0
0
0
0
0
0
0
0
0
0
0
0
0
0
0
0
0
0
0
0
0
0
0
0
0
0
0
0
0
0
0
0
0
0
0
0
0
0
0
0
0
0
0
0
0
0
0
0
0
0
0
0
0
0
0
0
0
0
0
0
0
0
0
0
0
0
0
0
0
0
0
0
0
0
0
0
0
0
0
0
0
0
0
0
0
0
0
0
0
0
0
0
0
0
0
0
0
0
0
0
0
0
0
0
0
0
0
0
0
0
0
0
0
0
0
0
0
0
0
0
0
0
0
0
0
0
0
0
0
0
0
0
0
0
0
0
0
0
0
0
0
0
0
0
0
0
0
0
0
0
0
0
0
0
0
0
0
0
0
0
0
0
0
0
0
0
0
0
0
0
0
0
0
0
0
0
0
0
0
0
0
0
0
0
0
0
0
0
0
0
0
0
0
0
0
0
0
0
0
0
0
0
0
0
0
0
0
0
0
0
0
0
0
0
0
0
0
0
0
0
0
0
0
0
0
0
0
0
0
0
0
0
0
0
0
0
0
0
0
0
0
0
0
0
0
0
0
0
0
0
0
0
0
0
0
0
0
0
0
0
0
0
0
0
0
0
0
0
0
0
0
0
0
0
0
0
0
0
0
0
0
0
0
0
0
0
0
0
0
0
0
0
0
0
0
0
0
0
0
0
0
0
0
0
0
0
0
0
0
0
0
0
0
0
0
0
0
0
0
0
0
0
0
0
0
0
0
0
0
0
0
0
0
0
0
0
0
0
0
0
0
0
0
0
0
0
0
0
0
0
0
0
0
0
0
0
0
0
0
0
0
0
0
0
0
0
0
0
0
0
0
0
0
0
0
0
0
0
0
0
0
0
0
0
0
0
0
0
0
0
0
0
0
0
0
0
0
0
0
0
0
0
0
0
0
0
0
0
0
0
0
0
0
0
0
0
0
0
0
0
0
0
0
0
0
0
0
0
0
0
0
0
0
0
0
0
0
0
0
0
0
0
0
0
0
0
0
0
0
0
0
0
0
0
0
0
0
0
0
0
0
0
0
0
0
0
0
0
0
0
0
0
0
0
0
0
0
0
0
0
0
0
0
0
0
0
0
0
0
0
0
0
0
0
0
0
0
0
0
0
0
0
0
0
0
0
0
0
0
0
0
0
0
0
0
0
0
0
0
0
0
0
0
0
0
0
0
0
0
0
0
0
0
0
0
0
0
0
0
0
0
0
0
0
0
0
0
0
0
0
0
0
0
0
0
0
0
0
0
0
0
0
0
0
0
0
0
0
0
0
0
0
0
0
0
0
0
0
0
0
0
0
0
0
0
0
0
0
0
0
0
0
0
0
0
0
0
0
0
0
0
0
0
0
0
0
0
0
0
0
0
0
0
0
0
0
0
0
0
0
0
0
0
0
0
0
0
0
0
0
0
0
0
0
0
0
0
0
0
0
0
0
0
0
0
0
0
0
0
0
0
0
0
0
0
0
0
0
0
0
0
0
0
0
0
0
0
0
0
0
0
0
0
0
0
0
0
0
0
0
0
0
0
0
0
0
0
0
0
0
0
0
0
0
0
0
0
0
0
0
0
0
0
0
0
0
0
0
0
0
0
0
0
0
0
0
0
0
0
0
0
0
0
0
0
0
0
0
0
0
0
0
0
0
0
0
0
0
0
0
0
0
0
0
0
0
0
0
0
0
0
0
0
0
0
0
0
0
0
0
0
0
0
0
0
0
0
0
0
0
0
0
0
0
0
0
0
0
0
0
0
0
0
0
0
0
0
0
0
0
0
0
0
0
0
0
0
0
0
0
0
0
0
0
0
0
0
0
0
0
0
0
0
0
0
0
0
0
0
0
0
0
0
0
0
0
0
0
0
0
0
0
0
0
0
0
0
0
0
0
0
0
0
0
0
0
0
0
0
0
0
0
0
0
0
0
0
0
0
0
0
0
0
0
0
0
0
0
0
0
0
0
0
0
0
0
0
0
0
0
0
0
0
0
0
0
0
0
0
0
0
0
0
0
0
0
0
0
0
0
0
0
0
0
0
0
0
0
0
0
0
0
0
0
0
0
0
0
0
0
0
0
0
0
0
0
0
0
0
0
0
0
0
0
0
0
0
0
0
0
0
0
0
0
0
0
0
0
0
0
0
0
0
0
0
0
0
0
0
0
0
0
0
0
0
0
0
0
0
0
0
0
0
0
0
0
0
0
0
0
0
0
0
0
0
0
0
0
0
0
0
0
0
0
0
0
0
0
0
0
0
0
0
0
0
0
0
0
0
0
0
0
0
0
0
0
0
0
0
0
0
0
0
0
0
0
0
0
0
0
0
0
0
0
0
0
0
0
0
0
0
0
0
0
0
0
0
0
0
0
0
0
0
0
0
0
0
0
0
0
0
0
0
0
0
0
0
0
0
0
0
0
0
0
0
0
0
0
0
0
0
0
0
0
0
0
0
0
0
0
0
0
0
0
0
0
0
0
0
0
0
0
0
0
0
0
0
0
0
0
0
0
0
0
0
0
0
0
0
0
0
0
0
0
0
0
0
0
0
0
0
0
0
0
0
0
0
0
0
0
0
0
0
0
0
0
0
0
0
0
0
0
0
0
0
0
0
0
0
0
0
0
0
0
0
0
0
0
0
0
0
0
0
0
0
0
0
0
0
0
0
0
0
0
0
0
0
0
0
0
0
0
0
0
0
0
0
0
0
0
0
0
0
0
0
0
0
0
0
0
0
0
0
0
0
0
0
0
0
0
0
0
0
0
0
0
0
0
0
0
0
0
0
0
0
0
0
0
0
0
0
0
0
0
0
0
0
0
0
0
0
0
0
0
0
0
0
0
0
0
0
0
0
0
0
0
0
0
0
0
0
0
0
0
0
0
0
0
0
0
0
0
0
0
0
0
0
0
0
0
0
0
0
0
0
0
0
0
0
0
0
0
0
0
0
0
0
0
0
0
0
0
0
0
0
0
0
0
0
0
0
0
0
0
0
0
0
0
0
0
0
0
0
0
0
0
0
0
0
0
0
0
0
0
0
0
0
0
0
0
0
0
0
0
0
0
0
0
0
0
0
0
0
0
0
0
0
0
0
0
0
0
0
0
0
0
0
0
0
0
0
0
0
0
0
0
0
0
0
0
0
0
0
0
0
0
0
0
0
0
0
0
0
0
0
0
0
0
0
0
0
0
0
0
0
0
0
0
0
0
0
0
0
0
0
0
0
0
0
0
0
0
0
0
0
0
0
0
0
0
0
0
0
0
0
0
0
0
0
0
0
0
0
0
0
0
0
0
0
0
0
0
0
0
0
0
0
0
0
0
0
0
0
0
0
0
0
0
0
0
0
0
0
0
0
0
0
0
0
0
0
0
0
0
0
0
0
0
0
0
0
0
0
0
0
0
0
0
0
0
0
0
0
0
0
0
0
0
0
0
0
0
0
0
0
0
0
0
0
0
0
0
0
0
0
0
0
0
0
0
0
0
0
0
0
0
0
0
0
0
0
0
0
0
0
0
0
0
0
0
0
0
0
0
0
0
0
0
0
0
0
0
0
0
0
0
0
0
0
0
0
0
0
0
0
0
0
0
0
0
0
0
0
0
0
0
0
0
0
0
0
0
0
0
0
0
0
0
0
0
0
0
0
0
0
0
0
0
0
0
0
0
0
0
0
0
0
0
0
0
0
0
0
0
0
0
0
0
0
0
0
0
0
0
0
0
0
0
0
0
0
0
0
0
0
0
0
0
0
0
0
0
0
0
0
0
0
0
0
0
0
0
0
0
0
0
0
0
0
0
0
1
1
1
1
1
1
1
1
1
1
1
1
1
1
1
1
1
1
1
1
1
1
1
1
1
1
1
1
1
1
2
2
2
2
2
2
2
2
2
2
2
2
2
2
2
2
2
2
2
2
2
2
2
2
2
2
2
2
2
2
3
3
3
3
3
3
3
3
3
3
3
3
3
3
3
3
3
3
3
3
3
3
3
3
3
3
3
3
3
3
4
4
4
4
4
4
4
4
4
4
4
4
4
4
4
4
4
4
4
4
4
4
4
4
4
4
4
4
4
4

LOOKUP_TABLE FreeFempp_table 5
1.00000000 0.00000000 0.00000000 1.00000000
1.00000000 1.00000000 0.00000000 1.00000000
1.00000000 0.00000000 1.00000000 1.00000000
0.00000000 1.00000000 0.00000000 1.00000000
0.00000000 1.00000000 1.00000000 1.00000000

POINT_DATA 961
FIELD FieldData 1
Density 1 961 float
2.91075081e-01 3.24630320e-01 4.21397567e-01 4.42113429e-01 4.44205135e-01 4.44223881e-01 4.44673836e-01 4.45666224e-01 4.31660026e-01 3.02285492e-01 5.43672219e-02 3.20656560e-02 2.24631816e-01 6.87247634e-01 6.97514594e-01 4.22728270e-01 5.16793668e-01 6.31872058e-01 6.96541011e-01 6.53271139e-01 6.17882192e-01 5.93377471e-01 5.75653791e-01 5.64014018e-01 5.56230366e-01 5.50746143e-01 5.46871901e-01 5.44256091e-01 5.43048441e-01 5.43487370e-01 5.42190790e-01 4.90896776e-02 8.59887525e-02 2.59334505e-01 3.18644613e-01 3.24757397e-01 3.25388193e-01 3.26387525e-01 3.26426476e-01 3.12806606e-01 2.27494270e-01 4.94404212e-02 1.83258783e-02 1.32492512e-01 6.35609567e-01 7.58769810e-01 2.52858222e-01 1.51358530e-01 2.51544207e-01 5.29330969e-01 6.00731909e-01 6.25243425e-01 6.10549092e-01 5.91023147e-01 5.76693535e-01 5.64246416e-01 5.54116309e-01 5.47369540e-01 5.42926311e-01 5.40226221e-01 5.40882230e-01 5.41741431e-01 6.33391067e-02 3.59197967e-02 3.17651294e-02 4.52878177e-02 4.53327708e-02 4.52989899e-02 4.56152447e-02 4.58724201e-02 4.49563824e-02 3.71910073e-02 1.37119479e-02 7.30336271e-03 5.15537262e-02 4.45381761e-01 8.04210722e-01 5.38406551e-01 1.00378700e-01 4.64235954e-02 7.49929100e-02 1.32598832e-01 3.55613112e-01 4.41858053e-01 4.86447841e-01 5.36210477e-01 5.44426560e-01 5.34364462e-01 5.27001202e-01 5.21569014e-01 5.17802894e-01 5.19168139e-01 5.27994931e-01 3.76726031e-01 2.87095904e-01 9.10081267e-02 5.82183748e-02 5.43759167e-02 5.34758605e-02 5.30784763e-02 5.25869131e-02 5.17214835e-02 5.01976907e-02 4.85745706e-02 4.97937910e-02 3.97280194e-02 1.13115363e-01 5.93844712e-01 7.37971306e-01 3.51450622e-01 1.20268129e-01 7.04059005e-02 7.07825720e-02 4.73982170e-02 6.99506849e-02 1.03989422e-01 2.83660710e-01 3.79761308e-01 4.33288187e-01 4.81051177e-01 4.83618051e-01 4.81353939e-01 4.85533446e-01 5.03985286e-01 4.93675560e-01 4.74731296e-01 4.28373039e-01 4.07215565e-01 4.02418852e-01 3.95193875e-01 3.89511198e-01 3.83734703e-01 3.76534551e-01 3.66900861e-01 3.55147243e-01 3.39241058e-01 2.74234265e-01 7.45439231e-02 7.22918063e-02 2.00419500e-01 6.59400165e-01 6.41734064e-01 3.40958893e-01 5.29897511e-01 1.98663265e-01 8.40177387e-02 1.81083232e-02 3.67240869e-02 5.82651049e-02 9.91044790e-02 3.30756813e-01 4.32625234e-01 4.43342388e-01 4.52741653e-01 4.79829699e-01 5.22724748e-01 5.15884042e-01 5.20595849e-01 5.32084763e-01 5.31512201e-01 5.24622262e-01 5.18491328e-01 5.12540877e-01 5.06112158e-01 4.98525560e-01 4.89201277e-01 4.77965564e-01 4.57227647e-01 3.44154119e-01 9.78462696e-02 4.59325165e-02 8.36555883e-02 1.98916733e-01 5.66654444e-01 5.06233037e-01 6.96853697e-01 6.64565682e-01 2.09689662e-01 8.94178972e-02 3.44702341e-02 1.47778392e-02 6.96596056e-02 3.05701941e-01 4.06032205e-01 4.28459406e-01 4.61712927e-01 5.34963429e-01 5.33367515e-01 5.38060427e-01 5.42827129e-01 5.42233646e-01 5.38587928e-01 5.35055101e-01 5.31837404e-01 5.28883874e-01 5.26005507e-01 5.22849500e-01 5.19323766e-01 5.15439928e-01 5.06785810e-01 4.44895506e-01 3.30609322e-01 1.03206575e-01 4.71937023e-02 7.48705417e-02 9.88023728e-02 1.56911209e-01 3.89685035e-01 6.83307111e-01 6.48151755e-01 2.95796424e-01 8.49562958e-02 3.99828814e-02 6.95933476e-02 2.96660542e-01 4.06747967e-01 4.49480861e-01 5.38525641e-01 5.38986087e-01 5.42121232e-01 5.44150054e-01 5.43787658e-01 5.41807294e-01 5.39384425e-01 5.37150741e-01 5.35309196e-01 5.33806801e-01 5.32477021e-01 5.31320035e-01 5.30642927e-01 5.31766355e-01 5.36071360e-01 5.36034107e-01 4.64266598e-01 3.31096172e-01 8.55324119e-02 2.46392004e-02 3.05738896e-02 5.91383204e-02 1.83699459e-01 6.79068744e-01 6.32937431e-01 3.81934166e-01 2.50667840e-01 6.76930919e-02 7.01318234e-02 3.07321995e-01 4.21678841e-01 5.35855591e-01 5.35870373e-01 5.37647128e-01 5.38309038e-01 5.37827790e-01 5.36200047e-01 5.33697009e-01 5.30833960e-01 5.27880192e-01 5.24812639e-01 5.21464944e-01 5.17735660e-01 5.13781190e-01 5.10444283e-01 5.10464430e-01 5.17748475e-01 5.28383493e-01 5.26580632e-01 3.93934458e-01 1.28643855e-01 5.40676937e-02 3.68773788e-02 4.61854674e-02 3.57201993e-01 7.13829041e-01 6.01763308e-01 4.38946635e-01 2.85859108e-01 5.88853136e-02 7.10684583e-02 2.52446622e-01 5.28493404e-01 5.25909126e-01 5.26112914e-01 5.25735974e-01 5.24671614e-01 5.22846818e-01 5.20061016e-01 5.16464770e-01 5.12206972e-01 5.07254720e-01 5.01436472e-01 4.94584918e-01 4.86725032e-01 4.78348881e-01 4.70795929e-01 4.66520607e-01 4.69510019e-01 4.87844676e-01 5.16065836e-01 4.45431113e-01 2.33543336e-01 9.64843854e-02 9.19006914e-02 2.36011118e-01 6.79920554e-01 7.04294801e-01 5.37131727e-01 3.96981001e-01 1.81482688e-01 2.80175935e-02 3.11962664e-02 5.18153131e-01 5.11313021e-01 5.09596705e-01 5.08603573e-01 5.07223845e-01 5.05438209e-01 5.02892315e-01 4.99468118e-01 4.95172322e-01 4.89974380e-01 4.83778507e-01 4.76499259e-01 4.68177140e-01 4.59071606e-01 4.49611455e-01 4.40120459e-01 4.30886567e-01 4.23753142e-01 4.25445318e-01 4.27610785e-01 3.77384752e-01 2.84137309e-01 3.11538607e-01 5.25322497e-01 7.28551447e-01 7.41966605e-01 6.02647543e-01 4.47762102e-01 2.43961602e-01 4.04809713e-02 1.02316868e-02 5.06635547e-01 4.94556189e-01 4.90613699e-01 4.89530623e-01 4.88512933e-01 4.87472534e-01 4.85994309e-01 4.83818114e-01 4.80871975e-01 4.77152377e-01 4.72662538e-01 4.67438668e-01 4.61601615e-01 4.55340147e-01 4.48727041e-01 4.41337556e-01 4.31864232e-01 4.17932898e-01 3.96277189e-01 3.64535958e-01 3.30366313e-01 3.35659236e-01 4.55402672e-01 6.60416007e-01 7.70596623e-01 7.55478263e-01 6.45360112e-01 4.81584877e-01 2.45936871e-01 4.19109426e-02 1.01487618e-02 4.95380461e-01 4.77691531e-01 4.71218139e-01 4.70444351e-01 4.70404208e-01 4.70703155e-01 4.70829248e-01 4.70430881e-01 4.69406396e-01 4.67790276e-01 4.65660512e-01 4.63144302e-01 4.60450917e-01 4.57837433e-01 4.55451339e-01 4.53051448e-01 4.49625373e-01 4.42756236e-01 4.27785188e-01 3.99437636e-01 3.66389334e-01 3.78144264e-01 4.96908575e-01 6.70863628e-01 7.62445450e-01 7.58678257e-01 6.75153613e-01 4.97025549e-01 2.19288036e-01 3.87885086e-02 1.08647263e-02 4.85196978e-01 4.61884856e-01 4.52490956e-01 4.52158391e-01 4.53412473e-01 4.55253720e-01 4.56987530e-01 4.58188474e-01 4.58781242e-01 4.58871990e-01 4.58612621e-01 4.58213985e-01 4.58002776e-01 4.58419383e-01 4.59924877e-01 4.62808341e-01 4.66818452e-01 4.70460981e-01 4.70299453e-01 4.62482095e-01 4.51811016e-01 4.67581779e-01 5.48235655e-01 6.68544769e-01 7.48167455e-01 7.61404514e-01 6.90683484e-01 4.77596790e-01 1.66387811e-01 3.30729894e-02 1.27321351e-02 4.76302028e-01 4.47432131e-01 4.34612423e-01 4.34626222e-01 4.37236756e-01 4.40510690e-01 4.43480045e-01 4.45677757e-01 4.47154611e-01 4.48171437e-01 4.49000090e-01 4.49976444e-01 4.51610893e-01 4.54628378e-01 4.59904939e-01 4.68251169e-01 4.79906887e-01 4.93708223e-01 5.06614566e-01 5.15380800e-01 5.22025824e-01 5.40793240e-01 5.91774106e-01 6.69605255e-01 7.36952066e-01 7.58927047e-01 6.75839722e-01 4.03238833e-01 1.10853061e-01 2.82233115e-02 1.71182994e-02 4.68535006e-01 4.34072822e-01 4.17237252e-01 4.17418659e-01 4.21379566e-01 4.25894737e-01 4.29640085e-01 4.32173967e-01 4.33823645e-01 4.35121804e-01 4.36527997e-01 4.38556224e-01 4.41956401e-01 4.47780371e-01 4.57290024e-01 4.71614242e-01 4.91014689e-01 5.13933420e-01 5.36839306e-01 5.56173146e-01 5.71972370e-01 5.90754986e-01 6.23478413e-01 6.74236536e-01 7.28578389e-01 7.39545107e-01 6.07435405e-01 2.82479435e-01 7.26462901e-02 2.84832679e-02 2.53009312e-02 4.61586088e-01 4.21330720e-01 3.99862379e-01 4.00089949e-01 4.05509114e-01 4.11189944e-01 4.15373623e-01 4.17756975e-01 4.19128656e-01 4.20411617e-01 4.22301680e-01 4.25510615e-01 4.31028634e-01 4.40192699e-01 4.54515338e-01 4.75160122e-01 5.01986802e-01 5.32613516e-01 5.62740326e-01 5.88436484e-01 6.08766675e-01 6.26815736e-01 6.49234176e-01 6.82603657e-01 7.18435228e-01 6.94244444e-01 4.83001173e-01 1.77549630e-01 5.07253222e-02 3.30060497e-02 3.87952924e-02 4.55150217e-01 4.08737183e-01 3.82050246e-01 3.82352352e-01 3.89561027e-01 3.96540254e-01 4.01015908e-01 4.03006345e-01 4.03960377e-01 4.05278385e-01 4.07892227e-01 4.12676066e-01 4.20801759e-01 4.33788747e-01 4.53221053e-01 4.80033696e-01 5.13416409e-01 5.50057530e-01 5.85011959e-01 6.14229441e-01 6.36511028e-01 6.53582096e-01 6.69809759e-01 6.90027297e-01 7.00546801e-01 6.25453532e-01 3.56722623e-01 1.18171938e-01 4.27931808e-02 4.09197137e-02 6.08599298e-02 4.48995650e-01 3.95919561e-01 3.63507241e-01 3.64108533e-01 3.73688996e-01 3.82300287e-01 3.87073189e-01 3.88638765e-01 3.89304250e-01 3.90975922e-01 3.94755900e-01 4.01593298e-01 4.12745297e-01 4.29790378e-01 4.54216331e-01 4.86545354e-01 5.25208414e-01 5.66093981e-01 6.03893042e-01 6.34666800e-01 6.57265365e-01 6.72835767e-01 6.84031844e-01 6.91534221e-01 6.72035396e-01 5.44357181e-01 2.70894557e-01 9.21632051e-02 4.34928834e-02 5.12209684e-02 8.83122385e-02 4.42972690e-01 3.82598430e-01 3.44071239e-01 3.45406175e-01 3.58157009e-01 3.68852407e-01 3.73989910e-01 3.75238001e-01 3.75955760e-01 3.78493220e-01 3.83986413e-01 3.93334836e-01 4.07772303e-01 4.28820789e-01 4.57744062e-01 4.94564414e-01 5.37018895e-01 5.80458939e-01 6.19504988e-01 6.50455356e-01 6.72251046e-01 6.85592890e-01 6.91349387e-01 6.84899390e-01 6.33766055e-01 4.64803606e-01 2.20688656e-01 8.46945271e-02 4.87185232e-02 6.40117899e-02 1.16404548e-01 4.36987340e-01 3.68540019e-01 3.23675245e-01 3.26365173e-01 3.43226224e-01 3.56441706e-01 3.61978561e-01 3.63101691e-01 3.64388078e-01 3.68450820e-01 3.76257032e-01 3.88513207e-01 4.06324953e-01 4.31062073e-01 4.63686049e-01 5.03726482e-01 5.48405945e-01 5.92855155e-01 6.31873250e-01 6.62031770e-01 6.82263434e-01 6.92680955e-01 6.92110598e-01 6.70499563e-01 5.89605272e-01 3.98160011e-01 1.92723140e-01 8.63334835e-02 5.70187084e-02 8.00031498e-02 1.48172900e-01 4.30969775e-01 3.53500456e-01 3.02347183e-01 3.07125807e-01 3.29057992e-01 3.45053285e-01 3.50913942e-01 3.52179974e-01 3.54711682e-01 3.61081004e-01 3.71832609e-01 3.87333035e-01 4.08463955e-01 4.36368376e-01 4.71676826e-01 5.13517141e-01 5.58852494e-01 6.02915168e-01 6.40876472e-01 6.69563174e-01 6.87741339e-01 6.94707155e-01 6.87053323e-01 6.50084913e-01 5.44823170e-01 3.49288434e-01 1.78814799e-01 9.26825181e-02 6.79288283e-02 9.85497013e-02 1.82279870e-01 4.24871624e-01 3.37225258e-01 2.80251354e-01 2.87860125e-01 3.15638214e-01 3.34351093e-01 3.40307236e-01 3.42079252e-01 3.46672922e-01 3.56220126e-01 3.70572597e-01 3.89617234e-01 4.13920909e-01 4.44339246e-01 4.81186002e-01 5.23342907e-01 5.67807376e-01 6.10214174e-01 6.46254957e-01 6.72976494e-01 6.88824654e-01 6.92083895e-01 6.77157283e-01 6.26244664e-01 5.04630029e-01 3.17620218e-01 1.74949586e-01 1.02801405e-01 8.18516240e-02 1.19877249e-01 2.16457650e-01 4.18557465e-01 3.19578737e-01 2.57723540e-01 2.68803924e-01 3.02725077e-01 3.23683858e-01 3.29380810e-01 3.32120180e-01 3.39663357e-01 3.53273749e-01 3.71880531e-01 3.94769341e-01 4.22097057e-01 4.54368800e-01 4.91616160e-01 5.32658875e-01 5.74821115e-01 6.14403784e-01 6.47745907e-01 6.72108054e-01 6.85538530e-01 6.85268342e-01 6.63906038e-01 6.02508128e-01 4.73741323e-01 3.01378310e-01 1.79504201e-01 1.17503524e-01 1.00131489e-01 1.45569518e-01 2.51629442e-01 4.11529690e-01 3.00765812e-01 2.35305130e-01 2.50211239e-01 2.89854199e-01 3.12179744e-01 3.17254215e-01 3.21455568e-01 3.32740009e-01 3.51151496e-01 3.74585569e-01 4.01649207e-01 4.31983560e-01 4.65649962e-01 5.02404690e-01 5.41155875e-01 5.79791129e-01 6.15491927e-01 6.45380259e-01 6.67008102e-01 6.78101361e-01 6.75053358e-01 6.49476349e-01 5.83258212e-01 4.56706762e-01 3.00805569e-01 1.93235040e-01 1.38538375e-01 1.24686785e-01 1.77276909e-01 2.89283693e-01 4.02785331e-01 2.81407267e-01 2.13757604e-01 2.32257277e-01 2.76447386e-01 2.98991919e-01 3.03234458e-01 3.09271395e-01 3.24704021e-01 3.48229945e-01 3.76802862e-01 4.08374727e-01 4.41971391e-01 4.77062672e-01 5.13043344e-01 5.48934281e-01 5.83287239e-01 6.14292920e-01 6.40012205e-01 6.58498108e-01 6.67448819e-01 6.62940323e-01 6.36713505e-01 5.73132217e-01 4.58137393e-01 3.19423825e-01 2.20067412e-01 1.68810844e-01 1.57635450e-01 2.16057852e-01 3.29901546e-01 3.90948623e-01 2.62333393e-01 1.93982840e-01 2.15020746e-01 2.61936724e-01 2.83613592e-01 2.87088990e-01 2.95039982e-01 3.14316899e-01 3.42493564e-01 3.75941873e-01 4.12171662e-01 4.49578226e-01 4.86868203e-01 5.22860587e-01 5.56501091e-01 5.86865902e-01 6.13100350e-01 6.34308815e-01 6.49360359e-01 6.56450868e-01 6.52126133e-01 6.29448712e-01 5.76319218e-01 4.81912792e-01 3.63232523e-01 2.67562360e-01 2.12956890e-01 2.00394750e-01 2.61544645e-01 3.72036189e-01 3.74956131e-01 2.44311363e-01 1.76914081e-01 1.98797151e-01 2.46090427e-01 2.66233444e-01 2.69270569e-01 2.78800517e-01 3.00691277e-01 3.31935018e-01 3.68946582e-01 4.09304500e-01 4.51043248e-01 4.92094308e-01 5.30442476e-01 5.64536870e-01 5.93499780e-01 6.17025793e-01 6.35079026e-01 6.47494376e-01 6.53472483e-01 6.50823772e-01 6.34805620e-01 5.97106636e-01 5.28830349e-01 4.34456974e-01 3.41215104e-01 2.73487449e-01 2.49135733e-01 3.06206495e-01 4.08897907e-01 3.49795371e-01 2.26430148e-01 1.61940724e-01 1.82211518e-01 2.26713926e-01 2.45345086e-01 2.48613015e-01 2.59105504e-01 2.81788409e-01 3.13841641e-01 3.52494299e-01 3.96162480e-01 4.43209022e-01 4.91123945e-01 5.36830842e-01 5.77579319e-01 6.11652017e-01 6.38494790e-01 6.58360064e-01 6.71749353e-01 6.78835571e-01 6.78839564e-01 6.69205427e-01 6.44616842e-01 5.97167373e-01 5.21603763e-01 4.26016241e-01 3.34856629e-01 2.86072791e-01 3.29255313e-01 4.24918175e-01 3.28299105e-01 2.17800915e-01 1.56726494e-01 1.73855692e-01 2.12336659e-01 2.29856357e-01 2.34815747e-01 2.46491179e-01 2.69278765e-01 3.01110655e-01 3.40173572e-01 3.85775566e-01 4.37001914e-01 4.91556972e-01 5.45770645e-01 5.95659137e-01 6.38224602e-01 6.72112286e-01 6.97383702e-01 7.14792907e-01 7.25037813e-01 7.28154063e-01 7.22896636e-01 7.05766022e-01 6.69550598e-01 6.03157759e-01 5.00049114e-01 3.81664991e-01 3.04483145e-01 3.23298931e-01 4.10953104e-01 3.54733437e-01 2.57549793e-01 1.82172000e-01 1.95356652e-01 2.37097383e-01 2.57661343e-01 2.63854206e-01 2.76418060e-01 3.00234675e-01 3.32597554e-01 3.70713711e-01 4.13020760e-01 4.58302975e-01 5.04863739e-01 5.50430119e-01 5.92607200e-01 6.29478991e-01 6.59970164e-01 6.83803201e-01 7.01156616e-01 7.12234199e-01 7.16866851e-01 7.14094222e-01 7.01500297e-01 6.74013376e-01 6.22673213e-01 5.38056970e-01 4.29194957e-01 3.44162375e-01 3.38704169e-01 4.09206867e-01 
