# vtk DataFile Version 2.0
results_case1_non_linear/iter8.vtk, Created by Freefem++ 
ASCII
DATASET UNSTRUCTURED_GRID
POINTS 961 float
0 0 0
0.033333333 0 0
0.066666667 0 0
0.1 0 0
0.13333333 0 0
0.16666667 0 0
0.2 0 0
0.23333333 0 0
0.26666667 0 0
0.3 0 0
0.33333333 0 0
0.36666667 0 0
0.4 0 0
0.43333333 0 0
0.46666667 0 0
0.5 0 0
0.53333333 0 0
0.56666667 0 0
0.6 0 0
0.63333333 0 0
0.66666667 0 0
0.7 0 0
0.73333333 0 0
0.76666667 0 0
0.8 0 0
0.83333333 0 0
0.86666667 0 0
0.9 0 0
0.93333333 0 0
0.96666667 0 0
1 0 0
0 0.033333333 0
0.033333333 0.033333333 0
0.066666667 0.033333333 0
0.1 0.033333333 0
0.13333333 0.033333333 0
0.16666667 0.033333333 0
0.2 0.033333333 0
0.23333333 0.033333333 0
0.26666667 0.033333333 0
0.3 0.033333333 0
0.33333333 0.033333333 0
0.36666667 0.033333333 0
0.4 0.033333333 0
0.43333333 0.033333333 0
0.46666667 0.033333333 0
0.5 0.033333333 0
0.53333333 0.033333333 0
0.56666667 0.033333333 0
0.6 0.033333333 0
0.63333333 0.033333333 0
0.66666667 0.033333333 0
0.7 0.033333333 0
0.73333333 0.033333333 0
0.76666667 0.033333333 0
0.8 0.033333333 0
0.83333333 0.033333333 0
0.86666667 0.033333333 0
0.9 0.033333333 0
0.93333333 0.033333333 0
0.96666667 0.033333333 0
1 0.033333333 0
0 0.066666667 0
0.033333333 0.066666667 0
0.066666667 0.066666667 0
0.1 0.066666667 0
0.13333333 0.066666667 0
0.16666667 0.066666667 0
0.2 0.066666667 0
0.23333333 0.066666667 0
0.26666667 0.066666667 0
0.3 0.066666667 0
0.33333333 0.066666667 0
0.36666667 0.066666667 0
0.4 0.066666667 0
0.43333333 0.066666667 0
0.46666667 0.066666667 0
0.5 0.066666667 0
0.53333333 0.066666667 0
0.56666667 0.066666667 0
0.6 0.066666667 0
0.63333333 0.066666667 0
0.66666667 0.066666667 0
0.7 0.066666667 0
0.73333333 0.066666667 0
0.76666667 0.066666667 0
0.8 0.066666667 0
0.83333333 0.066666667 0
0.86666667 0.066666667 0
0.9 0.066666667 0
0.93333333 0.066666667 0
0.96666667 0.066666667 0
1 0.066666667 0
0 0.1 0
0.033333333 0.1 0
0.066666667 0.1 0
0.1 0.1 0
0.13333333 0.1 0
0.16666667 0.1 0
0.2 0.1 0
0.23333333 0.1 0
0.26666667 0.1 0
0.3 0.1 0
0.33333333 0.1 0
0.36666667 0.1 0
0.4 0.1 0
0.43333333 0.1 0
0.46666667 0.1 0
0.5 0.1 0
0.53333333 0.1 0
0.56666667 0.1 0
0.6 0.1 0
0.63333333 0.1 0
0.66666667 0.1 0
0.7 0.1 0
0.73333333 0.1 0
0.76666667 0.1 0
0.8 0.1 0
0.83333333 0.1 0
0.86666667 0.1 0
0.9 0.1 0
0.93333333 0.1 0
0.96666667 0.1 0
1 0.1 0
0 0.13333333 0
0.033333333 0.13333333 0
0.066666667 0.13333333 0
0.1 0.13333333 0
0.13333333 0.13333333 0
0.16666667 0.13333333 0
0.2 0.13333333 0
0.23333333 0.13333333 0
0.26666667 0.13333333 0
0.3 0.13333333 0
0.33333333 0.13333333 0
0.36666667 0.13333333 0
0.4 0.13333333 0
0.43333333 0.13333333 0
0.46666667 0.13333333 0
0.5 0.13333333 0
0.53333333 0.13333333 0
0.56666667 0.13333333 0
0.6 0.13333333 0
0.63333333 0.13333333 0
0.66666667 0.13333333 0
0.7 0.13333333 0
0.73333333 0.13333333 0
0.76666667 0.13333333 0
0.8 0.13333333 0
0.83333333 0.13333333 0
0.86666667 0.13333333 0
0.9 0.13333333 0
0.93333333 0.13333333 0
0.96666667 0.13333333 0
1 0.13333333 0
0 0.16666667 0
0.033333333 0.16666667 0
0.066666667 0.16666667 0
0.1 0.16666667 0
0.13333333 0.16666667 0
0.16666667 0.16666667 0
0.2 0.16666667 0
0.23333333 0.16666667 0
0.26666667 0.16666667 0
0.3 0.16666667 0
0.33333333 0.16666667 0
0.36666667 0.16666667 0
0.4 0.16666667 0
0.43333333 0.16666667 0
0.46666667 0.16666667 0
0.5 0.16666667 0
0.53333333 0.16666667 0
0.56666667 0.16666667 0
0.6 0.16666667 0
0.63333333 0.16666667 0
0.66666667 0.16666667 0
0.7 0.16666667 0
0.73333333 0.16666667 0
0.76666667 0.16666667 0
0.8 0.16666667 0
0.83333333 0.16666667 0
0.86666667 0.16666667 0
0.9 0.16666667 0
0.93333333 0.16666667 0
0.96666667 0.16666667 0
1 0.16666667 0
0 0.2 0
0.033333333 0.2 0
0.066666667 0.2 0
0.1 0.2 0
0.13333333 0.2 0
0.16666667 0.2 0
0.2 0.2 0
0.23333333 0.2 0
0.26666667 0.2 0
0.3 0.2 0
0.33333333 0.2 0
0.36666667 0.2 0
0.4 0.2 0
0.43333333 0.2 0
0.46666667 0.2 0
0.5 0.2 0
0.53333333 0.2 0
0.56666667 0.2 0
0.6 0.2 0
0.63333333 0.2 0
0.66666667 0.2 0
0.7 0.2 0
0.73333333 0.2 0
0.76666667 0.2 0
0.8 0.2 0
0.83333333 0.2 0
0.86666667 0.2 0
0.9 0.2 0
0.93333333 0.2 0
0.96666667 0.2 0
1 0.2 0
0 0.23333333 0
0.033333333 0.23333333 0
0.066666667 0.23333333 0
0.1 0.23333333 0
0.13333333 0.23333333 0
0.16666667 0.23333333 0
0.2 0.23333333 0
0.23333333 0.23333333 0
0.26666667 0.23333333 0
0.3 0.23333333 0
0.33333333 0.23333333 0
0.36666667 0.23333333 0
0.4 0.23333333 0
0.43333333 0.23333333 0
0.46666667 0.23333333 0
0.5 0.23333333 0
0.53333333 0.23333333 0
0.56666667 0.23333333 0
0.6 0.23333333 0
0.63333333 0.23333333 0
0.66666667 0.23333333 0
0.7 0.23333333 0
0.73333333 0.23333333 0
0.76666667 0.23333333 0
0.8 0.23333333 0
0.83333333 0.23333333 0
0.86666667 0.23333333 0
0.9 0.23333333 0
0.93333333 0.23333333 0
0.96666667 0.23333333 0
1 0.23333333 0
0 0.26666667 0
0.033333333 0.26666667 0
0.066666667 0.26666667 0
0.1 0.26666667 0
0.13333333 0.26666667 0
0.16666667 0.26666667 0
0.2 0.26666667 0
0.23333333 0.26666667 0
0.26666667 0.26666667 0
0.3 0.26666667 0
0.33333333 0.26666667 0
0.36666667 0.26666667 0
0.4 0.26666667 0
0.43333333 0.26666667 0
0.46666667 0.26666667 0
0.5 0.26666667 0
0.53333333 0.26666667 0
0.56666667 0.26666667 0
0.6 0.26666667 0
0.63333333 0.26666667 0
0.66666667 0.26666667 0
0.7 0.26666667 0
0.73333333 0.26666667 0
0.76666667 0.26666667 0
0.8 0.26666667 0
0.83333333 0.26666667 0
0.86666667 0.26666667 0
0.9 0.26666667 0
0.93333333 0.26666667 0
0.96666667 0.26666667 0
1 0.26666667 0
0 0.3 0
0.033333333 0.3 0
0.066666667 0.3 0
0.1 0.3 0
0.13333333 0.3 0
0.16666667 0.3 0
0.2 0.3 0
0.23333333 0.3 0
0.26666667 0.3 0
0.3 0.3 0
0.33333333 0.3 0
0.36666667 0.3 0
0.4 0.3 0
0.43333333 0.3 0
0.46666667 0.3 0
0.5 0.3 0
0.53333333 0.3 0
0.56666667 0.3 0
0.6 0.3 0
0.63333333 0.3 0
0.66666667 0.3 0
0.7 0.3 0
0.73333333 0.3 0
0.76666667 0.3 0
0.8 0.3 0
0.83333333 0.3 0
0.86666667 0.3 0
0.9 0.3 0
0.93333333 0.3 0
0.96666667 0.3 0
1 0.3 0
0 0.33333333 0
0.033333333 0.33333333 0
0.066666667 0.33333333 0
0.1 0.33333333 0
0.13333333 0.33333333 0
0.16666667 0.33333333 0
0.2 0.33333333 0
0.23333333 0.33333333 0
0.26666667 0.33333333 0
0.3 0.33333333 0
0.33333333 0.33333333 0
0.36666667 0.33333333 0
0.4 0.33333333 0
0.43333333 0.33333333 0
0.46666667 0.33333333 0
0.5 0.33333333 0
0.53333333 0.33333333 0
0.56666667 0.33333333 0
0.6 0.33333333 0
0.63333333 0.33333333 0
0.66666667 0.33333333 0
0.7 0.33333333 0
0.73333333 0.33333333 0
0.76666667 0.33333333 0
0.8 0.33333333 0
0.83333333 0.33333333 0
0.86666667 0.33333333 0
0.9 0.33333333 0
0.93333333 0.33333333 0
0.96666667 0.33333333 0
1 0.33333333 0
0 0.36666667 0
0.033333333 0.36666667 0
0.066666667 0.36666667 0
0.1 0.36666667 0
0.13333333 0.36666667 0
0.16666667 0.36666667 0
0.2 0.36666667 0
0.23333333 0.36666667 0
0.26666667 0.36666667 0
0.3 0.36666667 0
0.33333333 0.36666667 0
0.36666667 0.36666667 0
0.4 0.36666667 0
0.43333333 0.36666667 0
0.46666667 0.36666667 0
0.5 0.36666667 0
0.53333333 0.36666667 0
0.56666667 0.36666667 0
0.6 0.36666667 0
0.63333333 0.36666667 0
0.66666667 0.36666667 0
0.7 0.36666667 0
0.73333333 0.36666667 0
0.76666667 0.36666667 0
0.8 0.36666667 0
0.83333333 0.36666667 0
0.86666667 0.36666667 0
0.9 0.36666667 0
0.93333333 0.36666667 0
0.96666667 0.36666667 0
1 0.36666667 0
0 0.4 0
0.033333333 0.4 0
0.066666667 0.4 0
0.1 0.4 0
0.13333333 0.4 0
0.16666667 0.4 0
0.2 0.4 0
0.23333333 0.4 0
0.26666667 0.4 0
0.3 0.4 0
0.33333333 0.4 0
0.36666667 0.4 0
0.4 0.4 0
0.43333333 0.4 0
0.46666667 0.4 0
0.5 0.4 0
0.53333333 0.4 0
0.56666667 0.4 0
0.6 0.4 0
0.63333333 0.4 0
0.66666667 0.4 0
0.7 0.4 0
0.73333333 0.4 0
0.76666667 0.4 0
0.8 0.4 0
0.83333333 0.4 0
0.86666667 0.4 0
0.9 0.4 0
0.93333333 0.4 0
0.96666667 0.4 0
1 0.4 0
0 0.43333333 0
0.033333333 0.43333333 0
0.066666667 0.43333333 0
0.1 0.43333333 0
0.13333333 0.43333333 0
0.16666667 0.43333333 0
0.2 0.43333333 0
0.23333333 0.43333333 0
0.26666667 0.43333333 0
0.3 0.43333333 0
0.33333333 0.43333333 0
0.36666667 0.43333333 0
0.4 0.43333333 0
0.43333333 0.43333333 0
0.46666667 0.43333333 0
0.5 0.43333333 0
0.53333333 0.43333333 0
0.56666667 0.43333333 0
0.6 0.43333333 0
0.63333333 0.43333333 0
0.66666667 0.43333333 0
0.7 0.43333333 0
0.73333333 0.43333333 0
0.76666667 0.43333333 0
0.8 0.43333333 0
0.83333333 0.43333333 0
0.86666667 0.43333333 0
0.9 0.43333333 0
0.93333333 0.43333333 0
0.96666667 0.43333333 0
1 0.43333333 0
0 0.46666667 0
0.033333333 0.46666667 0
0.066666667 0.46666667 0
0.1 0.46666667 0
0.13333333 0.46666667 0
0.16666667 0.46666667 0
0.2 0.46666667 0
0.23333333 0.46666667 0
0.26666667 0.46666667 0
0.3 0.46666667 0
0.33333333 0.46666667 0
0.36666667 0.46666667 0
0.4 0.46666667 0
0.43333333 0.46666667 0
0.46666667 0.46666667 0
0.5 0.46666667 0
0.53333333 0.46666667 0
0.56666667 0.46666667 0
0.6 0.46666667 0
0.63333333 0.46666667 0
0.66666667 0.46666667 0
0.7 0.46666667 0
0.73333333 0.46666667 0
0.76666667 0.46666667 0
0.8 0.46666667 0
0.83333333 0.46666667 0
0.86666667 0.46666667 0
0.9 0.46666667 0
0.93333333 0.46666667 0
0.96666667 0.46666667 0
1 0.46666667 0
0 0.5 0
0.033333333 0.5 0
0.066666667 0.5 0
0.1 0.5 0
0.13333333 0.5 0
0.16666667 0.5 0
0.2 0.5 0
0.23333333 0.5 0
0.26666667 0.5 0
0.3 0.5 0
0.33333333 0.5 0
0.36666667 0.5 0
0.4 0.5 0
0.43333333 0.5 0
0.46666667 0.5 0
0.5 0.5 0
0.53333333 0.5 0
0.56666667 0.5 0
0.6 0.5 0
0.63333333 0.5 0
0.66666667 0.5 0
0.7 0.5 0
0.73333333 0.5 0
0.76666667 0.5 0
0.8 0.5 0
0.83333333 0.5 0
0.86666667 0.5 0
0.9 0.5 0
0.93333333 0.5 0
0.96666667 0.5 0
1 0.5 0
0 0.53333333 0
0.033333333 0.53333333 0
0.066666667 0.53333333 0
0.1 0.53333333 0
0.13333333 0.53333333 0
0.16666667 0.53333333 0
0.2 0.53333333 0
0.23333333 0.53333333 0
0.26666667 0.53333333 0
0.3 0.53333333 0
0.33333333 0.53333333 0
0.36666667 0.53333333 0
0.4 0.53333333 0
0.43333333 0.53333333 0
0.46666667 0.53333333 0
0.5 0.53333333 0
0.53333333 0.53333333 0
0.56666667 0.53333333 0
0.6 0.53333333 0
0.63333333 0.53333333 0
0.66666667 0.53333333 0
0.7 0.53333333 0
0.73333333 0.53333333 0
0.76666667 0.53333333 0
[...]
CELL_DATA 1920
Scalars  Label int 1
LOOKUP_TABLE FreeFempp_table
0
0
0
0
0
0
0
0
0
0
0
0
0
0
0
0
0
0
0
0
0
0
0
0
0
0
0
0
0
0
0
0
0
0
0
0
0
0
0
0
0
0
0
0
0
0
0
0
0
0
0
0
0
0
0
0
0
0
0
0
0
0
0
0
0
0
0
0
0
0
0
0
0
0
0
0
0
0
0
0
0
0
0
0
0
0
0
0
0
0
0
0
0
0
0
0
0
0
0
0
0
0
0
0
0
0
0
0
0
0
0
0
0
0
0
0
0
0
0
0
0
0
0
0
0
0
0
0
0
0
0
0
0
0
0
0
0
0
0
0
0
0
0
0
0
0
0
0
0
0
0
0
0
0
0
0
0
0
0
0
0
0
0
0
0
0
0
0
0
0
0
0
0
0
0
0
0
0
0
0
0
0
0
0
0
0
0
0
0
0
0
0
0
0
0
0
0
0
0
0
0
0
0
0
0
0
0
0
0
0
0
0
0
0
0
0
0
0
0
0
0
0
0
0
0
0
0
0
0
0
0
0
0
0
0
0
0
0
0
0
0
0
0
0
0
0
0
0
0
0
0
0
0
0
0
0
0
0
0
0
0
0
0
0
0
0
0
0
0
0
0
0
0
0
0
0
0
0
0
0
0
0
0
0
0
0
0
0
0
0
0
0
0
0
0
0
0
0
0
0
0
0
0
0
0
0
0
0
0
0
0
0
0
0
0
0
0
0
0
0
0
0
0
0
0
0
0
0
0
0
0
0
0
0
0
0
0
0
0
0
0
0
0
0
0
0
0
0
0
0
0
0
0
0
0
0
0
0
0
0
0
0
0
0
0
0
0
0
0
0
0
0
0
0
0
0
0
0
0
0
0
0
0
0
0
0
0
0
0
0
0
0
0
0
0
0
0
0
0
0
0
0
0
0
0
0
0
0
0
0
0
0
0
0
0
0
0
0
0
0
0
0
0
0
0
0
0
0
0
0
0
0
0
0
0
0
0
0
0
0
0
0
0
0
0
0
0
0
0
0
0
0
0
0
0
0
0
0
0
0
0
0
0
0
0
0
0
0
0
0
0
0
0
0
0
0
0
0
0
0
0
0
0
0
0
0
0
0
0
0
0
0
0
0
0
0
0
0
0
0
0
0
0
0
0
0
0
0
0
0
0
0
0
0
0
0
0
0
0
0
0
0
0
0
0
0
0
0
0
0
0
0
0
0
0
0
0
0
0
0
0
0
0
0
0
0
0
0
0
0
0
0
0
0
0
0
0
0
0
0
0
0
0
0
0
0
0
0
0
0
0
0
0
0
0
0
0
0
0
0
0
0
0
0
0
0
0
0
0
0
0
0
0
0
0
0
0
0
0
0
0
0
0
0
0
0
0
0
0
0
0
0
0
0
0
0
0
0
0
0
0
0
0
0
0
0
0
0
0
0
0
0
0
0
0
0
0
0
0
0
0
0
0
0
0
0
0
0
0
0
0
0
0
0
0
0
0
0
0
0
0
0
0
0
0
0
0
0
0
0
0
0
0
0
0
0
0
0
0
0
0
0
0
0
0
0
0
0
0
0
0
0
0
0
0
0
0
0
0
0
0
0
0
0
0
0
0
0
0
0
0
0
0
0
0
0
0
0
0
0
0
0
0
0
0
0
0
0
0
0
0
0
0
0
0
0
0
0
0
0
0
0
0
0
0
0
0
0
0
0
0
0
0
0
0
0
0
0
0
0
0
0
0
0
0
0
0
0
0
0
0
0
0
0
0
0
0
0
0
0
0
0
0
0
0
0
0
0
0
0
0
0
0
0
0
0
0
0
0
0
0
0
0
0
0
0
0
0
0
0
0
0
0
0
0
0
0
0
0
0
0
0
0
0
0
0
0
0
0
0
0
0
0
0
0
0
0
0
0
0
0
0
0
0
0
0
0
0
0
0
0
0
0
0
0
0
0
0
0
0
0
0
0
0
0
0
0
0
0
0
0
0
0
0
0
0
0
0
0
0
0
0
0
0
0
0
0
0
0
0
0
0
0
0
0
0
0
0
0
0
0
0
0
0
0
0
0
0
0
0
0
0
0
0
0
0
0
0
0
0
0
0
0
0
0
0
0
0
0
0
0
0
0
0
0
0
0
0
0
0
0
0
0
0
0
0
0
0
0
0
0
0
0
0
0
0
0
0
0
0
0
0
0
0
0
0
0
0
0
0
0
0
0
0
0
0
0
0
0
0
0
0
0
0
0
0
0
0
0
0
0
0
0
0
0
0
0
0
0
0
0
0
0
0
0
0
0
0
0
0
0
0
0
0
0
0
0
0
0
0
0
0
0
0
0
0
0
0
0
0
0
0
0
0
0
0
0
0
0
0
0
0
0
0
0
0
0
0
0
0
0
0
0
0
0
0
0
0
0
0
0
0
0
0
0
0
0
0
0
0
0
0
0
0
0
0
0
0
0
0
0
0
0
0
0
0
0
0
0
0
0
0
0
0
0
0
0
0
0
0
0
0
0
0
0
0
0
0
0
0
0
0
0
0
0
0
0
0
0
0
0
0
0
0
0
0
0
0
0
0
0
0
0
0
0
0
0
0
0
0
0
0
0
0
0
0
0
0
0
0
0
0
0
0
0
0
0
0
0
0
0
0
0
0
0
0
0
0
0
0
0
0
0
0
0
0
0
0
0
0
0
0
0
0
0
0
0
0
0
0
0
0
0
0
0
0
0
0
0
0
0
0
0
0
0
0
0
0
0
0
0
0
0
0
0
0
0
0
0
0
0
0
0
0
0
0
0
0
0
0
0
0
0
0
0
0
0
0
0
0
0
0
0
0
0
0
0
0
0
0
0
0
0
0
0
0
0
0
0
0
0
0
0
0
0
0
0
0
0
0
0
0
0
0
0
0
0
0
0
0
0
0
0
0
0
0
0
0
0
0
0
0
0
0
0
0
0
0
0
0
0
0
0
0
0
0
0
0
0
0
0
0
0
0
0
0
0
0
0
0
0
0
0
0
0
0
0
0
0
0
0
0
0
0
0
0
0
0
0
0
0
0
0
0
0
0
0
0
0
0
0
0
0
0
0
0
0
0
0
0
0
0
0
0
0
0
0
0
0
0
0
0
0
0
0
0
0
0
0
0
0
0
0
0
0
0
0
0
0
0
0
0
0
0
0
0
0
0
0
0
0
0
0
0
0
0
0
0
0
0
0
0
0
0
0
0
0
0
0
0
0
0
0
0
0
0
0
0
0
0
0
0
0
0
0
0
0
0
0
0
0
0
0
0
0
0
0
0
0
0
0
0
0
0
0
0
0
0
0
0
0
0
0
0
0
0
0
0
0
0
0
0
0
0
0
0
0
0
0
0
0
0
0
0
0
0
0
0
0
0
0
0
0
0
0
0
0
0
0
0
0
0
0
0
0
0
0
0
0
0
0
0
0
0
0
0
0
0
0
0
0
0
0
0
0
0
0
0
0
0
0
0
0
0
0
0
0
0
0
0
0
0
0
0
0
0
0
0
0
0
0
0
0
0
0
0
0
0
0
0
0
0
0
0
0
0
0
0
0
0
0
0
0
0
0
0
0
0
0
0
0
0
0
0
0
0
0
0
0
0
0
0
0
0
0
0
0
0
0
0
0
0
0
0
0
0
0
0
0
0
0
0
0
0
0
0
0
0
0
0
0
0
0
0
0
0
0
0
0
0
0
0
0
0
0
0
0
0
0
0
0
0
0
0
0
0
0
0
0
0
0
0
0
0
0
0
0
0
0
0
0
0
0
0
0
0
0
0
0
0
0
0
0
0
0
0
0
0
0
0
0
0
0
0
0
0
0
0
0
0
0
0
0
0
0
0
0
0
0
0
0
0
0
0
0
0
0
0
0
0
0
0
0
0
0
0
0
0
0
0
0
0
0
0
0
0
0
0
0
0
0
0
0
0
0
0
0
0
0
0
0
0
0
0
0
0
0
0
0
0
0
0
0
0
0
0
0
0
0
0
0
0
0
0
0
0
0
0
0
0
0
0
0
0
0
0
0
0
0
0
0
0
0
0
0
0
0
0
0
0
0
0
0
0
0
0
0
0
0
0
1
1
1
1
1
1
1
1
1
1
1
1
1
1
1
1
1
1
1
1
1
1
1
1
1
1
1
1
1
1
2
2
2
2
2
2
2
2
2
2
2
2
2
2
2
2
2
2
2
2
2
2
2
2
2
2
2
2
2
2
3
3
3
3
3
3
3
3
3
3
3
3
3
3
3
3
3
3
3
3
3
3
3
3
3
3
3
3
3
3
4
4
4
4
4
4
4
4
4
4
4
4
4
4
4
4
4
4
4
4
4
4
4
4
4
4
4
4
4
4

LOOKUP_TABLE FreeFempp_table 5
1.00000000 0.00000000 0.00000000 1.00000000
1.00000000 1.00000000 0.00000000 1.00000000
1.00000000 0.00000000 1.00000000 1.00000000
0.00000000 1.00000000 0.00000000 1.00000000
0.00000000 1.00000000 1.00000000 1.00000000

POINT_DATA 961
FIELD FieldData 1
Density 1 961 float
9.99899566e-01 9.99683738e-01 9.99664485e-01 9.99337018e-01 9.98493314e-01 9.98424649e-01 9.98166203e-01 9.95891035e-01 9.85231876e-01 9.33347464e-01 3.93999070e-01 6.32331194e-03 6.11249416e-04 4.90791805e-04 2.86427792e-04 2.82508758e-04 2.65371404e-04 2.89268326e-04 6.66247774e-03 7.53152490e-01 9.95002151e-01 9.99391377e-01 9.99787033e-01 9.99890983e-01 9.99931753e-01 9.99944627e-01 9.99929309e-01 9.99843776e-01 9.99842167e-01 9.99842584e-01 9.99923348e-01 9.97958362e-01 5.45220673e-01 6.95195794e-01 7.52570704e-02 3.55458148e-02 3.89538296e-02 5.31758890e-02 1.57482047e-02 2.55445740e-03 5.95687714e-04 2.38480512e-04 1.76899353e-04 1.80128874e-04 1.83505108e-04 1.81241092e-04 1.77445690e-04 1.78174247e-04 1.85749726e-04 2.59473891e-04 1.16372283e-03 2.41336841e-02 5.60331523e-01 9.71867204e-01 9.98020828e-01 9.99715805e-01 9.99908507e-01 9.99933422e-01 9.71255541e-01 9.71585393e-01 9.71812427e-01 9.99843836e-01 1.08015563e-04 1.07056170e-04 1.07805252e-04 1.12166264e-04 1.16288218e-04 1.23501843e-04 1.96466135e-04 1.85510854e-03 8.17525899e-04 2.21833689e-04 1.45416459e-04 1.34866845e-04 1.39620388e-04 1.44665086e-04 1.50908294e-04 1.55106187e-04 1.60519499e-04 1.70842992e-04 2.14467276e-04 8.13315390e-04 1.81972366e-02 3.65393609e-01 9.10084009e-01 9.91586387e-01 9.99280512e-01 9.99872684e-01 9.99934971e-01 9.99591529e-01 9.71895695e-01 9.72573817e-01 9.99846160e-01 1.10756053e-04 1.06771251e-04 1.06710104e-04 1.08034554e-04 1.09698631e-04 1.09414861e-04 1.08562155e-04 1.08207656e-04 1.08680055e-04 1.09797897e-04 1.12922637e-04 1.18908109e-04 1.29811000e-04 1.36228249e-04 1.39922660e-04 1.42190911e-04 1.44342019e-04 1.50407970e-04 1.85060358e-04 5.99033898e-04 1.13742780e-02 1.72810629e-01 7.01765716e-01 9.45584118e-01 9.96289372e-01 9.99756873e-01 9.99928236e-01 9.99888599e-01 9.71505761e-01 9.72412586e-01 9.99846399e-01 9.99945819e-01 9.99711335e-01 9.98547733e-01 1.29037522e-04 1.19316472e-04 1.14467453e-04 1.10336667e-04 1.08647109e-04 1.08381864e-04 1.08852015e-04 1.10483306e-04 1.14628456e-04 1.23042788e-04 1.33240028e-04 1.33650465e-04 1.31742010e-04 1.29682405e-04 1.31252440e-04 1.56579190e-04 4.20631928e-04 5.55753615e-03 6.21436052e-02 3.04813743e-01 6.71950638e-01 9.62932944e-01 9.99250531e-01 9.99911129e-01 9.99926448e-01 9.71644044e-01 9.72333193e-01 9.99846101e-01 9.99856055e-01 9.80803132e-01 9.81419325e-01 9.81602967e-01 9.99937654e-01 9.99885261e-01 9.99525309e-01 9.96681452e-01 9.76433694e-01 8.13009441e-01 1.34941816e-01 1.83428347e-03 2.06096331e-04 1.76512243e-04 1.55065281e-04 1.35353941e-04 1.22278318e-04 1.19488017e-04 1.27729232e-04 2.90268596e-04 3.80636216e-03 2.92817336e-02 8.84619132e-02 1.68831334e-01 6.71861112e-01 9.95707691e-01 9.99878943e-01 9.99935031e-01 9.55589652e-01 9.72396910e-01 9.99845803e-01 9.99862134e-01 9.86169279e-01 9.86256182e-01 9.84930038e-01 9.83917117e-01 9.81600523e-01 9.80470181e-01 9.95847642e-01 9.99939978e-01 9.99929368e-01 9.99866128e-01 9.99487162e-01 9.93904114e-01 7.03521013e-01 2.29098238e-02 6.06333720e-04 1.32148663e-04 1.16253068e-04 1.16314426e-04 1.41860277e-04 2.60421238e-03 1.89873520e-02 2.55390964e-02 2.54156776e-02 1.21445030e-01 9.64730859e-01 9.99824643e-01 9.99936342e-01 9.99712110e-01 9.72580552e-01 9.99845624e-01 9.99869764e-01 9.98397887e-01 9.88751650e-01 9.86419082e-01 9.84336138e-01 9.82659221e-01 9.82550621e-01 9.82102931e-01 9.81297195e-01 9.80964899e-01 9.79868352e-01 9.99935329e-01 9.99922931e-01 9.99652565e-01 9.85201120e-01 5.34698725e-01 1.21158352e-02 1.23967679e-04 1.13623697e-04 1.17938704e-04 2.09293692e-04 8.68349615e-03 5.55016892e-03 3.15962243e-03 1.31046325e-02 7.63606548e-01 9.99745488e-01 9.99936640e-01 9.99790430e-01 9.73348320e-01 9.99845982e-01 9.99870896e-01 9.88858283e-01 9.87038612e-01 9.84734774e-01 9.82459843e-01 9.81033623e-01 9.80848730e-01 9.83148158e-01 9.84288692e-01 9.84169304e-01 9.83087420e-01 9.80738401e-01 9.78451431e-01 9.99932706e-01 9.99894321e-01 9.97422278e-01 6.91395640e-01 8.72174802e-04 1.19281940e-04 1.15113289e-04 1.26167724e-04 3.17985076e-04 9.93353548e-04 5.24414645e-04 1.28426601e-03 1.72021851e-01 9.99624312e-01 9.99937773e-01 9.99705970e-01 9.74948227e-01 9.99848008e-01 9.99856770e-01 9.82100129e-01 9.99900222e-01 9.93359566e-01 9.99697328e-01 9.99927461e-01 9.95231569e-01 9.77950633e-01 9.86055255e-01 9.87518132e-01 9.87285793e-01 9.85015571e-01 9.82323408e-01 9.80264783e-01 9.78150070e-01 9.99935746e-01 9.99292135e-01 6.12554908e-01 1.53492554e-04 1.21977704e-04 1.24498954e-04 1.50038133e-04 2.25117910e-04 2.82912399e-04 3.39154241e-04 7.84584042e-03 9.99352872e-01 9.99938011e-01 9.76572454e-01 9.77405310e-01 9.99851823e-01 9.99923348e-01 9.99926209e-01 2.07045838e-01 5.36489952e-03 1.43655641e-02 1.62351225e-02 3.01281095e-01 9.99903500e-01 9.80599761e-01 9.88675833e-01 9.89314079e-01 9.87531662e-01 9.84188616e-01 9.82625604e-01 9.81397748e-01 9.78530943e-01 9.99931633e-01 9.99611080e-01 3.21277330e-04 1.40064876e-04 1.36985458e-04 1.54026289e-04 1.99692455e-04 2.49516364e-04 2.82857247e-04 4.18121985e-04 9.95122313e-01 9.99933600e-01 9.78494287e-01 9.79864061e-01 9.99857843e-01 9.99913752e-01 9.99931037e-01 3.36462911e-03 3.77534190e-04 3.83063190e-04 4.34550195e-04 1.12282520e-03 9.70042884e-01 9.99936044e-01 9.84145761e-01 9.88742828e-01 9.87445295e-01 9.99946713e-01 9.99188066e-01 9.97498512e-01 9.81773734e-01 9.78304207e-01 9.87471282e-01 9.99042809e-01 1.85852434e-04 1.54437570e-04 1.76809146e-04 2.15493928e-04 2.45885516e-04 2.55133753e-04 3.05808469e-04 3.86581831e-02 9.99924004e-01 9.80525732e-01 9.81885314e-01 9.99862492e-01 9.99888480e-01 9.99933839e-01 5.37942746e-04 4.07213694e-04 4.00681776e-04 4.08508495e-04 4.07565705e-04 9.87362683e-01 9.99897540e-01 9.99922335e-01 9.84602332e-01 9.86451805e-01 9.83565688e-01 9.99914408e-01 9.82894480e-01 9.99707937e-01 9.99938309e-01 9.78658319e-01 9.74399745e-01 3.41997860e-04 1.99058413e-04 2.10476486e-04 2.35439118e-04 2.55315972e-04 2.67296447e-04 2.80034350e-04 3.68537847e-04 9.99941945e-01 9.83116269e-01 9.84159827e-01 9.99867201e-01 9.99842048e-01 9.99934435e-01 3.85805266e-04 3.89765890e-04 3.83219594e-04 4.01507132e-04 4.09176922e-04 9.95033443e-01 9.99891579e-01 9.99932408e-01 9.99913573e-01 9.82293487e-01 9.82293069e-01 9.82207298e-01 9.84802067e-01 9.12017345e-01 9.99917924e-01 9.99916017e-01 9.99798238e-01 9.77557421e-01 2.64101225e-04 2.22619681e-04 2.46850221e-04 2.62824993e-04 2.69899698e-04 2.70245306e-04 3.26782611e-04 9.98406947e-01 9.86315370e-01 9.86519396e-01 9.99871552e-01 9.99842048e-01 9.99926627e-01 3.71439120e-04 3.58362362e-04 3.49854759e-04 3.89559340e-04 6.05568464e-04 9.99677479e-01 9.99919057e-01 9.99916732e-01 9.99919355e-01 9.99898195e-01 9.99897003e-01 9.99949753e-01 9.86232996e-01 9.85783756e-01 9.99099493e-01 9.99850273e-01 9.89266455e-01 9.91204381e-01 6.00838743e-04 2.82088498e-04 2.74350663e-04 2.78633117e-04 2.82533554e-04 2.87791947e-04 3.01645370e-04 4.58946888e-04 9.89382625e-01 9.88555789e-01 9.99874890e-01 9.99842227e-01 9.99886155e-01 4.04621591e-04 3.23341403e-04 3.05041147e-04 3.63131257e-04 4.92958864e-03 9.99909639e-01 9.99908626e-01 9.99839783e-01 9.98870313e-01 8.26010704e-01 1.14277482e-01 6.54110134e-01 9.99421418e-01 9.99789953e-01 9.87820566e-01 9.89357591e-01 9.92697358e-01 9.95048106e-01 9.94936109e-01 3.71172151e-04 2.86583352e-04 2.86845665e-04 2.90996890e-04 2.97892664e-04 3.11077485e-04 3.97131458e-04 9.89090323e-01 9.99732971e-01 9.99871314e-01 9.99842525e-01 9.99755204e-01 6.56904711e-04 2.97345192e-04 2.67800642e-04 3.17839527e-04 3.33003998e-01 9.99745429e-01 9.99790609e-01 9.99712050e-01 5.65284789e-01 7.28562300e-04 4.19223419e-04 4.26012732e-04 1.12042984e-03 8.71126354e-01 9.99956965e-01 9.91049051e-01 9.92423952e-01 9.93940771e-01 9.95824695e-01 9.95180130e-01 3.67023109e-04 2.91557109e-04 2.92015815e-04 2.95379257e-04 3.00858665e-04 3.71541886e-04 9.84342098e-01 9.99947786e-01 9.99867618e-01 9.99842525e-01 9.99298871e-01 2.84880935e-03 2.95782200e-04 2.54194660e-04 2.78895255e-04 2.56961188e-03 9.32846069e-01 9.99931455e-01 9.99669194e-01 2.65848031e-03 4.11631016e-04 4.18889220e-04 4.10694658e-04 4.07908752e-04 4.05436498e-04 3.13383192e-01 9.99956131e-01 9.91373301e-01 9.99841809e-01 9.94856060e-01 9.96827602e-01 9.95897055e-01 3.72876908e-04 2.89069285e-04 2.84073089e-04 2.82494031e-04 3.51921393e-04 9.99581635e-01 9.99903500e-01 9.99872148e-01 9.99841928e-01 9.99498188e-01 1.80966798e-02 3.16919672e-04 2.62720190e-04 2.65473849e-04 3.40624392e-04 7.56252885e-01 9.81672823e-01 9.89982843e-01 3.57412006e-04 4.11148707e-04 4.08934517e-04 3.98411474e-04 3.86946456e-04 3.76831274e-04 3.80516722e-04 7.56572902e-01 9.90650475e-01 9.91206288e-01 9.94061768e-01 9.96259689e-01 9.97473955e-01 9.96663332e-01 3.62732913e-04 2.66913587e-04 2.49281875e-04 2.92654498e-04 9.99296367e-01 9.92791116e-01 9.99887288e-01 9.99841154e-01 9.99809742e-01 1.17988728e-01 3.43477353e-04 2.84023205e-04 2.89116811e-04 3.14342498e-04 9.34783486e-04 9.99942601e-01 9.99608755e-01 3.42451065e-04 3.98683333e-04 3.93326802e-04 3.81413469e-04 3.66104709e-04 3.50961374e-04 3.43224616e-04 5.60048793e-04 9.97897625e-01 9.88320291e-01 9.91088688e-01 9.94690120e-01 9.96604979e-01 9.97927785e-01 9.97304142e-01 3.54827760e-04 2.65733397e-04 2.71208584e-04 5.03680960e-04 9.95960951e-01 9.99905825e-01 9.99877870e-01 9.99895632e-01 5.59555888e-01 3.64054868e-04 3.07557464e-04 3.10530915e-04 3.15451209e-04 3.79041536e-04 9.99700904e-01 9.99865234e-01 1.06868129e-02 3.98615201e-04 3.78446479e-04 3.58893769e-04 3.35054414e-04 3.10201402e-04 2.81831715e-04 3.03606386e-04 2.33991258e-02 9.99916375e-01 9.85035598e-01 9.90582108e-01 9.94583309e-01 9.96973574e-01 9.98354375e-01 9.97874737e-01 3.69606394e-04 2.82246299e-04 3.91698646e-04 9.97388721e-01 9.99920964e-01 9.99923825e-01 9.99925256e-01 8.91024292e-01 3.80391837e-04 3.29939765e-04 3.29554518e-04 3.27328366e-04 3.50003305e-04 3.82968690e-03 9.85313475e-01 9.97374952e-01 3.89646040e-04 3.66512017e-04 3.30681592e-04 2.99762469e-04 2.74073158e-04 2.48434750e-04 2.23789946e-04 2.67304247e-04 9.39516187e-01 9.99943018e-01 9.85225141e-01 9.90751803e-01 9.95030701e-01 9.97522771e-01 9.98716295e-01 9.98485267e-01 3.62713210e-04 3.09669733e-04 9.95961785e-01 9.99922514e-01 9.99940336e-01 9.99933243e-01 9.75958705e-01 3.78857279e-04 3.52050323e-04 3.50136979e-04 3.45659442e-04 3.39218212e-04 3.92206741e-04 9.99933958e-01 9.99825418e-01 9.26434040e-01 3.74027353e-04 2.94719561e-04 2.62996909e-04 2.44710711e-04 2.26346805e-04 2.04792683e-04 1.86097473e-04 2.25184835e-04 7.16546297e-01 9.99944031e-01 9.85642970e-01 9.91151929e-01 9.96504605e-01 9.97945189e-01 9.99094248e-01 9.97947156e-01 3.41889157e-04 9.99803960e-01 9.99916375e-01 9.99943972e-01 9.99930620e-01 9.93905425e-01 4.15923016e-04 3.73159361e-04 3.69141053e-04 3.64001578e-04 3.60858452e-04 3.66084132e-04 4.16637922e-04 9.82781291e-01 9.76250708e-01 5.23968220e-01 3.26964248e-04 2.30308186e-04 2.23114475e-04 2.11929917e-04 1.91605941e-04 1.65648511e-04 1.44190650e-04 1.54193040e-04 2.14915970e-04 2.19667889e-03 9.99922693e-01 9.93302166e-01 9.96725261e-01 9.98199403e-01 9.99614179e-01 9.99321878e-01 9.99033332e-01 9.99936044e-01 9.99937892e-01 9.99918520e-01 9.98833895e-01 5.91910037e-04 3.92824761e-04 3.82549188e-04 3.71583912e-04 3.61490849e-04 3.49110953e-04 3.80895945e-04 9.99180019e-01 9.79509473e-01 9.87319589e-01 9.56117436e-02 2.68780801e-04 2.14145635e-04 2.07924473e-04 1.86169360e-04 1.58640949e-04 1.38137839e-04 1.25879858e-04 1.19693264e-04 1.14415299e-04 1.15053350e-04 1.22541838e-04 1.37464071e-04 9.99947190e-01 9.98091638e-01 9.99585986e-01 9.99532461e-01 9.99941885e-01 9.99927104e-01 9.99880731e-01 9.99705732e-01 7.17020652e-04 3.85746942e-04 3.92616086e-04 3.71333299e-04 3.60146427e-04 3.52089060e-04 3.50306043e-04 3.82786500e-04 9.99265015e-01 9.80847955e-01 9.88957167e-01 3.52829607e-04 2.31513099e-04 2.18003595e-04 1.87852434e-04 1.56333685e-04 1.38703574e-04 1.29529479e-04 1.21372170e-04 1.12011978e-04 1.09597240e-04 1.09207620e-04 1.08225431e-04 1.08857224e-04 1.09493129e-04 1.39586948e-04 9.95662212e-01 9.99913275e-01 9.99921083e-01 9.99804974e-01 9.99796808e-01 2.56844866e-03 4.95716813e-04 4.30889544e-04 3.65010143e-04 3.58141202e-04 3.48470174e-04 3.46819579e-04 3.67084343e-04 5.86810429e-03 9.99623835e-01 9.84384358e-01 9.65386450e-01 2.84350215e-04 2.31076570e-04 2.03042044e-04 1.70489569e-04 1.64640689e-04 1.68125887e-04 1.57914110e-04 1.37061361e-04 1.25160135e-04 1.20021919e-04 1.14603725e-04 1.09226457e-04 1.03644743e-04 1.07292690e-04 1.06289823e-04 1.47290557e-04 9.99924660e-01 9.99747455e-01 9.99627113e-01 1.39256254e-01 2.23716232e-03 4.07681102e-03 4.81656194e-03 4.59067727e-04 3.69985879e-04 3.56357748e-04 3.36709985e-04 3.59451282e-04 6.26394689e-01 9.99902964e-01 9.99953151e-01 4.31785971e-04 3.47197289e-04 3.07212438e-04 2.02559386e-04 1.89314262e-04 3.66276159e-04 2.43584782e-01 9.70683694e-01 9.99638021e-01 9.99710798e-01 9.69410121e-01 9.89977002e-01 9.39335048e-01 1.09362532e-04 1.02799429e-04 1.01034719e-04 9.99937773e-01 9.99919295e-01 9.99900520e-01 9.98257816e-01 5.28880715e-01 8.44597459e-01 9.83840942e-01 4.64181542e-01 1.75753818e-03 4.19699034e-04 3.71702306e-04 3.23631190e-04 7.06641376e-02 9.99831617e-01 9.99937594e-01 1.25531491e-03 4.31697612e-04 4.43109049e-04 2.66329683e-02 4.04056133e-04 1.29098582e-04 1.27284715e-04 1.64223136e-04 4.27185616e-04 1.38512673e-02 2.10845232e-01 3.64651904e-04 4.24425467e-04 9.95372236e-01 1.43725760e-04 1.36605348e-04 9.99852657e-01 9.76444125e-01 9.76417840e-01 9.74322379e-01 9.99910712e-01 9.69965100e-01 9.69966471e-01 9.72511470e-01 9.78203297e-01 9.79450166e-01 9.70348716e-01 3.65831889e-04 9.93667364e-01 9.99932051e-01 9.89349008e-01 9.99955356e-01 6.26776397e-01 8.57139379e-02 1.56587362e-02 1.47149630e-03 2.72233272e-04 1.29155334e-04 1.23126170e-04 1.85310739e-04 6.07463240e-04 1.53712958e-01 3.52262054e-04 3.20753577e-04 3.36069090e-04 2.11255737e-02 9.99908686e-01 9.99911487e-01 9.99863207e-01 9.99867201e-01 9.99863029e-01 9.99850452e-01 9.99869466e-01 9.99907553e-01 9.99831021e-01 9.99837339e-01 9.99847412e-01 9.99854624e-01 9.99843359e-01 9.99852777e-01 9.99871850e-01 9.99894440e-01 9.99905705e-01 9.99898493e-01 9.99951541e-01 9.90843356e-01 7.12196589e-01 9.92909372e-01 1.17356135e-02 1.39469761e-04 1.43941885e-04 3.22631031e-01 9.97256875e-01 9.99512672e-01 1.69278169e-03 4.42833902e-04 5.07607299e-04 9.96289194e-01 
