# vtk DataFile Version 2.0
results_case1_non_linear/iter0.vtk, Created by Freefem++ 
ASCII
DATASET UNSTRUCTURED_GRID
POINTS 961 float
0 0 0
0.033333333 0 0
0.066666667 0 0
0.1 0 0
0.13333333 0 0
0.16666667 0 0
0.2 0 0
0.23333333 0 0
0.26666667 0 0
0.3 0 0
0.33333333 0 0
0.36666667 0 0
0.4 0 0
0.43333333 0 0
0.46666667 0 0
0.5 0 0
0.53333333 0 0
0.56666667 0 0
0.6 0 0
0.63333333 0 0
0.66666667 0 0
0.7 0 0
0.73333333 0 0
0.76666667 0 0
0.8 0 0
0.83333333 0 0
0.86666667 0 0
0.9 0 0
0.93333333 0 0
0.96666667 0 0
1 0 0
0 0.033333333 0
0.033333333 0.033333333 0
0.066666667 0.033333333 0
0.1 0.033333333 0
0.13333333 0.033333333 0
0.16666667 0.033333333 0
0.2 0.033333333 0
0.23333333 0.033333333 0
0.26666667 0.033333333 0
0.3 0.033333333 0
0.33333333 0.033333333 0
0.36666667 0.033333333 0
0.4 0.033333333 0
0.43333333 0.033333333 0
0.46666667 0.033333333 0
0.5 0.033333333 0
0.53333333 0.033333333 0
0.56666667 0.033333333 0
0.6 0.033333333 0
0.63333333 0.033333333 0
0.66666667 0.033333333 0
0.7 0.033333333 0
0.73333333 0.033333333 0
0.76666667 0.033333333 0
0.8 0.033333333 0
0.83333333 0.033333333 0
0.86666667 0.033333333 0
0.9 0.033333333 0
0.93333333 0.033333333 0
0.96666667 0.033333333 0
1 0.033333333 0
0 0.066666667 0
0.033333333 0.066666667 0
0.066666667 0.066666667 0
0.1 0.066666667 0
0.13333333 0.066666667 0
0.16666667 0.066666667 0
0.2 0.066666667 0
0.23333333 0.066666667 0
0.26666667 0.066666667 0
0.3 0.066666667 0
0.33333333 0.066666667 0
0.36666667 0.066666667 0
0.4 0.066666667 0
0.43333333 0.066666667 0
0.46666667 0.066666667 0
0.5 0.066666667 0
0.53333333 0.066666667 0
0.56666667 0.066666667 0
0.6 0.066666667 0
0.63333333 0.066666667 0
0.66666667 0.066666667 0
0.7 0.066666667 0
0.73333333 0.066666667 0
0.76666667 0.066666667 0
0.8 0.066666667 0
0.83333333 0.066666667 0
0.86666667 0.066666667 0
0.9 0.066666667 0
0.93333333 0.066666667 0
0.96666667 0.066666667 0
1 0.066666667 0
0 0.1 0
0.033333333 0.1 0
0.066666667 0.1 0
0.1 0.1 0
0.13333333 0.1 0
0.16666667 0.1 0
0.2 0.1 0
0.23333333 0.1 0
0.26666667 0.1 0
0.3 0.1 0
0.33333333 0.1 0
0.36666667 0.1 0
0.4 0.1 0
0.43333333 0.1 0
0.46666667 0.1 0
0.5 0.1 0
0.53333333 0.1 0
0.56666667 0.1 0
0.6 0.1 0
0.63333333 0.1 0
0.66666667 0.1 0
0.7 0.1 0
0.73333333 0.1 0
0.76666667 0.1 0
0.8 0.1 0
0.83333333 0.1 0
0.86666667 0.1 0
0.9 0.1 0
0.93333333 0.1 0
0.96666667 0.1 0
1 0.1 0
0 0.13333333 0
0.033333333 0.13333333 0
0.066666667 0.13333333 0
0.1 0.13333333 0
0.13333333 0.13333333 0
0.16666667 0.13333333 0
0.2 0.13333333 0
0.23333333 0.13333333 0
0.26666667 0.13333333 0
0.3 0.13333333 0
0.33333333 0.13333333 0
0.36666667 0.13333333 0
0.4 0.13333333 0
0.43333333 0.13333333 0
0.46666667 0.13333333 0
0.5 0.13333333 0
0.53333333 0.13333333 0
0.56666667 0.13333333 0
0.6 0.13333333 0
0.63333333 0.13333333 0
0.66666667 0.13333333 0
0.7 0.13333333 0
0.73333333 0.13333333 0
0.76666667 0.13333333 0
0.8 0.13333333 0
0.83333333 0.13333333 0
0.86666667 0.13333333 0
0.9 0.13333333 0
0.93333333 0.13333333 0
0.96666667 0.13333333 0
1 0.13333333 0
0 0.16666667 0
0.033333333 0.16666667 0
0.066666667 0.16666667 0
0.1 0.16666667 0
0.13333333 0.16666667 0
0.16666667 0.16666667 0
0.2 0.16666667 0
0.23333333 0.16666667 0
0.26666667 0.16666667 0
0.3 0.16666667 0
0.33333333 0.16666667 0
0.36666667 0.16666667 0
0.4 0.16666667 0
0.43333333 0.16666667 0
0.46666667 0.16666667 0
0.5 0.16666667 0
0.53333333 0.16666667 0
0.56666667 0.16666667 0
0.6 0.16666667 0
0.63333333 0.16666667 0
0.66666667 0.16666667 0
0.7 0.16666667 0
0.73333333 0.16666667 0
0.76666667 0.16666667 0
0.8 0.16666667 0
0.83333333 0.16666667 0
0.86666667 0.16666667 0
0.9 0.16666667 0
0.93333333 0.16666667 0
0.96666667 0.16666667 0
1 0.16666667 0
0 0.2 0
0.033333333 0.2 0
0.066666667 0.2 0
0.1 0.2 0
0.13333333 0.2 0
0.16666667 0.2 0
0.2 0.2 0
0.23333333 0.2 0
0.26666667 0.2 0
0.3 0.2 0
0.33333333 0.2 0
0.36666667 0.2 0
0.4 0.2 0
0.43333333 0.2 0
0.46666667 0.2 0
0.5 0.2 0
0.53333333 0.2 0
0.56666667 0.2 0
0.6 0.2 0
0.63333333 0.2 0
0.66666667 0.2 0
0.7 0.2 0
0.73333333 0.2 0
0.76666667 0.2 0
0.8 0.2 0
0.83333333 0.2 0
0.86666667 0.2 0
0.9 0.2 0
0.93333333 0.2 0
0.96666667 0.2 0
1 0.2 0
0 0.23333333 0
0.033333333 0.23333333 0
0.066666667 0.23333333 0
0.1 0.23333333 0
0.13333333 0.23333333 0
0.16666667 0.23333333 0
0.2 0.23333333 0
0.23333333 0.23333333 0
0.26666667 0.23333333 0
0.3 0.23333333 0
0.33333333 0.23333333 0
0.36666667 0.23333333 0
0.4 0.23333333 0
0.43333333 0.23333333 0
0.46666667 0.23333333 0
0.5 0.23333333 0
0.53333333 0.23333333 0
0.56666667 0.23333333 0
0.6 0.23333333 0
0.63333333 0.23333333 0
0.66666667 0.23333333 0
0.7 0.23333333 0
0.73333333 0.23333333 0
0.76666667 0.23333333 0
0.8 0.23333333 0
0.83333333 0.23333333 0
0.86666667 0.23333333 0
0.9 0.23333333 0
0.93333333 0.23333333 0
0.96666667 0.23333333 0
1 0.23333333 0
0 0.26666667 0
0.033333333 0.26666667 0
0.066666667 0.26666667 0
0.1 0.26666667 0
0.13333333 0.26666667 0
0.16666667 0.26666667 0
0.2 0.26666667 0
0.23333333 0.26666667 0
0.26666667 0.26666667 0
0.3 0.26666667 0
0.33333333 0.26666667 0
0.36666667 0.26666667 0
0.4 0.26666667 0
0.43333333 0.26666667 0
0.46666667 0.26666667 0
0.5 0.26666667 0
0.53333333 0.26666667 0
0.56666667 0.26666667 0
0.6 0.26666667 0
0.63333333 0.26666667 0
0.66666667 0.26666667 0
0.7 0.26666667 0
0.73333333 0.26666667 0
0.76666667 0.26666667 0
0.8 0.26666667 0
0.83333333 0.26666667 0
0.86666667 0.26666667 0
0.9 0.26666667 0
0.93333333 0.26666667 0
0.96666667 0.26666667 0
1 0.26666667 0
0 0.3 0
0.033333333 0.3 0
0.066666667 0.3 0
0.1 0.3 0
0.13333333 0.3 0
0.16666667 0.3 0
0.2 0.3 0
0.23333333 0.3 0
0.26666667 0.3 0
0.3 0.3 0
0.33333333 0.3 0
0.36666667 0.3 0
0.4 0.3 0
0.43333333 0.3 0
0.46666667 0.3 0
0.5 0.3 0
0.53333333 0.3 0
0.56666667 0.3 0
0.6 0.3 0
0.63333333 0.3 0
0.66666667 0.3 0
0.7 0.3 0
0.73333333 0.3 0
0.76666667 0.3 0
0.8 0.3 0
0.83333333 0.3 0
0.86666667 0.3 0
0.9 0.3 0
0.93333333 0.3 0
0.96666667 0.3 0
1 0.3 0
0 0.33333333 0
0.033333333 0.33333333 0
0.066666667 0.33333333 0
0.1 0.33333333 0
0.13333333 0.33333333 0
0.16666667 0.33333333 0
0.2 0.33333333 0
0.23333333 0.33333333 0
0.26666667 0.33333333 0
0.3 0.33333333 0
0.33333333 0.33333333 0
0.36666667 0.33333333 0
0.4 0.33333333 0
0.43333333 0.33333333 0
0.46666667 0.33333333 0
0.5 0.33333333 0
0.53333333 0.33333333 0
0.56666667 0.33333333 0
0.6 0.33333333 0
0.63333333 0.33333333 0
0.66666667 0.33333333 0
0.7 0.33333333 0
0.73333333 0.33333333 0
0.76666667 0.33333333 0
0.8 0.33333333 0
0.83333333 0.33333333 0
0.86666667 0.33333333 0
0.9 0.33333333 0
0.93333333 0.33333333 0
0.96666667 0.33333333 0
1 0.33333333 0
0 0.36666667 0
0.033333333 0.36666667 0
0.066666667 0.36666667 0
0.1 0.36666667 0
0.13333333 0.36666667 0
0.16666667 0.36666667 0
0.2 0.36666667 0
0.23333333 0.36666667 0
0.26666667 0.36666667 0
0.3 0.36666667 0
0.33333333 0.36666667 0
0.36666667 0.36666667 0
0.4 0.36666667 0
0.43333333 0.36666667 0
0.46666667 0.36666667 0
0.5 0.36666667 0
0.53333333 0.36666667 0
0.56666667 0.36666667 0
0.6 0.36666667 0
0.63333333 0.36666667 0
0.66666667 0.36666667 0
0.7 0.36666667 0
0.73333333 0.36666667 0
0.76666667 0.36666667 0
0.8 0.36666667 0
0.83333333 0.36666667 0
0.86666667 0.36666667 0
0.9 0.36666667 0
0.93333333 0.36666667 0
0.96666667 0.36666667 0
1 0.36666667 0
0 0.4 0
0.033333333 0.4 0
0.066666667 0.4 0
0.1 0.4 0
0.13333333 0.4 0
0.16666667 0.4 0
0.2 0.4 0
0.23333333 0.4 0
0.26666667 0.4 0
0.3 0.4 0
0.33333333 0.4 0
0.36666667 0.4 0
0.4 0.4 0
0.43333333 0.4 0
0.46666667 0.4 0
0.5 0.4 0
0.53333333 0.4 0
0.56666667 0.4 0
0.6 0.4 0
0.63333333 0.4 0
0.66666667 0.4 0
0.7 0.4 0
0.73333333 0.4 0
0.76666667 0.4 0
0.8 0.4 0
0.83333333 0.4 0
0.86666667 0.4 0
0.9 0.4 0
0.93333333 0.4 0
0.96666667 0.4 0
1 0.4 0
0 0.43333333 0
0.033333333 0.43333333 0
0.066666667 0.43333333 0
0.1 0.43333333 0
0.13333333 0.43333333 0
0.16666667 0.43333333 0
0.2 0.43333333 0
0.23333333 0.43333333 0
0.26666667 0.43333333 0
0.3 0.43333333 0
0.33333333 0.43333333 0
0.36666667 0.43333333 0
0.4 0.43333333 0
0.43333333 0.43333333 0
0.46666667 0.43333333 0
0.5 0.43333333 0
0.53333333 0.43333333 0
0.56666667 0.43333333 0
0.6 0.43333333 0
0.63333333 0.43333333 0
0.66666667 0.43333333 0
0.7 0.43333333 0
0.73333333 0.43333333 0
0.76666667 0.43333333 0
0.8 0.43333333 0
0.83333333 0.43333333 0
0.86666667 0.43333333 0
0.9 0.43333333 0
0.93333333 0.43333333 0
0.96666667 0.43333333 0
1 0.43333333 0
0 0.46666667 0
0.033333333 0.46666667 0
0.066666667 0.46666667 0
0.1 0.46666667 0
0.13333333 0.46666667 0
0.16666667 0.46666667 0
0.2 0.46666667 0
0.23333333 0.46666667 0
0.26666667 0.46666667 0
0.3 0.46666667 0
0.33333333 0.46666667 0
0.36666667 0.46666667 0
0.4 0.46666667 0
0.43333333 0.46666667 0
0.46666667 0.46666667 0
0.5 0.46666667 0
0.53333333 0.46666667 0
0.56666667 0.46666667 0
0.6 0.46666667 0
0.63333333 0.46666667 0
0.66666667 0.46666667 0
0.7 0.46666667 0
0.73333333 0.46666667 0
0.76666667 0.46666667 0
0.8 0.46666667 0
0.83333333 0.46666667 0
0.86666667 0.46666667 0
0.9 0.46666667 0
0.93333333 0.46666667 0
0.96666667 0.46666667 0
1 0.46666667 0
0 0.5 0
0.033333333 0.5 0
0.066666667 0.5 0
0.1 0.5 0
0.13333333 0.5 0
0.16666667 0.5 0
0.2 0.5 0
0.23333333 0.5 0
0.26666667 0.5 0
0.3 0.5 0
0.33333333 0.5 0
0.36666667 0.5 0
0.4 0.5 0
0.43333333 0.5 0
0.46666667 0.5 0
0.5 0.5 0
0.53333333 0.5 0
0.56666667 0.5 0
0.6 0.5 0
0.63333333 0.5 0
0.66666667 0.5 0
0.7 0.5 0
0.73333333 0.5 0
0.76666667 0.5 0
0.8 0.5 0
0.83333333 0.5 0
0.86666667 0.5 0
0.9 0.5 0
0.93333333 0.5 0
0.96666667 0.5 0
1 0.5 0
0 0.53333333 0
0.033333333 0.53333333 0
0.066666667 0.53333333 0
0.1 0.53333333 0
0.13333333 0.53333333 0
0.16666667 0.53333333 0
0.2 0.53333333 0
0.23333333 0.53333333 0
0.26666667 0.53333333 0
0.3 0.53333333 0
0.33333333 0.53333333 0
0.36666667 0.53333333 0
0.4 0.53333333 0
0.43333333 0.53333333 0
0.46666667 0.53333333 0
0.5 0.53333333 0
0.53333333 0.53333333 0
0.56666667 0.53333333 0
0.6 0.53333333 0
0.63333333 0.53333333 0
0.66666667 0.53333333 0
0.7 0.53333333 0
0.73333333 0.53333333 0
0.76666667 0.53333333 0
[...]
CELL_DATA 1920
Scalars  Label int 1
LOOKUP_TABLE FreeFempp_table
0
0
0
0
0
0
0
0
0
0
0
0
0
0
0
0
0
0
0
0
0
0
0
0
0
0
0
0
0
0
0
0
0
0
0
0
0
0
0
0
0
0
0
0
0
0
0
0
0
0
0
0
0
0
0
0
0
0
0
0
0
0
0
0
0
0
0
0
0
0
0
0
0
0
0
0
0
0
0
0
0
0
0
0
0
0
0
0
0
0
0
0
0
0
0
0
0
0
0
0
0
0
0
0
0
0
0
0
0
0
0
0
0
0
0
0
0
0
0
0
0
0
0
0
0
0
0
0
0
0
0
0
0
0
0
0
0
0
0
0
0
0
0
0
0
0
0
0
0
0
0
0
0
0
0
0
0
0
0
0
0
0
0
0
0
0
0
0
0
0
0
0
0
0
0
0
0
0
0
0
0
0
0
0
0
0
0
0
0
0
0
0
0
0
0
0
0
0
0
0
0
0
0
0
0
0
0
0
0
0
0
0
0
0
0
0
0
0
0
0
0
0
0
0
0
0
0
0
0
0
0
0
0
0
0
0
0
0
0
0
0
0
0
0
0
0
0
0
0
0
0
0
0
0
0
0
0
0
0
0
0
0
0
0
0
0
0
0
0
0
0
0
0
0
0
0
0
0
0
0
0
0
0
0
0
0
0
0
0
0
0
0
0
0
0
0
0
0
0
0
0
0
0
0
0
0
0
0
0
0
0
0
0
0
0
0
0
0
0
0
0
0
0
0
0
0
0
0
0
0
0
0
0
0
0
0
0
0
0
0
0
0
0
0
0
0
0
0
0
0
0
0
0
0
0
0
0
0
0
0
0
0
0
0
0
0
0
0
0
0
0
0
0
0
0
0
0
0
0
0
0
0
0
0
0
0
0
0
0
0
0
0
0
0
0
0
0
0
0
0
0
0
0
0
0
0
0
0
0
0
0
0
0
0
0
0
0
0
0
0
0
0
0
0
0
0
0
0
0
0
0
0
0
0
0
0
0
0
0
0
0
0
0
0
0
0
0
0
0
0
0
0
0
0
0
0
0
0
0
0
0
0
0
0
0
0
0
0
0
0
0
0
0
0
0
0
0
0
0
0
0
0
0
0
0
0
0
0
0
0
0
0
0
0
0
0
0
0
0
0
0
0
0
0
0
0
0
0
0
0
0
0
0
0
0
0
0
0
0
0
0
0
0
0
0
0
0
0
0
0
0
0
0
0
0
0
0
0
0
0
0
0
0
0
0
0
0
0
0
0
0
0
0
0
0
0
0
0
0
0
0
0
0
0
0
0
0
0
0
0
0
0
0
0
0
0
0
0
0
0
0
0
0
0
0
0
0
0
0
0
0
0
0
0
0
0
0
0
0
0
0
0
0
0
0
0
0
0
0
0
0
0
0
0
0
0
0
0
0
0
0
0
0
0
0
0
0
0
0
0
0
0
0
0
0
0
0
0
0
0
0
0
0
0
0
0
0
0
0
0
0
0
0
0
0
0
0
0
0
0
0
0
0
0
0
0
0
0
0
0
0
0
0
0
0
0
0
0
0
0
0
0
0
0
0
0
0
0
0
0
0
0
0
0
0
0
0
0
0
0
0
0
0
0
0
0
0
0
0
0
0
0
0
0
0
0
0
0
0
0
0
0
0
0
0
0
0
0
0
0
0
0
0
0
0
0
0
0
0
0
0
0
0
0
0
0
0
0
0
0
0
0
0
0
0
0
0
0
0
0
0
0
0
0
0
0
0
0
0
0
0
0
0
0
0
0
0
0
0
0
0
0
0
0
0
0
0
0
0
0
0
0
0
0
0
0
0
0
0
0
0
0
0
0
0
0
0
0
0
0
0
0
0
0
0
0
0
0
0
0
0
0
0
0
0
0
0
0
0
0
0
0
0
0
0
0
0
0
0
0
0
0
0
0
0
0
0
0
0
0
0
0
0
0
0
0
0
0
0
0
0
0
0
0
0
0
0
0
0
0
0
0
0
0
0
0
0
0
0
0
0
0
0
0
0
0
0
0
0
0
0
0
0
0
0
0
0
0
0
0
0
0
0
0
0
0
0
0
0
0
0
0
0
0
0
0
0
0
0
0
0
0
0
0
0
0
0
0
0
0
0
0
0
0
0
0
0
0
0
0
0
0
0
0
0
0
0
0
0
0
0
0
0
0
0
0
0
0
0
0
0
0
0
0
0
0
0
0
0
0
0
0
0
0
0
0
0
0
0
0
0
0
0
0
0
0
0
0
0
0
0
0
0
0
0
0
0
0
0
0
0
0
0
0
0
0
0
0
0
0
0
0
0
0
0
0
0
0
0
0
0
0
0
0
0
0
0
0
0
0
0
0
0
0
0
0
0
0
0
0
0
0
0
0
0
0
0
0
0
0
0
0
0
0
0
0
0
0
0
0
0
0
0
0
0
0
0
0
0
0
0
0
0
0
0
0
0
0
0
0
0
0
0
0
0
0
0
0
0
0
0
0
0
0
0
0
0
0
0
0
0
0
0
0
0
0
0
0
0
0
0
0
0
0
0
0
0
0
0
0
0
0
0
0
0
0
0
0
0
0
0
0
0
0
0
0
0
0
0
0
0
0
0
0
0
0
0
0
0
0
0
0
0
0
0
0
0
0
0
0
0
0
0
0
0
0
0
0
0
0
0
0
0
0
0
0
0
0
0
0
0
0
0
0
0
0
0
0
0
0
0
0
0
0
0
0
0
0
0
0
0
0
0
0
0
0
0
0
0
0
0
0
0
0
0
0
0
0
0
0
0
0
0
0
0
0
0
0
0
0
0
0
0
0
0
0
0
0
0
0
0
0
0
0
0
0
0
0
0
0
0
0
0
0
0
0
0
0
0
0
0
0
0
0
0
0
0
0
0
0
0
0
0
0
0
0
0
0
0
0
0
0
0
0
0
0
0
0
0
0
0
0
0
0
0
0
0
0
0
0
0
0
0
0
0
0
0
0
0
0
0
0
0
0
0
0
0
0
0
0
0
0
0
0
0
0
0
0
0
0
0
0
0
0
0
0
0
0
0
0
0
0
0
0
0
0
0
0
0
0
0
0
0
0
0
0
0
0
0
0
0
0
0
0
0
0
0
0
0
0
0
0
0
0
0
0
0
0
0
0
0
0
0
0
0
0
0
0
0
0
0
0
0
0
0
0
0
0
0
0
0
0
0
0
0
0
0
0
0
0
0
0
0
0
0
0
0
0
0
0
0
0
0
0
0
0
0
0
0
0
0
0
0
0
0
0
0
0
0
0
0
0
0
0
0
0
0
0
0
0
0
0
0
0
0
0
0
0
0
0
0
0
0
0
0
0
0
0
0
0
0
0
0
0
0
0
0
0
0
0
0
0
0
0
0
0
0
0
0
0
0
0
0
0
0
0
0
0
0
0
0
0
0
0
0
0
0
0
0
0
0
0
0
0
0
0
0
0
0
0
0
0
0
0
0
0
0
0
0
0
0
0
0
0
0
0
0
0
0
0
0
0
0
0
0
0
0
0
0
0
0
0
0
0
0
0
0
0
0
0
0
0
0
0
0
0
0
0
0
0
0
0
0
0
0
0
0
0
0
0
0
0
0
0
0
0
0
0
0
0
0
0
0
0
0
0
0
0
0
0
0
0
0
0
0
0
0
0
0
0
0
0
0
0
0
0
0
0
0
0
0
0
0
0
0
0
0
0
0
0
0
0
0
0
0
0
0
0
0
0
0
0
0
0
0
0
0
0
0
0
0
0
0
0
0
0
0
0
0
0
0
0
0
0
0
0
0
0
0
0
0
0
0
0
0
0
0
0
0
0
0
0
0
0
0
0
0
0
0
0
0
0
0
0
0
0
0
0
0
0
0
0
0
0
0
0
0
0
0
0
0
0
0
0
0
0
0
0
0
0
0
0
0
0
0
0
0
0
0
0
0
0
0
0
0
0
0
0
0
0
0
0
0
0
0
0
0
0
0
0
0
0
0
0
0
0
0
0
0
0
0
0
0
0
0
0
0
0
0
0
0
0
0
0
0
0
0
0
0
0
0
0
0
0
0
0
0
0
0
0
0
0
0
0
0
0
0
0
0
0
1
1
1
1
1
1
1
1
1
1
1
1
1
1
1
1
1
1
1
1
1
1
1
1
1
1
1
1
1
1
2
2
2
2
2
2
2
2
2
2
2
2
2
2
2
2
2
2
2
2
2
2
2
2
2
2
2
2
2
2
3
3
3
3
3
3
3
3
3
3
3
3
3
3
3
3
3
3
3
3
3
3
3
3
3
3
3
3
3
3
4
4
4
4
4
4
4
4
4
4
4
4
4
4
4
4
4
4
4
4
4
4
4
4
4
4
4
4
4
4

LOOKUP_TABLE FreeFempp_table 5
1.00000000 0.00000000 0.00000000 1.00000000
1.00000000 1.00000000 0.00000000 1.00000000
1.00000000 0.00000000 1.00000000 1.00000000
0.00000000 1.00000000 0.00000000 1.00000000
0.00000000 1.00000000 1.00000000 1.00000000

POINT_DATA 961
FIELD FieldData 1
Density 1 961 float
2.23682806e-01 2.06117094e-01 2.07862824e-01 2.08422080e-01 2.07570016e-01 2.06629544e-01 2.05907479e-01 2.05344617e-01 2.04831421e-01 2.04318196e-01 2.03806847e-01 2.03318343e-01 2.02875495e-01 2.02498019e-01 2.02201664e-01 2.01996312e-01 2.01880828e-01 2.01836050e-01 2.01820299e-01 2.01772302e-01 2.01624423e-01 2.01324373e-01 2.00853556e-01 2.00229123e-01 1.99485376e-01 1.98635846e-01 1.97611511e-01 1.96167707e-01 1.93886459e-01 1.91253260e-01 2.38039717e-01 2.06134811e-01 1.56276464e-01 1.48061141e-01 1.07879281e-01 9.94716585e-02 1.02583177e-01 1.12058207e-01 1.24641351e-01 1.37728438e-01 1.49490580e-01 1.58888772e-01 1.65529951e-01 1.69466406e-01 1.71021372e-01 1.70652717e-01 1.68857485e-01 1.66113243e-01 1.62840530e-01 1.59374878e-01 1.55946881e-01 1.52677029e-01 1.49600536e-01 1.46725148e-01 1.44079849e-01 1.41713619e-01 1.39665946e-01 1.37950748e-01 1.36557952e-01 1.35328174e-01 1.36124104e-01 1.40914410e-01 2.07438827e-01 1.48638859e-01 1.02132663e-01 1.17578007e-01 1.45256981e-01 1.69324979e-01 1.82049334e-01 1.83251500e-01 1.76260605e-01 1.65146887e-01 1.53023764e-01 1.41723230e-01 1.32084206e-01 1.24316812e-01 1.18303530e-01 1.13810219e-01 1.10606238e-01 1.08490072e-01 1.07249752e-01 1.06633440e-01 1.06389180e-01 1.06341593e-01 1.06426820e-01 1.06658272e-01 1.07060231e-01 1.07621275e-01 1.08287036e-01 1.08966812e-01 1.09497264e-01 1.11841127e-01 1.80416465e-01 2.07918331e-01 1.07763462e-01 1.16611272e-01 1.56351507e-01 1.80104584e-01 1.79798931e-01 1.66410267e-01 1.51067838e-01 1.38138682e-01 1.28799006e-01 1.22708000e-01 1.19174257e-01 1.17551751e-01 1.17311835e-01 1.18066341e-01 1.19565964e-01 1.21665932e-01 1.24275036e-01 1.27306268e-01 1.30643189e-01 1.34136826e-01 1.37639806e-01 1.41050473e-01 1.44321561e-01 1.47425309e-01 1.50317460e-01 1.52940363e-01 1.55261040e-01 1.57309741e-01 1.58564523e-01 2.42760241e-01 2.07667783e-01 9.84986946e-02 1.41855642e-01 1.79057479e-01 1.76058233e-01 1.56528741e-01 1.39072895e-01 1.28638506e-01 1.24047890e-01 1.23327017e-01 1.25101492e-01 1.28606439e-01 1.33405939e-01 1.39205471e-01 1.45775661e-01 1.52929023e-01 1.60500675e-01 1.68326899e-01 1.76238641e-01 1.84079990e-01 1.91738963e-01 1.99154943e-01 2.06274986e-01 2.12995037e-01 2.19153181e-01 2.24578530e-01 2.29145110e-01 2.32796133e-01 2.35540867e-01 2.37111270e-01 3.26669872e-01 2.07250237e-01 1.00233622e-01 1.63810506e-01 1.79142848e-01 1.56966701e-01 1.36199936e-01 1.26154304e-01 1.24205522e-01 1.27146468e-01 1.33059427e-01 1.40920177e-01 1.50246456e-01 1.60777867e-01 1.72278598e-01 1.84495166e-01 1.97170526e-01 2.10054293e-01 2.22901136e-01 2.35468015e-01 2.47522309e-01 2.58863300e-01 2.69342452e-01 2.78865308e-01 2.87375033e-01 2.94832110e-01 3.01203936e-01 3.06463987e-01 3.10593367e-01 3.13579291e-01 3.15307111e-01 4.07390594e-01 2.06698254e-01 1.07277609e-01 1.76544338e-01 1.67738095e-01 1.40167996e-01 1.26041099e-01 1.23973534e-01 1.28842652e-01 1.37739912e-01 1.49312958e-01 1.62847847e-01 1.77841514e-01 1.93892553e-01 2.10658908e-01 2.27825895e-01 2.45086402e-01 2.62136757e-01 2.78691113e-01 2.94505715e-01 3.09394032e-01 3.23224723e-01 3.35908800e-01 3.47385645e-01 3.57611030e-01 3.66549194e-01 3.74169081e-01 3.80444378e-01 3.85353714e-01 3.88879478e-01 3.90954196e-01 4.83912975e-01 2.06098020e-01 1.16478980e-01 1.80403516e-01 1.54728636e-01 1.29685909e-01 1.22962609e-01 1.27355292e-01 1.37779996e-01 1.52034223e-01 1.68994159e-01 1.87856212e-01 2.07988888e-01 2.28896201e-01 2.50177234e-01 2.71481901e-01 2.92484343e-01 3.12884092e-01 3.32424492e-01 3.50906849e-01 3.68188530e-01 3.84169757e-01 3.98779094e-01 4.11963493e-01 4.23681855e-01 4.33901131e-01 4.42594111e-01 4.49738324e-01 4.55315471e-01 4.59310561e-01 4.61679310e-01 5.54248810e-01 2.05601528e-01 1.25950903e-01 1.78232402e-01 1.43706292e-01 1.24168873e-01 1.23838991e-01 1.33517504e-01 1.48902953e-01 1.68144360e-01 1.90019146e-01 2.13591471e-01 2.38156959e-01 2.63184130e-01 2.88250238e-01 3.12992573e-01 3.37088555e-01 3.60260904e-01 3.82288247e-01 4.03006107e-01 4.22296613e-01 4.40074861e-01 4.56278145e-01 4.70859289e-01 4.83782887e-01 4.95022684e-01 5.04559338e-01 5.12378752e-01 5.18470287e-01 5.22825837e-01 5.25414705e-01 6.16442025e-01 2.05254465e-01 1.34657875e-01 1.73076183e-01 1.35457113e-01 1.21772379e-01 1.26726255e-01 1.40958697e-01 1.60853967e-01 1.84558749e-01 2.10707843e-01 2.38292918e-01 2.66586274e-01 2.95048207e-01 3.23249876e-01 3.50828379e-01 3.77473325e-01 4.02930617e-01 4.27004546e-01 4.49551195e-01 4.70466375e-01 4.89674419e-01 5.07120430e-01 5.22765815e-01 5.36585331e-01 5.48564672e-01 5.58697820e-01 5.66984117e-01 5.73425114e-01 5.78022361e-01 5.80755353e-01 6.68951392e-01 2.05019459e-01 1.42107993e-01 1.67212442e-01 1.29695550e-01 1.21179938e-01 1.30459696e-01 1.48671180e-01 1.72533959e-01 2.00062394e-01 2.29798153e-01 2.60710567e-01 2.92072982e-01 3.23346823e-01 3.54102910e-01 3.83982986e-01 4.12689507e-01 4.39985394e-01 4.65690494e-01 4.89672065e-01 5.11834145e-01 5.32108843e-01 5.50451577e-01 5.66837013e-01 5.81256807e-01 5.93715429e-01 6.04225814e-01 6.12804055e-01 6.19464099e-01 6.24214530e-01 6.27038121e-01 7.11040080e-01 2.04846919e-01 1.48159191e-01 1.61907598e-01 1.25851363e-01 1.21546119e-01 1.34315342e-01 1.55898005e-01 1.83081701e-01 2.13744327e-01 2.46383131e-01 2.79970497e-01 3.13788384e-01 3.47301364e-01 3.80081505e-01 4.11775678e-01 4.42095935e-01 4.70815688e-01 4.97762829e-01 5.22810638e-01 5.45869589e-01 5.66882193e-01 5.85820079e-01 6.02680802e-01 6.17482722e-01 6.30256772e-01 6.41035199e-01 6.49842203e-01 6.56688273e-01 6.61573231e-01 6.64474130e-01 7.43584812e-01 2.04703316e-01 1.52878374e-01 1.57667473e-01 1.23393483e-01 1.22311555e-01 1.37793332e-01 1.62065625e-01 1.91859171e-01 2.24952325e-01 2.59826899e-01 2.95466304e-01 3.31161201e-01 3.66378337e-01 4.00690794e-01 4.33749080e-01 4.65271086e-01 4.95035410e-01 5.22873700e-01 5.48663378e-01 5.72323501e-01 5.93813181e-01 6.13130987e-01 6.30309761e-01 6.45400763e-01 6.58444881e-01 6.69437230e-01 6.78311706e-01 6.84984088e-01 6.89456403e-01 6.91898346e-01 7.67129123e-01 2.04568520e-01 1.56421199e-01 1.54632851e-01 1.21909827e-01 1.23094052e-01 1.40522495e-01 1.66747287e-01 1.98412433e-01 2.33234793e-01 2.69694239e-01 3.06785017e-01 3.43803972e-01 3.80218714e-01 4.15602565e-01 4.49607849e-01 4.81955171e-01 5.12425244e-01 5.40851533e-01 5.67116201e-01 5.91149986e-01 6.12935483e-01 6.32506311e-01 6.49929106e-01 6.65244699e-01 6.78343356e-01 6.88779771e-01 6.95641935e-01 6.97786868e-01 6.94929242e-01 6.89468622e-01 7.59207606e-01 2.04430312e-01 1.58937216e-01 1.52834937e-01 1.21116795e-01 1.23638213e-01 1.42235428e-01 1.69643775e-01 2.02435583e-01 2.38294005e-01 2.75700897e-01 3.13658267e-01 3.51466477e-01 3.88593376e-01 4.24611747e-01 4.59174514e-01 4.92003173e-01 5.22879124e-01 5.51637113e-01 5.78163922e-01 6.02402091e-01 6.24356151e-01 6.44087791e-01 6.61667407e-01 6.77012026e-01 6.89484954e-01 6.97072983e-01 6.94908202e-01 6.72839046e-01 6.13204956e-01 5.97159088e-01 6.67921126e-01 2.04282314e-01 1.60505965e-01 1.52281344e-01 1.20848738e-01 1.23794138e-01 1.42766163e-01 1.70573354e-01 2.03747630e-01 2.39956632e-01 2.77683109e-01 3.15932482e-01 3.54006886e-01 3.91374081e-01 4.27606255e-01 4.62356210e-01 4.95345592e-01 5.26355982e-01 5.55222869e-01 5.81834972e-01 6.06139958e-01 6.28151417e-01 6.47940695e-01 6.65567875e-01 6.80847108e-01 6.92724884e-01 6.97799027e-01 6.86644793e-01 6.32041514e-01 5.97184122e-01 5.97154319e-01 6.67915165e-01 2.04122528e-01 1.61101371e-01 1.52972803e-01 1.21045180e-01 1.23507097e-01 1.42049953e-01 1.69465363e-01 2.02279672e-01 2.38158211e-01 2.75581151e-01 3.13552767e-01 3.51375341e-01 3.88516635e-01 4.24548417e-01 4.59122837e-01 4.91961271e-01 5.22845447e-01 5.51610529e-01 5.78143358e-01 6.02386475e-01 6.24344647e-01 6.44079626e-01 6.61662042e-01 6.77009344e-01 6.89485490e-01 6.97078049e-01 6.94915295e-01 6.72841311e-01 6.13203466e-01 5.97156107e-01 6.67914331e-01 2.03950733e-01 1.60580277e-01 1.54900834e-01 1.21744268e-01 1.22812726e-01 1.40122265e-01 1.66356727e-01 1.98069692e-01 2.32937351e-01 2.69433767e-01 3.06557268e-01 3.43608409e-01 3.80055070e-01 4.15468365e-01 4.49499011e-01 4.81867403e-01 5.12355030e-01 5.40796161e-01 5.67073345e-01 5.91117620e-01 6.12911582e-01 6.32489145e-01 6.49917305e-01 6.65237367e-01 6.78340018e-01 6.88779891e-01 6.95642292e-01 6.97783709e-01 6.94925547e-01 6.89464092e-01 7.59202540e-01 2.03764647e-01 1.58694848e-01 1.58037156e-01 1.23085812e-01 1.21837825e-01 1.37118906e-01 1.61393031e-01 1.91264674e-01 2.24438593e-01 2.59381473e-01 2.95080870e-01 3.30833167e-01 3.66106063e-01 4.00469601e-01 4.33571488e-01 4.65129167e-01 4.94922578e-01 5.22784948e-01 5.48594832e-01 5.72271526e-01 5.93774617e-01 6.13102973e-01 6.30289793e-01 6.45386875e-01 6.58435166e-01 6.69429541e-01 6.78303123e-01 6.84971690e-01 6.89444065e-01 6.91890001e-01 7.67132938e-01 2.03561112e-01 1.55132964e-01 1.62323281e-01 1.25324488e-01 1.20808981e-01 1.33279487e-01 1.54835403e-01 1.82130992e-01 2.12924376e-01 2.45679334e-01 2.79368609e-01 3.13281268e-01 3.46884221e-01 3.79746199e-01 4.11509782e-01 4.41886008e-01 4.70650285e-01 4.97633398e-01 5.22710621e-01 5.45793593e-01 5.66825569e-01 5.85778475e-01 6.02650583e-01 6.17460668e-01 6.30239904e-01 6.41020715e-01 6.49827302e-01 6.56671762e-01 6.61557138e-01 6.64463580e-01 7.43591607e-01 2.03355595e-01 1.49594486e-01 1.67625725e-01 1.28847703e-01 1.20076329e-01 1.28958374e-01 1.47075623e-01 1.71075910e-01 1.98799640e-01 2.28722200e-01 2.59800941e-01 2.91314304e-01 3.22728008e-01 3.53610426e-01 3.83597642e-01 4.12389696e-01 4.39752102e-01 4.65509295e-01 4.89532471e-01 5.11727989e-01 5.32029450e-01 5.50393105e-01 5.66794395e-01 5.81225574e-01 5.93691587e-01 6.04205847e-01 6.12785339e-01 6.19445741e-01 6.24198079e-01 6.27027631e-01 7.11048186e-01 2.03205407e-01 1.41915366e-01 1.73493281e-01 1.34177923e-01 1.20172061e-01 1.24657139e-01 1.38665482e-01 1.58685237e-01 1.82654172e-01 2.09087610e-01 2.36935809e-01 2.65465021e-01 2.94139773e-01 3.22531849e-01 3.50272894e-01 3.77048045e-01 4.02605116e-01 4.26754951e-01 4.49360371e-01 4.70321983e-01 4.89566922e-01 5.07041991e-01 5.22709548e-01 5.36545277e-01 5.48535407e-01 5.58675051e-01 5.66964805e-01 5.73408306e-01 5.78009009e-01 5.80747664e-01 6.68962002e-01 2.03160316e-01 1.32234916e-01 1.78681031e-01 1.41911089e-01 1.21932194e-01 1.21111408e-01 1.30373031e-01 1.45782843e-01 1.65329292e-01 1.87604174e-01 2.11575300e-01 2.36502364e-01 2.61849135e-01 2.87196845e-01 3.12181830e-01 3.36476117e-01 3.59801352e-01 3.81943107e-01 4.02747005e-01 4.22103792e-01 4.39934134e-01 4.56178427e-01 4.70791250e-01 4.83738095e-01 4.94993687e-01 5.04540265e-01 5.12365699e-01 5.18461704e-01 5.22822320e-01 5.25415301e-01 6.16459250e-01 2.03098252e-01 1.21146269e-01 1.80946350e-01 1.52461529e-01 1.26673922e-01 1.19485997e-01 1.23294041e-01 1.33517519e-01 1.48013502e-01 1.65456012e-01 1.84873268e-01 2.05540344e-01 2.26922721e-01 2.48614386e-01 2.70272195e-01 2.91572332e-01 3.12211275e-01 3.31934333e-01 3.50552708e-01 3.67936313e-01 3.83995503e-01 3.98665309e-01 4.11895841e-01 4.23647583e-01 4.33889210e-01 4.42595929e-01 4.49748337e-01 4.55331147e-01 4.59332466e-01 4.61701065e-01 5.54283738e-01 2.02609465e-01 1.09745063e-01 1.77219361e-01 1.65209651e-01 1.36256203e-01 1.21732295e-01 1.19100362e-01 1.23505928e-01 1.32373437e-01 1.44339651e-01 1.58516303e-01 1.74234509e-01 1.90973744e-01 2.08334029e-01 2.25999385e-01 2.43685797e-01 2.61103153e-01 2.77962714e-01 2.94016331e-01 3.09083164e-01 3.23045015e-01 3.35825622e-01 3.47372085e-01 3.57644647e-01 3.66611511e-01 3.74246597e-01 3.80528510e-01 3.85440320e-01 3.88969511e-01 3.91034096e-01 4.83999878e-01 2.01311290e-01 9.97709334e-02 1.64100707e-01 1.76026732e-01 1.52252153e-01 1.31053314e-01 1.20668106e-01 1.18242554e-01 1.20825589e-01 1.26739144e-01 1.35060638e-01 1.45175204e-01 1.56593844e-01 1.68916523e-01 1.81833208e-01 1.95108429e-01 2.08535597e-01 2.21886352e-01 2.34898031e-01 2.47310445e-01 2.58914530e-01 2.69572288e-01 2.79205471e-01 2.87772238e-01 2.95247614e-01 3.01612496e-01 3.06850761e-01 3.10951352e-01 3.13910365e-01 3.15591216e-01 4.07664388e-01 1.99599519e-01 9.42879692e-02 1.40811950e-01 1.74293786e-01 1.70746341e-01 1.50979459e-01 1.33425713e-01 1.22647561e-01 1.17646821e-01 1.16722248e-01 1.18660979e-01 1.22686662e-01 1.28254563e-01 1.34942263e-01 1.42422453e-01 1.50462314e-01 1.58909813e-01 1.67656183e-01 1.76586241e-01 1.85538307e-01 1.94293708e-01 2.02605262e-01 2.10251898e-01 2.17082784e-01 2.23022133e-01 2.28044674e-01 2.32149646e-01 2.35347688e-01 2.37670451e-01 2.38883585e-01 3.28062445e-01 1.98675007e-01 9.91979167e-02 1.14307567e-01 1.49335831e-01 1.71784744e-01 1.73075899e-01 1.61358729e-01 1.46187156e-01 1.33020967e-01 1.23524956e-01 1.17515311e-01 1.14319690e-01 1.13276437e-01 1.13840170e-01 1.15581550e-01 1.18174851e-01 1.21381834e-01 1.25029922e-01 1.28995687e-01 1.33199990e-01 1.37595087e-01 1.42127156e-01 1.46701634e-01 1.51181147e-01 1.55403435e-01 1.59201369e-01 1.62429214e-01 1.64991468e-01 1.66873574e-01 1.67697564e-01 2.49722630e-01 1.99267864e-01 1.35364607e-01 9.82421935e-02 1.11556903e-01 1.34406909e-01 1.57083318e-01 1.72228113e-01 1.76600739e-01 1.71773359e-01 1.61855936e-01 1.50568813e-01 1.40202314e-01 1.31717280e-01 1.25204325e-01 1.20364226e-01 1.16840422e-01 1.14361554e-01 1.12739913e-01 1.11814171e-01 1.11423656e-01 1.11437626e-01 1.11780658e-01 1.12407796e-01 1.13265388e-01 1.14281185e-01 1.15375251e-01 1.16469160e-01 1.17489263e-01 1.18337438e-01 1.18554831e-01 1.81959301e-01 2.01655939e-01 1.48057327e-01 1.42837644e-01 1.05811454e-01 9.73516479e-02 9.95336920e-02 1.07913777e-01 1.20283298e-01 1.34011880e-01 1.46956295e-01 1.57803059e-01 1.65996656e-01 1.71526611e-01 1.74682200e-01 1.75871596e-01 1.75525263e-01 1.74052745e-01 1.71821252e-01 1.69140533e-01 1.66253373e-01 1.63338393e-01 1.60521299e-01 1.57885641e-01 1.55485645e-01 1.53367430e-01 1.51584610e-01 1.50189877e-01 1.49208844e-01 1.48629725e-01 1.48239806e-01 1.47589371e-01 2.43711606e-01 2.02978030e-01 2.06511304e-01 2.08695680e-01 2.09610999e-01 2.08668038e-01 2.07410172e-01 2.06656024e-01 2.06567660e-01 2.06809580e-01 2.07075641e-01 2.07253501e-01 2.07341537e-01 2.07364783e-01 2.07339779e-01 2.07270578e-01 2.07154229e-01 2.06984594e-01 2.06753418e-01 2.06452265e-01 2.06077114e-01 2.05632627e-01 2.05133379e-01 2.04602897e-01 2.04071179e-01 2.03569025e-01 2.03119308e-01 2.02727124e-01 2.02370107e-01 2.02151030e-01 2.22411260e-01 
