# vtk DataFile Version 2.0
results_case1_non_linear/iter5.vtk, Created by Freefem++ 
ASCII
DATASET UNSTRUCTURED_GRID
POINTS 961 float
0 0 0
0.033333333 0 0
0.066666667 0 0
0.1 0 0
0.13333333 0 0
0.16666667 0 0
0.2 0 0
0.23333333 0 0
0.26666667 0 0
0.3 0 0
0.33333333 0 0
0.36666667 0 0
0.4 0 0
0.43333333 0 0
0.46666667 0 0
0.5 0 0
0.53333333 0 0
0.56666667 0 0
0.6 0 0
0.63333333 0 0
0.66666667 0 0
0.7 0 0
0.73333333 0 0
0.76666667 0 0
0.8 0 0
0.83333333 0 0
0.86666667 0 0
0.9 0 0
0.93333333 0 0
0.96666667 0 0
1 0 0
0 0.033333333 0
0.033333333 0.033333333 0
0.066666667 0.033333333 0
0.1 0.033333333 0
0.13333333 0.033333333 0
0.16666667 0.033333333 0
0.2 0.033333333 0
0.23333333 0.033333333 0
0.26666667 0.033333333 0
0.3 0.033333333 0
0.33333333 0.033333333 0
0.36666667 0.033333333 0
0.4 0.033333333 0
0.43333333 0.033333333 0
0.46666667 0.033333333 0
0.5 0.033333333 0
0.53333333 0.033333333 0
0.56666667 0.033333333 0
0.6 0.033333333 0
0.63333333 0.033333333 0
0.66666667 0.033333333 0
0.7 0.033333333 0
0.73333333 0.033333333 0
0.76666667 0.033333333 0
0.8 0.033333333 0
0.83333333 0.033333333 0
0.86666667 0.033333333 0
0.9 0.033333333 0
0.93333333 0.033333333 0
0.96666667 0.033333333 0
1 0.033333333 0
0 0.066666667 0
0.033333333 0.066666667 0
0.066666667 0.066666667 0
0.1 0.066666667 0
0.13333333 0.066666667 0
0.16666667 0.066666667 0
0.2 0.066666667 0
0.23333333 0.066666667 0
0.26666667 0.066666667 0
0.3 0.066666667 0
0.33333333 0.066666667 0
0.36666667 0.066666667 0
0.4 0.066666667 0
0.43333333 0.066666667 0
0.46666667 0.066666667 0
0.5 0.066666667 0
0.53333333 0.066666667 0
0.56666667 0.066666667 0
0.6 0.066666667 0
0.63333333 0.066666667 0
0.66666667 0.066666667 0
0.7 0.066666667 0
0.73333333 0.066666667 0
0.76666667 0.066666667 0
0.8 0.066666667 0
0.83333333 0.066666667 0
0.86666667 0.066666667 0
0.9 0.066666667 0
0.93333333 0.066666667 0
0.96666667 0.066666667 0
1 0.066666667 0
0 0.1 0
0.033333333 0.1 0
0.066666667 0.1 0
0.1 0.1 0
0.13333333 0.1 0
0.16666667 0.1 0
0.2 0.1 0
0.23333333 0.1 0
0.26666667 0.1 0
0.3 0.1 0
0.33333333 0.1 0
0.36666667 0.1 0
0.4 0.1 0
0.43333333 0.1 0
0.46666667 0.1 0
0.5 0.1 0
0.53333333 0.1 0
0.56666667 0.1 0
0.6 0.1 0
0.63333333 0.1 0
0.66666667 0.1 0
0.7 0.1 0
0.73333333 0.1 0
0.76666667 0.1 0
0.8 0.1 0
0.83333333 0.1 0
0.86666667 0.1 0
0.9 0.1 0
0.93333333 0.1 0
0.96666667 0.1 0
1 0.1 0
0 0.13333333 0
0.033333333 0.13333333 0
0.066666667 0.13333333 0
0.1 0.13333333 0
0.13333333 0.13333333 0
0.16666667 0.13333333 0
0.2 0.13333333 0
0.23333333 0.13333333 0
0.26666667 0.13333333 0
0.3 0.13333333 0
0.33333333 0.13333333 0
0.36666667 0.13333333 0
0.4 0.13333333 0
0.43333333 0.13333333 0
0.46666667 0.13333333 0
0.5 0.13333333 0
0.53333333 0.13333333 0
0.56666667 0.13333333 0
0.6 0.13333333 0
0.63333333 0.13333333 0
0.66666667 0.13333333 0
0.7 0.13333333 0
0.73333333 0.13333333 0
0.76666667 0.13333333 0
0.8 0.13333333 0
0.83333333 0.13333333 0
0.86666667 0.13333333 0
0.9 0.13333333 0
0.93333333 0.13333333 0
0.96666667 0.13333333 0
1 0.13333333 0
0 0.16666667 0
0.033333333 0.16666667 0
0.066666667 0.16666667 0
0.1 0.16666667 0
0.13333333 0.16666667 0
0.16666667 0.16666667 0
0.2 0.16666667 0
0.23333333 0.16666667 0
0.26666667 0.16666667 0
0.3 0.16666667 0
0.33333333 0.16666667 0
0.36666667 0.16666667 0
0.4 0.16666667 0
0.43333333 0.16666667 0
0.46666667 0.16666667 0
0.5 0.16666667 0
0.53333333 0.16666667 0
0.56666667 0.16666667 0
0.6 0.16666667 0
0.63333333 0.16666667 0
0.66666667 0.16666667 0
0.7 0.16666667 0
0.73333333 0.16666667 0
0.76666667 0.16666667 0
0.8 0.16666667 0
0.83333333 0.16666667 0
0.86666667 0.16666667 0
0.9 0.16666667 0
0.93333333 0.16666667 0
0.96666667 0.16666667 0
1 0.16666667 0
0 0.2 0
0.033333333 0.2 0
0.066666667 0.2 0
0.1 0.2 0
0.13333333 0.2 0
0.16666667 0.2 0
0.2 0.2 0
0.23333333 0.2 0
0.26666667 0.2 0
0.3 0.2 0
0.33333333 0.2 0
0.36666667 0.2 0
0.4 0.2 0
0.43333333 0.2 0
0.46666667 0.2 0
0.5 0.2 0
0.53333333 0.2 0
0.56666667 0.2 0
0.6 0.2 0
0.63333333 0.2 0
0.66666667 0.2 0
0.7 0.2 0
0.73333333 0.2 0
0.76666667 0.2 0
0.8 0.2 0
0.83333333 0.2 0
0.86666667 0.2 0
0.9 0.2 0
0.93333333 0.2 0
0.96666667 0.2 0
1 0.2 0
0 0.23333333 0
0.033333333 0.23333333 0
0.066666667 0.23333333 0
0.1 0.23333333 0
0.13333333 0.23333333 0
0.16666667 0.23333333 0
0.2 0.23333333 0
0.23333333 0.23333333 0
0.26666667 0.23333333 0
0.3 0.23333333 0
0.33333333 0.23333333 0
0.36666667 0.23333333 0
0.4 0.23333333 0
0.43333333 0.23333333 0
0.46666667 0.23333333 0
0.5 0.23333333 0
0.53333333 0.23333333 0
0.56666667 0.23333333 0
0.6 0.23333333 0
0.63333333 0.23333333 0
0.66666667 0.23333333 0
0.7 0.23333333 0
0.73333333 0.23333333 0
0.76666667 0.23333333 0
0.8 0.23333333 0
0.83333333 0.23333333 0
0.86666667 0.23333333 0
0.9 0.23333333 0
0.93333333 0.23333333 0
0.96666667 0.23333333 0
1 0.23333333 0
0 0.26666667 0
0.033333333 0.26666667 0
0.066666667 0.26666667 0
0.1 0.26666667 0
0.13333333 0.26666667 0
0.16666667 0.26666667 0
0.2 0.26666667 0
0.23333333 0.26666667 0
0.26666667 0.26666667 0
0.3 0.26666667 0
0.33333333 0.26666667 0
0.36666667 0.26666667 0
0.4 0.26666667 0
0.43333333 0.26666667 0
0.46666667 0.26666667 0
0.5 0.26666667 0
0.53333333 0.26666667 0
0.56666667 0.26666667 0
0.6 0.26666667 0
0.63333333 0.26666667 0
0.66666667 0.26666667 0
0.7 0.26666667 0
0.73333333 0.26666667 0
0.76666667 0.26666667 0
0.8 0.26666667 0
0.83333333 0.26666667 0
0.86666667 0.26666667 0
0.9 0.26666667 0
0.93333333 0.26666667 0
0.96666667 0.26666667 0
1 0.26666667 0
0 0.3 0
0.033333333 0.3 0
0.066666667 0.3 0
0.1 0.3 0
0.13333333 0.3 0
0.16666667 0.3 0
0.2 0.3 0
0.23333333 0.3 0
0.26666667 0.3 0
0.3 0.3 0
0.33333333 0.3 0
0.36666667 0.3 0
0.4 0.3 0
0.43333333 0.3 0
0.46666667 0.3 0
0.5 0.3 0
0.53333333 0.3 0
0.56666667 0.3 0
0.6 0.3 0
0.63333333 0.3 0
0.66666667 0.3 0
0.7 0.3 0
0.73333333 0.3 0
0.76666667 0.3 0
0.8 0.3 0
0.83333333 0.3 0
0.86666667 0.3 0
0.9 0.3 0
0.93333333 0.3 0
0.96666667 0.3 0
1 0.3 0
0 0.33333333 0
0.033333333 0.33333333 0
0.066666667 0.33333333 0
0.1 0.33333333 0
0.13333333 0.33333333 0
0.16666667 0.33333333 0
0.2 0.33333333 0
0.23333333 0.33333333 0
0.26666667 0.33333333 0
0.3 0.33333333 0
0.33333333 0.33333333 0
0.36666667 0.33333333 0
0.4 0.33333333 0
0.43333333 0.33333333 0
0.46666667 0.33333333 0
0.5 0.33333333 0
0.53333333 0.33333333 0
0.56666667 0.33333333 0
0.6 0.33333333 0
0.63333333 0.33333333 0
0.66666667 0.33333333 0
0.7 0.33333333 0
0.73333333 0.33333333 0
0.76666667 0.33333333 0
0.8 0.33333333 0
0.83333333 0.33333333 0
0.86666667 0.33333333 0
0.9 0.33333333 0
0.93333333 0.33333333 0
0.96666667 0.33333333 0
1 0.33333333 0
0 0.36666667 0
0.033333333 0.36666667 0
0.066666667 0.36666667 0
0.1 0.36666667 0
0.13333333 0.36666667 0
0.16666667 0.36666667 0
0.2 0.36666667 0
0.23333333 0.36666667 0
0.26666667 0.36666667 0
0.3 0.36666667 0
0.33333333 0.36666667 0
0.36666667 0.36666667 0
0.4 0.36666667 0
0.43333333 0.36666667 0
0.46666667 0.36666667 0
0.5 0.36666667 0
0.53333333 0.36666667 0
0.56666667 0.36666667 0
0.6 0.36666667 0
0.63333333 0.36666667 0
0.66666667 0.36666667 0
0.7 0.36666667 0
0.73333333 0.36666667 0
0.76666667 0.36666667 0
0.8 0.36666667 0
0.83333333 0.36666667 0
0.86666667 0.36666667 0
0.9 0.36666667 0
0.93333333 0.36666667 0
0.96666667 0.36666667 0
1 0.36666667 0
0 0.4 0
0.033333333 0.4 0
0.066666667 0.4 0
0.1 0.4 0
0.13333333 0.4 0
0.16666667 0.4 0
0.2 0.4 0
0.23333333 0.4 0
0.26666667 0.4 0
0.3 0.4 0
0.33333333 0.4 0
0.36666667 0.4 0
0.4 0.4 0
0.43333333 0.4 0
0.46666667 0.4 0
0.5 0.4 0
0.53333333 0.4 0
0.56666667 0.4 0
0.6 0.4 0
0.63333333 0.4 0
0.66666667 0.4 0
0.7 0.4 0
0.73333333 0.4 0
0.76666667 0.4 0
0.8 0.4 0
0.83333333 0.4 0
0.86666667 0.4 0
0.9 0.4 0
0.93333333 0.4 0
0.96666667 0.4 0
1 0.4 0
0 0.43333333 0
0.033333333 0.43333333 0
0.066666667 0.43333333 0
0.1 0.43333333 0
0.13333333 0.43333333 0
0.16666667 0.43333333 0
0.2 0.43333333 0
0.23333333 0.43333333 0
0.26666667 0.43333333 0
0.3 0.43333333 0
0.33333333 0.43333333 0
0.36666667 0.43333333 0
0.4 0.43333333 0
0.43333333 0.43333333 0
0.46666667 0.43333333 0
0.5 0.43333333 0
0.53333333 0.43333333 0
0.56666667 0.43333333 0
0.6 0.43333333 0
0.63333333 0.43333333 0
0.66666667 0.43333333 0
0.7 0.43333333 0
0.73333333 0.43333333 0
0.76666667 0.43333333 0
0.8 0.43333333 0
0.83333333 0.43333333 0
0.86666667 0.43333333 0
0.9 0.43333333 0
0.93333333 0.43333333 0
0.96666667 0.43333333 0
1 0.43333333 0
0 0.46666667 0
0.033333333 0.46666667 0
0.066666667 0.46666667 0
0.1 0.46666667 0
0.13333333 0.46666667 0
0.16666667 0.46666667 0
0.2 0.46666667 0
0.23333333 0.46666667 0
0.26666667 0.46666667 0
0.3 0.46666667 0
0.33333333 0.46666667 0
0.36666667 0.46666667 0
0.4 0.46666667 0
0.43333333 0.46666667 0
0.46666667 0.46666667 0
0.5 0.46666667 0
0.53333333 0.46666667 0
0.56666667 0.46666667 0
0.6 0.46666667 0
0.63333333 0.46666667 0
0.66666667 0.46666667 0
0.7 0.46666667 0
0.73333333 0.46666667 0
0.76666667 0.46666667 0
0.8 0.46666667 0
0.83333333 0.46666667 0
0.86666667 0.46666667 0
0.9 0.46666667 0
0.93333333 0.46666667 0
0.96666667 0.46666667 0
1 0.46666667 0
0 0.5 0
0.033333333 0.5 0
0.066666667 0.5 0
0.1 0.5 0
0.13333333 0.5 0
0.16666667 0.5 0
0.2 0.5 0
0.23333333 0.5 0
0.26666667 0.5 0
0.3 0.5 0
0.33333333 0.5 0
0.36666667 0.5 0
0.4 0.5 0
0.43333333 0.5 0
0.46666667 0.5 0
0.5 0.5 0
0.53333333 0.5 0
0.56666667 0.5 0
0.6 0.5 0
0.63333333 0.5 0
0.66666667 0.5 0
0.7 0.5 0
0.73333333 0.5 0
0.76666667 0.5 0
0.8 0.5 0
0.83333333 0.5 0
0.86666667 0.5 0
0.9 0.5 0
0.93333333 0.5 0
0.96666667 0.5 0
1 0.5 0
0 0.53333333 0
0.033333333 0.53333333 0
0.066666667 0.53333333 0
0.1 0.53333333 0
0.13333333 0.53333333 0
0.16666667 0.53333333 0
0.2 0.53333333 0
0.23333333 0.53333333 0
0.26666667 0.53333333 0
0.3 0.53333333 0
0.33333333 0.53333333 0
0.36666667 0.53333333 0
0.4 0.53333333 0
0.43333333 0.53333333 0
0.46666667 0.53333333 0
0.5 0.53333333 0
0.53333333 0.53333333 0
0.56666667 0.53333333 0
0.6 0.53333333 0
0.63333333 0.53333333 0
0.66666667 0.53333333 0
0.7 0.53333333 0
0.73333333 0.53333333 0
0.76666667 0.53333333 0
[...]
CELL_DATA 1920
Scalars  Label int 1
LOOKUP_TABLE FreeFempp_table
0
0
0
0
0
0
0
0
0
0
0
0
0
0
0
0
0
0
0
0
0
0
0
0
0
0
0
0
0
0
0
0
0
0
0
0
0
0
0
0
0
0
0
0
0
0
0
0
0
0
0
0
0
0
0
0
0
0
0
0
0
0
0
0
0
0
0
0
0
0
0
0
0
0
0
0
0
0
0
0
0
0
0
0
0
0
0
0
0
0
0
0
0
0
0
0
0
0
0
0
0
0
0
0
0
0
0
0
0
0
0
0
0
0
0
0
0
0
0
0
0
0
0
0
0
0
0
0
0
0
0
0
0
0
0
0
0
0
0
0
0
0
0
0
0
0
0
0
0
0
0
0
0
0
0
0
0
0
0
0
0
0
0
0
0
0
0
0
0
0
0
0
0
0
0
0
0
0
0
0
0
0
0
0
0
0
0
0
0
0
0
0
0
0
0
0
0
0
0
0
0
0
0
0
0
0
0
0
0
0
0
0
0
0
0
0
0
0
0
0
0
0
0
0
0
0
0
0
0
0
0
0
0
0
0
0
0
0
0
0
0
0
0
0
0
0
0
0
0
0
0
0
0
0
0
0
0
0
0
0
0
0
0
0
0
0
0
0
0
0
0
0
0
0
0
0
0
0
0
0
0
0
0
0
0
0
0
0
0
0
0
0
0
0
0
0
0
0
0
0
0
0
0
0
0
0
0
0
0
0
0
0
0
0
0
0
0
0
0
0
0
0
0
0
0
0
0
0
0
0
0
0
0
0
0
0
0
0
0
0
0
0
0
0
0
0
0
0
0
0
0
0
0
0
0
0
0
0
0
0
0
0
0
0
0
0
0
0
0
0
0
0
0
0
0
0
0
0
0
0
0
0
0
0
0
0
0
0
0
0
0
0
0
0
0
0
0
0
0
0
0
0
0
0
0
0
0
0
0
0
0
0
0
0
0
0
0
0
0
0
0
0
0
0
0
0
0
0
0
0
0
0
0
0
0
0
0
0
0
0
0
0
0
0
0
0
0
0
0
0
0
0
0
0
0
0
0
0
0
0
0
0
0
0
0
0
0
0
0
0
0
0
0
0
0
0
0
0
0
0
0
0
0
0
0
0
0
0
0
0
0
0
0
0
0
0
0
0
0
0
0
0
0
0
0
0
0
0
0
0
0
0
0
0
0
0
0
0
0
0
0
0
0
0
0
0
0
0
0
0
0
0
0
0
0
0
0
0
0
0
0
0
0
0
0
0
0
0
0
0
0
0
0
0
0
0
0
0
0
0
0
0
0
0
0
0
0
0
0
0
0
0
0
0
0
0
0
0
0
0
0
0
0
0
0
0
0
0
0
0
0
0
0
0
0
0
0
0
0
0
0
0
0
0
0
0
0
0
0
0
0
0
0
0
0
0
0
0
0
0
0
0
0
0
0
0
0
0
0
0
0
0
0
0
0
0
0
0
0
0
0
0
0
0
0
0
0
0
0
0
0
0
0
0
0
0
0
0
0
0
0
0
0
0
0
0
0
0
0
0
0
0
0
0
0
0
0
0
0
0
0
0
0
0
0
0
0
0
0
0
0
0
0
0
0
0
0
0
0
0
0
0
0
0
0
0
0
0
0
0
0
0
0
0
0
0
0
0
0
0
0
0
0
0
0
0
0
0
0
0
0
0
0
0
0
0
0
0
0
0
0
0
0
0
0
0
0
0
0
0
0
0
0
0
0
0
0
0
0
0
0
0
0
0
0
0
0
0
0
0
0
0
0
0
0
0
0
0
0
0
0
0
0
0
0
0
0
0
0
0
0
0
0
0
0
0
0
0
0
0
0
0
0
0
0
0
0
0
0
0
0
0
0
0
0
0
0
0
0
0
0
0
0
0
0
0
0
0
0
0
0
0
0
0
0
0
0
0
0
0
0
0
0
0
0
0
0
0
0
0
0
0
0
0
0
0
0
0
0
0
0
0
0
0
0
0
0
0
0
0
0
0
0
0
0
0
0
0
0
0
0
0
0
0
0
0
0
0
0
0
0
0
0
0
0
0
0
0
0
0
0
0
0
0
0
0
0
0
0
0
0
0
0
0
0
0
0
0
0
0
0
0
0
0
0
0
0
0
0
0
0
0
0
0
0
0
0
0
0
0
0
0
0
0
0
0
0
0
0
0
0
0
0
0
0
0
0
0
0
0
0
0
0
0
0
0
0
0
0
0
0
0
0
0
0
0
0
0
0
0
0
0
0
0
0
0
0
0
0
0
0
0
0
0
0
0
0
0
0
0
0
0
0
0
0
0
0
0
0
0
0
0
0
0
0
0
0
0
0
0
0
0
0
0
0
0
0
0
0
0
0
0
0
0
0
0
0
0
0
0
0
0
0
0
0
0
0
0
0
0
0
0
0
0
0
0
0
0
0
0
0
0
0
0
0
0
0
0
0
0
0
0
0
0
0
0
0
0
0
0
0
0
0
0
0
0
0
0
0
0
0
0
0
0
0
0
0
0
0
0
0
0
0
0
0
0
0
0
0
0
0
0
0
0
0
0
0
0
0
0
0
0
0
0
0
0
0
0
0
0
0
0
0
0
0
0
0
0
0
0
0
0
0
0
0
0
0
0
0
0
0
0
0
0
0
0
0
0
0
0
0
0
0
0
0
0
0
0
0
0
0
0
0
0
0
0
0
0
0
0
0
0
0
0
0
0
0
0
0
0
0
0
0
0
0
0
0
0
0
0
0
0
0
0
0
0
0
0
0
0
0
0
0
0
0
0
0
0
0
0
0
0
0
0
0
0
0
0
0
0
0
0
0
0
0
0
0
0
0
0
0
0
0
0
0
0
0
0
0
0
0
0
0
0
0
0
0
0
0
0
0
0
0
0
0
0
0
0
0
0
0
0
0
0
0
0
0
0
0
0
0
0
0
0
0
0
0
0
0
0
0
0
0
0
0
0
0
0
0
0
0
0
0
0
0
0
0
0
0
0
0
0
0
0
0
0
0
0
0
0
0
0
0
0
0
0
0
0
0
0
0
0
0
0
0
0
0
0
0
0
0
0
0
0
0
0
0
0
0
0
0
0
0
0
0
0
0
0
0
0
0
0
0
0
0
0
0
0
0
0
0
0
0
0
0
0
0
0
0
0
0
0
0
0
0
0
0
0
0
0
0
0
0
0
0
0
0
0
0
0
0
0
0
0
0
0
0
0
0
0
0
0
0
0
0
0
0
0
0
0
0
0
0
0
0
0
0
0
0
0
0
0
0
0
0
0
0
0
0
0
0
0
0
0
0
0
0
0
0
0
0
0
0
0
0
0
0
0
0
0
0
0
0
0
0
0
0
0
0
0
0
0
0
0
0
0
0
0
0
0
0
0
0
0
0
0
0
0
0
0
0
0
0
0
0
0
0
0
0
0
0
0
0
0
0
0
0
0
0
0
0
0
0
0
0
0
0
0
0
0
0
0
0
0
0
0
0
0
0
0
0
0
0
0
0
0
0
0
0
0
0
0
0
0
0
0
0
0
0
0
0
0
0
0
0
0
0
0
0
0
0
0
0
0
0
0
0
0
0
0
0
0
0
0
0
0
0
0
0
0
0
0
0
0
0
0
0
0
0
0
0
0
0
0
0
0
0
0
0
0
0
0
0
0
0
0
0
0
0
0
0
0
0
0
0
0
0
0
0
0
0
0
0
0
0
0
0
0
0
0
0
0
0
0
0
0
0
0
0
0
0
0
0
0
0
0
0
0
0
0
0
0
0
0
0
0
0
0
0
0
0
0
0
0
0
0
0
0
0
0
0
0
0
0
0
0
0
0
0
0
0
0
0
0
0
0
0
0
0
0
0
0
0
0
0
0
0
0
0
0
0
0
0
0
0
0
0
0
0
0
0
0
0
0
0
0
0
0
0
0
0
0
0
0
0
0
0
0
0
0
0
0
0
0
0
0
0
0
0
0
0
0
0
0
0
0
0
0
0
0
0
0
0
0
0
0
0
0
0
0
0
0
0
0
0
0
0
0
0
0
0
0
0
0
0
0
0
0
0
0
0
0
0
0
0
0
0
0
0
0
0
0
0
0
0
0
0
0
0
0
1
1
1
1
1
1
1
1
1
1
1
1
1
1
1
1
1
1
1
1
1
1
1
1
1
1
1
1
1
1
2
2
2
2
2
2
2
2
2
2
2
2
2
2
2
2
2
2
2
2
2
2
2
2
2
2
2
2
2
2
3
3
3
3
3
3
3
3
3
3
3
3
3
3
3
3
3
3
3
3
3
3
3
3
3
3
3
3
3
3
4
4
4
4
4
4
4
4
4
4
4
4
4
4
4
4
4
4
4
4
4
4
4
4
4
4
4
4
4
4

LOOKUP_TABLE FreeFempp_table 5
1.00000000 0.00000000 0.00000000 1.00000000
1.00000000 1.00000000 0.00000000 1.00000000
1.00000000 0.00000000 1.00000000 1.00000000
0.00000000 1.00000000 0.00000000 1.00000000
0.00000000 1.00000000 1.00000000 1.00000000

POINT_DATA 961
FIELD FieldData 1
Density 1 961 float
5.73040068e-01 4.86105740e-01 4.77515429e-01 4.74346936e-01 4.71853018e-01 4.67546731e-01 4.60428894e-01 4.25496817e-01 1.57129899e-01 4.73811320e-04 4.11347341e-04 1.15662802e-03 4.32491153e-01 6.79640889e-01 9.44923103e-01 9.56375480e-01 9.10734177e-01 9.59391415e-01 9.70252097e-01 9.43806410e-01 9.07800138e-01 8.73093367e-01 8.43140423e-01 8.22528958e-01 8.06016207e-01 7.91183054e-01 7.80115306e-01 7.73027837e-01 7.69270837e-01 7.62010336e-01 7.55981445e-01 1.41428725e-04 1.35891823e-04 1.35904120e-04 1.35689377e-04 1.35566850e-04 1.38012168e-04 1.46777442e-04 1.59414602e-04 1.72860207e-04 1.80705174e-04 1.84961988e-04 2.28082325e-04 1.97063476e-01 3.73666346e-01 9.33483005e-01 7.17173696e-01 4.67180554e-03 8.96949228e-03 7.57052183e-01 9.73234951e-01 9.56235647e-01 9.38954651e-01 9.08183813e-01 8.72142851e-01 8.39640975e-01 8.08135211e-01 7.85687029e-01 7.70349681e-01 7.61464357e-01 7.48592019e-01 7.54887342e-01 1.60361713e-04 1.32699774e-04 1.36199960e-04 1.35733761e-04 1.34973481e-04 1.34482369e-04 1.37766503e-04 1.44971069e-04 1.52856825e-04 1.58347029e-04 1.50928376e-04 1.37715091e-04 1.28998930e-04 1.79731786e-01 5.22301614e-01 9.95763421e-01 5.51727135e-04 5.50994766e-04 3.55155353e-04 3.67250817e-04 7.27302046e-04 2.98765630e-01 7.84940541e-01 8.08105767e-01 7.94800222e-01 7.59055674e-01 7.28769004e-01 7.11045980e-01 7.01908052e-01 6.85999870e-01 7.30616450e-01 5.12810230e-01 2.79300332e-01 2.71164805e-01 1.44542918e-01 1.22166276e-02 2.04121484e-03 6.79895049e-04 3.69062182e-04 2.74843595e-04 2.42270660e-04 2.15726221e-04 1.71846055e-04 1.20974189e-04 1.21254976e-04 2.86787021e-04 9.94524956e-01 9.99386370e-01 9.64208681e-04 4.71833890e-04 3.00464191e-04 2.31872516e-04 2.11693230e-04 2.12072162e-04 1.41315117e-01 6.03337884e-01 6.64415777e-01 6.41659379e-01 6.17208242e-01 6.08546793e-01 5.93834162e-01 6.90966606e-01 5.37998140e-01 3.04059118e-01 2.84252703e-01 2.61096418e-01 2.20686376e-01 1.94460034e-01 2.14526102e-01 2.46915162e-01 2.72665352e-01 2.89989799e-01 2.92383701e-01 2.49609977e-01 7.51441345e-02 1.26313666e-04 1.29237000e-04 1.38179297e-04 1.41830649e-04 9.99905467e-01 9.99534607e-01 9.12859067e-02 5.52855490e-04 2.40726367e-04 1.55216854e-04 1.39616226e-04 1.07533357e-04 6.95778653e-02 5.05828917e-01 5.01819074e-01 5.03269732e-01 4.96505678e-01 6.44874573e-01 5.76027274e-01 3.65290016e-01 3.52903426e-01 3.38707238e-01 3.21410984e-01 3.05384666e-01 3.12699854e-01 3.31392527e-01 3.51988405e-01 3.70620459e-01 3.86015832e-01 3.95151466e-01 3.88299644e-01 3.43773335e-01 1.65241538e-04 1.44487756e-04 1.25504870e-04 1.28279804e-04 1.44465012e-04 9.99615490e-01 9.95564342e-01 9.99296725e-01 5.02577843e-03 1.79585579e-04 1.28152969e-04 1.37104260e-04 5.99266682e-03 3.95067781e-01 4.18643653e-01 4.23912019e-01 6.04776621e-01 6.26156092e-01 4.54826772e-01 4.53585058e-01 4.45855975e-01 4.37911004e-01 4.33407396e-01 4.33777541e-01 4.37970728e-01 4.45909917e-01 4.55716610e-01 4.65657055e-01 4.73815799e-01 4.77064669e-01 4.74505037e-01 4.71630424e-01 4.32394654e-01 3.45014960e-01 1.46450635e-04 1.32846515e-04 1.35316266e-04 9.02678609e-01 9.82960165e-01 9.96474743e-01 9.99824584e-01 2.95150161e-01 1.42447767e-04 1.42699893e-04 8.92119599e-04 3.56989920e-01 3.83671999e-01 5.78578353e-01 6.78679943e-01 5.61746240e-01 5.66935539e-01 5.60970068e-01 5.54526627e-01 5.49083710e-01 5.45028031e-01 5.43269277e-01 5.45109928e-01 5.49800098e-01 5.55506885e-01 5.60127676e-01 5.61620712e-01 5.60608625e-01 5.63647449e-01 5.74126482e-01 5.65633953e-01 5.19055307e-01 2.19815597e-01 1.34487782e-04 1.35608250e-04 1.81361931e-04 9.99236014e-04 3.59645835e-03 9.99175131e-01 9.99840558e-01 1.44956182e-04 1.46192746e-04 4.59156552e-04 3.33522081e-01 5.61190426e-01 7.23007262e-01 6.61652446e-01 6.65893853e-01 6.57433450e-01 6.48813784e-01 6.41188145e-01 6.34864569e-01 6.30767763e-01 6.29538119e-01 6.30489588e-01 6.31841123e-01 6.31631136e-01 6.28628910e-01 6.23649955e-01 6.20696902e-01 6.24746680e-01 6.33785903e-01 6.45492733e-01 6.53496265e-01 6.00309014e-01 1.23592647e-04 1.58351002e-04 1.78050279e-04 3.50438786e-04 4.38850257e-04 9.03728664e-01 9.97772694e-01 1.51758140e-04 1.50453678e-04 3.81665595e-04 3.91230732e-01 7.50534654e-01 7.30132282e-01 7.28085458e-01 7.16483772e-01 7.05562830e-01 6.96510792e-01 6.89503372e-01 6.84799254e-01 6.82320356e-01 6.81191444e-01 6.79886341e-01 6.77028060e-01 6.72320127e-01 6.67173147e-01 6.64568245e-01 6.67325616e-01 6.75850451e-01 6.91265285e-01 7.14606345e-01 7.71739960e-01 8.20021510e-01 3.47284190e-02 2.65956885e-04 3.15249170e-04 3.27465736e-04 3.04121611e-04 9.43433046e-01 9.63099539e-01 1.56324750e-04 1.49376297e-04 3.75809235e-04 7.55547345e-01 7.50374615e-01 7.39653409e-01 7.25415111e-01 7.13510931e-01 7.04991698e-01 6.99587703e-01 6.96839094e-01 6.96043313e-01 6.96101904e-01 6.95683777e-01 6.93902075e-01 6.91036820e-01 6.88699305e-01 6.89092696e-01 6.93498015e-01 7.01459885e-01 7.12203264e-01 7.23780334e-01 7.32068658e-01 7.84579873e-01 8.02829921e-01 2.53175050e-01 1.64998453e-02 6.97885733e-03 6.01919077e-04 1.28585454e-02 9.48163569e-01 5.58362268e-02 1.54841473e-04 1.77002818e-04 7.37862766e-01 7.18820035e-01 6.94860578e-01 6.76183403e-01 6.64846897e-01 6.60512865e-01 6.61351800e-01 6.65587068e-01 6.71572745e-01 6.77663386e-01 6.82351232e-01 6.84860528e-01 6.85659826e-01 6.86275005e-01 6.88299894e-01 6.92174733e-01 6.96893096e-01 7.00640619e-01 6.99516475e-01 6.84369266e-01 6.49774909e-01 6.38607681e-01 6.75326288e-01 6.67185903e-01 1.95318669e-01 1.90170333e-02 4.78350937e-01 9.32331622e-01 8.81591618e-01 1.94849985e-04 1.92106003e-04 7.03429997e-01 6.35808945e-01 5.86324215e-01 5.59978485e-01 5.53215683e-01 5.60156643e-01 5.75391650e-01 5.94789803e-01 6.15018249e-01 6.33198917e-01 6.47134781e-01 6.55987740e-01 6.60561502e-01 6.62702203e-01 6.64092004e-01 6.65190935e-01 6.65093422e-01 6.61936998e-01 6.52588725e-01 6.32938445e-01 6.03157222e-01 5.87041855e-01 6.34465098e-01 7.66979635e-01 8.46988142e-01 8.76426101e-01 9.40466404e-01 9.17189538e-01 8.58620107e-01 2.03767078e-04 1.91283892e-04 6.65686667e-01 5.06517470e-01 4.11082774e-01 3.77985835e-01 3.83658677e-01 4.10636544e-01 4.49399799e-01 4.93357927e-01 5.36454082e-01 5.73137403e-01 5.99781573e-01 6.15803361e-01 6.23260736e-01 6.25369072e-01 6.24925315e-01 6.23359323e-01 6.20726228e-01 6.16140187e-01 6.08059347e-01 5.95667183e-01 5.83594024e-01 5.89904726e-01 6.43267214e-01 7.50826120e-01 8.58308434e-01 9.11259055e-01 9.39941287e-01 9.34911013e-01 8.82423222e-01 2.11991617e-04 2.07815319e-04 6.43341482e-01 3.65878046e-01 2.19100401e-01 1.88255489e-01 2.05979839e-01 2.48945326e-01 3.09681684e-01 3.81220728e-01 4.52890515e-01 5.12761772e-01 5.53859472e-01 5.76439381e-01 5.85240662e-01 5.86023688e-01 5.83484530e-01 5.80537140e-01 5.78543842e-01 5.77842236e-01 5.78254938e-01 5.80485582e-01 5.89367032e-01 6.17384970e-01 6.79507017e-01 7.69208431e-01 8.49875629e-01 9.04327512e-01 9.37436461e-01 9.41417873e-01 7.94164777e-01 2.20097616e-04 2.11436403e-04 6.47340953e-01 2.59792864e-01 9.55747142e-02 7.30788335e-02 8.92355442e-02 1.29765615e-01 1.96523562e-01 2.87601590e-01 3.86981159e-01 4.70509201e-01 5.24628043e-01 5.51311195e-01 5.59422314e-01 5.57859004e-01 5.53261578e-01 5.49885273e-01 5.50151348e-01 5.55208862e-01 5.65485060e-01 5.81888914e-01 6.07895851e-01 6.50831580e-01 7.16720283e-01 7.94691801e-01 8.61447871e-01 9.08207893e-01 9.40150082e-01 9.32177722e-01 5.96189916e-01 2.36487162e-04 2.24024465e-04 6.74979389e-01 1.90832183e-01 3.73246409e-02 2.46929079e-02 3.48561145e-02 6.46232590e-02 1.26278788e-01 2.29411751e-01 3.54242951e-01 4.58217978e-01 5.20313084e-01 5.47173977e-01 5.52791715e-01 5.48606873e-01 5.42364180e-01 5.39036751e-01 5.41656852e-01 5.51690042e-01 5.69443166e-01 5.95219433e-01 6.30811214e-01 6.80134118e-01 7.46153057e-01 8.19033921e-01 8.81516695e-01 9.26493108e-01 9.45292473e-01 9.03545976e-01 1.05277173e-01 2.57504958e-04 2.41008820e-04 7.17700005e-01 1.42183274e-01 1.25999497e-02 7.62189506e-03 1.30191715e-02 3.34271118e-02 9.00406986e-02 2.06988081e-01 3.58444124e-01 4.76192594e-01 5.38268805e-01 5.61288893e-01 5.63842893e-01 5.58133960e-01 5.51654994e-01 5.49220979e-01 5.53882003e-01 5.66928744e-01 5.88045478e-01 6.16750836e-01 6.54341638e-01 7.05063760e-01 7.74193466e-01 8.50140631e-01 9.10594940e-01 9.43996966e-01 9.43225026e-01 7.05840051e-01 3.02495225e-03 2.90710741e-04 2.61689973e-04 7.66109228e-01 1.02470390e-01 4.09782166e-03 2.68967613e-03 5.32728015e-03 1.98834594e-02 7.74574205e-02 2.19246522e-01 3.97102952e-01 5.15577555e-01 5.68845391e-01 5.85650623e-01 5.86199522e-01 5.81347167e-01 5.77137291e-01 5.77396035e-01 5.84464729e-01 5.98852813e-01 6.19350910e-01 6.45230234e-01 6.79627776e-01 7.31523991e-01 8.09799731e-01 8.89203370e-01 9.38314021e-01 9.52144504e-01 8.99793148e-01 8.13668147e-02 8.17290682e-04 3.67982575e-04 3.17291240e-04 8.11793089e-01 6.78703338e-02 1.65508047e-03 1.36669865e-03 2.82087713e-03 1.55307231e-02 8.58179703e-02 2.69344598e-01 4.60197806e-01 5.61859131e-01 6.00901604e-01 6.11907125e-01 6.12741530e-01 6.11550510e-01 6.12397373e-01 6.17669106e-01 6.28488839e-01 6.44234359e-01 6.62884712e-01 6.84179544e-01 7.14833975e-01 7.69549310e-01 8.55805337e-01 9.26419497e-01 9.54642355e-01 9.39626098e-01 4.88028109e-01 2.13785819e-03 4.94064006e-04 4.36489820e-04 4.88747028e-04 8.49529445e-01 4.00313213e-02 9.22285777e-04 9.19274404e-04 2.06256006e-03 1.72976367e-02 1.22205794e-01 3.55576187e-01 5.28135121e-01 6.01121664e-01 6.26249015e-01 6.34155095e-01 6.37854934e-01 6.42477930e-01 6.50185704e-01 6.61903739e-01 6.77514136e-01 6.95727706e-01 7.14920044e-01 7.36457288e-01 7.69069850e-01 8.27184856e-01 9.07736540e-01 9.52353418e-01 9.53161538e-01 7.39225447e-01 8.03033169e-03 8.38178385e-04 5.00190596e-04 5.18294284e-04 1.44649867e-03 8.77738655e-01 2.08144244e-02 6.07009628e-04 6.87598775e-04 1.99924293e-03 2.71756370e-02 2.02102050e-01 4.57048327e-01 5.81672132e-01 6.25640512e-01 6.41037524e-01 6.49216712e-01 6.57755375e-01 6.69030964e-01 6.83676898e-01 7.01609135e-01 7.22274125e-01 7.45192111e-01 7.71080494e-01 8.03058207e-01 8.46266150e-01 8.98903549e-01 9.47542250e-01 9.56574798e-01 7.69307792e-01 1.43614076e-02 1.15092529e-03 6.36605895e-04 6.39631879e-04 1.03066012e-03 2.22773030e-02 8.95447791e-01 1.04815215e-02 4.56964277e-04 5.35889703e-04 2.46384600e-03 5.48521988e-02 3.28104526e-01 5.42150021e-01 6.12259448e-01 6.33847594e-01 6.44511759e-01 6.55726492e-01 6.70083165e-01 6.87640965e-01 7.08065748e-01 7.31161356e-01 7.57174373e-01 7.87322521e-01 8.23621988e-01 8.66151035e-01 9.10305858e-01 9.43518043e-01 9.56217825e-01 7.52520502e-01 2.05455516e-02 1.50810147e-03 8.49427946e-04 7.89098092e-04 1.10959867e-03 7.76448986e-03 1.82731956e-01 9.02566791e-01 6.34355284e-03 3.76044249e-04 4.35417081e-04 3.96463973e-03 1.23092264e-01 4.63513762e-01 5.94004035e-01 6.20314717e-01 6.27499998e-01 6.37584209e-01 6.53551221e-01 6.73844218e-01 6.96765065e-01 7.21632957e-01 7.48914301e-01 7.80149281e-01 8.17374587e-01 8.60826969e-01 9.05609429e-01 9.41992044e-01 9.59351182e-01 9.21925843e-01 2.17389897e-01 7.73593038e-03 1.50963722e-03 1.17524539e-03 1.96490902e-03 1.65977776e-02 1.22416005e-01 4.56919968e-01 9.00944531e-01 5.36132744e-03 3.10044503e-04 3.62718594e-04 8.66668392e-03 2.55669713e-01 5.62685966e-01 6.13061905e-01 6.09525084e-01 6.09541476e-01 6.22041762e-01 6.43503249e-01 6.69348180e-01 6.96745753e-01 7.25017786e-01 7.55414248e-01 7.90366352e-01 8.31613004e-01 8.76991928e-01 9.18915212e-01 9.47841585e-01 9.55095649e-01 8.84132028e-01 2.81391382e-01 2.13766657e-02 8.58421251e-03 2.06530299e-02 1.63640767e-01 4.87096995e-01 6.16408885e-01 6.73482418e-01 8.90907705e-01 6.64668530e-03 2.68377888e-04 2.93069490e-04 2.49382686e-02 4.23091590e-01 6.11267149e-01 6.04925275e-01 5.84096730e-01 5.83035052e-01 5.99853873e-01 6.26750290e-01 6.57576680e-01 6.88903391e-01 7.19904542e-01 7.52064168e-01 7.88054943e-01 8.29249322e-01 8.72703791e-01 9.10943747e-01 9.35736954e-01 9.38554108e-01 8.84421587e-01 6.38891339e-01 4.42284465e-01 5.54086804e-01 7.52543509e-01 8.18663478e-01 8.10347795e-01 8.08584213e-01 7.83288360e-01 8.66602480e-01 1.29651595e-02 2.52021884e-04 2.69499666e-04 8.20252001e-02 5.52394927e-01 6.15214825e-01 5.74248612e-01 5.48102736e-01 5.50716698e-01 5.72458625e-01 6.03936255e-01 6.39156818e-01 6.74530506e-01 7.08503067e-01 7.41720021e-01 7.76294947e-01 8.13688993e-01 8.52126181e-01 8.86096418e-01 9.08709228e-01 9.12506998e-01 8.84289980e-01 8.25551391e-01 8.09436500e-01 8.22150409e-01 8.08181643e-01 7.77235031e-01 7.55395234e-01 7.73154616e-01 7.86314964e-01 8.11347365e-01 4.34065610e-02 2.36513719e-04 2.52309546e-04 2.24249765e-01 6.07893527e-01 5.81973255e-01 5.26836872e-01 5.06534636e-01 5.15424192e-01 5.40721476e-01 5.74747145e-01 6.13495767e-01 6.53757930e-01 6.92653954e-01 7.28656352e-01 7.61944711e-01 7.93608367e-01 8.24021339e-01 8.51353407e-01 8.71406317e-01 8.78280222e-01 8.65812182e-01 8.36790442e-01 8.04640055e-01 7.65095890e-01 7.15191543e-01 6.73487425e-01 6.52124166e-01 6.81370258e-01 7.46382773e-01 7.21370339e-01 2.41464645e-01 2.25434880e-04 2.35101485e-04 4.05756027e-01 5.91469347e-01 5.21855235e-01 4.75929677e-01 4.67990577e-01 4.81124163e-01 5.05176187e-01 5.37156403e-01 5.76608539e-01 6.21755779e-01 6.68782413e-01 7.13483453e-01 7.52692103e-01 7.85034180e-01 8.10907543e-01 8.31363142e-01 8.46301973e-01 8.52858841e-01 8.45366478e-01 8.18648815e-01 7.71950185e-01 7.10920155e-01 6.49127126e-01 6.00100458e-01 5.66619039e-01 5.84932923e-01 7.00647175e-01 6.97485328e-01 5.03481209e-01 2.01531802e-04 2.22942122e-04 5.47948778e-01 5.44228435e-01 4.73256320e-01 4.47095454e-01 4.43820566e-01 4.50376719e-01 4.64166015e-01 4.87586051e-01 5.23790419e-01 5.73967457e-01 6.35258198e-01 7.00692952e-01 7.61590123e-01 8.10959935e-01 8.45775723e-01 8.66337299e-01 8.73960376e-01 8.68975282e-01 8.49685848e-01 8.12898517e-01 7.56829560e-01 6.84931099e-01 6.05105519e-01 5.28663278e-01 4.71085519e-01 4.72907901e-01 6.52040601e-01 7.59503424e-01 6.85532153e-01 2.81335087e-04 2.28913719e-04 8.73455286e-01 6.63568676e-01 6.37259841e-01 6.22059822e-01 6.12932086e-01 6.07639790e-01 6.07101500e-01 6.13625169e-01 6.29456580e-01 6.55076325e-01 6.88516378e-01 7.26308107e-01 7.64516890e-01 7.99106777e-01 8.26588333e-01 8.44460845e-01 8.51047814e-01 8.45136523e-01 8.26419055e-01 7.97085762e-01 7.61638224e-01 7.22530663e-01 6.78102434e-01 6.29318058e-01 5.88118076e-01 5.74248552e-01 6.55165553e-01 
