# vtk DataFile Version 2.0
results_case1_non_linear/iter2.vtk, Created by Freefem++ 
ASCII
DATASET UNSTRUCTURED_GRID
POINTS 961 float
0 0 0
0.033333333 0 0
0.066666667 0 0
0.1 0 0
0.13333333 0 0
0.16666667 0 0
0.2 0 0
0.23333333 0 0
0.26666667 0 0
0.3 0 0
0.33333333 0 0
0.36666667 0 0
0.4 0 0
0.43333333 0 0
0.46666667 0 0
0.5 0 0
0.53333333 0 0
0.56666667 0 0
0.6 0 0
0.63333333 0 0
0.66666667 0 0
0.7 0 0
0.73333333 0 0
0.76666667 0 0
0.8 0 0
0.83333333 0 0
0.86666667 0 0
0.9 0 0
0.93333333 0 0
0.96666667 0 0
1 0 0
0 0.033333333 0
0.033333333 0.033333333 0
0.066666667 0.033333333 0
0.1 0.033333333 0
0.13333333 0.033333333 0
0.16666667 0.033333333 0
0.2 0.033333333 0
0.23333333 0.033333333 0
0.26666667 0.033333333 0
0.3 0.033333333 0
0.33333333 0.033333333 0
0.36666667 0.033333333 0
0.4 0.033333333 0
0.43333333 0.033333333 0
0.46666667 0.033333333 0
0.5 0.033333333 0
0.53333333 0.033333333 0
0.56666667 0.033333333 0
0.6 0.033333333 0
0.63333333 0.033333333 0
0.66666667 0.033333333 0
0.7 0.033333333 0
0.73333333 0.033333333 0
0.76666667 0.033333333 0
0.8 0.033333333 0
0.83333333 0.033333333 0
0.86666667 0.033333333 0
0.9 0.033333333 0
0.93333333 0.033333333 0
0.96666667 0.033333333 0
1 0.033333333 0
0 0.066666667 0
0.033333333 0.066666667 0
0.066666667 0.066666667 0
0.1 0.066666667 0
0.13333333 0.066666667 0
0.16666667 0.066666667 0
0.2 0.066666667 0
0.23333333 0.066666667 0
0.26666667 0.066666667 0
0.3 0.066666667 0
0.33333333 0.066666667 0
0.36666667 0.066666667 0
0.4 0.066666667 0
0.43333333 0.066666667 0
0.46666667 0.066666667 0
0.5 0.066666667 0
0.53333333 0.066666667 0
0.56666667 0.066666667 0
0.6 0.066666667 0
0.63333333 0.066666667 0
0.66666667 0.066666667 0
0.7 0.066666667 0
0.73333333 0.066666667 0
0.76666667 0.066666667 0
0.8 0.066666667 0
0.83333333 0.066666667 0
0.86666667 0.066666667 0
0.9 0.066666667 0
0.93333333 0.066666667 0
0.96666667 0.066666667 0
1 0.066666667 0
0 0.1 0
0.033333333 0.1 0
0.066666667 0.1 0
0.1 0.1 0
0.13333333 0.1 0
0.16666667 0.1 0
0.2 0.1 0
0.23333333 0.1 0
0.26666667 0.1 0
0.3 0.1 0
0.33333333 0.1 0
0.36666667 0.1 0
0.4 0.1 0
0.43333333 0.1 0
0.46666667 0.1 0
0.5 0.1 0
0.53333333 0.1 0
0.56666667 0.1 0
0.6 0.1 0
0.63333333 0.1 0
0.66666667 0.1 0
0.7 0.1 0
0.73333333 0.1 0
0.76666667 0.1 0
0.8 0.1 0
0.83333333 0.1 0
0.86666667 0.1 0
0.9 0.1 0
0.93333333 0.1 0
0.96666667 0.1 0
1 0.1 0
0 0.13333333 0
0.033333333 0.13333333 0
0.066666667 0.13333333 0
0.1 0.13333333 0
0.13333333 0.13333333 0
0.16666667 0.13333333 0
0.2 0.13333333 0
0.23333333 0.13333333 0
0.26666667 0.13333333 0
0.3 0.13333333 0
0.33333333 0.13333333 0
0.36666667 0.13333333 0
0.4 0.13333333 0
0.43333333 0.13333333 0
0.46666667 0.13333333 0
0.5 0.13333333 0
0.53333333 0.13333333 0
0.56666667 0.13333333 0
0.6 0.13333333 0
0.63333333 0.13333333 0
0.66666667 0.13333333 0
0.7 0.13333333 0
0.73333333 0.13333333 0
0.76666667 0.13333333 0
0.8 0.13333333 0
0.83333333 0.13333333 0
0.86666667 0.13333333 0
0.9 0.13333333 0
0.93333333 0.13333333 0
0.96666667 0.13333333 0
1 0.13333333 0
0 0.16666667 0
0.033333333 0.16666667 0
0.066666667 0.16666667 0
0.1 0.16666667 0
0.13333333 0.16666667 0
0.16666667 0.16666667 0
0.2 0.16666667 0
0.23333333 0.16666667 0
0.26666667 0.16666667 0
0.3 0.16666667 0
0.33333333 0.16666667 0
0.36666667 0.16666667 0
0.4 0.16666667 0
0.43333333 0.16666667 0
0.46666667 0.16666667 0
0.5 0.16666667 0
0.53333333 0.16666667 0
0.56666667 0.16666667 0
0.6 0.16666667 0
0.63333333 0.16666667 0
0.66666667 0.16666667 0
0.7 0.16666667 0
0.73333333 0.16666667 0
0.76666667 0.16666667 0
0.8 0.16666667 0
0.83333333 0.16666667 0
0.86666667 0.16666667 0
0.9 0.16666667 0
0.93333333 0.16666667 0
0.96666667 0.16666667 0
1 0.16666667 0
0 0.2 0
0.033333333 0.2 0
0.066666667 0.2 0
0.1 0.2 0
0.13333333 0.2 0
0.16666667 0.2 0
0.2 0.2 0
0.23333333 0.2 0
0.26666667 0.2 0
0.3 0.2 0
0.33333333 0.2 0
0.36666667 0.2 0
0.4 0.2 0
0.43333333 0.2 0
0.46666667 0.2 0
0.5 0.2 0
0.53333333 0.2 0
0.56666667 0.2 0
0.6 0.2 0
0.63333333 0.2 0
0.66666667 0.2 0
0.7 0.2 0
0.73333333 0.2 0
0.76666667 0.2 0
0.8 0.2 0
0.83333333 0.2 0
0.86666667 0.2 0
0.9 0.2 0
0.93333333 0.2 0
0.96666667 0.2 0
1 0.2 0
0 0.23333333 0
0.033333333 0.23333333 0
0.066666667 0.23333333 0
0.1 0.23333333 0
0.13333333 0.23333333 0
0.16666667 0.23333333 0
0.2 0.23333333 0
0.23333333 0.23333333 0
0.26666667 0.23333333 0
0.3 0.23333333 0
0.33333333 0.23333333 0
0.36666667 0.23333333 0
0.4 0.23333333 0
0.43333333 0.23333333 0
0.46666667 0.23333333 0
0.5 0.23333333 0
0.53333333 0.23333333 0
0.56666667 0.23333333 0
0.6 0.23333333 0
0.63333333 0.23333333 0
0.66666667 0.23333333 0
0.7 0.23333333 0
0.73333333 0.23333333 0
0.76666667 0.23333333 0
0.8 0.23333333 0
0.83333333 0.23333333 0
0.86666667 0.23333333 0
0.9 0.23333333 0
0.93333333 0.23333333 0
0.96666667 0.23333333 0
1 0.23333333 0
0 0.26666667 0
0.033333333 0.26666667 0
0.066666667 0.26666667 0
0.1 0.26666667 0
0.13333333 0.26666667 0
0.16666667 0.26666667 0
0.2 0.26666667 0
0.23333333 0.26666667 0
0.26666667 0.26666667 0
0.3 0.26666667 0
0.33333333 0.26666667 0
0.36666667 0.26666667 0
0.4 0.26666667 0
0.43333333 0.26666667 0
0.46666667 0.26666667 0
0.5 0.26666667 0
0.53333333 0.26666667 0
0.56666667 0.26666667 0
0.6 0.26666667 0
0.63333333 0.26666667 0
0.66666667 0.26666667 0
0.7 0.26666667 0
0.73333333 0.26666667 0
0.76666667 0.26666667 0
0.8 0.26666667 0
0.83333333 0.26666667 0
0.86666667 0.26666667 0
0.9 0.26666667 0
0.93333333 0.26666667 0
0.96666667 0.26666667 0
1 0.26666667 0
0 0.3 0
0.033333333 0.3 0
0.066666667 0.3 0
0.1 0.3 0
0.13333333 0.3 0
0.16666667 0.3 0
0.2 0.3 0
0.23333333 0.3 0
0.26666667 0.3 0
0.3 0.3 0
0.33333333 0.3 0
0.36666667 0.3 0
0.4 0.3 0
0.43333333 0.3 0
0.46666667 0.3 0
0.5 0.3 0
0.53333333 0.3 0
0.56666667 0.3 0
0.6 0.3 0
0.63333333 0.3 0
0.66666667 0.3 0
0.7 0.3 0
0.73333333 0.3 0
0.76666667 0.3 0
0.8 0.3 0
0.83333333 0.3 0
0.86666667 0.3 0
0.9 0.3 0
0.93333333 0.3 0
0.96666667 0.3 0
1 0.3 0
0 0.33333333 0
0.033333333 0.33333333 0
0.066666667 0.33333333 0
0.1 0.33333333 0
0.13333333 0.33333333 0
0.16666667 0.33333333 0
0.2 0.33333333 0
0.23333333 0.33333333 0
0.26666667 0.33333333 0
0.3 0.33333333 0
0.33333333 0.33333333 0
0.36666667 0.33333333 0
0.4 0.33333333 0
0.43333333 0.33333333 0
0.46666667 0.33333333 0
0.5 0.33333333 0
0.53333333 0.33333333 0
0.56666667 0.33333333 0
0.6 0.33333333 0
0.63333333 0.33333333 0
0.66666667 0.33333333 0
0.7 0.33333333 0
0.73333333 0.33333333 0
0.76666667 0.33333333 0
0.8 0.33333333 0
0.83333333 0.33333333 0
0.86666667 0.33333333 0
0.9 0.33333333 0
0.93333333 0.33333333 0
0.96666667 0.33333333 0
1 0.33333333 0
0 0.36666667 0
0.033333333 0.36666667 0
0.066666667 0.36666667 0
0.1 0.36666667 0
0.13333333 0.36666667 0
0.16666667 0.36666667 0
0.2 0.36666667 0
0.23333333 0.36666667 0
0.26666667 0.36666667 0
0.3 0.36666667 0
0.33333333 0.36666667 0
0.36666667 0.36666667 0
0.4 0.36666667 0
0.43333333 0.36666667 0
0.46666667 0.36666667 0
0.5 0.36666667 0
0.53333333 0.36666667 0
0.56666667 0.36666667 0
0.6 0.36666667 0
0.63333333 0.36666667 0
0.66666667 0.36666667 0
0.7 0.36666667 0
0.73333333 0.36666667 0
0.76666667 0.36666667 0
0.8 0.36666667 0
0.83333333 0.36666667 0
0.86666667 0.36666667 0
0.9 0.36666667 0
0.93333333 0.36666667 0
0.96666667 0.36666667 0
1 0.36666667 0
0 0.4 0
0.033333333 0.4 0
0.066666667 0.4 0
0.1 0.4 0
0.13333333 0.4 0
0.16666667 0.4 0
0.2 0.4 0
0.23333333 0.4 0
0.26666667 0.4 0
0.3 0.4 0
0.33333333 0.4 0
0.36666667 0.4 0
0.4 0.4 0
0.43333333 0.4 0
0.46666667 0.4 0
0.5 0.4 0
0.53333333 0.4 0
0.56666667 0.4 0
0.6 0.4 0
0.63333333 0.4 0
0.66666667 0.4 0
0.7 0.4 0
0.73333333 0.4 0
0.76666667 0.4 0
0.8 0.4 0
0.83333333 0.4 0
0.86666667 0.4 0
0.9 0.4 0
0.93333333 0.4 0
0.96666667 0.4 0
1 0.4 0
0 0.43333333 0
0.033333333 0.43333333 0
0.066666667 0.43333333 0
0.1 0.43333333 0
0.13333333 0.43333333 0
0.16666667 0.43333333 0
0.2 0.43333333 0
0.23333333 0.43333333 0
0.26666667 0.43333333 0
0.3 0.43333333 0
0.33333333 0.43333333 0
0.36666667 0.43333333 0
0.4 0.43333333 0
0.43333333 0.43333333 0
0.46666667 0.43333333 0
0.5 0.43333333 0
0.53333333 0.43333333 0
0.56666667 0.43333333 0
0.6 0.43333333 0
0.63333333 0.43333333 0
0.66666667 0.43333333 0
0.7 0.43333333 0
0.73333333 0.43333333 0
0.76666667 0.43333333 0
0.8 0.43333333 0
0.83333333 0.43333333 0
0.86666667 0.43333333 0
0.9 0.43333333 0
0.93333333 0.43333333 0
0.96666667 0.43333333 0
1 0.43333333 0
0 0.46666667 0
0.033333333 0.46666667 0
0.066666667 0.46666667 0
0.1 0.46666667 0
0.13333333 0.46666667 0
0.16666667 0.46666667 0
0.2 0.46666667 0
0.23333333 0.46666667 0
0.26666667 0.46666667 0
0.3 0.46666667 0
0.33333333 0.46666667 0
0.36666667 0.46666667 0
0.4 0.46666667 0
0.43333333 0.46666667 0
0.46666667 0.46666667 0
0.5 0.46666667 0
0.53333333 0.46666667 0
0.56666667 0.46666667 0
0.6 0.46666667 0
0.63333333 0.46666667 0
0.66666667 0.46666667 0
0.7 0.46666667 0
0.73333333 0.46666667 0
0.76666667 0.46666667 0
0.8 0.46666667 0
0.83333333 0.46666667 0
0.86666667 0.46666667 0
0.9 0.46666667 0
0.93333333 0.46666667 0
0.96666667 0.46666667 0
1 0.46666667 0
0 0.5 0
0.033333333 0.5 0
0.066666667 0.5 0
0.1 0.5 0
0.13333333 0.5 0
0.16666667 0.5 0
0.2 0.5 0
0.23333333 0.5 0
0.26666667 0.5 0
0.3 0.5 0
0.33333333 0.5 0
0.36666667 0.5 0
0.4 0.5 0
0.43333333 0.5 0
0.46666667 0.5 0
0.5 0.5 0
0.53333333 0.5 0
0.56666667 0.5 0
0.6 0.5 0
0.63333333 0.5 0
0.66666667 0.5 0
0.7 0.5 0
0.73333333 0.5 0
0.76666667 0.5 0
0.8 0.5 0
0.83333333 0.5 0
0.86666667 0.5 0
0.9 0.5 0
0.93333333 0.5 0
0.96666667 0.5 0
1 0.5 0
0 0.53333333 0
0.033333333 0.53333333 0
0.066666667 0.53333333 0
0.1 0.53333333 0
0.13333333 0.53333333 0
0.16666667 0.53333333 0
0.2 0.53333333 0
0.23333333 0.53333333 0
0.26666667 0.53333333 0
0.3 0.53333333 0
0.33333333 0.53333333 0
0.36666667 0.53333333 0
0.4 0.53333333 0
0.43333333 0.53333333 0
0.46666667 0.53333333 0
0.5 0.53333333 0
0.53333333 0.53333333 0
0.56666667 0.53333333 0
0.6 0.53333333 0
0.63333333 0.53333333 0
0.66666667 0.53333333 0
0.7 0.53333333 0
0.73333333 0.53333333 0
0.76666667 0.53333333 0
[...]
CELL_DATA 1920
Scalars  Label int 1
LOOKUP_TABLE FreeFempp_table
0
0
0
0
0
0
0
0
0
0
0
0
0
0
0
0
0
0
0
0
0
0
0
0
0
0
0
0
0
0
0
0
0
0
0
0
0
0
0
0
0
0
0
0
0
0
0
0
0
0
0
0
0
0
0
0
0
0
0
0
0
0
0
0
0
0
0
0
0
0
0
0
0
0
0
0
0
0
0
0
0
0
0
0
0
0
0
0
0
0
0
0
0
0
0
0
0
0
0
0
0
0
0
0
0
0
0
0
0
0
0
0
0
0
0
0
0
0
0
0
0
0
0
0
0
0
0
0
0
0
0
0
0
0
0
0
0
0
0
0
0
0
0
0
0
0
0
0
0
0
0
0
0
0
0
0
0
0
0
0
0
0
0
0
0
0
0
0
0
0
0
0
0
0
0
0
0
0
0
0
0
0
0
0
0
0
0
0
0
0
0
0
0
0
0
0
0
0
0
0
0
0
0
0
0
0
0
0
0
0
0
0
0
0
0
0
0
0
0
0
0
0
0
0
0
0
0
0
0
0
0
0
0
0
0
0
0
0
0
0
0
0
0
0
0
0
0
0
0
0
0
0
0
0
0
0
0
0
0
0
0
0
0
0
0
0
0
0
0
0
0
0
0
0
0
0
0
0
0
0
0
0
0
0
0
0
0
0
0
0
0
0
0
0
0
0
0
0
0
0
0
0
0
0
0
0
0
0
0
0
0
0
0
0
0
0
0
0
0
0
0
0
0
0
0
0
0
0
0
0
0
0
0
0
0
0
0
0
0
0
0
0
0
0
0
0
0
0
0
0
0
0
0
0
0
0
0
0
0
0
0
0
0
0
0
0
0
0
0
0
0
0
0
0
0
0
0
0
0
0
0
0
0
0
0
0
0
0
0
0
0
0
0
0
0
0
0
0
0
0
0
0
0
0
0
0
0
0
0
0
0
0
0
0
0
0
0
0
0
0
0
0
0
0
0
0
0
0
0
0
0
0
0
0
0
0
0
0
0
0
0
0
0
0
0
0
0
0
0
0
0
0
0
0
0
0
0
0
0
0
0
0
0
0
0
0
0
0
0
0
0
0
0
0
0
0
0
0
0
0
0
0
0
0
0
0
0
0
0
0
0
0
0
0
0
0
0
0
0
0
0
0
0
0
0
0
0
0
0
0
0
0
0
0
0
0
0
0
0
0
0
0
0
0
0
0
0
0
0
0
0
0
0
0
0
0
0
0
0
0
0
0
0
0
0
0
0
0
0
0
0
0
0
0
0
0
0
0
0
0
0
0
0
0
0
0
0
0
0
0
0
0
0
0
0
0
0
0
0
0
0
0
0
0
0
0
0
0
0
0
0
0
0
0
0
0
0
0
0
0
0
0
0
0
0
0
0
0
0
0
0
0
0
0
0
0
0
0
0
0
0
0
0
0
0
0
0
0
0
0
0
0
0
0
0
0
0
0
0
0
0
0
0
0
0
0
0
0
0
0
0
0
0
0
0
0
0
0
0
0
0
0
0
0
0
0
0
0
0
0
0
0
0
0
0
0
0
0
0
0
0
0
0
0
0
0
0
0
0
0
0
0
0
0
0
0
0
0
0
0
0
0
0
0
0
0
0
0
0
0
0
0
0
0
0
0
0
0
0
0
0
0
0
0
0
0
0
0
0
0
0
0
0
0
0
0
0
0
0
0
0
0
0
0
0
0
0
0
0
0
0
0
0
0
0
0
0
0
0
0
0
0
0
0
0
0
0
0
0
0
0
0
0
0
0
0
0
0
0
0
0
0
0
0
0
0
0
0
0
0
0
0
0
0
0
0
0
0
0
0
0
0
0
0
0
0
0
0
0
0
0
0
0
0
0
0
0
0
0
0
0
0
0
0
0
0
0
0
0
0
0
0
0
0
0
0
0
0
0
0
0
0
0
0
0
0
0
0
0
0
0
0
0
0
0
0
0
0
0
0
0
0
0
0
0
0
0
0
0
0
0
0
0
0
0
0
0
0
0
0
0
0
0
0
0
0
0
0
0
0
0
0
0
0
0
0
0
0
0
0
0
0
0
0
0
0
0
0
0
0
0
0
0
0
0
0
0
0
0
0
0
0
0
0
0
0
0
0
0
0
0
0
0
0
0
0
0
0
0
0
0
0
0
0
0
0
0
0
0
0
0
0
0
0
0
0
0
0
0
0
0
0
0
0
0
0
0
0
0
0
0
0
0
0
0
0
0
0
0
0
0
0
0
0
0
0
0
0
0
0
0
0
0
0
0
0
0
0
0
0
0
0
0
0
0
0
0
0
0
0
0
0
0
0
0
0
0
0
0
0
0
0
0
0
0
0
0
0
0
0
0
0
0
0
0
0
0
0
0
0
0
0
0
0
0
0
0
0
0
0
0
0
0
0
0
0
0
0
0
0
0
0
0
0
0
0
0
0
0
0
0
0
0
0
0
0
0
0
0
0
0
0
0
0
0
0
0
0
0
0
0
0
0
0
0
0
0
0
0
0
0
0
0
0
0
0
0
0
0
0
0
0
0
0
0
0
0
0
0
0
0
0
0
0
0
0
0
0
0
0
0
0
0
0
0
0
0
0
0
0
0
0
0
0
0
0
0
0
0
0
0
0
0
0
0
0
0
0
0
0
0
0
0
0
0
0
0
0
0
0
0
0
0
0
0
0
0
0
0
0
0
0
0
0
0
0
0
0
0
0
0
0
0
0
0
0
0
0
0
0
0
0
0
0
0
0
0
0
0
0
0
0
0
0
0
0
0
0
0
0
0
0
0
0
0
0
0
0
0
0
0
0
0
0
0
0
0
0
0
0
0
0
0
0
0
0
0
0
0
0
0
0
0
0
0
0
0
0
0
0
0
0
0
0
0
0
0
0
0
0
0
0
0
0
0
0
0
0
0
0
0
0
0
0
0
0
0
0
0
0
0
0
0
0
0
0
0
0
0
0
0
0
0
0
0
0
0
0
0
0
0
0
0
0
0
0
0
0
0
0
0
0
0
0
0
0
0
0
0
0
0
0
0
0
0
0
0
0
0
0
0
0
0
0
0
0
0
0
0
0
0
0
0
0
0
0
0
0
0
0
0
0
0
0
0
0
0
0
0
0
0
0
0
0
0
0
0
0
0
0
0
0
0
0
0
0
0
0
0
0
0
0
0
0
0
0
0
0
0
0
0
0
0
0
0
0
0
0
0
0
0
0
0
0
0
0
0
0
0
0
0
0
0
0
0
0
0
0
0
0
0
0
0
0
0
0
0
0
0
0
0
0
0
0
0
0
0
0
0
0
0
0
0
0
0
0
0
0
0
0
0
0
0
0
0
0
0
0
0
0
0
0
0
0
0
0
0
0
0
0
0
0
0
0
0
0
0
0
0
0
0
0
0
0
0
0
0
0
0
0
0
0
0
0
0
0
0
0
0
0
0
0
0
0
0
0
0
0
0
0
0
0
0
0
0
0
0
0
0
0
0
0
0
0
0
0
0
0
0
0
0
0
0
0
0
0
0
0
0
0
0
0
0
0
0
0
0
0
0
0
0
0
0
0
0
0
0
0
0
0
0
0
0
0
0
0
0
0
0
0
0
0
0
0
0
0
0
0
0
0
0
0
0
0
0
0
0
0
0
0
0
0
0
0
0
0
0
0
0
0
0
0
0
0
0
0
0
0
0
0
0
0
0
0
0
0
0
0
0
0
0
0
0
0
0
0
0
0
0
0
0
0
0
0
0
0
0
0
0
0
0
0
0
0
0
0
0
0
0
0
0
0
0
0
0
0
0
0
0
0
0
0
0
0
0
0
0
0
0
0
0
0
0
0
0
0
0
0
0
0
0
0
0
0
0
0
0
0
0
0
0
0
0
0
0
0
0
0
0
0
0
0
0
0
0
0
0
0
0
0
0
0
0
0
0
0
0
0
0
0
0
0
0
0
0
0
0
0
0
0
0
0
0
0
0
0
0
0
0
0
0
0
0
0
0
0
0
0
0
0
0
0
0
0
0
0
0
0
0
0
0
0
0
0
0
0
0
0
0
0
0
0
0
0
0
0
0
0
0
0
0
0
0
0
0
0
0
0
0
0
1
1
1
1
1
1
1
1
1
1
1
1
1
1
1
1
1
1
1
1
1
1
1
1
1
1
1
1
1
1
2
2
2
2
2
2
2
2
2
2
2
2
2
2
2
2
2
2
2
2
2
2
2
2
2
2
2
2
2
2
3
3
3
3
3
3
3
3
3
3
3
3
3
3
3
3
3
3
3
3
3
3
3
3
3
3
3
3
3
3
4
4
4
4
4
4
4
4
4
4
4
4
4
4
4
4
4
4
4
4
4
4
4
4
4
4
4
4
4
4

LOOKUP_TABLE FreeFempp_table 5
1.00000000 0.00000000 0.00000000 1.00000000
1.00000000 1.00000000 0.00000000 1.00000000
1.00000000 0.00000000 1.00000000 1.00000000
0.00000000 1.00000000 0.00000000 1.00000000
0.00000000 1.00000000 1.00000000 1.00000000

POINT_DATA 961
FIELD FieldData 1
Density 1 961 float
6.34104371e-01 4.98674899e-01 4.89511877e-01 4.90083694e-01 4.91527647e-01 4.83407468e-01 4.32486176e-01 1.22489184e-01 3.48943169e-03 2.63296557e-03 3.82654089e-03 2.83038944e-01 5.42334199e-01 6.49329364e-01 9.15553689e-01 9.59263682e-01 9.25517797e-01 9.77036536e-01 9.85176563e-01 9.72768009e-01 9.51352656e-01 9.33538198e-01 9.10942852e-01 8.85587513e-01 8.57818127e-01 8.34687173e-01 8.20535541e-01 8.13354194e-01 8.06843579e-01 8.05280209e-01 8.22376847e-01 1.08321547e-03 7.71403895e-04 1.27854198e-03 1.11523876e-03 1.01236906e-03 9.69216053e-04 9.69111861e-04 9.99976648e-04 9.85677354e-04 9.31084272e-04 1.03584852e-03 5.50725199e-02 2.60955960e-01 3.13885927e-01 8.56843472e-01 9.77485836e-01 1.33879464e-02 1.36119137e-02 2.48893559e-01 9.58949149e-01 9.55597341e-01 9.50586081e-01 9.42865372e-01 9.27280605e-01 9.02096331e-01 8.61408055e-01 8.17412853e-01 7.89847851e-01 7.75052488e-01 7.64077544e-01 8.03498983e-01 1.85587152e-04 3.16111749e-04 8.50984186e-04 8.81401764e-04 8.64100701e-04 8.48342024e-04 8.36693682e-04 8.33008904e-04 8.23888928e-04 7.20381504e-04 6.54942531e-04 7.19211181e-04 4.01788987e-02 1.89006820e-01 4.92919922e-01 9.88122821e-01 6.15998451e-03 2.87215784e-03 2.98620970e-03 2.84358975e-03 2.88065802e-03 1.01320921e-02 8.35273117e-02 5.78370690e-01 7.76856720e-01 8.17572951e-01 7.89498031e-01 7.29507208e-01 6.91382706e-01 6.71428859e-01 7.73714006e-01 4.13333178e-01 9.71397944e-03 1.28004618e-03 1.15565863e-03 1.25412643e-03 1.44225988e-03 1.53758645e-03 1.54197344e-03 1.49320310e-03 1.34333328e-03 1.08916638e-03 4.91937390e-04 5.27564669e-04 7.54417211e-04 1.17337401e-03 9.68171358e-01 9.94733572e-01 3.82023468e-03 2.98069394e-03 2.97345687e-03 2.71933316e-03 1.21127698e-03 5.73523110e-04 2.08384590e-03 4.57677012e-03 8.94408152e-02 4.67649341e-01 5.52552819e-01 5.41846931e-01 5.13018966e-01 7.14067876e-01 4.44232672e-01 1.15881465e-01 8.39936063e-02 8.32491294e-02 9.96374860e-02 1.22625642e-01 1.51375026e-01 1.81816876e-01 2.09578246e-01 2.26417616e-01 1.98568538e-01 6.42380258e-03 6.55580836e-04 6.31235016e-04 5.85655624e-04 8.04189302e-04 7.14119698e-04 9.95766759e-01 9.93678272e-01 6.90258853e-03 2.82855122e-03 2.37751077e-03 1.44344009e-03 5.41946094e-04 5.14796702e-04 1.16962299e-03 1.64640304e-02 2.50936329e-01 3.69806439e-01 3.83743256e-01 6.50707543e-01 5.32277286e-01 1.79665610e-01 1.57239228e-01 1.49976373e-01 1.53567746e-01 1.69564068e-01 1.98403299e-01 2.29761019e-01 2.59044856e-01 2.83692241e-01 2.98299044e-01 2.98461944e-01 3.00949216e-01 2.71667868e-01 1.17257726e-03 8.84840672e-04 8.24432238e-04 3.12849268e-04 4.17475705e-04 9.95364070e-01 9.90353405e-01 9.92868245e-01 9.94197726e-01 2.45031086e-03 7.56038062e-04 5.06186159e-04 9.00971936e-04 9.19376407e-03 2.25474373e-01 3.15001428e-01 6.12508595e-01 6.71470344e-01 3.72299701e-01 3.77497017e-01 3.83302689e-01 3.66447300e-01 3.51310104e-01 3.62320215e-01 3.80510956e-01 3.97930503e-01 4.13787723e-01 4.25462544e-01 4.29665416e-01 4.33052838e-01 4.35245842e-01 4.34816629e-01 4.01968569e-01 2.69677311e-01 2.68129050e-04 3.06759524e-04 3.56185163e-04 6.03929281e-01 3.16032290e-01 8.84811044e-01 9.95971739e-01 9.95894313e-01 8.72533943e-04 4.86776436e-04 9.19607410e-04 1.52323050e-02 2.65334100e-01 5.92572570e-01 7.79338717e-01 6.45923376e-01 6.49276912e-01 6.40554547e-01 6.19188428e-01 5.84139228e-01 5.68959057e-01 5.65662444e-01 5.64797223e-01 5.64468741e-01 5.62508404e-01 5.57360232e-01 5.52801013e-01 5.52345395e-01 5.56213498e-01 5.65806866e-01 5.41208327e-01 4.97420430e-01 1.75095364e-01 3.10154399e-04 1.41649344e-03 5.60162065e-04 2.61106505e-03 3.40438914e-03 9.77646172e-01 9.95482445e-01 8.34788429e-04 5.04723634e-04 8.73352808e-04 8.04927349e-02 5.66097796e-01 8.33479524e-01 8.02556932e-01 7.97858834e-01 7.85542548e-01 7.64679730e-01 7.36396968e-01 7.15453923e-01 7.00719416e-01 6.87873006e-01 6.75275683e-01 6.61764145e-01 6.47251368e-01 6.33647084e-01 6.23340011e-01 6.18863344e-01 6.22834086e-01 6.31788552e-01 6.41857684e-01 6.21391892e-01 4.96724635e-01 3.39638232e-03 2.13977939e-04 5.16948290e-04 2.97051528e-03 3.11003882e-03 5.27908444e-01 9.95003104e-01 9.02385102e-04 3.85763240e-04 1.42582844e-03 5.17021358e-01 8.40612292e-01 8.44463944e-01 8.39210510e-01 8.27939332e-01 8.12295973e-01 7.93482780e-01 7.76161909e-01 7.61289179e-01 7.46998072e-01 7.31932998e-01 7.15439677e-01 6.97995961e-01 6.81092441e-01 6.66347563e-01 6.55986905e-01 6.52238309e-01 6.55758560e-01 6.71272755e-01 7.03202188e-01 7.58771539e-01 6.19278193e-01 1.57737192e-02 2.51827785e-03 2.91243009e-03 3.36931529e-03 2.95641366e-03 8.81006002e-01 9.93603468e-01 4.18632873e-04 4.36745468e-04 3.08808953e-01 8.01740587e-01 8.03539336e-01 8.05126429e-01 8.00302207e-01 7.91914821e-01 7.82079697e-01 7.73714006e-01 7.66712427e-01 7.58952439e-01 7.48883784e-01 7.36135542e-01 7.21577644e-01 7.06770241e-01 6.93348408e-01 6.83110893e-01 6.77451432e-01 6.76988184e-01 6.84694946e-01 7.08677053e-01 7.69430637e-01 8.77330482e-01 8.93106639e-01 5.56197949e-02 1.68338753e-02 4.50976379e-03 2.99096084e-03 3.33641609e-03 9.94362652e-01 1.76160387e-03 4.45065205e-04 1.39085925e-03 7.05443978e-01 6.19353473e-01 6.38759375e-01 6.55139863e-01 6.73480272e-01 6.92460656e-01 7.11677670e-01 7.27459133e-01 7.36419797e-01 7.37780273e-01 7.32791841e-01 7.23696709e-01 7.12851524e-01 7.02297986e-01 6.93761528e-01 6.88275397e-01 6.86124086e-01 6.87864065e-01 6.94254637e-01 7.09147751e-01 7.55124867e-01 8.92873764e-01 9.22029793e-01 1.80642784e-01 1.64923128e-02 3.09715536e-03 5.64619713e-03 9.74683046e-01 9.70364749e-01 6.91322668e-04 7.87018624e-04 5.57154953e-01 3.00072074e-01 3.02769274e-01 3.36354315e-01 3.99925172e-01 4.85600263e-01 5.72969675e-01 6.40963554e-01 6.82776034e-01 7.02892423e-01 7.08386540e-01 7.05259025e-01 6.97858989e-01 6.89175010e-01 6.81185246e-01 6.74853325e-01 6.70304179e-01 6.67316258e-01 6.64651573e-01 6.57982826e-01 6.34095013e-01 5.74207842e-01 5.96588433e-01 5.99709570e-01 2.90323347e-01 1.10628247e-01 6.29401445e-01 9.82789695e-01 9.79105353e-01 7.74258689e-04 8.07113771e-04 3.95706892e-01 9.37837958e-02 8.13182592e-02 9.67069119e-02 1.40496224e-01 2.35302553e-01 3.80481303e-01 5.17177701e-01 6.05116367e-01 6.49667978e-01 6.67253733e-01 6.69955671e-01 6.65132999e-01 6.57208920e-01 6.48802936e-01 6.41133010e-01 6.34274423e-01 6.27426863e-01 6.18728578e-01 6.04659021e-01 5.76838970e-01 5.11587262e-01 3.89293283e-01 3.16902846e-01 3.76075327e-01 6.27719641e-01 9.21556056e-01 9.81465876e-01 9.77670193e-01 5.96959144e-04 6.34383294e-04 2.65597999e-01 3.79949920e-02 3.19674835e-02 3.56928445e-02 5.05215526e-02 1.01735972e-01 2.29801968e-01 4.00062740e-01 5.25546670e-01 5.91744483e-01 6.19956374e-01 6.27458811e-01 6.24249160e-01 6.16081238e-01 6.06375456e-01 5.96981645e-01 5.88465869e-01 5.80150366e-01 5.69941640e-01 5.54699659e-01 5.31406105e-01 4.99839514e-01 4.57879484e-01 4.19237465e-01 5.24286985e-01 7.91252732e-01 9.43286777e-01 9.77736652e-01 9.68642771e-01 5.39363595e-04 4.65049059e-04 1.73320457e-01 2.30315719e-02 1.77367404e-02 2.14247517e-02 3.04115247e-02 5.93469217e-02 1.60030708e-01 3.29906166e-01 4.69135225e-01 5.45564592e-01 5.79564035e-01 5.89846194e-01 5.87262213e-01 5.78140259e-01 5.66478968e-01 5.54886401e-01 5.44931173e-01 5.37173390e-01 5.31114101e-01 5.25844991e-01 5.21976411e-01 5.24721146e-01 5.47380507e-01 5.99343956e-01 7.13810861e-01 8.70647669e-01 9.53374624e-01 9.73603010e-01 9.38981950e-01 5.92620636e-04 4.10347449e-04 1.05336159e-01 1.20846303e-02 8.38477071e-03 1.22885136e-02 2.44506523e-02 5.03685363e-02 1.46601066e-01 3.11274588e-01 4.45155799e-01 5.19631267e-01 5.53942621e-01 5.65029025e-01 5.62739730e-01 5.53052962e-01 5.40107250e-01 5.27138054e-01 5.16874313e-01 5.11602521e-01 5.13201177e-01 5.23772061e-01 5.46990991e-01 5.88324130e-01 6.51392817e-01 7.32725859e-01 8.19728196e-01 9.03887451e-01 9.56548214e-01 9.69677389e-01 7.72677720e-01 8.19705077e-04 5.35382074e-04 5.62189519e-02 5.56915114e-03 4.50392952e-03 7.82547239e-03 2.35113986e-02 5.76007329e-02 1.72215402e-01 3.31490725e-01 4.47806418e-01 5.12281060e-01 5.43302000e-01 5.54347634e-01 5.53201616e-01 5.44815600e-01 5.32994568e-01 5.21263242e-01 5.13325453e-01 5.13100863e-01 5.24501681e-01 5.51463068e-01 5.97962618e-01 6.65271163e-01 7.41602659e-01 8.11847746e-01 8.73548090e-01 9.26863134e-01 9.59423721e-01 9.58563030e-01 9.52054262e-02 1.32565422e-03 9.90831177e-04 2.89609693e-02 3.21771251e-03 3.15902894e-03 6.46665832e-03 2.72985995e-02 8.55153054e-02 2.30359197e-01 3.73247385e-01 4.64696854e-01 5.16107380e-01 5.43008804e-01 5.54744720e-01 5.56708157e-01 5.52577257e-01 5.45535982e-01 5.38947523e-01 5.36872268e-01 5.44165790e-01 5.65726280e-01 6.05260611e-01 6.63974643e-01 7.36922324e-01 8.05069625e-01 8.56742024e-01 9.02093172e-01 9.40566957e-01 9.57862556e-01 8.60054135e-01 1.28532117e-02 2.10972223e-03 2.12405669e-03 1.19006988e-02 2.70819641e-03 2.75939074e-03 7.35013979e-03 3.75947319e-02 1.48547381e-01 3.07460487e-01 4.18103188e-01 4.83494163e-01 5.22978187e-01 5.47262013e-01 5.61618268e-01 5.69131732e-01 5.72305918e-01 5.73742270e-01 5.76358497e-01 5.83701611e-01 6.00137055e-01 6.29773259e-01 6.74153447e-01 7.31055021e-01 7.93418705e-01 8.44735503e-01 8.82305741e-01 9.18390930e-01 9.44123447e-01 9.36223447e-01 1.23199046e-01 3.44775990e-03 2.56028725e-03 3.50611168e-03 5.37598599e-03 2.68010865e-03 2.68261251e-03 1.18173463e-02 6.96981549e-02 2.47776285e-01 3.80167663e-01 4.52383131e-01 4.96163607e-01 5.27314007e-01 5.51460624e-01 5.70433915e-01 5.85320175e-01 5.97655594e-01 6.09651804e-01 6.23809457e-01 6.42561495e-01 6.68290555e-01 7.02662110e-01 7.44997740e-01 7.90914118e-01 8.34377527e-01 8.66696954e-01 8.94458294e-01 9.25018132e-01 9.33588147e-01 7.01253414e-01 1.49622345e-02 2.61051836e-03 2.59827194e-03 4.12008958e-03 4.30378318e-03 2.69304053e-03 2.69296882e-03 2.25783326e-02 1.57275841e-01 3.50697786e-01 4.30773973e-01 4.70615536e-01 4.99729484e-01 5.26582658e-01 5.52641571e-01 5.77210128e-01 5.99853933e-01 6.21354640e-01 6.43666327e-01 6.69035673e-01 6.98755622e-01 7.32751727e-01 7.69863188e-01 8.07649016e-01 8.42103422e-01 8.67902577e-01 8.80624890e-01 8.98493767e-01 9.18171704e-01 8.49366784e-01 4.47563007e-02 4.24675271e-03 2.61918339e-03 2.60404008e-03 5.22252871e-03 4.22222866e-03 2.71470356e-03 2.98006763e-03 4.15242277e-02 2.96144128e-01 4.23778564e-01 4.55401629e-01 4.73579854e-01 4.94474888e-01 5.20141482e-01 5.49106300e-01 5.79093754e-01 6.08714998e-01 6.38213575e-01 6.69284999e-01 7.03954756e-01 7.42686391e-01 7.83298850e-01 8.22304189e-01 8.56140673e-01 8.83335173e-01 9.03018832e-01 9.05487239e-01 8.83897066e-01 7.63250887e-01 7.09423572e-02 6.63184095e-03 2.79633398e-03 2.67105014e-03 2.88595026e-03 1.96038689e-02 3.82216345e-03 2.67262361e-03 5.46946190e-03 1.16885982e-01 4.10878927e-01 4.59156752e-01 4.58513319e-01 4.64516044e-01 4.81804222e-01 5.08067191e-01 5.40014625e-01 5.74608743e-01 6.09989345e-01 6.45918369e-01 6.83516562e-01 7.24190950e-01 7.67903268e-01 8.11958313e-01 8.52540970e-01 8.86038065e-01 9.09915626e-01 9.26501513e-01 9.27087188e-01 8.10763061e-01 4.13353816e-02 5.89910056e-03 3.39502748e-03 2.94249482e-03 3.28857801e-03 9.68940370e-03 1.00914650e-01 2.96442630e-03 2.42759218e-03 1.81994922e-02 2.93556571e-01 4.67338860e-01 4.61863667e-01 4.45156723e-01 4.46260214e-01 4.62870181e-01 4.90379333e-01 5.24753988e-01 5.62853634e-01 6.02656603e-01 6.43347442e-01 6.85080588e-01 7.28367984e-01 7.73232400e-01 8.18295240e-01 8.60676348e-01 8.96970928e-01 9.22343433e-01 9.38155413e-01 9.29992437e-01 7.76843786e-01 4.62590605e-02 8.30789190e-03 4.24961234e-03 5.50215226e-03 1.76705364e-02 6.86960816e-02 5.10982811e-01 2.00538780e-03 1.93733082e-03 5.12318164e-02 4.50763702e-01 4.77829188e-01 4.41024035e-01 4.20215696e-01 4.21284378e-01 4.38533694e-01 4.66867059e-01 5.02507687e-01 5.42736948e-01 5.85593879e-01 6.29669547e-01 6.74018085e-01 7.18165696e-01 7.62128055e-01 8.06034267e-01 8.48627210e-01 8.87168765e-01 9.17605162e-01 9.34917569e-01 9.32683647e-01 8.55891228e-01 2.25876614e-01 3.96556966e-02 5.07552586e-02 3.15330237e-01 8.11596334e-01 8.90192032e-01 8.45460474e-01 1.36753591e-03 1.45666511e-03 2.11159512e-01 4.91471320e-01 4.56992269e-01 4.09150302e-01 3.90123159e-01 3.92605901e-01 4.09863472e-01 4.37410623e-01 4.72409576e-01 5.12984931e-01 5.57528198e-01 6.04221523e-01 6.51040792e-01 6.96262479e-01 7.39185333e-01 7.80390441e-01 8.20777893e-01 8.59285533e-01 8.92901957e-01 9.17157471e-01 9.25868988e-01 9.07979846e-01 8.25298548e-01 7.79860914e-01 8.85111213e-01 9.31387544e-01 9.27268445e-01 9.19732094e-01 8.94411623e-01 1.00607052e-03 1.13001512e-03 3.80075306e-01 4.69569534e-01 4.14709032e-01 3.72949332e-01 3.58721375e-01 3.62432510e-01 3.78032148e-01 4.02392119e-01 4.34117764e-01 4.72640038e-01 5.17264724e-01 5.66331863e-01 6.16959214e-01 6.65738344e-01 7.10110545e-01 7.49480665e-01 7.85135329e-01 8.18906307e-01 8.50945711e-01 8.79189789e-01 8.98269534e-01 9.01146710e-01 8.88073742e-01 8.78766537e-01 8.76273692e-01 8.61178219e-01 8.40915561e-01 8.39856029e-01 8.55362952e-01 8.56017869e-04 9.24961700e-04 4.81657773e-01 4.22184229e-01 3.60531181e-01 3.34525496e-01 3.28203291e-01 3.32740694e-01 3.44631582e-01 3.62903893e-01 3.87960970e-01 4.20888126e-01 4.62627649e-01 5.12888730e-01 5.69151819e-01 6.26650393e-01 6.79959536e-01 7.25314736e-01 7.61821628e-01 7.91055858e-01 8.16050172e-01 8.38822961e-01 8.57040823e-01 8.62749636e-01 8.47624302e-01 8.11107218e-01 7.59835899e-01 7.09763348e-01 6.82560325e-01 6.99769318e-01 7.96887875e-01 7.03244470e-04 8.55994003e-04 6.15938783e-01 3.76280189e-01 3.20347428e-01 3.07811111e-01 3.04503381e-01 3.04924905e-01 3.08903456e-01 3.17588061e-01 3.32893431e-01 3.57347310e-01 3.93754661e-01 4.44331944e-01 5.09032488e-01 5.83574235e-01 6.59227133e-01 7.26106644e-01 7.77656496e-01 8.12092721e-01 8.30822587e-01 8.36394668e-01 8.29384446e-01 8.07002544e-01 7.66161263e-01 7.06962645e-01 6.35951698e-01 5.69474936e-01 5.22928536e-01 5.29577017e-01 7.35707939e-01 2.30368436e-03 1.08860969e-03 9.32939768e-01 6.38607204e-01 6.10180020e-01 5.97770452e-01 5.90867639e-01 5.86589396e-01 5.84537268e-01 5.85419893e-01 5.90524554e-01 6.01304471e-01 6.18952215e-01 6.43939614e-01 6.75589323e-01 7.11848617e-01 7.49492466e-01 7.84813643e-01 8.14464927e-01 8.35931361e-01 8.47456217e-01 8.47758412e-01 8.35406125e-01 8.09516132e-01 7.75293589e-01 7.44136512e-01 7.20003545e-01 6.95997953e-01 6.69866860e-01 6.52300060e-01 7.34129488e-01 
