# vtk DataFile Version 2.0
results_case1_non_linear/iter6.vtk, Created by Freefem++ 
ASCII
DATASET UNSTRUCTURED_GRID
POINTS 961 float
0 0 0
0.033333333 0 0
0.066666667 0 0
0.1 0 0
0.13333333 0 0
0.16666667 0 0
0.2 0 0
0.23333333 0 0
0.26666667 0 0
0.3 0 0
0.33333333 0 0
0.36666667 0 0
0.4 0 0
0.43333333 0 0
0.46666667 0 0
0.5 0 0
0.53333333 0 0
0.56666667 0 0
0.6 0 0
0.63333333 0 0
0.66666667 0 0
0.7 0 0
0.73333333 0 0
0.76666667 0 0
0.8 0 0
0.83333333 0 0
0.86666667 0 0
0.9 0 0
0.93333333 0 0
0.96666667 0 0
1 0 0
0 0.033333333 0
0.033333333 0.033333333 0
0.066666667 0.033333333 0
0.1 0.033333333 0
0.13333333 0.033333333 0
0.16666667 0.033333333 0
0.2 0.033333333 0
0.23333333 0.033333333 0
0.26666667 0.033333333 0
0.3 0.033333333 0
0.33333333 0.033333333 0
0.36666667 0.033333333 0
0.4 0.033333333 0
0.43333333 0.033333333 0
0.46666667 0.033333333 0
0.5 0.033333333 0
0.53333333 0.033333333 0
0.56666667 0.033333333 0
0.6 0.033333333 0
0.63333333 0.033333333 0
0.66666667 0.033333333 0
0.7 0.033333333 0
0.73333333 0.033333333 0
0.76666667 0.033333333 0
0.8 0.033333333 0
0.83333333 0.033333333 0
0.86666667 0.033333333 0
0.9 0.033333333 0
0.93333333 0.033333333 0
0.96666667 0.033333333 0
1 0.033333333 0
0 0.066666667 0
0.033333333 0.066666667 0
0.066666667 0.066666667 0
0.1 0.066666667 0
0.13333333 0.066666667 0
0.16666667 0.066666667 0
0.2 0.066666667 0
0.23333333 0.066666667 0
0.26666667 0.066666667 0
0.3 0.066666667 0
0.33333333 0.066666667 0
0.36666667 0.066666667 0
0.4 0.066666667 0
0.43333333 0.066666667 0
0.46666667 0.066666667 0
0.5 0.066666667 0
0.53333333 0.066666667 0
0.56666667 0.066666667 0
0.6 0.066666667 0
0.63333333 0.066666667 0
0.66666667 0.066666667 0
0.7 0.066666667 0
0.73333333 0.066666667 0
0.76666667 0.066666667 0
0.8 0.066666667 0
0.83333333 0.066666667 0
0.86666667 0.066666667 0
0.9 0.066666667 0
0.93333333 0.066666667 0
0.96666667 0.066666667 0
1 0.066666667 0
0 0.1 0
0.033333333 0.1 0
0.066666667 0.1 0
0.1 0.1 0
0.13333333 0.1 0
0.16666667 0.1 0
0.2 0.1 0
0.23333333 0.1 0
0.26666667 0.1 0
0.3 0.1 0
0.33333333 0.1 0
0.36666667 0.1 0
0.4 0.1 0
0.43333333 0.1 0
0.46666667 0.1 0
0.5 0.1 0
0.53333333 0.1 0
0.56666667 0.1 0
0.6 0.1 0
0.63333333 0.1 0
0.66666667 0.1 0
0.7 0.1 0
0.73333333 0.1 0
0.76666667 0.1 0
0.8 0.1 0
0.83333333 0.1 0
0.86666667 0.1 0
0.9 0.1 0
0.93333333 0.1 0
0.96666667 0.1 0
1 0.1 0
0 0.13333333 0
0.033333333 0.13333333 0
0.066666667 0.13333333 0
0.1 0.13333333 0
0.13333333 0.13333333 0
0.16666667 0.13333333 0
0.2 0.13333333 0
0.23333333 0.13333333 0
0.26666667 0.13333333 0
0.3 0.13333333 0
0.33333333 0.13333333 0
0.36666667 0.13333333 0
0.4 0.13333333 0
0.43333333 0.13333333 0
0.46666667 0.13333333 0
0.5 0.13333333 0
0.53333333 0.13333333 0
0.56666667 0.13333333 0
0.6 0.13333333 0
0.63333333 0.13333333 0
0.66666667 0.13333333 0
0.7 0.13333333 0
0.73333333 0.13333333 0
0.76666667 0.13333333 0
0.8 0.13333333 0
0.83333333 0.13333333 0
0.86666667 0.13333333 0
0.9 0.13333333 0
0.93333333 0.13333333 0
0.96666667 0.13333333 0
1 0.13333333 0
0 0.16666667 0
0.033333333 0.16666667 0
0.066666667 0.16666667 0
0.1 0.16666667 0
0.13333333 0.16666667 0
0.16666667 0.16666667 0
0.2 0.16666667 0
0.23333333 0.16666667 0
0.26666667 0.16666667 0
0.3 0.16666667 0
0.33333333 0.16666667 0
0.36666667 0.16666667 0
0.4 0.16666667 0
0.43333333 0.16666667 0
0.46666667 0.16666667 0
0.5 0.16666667 0
0.53333333 0.16666667 0
0.56666667 0.16666667 0
0.6 0.16666667 0
0.63333333 0.16666667 0
0.66666667 0.16666667 0
0.7 0.16666667 0
0.73333333 0.16666667 0
0.76666667 0.16666667 0
0.8 0.16666667 0
0.83333333 0.16666667 0
0.86666667 0.16666667 0
0.9 0.16666667 0
0.93333333 0.16666667 0
0.96666667 0.16666667 0
1 0.16666667 0
0 0.2 0
0.033333333 0.2 0
0.066666667 0.2 0
0.1 0.2 0
0.13333333 0.2 0
0.16666667 0.2 0
0.2 0.2 0
0.23333333 0.2 0
0.26666667 0.2 0
0.3 0.2 0
0.33333333 0.2 0
0.36666667 0.2 0
0.4 0.2 0
0.43333333 0.2 0
0.46666667 0.2 0
0.5 0.2 0
0.53333333 0.2 0
0.56666667 0.2 0
0.6 0.2 0
0.63333333 0.2 0
0.66666667 0.2 0
0.7 0.2 0
0.73333333 0.2 0
0.76666667 0.2 0
0.8 0.2 0
0.83333333 0.2 0
0.86666667 0.2 0
0.9 0.2 0
0.93333333 0.2 0
0.96666667 0.2 0
1 0.2 0
0 0.23333333 0
0.033333333 0.23333333 0
0.066666667 0.23333333 0
0.1 0.23333333 0
0.13333333 0.23333333 0
0.16666667 0.23333333 0
0.2 0.23333333 0
0.23333333 0.23333333 0
0.26666667 0.23333333 0
0.3 0.23333333 0
0.33333333 0.23333333 0
0.36666667 0.23333333 0
0.4 0.23333333 0
0.43333333 0.23333333 0
0.46666667 0.23333333 0
0.5 0.23333333 0
0.53333333 0.23333333 0
0.56666667 0.23333333 0
0.6 0.23333333 0
0.63333333 0.23333333 0
0.66666667 0.23333333 0
0.7 0.23333333 0
0.73333333 0.23333333 0
0.76666667 0.23333333 0
0.8 0.23333333 0
0.83333333 0.23333333 0
0.86666667 0.23333333 0
0.9 0.23333333 0
0.93333333 0.23333333 0
0.96666667 0.23333333 0
1 0.23333333 0
0 0.26666667 0
0.033333333 0.26666667 0
0.066666667 0.26666667 0
0.1 0.26666667 0
0.13333333 0.26666667 0
0.16666667 0.26666667 0
0.2 0.26666667 0
0.23333333 0.26666667 0
0.26666667 0.26666667 0
0.3 0.26666667 0
0.33333333 0.26666667 0
0.36666667 0.26666667 0
0.4 0.26666667 0
0.43333333 0.26666667 0
0.46666667 0.26666667 0
0.5 0.26666667 0
0.53333333 0.26666667 0
0.56666667 0.26666667 0
0.6 0.26666667 0
0.63333333 0.26666667 0
0.66666667 0.26666667 0
0.7 0.26666667 0
0.73333333 0.26666667 0
0.76666667 0.26666667 0
0.8 0.26666667 0
0.83333333 0.26666667 0
0.86666667 0.26666667 0
0.9 0.26666667 0
0.93333333 0.26666667 0
0.96666667 0.26666667 0
1 0.26666667 0
0 0.3 0
0.033333333 0.3 0
0.066666667 0.3 0
0.1 0.3 0
0.13333333 0.3 0
0.16666667 0.3 0
0.2 0.3 0
0.23333333 0.3 0
0.26666667 0.3 0
0.3 0.3 0
0.33333333 0.3 0
0.36666667 0.3 0
0.4 0.3 0
0.43333333 0.3 0
0.46666667 0.3 0
0.5 0.3 0
0.53333333 0.3 0
0.56666667 0.3 0
0.6 0.3 0
0.63333333 0.3 0
0.66666667 0.3 0
0.7 0.3 0
0.73333333 0.3 0
0.76666667 0.3 0
0.8 0.3 0
0.83333333 0.3 0
0.86666667 0.3 0
0.9 0.3 0
0.93333333 0.3 0
0.96666667 0.3 0
1 0.3 0
0 0.33333333 0
0.033333333 0.33333333 0
0.066666667 0.33333333 0
0.1 0.33333333 0
0.13333333 0.33333333 0
0.16666667 0.33333333 0
0.2 0.33333333 0
0.23333333 0.33333333 0
0.26666667 0.33333333 0
0.3 0.33333333 0
0.33333333 0.33333333 0
0.36666667 0.33333333 0
0.4 0.33333333 0
0.43333333 0.33333333 0
0.46666667 0.33333333 0
0.5 0.33333333 0
0.53333333 0.33333333 0
0.56666667 0.33333333 0
0.6 0.33333333 0
0.63333333 0.33333333 0
0.66666667 0.33333333 0
0.7 0.33333333 0
0.73333333 0.33333333 0
0.76666667 0.33333333 0
0.8 0.33333333 0
0.83333333 0.33333333 0
0.86666667 0.33333333 0
0.9 0.33333333 0
0.93333333 0.33333333 0
0.96666667 0.33333333 0
1 0.33333333 0
0 0.36666667 0
0.033333333 0.36666667 0
0.066666667 0.36666667 0
0.1 0.36666667 0
0.13333333 0.36666667 0
0.16666667 0.36666667 0
0.2 0.36666667 0
0.23333333 0.36666667 0
0.26666667 0.36666667 0
0.3 0.36666667 0
0.33333333 0.36666667 0
0.36666667 0.36666667 0
0.4 0.36666667 0
0.43333333 0.36666667 0
0.46666667 0.36666667 0
0.5 0.36666667 0
0.53333333 0.36666667 0
0.56666667 0.36666667 0
0.6 0.36666667 0
0.63333333 0.36666667 0
0.66666667 0.36666667 0
0.7 0.36666667 0
0.73333333 0.36666667 0
0.76666667 0.36666667 0
0.8 0.36666667 0
0.83333333 0.36666667 0
0.86666667 0.36666667 0
0.9 0.36666667 0
0.93333333 0.36666667 0
0.96666667 0.36666667 0
1 0.36666667 0
0 0.4 0
0.033333333 0.4 0
0.066666667 0.4 0
0.1 0.4 0
0.13333333 0.4 0
0.16666667 0.4 0
0.2 0.4 0
0.23333333 0.4 0
0.26666667 0.4 0
0.3 0.4 0
0.33333333 0.4 0
0.36666667 0.4 0
0.4 0.4 0
0.43333333 0.4 0
0.46666667 0.4 0
0.5 0.4 0
0.53333333 0.4 0
0.56666667 0.4 0
0.6 0.4 0
0.63333333 0.4 0
0.66666667 0.4 0
0.7 0.4 0
0.73333333 0.4 0
0.76666667 0.4 0
0.8 0.4 0
0.83333333 0.4 0
0.86666667 0.4 0
0.9 0.4 0
0.93333333 0.4 0
0.96666667 0.4 0
1 0.4 0
0 0.43333333 0
0.033333333 0.43333333 0
0.066666667 0.43333333 0
0.1 0.43333333 0
0.13333333 0.43333333 0
0.16666667 0.43333333 0
0.2 0.43333333 0
0.23333333 0.43333333 0
0.26666667 0.43333333 0
0.3 0.43333333 0
0.33333333 0.43333333 0
0.36666667 0.43333333 0
0.4 0.43333333 0
0.43333333 0.43333333 0
0.46666667 0.43333333 0
0.5 0.43333333 0
0.53333333 0.43333333 0
0.56666667 0.43333333 0
0.6 0.43333333 0
0.63333333 0.43333333 0
0.66666667 0.43333333 0
0.7 0.43333333 0
0.73333333 0.43333333 0
0.76666667 0.43333333 0
0.8 0.43333333 0
0.83333333 0.43333333 0
0.86666667 0.43333333 0
0.9 0.43333333 0
0.93333333 0.43333333 0
0.96666667 0.43333333 0
1 0.43333333 0
0 0.46666667 0
0.033333333 0.46666667 0
0.066666667 0.46666667 0
0.1 0.46666667 0
0.13333333 0.46666667 0
0.16666667 0.46666667 0
0.2 0.46666667 0
0.23333333 0.46666667 0
0.26666667 0.46666667 0
0.3 0.46666667 0
0.33333333 0.46666667 0
0.36666667 0.46666667 0
0.4 0.46666667 0
0.43333333 0.46666667 0
0.46666667 0.46666667 0
0.5 0.46666667 0
0.53333333 0.46666667 0
0.56666667 0.46666667 0
0.6 0.46666667 0
0.63333333 0.46666667 0
0.66666667 0.46666667 0
0.7 0.46666667 0
0.73333333 0.46666667 0
0.76666667 0.46666667 0
0.8 0.46666667 0
0.83333333 0.46666667 0
0.86666667 0.46666667 0
0.9 0.46666667 0
0.93333333 0.46666667 0
0.96666667 0.46666667 0
1 0.46666667 0
0 0.5 0
0.033333333 0.5 0
0.066666667 0.5 0
0.1 0.5 0
0.13333333 0.5 0
0.16666667 0.5 0
0.2 0.5 0
0.23333333 0.5 0
0.26666667 0.5 0
0.3 0.5 0
0.33333333 0.5 0
0.36666667 0.5 0
0.4 0.5 0
0.43333333 0.5 0
0.46666667 0.5 0
0.5 0.5 0
0.53333333 0.5 0
0.56666667 0.5 0
0.6 0.5 0
0.63333333 0.5 0
0.66666667 0.5 0
0.7 0.5 0
0.73333333 0.5 0
0.76666667 0.5 0
0.8 0.5 0
0.83333333 0.5 0
0.86666667 0.5 0
0.9 0.5 0
0.93333333 0.5 0
0.96666667 0.5 0
1 0.5 0
0 0.53333333 0
0.033333333 0.53333333 0
0.066666667 0.53333333 0
0.1 0.53333333 0
0.13333333 0.53333333 0
0.16666667 0.53333333 0
0.2 0.53333333 0
0.23333333 0.53333333 0
0.26666667 0.53333333 0
0.3 0.53333333 0
0.33333333 0.53333333 0
0.36666667 0.53333333 0
0.4 0.53333333 0
0.43333333 0.53333333 0
0.46666667 0.53333333 0
0.5 0.53333333 0
0.53333333 0.53333333 0
0.56666667 0.53333333 0
0.6 0.53333333 0
0.63333333 0.53333333 0
0.66666667 0.53333333 0
0.7 0.53333333 0
0.73333333 0.53333333 0
0.76666667 0.53333333 0
[...]
CELL_DATA 1920
Scalars  Label int 1
LOOKUP_TABLE FreeFempp_table
0
0
0
0
0
0
0
0
0
0
0
0
0
0
0
0
0
0
0
0
0
0
0
0
0
0
0
0
0
0
0
0
0
0
0
0
0
0
0
0
0
0
0
0
0
0
0
0
0
0
0
0
0
0
0
0
0
0
0
0
0
0
0
0
0
0
0
0
0
0
0
0
0
0
0
0
0
0
0
0
0
0
0
0
0
0
0
0
0
0
0
0
0
0
0
0
0
0
0
0
0
0
0
0
0
0
0
0
0
0
0
0
0
0
0
0
0
0
0
0
0
0
0
0
0
0
0
0
0
0
0
0
0
0
0
0
0
0
0
0
0
0
0
0
0
0
0
0
0
0
0
0
0
0
0
0
0
0
0
0
0
0
0
0
0
0
0
0
0
0
0
0
0
0
0
0
0
0
0
0
0
0
0
0
0
0
0
0
0
0
0
0
0
0
0
0
0
0
0
0
0
0
0
0
0
0
0
0
0
0
0
0
0
0
0
0
0
0
0
0
0
0
0
0
0
0
0
0
0
0
0
0
0
0
0
0
0
0
0
0
0
0
0
0
0
0
0
0
0
0
0
0
0
0
0
0
0
0
0
0
0
0
0
0
0
0
0
0
0
0
0
0
0
0
0
0
0
0
0
0
0
0
0
0
0
0
0
0
0
0
0
0
0
0
0
0
0
0
0
0
0
0
0
0
0
0
0
0
0
0
0
0
0
0
0
0
0
0
0
0
0
0
0
0
0
0
0
0
0
0
0
0
0
0
0
0
0
0
0
0
0
0
0
0
0
0
0
0
0
0
0
0
0
0
0
0
0
0
0
0
0
0
0
0
0
0
0
0
0
0
0
0
0
0
0
0
0
0
0
0
0
0
0
0
0
0
0
0
0
0
0
0
0
0
0
0
0
0
0
0
0
0
0
0
0
0
0
0
0
0
0
0
0
0
0
0
0
0
0
0
0
0
0
0
0
0
0
0
0
0
0
0
0
0
0
0
0
0
0
0
0
0
0
0
0
0
0
0
0
0
0
0
0
0
0
0
0
0
0
0
0
0
0
0
0
0
0
0
0
0
0
0
0
0
0
0
0
0
0
0
0
0
0
0
0
0
0
0
0
0
0
0
0
0
0
0
0
0
0
0
0
0
0
0
0
0
0
0
0
0
0
0
0
0
0
0
0
0
0
0
0
0
0
0
0
0
0
0
0
0
0
0
0
0
0
0
0
0
0
0
0
0
0
0
0
0
0
0
0
0
0
0
0
0
0
0
0
0
0
0
0
0
0
0
0
0
0
0
0
0
0
0
0
0
0
0
0
0
0
0
0
0
0
0
0
0
0
0
0
0
0
0
0
0
0
0
0
0
0
0
0
0
0
0
0
0
0
0
0
0
0
0
0
0
0
0
0
0
0
0
0
0
0
0
0
0
0
0
0
0
0
0
0
0
0
0
0
0
0
0
0
0
0
0
0
0
0
0
0
0
0
0
0
0
0
0
0
0
0
0
0
0
0
0
0
0
0
0
0
0
0
0
0
0
0
0
0
0
0
0
0
0
0
0
0
0
0
0
0
0
0
0
0
0
0
0
0
0
0
0
0
0
0
0
0
0
0
0
0
0
0
0
0
0
0
0
0
0
0
0
0
0
0
0
0
0
0
0
0
0
0
0
0
0
0
0
0
0
0
0
0
0
0
0
0
0
0
0
0
0
0
0
0
0
0
0
0
0
0
0
0
0
0
0
0
0
0
0
0
0
0
0
0
0
0
0
0
0
0
0
0
0
0
0
0
0
0
0
0
0
0
0
0
0
0
0
0
0
0
0
0
0
0
0
0
0
0
0
0
0
0
0
0
0
0
0
0
0
0
0
0
0
0
0
0
0
0
0
0
0
0
0
0
0
0
0
0
0
0
0
0
0
0
0
0
0
0
0
0
0
0
0
0
0
0
0
0
0
0
0
0
0
0
0
0
0
0
0
0
0
0
0
0
0
0
0
0
0
0
0
0
0
0
0
0
0
0
0
0
0
0
0
0
0
0
0
0
0
0
0
0
0
0
0
0
0
0
0
0
0
0
0
0
0
0
0
0
0
0
0
0
0
0
0
0
0
0
0
0
0
0
0
0
0
0
0
0
0
0
0
0
0
0
0
0
0
0
0
0
0
0
0
0
0
0
0
0
0
0
0
0
0
0
0
0
0
0
0
0
0
0
0
0
0
0
0
0
0
0
0
0
0
0
0
0
0
0
0
0
0
0
0
0
0
0
0
0
0
0
0
0
0
0
0
0
0
0
0
0
0
0
0
0
0
0
0
0
0
0
0
0
0
0
0
0
0
0
0
0
0
0
0
0
0
0
0
0
0
0
0
0
0
0
0
0
0
0
0
0
0
0
0
0
0
0
0
0
0
0
0
0
0
0
0
0
0
0
0
0
0
0
0
0
0
0
0
0
0
0
0
0
0
0
0
0
0
0
0
0
0
0
0
0
0
0
0
0
0
0
0
0
0
0
0
0
0
0
0
0
0
0
0
0
0
0
0
0
0
0
0
0
0
0
0
0
0
0
0
0
0
0
0
0
0
0
0
0
0
0
0
0
0
0
0
0
0
0
0
0
0
0
0
0
0
0
0
0
0
0
0
0
0
0
0
0
0
0
0
0
0
0
0
0
0
0
0
0
0
0
0
0
0
0
0
0
0
0
0
0
0
0
0
0
0
0
0
0
0
0
0
0
0
0
0
0
0
0
0
0
0
0
0
0
0
0
0
0
0
0
0
0
0
0
0
0
0
0
0
0
0
0
0
0
0
0
0
0
0
0
0
0
0
0
0
0
0
0
0
0
0
0
0
0
0
0
0
0
0
0
0
0
0
0
0
0
0
0
0
0
0
0
0
0
0
0
0
0
0
0
0
0
0
0
0
0
0
0
0
0
0
0
0
0
0
0
0
0
0
0
0
0
0
0
0
0
0
0
0
0
0
0
0
0
0
0
0
0
0
0
0
0
0
0
0
0
0
0
0
0
0
0
0
0
0
0
0
0
0
0
0
0
0
0
0
0
0
0
0
0
0
0
0
0
0
0
0
0
0
0
0
0
0
0
0
0
0
0
0
0
0
0
0
0
0
0
0
0
0
0
0
0
0
0
0
0
0
0
0
0
0
0
0
0
0
0
0
0
0
0
0
0
0
0
0
0
0
0
0
0
0
0
0
0
0
0
0
0
0
0
0
0
0
0
0
0
0
0
0
0
0
0
0
0
0
0
0
0
0
0
0
0
0
0
0
0
0
0
0
0
0
0
0
0
0
0
0
0
0
0
0
0
0
0
0
0
0
0
0
0
0
0
0
0
0
0
0
0
0
0
0
0
0
0
0
0
0
0
0
0
0
0
0
0
0
0
0
0
0
0
0
0
0
0
0
0
0
0
0
0
0
0
0
0
0
0
0
0
0
0
0
0
0
0
0
0
0
0
0
0
0
0
0
0
0
0
0
0
0
0
0
0
0
0
0
0
0
0
0
0
0
0
0
0
0
0
0
0
0
0
0
0
0
0
0
0
0
0
0
0
0
0
0
0
0
0
0
0
0
0
0
0
0
0
0
0
0
0
0
0
0
0
0
0
0
0
0
0
0
0
0
0
0
0
0
0
0
0
0
0
0
0
0
0
0
0
0
0
0
0
0
0
0
0
0
0
0
0
0
0
0
0
0
0
0
0
0
0
0
0
0
0
0
0
0
0
0
0
0
0
0
0
0
0
0
0
0
0
0
0
0
0
0
0
0
0
0
0
0
0
0
0
0
0
0
0
0
0
0
0
0
0
0
0
0
0
0
0
0
0
0
0
0
0
0
0
0
0
0
0
0
0
0
0
0
0
0
0
0
0
0
0
0
0
0
0
0
0
0
0
0
0
0
0
0
0
0
0
0
0
0
0
0
0
0
0
0
0
0
0
0
0
0
0
0
0
0
0
0
0
0
0
0
0
0
0
0
0
0
0
0
0
0
0
0
0
0
0
0
0
0
0
0
0
0
0
0
0
0
0
0
0
0
0
0
0
0
0
0
0
0
0
0
0
0
0
0
0
0
0
0
1
1
1
1
1
1
1
1
1
1
1
1
1
1
1
1
1
1
1
1
1
1
1
1
1
1
1
1
1
1
2
2
2
2
2
2
2
2
2
2
2
2
2
2
2
2
2
2
2
2
2
2
2
2
2
2
2
2
2
2
3
3
3
3
3
3
3
3
3
3
3
3
3
3
3
3
3
3
3
3
3
3
3
3
3
3
3
3
3
3
4
4
4
4
4
4
4
4
4
4
4
4
4
4
4
4
4
4
4
4
4
4
4
4
4
4
4
4
4
4

LOOKUP_TABLE FreeFempp_table 5
1.00000000 0.00000000 0.00000000 1.00000000
1.00000000 1.00000000 0.00000000 1.00000000
1.00000000 0.00000000 1.00000000 1.00000000
0.00000000 1.00000000 0.00000000 1.00000000
0.00000000 1.00000000 1.00000000 1.00000000

POINT_DATA 961
FIELD FieldData 1
Density 1 961 float
5.95794201e-01 4.93634909e-01 4.83290583e-01 4.78978306e-01 4.76439208e-01 4.73290712e-01 4.67157364e-01 4.32500064e-01 1.84414685e-01 3.66771390e-04 2.61152454e-04 5.23849390e-04 2.78430700e-01 5.46655297e-01 7.28652179e-01 9.13736224e-01 9.27529752e-01 8.20850611e-01 8.47856283e-01 8.92747164e-01 8.67291331e-01 8.29684734e-01 7.94450819e-01 7.68357038e-01 7.49976158e-01 7.36508608e-01 7.26627171e-01 7.19408154e-01 7.15060294e-01 7.11458504e-01 7.22642720e-01 1.17888259e-04 1.15815237e-04 1.18214914e-04 1.17907279e-04 1.16859424e-04 1.17495343e-04 1.19581819e-04 1.24707338e-04 1.31866895e-04 1.37711177e-04 1.39571377e-04 1.54967536e-04 9.53675508e-02 3.58482152e-01 5.89578748e-01 9.55444932e-01 8.98352861e-01 1.30999461e-01 2.79948473e-01 9.21771228e-01 9.42097604e-01 9.03516471e-01 8.65560770e-01 8.13300133e-01 7.69249022e-01 7.37517297e-01 7.14807808e-01 6.98486745e-01 6.87875807e-01 6.79218829e-01 7.07346320e-01 1.26235915e-04 1.14179973e-04 1.16722804e-04 1.19881392e-04 1.16788426e-04 1.16625364e-04 1.17207739e-04 1.19401084e-04 1.22848505e-04 1.25119666e-04 1.19802491e-04 1.12844376e-04 1.11214955e-04 7.06868246e-02 3.92562389e-01 8.78408134e-01 3.81450295e-01 1.97851346e-04 4.27325198e-04 1.00546284e-03 4.91430331e-03 4.95817602e-01 7.24879384e-01 7.78555334e-01 7.41049349e-01 6.93491459e-01 6.64972603e-01 6.48120046e-01 6.37953341e-01 6.27094090e-01 6.87071443e-01 5.31090379e-01 3.13279659e-01 2.63661116e-01 2.14234769e-01 6.12042360e-02 4.11037682e-03 9.21457598e-04 3.01391963e-04 1.94494583e-04 1.66613361e-04 1.44492951e-04 1.22491925e-04 1.08312677e-04 1.08872686e-04 1.15532035e-04 1.35339141e-01 7.77547300e-01 3.48756206e-03 3.42082232e-04 2.22542629e-04 1.70458312e-04 1.58307768e-04 1.44117541e-04 1.95806308e-04 5.37145913e-01 5.96385896e-01 5.84244132e-01 5.69276929e-01 5.62590301e-01 5.54001808e-01 6.53936923e-01 5.44945121e-01 3.26781452e-01 3.06174278e-01 2.79614896e-01 2.27624491e-01 1.93489686e-01 1.98248327e-01 2.27219313e-01 2.53625631e-01 2.68119246e-01 2.63161182e-01 2.25934640e-01 3.57162841e-02 1.14114038e-04 1.10025729e-04 1.09364402e-04 1.75171569e-01 9.99901235e-01 9.98918951e-01 5.07778896e-04 2.04793192e-04 1.77667738e-04 1.41607990e-04 1.32440866e-04 1.26725965e-04 2.59291112e-01 4.78283107e-01 4.87778753e-01 4.86046046e-01 4.83056068e-01 6.18797004e-01 5.85374713e-01 3.96565914e-01 3.84941280e-01 3.72470468e-01 3.53470117e-01 3.30494076e-01 3.21872860e-01 3.37339938e-01 3.57983321e-01 3.74356270e-01 3.86355430e-01 3.92553031e-01 3.82878840e-01 3.22752029e-01 4.11718711e-03 1.09599750e-04 1.09771208e-04 1.19704673e-04 1.18911601e-04 9.99924839e-01 4.39948738e-01 2.10798696e-01 9.71733332e-02 2.80629436e-04 1.20392848e-04 1.17940086e-04 5.41782230e-02 4.12788987e-01 4.31109071e-01 4.33183134e-01 5.91449082e-01 6.37026131e-01 5.00868142e-01 4.97919977e-01 4.93860573e-01 4.87731278e-01 4.80792463e-01 4.75143075e-01 4.74281132e-01 4.77912098e-01 4.83495831e-01 4.89216805e-01 4.92695540e-01 4.90638077e-01 4.80207413e-01 4.60035384e-01 3.39674473e-01 1.12831724e-04 1.18447431e-04 1.12608810e-04 1.13884147e-04 9.98881817e-01 9.97028947e-01 9.97384906e-01 9.97411907e-01 9.98434842e-01 1.17292468e-04 1.16503004e-04 1.27983354e-02 3.86008769e-01 4.07794744e-01 5.75587749e-01 6.87482715e-01 6.13359928e-01 6.13398135e-01 6.10474646e-01 6.07008219e-01 6.03164613e-01 5.99502027e-01 5.97042143e-01 5.96891582e-01 5.98883808e-01 6.01652086e-01 6.03350997e-01 6.02570653e-01 5.99559307e-01 5.96322894e-01 5.92516780e-01 5.69923401e-01 4.95224327e-01 2.07558349e-01 1.14284041e-04 1.17923977e-04 7.53653992e-04 2.71766365e-01 6.82571903e-02 2.44056806e-02 9.99722719e-01 1.16268857e-04 1.15708739e-04 1.04653779e-02 3.81836355e-01 5.66630125e-01 7.27104843e-01 7.03426003e-01 7.02075183e-01 6.97710931e-01 6.93740189e-01 6.90130174e-01 6.87167466e-01 6.85623169e-01 6.86005652e-01 6.87821865e-01 6.89902186e-01 6.91116512e-01 6.90948188e-01 6.89676523e-01 6.88382566e-01 6.88912272e-01 6.92488611e-01 6.88594162e-01 6.45322263e-01 5.69087565e-01 1.20695346e-04 1.25009406e-04 1.42792895e-04 1.56242997e-04 2.20798480e-04 7.71925144e-04 9.99965429e-01 1.15905787e-04 1.15538925e-04 1.82277057e-02 5.00846863e-01 7.51642168e-01 7.59653032e-01 7.56054580e-01 7.50013709e-01 7.44987011e-01 7.40933359e-01 7.38069117e-01 7.36804724e-01 7.37261236e-01 7.38786936e-01 7.40290880e-01 7.40946829e-01 7.40649164e-01 7.39982009e-01 7.40049362e-01 7.42486894e-01 7.49472857e-01 7.62807012e-01 7.79350162e-01 7.85823524e-01 7.98244476e-01 1.47546569e-04 1.48533160e-04 1.45075159e-04 1.73817010e-04 2.17812078e-04 5.06697688e-04 9.99843836e-01 1.15675168e-04 1.15007802e-04 1.38085103e-02 7.59979784e-01 7.83280492e-01 7.77260661e-01 7.69587696e-01 7.63437748e-01 7.58685470e-01 7.55425096e-01 7.53818274e-01 7.53794014e-01 7.54684567e-01 7.55422831e-01 7.55192041e-01 7.53948212e-01 7.52444029e-01 7.51951754e-01 7.54031718e-01 7.60367632e-01 7.72516549e-01 7.92544127e-01 8.21173072e-01 8.70199919e-01 9.28624868e-01 8.52506459e-01 3.62304986e-01 4.19336604e-03 4.27542196e-04 3.39067279e-04 5.61912239e-01 4.97538239e-01 1.14776703e-04 1.20366727e-04 7.51755953e-01 7.75851011e-01 7.66649485e-01 7.57071733e-01 7.49879539e-01 7.44696438e-01 7.41340578e-01 7.39729524e-01 7.39705563e-01 7.40560889e-01 7.41042137e-01 7.40053654e-01 7.37373471e-01 7.33753979e-01 7.30502188e-01 7.28964448e-01 7.30177820e-01 7.34719515e-01 7.43173957e-01 7.57808387e-01 7.83447385e-01 8.38843882e-01 9.16560471e-01 9.47649658e-01 9.29603398e-01 1.20541729e-01 5.63896960e-04 1.48984473e-02 9.97688472e-01 1.37936076e-04 1.25372579e-04 7.26588786e-01 7.33054340e-01 7.18159676e-01 7.06075788e-01 6.98680162e-01 6.94862723e-01 6.93686783e-01 6.94583952e-01 6.97202384e-01 7.00531602e-01 7.02722371e-01 7.02108681e-01 6.98265135e-01 6.92102492e-01 6.85190618e-01 6.79004133e-01 6.74487472e-01 6.72011852e-01 6.71779573e-01 6.74440145e-01 6.81728601e-01 6.95689499e-01 7.20160484e-01 7.59871960e-01 7.78124094e-01 7.40919828e-01 5.63843131e-01 9.84699667e-01 9.94278252e-01 1.26168001e-04 1.29995969e-04 6.87147796e-01 6.43925369e-01 6.12576842e-01 5.96999705e-01 5.93403995e-01 5.96989334e-01 6.04878783e-01 6.15589559e-01 6.28024876e-01 6.39876604e-01 6.47894144e-01 6.49856746e-01 6.45743787e-01 6.37325406e-01 6.27001107e-01 6.16880655e-01 6.08432233e-01 6.02566183e-01 5.99931121e-01 6.00882530e-01 6.04502976e-01 6.06558442e-01 5.96366405e-01 5.64693570e-01 5.25179148e-01 5.71979940e-01 8.78441334e-01 9.92042184e-01 9.88562286e-01 1.36200601e-04 1.27720210e-04 6.44859016e-01 5.14164865e-01 4.45160627e-01 4.24951732e-01 4.30982679e-01 4.49953645e-01 4.76005226e-01 5.07081866e-01 5.40247440e-01 5.69284678e-01 5.88079453e-01 5.94600141e-01 5.90807796e-01 5.80514848e-01 5.67541242e-01 5.54909706e-01 5.44812202e-01 5.38881004e-01 5.38379848e-01 5.43835938e-01 5.53719401e-01 5.62793016e-01 5.63435376e-01 5.56048036e-01 5.67760229e-01 7.06468880e-01 9.50126350e-01 9.93947029e-01 9.42257047e-01 1.53060697e-04 1.43688158e-04 6.14989758e-01 3.81733537e-01 2.73037851e-01 2.47270331e-01 2.60851979e-01 2.94816911e-01 3.40699941e-01 3.95885319e-01 4.55548465e-01 5.06357372e-01 5.37320554e-01 5.47954679e-01 5.44012308e-01 5.32105803e-01 5.17495215e-01 5.03935993e-01 4.94123220e-01 4.90117013e-01 4.93486464e-01 5.04900992e-01 5.23188889e-01 5.45300484e-01 5.70953012e-01 6.14679515e-01 7.13663757e-01 8.85180771e-01 9.80997324e-01 9.92372334e-01 1.06969714e-01 1.64514844e-04 1.56257898e-04 6.06575191e-01 2.68841088e-01 1.35150447e-01 1.11350954e-01 1.27557248e-01 1.67430177e-01 2.29237527e-01 3.08969736e-01 3.96321446e-01 4.67225730e-01 5.06115913e-01 5.17616034e-01 5.12510300e-01 4.99570966e-01 4.84688848e-01 4.71892923e-01 4.64129686e-01 4.63657886e-01 4.72186804e-01 4.90749866e-01 5.19577444e-01 5.59615374e-01 6.18161798e-01 7.13086605e-01 8.47823143e-01 9.55243647e-01 9.88765359e-01 9.56198454e-01 2.06529628e-03 1.82939490e-04 1.67126331e-04 6.27116024e-01 1.81936368e-01 5.08789457e-02 3.73997502e-02 4.96936329e-02 8.28479230e-02 1.48522153e-01 2.52099961e-01 3.70574504e-01 4.57435340e-01 4.97332901e-01 5.05973101e-01 4.99102056e-01 4.86131489e-01 4.72600520e-01 4.62410718e-01 4.58680183e-01 4.63931203e-01 4.80154693e-01 5.09000897e-01 5.52419484e-01 6.14631891e-01 7.04372346e-01 8.21729600e-01 9.27126586e-01 9.76330519e-01 9.84467208e-01 3.04550201e-01 5.39992703e-04 2.28089833e-04 1.98134541e-04 6.78315222e-01 1.22173078e-01 1.50396554e-02 1.01703368e-02 1.67101845e-02 3.86893563e-02 9.89037678e-02 2.24323645e-01 3.76712799e-01 4.72472161e-01 5.07750273e-01 5.11552095e-01 5.02871096e-01 4.90849912e-01 4.80281889e-01 4.74726945e-01 4.77464795e-01 4.91478145e-01 5.19236088e-01 5.62644780e-01 6.23400271e-01 7.03702688e-01 8.03290784e-01 9.00060833e-01 9.58659053e-01 9.77636755e-01 9.01481867e-01 7.02469517e-03 3.37134115e-04 2.76799256e-04 2.88604992e-04 7.47214854e-01 8.43329877e-02 4.17328440e-03 2.92532775e-03 5.90625824e-03 1.98247340e-02 7.58011490e-02 2.27654189e-01 4.09813404e-01 5.03133535e-01 5.30311882e-01 5.29400170e-01 5.19738257e-01 5.09785473e-01 5.03739715e-01 5.04872620e-01 5.16646028e-01 5.42516768e-01 5.85052609e-01 6.44681752e-01 7.18417346e-01 8.00034642e-01 8.80675316e-01 9.39488530e-01 9.64840531e-01 9.48026240e-01 2.35632271e-01 1.16464612e-03 3.25278728e-04 3.08947754e-04 6.93359354e-04 8.12163174e-01 6.13539070e-02 1.44326431e-03 1.16965163e-03 2.65549845e-03 1.29733440e-02 7.45852068e-02 2.68520802e-01 4.62518066e-01 5.39070666e-01 5.55707037e-01 5.51807582e-01 5.43445289e-01 5.37490964e-01 5.37616551e-01 5.47053754e-01 5.69483042e-01 6.08382285e-01 6.64957225e-01 7.35402524e-01 8.09675515e-01 8.75764310e-01 9.26918030e-01 9.53488469e-01 9.46190953e-01 6.64408803e-01 9.69766546e-03 6.20748731e-04 4.03287704e-04 4.22327576e-04 6.97122980e-03 8.60547721e-01 4.73154224e-02 7.16514769e-04 6.77446602e-04 1.61542080e-03 1.19904811e-02 9.85542685e-02 3.49693954e-01 5.21371305e-01 5.69374859e-01 5.74818611e-01 5.70650637e-01 5.67032516e-01 5.67888975e-01 5.75911164e-01 5.94289958e-01 6.26746655e-01 6.75951004e-01 7.40254462e-01 8.10970664e-01 8.74731243e-01 9.21870172e-01 9.50183332e-01 9.50357318e-01 8.26499224e-01 7.00601488e-02 1.82092376e-03 5.66488889e-04 5.42638882e-04 9.61104000e-04 8.05396661e-02 8.91362369e-01 3.79895680e-02 4.68932325e-04 4.90750826e-04 1.27661589e-03 1.62377004e-02 1.65095493e-01 4.54205781e-01 5.68917334e-01 5.84635198e-01 5.81054807e-01 5.80017865e-01 5.84779680e-01 5.95261335e-01 6.12442315e-01 6.39034271e-01 6.78436935e-01 7.32252598e-01 7.96706855e-01 8.61185610e-01 9.13396835e-01 9.46769238e-01 9.60889816e-01 9.29504693e-01 4.39957291e-01 1.25005953e-02 1.35517796e-03 8.28614633e-04 1.10048091e-03 6.37720432e-03 2.56034285e-01 9.08952415e-01 3.03329844e-02 3.42970598e-04 3.81691440e-04 1.25811982e-03 3.12494971e-02 2.94158280e-01 5.46105981e-01 5.91545701e-01 5.79477608e-01 5.71530759e-01 5.77567339e-01 5.93695283e-01 6.15604460e-01 6.42173171e-01 6.75225198e-01 7.17751682e-01 7.71064997e-01 8.31413031e-01 8.88886392e-01 9.32843089e-01 9.57322419e-01 9.60566580e-01 8.71780872e-01 2.72338003e-01 1.36373434e-02 3.15819983e-03 3.25757219e-03 9.68000758e-03 6.21007830e-02 4.51485157e-01 9.16907072e-01 2.48808041e-02 2.64972972e-04 3.02306726e-04 1.55209471e-03 7.60505721e-02 4.58093822e-01 5.99304080e-01 5.83473444e-01 5.53042531e-01 5.47092259e-01 5.63941300e-01 5.93173325e-01 6.26987934e-01 6.62378192e-01 7.00173914e-01 7.43066072e-01 7.92885959e-01 8.47298384e-01 8.98265421e-01 9.36008811e-01 9.54988182e-01 9.47210073e-01 8.48830044e-01 3.88970762e-01 6.49987832e-02 3.26371677e-02 5.85976392e-02 1.59982249e-01 3.62400055e-01 6.27641439e-01 9.16077018e-01 2.32884306e-02 2.20684989e-04 2.48011114e-04 2.48992490e-03 1.89214751e-01 5.82276165e-01 6.06419563e-01 5.45864820e-01 5.09047091e-01 5.11401892e-01 5.40931642e-01 5.83136201e-01 6.28304958e-01 6.72032535e-01 7.13962555e-01 7.56199598e-01 8.01119447e-01 8.48297298e-01 8.92356098e-01 9.25165892e-01 9.40298080e-01 9.28889990e-01 8.55923831e-01 6.62111402e-01 4.32397485e-01 3.77123296e-01 4.74040985e-01 5.94197750e-01 7.07265556e-01 7.46676147e-01 9.06361699e-01 2.86118593e-02 1.98267851e-04 2.14580941e-04 5.18494006e-03 3.68362159e-01 6.31705165e-01 5.68048537e-01 4.85473782e-01 4.54731226e-01 4.68675494e-01 5.09253860e-01 5.61977386e-01 6.17360950e-01 6.69941008e-01 7.17459917e-01 7.60405838e-01 8.00833583e-01 8.40014815e-01 8.75991523e-01 9.03530657e-01 9.16533947e-01 9.07630503e-01 8.66565168e-01 7.92787075e-01 7.07992852e-01 6.65096760e-01 6.86510623e-01 7.40617275e-01 8.08080018e-01 7.93326318e-01 8.84899497e-01 5.18045351e-02 1.87504018e-04 1.96151974e-04 1.17369192e-02 5.13707399e-01 6.08554363e-01 4.92622465e-01 4.15435970e-01 3.98853391e-01 4.21915174e-01 4.67754245e-01 5.26108027e-01 5.89944541e-01 6.53040171e-01 7.10132003e-01 7.58420825e-01 7.98061967e-01 8.30892146e-01 8.58261943e-01 8.79348338e-01 8.91062081e-01 8.89263630e-01 8.71374786e-01 8.38106334e-01 7.93856382e-01 7.59113550e-01 7.56468356e-01 7.81086683e-01 8.25880826e-01 8.00415456e-01 8.26995432e-01 1.11360043e-01 1.90798266e-04 1.82891003e-04 1.23911453e-02 5.43846011e-01 5.29331684e-01 4.10561055e-01 3.56197119e-01 3.50656539e-01 3.73324454e-01 4.14249092e-01 4.69821572e-01 5.37399352e-01 6.11568570e-01 6.84138477e-01 7.47342050e-01 7.97114551e-01 8.33639205e-01 8.59475136e-01 8.77267599e-01 8.88248146e-01 8.91973972e-01 8.87264788e-01 8.72861445e-01 8.48763168e-01 8.20928276e-01 8.00114214e-01 7.93115020e-01 8.13039720e-01 7.91188836e-01 7.65496552e-01 2.73319423e-01 2.07797842e-04 1.61715114e-04 8.58104904e-04 4.78217185e-01 4.46508557e-01 3.56447667e-01 3.14867496e-01 3.03542644e-01 3.11718971e-01 3.37638408e-01 3.83564949e-01 4.51932430e-01 5.41012168e-01 6.41420186e-01 7.37569034e-01 8.15439999e-01 8.69772017e-01 9.03454483e-01 9.22105908e-01 9.30293679e-01 9.30537105e-01 9.23485100e-01 9.08116341e-01 8.82078230e-01 8.43379438e-01 7.94804275e-01 7.49805510e-01 7.44631231e-01 7.62906075e-01 7.66869009e-01 5.72787523e-01 2.16772524e-03 1.96720328e-04 1.49588333e-04 7.39807069e-01 6.16070032e-01 5.53549469e-01 5.09501636e-01 4.84090626e-01 4.76670474e-01 4.86651838e-01 5.13404429e-01 5.55489957e-01 6.09749734e-01 6.70995533e-01 7.32533395e-01 7.87709773e-01 8.31936598e-01 8.63544047e-01 8.82956505e-01 8.91326964e-01 8.89651954e-01 8.78652632e-01 8.58937442e-01 8.30778301e-01 7.94170499e-01 7.51347661e-01 7.12021410e-01 6.91141903e-01 7.16041684e-01 
