# vtk DataFile Version 2.0
results_case1_non_linear/iter3.vtk, Created by Freefem++ 
ASCII
DATASET UNSTRUCTURED_GRID
POINTS 961 float
0 0 0
0.033333333 0 0
0.066666667 0 0
0.1 0 0
0.13333333 0 0
0.16666667 0 0
0.2 0 0
0.23333333 0 0
0.26666667 0 0
0.3 0 0
0.33333333 0 0
0.36666667 0 0
0.4 0 0
0.43333333 0 0
0.46666667 0 0
0.5 0 0
0.53333333 0 0
0.56666667 0 0
0.6 0 0
0.63333333 0 0
0.66666667 0 0
0.7 0 0
0.73333333 0 0
0.76666667 0 0
0.8 0 0
0.83333333 0 0
0.86666667 0 0
0.9 0 0
0.93333333 0 0
0.96666667 0 0
1 0 0
0 0.033333333 0
0.033333333 0.033333333 0
0.066666667 0.033333333 0
0.1 0.033333333 0
0.13333333 0.033333333 0
0.16666667 0.033333333 0
0.2 0.033333333 0
0.23333333 0.033333333 0
0.26666667 0.033333333 0
0.3 0.033333333 0
0.33333333 0.033333333 0
0.36666667 0.033333333 0
0.4 0.033333333 0
0.43333333 0.033333333 0
0.46666667 0.033333333 0
0.5 0.033333333 0
0.53333333 0.033333333 0
0.56666667 0.033333333 0
0.6 0.033333333 0
0.63333333 0.033333333 0
0.66666667 0.033333333 0
0.7 0.033333333 0
0.73333333 0.033333333 0
0.76666667 0.033333333 0
0.8 0.033333333 0
0.83333333 0.033333333 0
0.86666667 0.033333333 0
0.9 0.033333333 0
0.93333333 0.033333333 0
0.96666667 0.033333333 0
1 0.033333333 0
0 0.066666667 0
0.033333333 0.066666667 0
0.066666667 0.066666667 0
0.1 0.066666667 0
0.13333333 0.066666667 0
0.16666667 0.066666667 0
0.2 0.066666667 0
0.23333333 0.066666667 0
0.26666667 0.066666667 0
0.3 0.066666667 0
0.33333333 0.066666667 0
0.36666667 0.066666667 0
0.4 0.066666667 0
0.43333333 0.066666667 0
0.46666667 0.066666667 0
0.5 0.066666667 0
0.53333333 0.066666667 0
0.56666667 0.066666667 0
0.6 0.066666667 0
0.63333333 0.066666667 0
0.66666667 0.066666667 0
0.7 0.066666667 0
0.73333333 0.066666667 0
0.76666667 0.066666667 0
0.8 0.066666667 0
0.83333333 0.066666667 0
0.86666667 0.066666667 0
0.9 0.066666667 0
0.93333333 0.066666667 0
0.96666667 0.066666667 0
1 0.066666667 0
0 0.1 0
0.033333333 0.1 0
0.066666667 0.1 0
0.1 0.1 0
0.13333333 0.1 0
0.16666667 0.1 0
0.2 0.1 0
0.23333333 0.1 0
0.26666667 0.1 0
0.3 0.1 0
0.33333333 0.1 0
0.36666667 0.1 0
0.4 0.1 0
0.43333333 0.1 0
0.46666667 0.1 0
0.5 0.1 0
0.53333333 0.1 0
0.56666667 0.1 0
0.6 0.1 0
0.63333333 0.1 0
0.66666667 0.1 0
0.7 0.1 0
0.73333333 0.1 0
0.76666667 0.1 0
0.8 0.1 0
0.83333333 0.1 0
0.86666667 0.1 0
0.9 0.1 0
0.93333333 0.1 0
0.96666667 0.1 0
1 0.1 0
0 0.13333333 0
0.033333333 0.13333333 0
0.066666667 0.13333333 0
0.1 0.13333333 0
0.13333333 0.13333333 0
0.16666667 0.13333333 0
0.2 0.13333333 0
0.23333333 0.13333333 0
0.26666667 0.13333333 0
0.3 0.13333333 0
0.33333333 0.13333333 0
0.36666667 0.13333333 0
0.4 0.13333333 0
0.43333333 0.13333333 0
0.46666667 0.13333333 0
0.5 0.13333333 0
0.53333333 0.13333333 0
0.56666667 0.13333333 0
0.6 0.13333333 0
0.63333333 0.13333333 0
0.66666667 0.13333333 0
0.7 0.13333333 0
0.73333333 0.13333333 0
0.76666667 0.13333333 0
0.8 0.13333333 0
0.83333333 0.13333333 0
0.86666667 0.13333333 0
0.9 0.13333333 0
0.93333333 0.13333333 0
0.96666667 0.13333333 0
1 0.13333333 0
0 0.16666667 0
0.033333333 0.16666667 0
0.066666667 0.16666667 0
0.1 0.16666667 0
0.13333333 0.16666667 0
0.16666667 0.16666667 0
0.2 0.16666667 0
0.23333333 0.16666667 0
0.26666667 0.16666667 0
0.3 0.16666667 0
0.33333333 0.16666667 0
0.36666667 0.16666667 0
0.4 0.16666667 0
0.43333333 0.16666667 0
0.46666667 0.16666667 0
0.5 0.16666667 0
0.53333333 0.16666667 0
0.56666667 0.16666667 0
0.6 0.16666667 0
0.63333333 0.16666667 0
0.66666667 0.16666667 0
0.7 0.16666667 0
0.73333333 0.16666667 0
0.76666667 0.16666667 0
0.8 0.16666667 0
0.83333333 0.16666667 0
0.86666667 0.16666667 0
0.9 0.16666667 0
0.93333333 0.16666667 0
0.96666667 0.16666667 0
1 0.16666667 0
0 0.2 0
0.033333333 0.2 0
0.066666667 0.2 0
0.1 0.2 0
0.13333333 0.2 0
0.16666667 0.2 0
0.2 0.2 0
0.23333333 0.2 0
0.26666667 0.2 0
0.3 0.2 0
0.33333333 0.2 0
0.36666667 0.2 0
0.4 0.2 0
0.43333333 0.2 0
0.46666667 0.2 0
0.5 0.2 0
0.53333333 0.2 0
0.56666667 0.2 0
0.6 0.2 0
0.63333333 0.2 0
0.66666667 0.2 0
0.7 0.2 0
0.73333333 0.2 0
0.76666667 0.2 0
0.8 0.2 0
0.83333333 0.2 0
0.86666667 0.2 0
0.9 0.2 0
0.93333333 0.2 0
0.96666667 0.2 0
1 0.2 0
0 0.23333333 0
0.033333333 0.23333333 0
0.066666667 0.23333333 0
0.1 0.23333333 0
0.13333333 0.23333333 0
0.16666667 0.23333333 0
0.2 0.23333333 0
0.23333333 0.23333333 0
0.26666667 0.23333333 0
0.3 0.23333333 0
0.33333333 0.23333333 0
0.36666667 0.23333333 0
0.4 0.23333333 0
0.43333333 0.23333333 0
0.46666667 0.23333333 0
0.5 0.23333333 0
0.53333333 0.23333333 0
0.56666667 0.23333333 0
0.6 0.23333333 0
0.63333333 0.23333333 0
0.66666667 0.23333333 0
0.7 0.23333333 0
0.73333333 0.23333333 0
0.76666667 0.23333333 0
0.8 0.23333333 0
0.83333333 0.23333333 0
0.86666667 0.23333333 0
0.9 0.23333333 0
0.93333333 0.23333333 0
0.96666667 0.23333333 0
1 0.23333333 0
0 0.26666667 0
0.033333333 0.26666667 0
0.066666667 0.26666667 0
0.1 0.26666667 0
0.13333333 0.26666667 0
0.16666667 0.26666667 0
0.2 0.26666667 0
0.23333333 0.26666667 0
0.26666667 0.26666667 0
0.3 0.26666667 0
0.33333333 0.26666667 0
0.36666667 0.26666667 0
0.4 0.26666667 0
0.43333333 0.26666667 0
0.46666667 0.26666667 0
0.5 0.26666667 0
0.53333333 0.26666667 0
0.56666667 0.26666667 0
0.6 0.26666667 0
0.63333333 0.26666667 0
0.66666667 0.26666667 0
0.7 0.26666667 0
0.73333333 0.26666667 0
0.76666667 0.26666667 0
0.8 0.26666667 0
0.83333333 0.26666667 0
0.86666667 0.26666667 0
0.9 0.26666667 0
0.93333333 0.26666667 0
0.96666667 0.26666667 0
1 0.26666667 0
0 0.3 0
0.033333333 0.3 0
0.066666667 0.3 0
0.1 0.3 0
0.13333333 0.3 0
0.16666667 0.3 0
0.2 0.3 0
0.23333333 0.3 0
0.26666667 0.3 0
0.3 0.3 0
0.33333333 0.3 0
0.36666667 0.3 0
0.4 0.3 0
0.43333333 0.3 0
0.46666667 0.3 0
0.5 0.3 0
0.53333333 0.3 0
0.56666667 0.3 0
0.6 0.3 0
0.63333333 0.3 0
0.66666667 0.3 0
0.7 0.3 0
0.73333333 0.3 0
0.76666667 0.3 0
0.8 0.3 0
0.83333333 0.3 0
0.86666667 0.3 0
0.9 0.3 0
0.93333333 0.3 0
0.96666667 0.3 0
1 0.3 0
0 0.33333333 0
0.033333333 0.33333333 0
0.066666667 0.33333333 0
0.1 0.33333333 0
0.13333333 0.33333333 0
0.16666667 0.33333333 0
0.2 0.33333333 0
0.23333333 0.33333333 0
0.26666667 0.33333333 0
0.3 0.33333333 0
0.33333333 0.33333333 0
0.36666667 0.33333333 0
0.4 0.33333333 0
0.43333333 0.33333333 0
0.46666667 0.33333333 0
0.5 0.33333333 0
0.53333333 0.33333333 0
0.56666667 0.33333333 0
0.6 0.33333333 0
0.63333333 0.33333333 0
0.66666667 0.33333333 0
0.7 0.33333333 0
0.73333333 0.33333333 0
0.76666667 0.33333333 0
0.8 0.33333333 0
0.83333333 0.33333333 0
0.86666667 0.33333333 0
0.9 0.33333333 0
0.93333333 0.33333333 0
0.96666667 0.33333333 0
1 0.33333333 0
0 0.36666667 0
0.033333333 0.36666667 0
0.066666667 0.36666667 0
0.1 0.36666667 0
0.13333333 0.36666667 0
0.16666667 0.36666667 0
0.2 0.36666667 0
0.23333333 0.36666667 0
0.26666667 0.36666667 0
0.3 0.36666667 0
0.33333333 0.36666667 0
0.36666667 0.36666667 0
0.4 0.36666667 0
0.43333333 0.36666667 0
0.46666667 0.36666667 0
0.5 0.36666667 0
0.53333333 0.36666667 0
0.56666667 0.36666667 0
0.6 0.36666667 0
0.63333333 0.36666667 0
0.66666667 0.36666667 0
0.7 0.36666667 0
0.73333333 0.36666667 0
0.76666667 0.36666667 0
0.8 0.36666667 0
0.83333333 0.36666667 0
0.86666667 0.36666667 0
0.9 0.36666667 0
0.93333333 0.36666667 0
0.96666667 0.36666667 0
1 0.36666667 0
0 0.4 0
0.033333333 0.4 0
0.066666667 0.4 0
0.1 0.4 0
0.13333333 0.4 0
0.16666667 0.4 0
0.2 0.4 0
0.23333333 0.4 0
0.26666667 0.4 0
0.3 0.4 0
0.33333333 0.4 0
0.36666667 0.4 0
0.4 0.4 0
0.43333333 0.4 0
0.46666667 0.4 0
0.5 0.4 0
0.53333333 0.4 0
0.56666667 0.4 0
0.6 0.4 0
0.63333333 0.4 0
0.66666667 0.4 0
0.7 0.4 0
0.73333333 0.4 0
0.76666667 0.4 0
0.8 0.4 0
0.83333333 0.4 0
0.86666667 0.4 0
0.9 0.4 0
0.93333333 0.4 0
0.96666667 0.4 0
1 0.4 0
0 0.43333333 0
0.033333333 0.43333333 0
0.066666667 0.43333333 0
0.1 0.43333333 0
0.13333333 0.43333333 0
0.16666667 0.43333333 0
0.2 0.43333333 0
0.23333333 0.43333333 0
0.26666667 0.43333333 0
0.3 0.43333333 0
0.33333333 0.43333333 0
0.36666667 0.43333333 0
0.4 0.43333333 0
0.43333333 0.43333333 0
0.46666667 0.43333333 0
0.5 0.43333333 0
0.53333333 0.43333333 0
0.56666667 0.43333333 0
0.6 0.43333333 0
0.63333333 0.43333333 0
0.66666667 0.43333333 0
0.7 0.43333333 0
0.73333333 0.43333333 0
0.76666667 0.43333333 0
0.8 0.43333333 0
0.83333333 0.43333333 0
0.86666667 0.43333333 0
0.9 0.43333333 0
0.93333333 0.43333333 0
0.96666667 0.43333333 0
1 0.43333333 0
0 0.46666667 0
0.033333333 0.46666667 0
0.066666667 0.46666667 0
0.1 0.46666667 0
0.13333333 0.46666667 0
0.16666667 0.46666667 0
0.2 0.46666667 0
0.23333333 0.46666667 0
0.26666667 0.46666667 0
0.3 0.46666667 0
0.33333333 0.46666667 0
0.36666667 0.46666667 0
0.4 0.46666667 0
0.43333333 0.46666667 0
0.46666667 0.46666667 0
0.5 0.46666667 0
0.53333333 0.46666667 0
0.56666667 0.46666667 0
0.6 0.46666667 0
0.63333333 0.46666667 0
0.66666667 0.46666667 0
0.7 0.46666667 0
0.73333333 0.46666667 0
0.76666667 0.46666667 0
0.8 0.46666667 0
0.83333333 0.46666667 0
0.86666667 0.46666667 0
0.9 0.46666667 0
0.93333333 0.46666667 0
0.96666667 0.46666667 0
1 0.46666667 0
0 0.5 0
0.033333333 0.5 0
0.066666667 0.5 0
0.1 0.5 0
0.13333333 0.5 0
0.16666667 0.5 0
0.2 0.5 0
0.23333333 0.5 0
0.26666667 0.5 0
0.3 0.5 0
0.33333333 0.5 0
0.36666667 0.5 0
0.4 0.5 0
0.43333333 0.5 0
0.46666667 0.5 0
0.5 0.5 0
0.53333333 0.5 0
0.56666667 0.5 0
0.6 0.5 0
0.63333333 0.5 0
0.66666667 0.5 0
0.7 0.5 0
0.73333333 0.5 0
0.76666667 0.5 0
0.8 0.5 0
0.83333333 0.5 0
0.86666667 0.5 0
0.9 0.5 0
0.93333333 0.5 0
0.96666667 0.5 0
1 0.5 0
0 0.53333333 0
0.033333333 0.53333333 0
0.066666667 0.53333333 0
0.1 0.53333333 0
0.13333333 0.53333333 0
0.16666667 0.53333333 0
0.2 0.53333333 0
0.23333333 0.53333333 0
0.26666667 0.53333333 0
0.3 0.53333333 0
0.33333333 0.53333333 0
0.36666667 0.53333333 0
0.4 0.53333333 0
0.43333333 0.53333333 0
0.46666667 0.53333333 0
0.5 0.53333333 0
0.53333333 0.53333333 0
0.56666667 0.53333333 0
0.6 0.53333333 0
0.63333333 0.53333333 0
0.66666667 0.53333333 0
0.7 0.53333333 0
0.73333333 0.53333333 0
0.76666667 0.53333333 0
[...]
CELL_DATA 1920
Scalars  Label int 1
LOOKUP_TABLE FreeFempp_table
0
0
0
0
0
0
0
0
0
0
0
0
0
0
0
0
0
0
0
0
0
0
0
0
0
0
0
0
0
0
0
0
0
0
0
0
0
0
0
0
0
0
0
0
0
0
0
0
0
0
0
0
0
0
0
0
0
0
0
0
0
0
0
0
0
0
0
0
0
0
0
0
0
0
0
0
0
0
0
0
0
0
0
0
0
0
0
0
0
0
0
0
0
0
0
0
0
0
0
0
0
0
0
0
0
0
0
0
0
0
0
0
0
0
0
0
0
0
0
0
0
0
0
0
0
0
0
0
0
0
0
0
0
0
0
0
0
0
0
0
0
0
0
0
0
0
0
0
0
0
0
0
0
0
0
0
0
0
0
0
0
0
0
0
0
0
0
0
0
0
0
0
0
0
0
0
0
0
0
0
0
0
0
0
0
0
0
0
0
0
0
0
0
0
0
0
0
0
0
0
0
0
0
0
0
0
0
0
0
0
0
0
0
0
0
0
0
0
0
0
0
0
0
0
0
0
0
0
0
0
0
0
0
0
0
0
0
0
0
0
0
0
0
0
0
0
0
0
0
0
0
0
0
0
0
0
0
0
0
0
0
0
0
0
0
0
0
0
0
0
0
0
0
0
0
0
0
0
0
0
0
0
0
0
0
0
0
0
0
0
0
0
0
0
0
0
0
0
0
0
0
0
0
0
0
0
0
0
0
0
0
0
0
0
0
0
0
0
0
0
0
0
0
0
0
0
0
0
0
0
0
0
0
0
0
0
0
0
0
0
0
0
0
0
0
0
0
0
0
0
0
0
0
0
0
0
0
0
0
0
0
0
0
0
0
0
0
0
0
0
0
0
0
0
0
0
0
0
0
0
0
0
0
0
0
0
0
0
0
0
0
0
0
0
0
0
0
0
0
0
0
0
0
0
0
0
0
0
0
0
0
0
0
0
0
0
0
0
0
0
0
0
0
0
0
0
0
0
0
0
0
0
0
0
0
0
0
0
0
0
0
0
0
0
0
0
0
0
0
0
0
0
0
0
0
0
0
0
0
0
0
0
0
0
0
0
0
0
0
0
0
0
0
0
0
0
0
0
0
0
0
0
0
0
0
0
0
0
0
0
0
0
0
0
0
0
0
0
0
0
0
0
0
0
0
0
0
0
0
0
0
0
0
0
0
0
0
0
0
0
0
0
0
0
0
0
0
0
0
0
0
0
0
0
0
0
0
0
0
0
0
0
0
0
0
0
0
0
0
0
0
0
0
0
0
0
0
0
0
0
0
0
0
0
0
0
0
0
0
0
0
0
0
0
0
0
0
0
0
0
0
0
0
0
0
0
0
0
0
0
0
0
0
0
0
0
0
0
0
0
0
0
0
0
0
0
0
0
0
0
0
0
0
0
0
0
0
0
0
0
0
0
0
0
0
0
0
0
0
0
0
0
0
0
0
0
0
0
0
0
0
0
0
0
0
0
0
0
0
0
0
0
0
0
0
0
0
0
0
0
0
0
0
0
0
0
0
0
0
0
0
0
0
0
0
0
0
0
0
0
0
0
0
0
0
0
0
0
0
0
0
0
0
0
0
0
0
0
0
0
0
0
0
0
0
0
0
0
0
0
0
0
0
0
0
0
0
0
0
0
0
0
0
0
0
0
0
0
0
0
0
0
0
0
0
0
0
0
0
0
0
0
0
0
0
0
0
0
0
0
0
0
0
0
0
0
0
0
0
0
0
0
0
0
0
0
0
0
0
0
0
0
0
0
0
0
0
0
0
0
0
0
0
0
0
0
0
0
0
0
0
0
0
0
0
0
0
0
0
0
0
0
0
0
0
0
0
0
0
0
0
0
0
0
0
0
0
0
0
0
0
0
0
0
0
0
0
0
0
0
0
0
0
0
0
0
0
0
0
0
0
0
0
0
0
0
0
0
0
0
0
0
0
0
0
0
0
0
0
0
0
0
0
0
0
0
0
0
0
0
0
0
0
0
0
0
0
0
0
0
0
0
0
0
0
0
0
0
0
0
0
0
0
0
0
0
0
0
0
0
0
0
0
0
0
0
0
0
0
0
0
0
0
0
0
0
0
0
0
0
0
0
0
0
0
0
0
0
0
0
0
0
0
0
0
0
0
0
0
0
0
0
0
0
0
0
0
0
0
0
0
0
0
0
0
0
0
0
0
0
0
0
0
0
0
0
0
0
0
0
0
0
0
0
0
0
0
0
0
0
0
0
0
0
0
0
0
0
0
0
0
0
0
0
0
0
0
0
0
0
0
0
0
0
0
0
0
0
0
0
0
0
0
0
0
0
0
0
0
0
0
0
0
0
0
0
0
0
0
0
0
0
0
0
0
0
0
0
0
0
0
0
0
0
0
0
0
0
0
0
0
0
0
0
0
0
0
0
0
0
0
0
0
0
0
0
0
0
0
0
0
0
0
0
0
0
0
0
0
0
0
0
0
0
0
0
0
0
0
0
0
0
0
0
0
0
0
0
0
0
0
0
0
0
0
0
0
0
0
0
0
0
0
0
0
0
0
0
0
0
0
0
0
0
0
0
0
0
0
0
0
0
0
0
0
0
0
0
0
0
0
0
0
0
0
0
0
0
0
0
0
0
0
0
0
0
0
0
0
0
0
0
0
0
0
0
0
0
0
0
0
0
0
0
0
0
0
0
0
0
0
0
0
0
0
0
0
0
0
0
0
0
0
0
0
0
0
0
0
0
0
0
0
0
0
0
0
0
0
0
0
0
0
0
0
0
0
0
0
0
0
0
0
0
0
0
0
0
0
0
0
0
0
0
0
0
0
0
0
0
0
0
0
0
0
0
0
0
0
0
0
0
0
0
0
0
0
0
0
0
0
0
0
0
0
0
0
0
0
0
0
0
0
0
0
0
0
0
0
0
0
0
0
0
0
0
0
0
0
0
0
0
0
0
0
0
0
0
0
0
0
0
0
0
0
0
0
0
0
0
0
0
0
0
0
0
0
0
0
0
0
0
0
0
0
0
0
0
0
0
0
0
0
0
0
0
0
0
0
0
0
0
0
0
0
0
0
0
0
0
0
0
0
0
0
0
0
0
0
0
0
0
0
0
0
0
0
0
0
0
0
0
0
0
0
0
0
0
0
0
0
0
0
0
0
0
0
0
0
0
0
0
0
0
0
0
0
0
0
0
0
0
0
0
0
0
0
0
0
0
0
0
0
0
0
0
0
0
0
0
0
0
0
0
0
0
0
0
0
0
0
0
0
0
0
0
0
0
0
0
0
0
0
0
0
0
0
0
0
0
0
0
0
0
0
0
0
0
0
0
0
0
0
0
0
0
0
0
0
0
0
0
0
0
0
0
0
0
0
0
0
0
0
0
0
0
0
0
0
0
0
0
0
0
0
0
0
0
0
0
0
0
0
0
0
0
0
0
0
0
0
0
0
0
0
0
0
0
0
0
0
0
0
0
0
0
0
0
0
0
0
0
0
0
0
0
0
0
0
0
0
0
0
0
0
0
0
0
0
0
0
0
0
0
0
0
0
0
0
0
0
0
0
0
0
0
0
0
0
0
0
0
0
0
0
0
0
0
0
0
0
0
0
0
0
0
0
0
0
0
0
0
0
0
0
0
0
0
0
0
0
0
0
0
0
0
0
0
0
0
0
0
0
0
0
0
0
0
0
0
0
0
0
0
0
0
0
0
0
0
0
0
0
0
0
0
0
0
0
0
0
0
0
0
0
0
0
0
0
0
0
0
0
0
0
0
0
0
0
0
0
0
0
0
0
0
0
0
0
0
0
0
0
0
0
0
0
0
0
0
0
0
0
0
0
0
0
0
0
0
0
0
0
0
0
0
0
0
0
0
0
0
0
0
0
0
0
0
0
0
0
0
0
0
0
0
0
0
0
0
0
0
0
0
0
0
0
0
0
0
0
0
0
0
0
0
0
0
0
0
0
0
0
0
0
0
0
0
0
0
0
0
0
0
0
0
0
0
0
0
0
0
0
0
0
0
0
0
0
0
0
0
0
0
0
0
0
0
0
0
0
0
0
0
0
0
0
0
0
0
0
0
0
0
0
0
0
0
0
0
1
1
1
1
1
1
1
1
1
1
1
1
1
1
1
1
1
1
1
1
1
1
1
1
1
1
1
1
1
1
2
2
2
2
2
2
2
2
2
2
2
2
2
2
2
2
2
2
2
2
2
2
2
2
2
2
2
2
2
2
3
3
3
3
3
3
3
3
3
3
3
3
3
3
3
3
3
3
3
3
3
3
3
3
3
3
3
3
3
3
4
4
4
4
4
4
4
4
4
4
4
4
4
4
4
4
4
4
4
4
4
4
4
4
4
4
4
4
4
4

LOOKUP_TABLE FreeFempp_table 5
1.00000000 0.00000000 0.00000000 1.00000000
1.00000000 1.00000000 0.00000000 1.00000000
1.00000000 0.00000000 1.00000000 1.00000000
0.00000000 1.00000000 0.00000000 1.00000000
0.00000000 1.00000000 1.00000000 1.00000000

POINT_DATA 961
FIELD FieldData 1
Density 1 961 float
3.73492509e-01 3.97887439e-01 5.21007478e-01 5.41878164e-01 5.45813322e-01 5.45456767e-01 5.44426918e-01 4.70529556e-01 4.18761298e-02 2.18522456e-03 3.43111600e-03 6.74210638e-02 4.17844534e-01 4.73343432e-01 6.54077768e-01 8.81512046e-01 9.21985626e-01 8.04445088e-01 8.37469220e-01 7.75270581e-01 7.28973031e-01 7.25629866e-01 7.18380511e-01 7.09013879e-01 6.99658036e-01 6.91468000e-01 6.85101211e-01 6.80697560e-01 6.77695394e-01 6.74202979e-01 7.22195685e-01 6.58509461e-03 1.09835789e-02 2.45150074e-01 3.37316513e-01 3.41721952e-01 3.38809162e-01 3.31875741e-01 2.94079244e-01 5.19162826e-02 2.34087463e-03 1.58815726e-03 1.97899304e-02 2.42286548e-01 2.67944157e-01 3.66656572e-01 8.87993932e-01 1.17585815e-01 2.84128599e-02 7.60062575e-01 8.37971091e-01 7.52529979e-01 7.30626047e-01 7.12208629e-01 6.80403531e-01 6.50766492e-01 6.27560854e-01 6.10733390e-01 5.98847270e-01 5.91452301e-01 5.84186375e-01 6.70958579e-01 5.18306624e-04 4.44805395e-04 4.58018825e-04 4.54500609e-04 4.52345441e-04 4.24708589e-04 4.30243090e-04 4.74251399e-04 4.69537132e-04 4.58787981e-04 4.67158330e-04 4.25579754e-04 3.47174376e-01 2.98394978e-01 1.21515252e-01 1.70862556e-01 1.96116209e-01 7.97320798e-04 2.68090842e-03 5.89313125e-03 2.98678517e-01 6.26374960e-01 6.87502265e-01 6.72213614e-01 6.27885103e-01 5.92845917e-01 5.74577153e-01 5.62259614e-01 5.54816663e-01 5.47039330e-01 6.57472432e-01 7.41315715e-04 4.36052796e-04 4.62809898e-04 4.75621200e-04 4.46508522e-04 4.35478229e-04 4.16679977e-04 4.51441476e-04 4.73564985e-04 4.65019140e-04 4.73606400e-04 3.01162159e-04 2.96316080e-04 4.84461692e-04 6.45772729e-04 3.57026607e-02 9.93717313e-01 3.37496877e-01 2.70462409e-03 1.96347246e-03 1.80012197e-03 3.01203784e-03 3.28611843e-02 4.14405674e-01 5.59192598e-01 5.25748909e-01 5.05268335e-01 5.02030134e-01 5.00756383e-01 4.94744927e-01 6.33810461e-01 4.28139955e-01 1.67537570e-01 1.52654305e-01 1.59955934e-01 1.73122823e-01 1.97391257e-01 2.27246344e-01 2.61876762e-01 2.94370502e-01 3.29209298e-01 3.45240831e-01 9.86934733e-03 4.07380663e-04 4.29892913e-04 3.73746589e-04 3.30780633e-04 6.10844640e-04 4.08491265e-04 9.98979092e-01 1.84755437e-02 2.27190531e-03 1.21583173e-03 1.02152803e-03 1.02821470e-03 3.20395157e-02 5.23766339e-01 4.53224838e-01 4.42935467e-01 4.50082988e-01 4.50081766e-01 6.06127560e-01 5.43153882e-01 2.53750861e-01 2.31411815e-01 2.36438736e-01 2.46411264e-01 2.63097733e-01 2.84949571e-01 3.09533238e-01 3.33365947e-01 3.54059666e-01 3.64554852e-01 3.57835203e-01 3.62166941e-01 3.60621095e-01 2.32426007e-03 4.83428186e-04 4.65867022e-04 4.37280658e-04 4.23945574e-04 9.87523437e-01 9.24629122e-02 7.81077938e-03 1.48145435e-03 7.44772027e-04 6.87272230e-04 2.02886984e-02 4.49772716e-01 4.31603611e-01 4.28047568e-01 4.35979813e-01 5.94124973e-01 6.61212683e-01 4.78094757e-01 4.56811756e-01 4.46514308e-01 4.38989103e-01 4.37172920e-01 4.40164387e-01 4.45855618e-01 4.53066975e-01 4.61514622e-01 4.68631595e-01 4.69044834e-01 4.67619896e-01 4.71241176e-01 4.72463518e-01 4.59467232e-01 4.32555288e-01 4.11481678e-01 4.79675509e-04 5.45654271e-04 9.70561802e-01 9.64235008e-01 9.76891518e-01 9.77901518e-01 6.80401339e-04 6.34168333e-04 1.91439763e-02 4.33966815e-01 4.23648894e-01 4.21528995e-01 5.93304873e-01 7.50962436e-01 6.98281229e-01 6.81971729e-01 6.62038624e-01 6.40109181e-01 6.20685995e-01 6.05906308e-01 5.96074641e-01 5.90832531e-01 5.89353800e-01 5.89327157e-01 5.88203013e-01 5.86098671e-01 5.82552016e-01 5.77313304e-01 5.75185955e-01 5.51486313e-01 5.14202297e-01 4.63993788e-01 5.50944649e-04 6.03406283e-04 4.29905981e-01 8.98553431e-02 3.26545313e-02 9.85160172e-01 6.23127213e-04 5.80254768e-04 2.66721267e-02 4.39920157e-01 4.03710306e-01 5.83663166e-01 7.95180738e-01 8.07881832e-01 7.90413618e-01 7.72639096e-01 7.51404464e-01 7.29895175e-01 7.10801065e-01 6.95871592e-01 6.85352206e-01 6.78402781e-01 6.73554361e-01 6.69905305e-01 6.67335927e-01 6.64933980e-01 6.63162291e-01 6.63578391e-01 6.62171602e-01 6.50459230e-01 6.28418803e-01 5.71437418e-01 6.11866650e-04 6.54811447e-04 1.60199858e-03 5.43208513e-03 1.30910501e-02 9.96050000e-01 5.73816884e-04 5.39943576e-04 6.00201525e-02 3.87847066e-01 5.70151091e-01 7.94822812e-01 8.27798367e-01 8.04619372e-01 7.87803888e-01 7.69939661e-01 7.52249062e-01 7.36049294e-01 7.22706974e-01 7.12489009e-01 7.04878747e-01 6.99269295e-01 6.95717216e-01 6.94567561e-01 6.95667267e-01 6.99752927e-01 7.07827508e-01 7.18436360e-01 7.29796529e-01 7.40926445e-01 7.57793486e-01 7.42332280e-01 9.38647368e-04 1.09522243e-03 1.60089752e-03 3.14997206e-03 1.54128540e-02 9.81082916e-01 5.34982595e-04 5.21799724e-04 3.00072104e-01 5.51827908e-01 7.58552194e-01 7.69902229e-01 7.21212447e-01 7.01026976e-01 6.93409503e-01 6.89105213e-01 6.84375346e-01 6.79315150e-01 6.74508452e-01 6.70221746e-01 6.66779280e-01 6.64936662e-01 6.65470004e-01 6.68790877e-01 6.75647438e-01 6.86501563e-01 7.00849533e-01 7.19698429e-01 7.46353567e-01 7.84696937e-01 8.36565375e-01 8.81401122e-01 1.81633849e-02 3.31002893e-03 1.99472113e-03 3.27752531e-03 9.66508925e-01 1.53017724e-02 5.58469852e-04 7.14815280e-04 3.51636171e-01 7.19061971e-01 6.05746865e-01 4.50643539e-01 4.38365638e-01 4.79319960e-01 5.21525979e-01 5.51536560e-01 5.69658816e-01 5.79535127e-01 5.84352136e-01 5.86444020e-01 5.87685049e-01 5.89444995e-01 5.92553258e-01 5.97638905e-01 6.04753673e-01 6.13652349e-01 6.26150727e-01 6.47126138e-01 6.84026420e-01 7.47622967e-01 8.48982573e-01 9.05927598e-01 8.54731500e-01 2.16379594e-02 3.96402692e-03 5.07405162e-01 8.05521458e-02 1.44859345e-03 7.36964401e-04 1.33708876e-03 7.26576269e-01 3.96762550e-01 1.36308804e-01 1.43832147e-01 2.14181706e-01 3.01392168e-01 3.75907511e-01 4.28135991e-01 4.60891455e-01 4.80150223e-01 4.90844578e-01 4.96396452e-01 4.99039233e-01 5.00127673e-01 5.00427663e-01 5.00100553e-01 4.99407172e-01 5.00450730e-01 5.07402241e-01 5.24221063e-01 5.53363025e-01 6.02866352e-01 6.85595870e-01 8.09038281e-01 7.94358015e-01 2.48355772e-02 9.42360759e-01 9.44172084e-01 1.57316215e-03 1.29537901e-03 1.45827862e-03 7.76570559e-01 2.81635880e-01 5.42063601e-02 5.60748093e-02 8.78868029e-02 1.55929178e-01 2.40253553e-01 3.14081699e-01 3.67083579e-01 4.01201248e-01 4.21426117e-01 4.31953132e-01 4.35722709e-01 4.34696525e-01 4.30180937e-01 4.23152596e-01 4.15160865e-01 4.09602374e-01 4.11540002e-01 4.24933732e-01 4.48429197e-01 4.73892868e-01 4.88142461e-01 5.12770712e-01 7.02341199e-01 9.10198629e-01 9.78321671e-01 4.20627221e-02 1.43699406e-03 1.41495850e-03 1.10314172e-02 8.19613993e-01 2.59544283e-01 3.87867391e-02 3.73951234e-02 5.31610139e-02 9.47166234e-02 1.69815138e-01 2.51329601e-01 3.18250000e-01 3.65373850e-01 3.95033300e-01 4.10925806e-01 4.16229099e-01 4.13376093e-01 4.04279858e-01 3.90844762e-01 3.75962585e-01 3.64577949e-01 3.63514990e-01 3.79305571e-01 4.14696664e-01 4.66928095e-01 5.35509646e-01 6.53148770e-01 8.46264303e-01 9.51768994e-01 9.60544705e-01 1.63974408e-02 1.65637070e-03 1.47051259e-03 2.28722934e-02 8.39479029e-01 2.97516167e-01 2.87773833e-02 2.57376172e-02 3.98794673e-02 7.17271194e-02 1.42584383e-01 2.30444878e-01 3.08798224e-01 3.67686212e-01 4.06433195e-01 4.27705735e-01 4.34643269e-01 4.29992795e-01 4.16191161e-01 3.96095186e-01 3.74287903e-01 3.58309776e-01 3.58629107e-01 3.87097448e-01 4.54448164e-01 5.65357447e-01 7.08091855e-01 8.39788020e-01 9.21139598e-01 9.56257761e-01 1.60807133e-01 5.74554969e-03 2.11372646e-03 1.79404847e-03 4.96354513e-02 8.45727921e-01 3.54473859e-01 2.03258395e-02 1.67751219e-02 3.03279813e-02 6.30442798e-02 1.40866846e-01 2.39106268e-01 3.28015536e-01 3.96864712e-01 4.43215460e-01 4.69060302e-01 4.77599353e-01 4.71866786e-01 4.54828948e-01 4.30586725e-01 4.06362891e-01 3.94082934e-01 4.10020322e-01 4.72134739e-01 5.89105010e-01 7.32258439e-01 8.43427181e-01 9.04068470e-01 9.32765722e-01 8.31323445e-01 2.53425576e-02 3.18091339e-03 2.62187095e-03 2.94416072e-03 1.33414552e-01 8.48453701e-01 3.86247516e-01 1.33510856e-02 1.02975238e-02 2.25805640e-02 6.18036762e-02 1.58526629e-01 2.68944442e-01 3.65085602e-01 4.40037102e-01 4.91079777e-01 5.20147383e-01 5.30739963e-01 5.26308775e-01 5.10592878e-01 4.89479423e-01 4.73789990e-01 4.80924696e-01 5.31713963e-01 6.35167539e-01 7.58396387e-01 8.47962976e-01 8.92669261e-01 9.07475293e-01 8.59363914e-01 5.51113002e-02 8.62957351e-03 2.98675406e-03 3.07833380e-03 9.90059692e-03 2.88161755e-01 8.53199959e-01 3.81158113e-01 8.18807259e-03 6.56027813e-03 1.67819709e-02 6.83841333e-02 1.94380626e-01 3.12015772e-01 4.08867151e-01 4.84744847e-01 5.37191689e-01 5.68281472e-01 5.81915855e-01 5.82204342e-01 5.74093521e-01 5.65654814e-01 5.70883512e-01 6.08936310e-01 6.90696061e-01 7.91210771e-01 8.61709476e-01 8.89840722e-01 8.78302574e-01 7.74491966e-01 1.30035743e-01 1.63395628e-02 5.28324069e-03 3.99703486e-03 5.85638173e-03 2.93385964e-02 4.67721522e-01 8.60487342e-01 3.43100637e-01 4.95389430e-03 4.93462523e-03 1.31972264e-02 8.73605609e-02 2.45578483e-01 3.59717339e-01 4.50365752e-01 5.22523463e-01 5.73701560e-01 6.05925024e-01 6.23404860e-01 6.30991578e-01 6.34852886e-01 6.44351363e-01 6.72821164e-01 7.31137395e-01 8.09399247e-01 8.73068631e-01 8.98318887e-01 8.74156952e-01 6.49667263e-01 7.65975863e-02 1.71127096e-02 7.41406577e-03 5.51807741e-03 7.02921906e-03 1.75025575e-02 7.18727037e-02 5.70603490e-01 8.66566300e-01 2.89116532e-01 3.33838491e-03 3.97132104e-03 1.22017236e-02 1.25096023e-01 3.04172069e-01 4.04989630e-01 4.84885603e-01 5.50060630e-01 5.97989082e-01 6.30518436e-01 6.51901603e-01 6.67369545e-01 6.83448315e-01 7.08516955e-01 7.50721872e-01 8.09611201e-01 8.67999136e-01 9.04257298e-01 9.04416263e-01 8.04691911e-01 1.71415463e-01 2.35090908e-02 1.06446650e-02 7.25354906e-03 8.46592151e-03 1.71689652e-02 5.11633269e-02 2.27998257e-01 6.13896370e-01 8.67419481e-01 2.48121440e-01 2.24728393e-03 2.88785342e-03 1.41968019e-02 1.83403507e-01 3.60413581e-01 4.43635464e-01 5.10814190e-01 5.67019641e-01 6.10241890e-01 6.42194808e-01 6.66793883e-01 6.88974261e-01 7.14479327e-01 7.49069035e-01 7.95261443e-01 8.47067833e-01 8.90557408e-01 9.13928270e-01 9.04577255e-01 7.71760702e-01 1.24378972e-01 2.24023722e-02 1.42753636e-02 1.44203454e-02 2.62204353e-02 7.16094151e-02 3.46947521e-01 5.92361927e-01 6.83121920e-01 8.60990942e-01 2.37146690e-01 1.80931040e-03 2.12328183e-03 2.04166993e-02 2.53594786e-01 4.07822847e-01 4.73437995e-01 5.27366519e-01 5.73623300e-01 6.11241698e-01 6.41787708e-01 6.68429136e-01 6.95186019e-01 7.26420403e-01 7.65358150e-01 8.11201036e-01 8.57077718e-01 8.93148899e-01 9.12118137e-01 9.03986514e-01 8.05444896e-01 2.85632074e-01 4.47954237e-02 4.12894823e-02 6.81861266e-02 3.33994597e-01 7.64528811e-01 8.34556758e-01 8.38663399e-01 7.80968308e-01 8.45655024e-01 2.60212928e-01 1.68076192e-03 1.83828524e-03 3.21289040e-02 3.21302652e-01 4.44232464e-01 4.93293434e-01 5.33861160e-01 5.69958270e-01 6.01703286e-01 6.30247474e-01 6.57609940e-01 6.86528802e-01 7.20026910e-01 7.59848237e-01 8.04154813e-01 8.46814871e-01 8.80357325e-01 8.99311304e-01 8.97049248e-01 8.45593691e-01 6.31430328e-01 3.19463968e-01 3.56587261e-01 7.23225236e-01 8.91964018e-01 9.08228695e-01 8.96512628e-01 8.94318581e-01 8.38565350e-01 8.18621695e-01 3.22342515e-01 1.57126295e-03 1.67401938e-03 4.78575230e-02 3.76204073e-01 4.70235169e-01 5.03085434e-01 5.30184805e-01 5.56487083e-01 5.82679689e-01 6.09002233e-01 6.35983288e-01 6.64913714e-01 6.97710514e-01 7.35597849e-01 7.77137041e-01 8.17557275e-01 8.50786388e-01 8.72024417e-01 8.76678705e-01 8.54268849e-01 7.87565589e-01 7.15001464e-01 7.66637981e-01 8.51872623e-01 8.79723191e-01 8.76849890e-01 8.72126043e-01 8.82927477e-01 8.43771458e-01 7.78258085e-01 4.27173883e-01 1.48944871e-03 1.55272917e-03 5.63038290e-02 4.16526049e-01 4.87577289e-01 5.03400505e-01 5.17048478e-01 5.34489393e-01 5.55935860e-01 5.80192447e-01 6.06150806e-01 6.33599162e-01 6.63349569e-01 6.96418762e-01 7.32486129e-01 7.68827379e-01 8.01013112e-01 8.24579120e-01 8.35208178e-01 8.26710701e-01 7.94047058e-01 7.53367662e-01 7.45707989e-01 7.63009310e-01 7.74992466e-01 7.84245908e-01 8.04750085e-01 8.32782447e-01 8.15069556e-01 7.29414642e-01 5.40727377e-01 1.56155834e-03 1.47550961e-03 4.12151255e-02 4.46752727e-01 4.97212917e-01 4.94326472e-01 4.95451242e-01 5.05843997e-01 5.23769557e-01 5.46377122e-01 5.71210802e-01 5.96713960e-01 6.22384846e-01 6.48590207e-01 6.75847173e-01 7.03789234e-01 7.30602324e-01 7.53207803e-01 7.67140865e-01 7.65679777e-01 7.41682529e-01 6.97909594e-01 6.56003952e-01 6.36145651e-01 6.42400444e-01 6.71371341e-01 7.12858021e-01 7.51978219e-01 7.69301832e-01 6.81614757e-01 5.88111281e-01 1.78905553e-03 1.13849493e-03 1.51498308e-02 4.73932534e-01 4.97126043e-01 4.74532455e-01 4.66428518e-01 4.72822160e-01 4.88708496e-01 5.10108411e-01 5.34104943e-01 5.58367670e-01 5.81072211e-01 6.01200461e-01 6.18815482e-01 6.34857297e-01 6.50321364e-01 6.65067852e-01 6.76370442e-01 6.77555025e-01 6.59433007e-01 6.18857265e-01 5.70446193e-01 5.40666521e-01 5.44494510e-01 5.75558066e-01 6.15980268e-01 6.53210461e-01 7.18893707e-01 6.39618278e-01 5.83067238e-01 7.94687122e-03 1.05772202e-03 1.95455714e-03 5.00393569e-01 4.80909079e-01 4.43226367e-01 4.32880461e-01 4.38857496e-01 4.53602672e-01 4.73624259e-01 4.96834308e-01 5.21141350e-01 5.44029653e-01 5.62898397e-01 5.75888872e-01 5.82651854e-01 5.84418952e-01 5.83045840e-01 5.79283237e-01 5.71099997e-01 5.53854406e-01 5.25142372e-01 4.92683440e-01 4.73087817e-01 4.76842046e-01 4.98817742e-01 5.26120901e-01 5.54335117e-01 6.70422733e-01 6.99002624e-01 5.62223256e-01 3.58465761e-02 9.69717919e-04 1.35222892e-03 5.35303891e-01 4.50396866e-01 4.09208834e-01 4.02311802e-01 4.08454716e-01 4.21207428e-01 4.39225435e-01 4.62094426e-01 4.88781035e-01 5.16853631e-01 5.42331040e-01 5.60317934e-01 5.66166341e-01 5.56629360e-01 5.30956209e-01 4.92474586e-01 4.50093180e-01 4.16316986e-01 4.00153846e-01 4.01690841e-01 4.14798170e-01 4.32385951e-01 4.48448002e-01 4.60003167e-01 4.79785711e-01 6.33096695e-01 7.80046999e-01 7.47484922e-01 8.49410295e-01 1.63376192e-03 1.23907521e-03 7.89346874e-01 6.10035717e-01 5.81396163e-01 5.76203346e-01 5.78533053e-01 5.84393859e-01 5.93090236e-01 6.04683816e-01 6.18930459e-01 6.34756744e-01 6.50101423e-01 6.62080705e-01 6.67369008e-01 6.62681460e-01 6.45501733e-01 6.15732729e-01 5.78750014e-01 5.47140419e-01 5.35010219e-01 5.46550393e-01 5.71649969e-01 5.94911158e-01 6.07681751e-01 6.11013830e-01 6.11649454e-01 6.63940132e-01 
