# vtk DataFile Version 2.0
results_case1_non_linear/iter5.vtk, Created by Freefem++ 
ASCII
DATASET UNSTRUCTURED_GRID
POINTS 961 float
0 0 0
0.033333333 0 0
0.066666667 0 0
0.1 0 0
0.13333333 0 0
0.16666667 0 0
0.2 0 0
0.23333333 0 0
0.26666667 0 0
0.3 0 0
0.33333333 0 0
0.36666667 0 0
0.4 0 0
0.43333333 0 0
0.46666667 0 0
0.5 0 0
0.53333333 0 0
0.56666667 0 0
0.6 0 0
0.63333333 0 0
0.66666667 0 0
0.7 0 0
0.73333333 0 0
0.76666667 0 0
0.8 0 0
0.83333333 0 0
0.86666667 0 0
0.9 0 0
0.93333333 0 0
0.96666667 0 0
1 0 0
0 0.033333333 0
0.033333333 0.033333333 0
0.066666667 0.033333333 0
0.1 0.033333333 0
0.13333333 0.033333333 0
0.16666667 0.033333333 0
0.2 0.033333333 0
0.23333333 0.033333333 0
0.26666667 0.033333333 0
0.3 0.033333333 0
0.33333333 0.033333333 0
0.36666667 0.033333333 0
0.4 0.033333333 0
0.43333333 0.033333333 0
0.46666667 0.033333333 0
0.5 0.033333333 0
0.53333333 0.033333333 0
0.56666667 0.033333333 0
0.6 0.033333333 0
0.63333333 0.033333333 0
0.66666667 0.033333333 0
0.7 0.033333333 0
0.73333333 0.033333333 0
0.76666667 0.033333333 0
0.8 0.033333333 0
0.83333333 0.033333333 0
0.86666667 0.033333333 0
0.9 0.033333333 0
0.93333333 0.033333333 0
0.96666667 0.033333333 0
1 0.033333333 0
0 0.066666667 0
0.033333333 0.066666667 0
0.066666667 0.066666667 0
0.1 0.066666667 0
0.13333333 0.066666667 0
0.16666667 0.066666667 0
0.2 0.066666667 0
0.23333333 0.066666667 0
0.26666667 0.066666667 0
0.3 0.066666667 0
0.33333333 0.066666667 0
0.36666667 0.066666667 0
0.4 0.066666667 0
0.43333333 0.066666667 0
0.46666667 0.066666667 0
0.5 0.066666667 0
0.53333333 0.066666667 0
0.56666667 0.066666667 0
0.6 0.066666667 0
0.63333333 0.066666667 0
0.66666667 0.066666667 0
0.7 0.066666667 0
0.73333333 0.066666667 0
0.76666667 0.066666667 0
0.8 0.066666667 0
0.83333333 0.066666667 0
0.86666667 0.066666667 0
0.9 0.066666667 0
0.93333333 0.066666667 0
0.96666667 0.066666667 0
1 0.066666667 0
0 0.1 0
0.033333333 0.1 0
0.066666667 0.1 0
0.1 0.1 0
0.13333333 0.1 0
0.16666667 0.1 0
0.2 0.1 0
0.23333333 0.1 0
0.26666667 0.1 0
0.3 0.1 0
0.33333333 0.1 0
0.36666667 0.1 0
0.4 0.1 0
0.43333333 0.1 0
0.46666667 0.1 0
0.5 0.1 0
0.53333333 0.1 0
0.56666667 0.1 0
0.6 0.1 0
0.63333333 0.1 0
0.66666667 0.1 0
0.7 0.1 0
0.73333333 0.1 0
0.76666667 0.1 0
0.8 0.1 0
0.83333333 0.1 0
0.86666667 0.1 0
0.9 0.1 0
0.93333333 0.1 0
0.96666667 0.1 0
1 0.1 0
0 0.13333333 0
0.033333333 0.13333333 0
0.066666667 0.13333333 0
0.1 0.13333333 0
0.13333333 0.13333333 0
0.16666667 0.13333333 0
0.2 0.13333333 0
0.23333333 0.13333333 0
0.26666667 0.13333333 0
0.3 0.13333333 0
0.33333333 0.13333333 0
0.36666667 0.13333333 0
0.4 0.13333333 0
0.43333333 0.13333333 0
0.46666667 0.13333333 0
0.5 0.13333333 0
0.53333333 0.13333333 0
0.56666667 0.13333333 0
0.6 0.13333333 0
0.63333333 0.13333333 0
0.66666667 0.13333333 0
0.7 0.13333333 0
0.73333333 0.13333333 0
0.76666667 0.13333333 0
0.8 0.13333333 0
0.83333333 0.13333333 0
0.86666667 0.13333333 0
0.9 0.13333333 0
0.93333333 0.13333333 0
0.96666667 0.13333333 0
1 0.13333333 0
0 0.16666667 0
0.033333333 0.16666667 0
0.066666667 0.16666667 0
0.1 0.16666667 0
0.13333333 0.16666667 0
0.16666667 0.16666667 0
0.2 0.16666667 0
0.23333333 0.16666667 0
0.26666667 0.16666667 0
0.3 0.16666667 0
0.33333333 0.16666667 0
0.36666667 0.16666667 0
0.4 0.16666667 0
0.43333333 0.16666667 0
0.46666667 0.16666667 0
0.5 0.16666667 0
0.53333333 0.16666667 0
0.56666667 0.16666667 0
0.6 0.16666667 0
0.63333333 0.16666667 0
0.66666667 0.16666667 0
0.7 0.16666667 0
0.73333333 0.16666667 0
0.76666667 0.16666667 0
0.8 0.16666667 0
0.83333333 0.16666667 0
0.86666667 0.16666667 0
0.9 0.16666667 0
0.93333333 0.16666667 0
0.96666667 0.16666667 0
1 0.16666667 0
0 0.2 0
0.033333333 0.2 0
0.066666667 0.2 0
0.1 0.2 0
0.13333333 0.2 0
0.16666667 0.2 0
0.2 0.2 0
0.23333333 0.2 0
0.26666667 0.2 0
0.3 0.2 0
0.33333333 0.2 0
0.36666667 0.2 0
0.4 0.2 0
0.43333333 0.2 0
0.46666667 0.2 0
0.5 0.2 0
0.53333333 0.2 0
0.56666667 0.2 0
0.6 0.2 0
0.63333333 0.2 0
0.66666667 0.2 0
0.7 0.2 0
0.73333333 0.2 0
0.76666667 0.2 0
0.8 0.2 0
0.83333333 0.2 0
0.86666667 0.2 0
0.9 0.2 0
0.93333333 0.2 0
0.96666667 0.2 0
1 0.2 0
0 0.23333333 0
0.033333333 0.23333333 0
0.066666667 0.23333333 0
0.1 0.23333333 0
0.13333333 0.23333333 0
0.16666667 0.23333333 0
0.2 0.23333333 0
0.23333333 0.23333333 0
0.26666667 0.23333333 0
0.3 0.23333333 0
0.33333333 0.23333333 0
0.36666667 0.23333333 0
0.4 0.23333333 0
0.43333333 0.23333333 0
0.46666667 0.23333333 0
0.5 0.23333333 0
0.53333333 0.23333333 0
0.56666667 0.23333333 0
0.6 0.23333333 0
0.63333333 0.23333333 0
0.66666667 0.23333333 0
0.7 0.23333333 0
0.73333333 0.23333333 0
0.76666667 0.23333333 0
0.8 0.23333333 0
0.83333333 0.23333333 0
0.86666667 0.23333333 0
0.9 0.23333333 0
0.93333333 0.23333333 0
0.96666667 0.23333333 0
1 0.23333333 0
0 0.26666667 0
0.033333333 0.26666667 0
0.066666667 0.26666667 0
0.1 0.26666667 0
0.13333333 0.26666667 0
0.16666667 0.26666667 0
0.2 0.26666667 0
0.23333333 0.26666667 0
0.26666667 0.26666667 0
0.3 0.26666667 0
0.33333333 0.26666667 0
0.36666667 0.26666667 0
0.4 0.26666667 0
0.43333333 0.26666667 0
0.46666667 0.26666667 0
0.5 0.26666667 0
0.53333333 0.26666667 0
0.56666667 0.26666667 0
0.6 0.26666667 0
0.63333333 0.26666667 0
0.66666667 0.26666667 0
0.7 0.26666667 0
0.73333333 0.26666667 0
0.76666667 0.26666667 0
0.8 0.26666667 0
0.83333333 0.26666667 0
0.86666667 0.26666667 0
0.9 0.26666667 0
0.93333333 0.26666667 0
0.96666667 0.26666667 0
1 0.26666667 0
0 0.3 0
0.033333333 0.3 0
0.066666667 0.3 0
0.1 0.3 0
0.13333333 0.3 0
0.16666667 0.3 0
0.2 0.3 0
0.23333333 0.3 0
0.26666667 0.3 0
0.3 0.3 0
0.33333333 0.3 0
0.36666667 0.3 0
0.4 0.3 0
0.43333333 0.3 0
0.46666667 0.3 0
0.5 0.3 0
0.53333333 0.3 0
0.56666667 0.3 0
0.6 0.3 0
0.63333333 0.3 0
0.66666667 0.3 0
0.7 0.3 0
0.73333333 0.3 0
0.76666667 0.3 0
0.8 0.3 0
0.83333333 0.3 0
0.86666667 0.3 0
0.9 0.3 0
0.93333333 0.3 0
0.96666667 0.3 0
1 0.3 0
0 0.33333333 0
0.033333333 0.33333333 0
0.066666667 0.33333333 0
0.1 0.33333333 0
0.13333333 0.33333333 0
0.16666667 0.33333333 0
0.2 0.33333333 0
0.23333333 0.33333333 0
0.26666667 0.33333333 0
0.3 0.33333333 0
0.33333333 0.33333333 0
0.36666667 0.33333333 0
0.4 0.33333333 0
0.43333333 0.33333333 0
0.46666667 0.33333333 0
0.5 0.33333333 0
0.53333333 0.33333333 0
0.56666667 0.33333333 0
0.6 0.33333333 0
0.63333333 0.33333333 0
0.66666667 0.33333333 0
0.7 0.33333333 0
0.73333333 0.33333333 0
0.76666667 0.33333333 0
0.8 0.33333333 0
0.83333333 0.33333333 0
0.86666667 0.33333333 0
0.9 0.33333333 0
0.93333333 0.33333333 0
0.96666667 0.33333333 0
1 0.33333333 0
0 0.36666667 0
0.033333333 0.36666667 0
0.066666667 0.36666667 0
0.1 0.36666667 0
0.13333333 0.36666667 0
0.16666667 0.36666667 0
0.2 0.36666667 0
0.23333333 0.36666667 0
0.26666667 0.36666667 0
0.3 0.36666667 0
0.33333333 0.36666667 0
0.36666667 0.36666667 0
0.4 0.36666667 0
0.43333333 0.36666667 0
0.46666667 0.36666667 0
0.5 0.36666667 0
0.53333333 0.36666667 0
0.56666667 0.36666667 0
0.6 0.36666667 0
0.63333333 0.36666667 0
0.66666667 0.36666667 0
0.7 0.36666667 0
0.73333333 0.36666667 0
0.76666667 0.36666667 0
0.8 0.36666667 0
0.83333333 0.36666667 0
0.86666667 0.36666667 0
0.9 0.36666667 0
0.93333333 0.36666667 0
0.96666667 0.36666667 0
1 0.36666667 0
0 0.4 0
0.033333333 0.4 0
0.066666667 0.4 0
0.1 0.4 0
0.13333333 0.4 0
0.16666667 0.4 0
0.2 0.4 0
0.23333333 0.4 0
0.26666667 0.4 0
0.3 0.4 0
0.33333333 0.4 0
0.36666667 0.4 0
0.4 0.4 0
0.43333333 0.4 0
0.46666667 0.4 0
0.5 0.4 0
0.53333333 0.4 0
0.56666667 0.4 0
0.6 0.4 0
0.63333333 0.4 0
0.66666667 0.4 0
0.7 0.4 0
0.73333333 0.4 0
0.76666667 0.4 0
0.8 0.4 0
0.83333333 0.4 0
0.86666667 0.4 0
0.9 0.4 0
0.93333333 0.4 0
0.96666667 0.4 0
1 0.4 0
0 0.43333333 0
0.033333333 0.43333333 0
0.066666667 0.43333333 0
0.1 0.43333333 0
0.13333333 0.43333333 0
0.16666667 0.43333333 0
0.2 0.43333333 0
0.23333333 0.43333333 0
0.26666667 0.43333333 0
0.3 0.43333333 0
0.33333333 0.43333333 0
0.36666667 0.43333333 0
0.4 0.43333333 0
0.43333333 0.43333333 0
0.46666667 0.43333333 0
0.5 0.43333333 0
0.53333333 0.43333333 0
0.56666667 0.43333333 0
0.6 0.43333333 0
0.63333333 0.43333333 0
0.66666667 0.43333333 0
0.7 0.43333333 0
0.73333333 0.43333333 0
0.76666667 0.43333333 0
0.8 0.43333333 0
0.83333333 0.43333333 0
0.86666667 0.43333333 0
0.9 0.43333333 0
0.93333333 0.43333333 0
0.96666667 0.43333333 0
1 0.43333333 0
0 0.46666667 0
0.033333333 0.46666667 0
0.066666667 0.46666667 0
0.1 0.46666667 0
0.13333333 0.46666667 0
0.16666667 0.46666667 0
0.2 0.46666667 0
0.23333333 0.46666667 0
0.26666667 0.46666667 0
0.3 0.46666667 0
0.33333333 0.46666667 0
0.36666667 0.46666667 0
0.4 0.46666667 0
0.43333333 0.46666667 0
0.46666667 0.46666667 0
0.5 0.46666667 0
0.53333333 0.46666667 0
0.56666667 0.46666667 0
0.6 0.46666667 0
0.63333333 0.46666667 0
0.66666667 0.46666667 0
0.7 0.46666667 0
0.73333333 0.46666667 0
0.76666667 0.46666667 0
0.8 0.46666667 0
0.83333333 0.46666667 0
0.86666667 0.46666667 0
0.9 0.46666667 0
0.93333333 0.46666667 0
0.96666667 0.46666667 0
1 0.46666667 0
0 0.5 0
0.033333333 0.5 0
0.066666667 0.5 0
0.1 0.5 0
0.13333333 0.5 0
0.16666667 0.5 0
0.2 0.5 0
0.23333333 0.5 0
0.26666667 0.5 0
0.3 0.5 0
0.33333333 0.5 0
0.36666667 0.5 0
0.4 0.5 0
0.43333333 0.5 0
0.46666667 0.5 0
0.5 0.5 0
0.53333333 0.5 0
0.56666667 0.5 0
0.6 0.5 0
0.63333333 0.5 0
0.66666667 0.5 0
0.7 0.5 0
0.73333333 0.5 0
0.76666667 0.5 0
0.8 0.5 0
0.83333333 0.5 0
0.86666667 0.5 0
0.9 0.5 0
0.93333333 0.5 0
0.96666667 0.5 0
1 0.5 0
0 0.53333333 0
0.033333333 0.53333333 0
0.066666667 0.53333333 0
0.1 0.53333333 0
0.13333333 0.53333333 0
0.16666667 0.53333333 0
0.2 0.53333333 0
0.23333333 0.53333333 0
0.26666667 0.53333333 0
0.3 0.53333333 0
0.33333333 0.53333333 0
0.36666667 0.53333333 0
0.4 0.53333333 0
0.43333333 0.53333333 0
0.46666667 0.53333333 0
0.5 0.53333333 0
0.53333333 0.53333333 0
0.56666667 0.53333333 0
0.6 0.53333333 0
0.63333333 0.53333333 0
0.66666667 0.53333333 0
0.7 0.53333333 0
0.73333333 0.53333333 0
0.76666667 0.53333333 0
[...]
CELL_DATA 1920
Scalars  Label int 1
LOOKUP_TABLE FreeFempp_table
0
0
0
0
0
0
0
0
0
0
0
0
0
0
0
0
0
0
0
0
0
0
0
0
0
0
0
0
0
0
0
0
0
0
0
0
0
0
0
0
0
0
0
0
0
0
0
0
0
0
0
0
0
0
0
0
0
0
0
0
0
0
0
0
0
0
0
0
0
0
0
0
0
0
0
0
0
0
0
0
0
0
0
0
0
0
0
0
0
0
0
0
0
0
0
0
0
0
0
0
0
0
0
0
0
0
0
0
0
0
0
0
0
0
0
0
0
0
0
0
0
0
0
0
0
0
0
0
0
0
0
0
0
0
0
0
0
0
0
0
0
0
0
0
0
0
0
0
0
0
0
0
0
0
0
0
0
0
0
0
0
0
0
0
0
0
0
0
0
0
0
0
0
0
0
0
0
0
0
0
0
0
0
0
0
0
0
0
0
0
0
0
0
0
0
0
0
0
0
0
0
0
0
0
0
0
0
0
0
0
0
0
0
0
0
0
0
0
0
0
0
0
0
0
0
0
0
0
0
0
0
0
0
0
0
0
0
0
0
0
0
0
0
0
0
0
0
0
0
0
0
0
0
0
0
0
0
0
0
0
0
0
0
0
0
0
0
0
0
0
0
0
0
0
0
0
0
0
0
0
0
0
0
0
0
0
0
0
0
0
0
0
0
0
0
0
0
0
0
0
0
0
0
0
0
0
0
0
0
0
0
0
0
0
0
0
0
0
0
0
0
0
0
0
0
0
0
0
0
0
0
0
0
0
0
0
0
0
0
0
0
0
0
0
0
0
0
0
0
0
0
0
0
0
0
0
0
0
0
0
0
0
0
0
0
0
0
0
0
0
0
0
0
0
0
0
0
0
0
0
0
0
0
0
0
0
0
0
0
0
0
0
0
0
0
0
0
0
0
0
0
0
0
0
0
0
0
0
0
0
0
0
0
0
0
0
0
0
0
0
0
0
0
0
0
0
0
0
0
0
0
0
0
0
0
0
0
0
0
0
0
0
0
0
0
0
0
0
0
0
0
0
0
0
0
0
0
0
0
0
0
0
0
0
0
0
0
0
0
0
0
0
0
0
0
0
0
0
0
0
0
0
0
0
0
0
0
0
0
0
0
0
0
0
0
0
0
0
0
0
0
0
0
0
0
0
0
0
0
0
0
0
0
0
0
0
0
0
0
0
0
0
0
0
0
0
0
0
0
0
0
0
0
0
0
0
0
0
0
0
0
0
0
0
0
0
0
0
0
0
0
0
0
0
0
0
0
0
0
0
0
0
0
0
0
0
0
0
0
0
0
0
0
0
0
0
0
0
0
0
0
0
0
0
0
0
0
0
0
0
0
0
0
0
0
0
0
0
0
0
0
0
0
0
0
0
0
0
0
0
0
0
0
0
0
0
0
0
0
0
0
0
0
0
0
0
0
0
0
0
0
0
0
0
0
0
0
0
0
0
0
0
0
0
0
0
0
0
0
0
0
0
0
0
0
0
0
0
0
0
0
0
0
0
0
0
0
0
0
0
0
0
0
0
0
0
0
0
0
0
0
0
0
0
0
0
0
0
0
0
0
0
0
0
0
0
0
0
0
0
0
0
0
0
0
0
0
0
0
0
0
0
0
0
0
0
0
0
0
0
0
0
0
0
0
0
0
0
0
0
0
0
0
0
0
0
0
0
0
0
0
0
0
0
0
0
0
0
0
0
0
0
0
0
0
0
0
0
0
0
0
0
0
0
0
0
0
0
0
0
0
0
0
0
0
0
0
0
0
0
0
0
0
0
0
0
0
0
0
0
0
0
0
0
0
0
0
0
0
0
0
0
0
0
0
0
0
0
0
0
0
0
0
0
0
0
0
0
0
0
0
0
0
0
0
0
0
0
0
0
0
0
0
0
0
0
0
0
0
0
0
0
0
0
0
0
0
0
0
0
0
0
0
0
0
0
0
0
0
0
0
0
0
0
0
0
0
0
0
0
0
0
0
0
0
0
0
0
0
0
0
0
0
0
0
0
0
0
0
0
0
0
0
0
0
0
0
0
0
0
0
0
0
0
0
0
0
0
0
0
0
0
0
0
0
0
0
0
0
0
0
0
0
0
0
0
0
0
0
0
0
0
0
0
0
0
0
0
0
0
0
0
0
0
0
0
0
0
0
0
0
0
0
0
0
0
0
0
0
0
0
0
0
0
0
0
0
0
0
0
0
0
0
0
0
0
0
0
0
0
0
0
0
0
0
0
0
0
0
0
0
0
0
0
0
0
0
0
0
0
0
0
0
0
0
0
0
0
0
0
0
0
0
0
0
0
0
0
0
0
0
0
0
0
0
0
0
0
0
0
0
0
0
0
0
0
0
0
0
0
0
0
0
0
0
0
0
0
0
0
0
0
0
0
0
0
0
0
0
0
0
0
0
0
0
0
0
0
0
0
0
0
0
0
0
0
0
0
0
0
0
0
0
0
0
0
0
0
0
0
0
0
0
0
0
0
0
0
0
0
0
0
0
0
0
0
0
0
0
0
0
0
0
0
0
0
0
0
0
0
0
0
0
0
0
0
0
0
0
0
0
0
0
0
0
0
0
0
0
0
0
0
0
0
0
0
0
0
0
0
0
0
0
0
0
0
0
0
0
0
0
0
0
0
0
0
0
0
0
0
0
0
0
0
0
0
0
0
0
0
0
0
0
0
0
0
0
0
0
0
0
0
0
0
0
0
0
0
0
0
0
0
0
0
0
0
0
0
0
0
0
0
0
0
0
0
0
0
0
0
0
0
0
0
0
0
0
0
0
0
0
0
0
0
0
0
0
0
0
0
0
0
0
0
0
0
0
0
0
0
0
0
0
0
0
0
0
0
0
0
0
0
0
0
0
0
0
0
0
0
0
0
0
0
0
0
0
0
0
0
0
0
0
0
0
0
0
0
0
0
0
0
0
0
0
0
0
0
0
0
0
0
0
0
0
0
0
0
0
0
0
0
0
0
0
0
0
0
0
0
0
0
0
0
0
0
0
0
0
0
0
0
0
0
0
0
0
0
0
0
0
0
0
0
0
0
0
0
0
0
0
0
0
0
0
0
0
0
0
0
0
0
0
0
0
0
0
0
0
0
0
0
0
0
0
0
0
0
0
0
0
0
0
0
0
0
0
0
0
0
0
0
0
0
0
0
0
0
0
0
0
0
0
0
0
0
0
0
0
0
0
0
0
0
0
0
0
0
0
0
0
0
0
0
0
0
0
0
0
0
0
0
0
0
0
0
0
0
0
0
0
0
0
0
0
0
0
0
0
0
0
0
0
0
0
0
0
0
0
0
0
0
0
0
0
0
0
0
0
0
0
0
0
0
0
0
0
0
0
0
0
0
0
0
0
0
0
0
0
0
0
0
0
0
0
0
0
0
0
0
0
0
0
0
0
0
0
0
0
0
0
0
0
0
0
0
0
0
0
0
0
0
0
0
0
0
0
0
0
0
0
0
0
0
0
0
0
0
0
0
0
0
0
0
0
0
0
0
0
0
0
0
0
0
0
0
0
0
0
0
0
0
0
0
0
0
0
0
0
0
0
0
0
0
0
0
0
0
0
0
0
0
0
0
0
0
0
0
0
0
0
0
0
0
0
0
0
0
0
0
0
0
0
0
0
0
0
0
0
0
0
0
0
0
0
0
0
0
0
0
0
0
0
0
0
0
0
0
0
0
0
0
0
0
0
0
0
0
0
0
0
0
0
0
0
0
0
0
0
0
0
0
0
0
0
0
0
0
0
0
0
0
0
0
0
0
0
0
0
0
0
0
0
0
0
0
0
0
0
0
0
0
0
0
0
0
0
0
0
0
0
0
0
0
0
0
0
0
0
0
0
0
0
0
0
0
0
0
0
0
0
0
0
0
0
0
0
0
0
0
0
0
0
0
0
0
0
0
0
0
0
0
0
0
0
0
0
0
0
0
0
0
0
0
0
0
0
0
0
0
0
0
0
0
0
0
0
0
0
0
0
0
0
0
0
0
0
0
0
0
0
0
0
0
0
0
0
0
0
0
0
0
0
0
0
0
0
0
0
0
0
0
0
0
0
0
0
0
0
0
1
1
1
1
1
1
1
1
1
1
1
1
1
1
1
1
1
1
1
1
1
1
1
1
1
1
1
1
1
1
2
2
2
2
2
2
2
2
2
2
2
2
2
2
2
2
2
2
2
2
2
2
2
2
2
2
2
2
2
2
3
3
3
3
3
3
3
3
3
3
3
3
3
3
3
3
3
3
3
3
3
3
3
3
3
3
3
3
3
3
4
4
4
4
4
4
4
4
4
4
4
4
4
4
4
4
4
4
4
4
4
4
4
4
4
4
4
4
4
4

LOOKUP_TABLE FreeFempp_table 5
1.00000000 0.00000000 0.00000000 1.00000000
1.00000000 1.00000000 0.00000000 1.00000000
1.00000000 0.00000000 1.00000000 1.00000000
0.00000000 1.00000000 0.00000000 1.00000000
0.00000000 1.00000000 1.00000000 1.00000000

POINT_DATA 961
FIELD FieldData 1
Density 1 961 float
4.37524170e-01 3.57387275e-01 3.49063486e-01 3.47944289e-01 3.47349852e-01 3.47007900e-01 3.48210663e-01 3.42015952e-01 9.23264772e-02 5.28809556e-04 6.86815358e-04 2.05116104e-02 2.66695827e-01 3.02158058e-01 4.57534999e-01 7.97683895e-01 8.32451224e-01 6.56525791e-01 7.22555399e-01 7.01863229e-01 6.56939924e-01 6.21315539e-01 6.00115001e-01 5.94193399e-01 5.93688548e-01 5.88975728e-01 5.78409135e-01 5.65724254e-01 5.56684136e-01 5.40149570e-01 5.61265647e-01 7.10395575e-01 2.61485130e-01 2.00147510e-01 1.97467551e-01 1.97663426e-01 1.98447376e-01 2.00580254e-01 1.95897698e-01 9.78592187e-02 5.85696078e-04 4.17631847e-04 4.17349441e-03 1.54794559e-01 1.71728879e-01 1.99292868e-01 8.33127618e-01 4.41501409e-01 2.89505515e-02 7.57174909e-01 8.32396209e-01 7.61746109e-01 7.09682047e-01 6.25938416e-01 5.90334594e-01 5.83467603e-01 5.73315144e-01 5.50231874e-01 5.19781888e-01 4.94175434e-01 4.65321630e-01 5.22599578e-01 1.81970754e-04 1.71138905e-04 1.71172302e-04 1.71774082e-04 1.72383006e-04 1.73087727e-04 1.73997745e-04 1.75473950e-04 1.76546600e-04 1.74772940e-04 1.76897593e-04 1.76055066e-04 1.31203592e-01 1.74193650e-01 9.53252763e-02 1.51170671e-01 7.49326289e-01 1.13998936e-03 9.82799218e-04 7.72860833e-04 2.59598494e-01 5.57000756e-01 6.09502614e-01 5.33366084e-01 5.23098290e-01 5.08449137e-01 4.78932410e-01 4.41517889e-01 4.11594272e-01 3.85069281e-01 4.83636409e-01 2.18620364e-04 1.64789119e-04 1.71571111e-04 1.71311869e-04 1.71880878e-04 1.72482134e-04 1.73187131e-04 1.74333501e-04 1.75712325e-04 1.76384288e-04 1.75280467e-04 1.44868172e-04 1.46014092e-04 1.68723578e-04 1.55899571e-02 3.03312875e-02 9.53990221e-01 5.05354226e-01 1.47704594e-03 4.76590212e-04 4.23648307e-04 4.80529532e-04 5.03883138e-03 5.01631796e-01 4.10886616e-01 4.25398082e-01 3.87172014e-01 3.44840020e-01 3.16528171e-01 3.03233892e-01 4.39485818e-01 3.15889001e-01 1.50162220e-01 1.40433833e-01 1.40765056e-01 1.42836839e-01 1.47891134e-01 1.56523928e-01 1.67848110e-01 1.79310679e-01 1.85805023e-01 1.48724213e-01 1.14255620e-03 1.69566149e-04 1.43496640e-04 1.42507473e-04 1.79612951e-04 1.90570703e-04 1.71295324e-04 9.98064399e-01 5.61238289e-01 5.93679782e-04 3.34378361e-04 2.99710751e-04 2.90582539e-04 5.73524356e-01 3.42140824e-01 3.02847475e-01 2.47918442e-01 2.23277166e-01 2.28883758e-01 3.91788840e-01 3.96471649e-01 2.18089566e-01 2.06380710e-01 2.03422591e-01 2.02527255e-01 2.04507709e-01 2.09471583e-01 2.16347307e-01 2.23567382e-01 2.30059400e-01 2.32445121e-01 2.21165285e-01 1.88740194e-01 1.53572887e-01 1.66580765e-04 1.80261821e-04 1.80801231e-04 1.50994776e-04 1.43497469e-04 9.94606078e-01 4.86684620e-01 4.05645184e-02 4.48121660e-04 2.30167643e-04 2.15572130e-04 6.55596912e-01 2.61267513e-01 1.71535745e-01 1.50394991e-01 1.73249483e-01 3.51018518e-01 4.88005102e-01 3.51718068e-01 3.46013933e-01 3.35467726e-01 3.25774670e-01 3.18869829e-01 3.14978391e-01 3.13517988e-01 3.13811511e-01 3.15352976e-01 3.16668063e-01 3.13582152e-01 3.08667600e-01 3.12245369e-01 3.01929116e-01 2.64208466e-01 2.34704375e-01 2.05082908e-01 1.55393675e-04 1.50186679e-04 9.80183661e-01 9.77568924e-01 9.11117375e-01 9.39195454e-01 2.14458458e-04 2.07958510e-04 3.39255393e-01 1.45552263e-01 1.05413891e-01 1.35751203e-01 3.22044283e-01 5.75788379e-01 5.24589956e-01 5.25551498e-01 5.07887363e-01 4.89410877e-01 4.73054856e-01 4.60299790e-01 4.51656610e-01 4.46885884e-01 4.44760233e-01 4.42917854e-01 4.39499974e-01 4.35641527e-01 4.30467099e-01 4.17976171e-01 4.02650535e-01 3.72957081e-01 3.39185625e-01 3.32768619e-01 2.56044179e-04 1.93909116e-04 8.88962865e-01 4.78769124e-01 7.87682891e-01 9.87412632e-01 2.03230142e-04 1.96622088e-04 7.98734874e-02 9.27000940e-02 1.15308732e-01 3.10082823e-01 6.35430336e-01 6.60163403e-01 6.55342698e-01 6.37119293e-01 6.18751168e-01 6.01738334e-01 5.87599337e-01 5.77313125e-01 5.70891142e-01 5.67070186e-01 5.63910127e-01 5.60663939e-01 5.57952344e-01 5.54042161e-01 5.46634614e-01 5.36912382e-01 5.18118680e-01 4.80438232e-01 4.28625733e-01 4.09316063e-01 1.61483535e-04 1.59362797e-04 2.67183088e-04 5.44753217e-04 8.73584673e-03 9.92415547e-01 1.94157779e-04 1.87468380e-04 4.83444743e-02 1.19996995e-01 3.31042051e-01 6.53945982e-01 7.12521970e-01 6.94922566e-01 6.75920188e-01 6.60369158e-01 6.47694588e-01 6.37723923e-01 6.30643427e-01 6.26342177e-01 6.24067843e-01 6.22985125e-01 6.23285770e-01 6.25740945e-01 6.29882455e-01 6.35401189e-01 6.42027557e-01 6.44867063e-01 6.38732672e-01 6.23836935e-01 6.14870667e-01 6.60744548e-01 1.92069550e-04 2.18487636e-04 2.40776033e-04 3.72278679e-04 9.67381173e-04 9.96923625e-01 1.83217751e-04 1.76851376e-04 6.91539347e-02 3.62675160e-01 6.35393739e-01 6.82524920e-01 6.39664292e-01 6.14173889e-01 6.02277040e-01 5.97486675e-01 5.95708966e-01 5.95376432e-01 5.96025467e-01 5.97461283e-01 5.99848390e-01 6.04129493e-01 6.11500442e-01 6.22499228e-01 6.37610972e-01 6.56471670e-01 6.76643074e-01 6.97910547e-01 7.24427402e-01 7.59227157e-01 8.11132312e-01 8.33560884e-01 1.66271254e-01 1.57287484e-03 5.12850122e-04 6.89831213e-04 9.86394938e-04 9.93772447e-01 1.75630106e-04 1.92479725e-04 3.28684717e-01 5.99680424e-01 5.82709074e-01 4.89166766e-01 4.51104641e-01 4.48174030e-01 4.58619475e-01 4.71572012e-01 4.82879996e-01 4.91683751e-01 4.98469770e-01 5.04338026e-01 5.10819137e-01 5.19418061e-01 5.31193078e-01 5.47028065e-01 5.67300141e-01 5.92300236e-01 6.25006437e-01 6.69489086e-01 7.23547697e-01 7.78392076e-01 8.25388789e-01 8.50644648e-01 8.19793820e-01 5.64177454e-01 2.18894426e-03 7.59297982e-04 8.59067142e-01 5.28391742e-04 2.12339073e-04 3.19415965e-04 5.76562166e-01 4.46370095e-01 2.88076490e-01 2.48226061e-01 2.59748131e-01 2.86162436e-01 3.14208746e-01 3.38378191e-01 3.56950283e-01 3.70371759e-01 3.79994333e-01 3.87319624e-01 3.93529207e-01 3.99295360e-01 4.04989153e-01 4.11205173e-01 4.20738697e-01 4.40650195e-01 4.78593230e-01 5.34324527e-01 5.97044349e-01 6.51653767e-01 6.89808309e-01 7.42549837e-01 7.93992102e-01 7.73698568e-01 5.66265807e-02 9.81819868e-01 6.38689788e-04 3.62428866e-04 3.48781061e-04 5.87389112e-01 3.24336439e-01 1.27473637e-01 1.04569659e-01 1.23087846e-01 1.53521195e-01 1.86949089e-01 2.18814090e-01 2.46140450e-01 2.67822236e-01 2.83854723e-01 2.94571340e-01 3.00216883e-01 3.00759792e-01 2.95963168e-01 2.86329806e-01 2.75709271e-01 2.72563159e-01 2.85968959e-01 3.20579708e-01 3.75108331e-01 4.40038502e-01 4.92678404e-01 5.31420469e-01 6.07764065e-01 7.86276937e-01 9.16557610e-01 9.71146286e-01 4.36498260e-04 4.21913603e-04 6.42583473e-04 6.28730714e-01 2.45666757e-01 4.90152948e-02 3.84711176e-02 5.39162159e-02 7.96950310e-02 1.10392816e-01 1.44050241e-01 1.78315043e-01 2.10137069e-01 2.36541629e-01 2.55043119e-01 2.63970137e-01 2.62438506e-01 2.50218332e-01 2.28773221e-01 2.03930929e-01 1.85495570e-01 1.81698442e-01 1.97328895e-01 2.39193082e-01 3.17889988e-01 4.24513936e-01 5.54530621e-01 7.49190211e-01 9.14001226e-01 9.53617692e-01 9.07891870e-01 3.74183699e-04 3.89744819e-04 1.28096587e-03 6.81232333e-01 2.03605548e-01 1.95662230e-02 1.37556568e-02 2.34237593e-02 4.31909822e-02 7.02369362e-02 1.04116306e-01 1.44717544e-01 1.88580066e-01 2.28880927e-01 2.58246630e-01 2.71669388e-01 2.67119080e-01 2.44969144e-01 2.09282771e-01 1.70606270e-01 1.42230168e-01 1.31901324e-01 1.44427225e-01 1.91443846e-01 3.07624996e-01 5.23417115e-01 7.76058793e-01 9.20138776e-01 9.56745505e-01 9.49452579e-01 5.01052151e-03 3.71144444e-04 3.56894103e-04 3.92473163e-03 7.26398587e-01 1.83375880e-01 8.56824405e-03 5.44027612e-03 1.06882220e-02 2.59700753e-02 5.12282923e-02 8.70555192e-02 1.35862365e-01 1.94242015e-01 2.49891683e-01 2.88918257e-01 3.03322792e-01 2.91091472e-01 2.54455566e-01 2.02427238e-01 1.52930021e-01 1.22485854e-01 1.17877133e-01 1.46535233e-01 2.41149098e-01 5.00610471e-01 8.06216598e-01 9.28088665e-01 9.57946956e-01 9.54959750e-01 1.74924433e-02 1.01203588e-03 4.52958106e-04 4.06272273e-04 2.61764787e-02 7.55391240e-01 1.79807186e-01 4.38556215e-03 2.91068642e-03 5.57258027e-03 1.84538066e-02 4.51028161e-02 8.72678757e-02 1.49364948e-01 2.24361047e-01 2.91163266e-01 3.31900507e-01 3.40169042e-01 3.16299528e-01 2.65369058e-01 2.02497751e-01 1.52220264e-01 1.31744593e-01 1.51338458e-01 2.48563096e-01 5.19614577e-01 8.44161630e-01 9.34491396e-01 9.56005216e-01 9.48235095e-01 2.72293836e-02 1.40140904e-03 6.29711081e-04 5.84396359e-04 6.48986432e-04 1.39427274e-01 7.68311381e-01 1.93707719e-01 2.80892849e-03 1.98533549e-03 3.63084464e-03 1.60415433e-02 4.86459844e-02 1.04881816e-01 1.87065586e-01 2.74785489e-01 3.40193450e-01 3.71433377e-01 3.68621498e-01 3.35194409e-01 2.79146791e-01 2.19998822e-01 1.85462654e-01 2.02752694e-01 3.31827164e-01 6.53766990e-01 8.90001059e-01 9.42308486e-01 9.49057281e-01 9.13266897e-01 1.45924818e-02 1.41338620e-03 7.64160941e-04 6.76766911e-04 8.23011855e-04 2.83626164e-03 2.22746134e-01 7.67822802e-01 2.21937701e-01 1.99135300e-03 1.47370098e-03 2.79170531e-03 1.67744756e-02 6.21993765e-02 1.43285364e-01 2.46049896e-01 3.31869930e-01 3.81966472e-01 3.97863567e-01 3.85604620e-01 3.51619571e-01 3.07385564e-01 2.76058763e-01 2.97028303e-01 4.45891947e-01 7.60613859e-01 9.24835920e-01 9.40731347e-01 9.00132775e-01 5.47236681e-01 4.05161595e-03 1.26768660e-03 9.35838150e-04 8.15648120e-04 1.00335921e-03 3.01472517e-03 4.72040996e-02 2.96419770e-01 7.56465375e-01 2.61538208e-01 1.50258315e-03 1.16363633e-03 2.31223321e-03 2.02064253e-02 8.87666941e-02 2.02452317e-01 3.10953051e-01 3.79102916e-01 4.09278512e-01 4.12130803e-01 3.96741360e-01 3.73055249e-01 3.57841641e-01 3.82471085e-01 5.03160417e-01 7.45852113e-01 9.12976444e-01 9.51105714e-01 8.99948239e-01 2.73858793e-02 1.64945691e-03 1.60126062e-03 1.41752628e-03 1.04328478e-03 1.52509648e-03 7.63183786e-03 9.18969736e-02 2.83944041e-01 4.10579026e-01 7.37299502e-01 3.08241993e-01 1.21909147e-03 9.59598110e-04 1.98757648e-03 2.70792209e-02 1.32095009e-01 2.70682424e-01 3.63980442e-01 4.09260869e-01 4.23292905e-01 4.19036835e-01 4.06888396e-01 3.99970412e-01 4.19792473e-01 5.00944555e-01 6.71425700e-01 8.49818289e-01 9.28739130e-01 9.45040941e-01 8.91552150e-01 2.29741231e-01 3.08424747e-03 1.76300167e-03 2.17684312e-03 6.59328327e-03 1.08276866e-01 6.25267982e-01 7.21117675e-01 7.37820387e-01 6.16713285e-01 7.14021146e-01 3.53371650e-01 1.06501684e-03 8.10787838e-04 1.72544923e-03 3.96656506e-02 1.92010164e-01 3.30818474e-01 3.97987247e-01 4.23269302e-01 4.26996231e-01 4.21116829e-01 4.15909261e-01 4.25354630e-01 4.70812142e-01 5.76913059e-01 7.33283520e-01 8.57541859e-01 9.11776543e-01 9.22587931e-01 8.83783996e-01 5.74502647e-01 1.80233732e-01 4.02212024e-01 8.68595660e-01 9.31615233e-01 9.41842139e-01 9.18543160e-01 8.83536398e-01 8.86199892e-01 7.67084301e-01 6.89322352e-01 3.89027268e-01 1.02276076e-03 6.96443894e-04 1.45390793e-03 6.21390864e-02 2.58919537e-01 3.73687029e-01 4.13889974e-01 4.23915625e-01 4.22305793e-01 4.18572366e-01 4.21191663e-01 4.42162514e-01 4.98088479e-01 6.00839019e-01 7.28217244e-01 8.24871480e-01 8.71296108e-01 8.81576478e-01 8.57992768e-01 7.78843582e-01 7.75139034e-01 8.84983659e-01 9.03932810e-01 8.81739974e-01 8.57447028e-01 8.41751575e-01 8.37444425e-01 8.56966555e-01 7.72394896e-01 6.62498653e-01 4.15294796e-01 1.13748282e-03 5.95908612e-04 1.13089976e-03 9.85580981e-02 3.18688959e-01 3.97637755e-01 4.13816839e-01 4.13182408e-01 4.10279721e-01 4.11001265e-01 4.20709431e-01 4.47727442e-01 5.02569139e-01 5.89016616e-01 6.88140571e-01 7.65658438e-01 8.06345224e-01 8.14001679e-01 7.89900661e-01 7.40021408e-01 7.17238903e-01 7.19025254e-01 6.81455135e-01 6.39995039e-01 6.32021070e-01 6.59037471e-01 7.05321729e-01 7.47178078e-01 6.98137939e-01 6.30007505e-01 4.36007857e-01 1.58241228e-03 4.94579261e-04 7.90896127e-04 1.47504076e-01 3.63180757e-01 4.02360737e-01 3.98577929e-01 3.92262816e-01 3.91671807e-01 3.98229122e-01 4.13883448e-01 4.43054289e-01 4.91065532e-01 5.58012187e-01 6.31271064e-01 6.90441191e-01 7.23071098e-01 7.25972712e-01 6.95414782e-01 6.32551849e-01 5.62488258e-01 5.05096674e-01 4.70498621e-01 4.68640953e-01 4.95621532e-01 5.40641904e-01 5.88134170e-01 6.25116348e-01 6.19535565e-01 5.85777164e-01 4.47767079e-01 2.97556608e-03 4.10430075e-04 5.45006944e-04 2.04783157e-01 3.88341635e-01 3.86389375e-01 3.68943393e-01 3.62724990e-01 3.67409080e-01 3.80432367e-01 4.01185870e-01 4.30865914e-01 4.70888764e-01 5.19809306e-01 5.70383728e-01 6.11728132e-01 6.35514379e-01 6.36904061e-01 6.10638261e-01 5.55171013e-01 4.86347795e-01 4.32062149e-01 4.11789209e-01 4.21974808e-01 4.48975772e-01 4.81612086e-01 5.11129200e-01 5.35756111e-01 5.67336857e-01 5.25795460e-01 4.59188759e-01 7.61817442e-03 3.55711847e-04 4.17332543e-04 2.66795218e-01 3.88068229e-01 3.50597292e-01 3.29332769e-01 3.28338265e-01 3.39442492e-01 3.58381957e-01 3.83643121e-01 4.14288193e-01 4.48706269e-01 4.84191030e-01 5.16958833e-01 5.42900383e-01 5.58665693e-01 5.61134398e-01 5.45875847e-01 5.09994030e-01 4.61244971e-01 4.19615746e-01 4.01476741e-01 4.04890120e-01 4.19037938e-01 4.35911626e-01 4.48934883e-01 4.62887764e-01 5.29829085e-01 4.64946359e-01 4.10933077e-01 3.23260240e-02 3.32178053e-04 3.56417993e-04 3.18249941e-01 3.59195828e-01 3.05383474e-01 2.90327728e-01 2.95829058e-01 3.11127365e-01 3.33320290e-01 3.61826658e-01 3.95163596e-01 4.29806471e-01 4.61119354e-01 4.85395133e-01 5.01077712e-01 5.08102298e-01 5.06049931e-01 4.93106067e-01 4.68022257e-01 4.34746444e-01 4.03822392e-01 3.85243237e-01 3.79833937e-01 3.81968170e-01 3.86439145e-01 3.89202774e-01 3.96234751e-01 4.95335251e-01 5.31128764e-01 3.93841267e-01 2.72877038e-01 2.93275807e-04 3.33653268e-04 3.62712771e-01 3.22872281e-01 2.73302346e-01 2.66066253e-01 2.73438483e-01 2.88150489e-01 3.10350031e-01 3.41290951e-01 3.80549312e-01 4.24306571e-01 4.65281069e-01 4.95157570e-01 5.07905960e-01 5.01447916e-01 4.77776349e-01 4.43089932e-01 4.07123923e-01 3.78945529e-01 3.61694187e-01 3.52769822e-01 3.47793519e-01 3.43473613e-01 3.38688195e-01 3.34197581e-01 3.38617444e-01 4.64266419e-01 6.10497653e-01 5.86029172e-01 5.29399753e-01 4.36973467e-04 3.44200555e-04 7.04580188e-01 4.51593608e-01 4.16196346e-01 4.05611366e-01 4.06774580e-01 4.14742202e-01 4.29064125e-01 4.49696302e-01 4.75579619e-01 5.04061639e-01 5.30937374e-01 5.51139474e-01 5.59882224e-01 5.53938508e-01 5.33087254e-01 5.01871526e-01 4.70141292e-01 4.48933393e-01 4.42558140e-01 4.45623666e-01 4.49156702e-01 4.48250800e-01 4.43362832e-01 4.37738955e-01 4.35270637e-01 4.86253530e-01 
