# vtk DataFile Version 2.0
results/iter3.vtk, Created by Freefem++ 
ASCII
DATASET UNSTRUCTURED_GRID
POINTS 961 float
0 0 0
0.033333333 0 0
0.066666667 0 0
0.1 0 0
0.13333333 0 0
0.16666667 0 0
0.2 0 0
0.23333333 0 0
0.26666667 0 0
0.3 0 0
0.33333333 0 0
0.36666667 0 0
0.4 0 0
0.43333333 0 0
0.46666667 0 0
0.5 0 0
0.53333333 0 0
0.56666667 0 0
0.6 0 0
0.63333333 0 0
0.66666667 0 0
0.7 0 0
0.73333333 0 0
0.76666667 0 0
0.8 0 0
0.83333333 0 0
0.86666667 0 0
0.9 0 0
0.93333333 0 0
0.96666667 0 0
1 0 0
0 0.033333333 0
0.033333333 0.033333333 0
0.066666667 0.033333333 0
0.1 0.033333333 0
0.13333333 0.033333333 0
0.16666667 0.033333333 0
0.2 0.033333333 0
0.23333333 0.033333333 0
0.26666667 0.033333333 0
0.3 0.033333333 0
0.33333333 0.033333333 0
0.36666667 0.033333333 0
0.4 0.033333333 0
0.43333333 0.033333333 0
0.46666667 0.033333333 0
0.5 0.033333333 0
0.53333333 0.033333333 0
0.56666667 0.033333333 0
0.6 0.033333333 0
0.63333333 0.033333333 0
0.66666667 0.033333333 0
0.7 0.033333333 0
0.73333333 0.033333333 0
0.76666667 0.033333333 0
0.8 0.033333333 0
0.83333333 0.033333333 0
0.86666667 0.033333333 0
0.9 0.033333333 0
0.93333333 0.033333333 0
0.96666667 0.033333333 0
1 0.033333333 0
0 0.066666667 0
0.033333333 0.066666667 0
0.066666667 0.066666667 0
0.1 0.066666667 0
0.13333333 0.066666667 0
0.16666667 0.066666667 0
0.2 0.066666667 0
0.23333333 0.066666667 0
0.26666667 0.066666667 0
0.3 0.066666667 0
0.33333333 0.066666667 0
0.36666667 0.066666667 0
0.4 0.066666667 0
0.43333333 0.066666667 0
0.46666667 0.066666667 0
0.5 0.066666667 0
0.53333333 0.066666667 0
0.56666667 0.066666667 0
0.6 0.066666667 0
0.63333333 0.066666667 0
0.66666667 0.066666667 0
0.7 0.066666667 0
0.73333333 0.066666667 0
0.76666667 0.066666667 0
0.8 0.066666667 0
0.83333333 0.066666667 0
0.86666667 0.066666667 0
0.9 0.066666667 0
0.93333333 0.066666667 0
0.96666667 0.066666667 0
1 0.066666667 0
0 0.1 0
0.033333333 0.1 0
0.066666667 0.1 0
0.1 0.1 0
0.13333333 0.1 0
0.16666667 0.1 0
0.2 0.1 0
0.23333333 0.1 0
0.26666667 0.1 0
0.3 0.1 0
0.33333333 0.1 0
0.36666667 0.1 0
0.4 0.1 0
0.43333333 0.1 0
0.46666667 0.1 0
0.5 0.1 0
0.53333333 0.1 0
0.56666667 0.1 0
0.6 0.1 0
0.63333333 0.1 0
0.66666667 0.1 0
0.7 0.1 0
0.73333333 0.1 0
0.76666667 0.1 0
0.8 0.1 0
0.83333333 0.1 0
0.86666667 0.1 0
0.9 0.1 0
0.93333333 0.1 0
0.96666667 0.1 0
1 0.1 0
0 0.13333333 0
0.033333333 0.13333333 0
0.066666667 0.13333333 0
0.1 0.13333333 0
0.13333333 0.13333333 0
0.16666667 0.13333333 0
0.2 0.13333333 0
0.23333333 0.13333333 0
0.26666667 0.13333333 0
0.3 0.13333333 0
0.33333333 0.13333333 0
0.36666667 0.13333333 0
0.4 0.13333333 0
0.43333333 0.13333333 0
0.46666667 0.13333333 0
0.5 0.13333333 0
0.53333333 0.13333333 0
0.56666667 0.13333333 0
0.6 0.13333333 0
0.63333333 0.13333333 0
0.66666667 0.13333333 0
0.7 0.13333333 0
0.73333333 0.13333333 0
0.76666667 0.13333333 0
0.8 0.13333333 0
0.83333333 0.13333333 0
0.86666667 0.13333333 0
0.9 0.13333333 0
0.93333333 0.13333333 0
0.96666667 0.13333333 0
1 0.13333333 0
0 0.16666667 0
0.033333333 0.16666667 0
0.066666667 0.16666667 0
0.1 0.16666667 0
0.13333333 0.16666667 0
0.16666667 0.16666667 0
0.2 0.16666667 0
0.23333333 0.16666667 0
0.26666667 0.16666667 0
0.3 0.16666667 0
0.33333333 0.16666667 0
0.36666667 0.16666667 0
0.4 0.16666667 0
0.43333333 0.16666667 0
0.46666667 0.16666667 0
0.5 0.16666667 0
0.53333333 0.16666667 0
0.56666667 0.16666667 0
0.6 0.16666667 0
0.63333333 0.16666667 0
0.66666667 0.16666667 0
0.7 0.16666667 0
0.73333333 0.16666667 0
0.76666667 0.16666667 0
0.8 0.16666667 0
0.83333333 0.16666667 0
0.86666667 0.16666667 0
0.9 0.16666667 0
0.93333333 0.16666667 0
0.96666667 0.16666667 0
1 0.16666667 0
0 0.2 0
0.033333333 0.2 0
0.066666667 0.2 0
0.1 0.2 0
0.13333333 0.2 0
0.16666667 0.2 0
0.2 0.2 0
0.23333333 0.2 0
0.26666667 0.2 0
0.3 0.2 0
0.33333333 0.2 0
0.36666667 0.2 0
0.4 0.2 0
0.43333333 0.2 0
0.46666667 0.2 0
0.5 0.2 0
0.53333333 0.2 0
0.56666667 0.2 0
0.6 0.2 0
0.63333333 0.2 0
0.66666667 0.2 0
0.7 0.2 0
0.73333333 0.2 0
0.76666667 0.2 0
0.8 0.2 0
0.83333333 0.2 0
0.86666667 0.2 0
0.9 0.2 0
0.93333333 0.2 0
0.96666667 0.2 0
1 0.2 0
0 0.23333333 0
0.033333333 0.23333333 0
0.066666667 0.23333333 0
0.1 0.23333333 0
0.13333333 0.23333333 0
0.16666667 0.23333333 0
0.2 0.23333333 0
0.23333333 0.23333333 0
0.26666667 0.23333333 0
0.3 0.23333333 0
0.33333333 0.23333333 0
0.36666667 0.23333333 0
0.4 0.23333333 0
0.43333333 0.23333333 0
0.46666667 0.23333333 0
0.5 0.23333333 0
0.53333333 0.23333333 0
0.56666667 0.23333333 0
0.6 0.23333333 0
0.63333333 0.23333333 0
0.66666667 0.23333333 0
0.7 0.23333333 0
0.73333333 0.23333333 0
0.76666667 0.23333333 0
0.8 0.23333333 0
0.83333333 0.23333333 0
0.86666667 0.23333333 0
0.9 0.23333333 0
0.93333333 0.23333333 0
0.96666667 0.23333333 0
1 0.23333333 0
0 0.26666667 0
0.033333333 0.26666667 0
0.066666667 0.26666667 0
0.1 0.26666667 0
0.13333333 0.26666667 0
0.16666667 0.26666667 0
0.2 0.26666667 0
0.23333333 0.26666667 0
0.26666667 0.26666667 0
0.3 0.26666667 0
0.33333333 0.26666667 0
0.36666667 0.26666667 0
0.4 0.26666667 0
0.43333333 0.26666667 0
0.46666667 0.26666667 0
0.5 0.26666667 0
0.53333333 0.26666667 0
0.56666667 0.26666667 0
0.6 0.26666667 0
0.63333333 0.26666667 0
0.66666667 0.26666667 0
0.7 0.26666667 0
0.73333333 0.26666667 0
0.76666667 0.26666667 0
0.8 0.26666667 0
0.83333333 0.26666667 0
0.86666667 0.26666667 0
0.9 0.26666667 0
0.93333333 0.26666667 0
0.96666667 0.26666667 0
1 0.26666667 0
0 0.3 0
0.033333333 0.3 0
0.066666667 0.3 0
0.1 0.3 0
0.13333333 0.3 0
0.16666667 0.3 0
0.2 0.3 0
0.23333333 0.3 0
0.26666667 0.3 0
0.3 0.3 0
0.33333333 0.3 0
0.36666667 0.3 0
0.4 0.3 0
0.43333333 0.3 0
0.46666667 0.3 0
0.5 0.3 0
0.53333333 0.3 0
0.56666667 0.3 0
0.6 0.3 0
0.63333333 0.3 0
0.66666667 0.3 0
0.7 0.3 0
0.73333333 0.3 0
0.76666667 0.3 0
0.8 0.3 0
0.83333333 0.3 0
0.86666667 0.3 0
0.9 0.3 0
0.93333333 0.3 0
0.96666667 0.3 0
1 0.3 0
0 0.33333333 0
0.033333333 0.33333333 0
0.066666667 0.33333333 0
0.1 0.33333333 0
0.13333333 0.33333333 0
0.16666667 0.33333333 0
0.2 0.33333333 0
0.23333333 0.33333333 0
0.26666667 0.33333333 0
0.3 0.33333333 0
0.33333333 0.33333333 0
0.36666667 0.33333333 0
0.4 0.33333333 0
0.43333333 0.33333333 0
0.46666667 0.33333333 0
0.5 0.33333333 0
0.53333333 0.33333333 0
0.56666667 0.33333333 0
0.6 0.33333333 0
0.63333333 0.33333333 0
0.66666667 0.33333333 0
0.7 0.33333333 0
0.73333333 0.33333333 0
0.76666667 0.33333333 0
0.8 0.33333333 0
0.83333333 0.33333333 0
0.86666667 0.33333333 0
0.9 0.33333333 0
0.93333333 0.33333333 0
0.96666667 0.33333333 0
1 0.33333333 0
0 0.36666667 0
0.033333333 0.36666667 0
0.066666667 0.36666667 0
0.1 0.36666667 0
0.13333333 0.36666667 0
0.16666667 0.36666667 0
0.2 0.36666667 0
0.23333333 0.36666667 0
0.26666667 0.36666667 0
0.3 0.36666667 0
0.33333333 0.36666667 0
0.36666667 0.36666667 0
0.4 0.36666667 0
0.43333333 0.36666667 0
0.46666667 0.36666667 0
0.5 0.36666667 0
0.53333333 0.36666667 0
0.56666667 0.36666667 0
0.6 0.36666667 0
0.63333333 0.36666667 0
0.66666667 0.36666667 0
0.7 0.36666667 0
0.73333333 0.36666667 0
0.76666667 0.36666667 0
0.8 0.36666667 0
0.83333333 0.36666667 0
0.86666667 0.36666667 0
0.9 0.36666667 0
0.93333333 0.36666667 0
0.96666667 0.36666667 0
1 0.36666667 0
0 0.4 0
0.033333333 0.4 0
0.066666667 0.4 0
0.1 0.4 0
0.13333333 0.4 0
0.16666667 0.4 0
0.2 0.4 0
0.23333333 0.4 0
0.26666667 0.4 0
0.3 0.4 0
0.33333333 0.4 0
0.36666667 0.4 0
0.4 0.4 0
0.43333333 0.4 0
0.46666667 0.4 0
0.5 0.4 0
0.53333333 0.4 0
0.56666667 0.4 0
0.6 0.4 0
0.63333333 0.4 0
0.66666667 0.4 0
0.7 0.4 0
0.73333333 0.4 0
0.76666667 0.4 0
0.8 0.4 0
0.83333333 0.4 0
0.86666667 0.4 0
0.9 0.4 0
0.93333333 0.4 0
0.96666667 0.4 0
1 0.4 0
0 0.43333333 0
0.033333333 0.43333333 0
0.066666667 0.43333333 0
0.1 0.43333333 0
0.13333333 0.43333333 0
0.16666667 0.43333333 0
0.2 0.43333333 0
0.23333333 0.43333333 0
0.26666667 0.43333333 0
0.3 0.43333333 0
0.33333333 0.43333333 0
0.36666667 0.43333333 0
0.4 0.43333333 0
0.43333333 0.43333333 0
0.46666667 0.43333333 0
0.5 0.43333333 0
0.53333333 0.43333333 0
0.56666667 0.43333333 0
0.6 0.43333333 0
0.63333333 0.43333333 0
0.66666667 0.43333333 0
0.7 0.43333333 0
0.73333333 0.43333333 0
0.76666667 0.43333333 0
0.8 0.43333333 0
0.83333333 0.43333333 0
0.86666667 0.43333333 0
0.9 0.43333333 0
0.93333333 0.43333333 0
0.96666667 0.43333333 0
1 0.43333333 0
0 0.46666667 0
0.033333333 0.46666667 0
0.066666667 0.46666667 0
0.1 0.46666667 0
0.13333333 0.46666667 0
0.16666667 0.46666667 0
0.2 0.46666667 0
0.23333333 0.46666667 0
0.26666667 0.46666667 0
0.3 0.46666667 0
0.33333333 0.46666667 0
0.36666667 0.46666667 0
0.4 0.46666667 0
0.43333333 0.46666667 0
0.46666667 0.46666667 0
0.5 0.46666667 0
0.53333333 0.46666667 0
0.56666667 0.46666667 0
0.6 0.46666667 0
0.63333333 0.46666667 0
0.66666667 0.46666667 0
0.7 0.46666667 0
0.73333333 0.46666667 0
0.76666667 0.46666667 0
0.8 0.46666667 0
0.83333333 0.46666667 0
0.86666667 0.46666667 0
0.9 0.46666667 0
0.93333333 0.46666667 0
0.96666667 0.46666667 0
1 0.46666667 0
0 0.5 0
0.033333333 0.5 0
0.066666667 0.5 0
0.1 0.5 0
0.13333333 0.5 0
0.16666667 0.5 0
0.2 0.5 0
0.23333333 0.5 0
0.26666667 0.5 0
0.3 0.5 0
0.33333333 0.5 0
0.36666667 0.5 0
0.4 0.5 0
0.43333333 0.5 0
0.46666667 0.5 0
0.5 0.5 0
0.53333333 0.5 0
0.56666667 0.5 0
0.6 0.5 0
0.63333333 0.5 0
0.66666667 0.5 0
0.7 0.5 0
0.73333333 0.5 0
0.76666667 0.5 0
0.8 0.5 0
0.83333333 0.5 0
0.86666667 0.5 0
0.9 0.5 0
0.93333333 0.5 0
0.96666667 0.5 0
1 0.5 0
0 0.53333333 0
0.033333333 0.53333333 0
0.066666667 0.53333333 0
0.1 0.53333333 0
0.13333333 0.53333333 0
0.16666667 0.53333333 0
0.2 0.53333333 0
0.23333333 0.53333333 0
0.26666667 0.53333333 0
0.3 0.53333333 0
0.33333333 0.53333333 0
0.36666667 0.53333333 0
0.4 0.53333333 0
0.43333333 0.53333333 0
0.46666667 0.53333333 0
0.5 0.53333333 0
0.53333333 0.53333333 0
0.56666667 0.53333333 0
0.6 0.53333333 0
0.63333333 0.53333333 0
0.66666667 0.53333333 0
0.7 0.53333333 0
0.73333333 0.53333333 0
0.76666667 0.53333333 0
0.8 0.53333333 0
[...]
CELL_DATA 1920
Scalars  Label int 1
LOOKUP_TABLE FreeFempp_table
0
0
0
0
0
0
0
0
0
0
0
0
0
0
0
0
0
0
0
0
0
0
0
0
0
0
0
0
0
0
0
0
0
0
0
0
0
0
0
0
0
0
0
0
0
0
0
0
0
0
0
0
0
0
0
0
0
0
0
0
0
0
0
0
0
0
0
0
0
0
0
0
0
0
0
0
0
0
0
0
0
0
0
0
0
0
0
0
0
0
0
0
0
0
0
0
0
0
0
0
0
0
0
0
0
0
0
0
0
0
0
0
0
0
0
0
0
0
0
0
0
0
0
0
0
0
0
0
0
0
0
0
0
0
0
0
0
0
0
0
0
0
0
0
0
0
0
0
0
0
0
0
0
0
0
0
0
0
0
0
0
0
0
0
0
0
0
0
0
0
0
0
0
0
0
0
0
0
0
0
0
0
0
0
0
0
0
0
0
0
0
0
0
0
0
0
0
0
0
0
0
0
0
0
0
0
0
0
0
0
0
0
0
0
0
0
0
0
0
0
0
0
0
0
0
0
0
0
0
0
0
0
0
0
0
0
0
0
0
0
0
0
0
0
0
0
0
0
0
0
0
0
0
0
0
0
0
0
0
0
0
0
0
0
0
0
0
0
0
0
0
0
0
0
0
0
0
0
0
0
0
0
0
0
0
0
0
0
0
0
0
0
0
0
0
0
0
0
0
0
0
0
0
0
0
0
0
0
0
0
0
0
0
0
0
0
0
0
0
0
0
0
0
0
0
0
0
0
0
0
0
0
0
0
0
0
0
0
0
0
0
0
0
0
0
0
0
0
0
0
0
0
0
0
0
0
0
0
0
0
0
0
0
0
0
0
0
0
0
0
0
0
0
0
0
0
0
0
0
0
0
0
0
0
0
0
0
0
0
0
0
0
0
0
0
0
0
0
0
0
0
0
0
0
0
0
0
0
0
0
0
0
0
0
0
0
0
0
0
0
0
0
0
0
0
0
0
0
0
0
0
0
0
0
0
0
0
0
0
0
0
0
0
0
0
0
0
0
0
0
0
0
0
0
0
0
0
0
0
0
0
0
0
0
0
0
0
0
0
0
0
0
0
0
0
0
0
0
0
0
0
0
0
0
0
0
0
0
0
0
0
0
0
0
0
0
0
0
0
0
0
0
0
0
0
0
0
0
0
0
0
0
0
0
0
0
0
0
0
0
0
0
0
0
0
0
0
0
0
0
0
0
0
0
0
0
0
0
0
0
0
0
0
0
0
0
0
0
0
0
0
0
0
0
0
0
0
0
0
0
0
0
0
0
0
0
0
0
0
0
0
0
0
0
0
0
0
0
0
0
0
0
0
0
0
0
0
0
0
0
0
0
0
0
0
0
0
0
0
0
0
0
0
0
0
0
0
0
0
0
0
0
0
0
0
0
0
0
0
0
0
0
0
0
0
0
0
0
0
0
0
0
0
0
0
0
0
0
0
0
0
0
0
0
0
0
0
0
0
0
0
0
0
0
0
0
0
0
0
0
0
0
0
0
0
0
0
0
0
0
0
0
0
0
0
0
0
0
0
0
0
0
0
0
0
0
0
0
0
0
0
0
0
0
0
0
0
0
0
0
0
0
0
0
0
0
0
0
0
0
0
0
0
0
0
0
0
0
0
0
0
0
0
0
0
0
0
0
0
0
0
0
0
0
0
0
0
0
0
0
0
0
0
0
0
0
0
0
0
0
0
0
0
0
0
0
0
0
0
0
0
0
0
0
0
0
0
0
0
0
0
0
0
0
0
0
0
0
0
0
0
0
0
0
0
0
0
0
0
0
0
0
0
0
0
0
0
0
0
0
0
0
0
0
0
0
0
0
0
0
0
0
0
0
0
0
0
0
0
0
0
0
0
0
0
0
0
0
0
0
0
0
0
0
0
0
0
0
0
0
0
0
0
0
0
0
0
0
0
0
0
0
0
0
0
0
0
0
0
0
0
0
0
0
0
0
0
0
0
0
0
0
0
0
0
0
0
0
0
0
0
0
0
0
0
0
0
0
0
0
0
0
0
0
0
0
0
0
0
0
0
0
0
0
0
0
0
0
0
0
0
0
0
0
0
0
0
0
0
0
0
0
0
0
0
0
0
0
0
0
0
0
0
0
0
0
0
0
0
0
0
0
0
0
0
0
0
0
0
0
0
0
0
0
0
0
0
0
0
0
0
0
0
0
0
0
0
0
0
0
0
0
0
0
0
0
0
0
0
0
0
0
0
0
0
0
0
0
0
0
0
0
0
0
0
0
0
0
0
0
0
0
0
0
0
0
0
0
0
0
0
0
0
0
0
0
0
0
0
0
0
0
0
0
0
0
0
0
0
0
0
0
0
0
0
0
0
0
0
0
0
0
0
0
0
0
0
0
0
0
0
0
0
0
0
0
0
0
0
0
0
0
0
0
0
0
0
0
0
0
0
0
0
0
0
0
0
0
0
0
0
0
0
0
0
0
0
0
0
0
0
0
0
0
0
0
0
0
0
0
0
0
0
0
0
0
0
0
0
0
0
0
0
0
0
0
0
0
0
0
0
0
0
0
0
0
0
0
0
0
0
0
0
0
0
0
0
0
0
0
0
0
0
0
0
0
0
0
0
0
0
0
0
0
0
0
0
0
0
0
0
0
0
0
0
0
0
0
0
0
0
0
0
0
0
0
0
0
0
0
0
0
0
0
0
0
0
0
0
0
0
0
0
0
0
0
0
0
0
0
0
0
0
0
0
0
0
0
0
0
0
0
0
0
0
0
0
0
0
0
0
0
0
0
0
0
0
0
0
0
0
0
0
0
0
0
0
0
0
0
0
0
0
0
0
0
0
0
0
0
0
0
0
0
0
0
0
0
0
0
0
0
0
0
0
0
0
0
0
0
0
0
0
0
0
0
0
0
0
0
0
0
0
0
0
0
0
0
0
0
0
0
0
0
0
0
0
0
0
0
0
0
0
0
0
0
0
0
0
0
0
0
0
0
0
0
0
0
0
0
0
0
0
0
0
0
0
0
0
0
0
0
0
0
0
0
0
0
0
0
0
0
0
0
0
0
0
0
0
0
0
0
0
0
0
0
0
0
0
0
0
0
0
0
0
0
0
0
0
0
0
0
0
0
0
0
0
0
0
0
0
0
0
0
0
0
0
0
0
0
0
0
0
0
0
0
0
0
0
0
0
0
0
0
0
0
0
0
0
0
0
0
0
0
0
0
0
0
0
0
0
0
0
0
0
0
0
0
0
0
0
0
0
0
0
0
0
0
0
0
0
0
0
0
0
0
0
0
0
0
0
0
0
0
0
0
0
0
0
0
0
0
0
0
0
0
0
0
0
0
0
0
0
0
0
0
0
0
0
0
0
0
0
0
0
0
0
0
0
0
0
0
0
0
0
0
0
0
0
0
0
0
0
0
0
0
0
0
0
0
0
0
0
0
0
0
0
0
0
0
0
0
0
0
0
0
0
0
0
0
0
0
0
0
0
0
0
0
0
0
0
0
0
0
0
0
0
0
0
0
0
0
0
0
0
0
0
0
0
0
0
0
0
0
0
0
0
0
0
0
0
0
0
0
0
0
0
0
0
0
0
0
0
0
0
0
0
0
0
0
0
0
0
0
0
0
0
0
0
0
0
0
0
0
0
0
0
0
0
0
0
0
0
0
0
0
0
0
0
0
0
0
0
0
0
0
0
0
0
0
0
0
0
0
0
0
0
0
0
0
0
0
0
0
0
0
0
0
0
0
0
0
0
0
0
0
0
0
0
0
0
0
0
0
0
0
0
0
0
0
0
0
0
0
0
0
0
0
0
0
0
0
0
0
0
0
0
0
0
0
0
0
0
0
0
0
0
0
0
0
0
0
0
0
0
0
0
0
0
0
0
0
0
0
0
0
0
0
0
0
0
0
0
0
0
0
0
0
0
0
0
0
0
0
0
0
0
0
0
0
0
0
0
0
0
0
0
0
0
0
0
0
0
0
0
0
0
0
0
0
0
0
0
0
0
0
0
0
0
0
0
0
0
0
0
0
0
0
0
0
0
0
0
0
0
0
0
0
0
0
0
0
0
0
0
0
0
0
0
0
1
1
1
1
1
1
1
1
1
1
1
1
1
1
1
1
1
1
1
1
1
1
1
1
1
1
1
1
1
1
2
2
2
2
2
2
2
2
2
2
2
2
2
2
2
2
2
2
2
2
2
2
2
2
2
2
2
2
2
2
3
3
3
3
3
3
3
3
3
3
3
3
3
3
3
3
3
3
3
3
3
3
3
3
3
3
3
3
3
3
4
4
4
4
4
4
4
4
4
4
4
4
4
4
4
4
4
4
4
4
4
4
4
4
4
4
4
4
4
4

LOOKUP_TABLE FreeFempp_table 5
1.00000000 0.00000000 0.00000000 1.00000000
1.00000000 1.00000000 0.00000000 1.00000000
1.00000000 0.00000000 1.00000000 1.00000000
0.00000000 1.00000000 0.00000000 1.00000000
0.00000000 1.00000000 1.00000000 1.00000000

POINT_DATA 961
FIELD FieldData 1
Density 1 961 float
1.40753603e-02 3.35317075e-01 3.26813489e-01 3.15230429e-01 3.20809990e-01 3.45484525e-01 4.20245498e-01 4.68231678e-01 4.94763225e-01 5.05413949e-01 5.02125800e-01 4.80329096e-01 4.51055050e-01 3.53254914e-01 2.87103117e-01 2.28864864e-01 1.71409145e-01 1.20047100e-01 7.96344429e-02 3.81743945e-02 3.20956483e-02 7.63918981e-02 3.21356028e-01 5.60630202e-01 7.78148890e-01 8.45401704e-01 8.05160582e-01 6.85299516e-01 3.09197396e-01 3.04156303e-01 7.09821403e-01 8.08576401e-03 2.16103625e-03 2.48052794e-02 1.06710412e-01 1.28554046e-01 1.05593160e-01 5.28426729e-02 4.79205213e-02 7.49069676e-02 1.20037220e-01 1.28685832e-01 1.08066745e-01 6.99447393e-02 5.00202961e-02 4.45534363e-02 4.34257165e-02 4.82258089e-02 4.92223948e-02 3.82452309e-02 2.33002231e-02 1.67414602e-02 2.40914281e-02 1.19196989e-01 3.50744665e-01 6.69350684e-01 8.46898198e-01 7.96757877e-01 5.19136846e-01 1.31598741e-01 1.16868012e-01 4.09411728e-01 8.39947462e-01 9.67163779e-03 7.58526148e-03 9.76369344e-03 1.98346730e-02 2.38368586e-02 2.05365941e-02 1.99957769e-02 1.98026579e-02 2.40434874e-02 8.07032883e-02 8.99803713e-02 6.94000795e-02 4.46631052e-02 4.79888134e-02 4.98874635e-02 6.23390488e-02 7.31341615e-02 5.97690679e-02 2.90124863e-02 1.58639234e-02 1.73336174e-02 4.51880656e-02 4.07179385e-01 7.56466269e-01 8.62154245e-01 8.14536572e-01 5.23443162e-01 1.47593409e-01 6.97138757e-02 2.43600696e-01 8.00821409e-02 8.36476684e-02 3.24553214e-02 1.97631977e-02 1.62212271e-02 1.66369453e-02 1.90284941e-02 2.39930246e-02 3.27720419e-02 3.05751115e-02 2.38405373e-02 2.08716337e-02 8.94650221e-02 1.90425530e-01 1.29781157e-01 5.00642285e-02 5.72109371e-02 1.24480262e-01 1.82048067e-01 1.40575856e-01 2.28029657e-02 1.63411982e-02 2.16069277e-02 4.23711389e-01 7.57491589e-01 8.58898580e-01 8.18098664e-01 5.26356161e-01 1.57664508e-01 4.61642332e-02 1.78968653e-01 3.91928554e-02 4.91017103e-02 2.05008034e-02 2.29305364e-02 3.28927115e-02 2.91930977e-02 2.18725856e-02 1.68907624e-02 1.51562169e-02 1.95756126e-02 4.85919043e-02 3.57669517e-02 2.02455688e-02 2.41271481e-02 3.14312205e-02 2.53111683e-02 2.00063698e-02 4.66254540e-02 1.43095076e-01 5.68997823e-02 3.62834968e-02 1.92574132e-02 1.76168960e-02 4.00820702e-01 7.26489425e-01 8.54437947e-01 8.26089442e-01 5.78368664e-01 1.77331612e-01 3.03306077e-02 1.11759596e-01 1.95139796e-01 2.57271435e-02 2.16729399e-02 1.31145818e-02 1.25788823e-02 1.59715731e-02 1.62773710e-02 1.42432302e-02 1.24887172e-02 1.03810085e-02 8.97861924e-03 1.19766733e-02 1.31167835e-02 1.23783331e-02 1.44527471e-02 3.35046537e-02 5.27262874e-02 2.13697273e-02 2.21997183e-02 3.16943116e-02 3.07961870e-02 2.74702404e-02 2.79565621e-02 3.58763695e-01 6.71013057e-01 8.47617269e-01 8.35503757e-01 6.53670549e-01 2.23276705e-01 2.28247661e-02 6.29814938e-02 3.35293084e-01 7.12198168e-02 6.04210384e-02 3.07642706e-02 1.63577553e-02 1.39312139e-02 1.49621069e-02 1.69733129e-02 2.01230831e-02 2.37834230e-02 1.56730730e-02 1.32129109e-02 1.60729736e-02 2.15356033e-02 1.66424904e-02 9.46469605e-03 1.50455320e-02 6.64681718e-02 5.17190434e-02 1.62379835e-02 1.63580459e-02 2.49187965e-02 4.72468510e-02 2.63326854e-01 5.83239853e-01 8.36918414e-01 8.43327165e-01 7.25377262e-01 2.89814502e-01 2.02148221e-02 4.13649380e-02 3.76973599e-01 1.15163572e-01 1.21830128e-01 9.24176648e-02 5.05400263e-02 3.10917310e-02 2.76105516e-02 3.18421833e-02 4.39941995e-02 6.78405017e-02 9.53275412e-02 1.09256007e-01 1.38656527e-01 1.58063188e-01 1.49890453e-01 9.07460973e-02 2.65603457e-02 1.56365167e-02 4.76858951e-02 4.22784612e-02 1.59592740e-02 1.65904034e-02 3.27726863e-02 1.76613048e-01 5.06971180e-01 8.24081957e-01 8.49219739e-01 7.79613674e-01 3.60829622e-01 1.90292671e-02 3.34040672e-02 4.01821792e-01 1.49737120e-01 1.58654943e-01 1.46951884e-01 1.09401867e-01 7.87382796e-02 7.07114637e-02 8.18187669e-02 1.11788563e-01 1.58971131e-01 2.04886675e-01 2.32217789e-01 2.48244822e-01 2.43872404e-01 2.16899335e-01 1.64406791e-01 8.79753679e-02 2.71944515e-02 1.84769202e-02 2.74065454e-02 2.45432947e-02 1.69482678e-02 2.59620789e-02 1.32898018e-01 4.56619918e-01 8.07223260e-01 8.52445185e-01 8.15801084e-01 4.41123635e-01 1.79837439e-02 2.97007561e-02 4.24349099e-01 1.83711573e-01 1.97593957e-01 2.02671766e-01 1.91194639e-01 1.76078901e-01 1.78423092e-01 2.04900190e-01 2.46422932e-01 2.87452936e-01 3.15996826e-01 3.27497780e-01 3.22786033e-01 3.00538659e-01 2.58574247e-01 1.86942309e-01 9.41869617e-02 3.63005921e-02 1.95669681e-02 1.96299702e-02 2.37431414e-02 1.89986154e-02 2.52911486e-02 1.16420627e-01 4.16491538e-01 7.80580699e-01 8.52435529e-01 8.38206708e-01 5.35055399e-01 1.70483477e-02 2.70660054e-02 4.55264986e-01 2.27631256e-01 2.51524270e-01 2.68379360e-01 2.81215042e-01 2.91656971e-01 3.08244973e-01 3.34143728e-01 3.63652855e-01 3.88455659e-01 4.00378138e-01 3.94531280e-01 3.71931314e-01 3.35628331e-01 2.83444941e-01 2.00422823e-01 9.72538143e-02 3.84577401e-02 2.15702206e-02 1.84152946e-02 2.04889588e-02 1.93800852e-02 2.47064307e-02 9.98071283e-02 3.65638256e-01 7.30170429e-01 8.48296344e-01 8.51526797e-01 6.27528429e-01 1.62980165e-02 2.48075202e-02 5.02804220e-01 2.85566807e-01 3.21534216e-01 3.45088333e-01 3.72372180e-01 3.98611039e-01 4.24606055e-01 4.50346559e-01 4.71235394e-01 4.80093449e-01 4.71678168e-01 4.45567459e-01 4.06265765e-01 3.59308690e-01 3.02783310e-01 2.20392138e-01 1.15816250e-01 4.94354181e-02 2.70860828e-02 1.99194159e-02 1.76844411e-02 1.86062809e-02 2.07760725e-02 6.84789270e-02 2.87942588e-01 6.33058786e-01 8.37859154e-01 8.59482229e-01 7.01074600e-01 1.57556701e-02 2.28560902e-02 5.75074434e-01 3.61230552e-01 4.16648060e-01 4.52470243e-01 4.97914940e-01 5.36972702e-01 5.64141929e-01 5.78053117e-01 5.78088105e-01 5.62993109e-01 5.32254159e-01 4.88322049e-01 4.37322229e-01 3.85448873e-01 3.31765801e-01 2.63755113e-01 1.71544597e-01 8.86159167e-02 4.68665324e-02 3.02561279e-02 2.02669166e-02 1.69695672e-02 1.73797421e-02 3.63422930e-02 1.73475876e-01 4.89206523e-01 8.16908538e-01 8.64459097e-01 7.52335608e-01 1.54180611e-02 2.12210342e-02 6.72921062e-01 4.86932755e-01 5.79991460e-01 6.23153746e-01 6.68650866e-01 6.93547249e-01 7.00446665e-01 6.92387402e-01 6.70963824e-01 6.36381865e-01 5.89533150e-01 5.34411848e-01 4.78191823e-01 4.26907629e-01 3.80462974e-01 3.32537681e-01 2.72959054e-01 1.95850328e-01 1.18221857e-01 6.59594908e-02 3.64978984e-02 1.94546320e-02 1.64392982e-02 2.05579717e-02 7.79845864e-02 3.55838925e-01 7.80472338e-01 8.67521524e-01 7.87514210e-01 1.52101861e-02 1.98181234e-02 7.66046524e-01 6.85305715e-01 7.56674767e-01 7.70009398e-01 7.86783040e-01 7.89416611e-01 7.81645358e-01 7.63744652e-01 7.34845340e-01 6.94134951e-01 6.43081307e-01 5.86963177e-01 5.33412218e-01 4.87802684e-01 4.50004101e-01 4.14550185e-01 3.77614439e-01 3.31413567e-01 2.62443066e-01 1.64648607e-01 8.18344206e-02 3.73897031e-02 1.96007416e-02 1.76974628e-02 3.95251364e-02 2.56606430e-01 7.31807947e-01 8.68989527e-01 8.13635230e-01 1.50270276e-02 1.85863264e-02 8.06368887e-01 7.97248244e-01 8.22562873e-01 8.15732181e-01 8.20843041e-01 8.18572938e-01 8.09558511e-01 7.92326212e-01 7.65639663e-01 7.28927553e-01 6.84198439e-01 6.36794150e-01 5.93307197e-01 5.57653964e-01 5.28654516e-01 5.01060247e-01 4.71261710e-01 4.32072699e-01 3.78496855e-01 3.00953627e-01 1.90867677e-01 9.59474519e-02 4.36806232e-02 2.60686297e-02 4.03057225e-02 2.11183339e-01 6.96549475e-01 8.69741499e-01 8.35107386e-01 1.48517508e-02 1.78606305e-02 7.62741446e-01 7.44179785e-01 7.13650942e-01 6.99380934e-01 7.63728857e-01 7.93097675e-01 7.96360731e-01 7.85181940e-01 7.64446855e-01 7.36321628e-01 7.03313828e-01 6.69295073e-01 6.38446927e-01 6.12863958e-01 5.91530323e-01 5.68706691e-01 5.41371167e-01 5.02600074e-01 4.51990157e-01 3.92616183e-01 3.23641628e-01 2.35336661e-01 1.43356010e-01 8.51408392e-02 9.72421691e-02 2.66831875e-01 7.08231866e-01 8.71840358e-01 8.53002489e-01 1.47008924e-02 1.80289336e-02 5.89973390e-01 4.07011241e-01 3.15960914e-01 3.26425374e-01 5.20941317e-01 6.96675837e-01 7.35117137e-01 7.33682990e-01 7.22307026e-01 7.07512438e-01 6.90651834e-01 6.72853291e-01 6.55440390e-01 6.38797879e-01 6.21402740e-01 6.00754499e-01 5.73551595e-01 5.37209630e-01 4.91781861e-01 4.41665262e-01 3.94048810e-01 3.48352194e-01 2.97569543e-01 2.52999842e-01 2.61215568e-01 4.06105787e-01 7.52859831e-01 8.75216782e-01 8.65828037e-01 1.46555724e-02 1.87876392e-02 3.93942744e-01 1.24670245e-01 9.63142589e-02 1.52083948e-01 3.94381851e-01 6.08755350e-01 6.45506799e-01 6.31951392e-01 6.27663970e-01 6.31996274e-01 6.37400508e-01 6.40108109e-01 6.39191091e-01 6.34204090e-01 6.23897135e-01 6.06730223e-01 5.81971169e-01 5.49160838e-01 5.09867430e-01 4.68059957e-01 4.29205537e-01 3.97368044e-01 3.75366837e-01 3.70340586e-01 4.07233775e-01 5.51320016e-01 7.86914885e-01 8.76650453e-01 8.72009397e-01 1.49213485e-02 1.97045263e-02 1.42714188e-01 6.69603050e-02 8.82393941e-02 2.58431762e-01 4.96255130e-01 5.78882575e-01 5.49989581e-01 5.14083207e-01 5.10838389e-01 5.28719246e-01 5.52948475e-01 5.75128853e-01 5.91701865e-01 6.01308405e-01 6.02968693e-01 5.95747709e-01 5.79320312e-01 5.54512978e-01 5.23562610e-01 4.90437567e-01 4.60095793e-01 4.38028663e-01 4.31227714e-01 4.51989621e-01 5.22300959e-01 6.54962540e-01 8.06862175e-01 8.75823319e-01 8.71403813e-01 1.56282037e-02 2.08528172e-02 5.85928895e-02 4.00352888e-02 1.11259274e-01 6.26353621e-01 6.75141513e-01 5.25745273e-01 4.51877236e-01 4.26727861e-01 4.28276449e-01 4.46821153e-01 4.73538667e-01 5.02110481e-01 5.28330088e-01 5.49548507e-01 5.64046443e-01 5.70655823e-01 5.68687856e-01 5.58265567e-01 5.40858865e-01 5.19472063e-01 4.98806238e-01 4.85825390e-01 4.90949124e-01 5.29327691e-01 6.13249600e-01 7.22464442e-01 8.21372747e-01 8.73458445e-01 8.63737345e-01 1.67687349e-02 2.24255957e-02 3.59049402e-02 3.11151799e-02 2.18500644e-01 7.10079312e-01 6.56259120e-01 4.60217804e-01 3.91673863e-01 3.79784822e-01 3.85049552e-01 3.99827212e-01 4.20675635e-01 4.44879413e-01 4.70268518e-01 4.94997978e-01 5.17455101e-01 5.36240339e-01 5.50107002e-01 5.58032751e-01 5.59632480e-01 5.55685818e-01 5.48918664e-01 5.45466661e-01 5.56450367e-01 5.97121954e-01 6.74739122e-01 7.63678849e-01 8.32443714e-01 8.69754374e-01 8.47134888e-01 1.84471346e-02 2.44408231e-02 2.93729641e-02 2.29900349e-02 3.75182360e-01 7.08860993e-01 6.16719663e-01 4.31273907e-01 3.69542807e-01 3.58266473e-01 3.62270534e-01 3.72918308e-01 3.88044596e-01 4.06413883e-01 4.27179933e-01 4.49850827e-01 4.74131614e-01 4.99691367e-01 5.25834680e-01 5.51213145e-01 5.73880494e-01 5.91862440e-01 6.04375541e-01 6.13730669e-01 6.27277374e-01 6.57478273e-01 7.14446485e-01 7.85539448e-01 8.39722097e-01 8.65026295e-01 8.16498399e-01 2.14084834e-02 2.70249173e-02 2.65904702e-02 1.91980395e-02 4.60874707e-01 6.89555049e-01 5.81023395e-01 4.23711330e-01 3.64081144e-01 3.47061336e-01 3.46422285e-01 3.53522390e-01 3.65218282e-01 3.80032241e-01 3.97300512e-01 4.17095214e-01 4.40128386e-01 4.67477709e-01 5.00052154e-01 5.37738204e-01 5.78461528e-01 6.17989779e-01 6.51509881e-01 6.76579118e-01 6.95357084e-01 7.15055048e-01 7.46244609e-01 7.94113278e-01 8.41169178e-01 8.58846366e-01 7.54836798e-01 2.80007124e-02 3.14882249e-02 2.72727180e-02 1.67075936e-02 4.93349701e-01 6.63780928e-01 5.30513465e-01 4.06323045e-01 3.54161263e-01 3.33975017e-01 3.29941124e-01 3.35401356e-01 3.46394539e-01 3.60538572e-01 3.76741081e-01 3.95080864e-01 4.16649491e-01 4.43294823e-01 4.77209151e-01 5.20065129e-01 5.71349680e-01 6.26548350e-01 6.77763999e-01 7.18136072e-01 7.45988607e-01 7.64860928e-01 7.81306028e-01 8.02092731e-01 8.31223428e-01 8.35234821e-01 5.71398437e-01 4.16840166e-02 4.30612788e-02 4.15774658e-02 1.32553233e-02 3.37054104e-01 6.05142415e-01 4.47239965e-01 3.60596478e-01 3.24856758e-01 3.10162604e-01 3.08558732e-01 3.16211373e-01 3.29511136e-01 3.45616758e-01 3.63043815e-01 3.81743193e-01 4.02868152e-01 4.28429574e-01 4.60937142e-01 5.02840698e-01 5.55278242e-01 6.15907550e-01 6.77461326e-01 7.30488002e-01 7.69388616e-01 7.95001626e-01 8.11885118e-01 8.21852744e-01 8.21840465e-01 7.49325752e-01 3.35946470e-01 7.00743347e-02 8.57744142e-02 1.02097563e-01 4.12718914e-02 1.68321151e-02 5.19483507e-01 3.52848202e-01 2.85133064e-01 2.69791692e-01 2.71631777e-01 2.80844361e-01 2.95683920e-01 3.14162731e-01 3.34139794e-01 3.54390830e-01 3.74974728e-01 3.97041321e-01 4.22439933e-01 4.53288645e-01 4.91508245e-01 5.38259089e-01 5.93153894e-01 6.53126538e-01 7.11807430e-01 7.61666119e-01 7.98510194e-01 8.23726594e-01 8.39699626e-01 8.45686018e-01 8.23082626e-01 5.71997821e-01 3.31711441e-01 2.90343672e-01 4.18184139e-02 4.34477255e-02 3.15050110e-02 5.25178194e-01 2.72103220e-01 1.83912724e-01 1.92343295e-01 2.20449001e-01 2.48014107e-01 2.74156392e-01 2.99667746e-01 3.24403226e-01 3.48250419e-01 3.71781558e-01 3.96221399e-01 4.23134416e-01 4.53983724e-01 4.89628732e-01 5.30028403e-01 5.74478924e-01 6.22226596e-01 6.72583044e-01 7.23824799e-01 7.71860003e-01 8.11770082e-01 8.40532541e-01 8.58548164e-01 8.67408037e-01 8.57185543e-01 8.06624472e-01 9.04469073e-01 4.46497314e-02 1.32258115e-02 2.16853879e-02 2.96236902e-01 1.32679403e-01 8.80926624e-02 1.12330623e-01 1.61826834e-01 2.10033625e-01 2.49958336e-01 2.83738375e-01 3.13728571e-01 3.41558933e-01 3.68775010e-01 3.97011757e-01 4.27824765e-01 4.62333739e-01 5.00752687e-01 5.42090595e-01 5.84411502e-01 6.25721991e-01 6.65076435e-01 7.03294218e-01 7.42646515e-01 7.84452379e-01 8.24734926e-01 8.49368572e-01 8.59005511e-01 8.51061583e-01 8.37339163e-01 9.02173102e-01 1.15134299e-01 9.78830084e-03 1.97347309e-02 1.54028848e-01 6.41770065e-02 4.22415882e-02 5.46186753e-02 9.23492685e-02 1.48972318e-01 2.07145691e-01 2.57491350e-01 2.99691081e-01 3.36868912e-01 3.72861117e-01 4.11168098e-01 4.54228371e-01 5.02847195e-01 5.55853784e-01 6.10247135e-01 6.62065446e-01 7.07648814e-01 7.44562566e-01 7.71809757e-01 7.89540350e-01 7.98807561e-01 8.02270532e-01 7.98275948e-01 7.33863592e-01 8.00781846e-01 8.03978682e-01 8.94314110e-01 8.22097510e-02 2.34009288e-02 1.70972124e-02 3.63096237e-01 9.57239270e-02 6.26803115e-02 8.40485096e-02 1.76575914e-01 3.07663500e-01 3.96280855e-01 4.56290334e-01 5.07072330e-01 5.54557741e-01 5.99454522e-01 6.40857160e-01 6.77772462e-01 7.09839940e-01 7.37476766e-01 7.61626959e-01 7.83303678e-01 8.03099871e-01 8.20852399e-01 8.35603833e-01 8.45812440e-01 8.49467278e-01 8.43827784e-01 8.24569345e-01 7.67070651e-01 6.84363604e-01 5.42245328e-01 6.36811197e-01 
