# vtk DataFile Version 2.0
results_case1_non_linear/3_density.vtk, Created by Freefem++ 
ASCII
DATASET UNSTRUCTURED_GRID
POINTS 961 float
0 0 0
0.033333333 0 0
0.066666667 0 0
0.1 0 0
0.13333333 0 0
0.16666667 0 0
0.2 0 0
0.23333333 0 0
0.26666667 0 0
0.3 0 0
0.33333333 0 0
0.36666667 0 0
0.4 0 0
0.43333333 0 0
0.46666667 0 0
0.5 0 0
0.53333333 0 0
0.56666667 0 0
0.6 0 0
0.63333333 0 0
0.66666667 0 0
0.7 0 0
0.73333333 0 0
0.76666667 0 0
0.8 0 0
0.83333333 0 0
0.86666667 0 0
0.9 0 0
0.93333333 0 0
0.96666667 0 0
1 0 0
0 0.033333333 0
0.033333333 0.033333333 0
0.066666667 0.033333333 0
0.1 0.033333333 0
0.13333333 0.033333333 0
0.16666667 0.033333333 0
0.2 0.033333333 0
0.23333333 0.033333333 0
0.26666667 0.033333333 0
0.3 0.033333333 0
0.33333333 0.033333333 0
0.36666667 0.033333333 0
0.4 0.033333333 0
0.43333333 0.033333333 0
0.46666667 0.033333333 0
0.5 0.033333333 0
0.53333333 0.033333333 0
0.56666667 0.033333333 0
0.6 0.033333333 0
0.63333333 0.033333333 0
0.66666667 0.033333333 0
0.7 0.033333333 0
0.73333333 0.033333333 0
0.76666667 0.033333333 0
0.8 0.033333333 0
0.83333333 0.033333333 0
0.86666667 0.033333333 0
0.9 0.033333333 0
0.93333333 0.033333333 0
0.96666667 0.033333333 0
1 0.033333333 0
0 0.066666667 0
0.033333333 0.066666667 0
0.066666667 0.066666667 0
0.1 0.066666667 0
0.13333333 0.066666667 0
0.16666667 0.066666667 0
0.2 0.066666667 0
0.23333333 0.066666667 0
0.26666667 0.066666667 0
0.3 0.066666667 0
0.33333333 0.066666667 0
0.36666667 0.066666667 0
0.4 0.066666667 0
0.43333333 0.066666667 0
0.46666667 0.066666667 0
0.5 0.066666667 0
0.53333333 0.066666667 0
0.56666667 0.066666667 0
0.6 0.066666667 0
0.63333333 0.066666667 0
0.66666667 0.066666667 0
0.7 0.066666667 0
0.73333333 0.066666667 0
0.76666667 0.066666667 0
0.8 0.066666667 0
0.83333333 0.066666667 0
0.86666667 0.066666667 0
0.9 0.066666667 0
0.93333333 0.066666667 0
0.96666667 0.066666667 0
1 0.066666667 0
0 0.1 0
0.033333333 0.1 0
0.066666667 0.1 0
0.1 0.1 0
0.13333333 0.1 0
0.16666667 0.1 0
0.2 0.1 0
0.23333333 0.1 0
0.26666667 0.1 0
0.3 0.1 0
0.33333333 0.1 0
0.36666667 0.1 0
0.4 0.1 0
0.43333333 0.1 0
0.46666667 0.1 0
0.5 0.1 0
0.53333333 0.1 0
0.56666667 0.1 0
0.6 0.1 0
0.63333333 0.1 0
0.66666667 0.1 0
0.7 0.1 0
0.73333333 0.1 0
0.76666667 0.1 0
0.8 0.1 0
0.83333333 0.1 0
0.86666667 0.1 0
0.9 0.1 0
0.93333333 0.1 0
0.96666667 0.1 0
1 0.1 0
0 0.13333333 0
0.033333333 0.13333333 0
0.066666667 0.13333333 0
0.1 0.13333333 0
0.13333333 0.13333333 0
0.16666667 0.13333333 0
0.2 0.13333333 0
0.23333333 0.13333333 0
0.26666667 0.13333333 0
0.3 0.13333333 0
0.33333333 0.13333333 0
0.36666667 0.13333333 0
0.4 0.13333333 0
0.43333333 0.13333333 0
0.46666667 0.13333333 0
0.5 0.13333333 0
0.53333333 0.13333333 0
0.56666667 0.13333333 0
0.6 0.13333333 0
0.63333333 0.13333333 0
0.66666667 0.13333333 0
0.7 0.13333333 0
0.73333333 0.13333333 0
0.76666667 0.13333333 0
0.8 0.13333333 0
0.83333333 0.13333333 0
0.86666667 0.13333333 0
0.9 0.13333333 0
0.93333333 0.13333333 0
0.96666667 0.13333333 0
1 0.13333333 0
0 0.16666667 0
0.033333333 0.16666667 0
0.066666667 0.16666667 0
0.1 0.16666667 0
0.13333333 0.16666667 0
0.16666667 0.16666667 0
0.2 0.16666667 0
0.23333333 0.16666667 0
0.26666667 0.16666667 0
0.3 0.16666667 0
0.33333333 0.16666667 0
0.36666667 0.16666667 0
0.4 0.16666667 0
0.43333333 0.16666667 0
0.46666667 0.16666667 0
0.5 0.16666667 0
0.53333333 0.16666667 0
0.56666667 0.16666667 0
0.6 0.16666667 0
0.63333333 0.16666667 0
0.66666667 0.16666667 0
0.7 0.16666667 0
0.73333333 0.16666667 0
0.76666667 0.16666667 0
0.8 0.16666667 0
0.83333333 0.16666667 0
0.86666667 0.16666667 0
0.9 0.16666667 0
0.93333333 0.16666667 0
0.96666667 0.16666667 0
1 0.16666667 0
0 0.2 0
0.033333333 0.2 0
0.066666667 0.2 0
0.1 0.2 0
0.13333333 0.2 0
0.16666667 0.2 0
0.2 0.2 0
0.23333333 0.2 0
0.26666667 0.2 0
0.3 0.2 0
0.33333333 0.2 0
0.36666667 0.2 0
0.4 0.2 0
0.43333333 0.2 0
0.46666667 0.2 0
0.5 0.2 0
0.53333333 0.2 0
0.56666667 0.2 0
0.6 0.2 0
0.63333333 0.2 0
0.66666667 0.2 0
0.7 0.2 0
0.73333333 0.2 0
0.76666667 0.2 0
0.8 0.2 0
0.83333333 0.2 0
0.86666667 0.2 0
0.9 0.2 0
0.93333333 0.2 0
0.96666667 0.2 0
1 0.2 0
0 0.23333333 0
0.033333333 0.23333333 0
0.066666667 0.23333333 0
0.1 0.23333333 0
0.13333333 0.23333333 0
0.16666667 0.23333333 0
0.2 0.23333333 0
0.23333333 0.23333333 0
0.26666667 0.23333333 0
0.3 0.23333333 0
0.33333333 0.23333333 0
0.36666667 0.23333333 0
0.4 0.23333333 0
0.43333333 0.23333333 0
0.46666667 0.23333333 0
0.5 0.23333333 0
0.53333333 0.23333333 0
0.56666667 0.23333333 0
0.6 0.23333333 0
0.63333333 0.23333333 0
0.66666667 0.23333333 0
0.7 0.23333333 0
0.73333333 0.23333333 0
0.76666667 0.23333333 0
0.8 0.23333333 0
0.83333333 0.23333333 0
0.86666667 0.23333333 0
0.9 0.23333333 0
0.93333333 0.23333333 0
0.96666667 0.23333333 0
1 0.23333333 0
0 0.26666667 0
0.033333333 0.26666667 0
0.066666667 0.26666667 0
0.1 0.26666667 0
0.13333333 0.26666667 0
0.16666667 0.26666667 0
0.2 0.26666667 0
0.23333333 0.26666667 0
0.26666667 0.26666667 0
0.3 0.26666667 0
0.33333333 0.26666667 0
0.36666667 0.26666667 0
0.4 0.26666667 0
0.43333333 0.26666667 0
0.46666667 0.26666667 0
0.5 0.26666667 0
0.53333333 0.26666667 0
0.56666667 0.26666667 0
0.6 0.26666667 0
0.63333333 0.26666667 0
0.66666667 0.26666667 0
0.7 0.26666667 0
0.73333333 0.26666667 0
0.76666667 0.26666667 0
0.8 0.26666667 0
0.83333333 0.26666667 0
0.86666667 0.26666667 0
0.9 0.26666667 0
0.93333333 0.26666667 0
0.96666667 0.26666667 0
1 0.26666667 0
0 0.3 0
0.033333333 0.3 0
0.066666667 0.3 0
0.1 0.3 0
0.13333333 0.3 0
0.16666667 0.3 0
0.2 0.3 0
0.23333333 0.3 0
0.26666667 0.3 0
0.3 0.3 0
0.33333333 0.3 0
0.36666667 0.3 0
0.4 0.3 0
0.43333333 0.3 0
0.46666667 0.3 0
0.5 0.3 0
0.53333333 0.3 0
0.56666667 0.3 0
0.6 0.3 0
0.63333333 0.3 0
0.66666667 0.3 0
0.7 0.3 0
0.73333333 0.3 0
0.76666667 0.3 0
0.8 0.3 0
0.83333333 0.3 0
0.86666667 0.3 0
0.9 0.3 0
0.93333333 0.3 0
0.96666667 0.3 0
1 0.3 0
0 0.33333333 0
0.033333333 0.33333333 0
0.066666667 0.33333333 0
0.1 0.33333333 0
0.13333333 0.33333333 0
0.16666667 0.33333333 0
0.2 0.33333333 0
0.23333333 0.33333333 0
0.26666667 0.33333333 0
0.3 0.33333333 0
0.33333333 0.33333333 0
0.36666667 0.33333333 0
0.4 0.33333333 0
0.43333333 0.33333333 0
0.46666667 0.33333333 0
0.5 0.33333333 0
0.53333333 0.33333333 0
0.56666667 0.33333333 0
0.6 0.33333333 0
0.63333333 0.33333333 0
0.66666667 0.33333333 0
0.7 0.33333333 0
0.73333333 0.33333333 0
0.76666667 0.33333333 0
0.8 0.33333333 0
0.83333333 0.33333333 0
0.86666667 0.33333333 0
0.9 0.33333333 0
0.93333333 0.33333333 0
0.96666667 0.33333333 0
1 0.33333333 0
0 0.36666667 0
0.033333333 0.36666667 0
0.066666667 0.36666667 0
0.1 0.36666667 0
0.13333333 0.36666667 0
0.16666667 0.36666667 0
0.2 0.36666667 0
0.23333333 0.36666667 0
0.26666667 0.36666667 0
0.3 0.36666667 0
0.33333333 0.36666667 0
0.36666667 0.36666667 0
0.4 0.36666667 0
0.43333333 0.36666667 0
0.46666667 0.36666667 0
0.5 0.36666667 0
0.53333333 0.36666667 0
0.56666667 0.36666667 0
0.6 0.36666667 0
0.63333333 0.36666667 0
0.66666667 0.36666667 0
0.7 0.36666667 0
0.73333333 0.36666667 0
0.76666667 0.36666667 0
0.8 0.36666667 0
0.83333333 0.36666667 0
0.86666667 0.36666667 0
0.9 0.36666667 0
0.93333333 0.36666667 0
0.96666667 0.36666667 0
1 0.36666667 0
0 0.4 0
0.033333333 0.4 0
0.066666667 0.4 0
0.1 0.4 0
0.13333333 0.4 0
0.16666667 0.4 0
0.2 0.4 0
0.23333333 0.4 0
0.26666667 0.4 0
0.3 0.4 0
0.33333333 0.4 0
0.36666667 0.4 0
0.4 0.4 0
0.43333333 0.4 0
0.46666667 0.4 0
0.5 0.4 0
0.53333333 0.4 0
0.56666667 0.4 0
0.6 0.4 0
0.63333333 0.4 0
0.66666667 0.4 0
0.7 0.4 0
0.73333333 0.4 0
0.76666667 0.4 0
0.8 0.4 0
0.83333333 0.4 0
0.86666667 0.4 0
0.9 0.4 0
0.93333333 0.4 0
0.96666667 0.4 0
1 0.4 0
0 0.43333333 0
0.033333333 0.43333333 0
0.066666667 0.43333333 0
0.1 0.43333333 0
0.13333333 0.43333333 0
0.16666667 0.43333333 0
0.2 0.43333333 0
0.23333333 0.43333333 0
0.26666667 0.43333333 0
0.3 0.43333333 0
0.33333333 0.43333333 0
0.36666667 0.43333333 0
0.4 0.43333333 0
0.43333333 0.43333333 0
0.46666667 0.43333333 0
0.5 0.43333333 0
0.53333333 0.43333333 0
0.56666667 0.43333333 0
0.6 0.43333333 0
0.63333333 0.43333333 0
0.66666667 0.43333333 0
0.7 0.43333333 0
0.73333333 0.43333333 0
0.76666667 0.43333333 0
0.8 0.43333333 0
0.83333333 0.43333333 0
0.86666667 0.43333333 0
0.9 0.43333333 0
0.93333333 0.43333333 0
0.96666667 0.43333333 0
1 0.43333333 0
0 0.46666667 0
0.033333333 0.46666667 0
0.066666667 0.46666667 0
0.1 0.46666667 0
0.13333333 0.46666667 0
0.16666667 0.46666667 0
0.2 0.46666667 0
0.23333333 0.46666667 0
0.26666667 0.46666667 0
0.3 0.46666667 0
0.33333333 0.46666667 0
0.36666667 0.46666667 0
0.4 0.46666667 0
0.43333333 0.46666667 0
0.46666667 0.46666667 0
0.5 0.46666667 0
0.53333333 0.46666667 0
0.56666667 0.46666667 0
0.6 0.46666667 0
0.63333333 0.46666667 0
0.66666667 0.46666667 0
0.7 0.46666667 0
0.73333333 0.46666667 0
0.76666667 0.46666667 0
0.8 0.46666667 0
0.83333333 0.46666667 0
0.86666667 0.46666667 0
0.9 0.46666667 0
0.93333333 0.46666667 0
0.96666667 0.46666667 0
1 0.46666667 0
0 0.5 0
0.033333333 0.5 0
0.066666667 0.5 0
0.1 0.5 0
0.13333333 0.5 0
0.16666667 0.5 0
0.2 0.5 0
0.23333333 0.5 0
0.26666667 0.5 0
0.3 0.5 0
0.33333333 0.5 0
0.36666667 0.5 0
0.4 0.5 0
0.43333333 0.5 0
0.46666667 0.5 0
0.5 0.5 0
0.53333333 0.5 0
0.56666667 0.5 0
0.6 0.5 0
0.63333333 0.5 0
0.66666667 0.5 0
0.7 0.5 0
0.73333333 0.5 0
0.76666667 0.5 0
0.8 0.5 0
0.83333333 0.5 0
0.86666667 0.5 0
0.9 0.5 0
0.93333333 0.5 0
0.96666667 0.5 0
1 0.5 0
0 0.53333333 0
0.033333333 0.53333333 0
0.066666667 0.53333333 0
0.1 0.53333333 0
0.13333333 0.53333333 0
0.16666667 0.53333333 0
0.2 0.53333333 0
0.23333333 0.53333333 0
0.26666667 0.53333333 0
0.3 0.53333333 0
0.33333333 0.53333333 0
0.36666667 0.53333333 0
0.4 0.53333333 0
0.43333333 0.53333333 0
0.46666667 0.53333333 0
0.5 0.53333333 0
0.53333333 0.53333333 0
0.56666667 0.53333333 0
0.6 0.53333333 0
0.63333333 0.53333333 0
0.66666667 0.53333333 0
0.7 0.53333333 0
0.73333333 0.53333333 0
0.76666667 0.53333333 0
[...]
CELL_DATA 1920
Scalars  Label int 1
LOOKUP_TABLE FreeFempp_table
0
0
0
0
0
0
0
0
0
0
0
0
0
0
0
0
0
0
0
0
0
0
0
0
0
0
0
0
0
0
0
0
0
0
0
0
0
0
0
0
0
0
0
0
0
0
0
0
0
0
0
0
0
0
0
0
0
0
0
0
0
0
0
0
0
0
0
0
0
0
0
0
0
0
0
0
0
0
0
0
0
0
0
0
0
0
0
0
0
0
0
0
0
0
0
0
0
0
0
0
0
0
0
0
0
0
0
0
0
0
0
0
0
0
0
0
0
0
0
0
0
0
0
0
0
0
0
0
0
0
0
0
0
0
0
0
0
0
0
0
0
0
0
0
0
0
0
0
0
0
0
0
0
0
0
0
0
0
0
0
0
0
0
0
0
0
0
0
0
0
0
0
0
0
0
0
0
0
0
0
0
0
0
0
0
0
0
0
0
0
0
0
0
0
0
0
0
0
0
0
0
0
0
0
0
0
0
0
0
0
0
0
0
0
0
0
0
0
0
0
0
0
0
0
0
0
0
0
0
0
0
0
0
0
0
0
0
0
0
0
0
0
0
0
0
0
0
0
0
0
0
0
0
0
0
0
0
0
0
0
0
0
0
0
0
0
0
0
0
0
0
0
0
0
0
0
0
0
0
0
0
0
0
0
0
0
0
0
0
0
0
0
0
0
0
0
0
0
0
0
0
0
0
0
0
0
0
0
0
0
0
0
0
0
0
0
0
0
0
0
0
0
0
0
0
0
0
0
0
0
0
0
0
0
0
0
0
0
0
0
0
0
0
0
0
0
0
0
0
0
0
0
0
0
0
0
0
0
0
0
0
0
0
0
0
0
0
0
0
0
0
0
0
0
0
0
0
0
0
0
0
0
0
0
0
0
0
0
0
0
0
0
0
0
0
0
0
0
0
0
0
0
0
0
0
0
0
0
0
0
0
0
0
0
0
0
0
0
0
0
0
0
0
0
0
0
0
0
0
0
0
0
0
0
0
0
0
0
0
0
0
0
0
0
0
0
0
0
0
0
0
0
0
0
0
0
0
0
0
0
0
0
0
0
0
0
0
0
0
0
0
0
0
0
0
0
0
0
0
0
0
0
0
0
0
0
0
0
0
0
0
0
0
0
0
0
0
0
0
0
0
0
0
0
0
0
0
0
0
0
0
0
0
0
0
0
0
0
0
0
0
0
0
0
0
0
0
0
0
0
0
0
0
0
0
0
0
0
0
0
0
0
0
0
0
0
0
0
0
0
0
0
0
0
0
0
0
0
0
0
0
0
0
0
0
0
0
0
0
0
0
0
0
0
0
0
0
0
0
0
0
0
0
0
0
0
0
0
0
0
0
0
0
0
0
0
0
0
0
0
0
0
0
0
0
0
0
0
0
0
0
0
0
0
0
0
0
0
0
0
0
0
0
0
0
0
0
0
0
0
0
0
0
0
0
0
0
0
0
0
0
0
0
0
0
0
0
0
0
0
0
0
0
0
0
0
0
0
0
0
0
0
0
0
0
0
0
0
0
0
0
0
0
0
0
0
0
0
0
0
0
0
0
0
0
0
0
0
0
0
0
0
0
0
0
0
0
0
0
0
0
0
0
0
0
0
0
0
0
0
0
0
0
0
0
0
0
0
0
0
0
0
0
0
0
0
0
0
0
0
0
0
0
0
0
0
0
0
0
0
0
0
0
0
0
0
0
0
0
0
0
0
0
0
0
0
0
0
0
0
0
0
0
0
0
0
0
0
0
0
0
0
0
0
0
0
0
0
0
0
0
0
0
0
0
0
0
0
0
0
0
0
0
0
0
0
0
0
0
0
0
0
0
0
0
0
0
0
0
0
0
0
0
0
0
0
0
0
0
0
0
0
0
0
0
0
0
0
0
0
0
0
0
0
0
0
0
0
0
0
0
0
0
0
0
0
0
0
0
0
0
0
0
0
0
0
0
0
0
0
0
0
0
0
0
0
0
0
0
0
0
0
0
0
0
0
0
0
0
0
0
0
0
0
0
0
0
0
0
0
0
0
0
0
0
0
0
0
0
0
0
0
0
0
0
0
0
0
0
0
0
0
0
0
0
0
0
0
0
0
0
0
0
0
0
0
0
0
0
0
0
0
0
0
0
0
0
0
0
0
0
0
0
0
0
0
0
0
0
0
0
0
0
0
0
0
0
0
0
0
0
0
0
0
0
0
0
0
0
0
0
0
0
0
0
0
0
0
0
0
0
0
0
0
0
0
0
0
0
0
0
0
0
0
0
0
0
0
0
0
0
0
0
0
0
0
0
0
0
0
0
0
0
0
0
0
0
0
0
0
0
0
0
0
0
0
0
0
0
0
0
0
0
0
0
0
0
0
0
0
0
0
0
0
0
0
0
0
0
0
0
0
0
0
0
0
0
0
0
0
0
0
0
0
0
0
0
0
0
0
0
0
0
0
0
0
0
0
0
0
0
0
0
0
0
0
0
0
0
0
0
0
0
0
0
0
0
0
0
0
0
0
0
0
0
0
0
0
0
0
0
0
0
0
0
0
0
0
0
0
0
0
0
0
0
0
0
0
0
0
0
0
0
0
0
0
0
0
0
0
0
0
0
0
0
0
0
0
0
0
0
0
0
0
0
0
0
0
0
0
0
0
0
0
0
0
0
0
0
0
0
0
0
0
0
0
0
0
0
0
0
0
0
0
0
0
0
0
0
0
0
0
0
0
0
0
0
0
0
0
0
0
0
0
0
0
0
0
0
0
0
0
0
0
0
0
0
0
0
0
0
0
0
0
0
0
0
0
0
0
0
0
0
0
0
0
0
0
0
0
0
0
0
0
0
0
0
0
0
0
0
0
0
0
0
0
0
0
0
0
0
0
0
0
0
0
0
0
0
0
0
0
0
0
0
0
0
0
0
0
0
0
0
0
0
0
0
0
0
0
0
0
0
0
0
0
0
0
0
0
0
0
0
0
0
0
0
0
0
0
0
0
0
0
0
0
0
0
0
0
0
0
0
0
0
0
0
0
0
0
0
0
0
0
0
0
0
0
0
0
0
0
0
0
0
0
0
0
0
0
0
0
0
0
0
0
0
0
0
0
0
0
0
0
0
0
0
0
0
0
0
0
0
0
0
0
0
0
0
0
0
0
0
0
0
0
0
0
0
0
0
0
0
0
0
0
0
0
0
0
0
0
0
0
0
0
0
0
0
0
0
0
0
0
0
0
0
0
0
0
0
0
0
0
0
0
0
0
0
0
0
0
0
0
0
0
0
0
0
0
0
0
0
0
0
0
0
0
0
0
0
0
0
0
0
0
0
0
0
0
0
0
0
0
0
0
0
0
0
0
0
0
0
0
0
0
0
0
0
0
0
0
0
0
0
0
0
0
0
0
0
0
0
0
0
0
0
0
0
0
0
0
0
0
0
0
0
0
0
0
0
0
0
0
0
0
0
0
0
0
0
0
0
0
0
0
0
0
0
0
0
0
0
0
0
0
0
0
0
0
0
0
0
0
0
0
0
0
0
0
0
0
0
0
0
0
0
0
0
0
0
0
0
0
0
0
0
0
0
0
0
0
0
0
0
0
0
0
0
0
0
0
0
0
0
0
0
0
0
0
0
0
0
0
0
0
0
0
0
0
0
0
0
0
0
0
0
0
0
0
0
0
0
0
0
0
0
0
0
0
0
0
0
0
0
0
0
0
0
0
0
0
0
0
0
0
0
0
0
0
0
0
0
0
0
0
0
0
0
0
0
0
0
0
0
0
0
0
0
0
0
0
0
0
0
0
0
0
0
0
0
0
0
0
0
0
0
0
0
0
0
0
0
0
0
0
0
0
0
0
0
0
0
0
0
0
0
0
0
0
0
0
0
0
0
0
0
0
0
0
0
0
0
0
0
0
0
0
0
0
0
0
0
0
0
0
0
0
0
0
0
0
0
0
0
0
0
0
0
0
0
0
0
0
0
0
0
0
0
0
0
0
0
0
0
0
0
0
0
0
0
0
0
0
0
0
0
0
0
0
0
0
0
0
0
0
0
0
0
0
0
0
0
0
0
0
0
0
0
0
0
0
0
0
0
0
0
0
0
0
1
1
1
1
1
1
1
1
1
1
1
1
1
1
1
1
1
1
1
1
1
1
1
1
1
1
1
1
1
1
2
2
2
2
2
2
2
2
2
2
2
2
2
2
2
2
2
2
2
2
2
2
2
2
2
2
2
2
2
2
3
3
3
3
3
3
3
3
3
3
3
3
3
3
3
3
3
3
3
3
3
3
3
3
3
3
3
3
3
3
4
4
4
4
4
4
4
4
4
4
4
4
4
4
4
4
4
4
4
4
4
4
4
4
4
4
4
4
4
4

LOOKUP_TABLE FreeFempp_table 5
1.00000000 0.00000000 0.00000000 1.00000000
1.00000000 1.00000000 0.00000000 1.00000000
1.00000000 0.00000000 1.00000000 1.00000000
0.00000000 1.00000000 0.00000000 1.00000000
0.00000000 1.00000000 1.00000000 1.00000000

POINT_DATA 961
FIELD FieldData 1
Density 1 961 float
4.71208245e-01 4.32541817e-01 4.23558742e-01 4.22368407e-01 4.21484828e-01 4.18135017e-01 4.05500203e-01 3.29185754e-01 3.74043994e-02 1.72028213e-03 2.10515712e-03 2.03804877e-02 2.85762787e-01 3.81566912e-01 4.61518317e-01 6.61755681e-01 7.71810710e-01 7.11091340e-01 7.89374650e-01 8.23979020e-01 7.30634511e-01 6.66153610e-01 6.22783005e-01 5.84753811e-01 5.59371233e-01 5.43614864e-01 5.33679307e-01 5.27197838e-01 5.22499621e-01 5.23520529e-01 5.24776995e-01 4.38907057e-01 3.42505842e-01 3.34362924e-01 3.27644229e-01 3.29334348e-01 3.28818023e-01 3.16771418e-01 2.61659265e-01 6.18369207e-02 1.83730910e-03 1.21080689e-03 5.61102014e-03 1.86962128e-01 2.99737245e-01 3.45220387e-01 6.51253939e-01 8.21210444e-01 3.82531226e-01 3.87742937e-01 7.37200499e-01 7.38817930e-01 7.37705231e-01 7.04141319e-01 6.66818857e-01 6.15027428e-01 5.72222173e-01 5.45770109e-01 5.30274868e-01 5.20473242e-01 5.16201496e-01 5.23233473e-01 7.66931800e-04 6.42834755e-04 4.56910027e-04 3.32180847e-04 2.89831165e-04 2.87873438e-04 2.88794981e-04 2.90769618e-04 2.96379265e-04 3.02412285e-04 3.20517516e-04 3.80373414e-04 1.50177628e-01 3.18779975e-01 3.00507814e-01 3.86748642e-01 7.43651867e-01 3.24705988e-03 7.05504091e-03 6.15629507e-03 8.17344338e-03 2.26467233e-02 1.06755175e-01 3.62254918e-01 5.29389143e-01 5.19497812e-01 4.94728297e-01 4.81585979e-01 4.75476563e-01 4.68770742e-01 5.04331768e-01 5.13562700e-04 3.94425675e-04 4.27930412e-04 3.84597428e-04 3.10844451e-04 2.90811848e-04 2.87613715e-04 2.88582407e-04 2.92205048e-04 3.01342108e-04 2.93518766e-04 2.39050656e-04 2.35180094e-04 3.08306451e-04 5.80487889e-04 1.52653724e-01 3.92891556e-01 2.53169090e-01 4.27480368e-03 2.85866763e-03 1.78890163e-03 1.32115488e-03 1.29390648e-03 1.60749827e-03 1.01020113e-02 3.64211142e-01 4.40688133e-01 4.31261450e-01 4.25345391e-01 4.19418484e-01 4.77442801e-01 9.54907970e-04 5.02158131e-04 5.52785932e-04 7.67997641e-04 1.94063224e-03 5.15967719e-02 2.77835160e-01 3.09495926e-01 3.13684702e-01 3.12921673e-01 2.88601518e-01 1.22739468e-03 2.96802260e-04 2.61099340e-04 2.47303658e-04 2.71247263e-04 3.04657442e-04 9.57455158e-01 9.90382731e-01 1.09054158e-02 3.59272654e-03 1.76361401e-03 1.13562180e-03 7.20226555e-04 6.17357844e-04 2.32445309e-03 3.01617563e-01 3.89486194e-01 3.90117377e-01 3.85494441e-01 4.56990719e-01 3.17884475e-01 1.61641747e-01 1.37710243e-01 1.35094374e-01 1.37417361e-01 1.59247190e-01 2.35863492e-01 2.84340948e-01 2.98596591e-01 3.02043200e-01 2.99795151e-01 2.89816916e-01 2.95978576e-01 2.94280082e-01 6.62198872e-04 3.22447770e-04 2.32722756e-04 2.45794712e-04 3.67434608e-04 9.92896140e-01 4.55567315e-02 1.93123128e-02 7.50357704e-03 2.40096543e-03 5.50794590e-04 5.06125391e-04 1.64693268e-03 2.99946576e-01 3.71617407e-01 3.70693654e-01 4.47579652e-01 3.45094800e-01 1.71634138e-01 1.36560887e-01 1.37177676e-01 1.56232744e-01 1.90200046e-01 2.39759073e-01 2.83154547e-01 3.05993706e-01 3.17295104e-01 3.22529733e-01 3.19780111e-01 3.13275129e-01 3.16161007e-01 3.15290838e-01 3.23749781e-01 3.10600191e-01 3.43738793e-04 2.77540821e-04 2.76446226e-04 9.63894606e-01 7.75589585e-01 8.45037997e-01 8.35112453e-01 6.84493005e-01 5.47083095e-04 4.62378841e-04 2.29195761e-03 3.31217021e-01 3.62158567e-01 4.41831470e-01 4.03797448e-01 2.51163453e-01 2.25266799e-01 2.26740822e-01 2.45946750e-01 2.74730265e-01 3.02921832e-01 3.26269776e-01 3.45453471e-01 3.59559506e-01 3.68424088e-01 3.71158868e-01 3.68744642e-01 3.65174562e-01 3.59705836e-01 3.54435205e-01 3.53439569e-01 3.49559516e-01 3.42904627e-01 3.02860222e-04 3.18153732e-04 7.91153550e-01 8.38931620e-01 8.35752130e-01 5.52670479e-01 4.67860579e-01 4.31860739e-04 3.78683879e-04 9.37009137e-03 3.51711571e-01 4.36640650e-01 4.89750415e-01 3.90972346e-01 3.79406810e-01 3.77144843e-01 3.83323640e-01 3.93641204e-01 4.03149784e-01 4.11912769e-01 4.21574026e-01 4.30372775e-01 4.36072499e-01 4.37474459e-01 4.34857756e-01 4.29599732e-01 4.22341436e-01 4.13886696e-01 4.04969662e-01 3.92894655e-01 3.77022088e-01 3.67318720e-01 3.32225725e-04 3.52749950e-04 2.03492850e-01 4.18827087e-02 1.57579016e-02 1.18077733e-02 9.87063229e-01 3.60810722e-04 3.40982049e-04 2.28731781e-01 4.31990862e-01 5.78196049e-01 5.68672776e-01 5.57471573e-01 5.47635734e-01 5.38834155e-01 5.30584812e-01 5.22932649e-01 5.17474651e-01 5.14768183e-01 5.13323367e-01 5.11205673e-01 5.07376015e-01 5.01845777e-01 4.95077640e-01 4.87515390e-01 4.79659289e-01 4.71537143e-01 4.62098658e-01 4.48571086e-01 4.26589727e-01 3.99327666e-01 3.64167499e-04 4.05002589e-04 8.88187904e-04 1.82311516e-03 8.82047322e-03 9.40182447e-01 5.34079313e-01 3.54136719e-04 4.97159897e-04 4.23672408e-01 6.30758584e-01 6.92260444e-01 6.74878538e-01 6.63701892e-01 6.49568915e-01 6.33375764e-01 6.16778374e-01 6.01929605e-01 5.89703739e-01 5.79487741e-01 5.70127606e-01 5.60959637e-01 5.51981509e-01 5.43483734e-01 5.35853744e-01 5.29438794e-01 5.24369359e-01 5.20776987e-01 5.18349588e-01 5.15471101e-01 5.07421732e-01 4.67616767e-01 5.63260342e-04 7.09607382e-04 9.25322180e-04 1.95231510e-03 4.90615405e-02 9.96671855e-01 4.44497593e-04 3.26272217e-04 3.70474070e-01 6.23979270e-01 7.16440022e-01 6.99521005e-01 6.94901943e-01 6.85480058e-01 6.72281981e-01 6.56461060e-01 6.40273333e-01 6.25362635e-01 6.11990631e-01 5.99598825e-01 5.87810457e-01 5.76714814e-01 5.66633463e-01 5.57922244e-01 5.50804913e-01 5.45465767e-01 5.42558670e-01 5.43494523e-01 5.51055908e-01 5.67934692e-01 5.92410445e-01 6.30905926e-01 2.74784625e-01 1.28345238e-02 3.37780570e-03 5.33447461e-03 1.52587481e-02 9.90490913e-01 3.11715121e-04 4.18137759e-04 5.57833433e-01 6.33291841e-01 6.29466176e-01 6.38568938e-01 6.44101679e-01 6.44590557e-01 6.39563203e-01 6.31174803e-01 6.21646225e-01 6.11752212e-01 6.01345360e-01 5.90418935e-01 5.79396725e-01 5.68858087e-01 5.59241056e-01 5.50668299e-01 5.43102860e-01 5.36807537e-01 5.32746434e-01 5.33414483e-01 5.43862402e-01 5.68704247e-01 6.47743583e-01 7.34613001e-01 5.72826803e-01 1.09759755e-01 4.12763609e-03 1.01023763e-02 9.67737377e-01 7.41062977e-04 5.35968284e-04 4.58152652e-01 4.52656507e-01 4.67023194e-01 4.93563831e-01 5.23810506e-01 5.50676763e-01 5.69756567e-01 5.81284702e-01 5.86811960e-01 5.87241411e-01 5.83208978e-01 5.75770557e-01 5.66342771e-01 5.56267738e-01 5.46486676e-01 5.37430048e-01 5.29181063e-01 5.21763027e-01 5.15270710e-01 5.09931207e-01 5.05922735e-01 5.02661884e-01 5.11323631e-01 5.91912627e-01 7.87445366e-01 7.37154007e-01 2.63936013e-01 3.45463976e-02 9.86659944e-01 7.28411251e-04 6.89696812e-04 3.64061713e-01 2.66112536e-01 2.71840006e-01 3.01764131e-01 3.47950429e-01 4.03180391e-01 4.57502723e-01 5.02248108e-01 5.33017814e-01 5.49767196e-01 5.54980099e-01 5.52072525e-01 5.44343650e-01 5.34409881e-01 5.24064183e-01 5.14390886e-01 5.06031454e-01 4.99417722e-01 4.94754702e-01 4.91661817e-01 4.88140851e-01 4.78503168e-01 4.55488861e-01 4.33877796e-01 4.74830478e-01 5.53426027e-01 5.06473899e-01 6.04472518e-01 9.82093573e-01 7.68399390e-04 7.22029130e-04 2.97192186e-01 1.50860146e-01 1.36383116e-01 1.53421670e-01 1.91144064e-01 2.52041340e-01 3.33386749e-01 4.15612072e-01 4.77181613e-01 5.12764394e-01 5.27591765e-01 5.28725564e-01 5.21931171e-01 5.11243999e-01 4.99294311e-01 4.87767905e-01 4.77834284e-01 4.70406115e-01 4.66098160e-01 4.64849859e-01 4.65133786e-01 4.62617785e-01 4.49340463e-01 4.19998288e-01 3.85473609e-01 3.77095908e-01 4.88693118e-01 8.26243699e-01 9.58115697e-01 8.17584223e-04 7.67013989e-04 2.54397333e-01 8.97549689e-02 6.72707856e-02 7.54163265e-02 1.01072505e-01 1.51111856e-01 2.38792717e-01 3.48328948e-01 4.36863512e-01 4.87919539e-01 5.09585977e-01 5.13048947e-01 5.06290078e-01 4.94318724e-01 4.80224490e-01 4.65996504e-01 4.53088731e-01 4.42715108e-01 4.35804725e-01 4.32678938e-01 4.32703495e-01 4.34252590e-01 4.35042500e-01 4.32670206e-01 4.26592618e-01 4.52310979e-01 6.47013724e-01 8.92464817e-01 9.03560996e-01 8.86464957e-04 8.23350332e-04 2.24576652e-01 5.25782704e-02 3.20967734e-02 3.68213765e-02 5.72236367e-02 1.01869859e-01 1.91426322e-01 3.18199903e-01 4.22613204e-01 4.80170548e-01 5.03431201e-01 5.06974459e-01 4.99745220e-01 4.86737877e-01 4.70876843e-01 4.54083979e-01 4.37872857e-01 4.23674881e-01 4.12875712e-01 4.06601310e-01 4.05627877e-01 4.10974413e-01 4.25108433e-01 4.53429073e-01 5.05036235e-01 6.15491569e-01 7.90998459e-01 9.06487584e-01 5.63829958e-01 1.00757647e-03 9.06980189e-04 1.99168786e-01 2.90635061e-02 1.63487084e-02 1.93373282e-02 3.58362123e-02 8.36899802e-02 1.87007159e-01 3.29266667e-01 4.34207529e-01 4.86188561e-01 5.05347133e-01 5.07319987e-01 5.00010431e-01 4.87191319e-01 4.70971942e-01 4.52910095e-01 4.34458286e-01 4.17230278e-01 4.03216779e-01 3.94854903e-01 3.95125687e-01 4.08295125e-01 4.41124022e-01 5.04574895e-01 6.08065367e-01 7.40936577e-01 8.45885336e-01 8.26923370e-01 3.04723773e-02 1.21941592e-03 1.04483007e-03 1.70171887e-01 1.59038231e-02 9.64867882e-03 1.21844355e-02 2.72425376e-02 8.73384327e-02 2.22905010e-01 3.74753088e-01 4.61047202e-01 4.96897429e-01 5.08437753e-01 5.08818090e-01 5.02947807e-01 4.92436647e-01 4.78153229e-01 4.61178303e-01 4.42977130e-01 4.25427794e-01 4.11129981e-01 4.03922200e-01 4.09293115e-01 4.34945285e-01 4.91304189e-01 5.90161979e-01 7.16584146e-01 8.12442482e-01 8.37705433e-01 4.18190271e-01 6.71743043e-03 1.66221452e-03 1.34547090e-03 1.28921300e-01 9.09605995e-03 6.37075445e-03 8.95344373e-03 2.70259287e-02 1.17359288e-01 2.99816042e-01 4.34683174e-01 4.86785203e-01 5.02697945e-01 5.06989598e-01 5.07562459e-01 5.05371571e-01 4.99605685e-01 4.89879012e-01 4.76886600e-01 4.62354332e-01 4.48761046e-01 4.39404070e-01 4.39103723e-01 4.54909712e-01 4.96018261e-01 5.71989417e-01 6.87262297e-01 7.93615937e-01 8.28660011e-01 6.53812706e-01 2.60482784e-02 3.41178314e-03 2.27202289e-03 2.14747130e-03 7.28889778e-02 5.53636486e-03 4.65478376e-03 7.61333620e-03 3.64149809e-02 1.89966798e-01 3.99098068e-01 4.82465565e-01 4.98479307e-01 4.98422593e-01 4.99169201e-01 5.02622426e-01 5.06112278e-01 5.06940365e-01 5.03913701e-01 4.97632295e-01 4.90374386e-01 4.85686690e-01 4.87891853e-01 5.02070487e-01 5.34248352e-01 5.89187384e-01 6.67330801e-01 7.62916327e-01 8.16577137e-01 7.23499656e-01 9.48308259e-02 7.71474186e-03 3.00332764e-03 2.81781214e-03 4.83438931e-03 2.60476992e-02 3.69232125e-03 3.64591577e-03 7.80204311e-03 6.69301599e-02 3.13863218e-01 4.78639811e-01 5.02709389e-01 4.92433876e-01 4.84686524e-01 4.86670941e-01 4.95181829e-01 5.05228817e-01 5.13280392e-01 5.18020332e-01 5.20329475e-01 5.23212552e-01 5.31459630e-01 5.50601840e-01 5.85163653e-01 6.36464417e-01 6.97085261e-01 7.47280598e-01 7.70493269e-01 6.74252212e-01 1.33335337e-01 1.23156486e-02 4.75617545e-03 3.71736125e-03 4.46273200e-03 2.22036187e-02 8.46873224e-03 2.82135210e-03 3.02983820e-03 1.04165915e-02 1.46392852e-01 4.44135040e-01 5.13958693e-01 4.95492756e-01 4.72774833e-01 4.65585798e-01 4.72287446e-01 4.86506552e-01 5.02636611e-01 5.17379820e-01 5.29779911e-01 5.41114569e-01 5.54907322e-01 5.76578140e-01 6.11867726e-01 6.63230240e-01 7.24442542e-01 7.74469376e-01 7.68300533e-01 5.84087789e-01 9.11839977e-02 1.46180522e-02 6.98321033e-03 5.13634179e-03 5.78446826e-03 1.27281426e-02 1.57550827e-01 3.61576886e-03 2.44488963e-03 2.85659824e-03 2.01823544e-02 2.98253447e-01 5.19692838e-01 5.09537041e-01 4.69309449e-01 4.46688890e-01 4.45208222e-01 4.57559824e-01 4.76529449e-01 4.97396439e-01 5.17736435e-01 5.36918998e-01 5.56201994e-01 5.78977168e-01 6.10332668e-01 6.54999793e-01 7.12741017e-01 7.72537172e-01 8.09610665e-01 7.66356945e-01 3.93322825e-01 4.05586287e-02 1.43112196e-02 8.28927476e-03 8.94302409e-03 1.88667271e-02 9.82928574e-02 3.51029783e-01 1.93441403e-03 2.07459135e-03 3.35831498e-03 6.32795393e-02 4.56518680e-01 5.31562507e-01 4.78780776e-01 4.35287505e-01 4.20222044e-01 4.25540835e-01 4.42085266e-01 4.63857770e-01 4.87942547e-01 5.12878358e-01 5.37891924e-01 5.63402414e-01 5.91761887e-01 6.27052069e-01 6.72923267e-01 7.28117406e-01 7.81694353e-01 8.12290847e-01 7.75063753e-01 4.96659935e-01 9.53616351e-02 3.44811827e-02 3.89559641e-02 9.51368138e-02 2.95590878e-01 5.12975335e-01 5.15560567e-01 1.27607340e-03 1.54769083e-03 5.47392014e-03 2.10262552e-01 5.35011292e-01 4.99745786e-01 4.36008364e-01 4.02559608e-01 3.96650910e-01 4.06552464e-01 4.24314052e-01 4.46558774e-01 4.72449034e-01 5.01296520e-01 5.31762779e-01 5.62674701e-01 5.94353020e-01 6.29132867e-01 6.69985950e-01 7.16860056e-01 7.62753010e-01 7.92636633e-01 7.81491220e-01 6.70618594e-01 4.45718855e-01 4.21152502e-01 6.24129236e-01 7.83890247e-01 8.12932253e-01 8.17828357e-01 6.70028925e-01 1.00180996e-03 1.16162456e-03 1.48538975e-02 4.22677428e-01 5.27523100e-01 4.48365986e-01 3.95801008e-01 3.76667619e-01 3.77254307e-01 3.87564093e-01 4.02994066e-01 4.23279047e-01 4.49450344e-01 4.81513917e-01 5.17653406e-01 5.54889500e-01 5.90678871e-01 6.24399781e-01 6.57573938e-01 6.92170680e-01 7.27382123e-01 7.57081330e-01 7.69678652e-01 7.53433943e-01 7.29307771e-01 7.66809106e-01 8.30582798e-01 8.46725285e-01 8.33748043e-01 8.32381725e-01 7.14399278e-01 8.61310458e-04 9.78131895e-04 9.22406986e-02 5.27566850e-01 4.64693785e-01 4.00482476e-01 3.70177567e-01 3.61832470e-01 3.63493502e-01 3.69409293e-01 3.78912181e-01 3.94147545e-01 4.17429268e-01 4.49581534e-01 4.89189714e-01 5.32710552e-01 5.75573981e-01 6.13986313e-01 6.46462917e-01 6.74196184e-01 6.99917912e-01 7.25085139e-01 7.46658444e-01 7.57863879e-01 7.59305477e-01 7.61482656e-01 7.64456034e-01 7.59793699e-01 7.49842942e-01 7.51698554e-01 6.70245171e-01 7.28723360e-04 8.46669194e-04 4.27753121e-01 5.21255970e-01 4.21157658e-01 3.85761023e-01 3.69044185e-01 3.59231830e-01 3.52364421e-01 3.47528845e-01 3.46613169e-01 3.52872998e-01 3.69408935e-01 3.98130476e-01 4.39153582e-01 4.90401357e-01 5.47422111e-01 6.03947461e-01 6.53584003e-01 6.91768229e-01 7.16618180e-01 7.28505671e-01 7.28994370e-01 7.20010519e-01 7.03566611e-01 6.81733966e-01 6.57082736e-01 6.34175956e-01 6.16448760e-01 6.12504959e-01 5.96479237e-01 1.27344043e-03 9.28887865e-04 6.93688869e-01 5.14124990e-01 4.94470060e-01 4.76498008e-01 4.59741533e-01 4.44947869e-01 4.32972133e-01 4.23330873e-01 4.16849524e-01 4.15792376e-01 4.22538579e-01 4.38269705e-01 4.62413579e-01 4.92982775e-01 5.27376592e-01 5.62907755e-01 5.96625388e-01 6.24791026e-01 6.42870188e-01 6.46559000e-01 6.33939385e-01 6.08720779e-01 5.81287384e-01 5.61135828e-01 5.48459888e-01 5.37987471e-01 5.27359247e-01 5.17417133e-01 5.28201997e-01 
