# vtk DataFile Version 2.0
results_case1_non_linear/iter4.vtk, Created by Freefem++ 
ASCII
DATASET UNSTRUCTURED_GRID
POINTS 961 float
0 0 0
0.033333333 0 0
0.066666667 0 0
0.1 0 0
0.13333333 0 0
0.16666667 0 0
0.2 0 0
0.23333333 0 0
0.26666667 0 0
0.3 0 0
0.33333333 0 0
0.36666667 0 0
0.4 0 0
0.43333333 0 0
0.46666667 0 0
0.5 0 0
0.53333333 0 0
0.56666667 0 0
0.6 0 0
0.63333333 0 0
0.66666667 0 0
0.7 0 0
0.73333333 0 0
0.76666667 0 0
0.8 0 0
0.83333333 0 0
0.86666667 0 0
0.9 0 0
0.93333333 0 0
0.96666667 0 0
1 0 0
0 0.033333333 0
0.033333333 0.033333333 0
0.066666667 0.033333333 0
0.1 0.033333333 0
0.13333333 0.033333333 0
0.16666667 0.033333333 0
0.2 0.033333333 0
0.23333333 0.033333333 0
0.26666667 0.033333333 0
0.3 0.033333333 0
0.33333333 0.033333333 0
0.36666667 0.033333333 0
0.4 0.033333333 0
0.43333333 0.033333333 0
0.46666667 0.033333333 0
0.5 0.033333333 0
0.53333333 0.033333333 0
0.56666667 0.033333333 0
0.6 0.033333333 0
0.63333333 0.033333333 0
0.66666667 0.033333333 0
0.7 0.033333333 0
0.73333333 0.033333333 0
0.76666667 0.033333333 0
0.8 0.033333333 0
0.83333333 0.033333333 0
0.86666667 0.033333333 0
0.9 0.033333333 0
0.93333333 0.033333333 0
0.96666667 0.033333333 0
1 0.033333333 0
0 0.066666667 0
0.033333333 0.066666667 0
0.066666667 0.066666667 0
0.1 0.066666667 0
0.13333333 0.066666667 0
0.16666667 0.066666667 0
0.2 0.066666667 0
0.23333333 0.066666667 0
0.26666667 0.066666667 0
0.3 0.066666667 0
0.33333333 0.066666667 0
0.36666667 0.066666667 0
0.4 0.066666667 0
0.43333333 0.066666667 0
0.46666667 0.066666667 0
0.5 0.066666667 0
0.53333333 0.066666667 0
0.56666667 0.066666667 0
0.6 0.066666667 0
0.63333333 0.066666667 0
0.66666667 0.066666667 0
0.7 0.066666667 0
0.73333333 0.066666667 0
0.76666667 0.066666667 0
0.8 0.066666667 0
0.83333333 0.066666667 0
0.86666667 0.066666667 0
0.9 0.066666667 0
0.93333333 0.066666667 0
0.96666667 0.066666667 0
1 0.066666667 0
0 0.1 0
0.033333333 0.1 0
0.066666667 0.1 0
0.1 0.1 0
0.13333333 0.1 0
0.16666667 0.1 0
0.2 0.1 0
0.23333333 0.1 0
0.26666667 0.1 0
0.3 0.1 0
0.33333333 0.1 0
0.36666667 0.1 0
0.4 0.1 0
0.43333333 0.1 0
0.46666667 0.1 0
0.5 0.1 0
0.53333333 0.1 0
0.56666667 0.1 0
0.6 0.1 0
0.63333333 0.1 0
0.66666667 0.1 0
0.7 0.1 0
0.73333333 0.1 0
0.76666667 0.1 0
0.8 0.1 0
0.83333333 0.1 0
0.86666667 0.1 0
0.9 0.1 0
0.93333333 0.1 0
0.96666667 0.1 0
1 0.1 0
0 0.13333333 0
0.033333333 0.13333333 0
0.066666667 0.13333333 0
0.1 0.13333333 0
0.13333333 0.13333333 0
0.16666667 0.13333333 0
0.2 0.13333333 0
0.23333333 0.13333333 0
0.26666667 0.13333333 0
0.3 0.13333333 0
0.33333333 0.13333333 0
0.36666667 0.13333333 0
0.4 0.13333333 0
0.43333333 0.13333333 0
0.46666667 0.13333333 0
0.5 0.13333333 0
0.53333333 0.13333333 0
0.56666667 0.13333333 0
0.6 0.13333333 0
0.63333333 0.13333333 0
0.66666667 0.13333333 0
0.7 0.13333333 0
0.73333333 0.13333333 0
0.76666667 0.13333333 0
0.8 0.13333333 0
0.83333333 0.13333333 0
0.86666667 0.13333333 0
0.9 0.13333333 0
0.93333333 0.13333333 0
0.96666667 0.13333333 0
1 0.13333333 0
0 0.16666667 0
0.033333333 0.16666667 0
0.066666667 0.16666667 0
0.1 0.16666667 0
0.13333333 0.16666667 0
0.16666667 0.16666667 0
0.2 0.16666667 0
0.23333333 0.16666667 0
0.26666667 0.16666667 0
0.3 0.16666667 0
0.33333333 0.16666667 0
0.36666667 0.16666667 0
0.4 0.16666667 0
0.43333333 0.16666667 0
0.46666667 0.16666667 0
0.5 0.16666667 0
0.53333333 0.16666667 0
0.56666667 0.16666667 0
0.6 0.16666667 0
0.63333333 0.16666667 0
0.66666667 0.16666667 0
0.7 0.16666667 0
0.73333333 0.16666667 0
0.76666667 0.16666667 0
0.8 0.16666667 0
0.83333333 0.16666667 0
0.86666667 0.16666667 0
0.9 0.16666667 0
0.93333333 0.16666667 0
0.96666667 0.16666667 0
1 0.16666667 0
0 0.2 0
0.033333333 0.2 0
0.066666667 0.2 0
0.1 0.2 0
0.13333333 0.2 0
0.16666667 0.2 0
0.2 0.2 0
0.23333333 0.2 0
0.26666667 0.2 0
0.3 0.2 0
0.33333333 0.2 0
0.36666667 0.2 0
0.4 0.2 0
0.43333333 0.2 0
0.46666667 0.2 0
0.5 0.2 0
0.53333333 0.2 0
0.56666667 0.2 0
0.6 0.2 0
0.63333333 0.2 0
0.66666667 0.2 0
0.7 0.2 0
0.73333333 0.2 0
0.76666667 0.2 0
0.8 0.2 0
0.83333333 0.2 0
0.86666667 0.2 0
0.9 0.2 0
0.93333333 0.2 0
0.96666667 0.2 0
1 0.2 0
0 0.23333333 0
0.033333333 0.23333333 0
0.066666667 0.23333333 0
0.1 0.23333333 0
0.13333333 0.23333333 0
0.16666667 0.23333333 0
0.2 0.23333333 0
0.23333333 0.23333333 0
0.26666667 0.23333333 0
0.3 0.23333333 0
0.33333333 0.23333333 0
0.36666667 0.23333333 0
0.4 0.23333333 0
0.43333333 0.23333333 0
0.46666667 0.23333333 0
0.5 0.23333333 0
0.53333333 0.23333333 0
0.56666667 0.23333333 0
0.6 0.23333333 0
0.63333333 0.23333333 0
0.66666667 0.23333333 0
0.7 0.23333333 0
0.73333333 0.23333333 0
0.76666667 0.23333333 0
0.8 0.23333333 0
0.83333333 0.23333333 0
0.86666667 0.23333333 0
0.9 0.23333333 0
0.93333333 0.23333333 0
0.96666667 0.23333333 0
1 0.23333333 0
0 0.26666667 0
0.033333333 0.26666667 0
0.066666667 0.26666667 0
0.1 0.26666667 0
0.13333333 0.26666667 0
0.16666667 0.26666667 0
0.2 0.26666667 0
0.23333333 0.26666667 0
0.26666667 0.26666667 0
0.3 0.26666667 0
0.33333333 0.26666667 0
0.36666667 0.26666667 0
0.4 0.26666667 0
0.43333333 0.26666667 0
0.46666667 0.26666667 0
0.5 0.26666667 0
0.53333333 0.26666667 0
0.56666667 0.26666667 0
0.6 0.26666667 0
0.63333333 0.26666667 0
0.66666667 0.26666667 0
0.7 0.26666667 0
0.73333333 0.26666667 0
0.76666667 0.26666667 0
0.8 0.26666667 0
0.83333333 0.26666667 0
0.86666667 0.26666667 0
0.9 0.26666667 0
0.93333333 0.26666667 0
0.96666667 0.26666667 0
1 0.26666667 0
0 0.3 0
0.033333333 0.3 0
0.066666667 0.3 0
0.1 0.3 0
0.13333333 0.3 0
0.16666667 0.3 0
0.2 0.3 0
0.23333333 0.3 0
0.26666667 0.3 0
0.3 0.3 0
0.33333333 0.3 0
0.36666667 0.3 0
0.4 0.3 0
0.43333333 0.3 0
0.46666667 0.3 0
0.5 0.3 0
0.53333333 0.3 0
0.56666667 0.3 0
0.6 0.3 0
0.63333333 0.3 0
0.66666667 0.3 0
0.7 0.3 0
0.73333333 0.3 0
0.76666667 0.3 0
0.8 0.3 0
0.83333333 0.3 0
0.86666667 0.3 0
0.9 0.3 0
0.93333333 0.3 0
0.96666667 0.3 0
1 0.3 0
0 0.33333333 0
0.033333333 0.33333333 0
0.066666667 0.33333333 0
0.1 0.33333333 0
0.13333333 0.33333333 0
0.16666667 0.33333333 0
0.2 0.33333333 0
0.23333333 0.33333333 0
0.26666667 0.33333333 0
0.3 0.33333333 0
0.33333333 0.33333333 0
0.36666667 0.33333333 0
0.4 0.33333333 0
0.43333333 0.33333333 0
0.46666667 0.33333333 0
0.5 0.33333333 0
0.53333333 0.33333333 0
0.56666667 0.33333333 0
0.6 0.33333333 0
0.63333333 0.33333333 0
0.66666667 0.33333333 0
0.7 0.33333333 0
0.73333333 0.33333333 0
0.76666667 0.33333333 0
0.8 0.33333333 0
0.83333333 0.33333333 0
0.86666667 0.33333333 0
0.9 0.33333333 0
0.93333333 0.33333333 0
0.96666667 0.33333333 0
1 0.33333333 0
0 0.36666667 0
0.033333333 0.36666667 0
0.066666667 0.36666667 0
0.1 0.36666667 0
0.13333333 0.36666667 0
0.16666667 0.36666667 0
0.2 0.36666667 0
0.23333333 0.36666667 0
0.26666667 0.36666667 0
0.3 0.36666667 0
0.33333333 0.36666667 0
0.36666667 0.36666667 0
0.4 0.36666667 0
0.43333333 0.36666667 0
0.46666667 0.36666667 0
0.5 0.36666667 0
0.53333333 0.36666667 0
0.56666667 0.36666667 0
0.6 0.36666667 0
0.63333333 0.36666667 0
0.66666667 0.36666667 0
0.7 0.36666667 0
0.73333333 0.36666667 0
0.76666667 0.36666667 0
0.8 0.36666667 0
0.83333333 0.36666667 0
0.86666667 0.36666667 0
0.9 0.36666667 0
0.93333333 0.36666667 0
0.96666667 0.36666667 0
1 0.36666667 0
0 0.4 0
0.033333333 0.4 0
0.066666667 0.4 0
0.1 0.4 0
0.13333333 0.4 0
0.16666667 0.4 0
0.2 0.4 0
0.23333333 0.4 0
0.26666667 0.4 0
0.3 0.4 0
0.33333333 0.4 0
0.36666667 0.4 0
0.4 0.4 0
0.43333333 0.4 0
0.46666667 0.4 0
0.5 0.4 0
0.53333333 0.4 0
0.56666667 0.4 0
0.6 0.4 0
0.63333333 0.4 0
0.66666667 0.4 0
0.7 0.4 0
0.73333333 0.4 0
0.76666667 0.4 0
0.8 0.4 0
0.83333333 0.4 0
0.86666667 0.4 0
0.9 0.4 0
0.93333333 0.4 0
0.96666667 0.4 0
1 0.4 0
0 0.43333333 0
0.033333333 0.43333333 0
0.066666667 0.43333333 0
0.1 0.43333333 0
0.13333333 0.43333333 0
0.16666667 0.43333333 0
0.2 0.43333333 0
0.23333333 0.43333333 0
0.26666667 0.43333333 0
0.3 0.43333333 0
0.33333333 0.43333333 0
0.36666667 0.43333333 0
0.4 0.43333333 0
0.43333333 0.43333333 0
0.46666667 0.43333333 0
0.5 0.43333333 0
0.53333333 0.43333333 0
0.56666667 0.43333333 0
0.6 0.43333333 0
0.63333333 0.43333333 0
0.66666667 0.43333333 0
0.7 0.43333333 0
0.73333333 0.43333333 0
0.76666667 0.43333333 0
0.8 0.43333333 0
0.83333333 0.43333333 0
0.86666667 0.43333333 0
0.9 0.43333333 0
0.93333333 0.43333333 0
0.96666667 0.43333333 0
1 0.43333333 0
0 0.46666667 0
0.033333333 0.46666667 0
0.066666667 0.46666667 0
0.1 0.46666667 0
0.13333333 0.46666667 0
0.16666667 0.46666667 0
0.2 0.46666667 0
0.23333333 0.46666667 0
0.26666667 0.46666667 0
0.3 0.46666667 0
0.33333333 0.46666667 0
0.36666667 0.46666667 0
0.4 0.46666667 0
0.43333333 0.46666667 0
0.46666667 0.46666667 0
0.5 0.46666667 0
0.53333333 0.46666667 0
0.56666667 0.46666667 0
0.6 0.46666667 0
0.63333333 0.46666667 0
0.66666667 0.46666667 0
0.7 0.46666667 0
0.73333333 0.46666667 0
0.76666667 0.46666667 0
0.8 0.46666667 0
0.83333333 0.46666667 0
0.86666667 0.46666667 0
0.9 0.46666667 0
0.93333333 0.46666667 0
0.96666667 0.46666667 0
1 0.46666667 0
0 0.5 0
0.033333333 0.5 0
0.066666667 0.5 0
0.1 0.5 0
0.13333333 0.5 0
0.16666667 0.5 0
0.2 0.5 0
0.23333333 0.5 0
0.26666667 0.5 0
0.3 0.5 0
0.33333333 0.5 0
0.36666667 0.5 0
0.4 0.5 0
0.43333333 0.5 0
0.46666667 0.5 0
0.5 0.5 0
0.53333333 0.5 0
0.56666667 0.5 0
0.6 0.5 0
0.63333333 0.5 0
0.66666667 0.5 0
0.7 0.5 0
0.73333333 0.5 0
0.76666667 0.5 0
0.8 0.5 0
0.83333333 0.5 0
0.86666667 0.5 0
0.9 0.5 0
0.93333333 0.5 0
0.96666667 0.5 0
1 0.5 0
0 0.53333333 0
0.033333333 0.53333333 0
0.066666667 0.53333333 0
0.1 0.53333333 0
0.13333333 0.53333333 0
0.16666667 0.53333333 0
0.2 0.53333333 0
0.23333333 0.53333333 0
0.26666667 0.53333333 0
0.3 0.53333333 0
0.33333333 0.53333333 0
0.36666667 0.53333333 0
0.4 0.53333333 0
0.43333333 0.53333333 0
0.46666667 0.53333333 0
0.5 0.53333333 0
0.53333333 0.53333333 0
0.56666667 0.53333333 0
0.6 0.53333333 0
0.63333333 0.53333333 0
0.66666667 0.53333333 0
0.7 0.53333333 0
0.73333333 0.53333333 0
0.76666667 0.53333333 0
[...]
CELL_DATA 1920
Scalars  Label int 1
LOOKUP_TABLE FreeFempp_table
0
0
0
0
0
0
0
0
0
0
0
0
0
0
0
0
0
0
0
0
0
0
0
0
0
0
0
0
0
0
0
0
0
0
0
0
0
0
0
0
0
0
0
0
0
0
0
0
0
0
0
0
0
0
0
0
0
0
0
0
0
0
0
0
0
0
0
0
0
0
0
0
0
0
0
0
0
0
0
0
0
0
0
0
0
0
0
0
0
0
0
0
0
0
0
0
0
0
0
0
0
0
0
0
0
0
0
0
0
0
0
0
0
0
0
0
0
0
0
0
0
0
0
0
0
0
0
0
0
0
0
0
0
0
0
0
0
0
0
0
0
0
0
0
0
0
0
0
0
0
0
0
0
0
0
0
0
0
0
0
0
0
0
0
0
0
0
0
0
0
0
0
0
0
0
0
0
0
0
0
0
0
0
0
0
0
0
0
0
0
0
0
0
0
0
0
0
0
0
0
0
0
0
0
0
0
0
0
0
0
0
0
0
0
0
0
0
0
0
0
0
0
0
0
0
0
0
0
0
0
0
0
0
0
0
0
0
0
0
0
0
0
0
0
0
0
0
0
0
0
0
0
0
0
0
0
0
0
0
0
0
0
0
0
0
0
0
0
0
0
0
0
0
0
0
0
0
0
0
0
0
0
0
0
0
0
0
0
0
0
0
0
0
0
0
0
0
0
0
0
0
0
0
0
0
0
0
0
0
0
0
0
0
0
0
0
0
0
0
0
0
0
0
0
0
0
0
0
0
0
0
0
0
0
0
0
0
0
0
0
0
0
0
0
0
0
0
0
0
0
0
0
0
0
0
0
0
0
0
0
0
0
0
0
0
0
0
0
0
0
0
0
0
0
0
0
0
0
0
0
0
0
0
0
0
0
0
0
0
0
0
0
0
0
0
0
0
0
0
0
0
0
0
0
0
0
0
0
0
0
0
0
0
0
0
0
0
0
0
0
0
0
0
0
0
0
0
0
0
0
0
0
0
0
0
0
0
0
0
0
0
0
0
0
0
0
0
0
0
0
0
0
0
0
0
0
0
0
0
0
0
0
0
0
0
0
0
0
0
0
0
0
0
0
0
0
0
0
0
0
0
0
0
0
0
0
0
0
0
0
0
0
0
0
0
0
0
0
0
0
0
0
0
0
0
0
0
0
0
0
0
0
0
0
0
0
0
0
0
0
0
0
0
0
0
0
0
0
0
0
0
0
0
0
0
0
0
0
0
0
0
0
0
0
0
0
0
0
0
0
0
0
0
0
0
0
0
0
0
0
0
0
0
0
0
0
0
0
0
0
0
0
0
0
0
0
0
0
0
0
0
0
0
0
0
0
0
0
0
0
0
0
0
0
0
0
0
0
0
0
0
0
0
0
0
0
0
0
0
0
0
0
0
0
0
0
0
0
0
0
0
0
0
0
0
0
0
0
0
0
0
0
0
0
0
0
0
0
0
0
0
0
0
0
0
0
0
0
0
0
0
0
0
0
0
0
0
0
0
0
0
0
0
0
0
0
0
0
0
0
0
0
0
0
0
0
0
0
0
0
0
0
0
0
0
0
0
0
0
0
0
0
0
0
0
0
0
0
0
0
0
0
0
0
0
0
0
0
0
0
0
0
0
0
0
0
0
0
0
0
0
0
0
0
0
0
0
0
0
0
0
0
0
0
0
0
0
0
0
0
0
0
0
0
0
0
0
0
0
0
0
0
0
0
0
0
0
0
0
0
0
0
0
0
0
0
0
0
0
0
0
0
0
0
0
0
0
0
0
0
0
0
0
0
0
0
0
0
0
0
0
0
0
0
0
0
0
0
0
0
0
0
0
0
0
0
0
0
0
0
0
0
0
0
0
0
0
0
0
0
0
0
0
0
0
0
0
0
0
0
0
0
0
0
0
0
0
0
0
0
0
0
0
0
0
0
0
0
0
0
0
0
0
0
0
0
0
0
0
0
0
0
0
0
0
0
0
0
0
0
0
0
0
0
0
0
0
0
0
0
0
0
0
0
0
0
0
0
0
0
0
0
0
0
0
0
0
0
0
0
0
0
0
0
0
0
0
0
0
0
0
0
0
0
0
0
0
0
0
0
0
0
0
0
0
0
0
0
0
0
0
0
0
0
0
0
0
0
0
0
0
0
0
0
0
0
0
0
0
0
0
0
0
0
0
0
0
0
0
0
0
0
0
0
0
0
0
0
0
0
0
0
0
0
0
0
0
0
0
0
0
0
0
0
0
0
0
0
0
0
0
0
0
0
0
0
0
0
0
0
0
0
0
0
0
0
0
0
0
0
0
0
0
0
0
0
0
0
0
0
0
0
0
0
0
0
0
0
0
0
0
0
0
0
0
0
0
0
0
0
0
0
0
0
0
0
0
0
0
0
0
0
0
0
0
0
0
0
0
0
0
0
0
0
0
0
0
0
0
0
0
0
0
0
0
0
0
0
0
0
0
0
0
0
0
0
0
0
0
0
0
0
0
0
0
0
0
0
0
0
0
0
0
0
0
0
0
0
0
0
0
0
0
0
0
0
0
0
0
0
0
0
0
0
0
0
0
0
0
0
0
0
0
0
0
0
0
0
0
0
0
0
0
0
0
0
0
0
0
0
0
0
0
0
0
0
0
0
0
0
0
0
0
0
0
0
0
0
0
0
0
0
0
0
0
0
0
0
0
0
0
0
0
0
0
0
0
0
0
0
0
0
0
0
0
0
0
0
0
0
0
0
0
0
0
0
0
0
0
0
0
0
0
0
0
0
0
0
0
0
0
0
0
0
0
0
0
0
0
0
0
0
0
0
0
0
0
0
0
0
0
0
0
0
0
0
0
0
0
0
0
0
0
0
0
0
0
0
0
0
0
0
0
0
0
0
0
0
0
0
0
0
0
0
0
0
0
0
0
0
0
0
0
0
0
0
0
0
0
0
0
0
0
0
0
0
0
0
0
0
0
0
0
0
0
0
0
0
0
0
0
0
0
0
0
0
0
0
0
0
0
0
0
0
0
0
0
0
0
0
0
0
0
0
0
0
0
0
0
0
0
0
0
0
0
0
0
0
0
0
0
0
0
0
0
0
0
0
0
0
0
0
0
0
0
0
0
0
0
0
0
0
0
0
0
0
0
0
0
0
0
0
0
0
0
0
0
0
0
0
0
0
0
0
0
0
0
0
0
0
0
0
0
0
0
0
0
0
0
0
0
0
0
0
0
0
0
0
0
0
0
0
0
0
0
0
0
0
0
0
0
0
0
0
0
0
0
0
0
0
0
0
0
0
0
0
0
0
0
0
0
0
0
0
0
0
0
0
0
0
0
0
0
0
0
0
0
0
0
0
0
0
0
0
0
0
0
0
0
0
0
0
0
0
0
0
0
0
0
0
0
0
0
0
0
0
0
0
0
0
0
0
0
0
0
0
0
0
0
0
0
0
0
0
0
0
0
0
0
0
0
0
0
0
0
0
0
0
0
0
0
0
0
0
0
0
0
0
0
0
0
0
0
0
0
0
0
0
0
0
0
0
0
0
0
0
0
0
0
0
0
0
0
0
0
0
0
0
0
0
0
0
0
0
0
0
0
0
0
0
0
0
0
0
0
0
0
0
0
0
0
0
0
0
0
0
0
0
0
0
0
0
0
0
0
0
0
0
0
0
0
0
0
0
0
0
0
0
0
0
0
0
0
0
0
0
0
0
0
0
0
0
0
0
0
0
0
0
0
0
0
0
0
0
0
0
0
0
0
0
0
0
0
0
0
0
0
0
0
0
0
0
0
0
0
0
0
0
0
0
0
0
0
0
0
0
0
0
0
0
0
0
0
0
0
0
0
0
0
0
0
0
0
0
0
0
0
0
0
0
0
0
0
0
0
0
0
0
0
0
0
0
0
0
0
0
0
0
0
0
0
0
0
0
0
0
0
0
0
0
0
0
0
0
0
0
0
0
0
0
0
0
0
0
0
0
0
0
0
0
0
0
0
0
0
0
0
0
0
0
0
0
0
0
0
0
0
0
0
0
0
0
0
0
0
0
0
0
0
0
0
0
0
0
0
0
0
0
0
0
0
0
0
0
0
0
0
0
0
0
1
1
1
1
1
1
1
1
1
1
1
1
1
1
1
1
1
1
1
1
1
1
1
1
1
1
1
1
1
1
2
2
2
2
2
2
2
2
2
2
2
2
2
2
2
2
2
2
2
2
2
2
2
2
2
2
2
2
2
2
3
3
3
3
3
3
3
3
3
3
3
3
3
3
3
3
3
3
3
3
3
3
3
3
3
3
3
3
3
3
4
4
4
4
4
4
4
4
4
4
4
4
4
4
4
4
4
4
4
4
4
4
4
4
4
4
4
4
4
4

LOOKUP_TABLE FreeFempp_table 5
1.00000000 0.00000000 0.00000000 1.00000000
1.00000000 1.00000000 0.00000000 1.00000000
1.00000000 0.00000000 1.00000000 1.00000000
0.00000000 1.00000000 0.00000000 1.00000000
0.00000000 1.00000000 1.00000000 1.00000000

POINT_DATA 961
FIELD FieldData 1
Density 1 961 float
2.67900638e-02 2.04401881e-01 2.05796942e-01 1.92677721e-01 1.99719787e-01 2.32015684e-01 3.48539203e-01 4.35276419e-01 4.85262930e-01 5.05413592e-01 4.99098897e-01 4.57799792e-01 4.03220773e-01 2.42864326e-01 1.61516324e-01 1.08541138e-01 7.09985048e-02 4.76896092e-02 3.53822559e-02 2.95699090e-02 2.88329571e-02 3.46579961e-02 2.02471435e-01 6.12528563e-01 8.90055060e-01 9.39071178e-01 9.28323150e-01 7.99246311e-01 4.73340973e-02 8.08969811e-02 8.21561754e-01 2.41839346e-02 1.89694948e-02 2.79416833e-02 3.93694937e-02 4.69191857e-02 3.98901589e-02 2.95954831e-02 2.90635638e-02 3.28674763e-02 4.50106673e-02 4.81823124e-02 4.05858196e-02 3.10237221e-02 2.82879602e-02 2.84931269e-02 2.91081946e-02 2.97082253e-02 2.97773294e-02 2.86667589e-02 2.70755664e-02 2.62439568e-02 2.70185787e-02 4.74391989e-02 2.43264839e-01 7.74551630e-01 9.37752128e-01 9.38352108e-01 6.23735785e-01 3.64858694e-02 1.43570621e-02 2.90850252e-01 9.31066513e-01 2.41379347e-02 2.27005761e-02 2.43449993e-02 2.43561640e-02 2.52923816e-02 2.51095034e-02 2.48065386e-02 2.44469214e-02 2.49873847e-02 3.07466537e-02 3.40039954e-02 3.07512116e-02 2.72521675e-02 2.68221479e-02 2.75211111e-02 3.00248787e-02 3.26376222e-02 3.07284389e-02 2.75545213e-02 2.58520059e-02 2.61223651e-02 3.00454795e-02 3.31335306e-01 8.72514427e-01 9.43947017e-01 9.44066107e-01 6.41284823e-01 6.51482642e-02 3.22609916e-02 1.17144935e-01 2.15493515e-02 2.60818973e-02 2.52954271e-02 2.30173673e-02 2.21346766e-02 2.25034952e-02 2.33960729e-02 2.42517833e-02 2.46692467e-02 2.38151383e-02 2.28578001e-02 2.33436320e-02 3.23183388e-02 6.91353008e-02 4.48381193e-02 2.77939159e-02 2.89000999e-02 4.63287942e-02 7.27490634e-02 5.13556227e-02 2.66959909e-02 2.56102234e-02 2.81746797e-02 3.55984151e-01 8.73880208e-01 9.42210197e-01 9.41220284e-01 6.28617287e-01 7.26109818e-02 3.17414999e-02 7.82846287e-02 1.80602409e-02 1.38124917e-02 1.88002847e-02 2.19446924e-02 2.36297920e-02 2.38847509e-02 2.36092806e-02 2.33267117e-02 2.30075214e-02 2.27108151e-02 2.37188246e-02 2.25597564e-02 2.09508520e-02 2.32284293e-02 2.59919707e-02 2.59674415e-02 2.49609835e-02 2.79578157e-02 5.25837243e-02 3.06669343e-02 2.81636231e-02 2.62215715e-02 2.81051174e-02 3.14793199e-01 8.44897091e-01 9.39370751e-01 9.39022303e-01 6.99271560e-01 8.08209330e-02 3.01752351e-02 4.68857810e-02 5.23849241e-02 1.78282019e-02 1.82019267e-02 1.94568336e-02 2.15468127e-02 2.27222610e-02 2.31712367e-02 2.30677705e-02 2.27949917e-02 2.28658728e-02 2.22078748e-02 2.03796737e-02 1.89716890e-02 1.82113629e-02 2.03625504e-02 2.58697085e-02 2.63189282e-02 2.46577635e-02 2.64707282e-02 2.80334447e-02 2.76687201e-02 2.69799959e-02 2.84278169e-02 2.48345882e-01 7.80066490e-01 9.35367167e-01 9.38056827e-01 7.91875422e-01 1.07756197e-01 2.79344749e-02 3.26898843e-02 1.99145377e-01 3.12073529e-02 2.70758513e-02 2.38653533e-02 2.24517118e-02 2.30461862e-02 2.34775394e-02 2.36078706e-02 2.38095820e-02 2.42873523e-02 2.38572136e-02 2.40167323e-02 2.36930437e-02 2.32878905e-02 2.20509991e-02 2.37933788e-02 2.44512707e-02 2.82272212e-02 2.79636346e-02 2.66073663e-02 2.65307650e-02 2.67017875e-02 2.93368492e-02 1.35876417e-01 6.44609809e-01 9.29610670e-01 9.37939346e-01 8.60021770e-01 1.66123047e-01 2.58129202e-02 2.87212133e-02 2.66846657e-01 4.63102385e-02 4.61656600e-02 3.50098126e-02 2.75393073e-02 2.60293428e-02 2.59408802e-02 2.64983326e-02 2.74100173e-02 2.99490578e-02 3.53324972e-02 3.97743843e-02 4.99206446e-02 5.76834083e-02 5.26673310e-02 3.30276825e-02 2.66105495e-02 2.58593280e-02 2.78628636e-02 2.79373191e-02 2.66889501e-02 2.65030693e-02 2.82393564e-02 7.30265230e-02 5.04909992e-01 9.23005760e-01 9.38571870e-01 8.98420990e-01 2.53386259e-01 2.35950239e-02 2.63844170e-02 3.08993846e-01 6.26100451e-02 6.72319978e-02 5.89821674e-02 4.35759388e-02 3.45730111e-02 3.25069204e-02 3.45943347e-02 4.28206623e-02 6.15871623e-02 8.75604898e-02 1.07504271e-01 1.20561764e-01 1.16986476e-01 9.62921828e-02 6.33343160e-02 3.44183668e-02 2.77261660e-02 2.70726085e-02 2.74846759e-02 2.72560883e-02 2.69015618e-02 2.78943684e-02 5.22388406e-02 4.12215233e-01 9.14430618e-01 9.39431190e-01 9.18592513e-01 3.81759316e-01 2.14648489e-02 2.42548864e-02 3.51817936e-01 8.44297186e-02 9.70830694e-02 9.58518162e-02 8.69367346e-02 7.66702592e-02 7.64297470e-02 9.12082270e-02 1.21331699e-01 1.59279794e-01 1.90902025e-01 2.04908088e-01 1.98939294e-01 1.72870308e-01 1.30800739e-01 7.77413324e-02 3.78898978e-02 2.83767767e-02 2.75767166e-02 2.75207181e-02 2.75015067e-02 2.71747317e-02 2.78629214e-02 4.58750315e-02 3.42767537e-01 8.99127662e-01 9.40123916e-01 9.29518580e-01 5.54377377e-01 1.96211524e-02 2.24304833e-02 4.16589379e-01 1.21294089e-01 1.52557626e-01 1.58608034e-01 1.66926533e-01 1.75124124e-01 1.90659687e-01 2.19501063e-01 2.57865101e-01 2.93918967e-01 3.12025905e-01 3.01910698e-01 2.66483814e-01 2.15654403e-01 1.55285567e-01 8.70933235e-02 3.96733768e-02 2.89765745e-02 2.78587975e-02 2.76940204e-02 2.75157560e-02 2.72779521e-02 2.76806038e-02 4.03496511e-02 2.62882352e-01 8.62005532e-01 9.40394521e-01 9.36107576e-01 7.13720679e-01 1.80987809e-02 2.09098868e-02 5.20959437e-01 1.86699420e-01 2.51638621e-01 2.64412761e-01 2.93480963e-01 3.28324527e-01 3.67173344e-01 4.08474773e-01 4.43294913e-01 4.57248867e-01 4.39770311e-01 3.90681386e-01 3.21804285e-01 2.48995781e-01 1.77048370e-01 1.01734728e-01 4.63144816e-02 3.01923249e-02 2.81953663e-02 2.76583601e-02 2.74817850e-02 2.72710286e-02 2.72317082e-02 3.25760394e-02 1.64690912e-01 7.57238150e-01 9.40142393e-01 9.40953732e-01 8.14393163e-01 1.68653894e-02 1.96154546e-02 6.68086231e-01 3.04786444e-01 4.27686036e-01 4.63057935e-01 5.29235125e-01 5.89371026e-01 6.30066991e-01 6.48589849e-01 6.44490719e-01 6.14895880e-01 5.56446135e-01 4.72188771e-01 3.77280712e-01 2.89775372e-01 2.13169649e-01 1.38231426e-01 7.16323778e-02 3.78689952e-02 2.97440924e-02 2.80762203e-02 2.73190532e-02 2.72090230e-02 2.69742161e-02 2.85207480e-02 7.35539794e-02 5.25392592e-01 9.39062774e-01 9.45627928e-01 8.68966937e-01 1.58941578e-02 1.84815992e-02 8.12097907e-01 5.45554578e-01 7.31152773e-01 7.68236041e-01 8.10901880e-01 8.29086840e-01 8.30237150e-01 8.17005694e-01 7.87978768e-01 7.38045871e-01 6.61654353e-01 5.61293304e-01 4.54119474e-01 3.59792113e-01 2.82554179e-01 2.14100346e-01 1.46365494e-01 8.51384401e-02 4.68111522e-02 3.20964977e-02 2.83599179e-02 2.72618942e-02 2.72770599e-02 2.74889357e-02 3.60518992e-02 2.95555443e-01 9.35164750e-01 9.51137483e-01 8.99973214e-01 1.51772257e-02 1.74738131e-02 8.85878444e-01 8.28079939e-01 8.99778008e-01 9.02305961e-01 9.08932984e-01 9.06966448e-01 8.99195969e-01 8.84046555e-01 8.57606649e-01 8.13587010e-01 7.45802402e-01 6.55591965e-01 5.57718933e-01 4.70126390e-01 3.98403466e-01 3.34717453e-01 2.74215221e-01 2.09251478e-01 1.34671941e-01 6.67869449e-02 3.55491415e-02 2.87794992e-02 2.76506059e-02 2.77974475e-02 3.05542313e-02 1.68693647e-01 9.26460505e-01 9.57399189e-01 9.19666648e-01 1.47346314e-02 1.66190453e-02 8.97769213e-01 8.84370208e-01 9.04571235e-01 9.05042052e-01 9.13805187e-01 9.15082514e-01 9.10686135e-01 8.99808347e-01 8.79890025e-01 8.46722722e-01 7.96676695e-01 7.31469393e-01 6.60951674e-01 5.96534371e-01 5.40959120e-01 4.87036765e-01 4.29429173e-01 3.57455820e-01 2.70021975e-01 1.70739636e-01 8.09058100e-02 3.94315608e-02 2.96684429e-02 2.85642724e-02 3.13764289e-02 1.33445516e-01 9.21348691e-01 9.62870359e-01 9.32681501e-01 1.46459630e-02 1.61427557e-02 8.64335299e-01 8.18995714e-01 7.75338233e-01 7.63585627e-01 8.53607297e-01 8.88200819e-01 8.94263566e-01 8.87790143e-01 8.72318566e-01 8.47489536e-01 8.12958062e-01 7.71034122e-01 7.27191448e-01 6.86448514e-01 6.49412215e-01 6.07383251e-01 5.54861605e-01 4.79040116e-01 3.82633269e-01 2.81827420e-01 1.89527601e-01 1.07312553e-01 5.41176833e-02 3.59537452e-02 4.41484638e-02 1.99232161e-01 9.29933727e-01 9.64417160e-01 9.40037727e-01 1.49914622e-02 1.63105950e-02 6.54310763e-01 3.05359066e-01 1.84368998e-01 2.02524975e-01 5.12317836e-01 7.94507504e-01 8.38757038e-01 8.37901175e-01 8.26597929e-01 8.10991585e-01 7.91957676e-01 7.70262659e-01 7.47189224e-01 7.23072767e-01 6.95499063e-01 6.59999192e-01 6.09840393e-01 5.38940191e-01 4.48206604e-01 3.52255851e-01 2.71302015e-01 2.05719337e-01 1.46918744e-01 1.10840216e-01 1.34541571e-01 4.07275915e-01 9.36430931e-01 9.60084081e-01 9.42312241e-01 1.57769639e-02 1.70005951e-02 3.04960340e-01 5.17988689e-02 4.51074541e-02 7.17124492e-02 3.35604757e-01 6.87518775e-01 7.30787635e-01 7.07788587e-01 6.99867010e-01 7.06500173e-01 7.15764403e-01 7.21427739e-01 7.21617162e-01 7.15083778e-01 6.99164629e-01 6.70265973e-01 6.25422180e-01 5.62095344e-01 4.83172208e-01 3.99571896e-01 3.25492501e-01 2.67712981e-01 2.29926601e-01 2.25367799e-01 3.02283764e-01 6.39328003e-01 9.31077719e-01 9.53338027e-01 9.41423595e-01 1.69393979e-02 1.79552883e-02 6.08061925e-02 3.50614190e-02 4.24800254e-02 1.64566070e-01 5.49925387e-01 6.52895987e-01 5.75934231e-01 5.04586101e-01 4.96067792e-01 5.28428614e-01 5.73969781e-01 6.15816057e-01 6.46856308e-01 6.64867043e-01 6.68501079e-01 6.56045854e-01 6.25996053e-01 5.78399599e-01 5.16729176e-01 4.49516982e-01 3.87630999e-01 3.41473222e-01 3.24843347e-01 3.63345891e-01 5.13909876e-01 7.77225435e-01 9.26774263e-01 9.48397934e-01 9.39239323e-01 1.83963664e-02 1.91110149e-02 3.30785923e-02 3.10002528e-02 4.69757207e-02 7.28409410e-01 8.00061941e-01 5.44007361e-01 3.96031052e-01 3.49408686e-01 3.49273056e-01 3.79954249e-01 4.28826183e-01 4.84229684e-01 5.36361992e-01 5.78521669e-01 6.06892943e-01 6.19513154e-01 6.15358114e-01 5.94440162e-01 5.58926225e-01 5.14147043e-01 4.69368368e-01 4.39069360e-01 4.45715338e-01 5.22716880e-01 6.88145578e-01 8.48821938e-01 9.27139640e-01 9.45184410e-01 9.35666978e-01 2.00923067e-02 2.04757974e-02 3.14949937e-02 2.93318499e-02 1.01961032e-01 8.33923221e-01 7.65003204e-01 4.14901853e-01 2.95189887e-01 2.76276290e-01 2.81714559e-01 3.02788377e-01 3.37103188e-01 3.81155312e-01 4.30570483e-01 4.80452031e-01 5.26035428e-01 5.63387215e-01 5.89590430e-01 6.02735043e-01 6.02354407e-01 5.90243757e-01 5.72194815e-01 5.61248541e-01 5.80483913e-01 6.57247126e-01 7.83039629e-01 8.82733047e-01 9.29127276e-01 9.42663908e-01 9.28721309e-01 2.19834112e-02 2.20279638e-02 3.34926918e-02 2.89509799e-02 2.74937719e-01 8.32347333e-01 7.03898787e-01 3.62562567e-01 2.62912959e-01 2.46950105e-01 2.50659704e-01 2.63979912e-01 2.86378264e-01 3.17084074e-01 3.54854941e-01 3.98468465e-01 4.46653873e-01 4.97693479e-01 5.48799634e-01 5.95842302e-01 6.34292543e-01 6.61208928e-01 6.77333236e-01 6.88992500e-01 7.09593415e-01 7.56410003e-01 8.30599308e-01 8.97064686e-01 9.30806398e-01 9.40469384e-01 9.13269401e-01 2.40091737e-02 2.37171073e-02 4.01626602e-02 2.83576492e-02 4.20389175e-01 8.10445130e-01 6.44418538e-01 3.51894051e-01 2.57812887e-01 2.34166130e-01 2.31454253e-01 2.39031672e-01 2.54756510e-01 2.77493566e-01 3.06412250e-01 3.41649473e-01 3.84542346e-01 4.37130779e-01 5.00610769e-01 5.72669446e-01 6.45564377e-01 7.08694339e-01 7.55248845e-01 7.85955489e-01 8.07419538e-01 8.29428971e-01 8.61227095e-01 9.00985062e-01 9.30385947e-01 9.38275218e-01 8.69759679e-01 2.61028819e-02 2.54906416e-02 2.68449597e-02 2.46521216e-02 4.68765289e-01 7.79886901e-01 5.54087520e-01 3.24680358e-01 2.45630845e-01 2.18304947e-01 2.11450920e-01 2.16764539e-01 2.30737805e-01 2.50977606e-01 2.76065618e-01 3.06213468e-01 3.43591571e-01 3.92127603e-01 4.56488013e-01 5.38986027e-01 6.33747220e-01 7.24205613e-01 7.93591857e-01 8.37750256e-01 8.62958372e-01 8.77726078e-01 8.89536202e-01 9.04150307e-01 9.24076140e-01 9.29526269e-01 6.27560019e-01 2.85118986e-02 2.75754053e-02 9.47488025e-02 5.67345992e-02 1.41305149e-01 7.03915000e-01 4.00555730e-01 2.52770394e-01 2.04419151e-01 1.86555207e-01 1.84206739e-01 1.93055689e-01 2.09984317e-01 2.32105568e-01 2.57601708e-01 2.86553293e-01 3.21202517e-01 3.65727037e-01 4.25608456e-01 5.05635440e-01 6.04547858e-01 7.08345115e-01 7.94964194e-01 8.52507234e-01 8.84999692e-01 9.01941836e-01 9.10934269e-01 9.15282309e-01 9.16235507e-01 8.76518250e-01 2.41348565e-01 3.72341760e-02 3.68173979e-02 4.64103464e-03 1.71173036e-01 4.20629419e-02 5.74445665e-01 2.50487894e-01 1.55205593e-01 1.37533993e-01 1.39524207e-01 1.50246397e-01 1.68051973e-01 1.91390663e-01 2.18068093e-01 2.46661529e-01 2.77473867e-01 3.12673897e-01 3.55952114e-01 4.11812335e-01 4.84093964e-01 5.73021650e-01 6.71324074e-01 7.63730288e-01 8.35132360e-01 8.80989075e-01 9.06761944e-01 9.20451045e-01 9.27142978e-01 9.29075539e-01 9.22190070e-01 6.74117565e-01 2.41289929e-01 1.75322101e-01 7.52050802e-03 4.08684425e-02 2.24616788e-02 5.93778551e-01 1.52447432e-01 7.22273812e-02 7.40092397e-02 9.26246271e-02 1.16843216e-01 1.44434720e-01 1.74558386e-01 2.06080973e-01 2.38631219e-01 2.73159921e-01 3.11824381e-01 3.57578993e-01 4.13340628e-01 4.80505168e-01 5.57343006e-01 6.38810635e-01 7.18394935e-01 7.89994180e-01 8.48455608e-01 8.90619516e-01 9.17386711e-01 9.32558119e-01 9.40262139e-01 9.42891240e-01 9.38725293e-01 9.15793121e-01 9.63736534e-01 5.93688525e-03 4.08881009e-02 1.53050665e-02 2.23581821e-01 5.35513051e-02 3.39711718e-02 3.83028127e-02 5.94273210e-02 8.98614675e-02 1.23407885e-01 1.57935619e-01 1.92844659e-01 2.28887156e-01 2.67860800e-01 3.12281549e-01 3.64916176e-01 4.27779227e-01 5.00419855e-01 5.78505874e-01 6.54792190e-01 7.22766757e-01 7.79844880e-01 8.27394962e-01 8.68178606e-01 9.03010845e-01 9.29683268e-01 9.44951594e-01 9.52332735e-01 9.50114250e-01 9.37193513e-01 9.56066668e-01 5.17514870e-02 1.06926151e-02 4.90455935e-03 7.36122578e-02 3.52745838e-02 2.71818377e-02 2.95882374e-02 3.89176533e-02 6.17518574e-02 9.52019989e-02 1.34882137e-01 1.77419141e-01 2.22790256e-01 2.74038017e-01 3.35980207e-01 4.12859470e-01 5.04786551e-01 6.04478717e-01 6.98710084e-01 7.75852323e-01 8.31947982e-01 8.69600654e-01 8.93672049e-01 9.08555388e-01 9.17600095e-01 9.24033880e-01 9.29971755e-01 9.04602110e-01 9.59885418e-01 9.63715076e-01 9.66172516e-01 3.79762724e-02 9.39780101e-03 5.25149237e-03 2.95888156e-01 4.34171930e-02 3.17420363e-02 3.69898677e-02 8.43442380e-02 2.04063132e-01 3.21123123e-01 4.22337025e-01 5.16193449e-01 6.04126811e-01 6.82141125e-01 7.46497095e-01 7.96414018e-01 8.33782792e-01 8.61629009e-01 8.82863998e-01 8.99679363e-01 9.13389862e-01 9.24555361e-01 9.33274746e-01 9.39476132e-01 9.42967176e-01 9.43095922e-01 9.38202858e-01 9.15131390e-01 8.65726829e-01 6.86080456e-01 7.94487834e-01 
