# vtk DataFile Version 2.0
results_case1_non_linear/iter2.vtk, Created by Freefem++ 
ASCII
DATASET UNSTRUCTURED_GRID
POINTS 961 float
0 0 0
0.033333333 0 0
0.066666667 0 0
0.1 0 0
0.13333333 0 0
0.16666667 0 0
0.2 0 0
0.23333333 0 0
0.26666667 0 0
0.3 0 0
0.33333333 0 0
0.36666667 0 0
0.4 0 0
0.43333333 0 0
0.46666667 0 0
0.5 0 0
0.53333333 0 0
0.56666667 0 0
0.6 0 0
0.63333333 0 0
0.66666667 0 0
0.7 0 0
0.73333333 0 0
0.76666667 0 0
0.8 0 0
0.83333333 0 0
0.86666667 0 0
0.9 0 0
0.93333333 0 0
0.96666667 0 0
1 0 0
0 0.033333333 0
0.033333333 0.033333333 0
0.066666667 0.033333333 0
0.1 0.033333333 0
0.13333333 0.033333333 0
0.16666667 0.033333333 0
0.2 0.033333333 0
0.23333333 0.033333333 0
0.26666667 0.033333333 0
0.3 0.033333333 0
0.33333333 0.033333333 0
0.36666667 0.033333333 0
0.4 0.033333333 0
0.43333333 0.033333333 0
0.46666667 0.033333333 0
0.5 0.033333333 0
0.53333333 0.033333333 0
0.56666667 0.033333333 0
0.6 0.033333333 0
0.63333333 0.033333333 0
0.66666667 0.033333333 0
0.7 0.033333333 0
0.73333333 0.033333333 0
0.76666667 0.033333333 0
0.8 0.033333333 0
0.83333333 0.033333333 0
0.86666667 0.033333333 0
0.9 0.033333333 0
0.93333333 0.033333333 0
0.96666667 0.033333333 0
1 0.033333333 0
0 0.066666667 0
0.033333333 0.066666667 0
0.066666667 0.066666667 0
0.1 0.066666667 0
0.13333333 0.066666667 0
0.16666667 0.066666667 0
0.2 0.066666667 0
0.23333333 0.066666667 0
0.26666667 0.066666667 0
0.3 0.066666667 0
0.33333333 0.066666667 0
0.36666667 0.066666667 0
0.4 0.066666667 0
0.43333333 0.066666667 0
0.46666667 0.066666667 0
0.5 0.066666667 0
0.53333333 0.066666667 0
0.56666667 0.066666667 0
0.6 0.066666667 0
0.63333333 0.066666667 0
0.66666667 0.066666667 0
0.7 0.066666667 0
0.73333333 0.066666667 0
0.76666667 0.066666667 0
0.8 0.066666667 0
0.83333333 0.066666667 0
0.86666667 0.066666667 0
0.9 0.066666667 0
0.93333333 0.066666667 0
0.96666667 0.066666667 0
1 0.066666667 0
0 0.1 0
0.033333333 0.1 0
0.066666667 0.1 0
0.1 0.1 0
0.13333333 0.1 0
0.16666667 0.1 0
0.2 0.1 0
0.23333333 0.1 0
0.26666667 0.1 0
0.3 0.1 0
0.33333333 0.1 0
0.36666667 0.1 0
0.4 0.1 0
0.43333333 0.1 0
0.46666667 0.1 0
0.5 0.1 0
0.53333333 0.1 0
0.56666667 0.1 0
0.6 0.1 0
0.63333333 0.1 0
0.66666667 0.1 0
0.7 0.1 0
0.73333333 0.1 0
0.76666667 0.1 0
0.8 0.1 0
0.83333333 0.1 0
0.86666667 0.1 0
0.9 0.1 0
0.93333333 0.1 0
0.96666667 0.1 0
1 0.1 0
0 0.13333333 0
0.033333333 0.13333333 0
0.066666667 0.13333333 0
0.1 0.13333333 0
0.13333333 0.13333333 0
0.16666667 0.13333333 0
0.2 0.13333333 0
0.23333333 0.13333333 0
0.26666667 0.13333333 0
0.3 0.13333333 0
0.33333333 0.13333333 0
0.36666667 0.13333333 0
0.4 0.13333333 0
0.43333333 0.13333333 0
0.46666667 0.13333333 0
0.5 0.13333333 0
0.53333333 0.13333333 0
0.56666667 0.13333333 0
0.6 0.13333333 0
0.63333333 0.13333333 0
0.66666667 0.13333333 0
0.7 0.13333333 0
0.73333333 0.13333333 0
0.76666667 0.13333333 0
0.8 0.13333333 0
0.83333333 0.13333333 0
0.86666667 0.13333333 0
0.9 0.13333333 0
0.93333333 0.13333333 0
0.96666667 0.13333333 0
1 0.13333333 0
0 0.16666667 0
0.033333333 0.16666667 0
0.066666667 0.16666667 0
0.1 0.16666667 0
0.13333333 0.16666667 0
0.16666667 0.16666667 0
0.2 0.16666667 0
0.23333333 0.16666667 0
0.26666667 0.16666667 0
0.3 0.16666667 0
0.33333333 0.16666667 0
0.36666667 0.16666667 0
0.4 0.16666667 0
0.43333333 0.16666667 0
0.46666667 0.16666667 0
0.5 0.16666667 0
0.53333333 0.16666667 0
0.56666667 0.16666667 0
0.6 0.16666667 0
0.63333333 0.16666667 0
0.66666667 0.16666667 0
0.7 0.16666667 0
0.73333333 0.16666667 0
0.76666667 0.16666667 0
0.8 0.16666667 0
0.83333333 0.16666667 0
0.86666667 0.16666667 0
0.9 0.16666667 0
0.93333333 0.16666667 0
0.96666667 0.16666667 0
1 0.16666667 0
0 0.2 0
0.033333333 0.2 0
0.066666667 0.2 0
0.1 0.2 0
0.13333333 0.2 0
0.16666667 0.2 0
0.2 0.2 0
0.23333333 0.2 0
0.26666667 0.2 0
0.3 0.2 0
0.33333333 0.2 0
0.36666667 0.2 0
0.4 0.2 0
0.43333333 0.2 0
0.46666667 0.2 0
0.5 0.2 0
0.53333333 0.2 0
0.56666667 0.2 0
0.6 0.2 0
0.63333333 0.2 0
0.66666667 0.2 0
0.7 0.2 0
0.73333333 0.2 0
0.76666667 0.2 0
0.8 0.2 0
0.83333333 0.2 0
0.86666667 0.2 0
0.9 0.2 0
0.93333333 0.2 0
0.96666667 0.2 0
1 0.2 0
0 0.23333333 0
0.033333333 0.23333333 0
0.066666667 0.23333333 0
0.1 0.23333333 0
0.13333333 0.23333333 0
0.16666667 0.23333333 0
0.2 0.23333333 0
0.23333333 0.23333333 0
0.26666667 0.23333333 0
0.3 0.23333333 0
0.33333333 0.23333333 0
0.36666667 0.23333333 0
0.4 0.23333333 0
0.43333333 0.23333333 0
0.46666667 0.23333333 0
0.5 0.23333333 0
0.53333333 0.23333333 0
0.56666667 0.23333333 0
0.6 0.23333333 0
0.63333333 0.23333333 0
0.66666667 0.23333333 0
0.7 0.23333333 0
0.73333333 0.23333333 0
0.76666667 0.23333333 0
0.8 0.23333333 0
0.83333333 0.23333333 0
0.86666667 0.23333333 0
0.9 0.23333333 0
0.93333333 0.23333333 0
0.96666667 0.23333333 0
1 0.23333333 0
0 0.26666667 0
0.033333333 0.26666667 0
0.066666667 0.26666667 0
0.1 0.26666667 0
0.13333333 0.26666667 0
0.16666667 0.26666667 0
0.2 0.26666667 0
0.23333333 0.26666667 0
0.26666667 0.26666667 0
0.3 0.26666667 0
0.33333333 0.26666667 0
0.36666667 0.26666667 0
0.4 0.26666667 0
0.43333333 0.26666667 0
0.46666667 0.26666667 0
0.5 0.26666667 0
0.53333333 0.26666667 0
0.56666667 0.26666667 0
0.6 0.26666667 0
0.63333333 0.26666667 0
0.66666667 0.26666667 0
0.7 0.26666667 0
0.73333333 0.26666667 0
0.76666667 0.26666667 0
0.8 0.26666667 0
0.83333333 0.26666667 0
0.86666667 0.26666667 0
0.9 0.26666667 0
0.93333333 0.26666667 0
0.96666667 0.26666667 0
1 0.26666667 0
0 0.3 0
0.033333333 0.3 0
0.066666667 0.3 0
0.1 0.3 0
0.13333333 0.3 0
0.16666667 0.3 0
0.2 0.3 0
0.23333333 0.3 0
0.26666667 0.3 0
0.3 0.3 0
0.33333333 0.3 0
0.36666667 0.3 0
0.4 0.3 0
0.43333333 0.3 0
0.46666667 0.3 0
0.5 0.3 0
0.53333333 0.3 0
0.56666667 0.3 0
0.6 0.3 0
0.63333333 0.3 0
0.66666667 0.3 0
0.7 0.3 0
0.73333333 0.3 0
0.76666667 0.3 0
0.8 0.3 0
0.83333333 0.3 0
0.86666667 0.3 0
0.9 0.3 0
0.93333333 0.3 0
0.96666667 0.3 0
1 0.3 0
0 0.33333333 0
0.033333333 0.33333333 0
0.066666667 0.33333333 0
0.1 0.33333333 0
0.13333333 0.33333333 0
0.16666667 0.33333333 0
0.2 0.33333333 0
0.23333333 0.33333333 0
0.26666667 0.33333333 0
0.3 0.33333333 0
0.33333333 0.33333333 0
0.36666667 0.33333333 0
0.4 0.33333333 0
0.43333333 0.33333333 0
0.46666667 0.33333333 0
0.5 0.33333333 0
0.53333333 0.33333333 0
0.56666667 0.33333333 0
0.6 0.33333333 0
0.63333333 0.33333333 0
0.66666667 0.33333333 0
0.7 0.33333333 0
0.73333333 0.33333333 0
0.76666667 0.33333333 0
0.8 0.33333333 0
0.83333333 0.33333333 0
0.86666667 0.33333333 0
0.9 0.33333333 0
0.93333333 0.33333333 0
0.96666667 0.33333333 0
1 0.33333333 0
0 0.36666667 0
0.033333333 0.36666667 0
0.066666667 0.36666667 0
0.1 0.36666667 0
0.13333333 0.36666667 0
0.16666667 0.36666667 0
0.2 0.36666667 0
0.23333333 0.36666667 0
0.26666667 0.36666667 0
0.3 0.36666667 0
0.33333333 0.36666667 0
0.36666667 0.36666667 0
0.4 0.36666667 0
0.43333333 0.36666667 0
0.46666667 0.36666667 0
0.5 0.36666667 0
0.53333333 0.36666667 0
0.56666667 0.36666667 0
0.6 0.36666667 0
0.63333333 0.36666667 0
0.66666667 0.36666667 0
0.7 0.36666667 0
0.73333333 0.36666667 0
0.76666667 0.36666667 0
0.8 0.36666667 0
0.83333333 0.36666667 0
0.86666667 0.36666667 0
0.9 0.36666667 0
0.93333333 0.36666667 0
0.96666667 0.36666667 0
1 0.36666667 0
0 0.4 0
0.033333333 0.4 0
0.066666667 0.4 0
0.1 0.4 0
0.13333333 0.4 0
0.16666667 0.4 0
0.2 0.4 0
0.23333333 0.4 0
0.26666667 0.4 0
0.3 0.4 0
0.33333333 0.4 0
0.36666667 0.4 0
0.4 0.4 0
0.43333333 0.4 0
0.46666667 0.4 0
0.5 0.4 0
0.53333333 0.4 0
0.56666667 0.4 0
0.6 0.4 0
0.63333333 0.4 0
0.66666667 0.4 0
0.7 0.4 0
0.73333333 0.4 0
0.76666667 0.4 0
0.8 0.4 0
0.83333333 0.4 0
0.86666667 0.4 0
0.9 0.4 0
0.93333333 0.4 0
0.96666667 0.4 0
1 0.4 0
0 0.43333333 0
0.033333333 0.43333333 0
0.066666667 0.43333333 0
0.1 0.43333333 0
0.13333333 0.43333333 0
0.16666667 0.43333333 0
0.2 0.43333333 0
0.23333333 0.43333333 0
0.26666667 0.43333333 0
0.3 0.43333333 0
0.33333333 0.43333333 0
0.36666667 0.43333333 0
0.4 0.43333333 0
0.43333333 0.43333333 0
0.46666667 0.43333333 0
0.5 0.43333333 0
0.53333333 0.43333333 0
0.56666667 0.43333333 0
0.6 0.43333333 0
0.63333333 0.43333333 0
0.66666667 0.43333333 0
0.7 0.43333333 0
0.73333333 0.43333333 0
0.76666667 0.43333333 0
0.8 0.43333333 0
0.83333333 0.43333333 0
0.86666667 0.43333333 0
0.9 0.43333333 0
0.93333333 0.43333333 0
0.96666667 0.43333333 0
1 0.43333333 0
0 0.46666667 0
0.033333333 0.46666667 0
0.066666667 0.46666667 0
0.1 0.46666667 0
0.13333333 0.46666667 0
0.16666667 0.46666667 0
0.2 0.46666667 0
0.23333333 0.46666667 0
0.26666667 0.46666667 0
0.3 0.46666667 0
0.33333333 0.46666667 0
0.36666667 0.46666667 0
0.4 0.46666667 0
0.43333333 0.46666667 0
0.46666667 0.46666667 0
0.5 0.46666667 0
0.53333333 0.46666667 0
0.56666667 0.46666667 0
0.6 0.46666667 0
0.63333333 0.46666667 0
0.66666667 0.46666667 0
0.7 0.46666667 0
0.73333333 0.46666667 0
0.76666667 0.46666667 0
0.8 0.46666667 0
0.83333333 0.46666667 0
0.86666667 0.46666667 0
0.9 0.46666667 0
0.93333333 0.46666667 0
0.96666667 0.46666667 0
1 0.46666667 0
0 0.5 0
0.033333333 0.5 0
0.066666667 0.5 0
0.1 0.5 0
0.13333333 0.5 0
0.16666667 0.5 0
0.2 0.5 0
0.23333333 0.5 0
0.26666667 0.5 0
0.3 0.5 0
0.33333333 0.5 0
0.36666667 0.5 0
0.4 0.5 0
0.43333333 0.5 0
0.46666667 0.5 0
0.5 0.5 0
0.53333333 0.5 0
0.56666667 0.5 0
0.6 0.5 0
0.63333333 0.5 0
0.66666667 0.5 0
0.7 0.5 0
0.73333333 0.5 0
0.76666667 0.5 0
0.8 0.5 0
0.83333333 0.5 0
0.86666667 0.5 0
0.9 0.5 0
0.93333333 0.5 0
0.96666667 0.5 0
1 0.5 0
0 0.53333333 0
0.033333333 0.53333333 0
0.066666667 0.53333333 0
0.1 0.53333333 0
0.13333333 0.53333333 0
0.16666667 0.53333333 0
0.2 0.53333333 0
0.23333333 0.53333333 0
0.26666667 0.53333333 0
0.3 0.53333333 0
0.33333333 0.53333333 0
0.36666667 0.53333333 0
0.4 0.53333333 0
0.43333333 0.53333333 0
0.46666667 0.53333333 0
0.5 0.53333333 0
0.53333333 0.53333333 0
0.56666667 0.53333333 0
0.6 0.53333333 0
0.63333333 0.53333333 0
0.66666667 0.53333333 0
0.7 0.53333333 0
0.73333333 0.53333333 0
0.76666667 0.53333333 0
[...]
CELL_DATA 1920
Scalars  Label int 1
LOOKUP_TABLE FreeFempp_table
0
0
0
0
0
0
0
0
0
0
0
0
0
0
0
0
0
0
0
0
0
0
0
0
0
0
0
0
0
0
0
0
0
0
0
0
0
0
0
0
0
0
0
0
0
0
0
0
0
0
0
0
0
0
0
0
0
0
0
0
0
0
0
0
0
0
0
0
0
0
0
0
0
0
0
0
0
0
0
0
0
0
0
0
0
0
0
0
0
0
0
0
0
0
0
0
0
0
0
0
0
0
0
0
0
0
0
0
0
0
0
0
0
0
0
0
0
0
0
0
0
0
0
0
0
0
0
0
0
0
0
0
0
0
0
0
0
0
0
0
0
0
0
0
0
0
0
0
0
0
0
0
0
0
0
0
0
0
0
0
0
0
0
0
0
0
0
0
0
0
0
0
0
0
0
0
0
0
0
0
0
0
0
0
0
0
0
0
0
0
0
0
0
0
0
0
0
0
0
0
0
0
0
0
0
0
0
0
0
0
0
0
0
0
0
0
0
0
0
0
0
0
0
0
0
0
0
0
0
0
0
0
0
0
0
0
0
0
0
0
0
0
0
0
0
0
0
0
0
0
0
0
0
0
0
0
0
0
0
0
0
0
0
0
0
0
0
0
0
0
0
0
0
0
0
0
0
0
0
0
0
0
0
0
0
0
0
0
0
0
0
0
0
0
0
0
0
0
0
0
0
0
0
0
0
0
0
0
0
0
0
0
0
0
0
0
0
0
0
0
0
0
0
0
0
0
0
0
0
0
0
0
0
0
0
0
0
0
0
0
0
0
0
0
0
0
0
0
0
0
0
0
0
0
0
0
0
0
0
0
0
0
0
0
0
0
0
0
0
0
0
0
0
0
0
0
0
0
0
0
0
0
0
0
0
0
0
0
0
0
0
0
0
0
0
0
0
0
0
0
0
0
0
0
0
0
0
0
0
0
0
0
0
0
0
0
0
0
0
0
0
0
0
0
0
0
0
0
0
0
0
0
0
0
0
0
0
0
0
0
0
0
0
0
0
0
0
0
0
0
0
0
0
0
0
0
0
0
0
0
0
0
0
0
0
0
0
0
0
0
0
0
0
0
0
0
0
0
0
0
0
0
0
0
0
0
0
0
0
0
0
0
0
0
0
0
0
0
0
0
0
0
0
0
0
0
0
0
0
0
0
0
0
0
0
0
0
0
0
0
0
0
0
0
0
0
0
0
0
0
0
0
0
0
0
0
0
0
0
0
0
0
0
0
0
0
0
0
0
0
0
0
0
0
0
0
0
0
0
0
0
0
0
0
0
0
0
0
0
0
0
0
0
0
0
0
0
0
0
0
0
0
0
0
0
0
0
0
0
0
0
0
0
0
0
0
0
0
0
0
0
0
0
0
0
0
0
0
0
0
0
0
0
0
0
0
0
0
0
0
0
0
0
0
0
0
0
0
0
0
0
0
0
0
0
0
0
0
0
0
0
0
0
0
0
0
0
0
0
0
0
0
0
0
0
0
0
0
0
0
0
0
0
0
0
0
0
0
0
0
0
0
0
0
0
0
0
0
0
0
0
0
0
0
0
0
0
0
0
0
0
0
0
0
0
0
0
0
0
0
0
0
0
0
0
0
0
0
0
0
0
0
0
0
0
0
0
0
0
0
0
0
0
0
0
0
0
0
0
0
0
0
0
0
0
0
0
0
0
0
0
0
0
0
0
0
0
0
0
0
0
0
0
0
0
0
0
0
0
0
0
0
0
0
0
0
0
0
0
0
0
0
0
0
0
0
0
0
0
0
0
0
0
0
0
0
0
0
0
0
0
0
0
0
0
0
0
0
0
0
0
0
0
0
0
0
0
0
0
0
0
0
0
0
0
0
0
0
0
0
0
0
0
0
0
0
0
0
0
0
0
0
0
0
0
0
0
0
0
0
0
0
0
0
0
0
0
0
0
0
0
0
0
0
0
0
0
0
0
0
0
0
0
0
0
0
0
0
0
0
0
0
0
0
0
0
0
0
0
0
0
0
0
0
0
0
0
0
0
0
0
0
0
0
0
0
0
0
0
0
0
0
0
0
0
0
0
0
0
0
0
0
0
0
0
0
0
0
0
0
0
0
0
0
0
0
0
0
0
0
0
0
0
0
0
0
0
0
0
0
0
0
0
0
0
0
0
0
0
0
0
0
0
0
0
0
0
0
0
0
0
0
0
0
0
0
0
0
0
0
0
0
0
0
0
0
0
0
0
0
0
0
0
0
0
0
0
0
0
0
0
0
0
0
0
0
0
0
0
0
0
0
0
0
0
0
0
0
0
0
0
0
0
0
0
0
0
0
0
0
0
0
0
0
0
0
0
0
0
0
0
0
0
0
0
0
0
0
0
0
0
0
0
0
0
0
0
0
0
0
0
0
0
0
0
0
0
0
0
0
0
0
0
0
0
0
0
0
0
0
0
0
0
0
0
0
0
0
0
0
0
0
0
0
0
0
0
0
0
0
0
0
0
0
0
0
0
0
0
0
0
0
0
0
0
0
0
0
0
0
0
0
0
0
0
0
0
0
0
0
0
0
0
0
0
0
0
0
0
0
0
0
0
0
0
0
0
0
0
0
0
0
0
0
0
0
0
0
0
0
0
0
0
0
0
0
0
0
0
0
0
0
0
0
0
0
0
0
0
0
0
0
0
0
0
0
0
0
0
0
0
0
0
0
0
0
0
0
0
0
0
0
0
0
0
0
0
0
0
0
0
0
0
0
0
0
0
0
0
0
0
0
0
0
0
0
0
0
0
0
0
0
0
0
0
0
0
0
0
0
0
0
0
0
0
0
0
0
0
0
0
0
0
0
0
0
0
0
0
0
0
0
0
0
0
0
0
0
0
0
0
0
0
0
0
0
0
0
0
0
0
0
0
0
0
0
0
0
0
0
0
0
0
0
0
0
0
0
0
0
0
0
0
0
0
0
0
0
0
0
0
0
0
0
0
0
0
0
0
0
0
0
0
0
0
0
0
0
0
0
0
0
0
0
0
0
0
0
0
0
0
0
0
0
0
0
0
0
0
0
0
0
0
0
0
0
0
0
0
0
0
0
0
0
0
0
0
0
0
0
0
0
0
0
0
0
0
0
0
0
0
0
0
0
0
0
0
0
0
0
0
0
0
0
0
0
0
0
0
0
0
0
0
0
0
0
0
0
0
0
0
0
0
0
0
0
0
0
0
0
0
0
0
0
0
0
0
0
0
0
0
0
0
0
0
0
0
0
0
0
0
0
0
0
0
0
0
0
0
0
0
0
0
0
0
0
0
0
0
0
0
0
0
0
0
0
0
0
0
0
0
0
0
0
0
0
0
0
0
0
0
0
0
0
0
0
0
0
0
0
0
0
0
0
0
0
0
0
0
0
0
0
0
0
0
0
0
0
0
0
0
0
0
0
0
0
0
0
0
0
0
0
0
0
0
0
0
0
0
0
0
0
0
0
0
0
0
0
0
0
0
0
0
0
0
0
0
0
0
0
0
0
0
0
0
0
0
0
0
0
0
0
0
0
0
0
0
0
0
0
0
0
0
0
0
0
0
0
0
0
0
0
0
0
0
0
0
0
0
0
0
0
0
0
0
0
0
0
0
0
0
0
0
0
0
0
0
0
0
0
0
0
0
0
0
0
0
0
0
0
0
0
0
0
0
0
0
0
0
0
0
0
0
0
0
0
0
0
0
0
0
0
0
0
0
0
0
0
0
0
0
0
0
0
0
0
0
0
0
0
0
0
0
0
0
0
0
0
0
0
0
0
0
0
0
0
0
0
0
0
0
0
0
0
0
0
0
0
0
0
0
0
0
0
0
0
0
0
0
0
0
0
0
0
0
0
0
0
0
0
0
0
0
0
0
0
0
0
0
0
0
0
0
0
0
0
0
0
0
0
0
0
0
0
0
0
0
0
0
0
0
0
0
0
0
0
0
0
0
0
0
0
0
0
0
0
0
0
0
0
0
0
0
0
0
0
0
0
0
0
0
0
0
0
0
0
0
0
0
0
0
0
0
0
0
0
0
0
0
0
0
0
0
0
0
0
0
0
0
0
0
0
0
0
0
0
0
0
0
0
1
1
1
1
1
1
1
1
1
1
1
1
1
1
1
1
1
1
1
1
1
1
1
1
1
1
1
1
1
1
2
2
2
2
2
2
2
2
2
2
2
2
2
2
2
2
2
2
2
2
2
2
2
2
2
2
2
2
2
2
3
3
3
3
3
3
3
3
3
3
3
3
3
3
3
3
3
3
3
3
3
3
3
3
3
3
3
3
3
3
4
4
4
4
4
4
4
4
4
4
4
4
4
4
4
4
4
4
4
4
4
4
4
4
4
4
4
4
4
4

LOOKUP_TABLE FreeFempp_table 5
1.00000000 0.00000000 0.00000000 1.00000000
1.00000000 1.00000000 0.00000000 1.00000000
1.00000000 0.00000000 1.00000000 1.00000000
0.00000000 1.00000000 0.00000000 1.00000000
0.00000000 1.00000000 1.00000000 1.00000000

POINT_DATA 961
FIELD FieldData 1
Density 1 961 float
4.28198464e-02 4.30143774e-01 4.16210592e-01 3.97877544e-01 4.00477409e-01 4.26052898e-01 5.12655616e-01 5.67986548e-01 5.95986307e-01 6.06831491e-01 6.04496121e-01 5.84175706e-01 5.53963244e-01 4.40010190e-01 3.71214539e-01 3.16352487e-01 2.64274955e-01 2.12716833e-01 1.69543460e-01 1.22538649e-01 1.05921276e-01 1.73713744e-01 4.02753979e-01 6.47363126e-01 8.00561726e-01 8.59403372e-01 8.35121512e-01 7.50631690e-01 3.98558646e-01 3.84986162e-01 7.21233904e-01 5.28975651e-02 1.89053323e-02 2.90032715e-01 2.67308891e-01 2.73680121e-01 2.42084771e-01 1.58290982e-01 1.48496106e-01 1.98702663e-01 2.59373069e-01 2.71488845e-01 2.51721293e-01 2.07313836e-01 1.74458414e-01 1.59249261e-01 1.50010586e-01 1.59619972e-01 1.65967405e-01 1.45000041e-01 1.13972045e-01 1.00090384e-01 1.08190477e-01 2.59883523e-01 5.17593563e-01 7.76943326e-01 9.06755865e-01 8.83299530e-01 7.16429830e-01 2.78666914e-01 2.52638966e-01 4.98837262e-01 9.80523527e-01 2.50487272e-02 2.59622801e-02 7.13453293e-02 1.00755453e-01 9.71432477e-02 6.31028563e-02 4.39204797e-02 4.52690348e-02 8.43807459e-02 2.40461230e-01 2.31374457e-01 2.00954020e-01 1.58211231e-01 1.82474032e-01 1.88306287e-01 2.00623810e-01 2.15118870e-01 1.89776599e-01 1.23307973e-01 8.37924331e-02 9.10797939e-02 1.50524303e-01 5.89571178e-01 8.34714413e-01 9.26133275e-01 8.97622049e-01 7.22865641e-01 3.11933696e-01 1.92694053e-01 3.29803675e-01 1.44657465e-02 9.01684165e-03 8.53505172e-03 1.29725309e-02 2.06543021e-02 2.79504620e-02 2.79377103e-02 2.34764535e-02 1.88593045e-02 1.97197590e-02 2.31898203e-02 7.79134110e-02 2.67200798e-01 3.74040216e-01 3.16357493e-01 1.86635971e-01 1.95573345e-01 2.73722529e-01 3.35925102e-01 2.93913037e-01 1.03387333e-01 9.59326327e-02 8.38284865e-02 6.10640824e-01 8.38783860e-01 9.24722672e-01 8.99565697e-01 7.23834634e-01 3.29858482e-01 1.52368575e-01 2.73548752e-01 2.08117273e-02 9.19645000e-03 2.01446768e-02 1.83468312e-02 1.80875007e-02 1.99607201e-02 2.37442981e-02 2.72742044e-02 2.66571343e-02 2.05871705e-02 1.25825163e-02 1.26079982e-02 1.69967506e-02 1.60844699e-02 1.81654152e-02 2.15606429e-02 8.69640261e-02 2.04691127e-01 3.07024658e-01 1.83319330e-01 1.55076936e-01 1.10916100e-01 6.69407621e-02 5.87161183e-01 8.19556892e-01 9.19168353e-01 9.04021561e-01 7.54947841e-01 3.53281766e-01 1.11994870e-01 2.09860459e-01 3.28415900e-01 1.19983621e-01 1.25352576e-01 6.06752932e-02 3.44145223e-02 2.78660469e-02 3.05516161e-02 4.08196896e-02 6.23312406e-02 8.89240354e-02 6.47259206e-02 2.43579186e-02 1.96511913e-02 1.76271256e-02 1.59043148e-02 1.09496396e-02 1.16629945e-02 2.09541563e-02 1.04258172e-01 1.49176791e-01 1.52473360e-01 1.49609596e-01 1.37954473e-01 5.37973464e-01 7.85087228e-01 9.10540342e-01 9.09608603e-01 7.96136260e-01 3.96341801e-01 8.02882984e-02 1.44445866e-01 4.35111851e-01 2.06078872e-01 2.14565217e-01 1.45451725e-01 8.13800842e-02 5.83590940e-02 5.78321479e-02 6.89336956e-02 9.34307426e-02 1.34119615e-01 1.52894214e-01 1.35346219e-01 1.80489808e-01 2.12047711e-01 1.80467010e-01 7.73984790e-02 1.98378041e-02 1.17824823e-02 1.33892549e-02 4.64976840e-02 8.15132931e-02 1.11205906e-01 1.74301252e-01 4.14400131e-01 7.29547679e-01 8.98926973e-01 9.14445162e-01 8.35338533e-01 4.67643231e-01 6.25894293e-02 9.60099995e-02 4.88272786e-01 2.66932935e-01 2.73685813e-01 2.32375786e-01 1.60018638e-01 1.13600448e-01 1.02946483e-01 1.15329929e-01 1.46903321e-01 1.96291640e-01 2.40041614e-01 2.60488361e-01 3.03218484e-01 3.25651973e-01 3.15755099e-01 2.82341570e-01 2.08527327e-01 9.17280093e-02 1.54481763e-02 1.73850693e-02 3.74022909e-02 6.28395379e-02 1.13372348e-01 3.17309111e-01 6.75791681e-01 8.87300074e-01 9.18387651e-01 8.67357254e-01 5.52826822e-01 5.36211692e-02 7.00081214e-02 5.20210862e-01 3.12254250e-01 3.19915026e-01 3.03098083e-01 2.55397201e-01 2.11064294e-01 1.95956826e-01 2.11312637e-01 2.51527488e-01 3.07687819e-01 3.59243929e-01 3.91329646e-01 4.12840575e-01 4.08229023e-01 3.77324760e-01 3.22594732e-01 2.36418754e-01 1.38600394e-01 6.54303581e-02 2.47422513e-02 2.54617259e-02 4.26310562e-02 9.01675075e-02 2.69513041e-01 6.35247409e-01 8.74669194e-01 9.20559525e-01 8.91380727e-01 6.35577559e-01 4.71005477e-02 5.61694093e-02 5.46871185e-01 3.55260938e-01 3.69958699e-01 3.72389883e-01 3.57221037e-01 3.39689612e-01 3.39879602e-01 3.64966929e-01 4.08794045e-01 4.57607985e-01 4.94736820e-01 5.10843039e-01 5.06014049e-01 4.76806462e-01 4.23812270e-01 3.42683792e-01 2.33159617e-01 1.28442675e-01 6.61326647e-02 3.72539796e-02 2.76055746e-02 3.86454388e-02 8.61410648e-02 2.51008838e-01 5.99087894e-01 8.56875837e-01 9.19902265e-01 9.08469141e-01 7.07297683e-01 4.13322598e-02 4.71906886e-02 5.77681124e-01 4.07066494e-01 4.34813052e-01 4.52214122e-01 4.64769751e-01 4.76557076e-01 4.96362388e-01 5.26642084e-01 5.60973167e-01 5.89042902e-01 6.02086425e-01 5.95991313e-01 5.70014298e-01 5.22982955e-01 4.52941895e-01 3.53891641e-01 2.31952995e-01 1.26288459e-01 6.87851831e-02 4.41989787e-02 3.17779407e-02 3.68543006e-02 8.29254761e-02 2.31068939e-01 5.44041097e-01 8.25541079e-01 9.15227532e-01 9.20258224e-01 7.65011430e-01 3.63438539e-02 4.03913707e-02 6.18554652e-01 4.73816931e-01 5.17535329e-01 5.45292437e-01 5.75088859e-01 6.02462828e-01 6.28154874e-01 6.51400089e-01 6.68794394e-01 6.75931394e-01 6.69258296e-01 6.46872222e-01 6.07996583e-01 5.51616192e-01 4.74832326e-01 3.72828603e-01 2.52999455e-01 1.48769185e-01 8.83135051e-02 6.15545399e-02 4.16802876e-02 3.39623615e-02 6.59965202e-02 1.86379999e-01 4.49478418e-01 7.69042075e-01 9.05409932e-01 9.28427637e-01 8.08703780e-01 3.22605409e-02 3.49803902e-02 6.72487438e-01 5.59905171e-01 6.19106352e-01 6.52322590e-01 6.87720597e-01 7.14884102e-01 7.32980013e-01 7.42343426e-01 7.42822886e-01 7.33376265e-01 7.12684989e-01 6.79927766e-01 6.35047376e-01 5.78053892e-01 5.06993830e-01 4.18212712e-01 3.14420849e-01 2.14343086e-01 1.41939610e-01 1.01040035e-01 6.80803806e-02 3.75744440e-02 4.35911193e-02 1.22641444e-01 3.25764954e-01 6.79700971e-01 8.89828026e-01 9.34376776e-01 8.40846777e-01 2.91899368e-02 3.07599697e-02 7.35616982e-01 6.72055662e-01 7.38652766e-01 7.66572177e-01 7.94172466e-01 8.09371114e-01 8.14077199e-01 8.09771597e-01 7.97184110e-01 7.76249945e-01 7.46757805e-01 7.09130824e-01 6.64827645e-01 6.15517914e-01 5.60681820e-01 4.96879458e-01 4.21319306e-01 3.36273789e-01 2.51089841e-01 1.78630903e-01 1.19728766e-01 6.17903918e-02 3.92306745e-02 7.16108009e-02 2.15717748e-01 5.71440935e-01 8.69574666e-01 9.39035058e-01 8.65065634e-01 2.72232555e-02 2.77054217e-02 7.92139292e-01 7.89855778e-01 8.37381780e-01 8.49939764e-01 8.64081442e-01 8.67676556e-01 8.63365650e-01 8.51768732e-01 8.32991719e-01 8.07140470e-01 7.74997473e-01 7.38433123e-01 7.00309038e-01 6.63321137e-01 6.27933145e-01 5.89943349e-01 5.45112669e-01 4.84792829e-01 4.01561499e-01 2.98783571e-01 2.00537145e-01 1.19090967e-01 6.21551387e-02 6.26798794e-02 1.56808764e-01 4.86845493e-01 8.50181997e-01 9.42882836e-01 8.84431005e-01 2.64101010e-02 2.58036163e-02 8.17513108e-01 8.50105882e-01 8.70728254e-01 8.72269332e-01 8.82956803e-01 8.84999812e-01 8.79808486e-01 8.67616177e-01 8.48787248e-01 8.23980212e-01 7.94824660e-01 7.64044881e-01 7.34855831e-01 7.09552050e-01 6.87715232e-01 6.65578425e-01 6.39174700e-01 5.98508835e-01 5.31106472e-01 4.29697514e-01 3.12691271e-01 2.10463330e-01 1.31976247e-01 1.02367975e-01 1.76835209e-01 4.76175994e-01 8.42209935e-01 9.46160257e-01 9.00623441e-01 2.68380288e-02 2.50347778e-02 7.87368894e-01 8.12450588e-01 7.91281402e-01 7.87865520e-01 8.36273313e-01 8.61915231e-01 8.66361499e-01 8.58804882e-01 8.44054639e-01 8.24510336e-01 8.02217066e-01 7.79579103e-01 7.59023905e-01 7.41838515e-01 7.27383137e-01 7.11529434e-01 6.91128433e-01 6.58405662e-01 6.06504142e-01 5.28517902e-01 4.31381404e-01 3.34801167e-01 2.54951715e-01 2.16569886e-01 2.89055407e-01 5.52118063e-01 8.50598693e-01 9.48736191e-01 9.13652003e-01 2.86793802e-02 2.54340433e-02 6.70716941e-01 5.75435638e-01 4.61849868e-01 4.72850740e-01 6.81665957e-01 7.99256504e-01 8.24516952e-01 8.23274374e-01 8.14975023e-01 8.04163575e-01 7.91960359e-01 7.79288113e-01 7.67141700e-01 7.55829811e-01 7.44253695e-01 7.30357707e-01 7.11053789e-01 6.82688355e-01 6.41645491e-01 5.86066663e-01 5.20324767e-01 4.53961611e-01 4.00321186e-01 3.85322571e-01 4.61009115e-01 6.57231808e-01 8.65568042e-01 9.49955881e-01 9.22529459e-01 3.21177989e-02 2.71054581e-02 4.80271846e-01 2.68067986e-01 2.33513415e-01 2.93538332e-01 5.67843556e-01 7.46816337e-01 7.70975351e-01 7.61890054e-01 7.57374048e-01 7.57873654e-01 7.59063184e-01 7.58789062e-01 7.56594837e-01 7.52241671e-01 7.44819522e-01 7.32989609e-01 7.15566635e-01 6.90984309e-01 6.58396363e-01 6.18847549e-01 5.76755583e-01 5.39297223e-01 5.17946362e-01 5.33136904e-01 6.08683527e-01 7.39767611e-01 8.77938449e-01 9.49397802e-01 9.26403284e-01 3.71841639e-02 3.01757790e-02 2.42782310e-01 1.96006909e-01 2.31453523e-01 4.24166381e-01 6.72665894e-01 7.28079677e-01 7.10849702e-01 6.84654295e-01 6.79972947e-01 6.90836430e-01 7.05752790e-01 7.18702137e-01 7.27696717e-01 7.32236505e-01 7.31880069e-01 7.25977600e-01 7.13997304e-01 6.95825636e-01 6.72076344e-01 6.44942343e-01 6.18709445e-01 6.00303769e-01 6.00442827e-01 6.32882714e-01 7.03156471e-01 7.94250131e-01 8.87440324e-01 9.47304606e-01 9.24850285e-01 4.35288399e-02 3.46179120e-02 1.36531219e-01 1.42347366e-01 2.63452321e-01 7.72276998e-01 7.94495821e-01 6.93294704e-01 6.33189261e-01 6.08563364e-01 6.08031631e-01 6.24062061e-01 6.46367192e-01 6.68144882e-01 6.86277688e-01 6.99691057e-01 7.08030224e-01 7.11074889e-01 7.08636165e-01 7.00815022e-01 6.88457251e-01 6.73506141e-01 6.59499407e-01 6.52563035e-01 6.62223041e-01 6.98363304e-01 7.60416329e-01 8.30177784e-01 8.96088481e-01 9.44167435e-01 9.17520523e-01 5.09775952e-02 4.01516780e-02 8.07708725e-02 1.14801250e-01 3.84789377e-01 8.23029876e-01 7.86876023e-01 6.44622684e-01 5.71124792e-01 5.55740774e-01 5.60183465e-01 5.75447023e-01 5.96762538e-01 6.19881570e-01 6.41926289e-01 6.61375105e-01 6.77574575e-01 6.90265357e-01 6.99267507e-01 7.04435408e-01 7.05921233e-01 7.04511285e-01 7.02129722e-01 7.02895582e-01 7.14116156e-01 7.44399488e-01 7.95393467e-01 8.53333652e-01 9.04191792e-01 9.40378845e-01 9.03573930e-01 6.10511974e-02 4.70270105e-02 5.45448363e-02 7.95530528e-02 5.68137646e-01 8.21952045e-01 7.64527500e-01 6.21934056e-01 5.47790527e-01 5.30445278e-01 5.33048689e-01 5.44196725e-01 5.60888171e-01 5.80968559e-01 6.02553964e-01 6.24378264e-01 6.45800233e-01 6.66530609e-01 6.86270833e-01 7.04472065e-01 7.20355034e-01 7.33178198e-01 7.42818832e-01 7.50771821e-01 7.61250734e-01 7.81329513e-01 8.17439973e-01 8.65703762e-01 9.10083771e-01 9.35983241e-01 8.80935192e-01 7.82646239e-02 5.75577393e-02 4.10775393e-02 5.83763234e-02 6.53150082e-01 8.08989584e-01 7.42535830e-01 6.17580056e-01 5.45169353e-01 5.18994808e-01 5.14614046e-01 5.21040022e-01 5.34036160e-01 5.51343322e-01 5.71465909e-01 5.93612850e-01 6.17595553e-01 6.43475294e-01 6.71111822e-01 6.99792981e-01 7.28068113e-01 7.53894389e-01 7.75274038e-01 7.91356027e-01 8.03500891e-01 8.15934718e-01 8.35753143e-01 8.69281888e-01 9.09639776e-01 9.28736329e-01 8.42201293e-01 1.10934719e-01 7.84089789e-02 3.12843882e-02 4.62579317e-02 6.81053102e-01 7.91460395e-01 7.08045602e-01 6.01119280e-01 5.35959542e-01 5.04924536e-01 4.95314687e-01 4.99269634e-01 5.11561632e-01 5.28769016e-01 5.48933327e-01 5.71397066e-01 5.96438289e-01 6.24645889e-01 6.56304002e-01 6.90967977e-01 7.27209926e-01 7.62539804e-01 7.93823779e-01 8.18464339e-01 8.35760295e-01 8.47529590e-01 8.57936621e-01 8.72504175e-01 8.96527708e-01 9.02147830e-01 7.46620595e-01 1.62244111e-01 1.22596204e-01 1.86820496e-02 2.58681308e-02 5.67171812e-01 7.51186371e-01 6.39479935e-01 5.47827303e-01 4.99864697e-01 4.76133138e-01 4.69642073e-01 4.76398706e-01 4.91822243e-01 5.11961937e-01 5.34349322e-01 5.58206975e-01 5.84034264e-01 6.12770736e-01 6.45035028e-01 6.80754185e-01 7.19073236e-01 7.58232832e-01 7.95457065e-01 8.27472150e-01 8.51932526e-01 8.68761599e-01 8.80115747e-01 8.86817753e-01 8.86394978e-01 8.37074399e-01 5.37430167e-01 2.20762014e-01 2.09625930e-01 1.50554534e-02 9.64991283e-03 6.35569692e-02 6.80769086e-01 5.28907359e-01 4.49207544e-01 4.30656224e-01 4.29434299e-01 4.36898500e-01 4.52756912e-01 4.74820375e-01 5.00086129e-01 5.26330292e-01 5.52796125e-01 5.79987526e-01 6.08861566e-01 6.40041947e-01 6.73517466e-01 7.08820999e-01 7.45276272e-01 7.81872213e-01 8.16836238e-01 8.47694814e-01 8.72421980e-01 8.91073465e-01 9.04056668e-01 9.09692943e-01 8.91109347e-01 7.37813771e-01 5.36503732e-01 4.08882678e-01 9.35387462e-02 1.18778674e-02 1.88298821e-02 6.62549913e-01 4.17543173e-01 3.32093209e-01 3.43312740e-01 3.71986926e-01 4.00233179e-01 4.29191440e-01 4.59697336e-01 4.90920007e-01 5.21782935e-01 5.51872909e-01 5.81558526e-01 6.11496747e-01 6.42034352e-01 6.72959745e-01 7.03732610e-01 7.33973503e-01 7.63837218e-01 7.93936431e-01 8.24683785e-01 8.55367780e-01 8.84220898e-01 9.09051538e-01 9.29209948e-01 9.46396470e-01 9.68377471e-01 9.79612291e-01 9.47200656e-01 1.19356774e-01 2.58889217e-02 2.35431902e-02 4.05948222e-01 2.59007215e-01 2.15302557e-01 2.51360357e-01 3.08337331e-01 3.59322906e-01 4.03066278e-01 4.42773879e-01 4.80309397e-01 5.16359866e-01 5.51186919e-01 5.85063457e-01 6.18273735e-01 6.50885284e-01 6.82595253e-01 7.12813556e-01 7.40936935e-01 7.66682744e-01 7.90412426e-01 8.13408673e-01 8.37927103e-01 8.66348386e-01 8.98641348e-01 9.24509943e-01 9.41268265e-01 9.67055202e-01 9.74082470e-01 9.26880181e-01 2.36542393e-02 3.96144912e-02 2.41234750e-02 2.63609707e-01 1.62773892e-01 1.29103199e-01 1.58592403e-01 2.20633596e-01 2.90069669e-01 3.54280770e-01 4.11605686e-01 4.63850707e-01 5.12748778e-01 5.59165418e-01 6.03396177e-01 6.45515859e-01 6.85481250e-01 7.23089635e-01 7.57955372e-01 7.89558411e-01 8.17308307e-01 8.40582430e-01 8.58776569e-01 8.71458828e-01 8.78823459e-01 8.82861316e-01 8.82681310e-01 8.42747986e-01 9.02664006e-01 9.11275446e-01 9.29412186e-01 3.53044011e-02 3.77583131e-02 7.72873312e-02 3.84113699e-01 1.63987726e-01 1.17197201e-01 1.54123604e-01 2.59283930e-01 3.83313954e-01 4.82715428e-01 5.54519057e-01 6.08177662e-01 6.50847018e-01 6.86246037e-01 7.16154516e-01 7.41553128e-01 7.63217449e-01 7.81967282e-01 7.98694015e-01 8.14219356e-01 8.29041958e-01 8.43072355e-01 8.55471492e-01 8.64659011e-01 8.68450284e-01 8.64391685e-01 8.50164473e-01 8.11006427e-01 7.61432886e-01 6.65274143e-01 7.04792380e-01 
