# vtk DataFile Version 2.0
results/iter7.vtk, Created by Freefem++ 
ASCII
DATASET UNSTRUCTURED_GRID
POINTS 961 float
0 0 0
0.033333333 0 0
0.066666667 0 0
0.1 0 0
0.13333333 0 0
0.16666667 0 0
0.2 0 0
0.23333333 0 0
0.26666667 0 0
0.3 0 0
0.33333333 0 0
0.36666667 0 0
0.4 0 0
0.43333333 0 0
0.46666667 0 0
0.5 0 0
0.53333333 0 0
0.56666667 0 0
0.6 0 0
0.63333333 0 0
0.66666667 0 0
0.7 0 0
0.73333333 0 0
0.76666667 0 0
0.8 0 0
0.83333333 0 0
0.86666667 0 0
0.9 0 0
0.93333333 0 0
0.96666667 0 0
1 0 0
0 0.033333333 0
0.033333333 0.033333333 0
0.066666667 0.033333333 0
0.1 0.033333333 0
0.13333333 0.033333333 0
0.16666667 0.033333333 0
0.2 0.033333333 0
0.23333333 0.033333333 0
0.26666667 0.033333333 0
0.3 0.033333333 0
0.33333333 0.033333333 0
0.36666667 0.033333333 0
0.4 0.033333333 0
0.43333333 0.033333333 0
0.46666667 0.033333333 0
0.5 0.033333333 0
0.53333333 0.033333333 0
0.56666667 0.033333333 0
0.6 0.033333333 0
0.63333333 0.033333333 0
0.66666667 0.033333333 0
0.7 0.033333333 0
0.73333333 0.033333333 0
0.76666667 0.033333333 0
0.8 0.033333333 0
0.83333333 0.033333333 0
0.86666667 0.033333333 0
0.9 0.033333333 0
0.93333333 0.033333333 0
0.96666667 0.033333333 0
1 0.033333333 0
0 0.066666667 0
0.033333333 0.066666667 0
0.066666667 0.066666667 0
0.1 0.066666667 0
0.13333333 0.066666667 0
0.16666667 0.066666667 0
0.2 0.066666667 0
0.23333333 0.066666667 0
0.26666667 0.066666667 0
0.3 0.066666667 0
0.33333333 0.066666667 0
0.36666667 0.066666667 0
0.4 0.066666667 0
0.43333333 0.066666667 0
0.46666667 0.066666667 0
0.5 0.066666667 0
0.53333333 0.066666667 0
0.56666667 0.066666667 0
0.6 0.066666667 0
0.63333333 0.066666667 0
0.66666667 0.066666667 0
0.7 0.066666667 0
0.73333333 0.066666667 0
0.76666667 0.066666667 0
0.8 0.066666667 0
0.83333333 0.066666667 0
0.86666667 0.066666667 0
0.9 0.066666667 0
0.93333333 0.066666667 0
0.96666667 0.066666667 0
1 0.066666667 0
0 0.1 0
0.033333333 0.1 0
0.066666667 0.1 0
0.1 0.1 0
0.13333333 0.1 0
0.16666667 0.1 0
0.2 0.1 0
0.23333333 0.1 0
0.26666667 0.1 0
0.3 0.1 0
0.33333333 0.1 0
0.36666667 0.1 0
0.4 0.1 0
0.43333333 0.1 0
0.46666667 0.1 0
0.5 0.1 0
0.53333333 0.1 0
0.56666667 0.1 0
0.6 0.1 0
0.63333333 0.1 0
0.66666667 0.1 0
0.7 0.1 0
0.73333333 0.1 0
0.76666667 0.1 0
0.8 0.1 0
0.83333333 0.1 0
0.86666667 0.1 0
0.9 0.1 0
0.93333333 0.1 0
0.96666667 0.1 0
1 0.1 0
0 0.13333333 0
0.033333333 0.13333333 0
0.066666667 0.13333333 0
0.1 0.13333333 0
0.13333333 0.13333333 0
0.16666667 0.13333333 0
0.2 0.13333333 0
0.23333333 0.13333333 0
0.26666667 0.13333333 0
0.3 0.13333333 0
0.33333333 0.13333333 0
0.36666667 0.13333333 0
0.4 0.13333333 0
0.43333333 0.13333333 0
0.46666667 0.13333333 0
0.5 0.13333333 0
0.53333333 0.13333333 0
0.56666667 0.13333333 0
0.6 0.13333333 0
0.63333333 0.13333333 0
0.66666667 0.13333333 0
0.7 0.13333333 0
0.73333333 0.13333333 0
0.76666667 0.13333333 0
0.8 0.13333333 0
0.83333333 0.13333333 0
0.86666667 0.13333333 0
0.9 0.13333333 0
0.93333333 0.13333333 0
0.96666667 0.13333333 0
1 0.13333333 0
0 0.16666667 0
0.033333333 0.16666667 0
0.066666667 0.16666667 0
0.1 0.16666667 0
0.13333333 0.16666667 0
0.16666667 0.16666667 0
0.2 0.16666667 0
0.23333333 0.16666667 0
0.26666667 0.16666667 0
0.3 0.16666667 0
0.33333333 0.16666667 0
0.36666667 0.16666667 0
0.4 0.16666667 0
0.43333333 0.16666667 0
0.46666667 0.16666667 0
0.5 0.16666667 0
0.53333333 0.16666667 0
0.56666667 0.16666667 0
0.6 0.16666667 0
0.63333333 0.16666667 0
0.66666667 0.16666667 0
0.7 0.16666667 0
0.73333333 0.16666667 0
0.76666667 0.16666667 0
0.8 0.16666667 0
0.83333333 0.16666667 0
0.86666667 0.16666667 0
0.9 0.16666667 0
0.93333333 0.16666667 0
0.96666667 0.16666667 0
1 0.16666667 0
0 0.2 0
0.033333333 0.2 0
0.066666667 0.2 0
0.1 0.2 0
0.13333333 0.2 0
0.16666667 0.2 0
0.2 0.2 0
0.23333333 0.2 0
0.26666667 0.2 0
0.3 0.2 0
0.33333333 0.2 0
0.36666667 0.2 0
0.4 0.2 0
0.43333333 0.2 0
0.46666667 0.2 0
0.5 0.2 0
0.53333333 0.2 0
0.56666667 0.2 0
0.6 0.2 0
0.63333333 0.2 0
0.66666667 0.2 0
0.7 0.2 0
0.73333333 0.2 0
0.76666667 0.2 0
0.8 0.2 0
0.83333333 0.2 0
0.86666667 0.2 0
0.9 0.2 0
0.93333333 0.2 0
0.96666667 0.2 0
1 0.2 0
0 0.23333333 0
0.033333333 0.23333333 0
0.066666667 0.23333333 0
0.1 0.23333333 0
0.13333333 0.23333333 0
0.16666667 0.23333333 0
0.2 0.23333333 0
0.23333333 0.23333333 0
0.26666667 0.23333333 0
0.3 0.23333333 0
0.33333333 0.23333333 0
0.36666667 0.23333333 0
0.4 0.23333333 0
0.43333333 0.23333333 0
0.46666667 0.23333333 0
0.5 0.23333333 0
0.53333333 0.23333333 0
0.56666667 0.23333333 0
0.6 0.23333333 0
0.63333333 0.23333333 0
0.66666667 0.23333333 0
0.7 0.23333333 0
0.73333333 0.23333333 0
0.76666667 0.23333333 0
0.8 0.23333333 0
0.83333333 0.23333333 0
0.86666667 0.23333333 0
0.9 0.23333333 0
0.93333333 0.23333333 0
0.96666667 0.23333333 0
1 0.23333333 0
0 0.26666667 0
0.033333333 0.26666667 0
0.066666667 0.26666667 0
0.1 0.26666667 0
0.13333333 0.26666667 0
0.16666667 0.26666667 0
0.2 0.26666667 0
0.23333333 0.26666667 0
0.26666667 0.26666667 0
0.3 0.26666667 0
0.33333333 0.26666667 0
0.36666667 0.26666667 0
0.4 0.26666667 0
0.43333333 0.26666667 0
0.46666667 0.26666667 0
0.5 0.26666667 0
0.53333333 0.26666667 0
0.56666667 0.26666667 0
0.6 0.26666667 0
0.63333333 0.26666667 0
0.66666667 0.26666667 0
0.7 0.26666667 0
0.73333333 0.26666667 0
0.76666667 0.26666667 0
0.8 0.26666667 0
0.83333333 0.26666667 0
0.86666667 0.26666667 0
0.9 0.26666667 0
0.93333333 0.26666667 0
0.96666667 0.26666667 0
1 0.26666667 0
0 0.3 0
0.033333333 0.3 0
0.066666667 0.3 0
0.1 0.3 0
0.13333333 0.3 0
0.16666667 0.3 0
0.2 0.3 0
0.23333333 0.3 0
0.26666667 0.3 0
0.3 0.3 0
0.33333333 0.3 0
0.36666667 0.3 0
0.4 0.3 0
0.43333333 0.3 0
0.46666667 0.3 0
0.5 0.3 0
0.53333333 0.3 0
0.56666667 0.3 0
0.6 0.3 0
0.63333333 0.3 0
0.66666667 0.3 0
0.7 0.3 0
0.73333333 0.3 0
0.76666667 0.3 0
0.8 0.3 0
0.83333333 0.3 0
0.86666667 0.3 0
0.9 0.3 0
0.93333333 0.3 0
0.96666667 0.3 0
1 0.3 0
0 0.33333333 0
0.033333333 0.33333333 0
0.066666667 0.33333333 0
0.1 0.33333333 0
0.13333333 0.33333333 0
0.16666667 0.33333333 0
0.2 0.33333333 0
0.23333333 0.33333333 0
0.26666667 0.33333333 0
0.3 0.33333333 0
0.33333333 0.33333333 0
0.36666667 0.33333333 0
0.4 0.33333333 0
0.43333333 0.33333333 0
0.46666667 0.33333333 0
0.5 0.33333333 0
0.53333333 0.33333333 0
0.56666667 0.33333333 0
0.6 0.33333333 0
0.63333333 0.33333333 0
0.66666667 0.33333333 0
0.7 0.33333333 0
0.73333333 0.33333333 0
0.76666667 0.33333333 0
0.8 0.33333333 0
0.83333333 0.33333333 0
0.86666667 0.33333333 0
0.9 0.33333333 0
0.93333333 0.33333333 0
0.96666667 0.33333333 0
1 0.33333333 0
0 0.36666667 0
0.033333333 0.36666667 0
0.066666667 0.36666667 0
0.1 0.36666667 0
0.13333333 0.36666667 0
0.16666667 0.36666667 0
0.2 0.36666667 0
0.23333333 0.36666667 0
0.26666667 0.36666667 0
0.3 0.36666667 0
0.33333333 0.36666667 0
0.36666667 0.36666667 0
0.4 0.36666667 0
0.43333333 0.36666667 0
0.46666667 0.36666667 0
0.5 0.36666667 0
0.53333333 0.36666667 0
0.56666667 0.36666667 0
0.6 0.36666667 0
0.63333333 0.36666667 0
0.66666667 0.36666667 0
0.7 0.36666667 0
0.73333333 0.36666667 0
0.76666667 0.36666667 0
0.8 0.36666667 0
0.83333333 0.36666667 0
0.86666667 0.36666667 0
0.9 0.36666667 0
0.93333333 0.36666667 0
0.96666667 0.36666667 0
1 0.36666667 0
0 0.4 0
0.033333333 0.4 0
0.066666667 0.4 0
0.1 0.4 0
0.13333333 0.4 0
0.16666667 0.4 0
0.2 0.4 0
0.23333333 0.4 0
0.26666667 0.4 0
0.3 0.4 0
0.33333333 0.4 0
0.36666667 0.4 0
0.4 0.4 0
0.43333333 0.4 0
0.46666667 0.4 0
0.5 0.4 0
0.53333333 0.4 0
0.56666667 0.4 0
0.6 0.4 0
0.63333333 0.4 0
0.66666667 0.4 0
0.7 0.4 0
0.73333333 0.4 0
0.76666667 0.4 0
0.8 0.4 0
0.83333333 0.4 0
0.86666667 0.4 0
0.9 0.4 0
0.93333333 0.4 0
0.96666667 0.4 0
1 0.4 0
0 0.43333333 0
0.033333333 0.43333333 0
0.066666667 0.43333333 0
0.1 0.43333333 0
0.13333333 0.43333333 0
0.16666667 0.43333333 0
0.2 0.43333333 0
0.23333333 0.43333333 0
0.26666667 0.43333333 0
0.3 0.43333333 0
0.33333333 0.43333333 0
0.36666667 0.43333333 0
0.4 0.43333333 0
0.43333333 0.43333333 0
0.46666667 0.43333333 0
0.5 0.43333333 0
0.53333333 0.43333333 0
0.56666667 0.43333333 0
0.6 0.43333333 0
0.63333333 0.43333333 0
0.66666667 0.43333333 0
0.7 0.43333333 0
0.73333333 0.43333333 0
0.76666667 0.43333333 0
0.8 0.43333333 0
0.83333333 0.43333333 0
0.86666667 0.43333333 0
0.9 0.43333333 0
0.93333333 0.43333333 0
0.96666667 0.43333333 0
1 0.43333333 0
0 0.46666667 0
0.033333333 0.46666667 0
0.066666667 0.46666667 0
0.1 0.46666667 0
0.13333333 0.46666667 0
0.16666667 0.46666667 0
0.2 0.46666667 0
0.23333333 0.46666667 0
0.26666667 0.46666667 0
0.3 0.46666667 0
0.33333333 0.46666667 0
0.36666667 0.46666667 0
0.4 0.46666667 0
0.43333333 0.46666667 0
0.46666667 0.46666667 0
0.5 0.46666667 0
0.53333333 0.46666667 0
0.56666667 0.46666667 0
0.6 0.46666667 0
0.63333333 0.46666667 0
0.66666667 0.46666667 0
0.7 0.46666667 0
0.73333333 0.46666667 0
0.76666667 0.46666667 0
0.8 0.46666667 0
0.83333333 0.46666667 0
0.86666667 0.46666667 0
0.9 0.46666667 0
0.93333333 0.46666667 0
0.96666667 0.46666667 0
1 0.46666667 0
0 0.5 0
0.033333333 0.5 0
0.066666667 0.5 0
0.1 0.5 0
0.13333333 0.5 0
0.16666667 0.5 0
0.2 0.5 0
0.23333333 0.5 0
0.26666667 0.5 0
0.3 0.5 0
0.33333333 0.5 0
0.36666667 0.5 0
0.4 0.5 0
0.43333333 0.5 0
0.46666667 0.5 0
0.5 0.5 0
0.53333333 0.5 0
0.56666667 0.5 0
0.6 0.5 0
0.63333333 0.5 0
0.66666667 0.5 0
0.7 0.5 0
0.73333333 0.5 0
0.76666667 0.5 0
0.8 0.5 0
0.83333333 0.5 0
0.86666667 0.5 0
0.9 0.5 0
0.93333333 0.5 0
0.96666667 0.5 0
1 0.5 0
0 0.53333333 0
0.033333333 0.53333333 0
0.066666667 0.53333333 0
0.1 0.53333333 0
0.13333333 0.53333333 0
0.16666667 0.53333333 0
0.2 0.53333333 0
0.23333333 0.53333333 0
0.26666667 0.53333333 0
0.3 0.53333333 0
0.33333333 0.53333333 0
0.36666667 0.53333333 0
0.4 0.53333333 0
0.43333333 0.53333333 0
0.46666667 0.53333333 0
0.5 0.53333333 0
0.53333333 0.53333333 0
0.56666667 0.53333333 0
0.6 0.53333333 0
0.63333333 0.53333333 0
0.66666667 0.53333333 0
0.7 0.53333333 0
0.73333333 0.53333333 0
0.76666667 0.53333333 0
0.8 0.53333333 0
[...]
CELL_DATA 1920
Scalars  Label int 1
LOOKUP_TABLE FreeFempp_table
0
0
0
0
0
0
0
0
0
0
0
0
0
0
0
0
0
0
0
0
0
0
0
0
0
0
0
0
0
0
0
0
0
0
0
0
0
0
0
0
0
0
0
0
0
0
0
0
0
0
0
0
0
0
0
0
0
0
0
0
0
0
0
0
0
0
0
0
0
0
0
0
0
0
0
0
0
0
0
0
0
0
0
0
0
0
0
0
0
0
0
0
0
0
0
0
0
0
0
0
0
0
0
0
0
0
0
0
0
0
0
0
0
0
0
0
0
0
0
0
0
0
0
0
0
0
0
0
0
0
0
0
0
0
0
0
0
0
0
0
0
0
0
0
0
0
0
0
0
0
0
0
0
0
0
0
0
0
0
0
0
0
0
0
0
0
0
0
0
0
0
0
0
0
0
0
0
0
0
0
0
0
0
0
0
0
0
0
0
0
0
0
0
0
0
0
0
0
0
0
0
0
0
0
0
0
0
0
0
0
0
0
0
0
0
0
0
0
0
0
0
0
0
0
0
0
0
0
0
0
0
0
0
0
0
0
0
0
0
0
0
0
0
0
0
0
0
0
0
0
0
0
0
0
0
0
0
0
0
0
0
0
0
0
0
0
0
0
0
0
0
0
0
0
0
0
0
0
0
0
0
0
0
0
0
0
0
0
0
0
0
0
0
0
0
0
0
0
0
0
0
0
0
0
0
0
0
0
0
0
0
0
0
0
0
0
0
0
0
0
0
0
0
0
0
0
0
0
0
0
0
0
0
0
0
0
0
0
0
0
0
0
0
0
0
0
0
0
0
0
0
0
0
0
0
0
0
0
0
0
0
0
0
0
0
0
0
0
0
0
0
0
0
0
0
0
0
0
0
0
0
0
0
0
0
0
0
0
0
0
0
0
0
0
0
0
0
0
0
0
0
0
0
0
0
0
0
0
0
0
0
0
0
0
0
0
0
0
0
0
0
0
0
0
0
0
0
0
0
0
0
0
0
0
0
0
0
0
0
0
0
0
0
0
0
0
0
0
0
0
0
0
0
0
0
0
0
0
0
0
0
0
0
0
0
0
0
0
0
0
0
0
0
0
0
0
0
0
0
0
0
0
0
0
0
0
0
0
0
0
0
0
0
0
0
0
0
0
0
0
0
0
0
0
0
0
0
0
0
0
0
0
0
0
0
0
0
0
0
0
0
0
0
0
0
0
0
0
0
0
0
0
0
0
0
0
0
0
0
0
0
0
0
0
0
0
0
0
0
0
0
0
0
0
0
0
0
0
0
0
0
0
0
0
0
0
0
0
0
0
0
0
0
0
0
0
0
0
0
0
0
0
0
0
0
0
0
0
0
0
0
0
0
0
0
0
0
0
0
0
0
0
0
0
0
0
0
0
0
0
0
0
0
0
0
0
0
0
0
0
0
0
0
0
0
0
0
0
0
0
0
0
0
0
0
0
0
0
0
0
0
0
0
0
0
0
0
0
0
0
0
0
0
0
0
0
0
0
0
0
0
0
0
0
0
0
0
0
0
0
0
0
0
0
0
0
0
0
0
0
0
0
0
0
0
0
0
0
0
0
0
0
0
0
0
0
0
0
0
0
0
0
0
0
0
0
0
0
0
0
0
0
0
0
0
0
0
0
0
0
0
0
0
0
0
0
0
0
0
0
0
0
0
0
0
0
0
0
0
0
0
0
0
0
0
0
0
0
0
0
0
0
0
0
0
0
0
0
0
0
0
0
0
0
0
0
0
0
0
0
0
0
0
0
0
0
0
0
0
0
0
0
0
0
0
0
0
0
0
0
0
0
0
0
0
0
0
0
0
0
0
0
0
0
0
0
0
0
0
0
0
0
0
0
0
0
0
0
0
0
0
0
0
0
0
0
0
0
0
0
0
0
0
0
0
0
0
0
0
0
0
0
0
0
0
0
0
0
0
0
0
0
0
0
0
0
0
0
0
0
0
0
0
0
0
0
0
0
0
0
0
0
0
0
0
0
0
0
0
0
0
0
0
0
0
0
0
0
0
0
0
0
0
0
0
0
0
0
0
0
0
0
0
0
0
0
0
0
0
0
0
0
0
0
0
0
0
0
0
0
0
0
0
0
0
0
0
0
0
0
0
0
0
0
0
0
0
0
0
0
0
0
0
0
0
0
0
0
0
0
0
0
0
0
0
0
0
0
0
0
0
0
0
0
0
0
0
0
0
0
0
0
0
0
0
0
0
0
0
0
0
0
0
0
0
0
0
0
0
0
0
0
0
0
0
0
0
0
0
0
0
0
0
0
0
0
0
0
0
0
0
0
0
0
0
0
0
0
0
0
0
0
0
0
0
0
0
0
0
0
0
0
0
0
0
0
0
0
0
0
0
0
0
0
0
0
0
0
0
0
0
0
0
0
0
0
0
0
0
0
0
0
0
0
0
0
0
0
0
0
0
0
0
0
0
0
0
0
0
0
0
0
0
0
0
0
0
0
0
0
0
0
0
0
0
0
0
0
0
0
0
0
0
0
0
0
0
0
0
0
0
0
0
0
0
0
0
0
0
0
0
0
0
0
0
0
0
0
0
0
0
0
0
0
0
0
0
0
0
0
0
0
0
0
0
0
0
0
0
0
0
0
0
0
0
0
0
0
0
0
0
0
0
0
0
0
0
0
0
0
0
0
0
0
0
0
0
0
0
0
0
0
0
0
0
0
0
0
0
0
0
0
0
0
0
0
0
0
0
0
0
0
0
0
0
0
0
0
0
0
0
0
0
0
0
0
0
0
0
0
0
0
0
0
0
0
0
0
0
0
0
0
0
0
0
0
0
0
0
0
0
0
0
0
0
0
0
0
0
0
0
0
0
0
0
0
0
0
0
0
0
0
0
0
0
0
0
0
0
0
0
0
0
0
0
0
0
0
0
0
0
0
0
0
0
0
0
0
0
0
0
0
0
0
0
0
0
0
0
0
0
0
0
0
0
0
0
0
0
0
0
0
0
0
0
0
0
0
0
0
0
0
0
0
0
0
0
0
0
0
0
0
0
0
0
0
0
0
0
0
0
0
0
0
0
0
0
0
0
0
0
0
0
0
0
0
0
0
0
0
0
0
0
0
0
0
0
0
0
0
0
0
0
0
0
0
0
0
0
0
0
0
0
0
0
0
0
0
0
0
0
0
0
0
0
0
0
0
0
0
0
0
0
0
0
0
0
0
0
0
0
0
0
0
0
0
0
0
0
0
0
0
0
0
0
0
0
0
0
0
0
0
0
0
0
0
0
0
0
0
0
0
0
0
0
0
0
0
0
0
0
0
0
0
0
0
0
0
0
0
0
0
0
0
0
0
0
0
0
0
0
0
0
0
0
0
0
0
0
0
0
0
0
0
0
0
0
0
0
0
0
0
0
0
0
0
0
0
0
0
0
0
0
0
0
0
0
0
0
0
0
0
0
0
0
0
0
0
0
0
0
0
0
0
0
0
0
0
0
0
0
0
0
0
0
0
0
0
0
0
0
0
0
0
0
0
0
0
0
0
0
0
0
0
0
0
0
0
0
0
0
0
0
0
0
0
0
0
0
0
0
0
0
0
0
0
0
0
0
0
0
0
0
0
0
0
0
0
0
0
0
0
0
0
0
0
0
0
0
0
0
0
0
0
0
0
0
0
0
0
0
0
0
0
0
0
0
0
0
0
0
0
0
0
0
0
0
0
0
0
0
0
0
0
0
0
0
0
0
0
0
0
0
0
0
0
0
0
0
0
0
0
0
0
0
0
0
0
0
0
0
0
0
0
0
0
0
0
0
0
0
0
0
0
0
0
0
0
0
0
0
0
0
0
0
0
0
0
0
0
0
0
0
0
0
0
0
0
0
0
0
0
0
0
0
0
0
0
0
0
0
0
0
0
0
0
0
0
0
0
0
0
0
0
0
0
0
0
0
0
0
0
0
0
0
0
0
0
0
0
0
0
0
0
0
0
0
0
0
0
0
0
0
0
0
0
0
0
0
0
0
0
0
0
0
0
0
0
0
0
0
0
0
0
0
0
0
0
0
0
0
0
0
0
0
0
0
0
0
0
0
0
0
0
0
0
0
0
0
0
1
1
1
1
1
1
1
1
1
1
1
1
1
1
1
1
1
1
1
1
1
1
1
1
1
1
1
1
1
1
2
2
2
2
2
2
2
2
2
2
2
2
2
2
2
2
2
2
2
2
2
2
2
2
2
2
2
2
2
2
3
3
3
3
3
3
3
3
3
3
3
3
3
3
3
3
3
3
3
3
3
3
3
3
3
3
3
3
3
3
4
4
4
4
4
4
4
4
4
4
4
4
4
4
4
4
4
4
4
4
4
4
4
4
4
4
4
4
4
4

LOOKUP_TABLE FreeFempp_table 5
1.00000000 0.00000000 0.00000000 1.00000000
1.00000000 1.00000000 0.00000000 1.00000000
1.00000000 0.00000000 1.00000000 1.00000000
0.00000000 1.00000000 0.00000000 1.00000000
0.00000000 1.00000000 1.00000000 1.00000000

POINT_DATA 961
FIELD FieldData 1
Density 1 961 float
4.29446191e-01 4.01438802e-01 3.72628152e-01 3.46089542e-01 3.27611715e-01 3.12315285e-01 2.89197028e-01 2.51233101e-01 2.05843210e-01 1.65127710e-01 1.31821528e-01 1.08904183e-01 1.21778645e-01 2.08774537e-01 5.10982573e-01 6.57016158e-01 5.46157479e-01 6.31156087e-01 6.14069402e-01 5.95330238e-01 5.78149915e-01 5.78824997e-01 5.77567160e-01 5.77014923e-01 5.78058958e-01 5.80579996e-01 5.85059345e-01 5.92482567e-01 6.10340297e-01 5.85658431e-01 5.62335551e-01 5.82128465e-01 2.98150778e-01 2.12849259e-01 1.63980559e-01 1.35159507e-01 1.17801294e-01 1.06275618e-01 9.59311277e-02 8.58098119e-02 7.66044185e-02 6.93816245e-02 6.63362443e-02 7.44312108e-02 1.18965819e-01 3.71990025e-01 8.88856351e-01 9.28978845e-02 8.70754197e-02 6.42443597e-01 6.26215458e-01 6.35154843e-01 6.00366592e-01 5.86923540e-01 5.84271431e-01 5.81574202e-01 5.79651237e-01 5.73061526e-01 5.61669886e-01 5.61899304e-01 5.31438351e-01 5.50267220e-01 5.38684614e-03 6.43595681e-03 1.19157173e-02 1.77031923e-02 1.95978023e-02 1.86714716e-02 1.72200166e-02 1.61062777e-02 1.54423574e-02 1.53525220e-02 1.63050108e-02 1.93229038e-02 2.70654447e-02 4.89089116e-02 1.55930310e-01 6.23521030e-01 1.94547236e-01 4.42254953e-02 2.97656748e-02 3.32239866e-02 1.40822753e-01 5.43230534e-01 5.71882665e-01 5.02944052e-01 4.80428427e-01 4.84380007e-01 4.67032105e-01 4.53135729e-01 4.59106952e-01 4.57382172e-01 4.78887022e-01 6.49344176e-03 3.99354054e-03 5.26039442e-03 6.09052414e-03 6.56150188e-03 7.02296942e-03 7.43606407e-03 7.70025328e-03 7.79750152e-03 7.68686365e-03 7.25210924e-03 6.50529284e-03 5.95805375e-03 6.55540591e-03 1.00325067e-02 9.11992490e-02 9.14976358e-01 6.87742352e-01 5.58083020e-02 1.88021082e-02 1.45552922e-02 1.53529849e-02 1.30367115e-01 4.48103219e-01 3.43206525e-01 2.76805341e-01 3.98524821e-01 4.01439279e-01 3.88609380e-01 3.82484108e-01 4.08377498e-01 1.47943079e-01 2.76641529e-02 1.17494566e-02 8.25708173e-03 7.30496366e-03 7.40033435e-03 7.92014878e-03 8.56275298e-03 9.10235476e-03 9.38339997e-03 9.18758195e-03 8.27800203e-03 6.88070245e-03 5.44544542e-03 4.20111185e-03 4.38343314e-03 7.32067088e-03 9.30571616e-01 9.19195354e-01 6.88587844e-01 3.60286646e-02 1.02065243e-02 8.55231006e-03 1.04284538e-02 4.95566994e-01 3.62861633e-01 3.42920452e-01 3.20068061e-01 3.12464237e-01 3.05417806e-01 3.30327719e-01 3.71554673e-01 2.99787194e-01 2.04913363e-01 1.23677634e-01 8.78270194e-02 7.20468685e-02 6.54086620e-02 6.32879436e-02 6.32128119e-02 6.35617748e-02 6.37620538e-02 6.22257330e-02 5.54400012e-02 3.74653228e-02 1.35841705e-02 5.03828377e-03 3.77841596e-03 4.06489009e-03 6.56764442e-03 8.53868544e-01 5.45066774e-01 2.95508713e-01 1.29804704e-02 6.87427307e-03 6.33854652e-03 5.46615899e-01 3.18823814e-01 2.61489540e-01 2.34762222e-01 2.20351160e-01 2.65403807e-01 4.65904117e-01 4.22010034e-01 3.95496488e-01 3.54145706e-01 3.15232098e-01 2.86565661e-01 2.69052148e-01 2.59585321e-01 2.53952414e-01 2.49355212e-01 2.45589584e-01 2.45291263e-01 2.50353426e-01 2.60693997e-01 2.62025118e-01 1.92355260e-01 2.65215710e-02 5.63709391e-03 4.25975770e-03 4.77784500e-03 7.59129465e-01 7.61272371e-01 7.53241897e-01 7.00100243e-01 5.94856683e-03 5.91656659e-03 5.27006853e-03 1.10213086e-01 1.50657758e-01 1.59718454e-01 2.19887435e-01 5.76819837e-01 5.40718973e-01 5.41079581e-01 5.13671160e-01 4.87885654e-01 4.67455834e-01 4.53251958e-01 4.43842649e-01 4.37582999e-01 4.33034480e-01 4.28896815e-01 4.24561948e-01 4.20778990e-01 4.17714447e-01 4.14015800e-01 4.05730218e-01 3.84858012e-01 3.31825793e-01 1.87196061e-01 4.83413553e-03 3.94966500e-03 6.32901549e-01 5.64498425e-01 7.19771504e-01 8.48842025e-01 7.79363187e-03 5.06337406e-03 5.86796040e-03 6.05361015e-02 1.16772190e-01 1.80508643e-01 6.04480982e-01 6.33530855e-01 6.36926651e-01 6.38641596e-01 6.40015125e-01 6.36589408e-01 6.28719449e-01 6.18552089e-01 6.08127952e-01 5.98246336e-01 5.88351607e-01 5.77953517e-01 5.67563534e-01 5.55938005e-01 5.40983438e-01 5.23532212e-01 4.95722651e-01 4.49510723e-01 4.03969735e-01 2.87602276e-01 1.37351267e-03 4.29855287e-03 2.03116294e-02 4.88666184e-02 2.09349826e-01 9.38555598e-01 5.62529489e-02 6.27945596e-03 4.67866333e-03 5.62056117e-02 1.49629846e-01 5.94033241e-01 6.44964278e-01 6.37092113e-01 6.35881722e-01 6.41076267e-01 6.47636831e-01 6.52669191e-01 6.54868543e-01 6.54201329e-01 6.51388586e-01 6.47161245e-01 6.41694844e-01 6.34776890e-01 6.26490593e-01 6.17311358e-01 6.07420683e-01 5.97118914e-01 5.86287320e-01 5.74478745e-01 5.63754320e-01 5.50968528e-01 2.38896925e-02 1.20909680e-02 1.68657769e-02 2.24546250e-02 4.25898246e-02 9.28596556e-01 1.31922945e-01 4.98558115e-03 7.17068650e-03 9.73465294e-02 5.77792048e-01 5.96643329e-01 5.80917776e-01 5.83964050e-01 5.93036890e-01 6.03845656e-01 6.14063323e-01 6.22594833e-01 6.29259646e-01 6.34354949e-01 6.38345003e-01 6.41394496e-01 6.42967641e-01 6.42077506e-01 6.38235748e-01 6.32684946e-01 6.29181027e-01 6.30113006e-01 6.35442555e-01 6.41852438e-01 6.27782762e-01 6.05093360e-01 6.78914785e-02 3.19348536e-02 2.22676229e-02 2.16369610e-02 4.34652269e-02 8.96854758e-01 9.58274398e-03 7.62840966e-03 5.98994419e-02 5.69733024e-01 5.51454246e-01 4.48784232e-01 4.23977107e-01 4.32859480e-01 4.48045552e-01 4.65165645e-01 4.81625766e-01 4.95868951e-01 5.07749796e-01 5.18530965e-01 5.30216396e-01 5.44280708e-01 5.61208487e-01 5.81280887e-01 6.03354454e-01 6.23800278e-01 6.35776341e-01 6.34249806e-01 6.49453461e-01 6.65459156e-01 6.44472480e-01 6.33180261e-01 6.17052913e-01 5.20632863e-01 8.85471478e-02 3.97753827e-02 7.86229432e-01 1.42395487e-02 8.72066710e-03 3.36784981e-02 5.64961433e-01 4.35775131e-01 3.82057935e-01 3.74161303e-01 3.79145682e-01 3.93933952e-01 4.18663859e-01 4.42521602e-01 4.58307445e-01 4.66107428e-01 4.67849821e-01 4.65807378e-01 4.62695330e-01 4.59284246e-01 4.55274105e-01 4.52080011e-01 4.51788545e-01 4.59660500e-01 4.92978722e-01 5.62690258e-01 6.17432535e-01 6.26952469e-01 6.32425070e-01 6.51030004e-01 6.47028625e-01 5.89640021e-01 9.10621732e-02 8.91074061e-01 1.69673990e-02 1.20247146e-02 2.62237471e-02 5.79501808e-01 4.15994793e-01 3.84382725e-01 3.82512242e-01 3.87369156e-01 3.95167440e-01 4.05895382e-01 4.16172922e-01 4.11841244e-01 4.23233986e-01 4.37406927e-01 4.44992453e-01 4.44472283e-01 4.38642770e-01 4.27078068e-01 4.12676305e-01 4.00553942e-01 3.94150138e-01 3.95764142e-01 4.16178018e-01 4.52111632e-01 4.90969926e-01 5.22800148e-01 5.46589017e-01 5.94092250e-01 6.58309579e-01 6.67182326e-01 8.43543947e-01 2.02064719e-02 1.53535707e-02 2.48440318e-02 5.93051553e-01 3.81718218e-01 3.76025677e-01 3.71105939e-01 3.74871641e-01 3.82287025e-01 3.93476695e-01 4.08994883e-01 4.27714288e-01 4.47644442e-01 4.45804298e-01 4.47727442e-01 4.43845928e-01 4.33727086e-01 4.21677262e-01 4.18544054e-01 4.19280946e-01 4.10419881e-01 4.03511763e-01 3.97426814e-01 3.81548136e-01 4.17490959e-01 4.61393237e-01 5.53530037e-01 6.46013498e-01 6.86130702e-01 7.42358923e-01 7.36450672e-01 2.24262718e-02 1.81305017e-02 2.63478234e-02 5.99773228e-01 3.87606740e-01 3.60574216e-01 3.56582195e-01 3.59368831e-01 3.67807239e-01 3.80223572e-01 3.96678954e-01 4.17233318e-01 4.40377086e-01 4.46730673e-01 4.45949316e-01 4.46919262e-01 4.35064614e-01 4.20510978e-01 4.25373852e-01 4.10961658e-01 3.99649262e-01 3.90303195e-01 3.92737418e-01 4.04159844e-01 4.21694607e-01 5.40311396e-01 6.58985853e-01 6.87243879e-01 7.36280680e-01 7.56775498e-01 1.72955081e-01 1.85668673e-02 1.80819109e-02 3.21407579e-02 6.29387975e-01 3.68325412e-01 3.29864353e-01 3.31659764e-01 3.38192284e-01 3.50276530e-01 3.66760105e-01 3.86791110e-01 4.10442948e-01 4.34863150e-01 4.30422336e-01 4.53181773e-01 4.65921402e-01 4.46561694e-01 4.15217400e-01 4.17523295e-01 3.99230063e-01 3.76724005e-01 3.74879479e-01 3.96982998e-01 4.20107931e-01 5.69356561e-01 6.98303759e-01 6.93163574e-01 7.24218607e-01 7.42294729e-01 2.18874559e-01 5.72152957e-02 1.70070659e-02 1.71227753e-02 4.86015566e-02 6.51554108e-01 3.38446200e-01 2.81455457e-01 2.89901257e-01 3.05299014e-01 3.25569719e-01 3.50370318e-01 3.77465814e-01 4.04497653e-01 4.19812381e-01 4.37797099e-01 4.86661553e-01 5.02917230e-01 4.69211787e-01 4.08738643e-01 3.99640411e-01 3.78597885e-01 3.64220381e-01 3.69031698e-01 4.06361789e-01 6.25133514e-01 7.48326302e-01 7.10707843e-01 6.94615483e-01 6.93730593e-01 2.20813453e-01 6.62804544e-02 3.20569910e-02 2.16574427e-02 2.29185130e-02 9.16015431e-02 6.62657738e-01 3.00427109e-01 2.20755652e-01 2.32461691e-01 2.57765263e-01 2.89602816e-01 3.26436698e-01 3.64162445e-01 3.97459269e-01 4.08693373e-01 4.78201061e-01 5.16856372e-01 5.29894412e-01 4.88477588e-01 4.01823550e-01 3.82287562e-01 3.70466173e-01 3.81438047e-01 4.40218478e-01 6.79952800e-01 7.67111421e-01 7.23690391e-01 6.48733199e-01 6.02816761e-01 1.44630238e-01 5.71192540e-02 3.51496562e-02 2.83712316e-02 3.13812979e-02 4.94229086e-02 1.50646940e-01 6.66795552e-01 2.62869328e-01 1.64358452e-01 1.71117559e-01 2.00230807e-01 2.41791964e-01 2.90490657e-01 3.42267185e-01 3.74248266e-01 4.54763681e-01 5.10252595e-01 5.29554844e-01 5.35514235e-01 4.88751918e-01 4.02330726e-01 3.63883466e-01 3.98911119e-01 4.91724789e-01 7.41315365e-01 7.45768309e-01 6.08299732e-01 4.15333867e-01 2.82440901e-01 9.51371640e-02 4.66144159e-02 3.54724415e-02 3.11607346e-02 3.65596004e-02 5.67857809e-02 1.14082642e-01 2.33001098e-01 6.61632836e-01 2.44692221e-01 1.26355320e-01 1.22515023e-01 1.46549761e-01 1.86427057e-01 2.43450642e-01 3.16554755e-01 4.01119113e-01 5.02158344e-01 5.31856656e-01 5.34814894e-01 5.29001236e-01 4.92758751e-01 4.36247319e-01 4.25402492e-01 5.22139847e-01 7.16692328e-01 7.32168913e-01 6.59673393e-01 9.50112566e-02 9.39622223e-02 5.33514805e-02 4.82836589e-02 4.54875119e-02 4.01625931e-02 4.56326716e-02 7.86191672e-02 1.67243630e-01 2.71573544e-01 3.56577486e-01 6.45393729e-01 2.65790254e-01 1.09453216e-01 9.12815630e-02 1.08308129e-01 1.41231999e-01 2.00697437e-01 2.99158901e-01 4.60864007e-01 5.42933762e-01 5.49209118e-01 5.36934137e-01 5.30156553e-01 5.01864493e-01 4.73828852e-01 4.97885048e-01 6.29917204e-01 6.88093185e-01 6.86921775e-01 6.32769048e-01 4.13365036e-01 1.64965749e-01 6.39790893e-02 4.93263304e-02 5.49797714e-02 8.35734457e-02 2.29669869e-01 6.13314986e-01 6.26640439e-01 6.45121038e-01 5.98042071e-01 6.22296333e-01 3.20908576e-01 1.08625807e-01 7.10780770e-02 8.12051296e-02 1.14338502e-01 1.82908058e-01 3.45908701e-01 5.27204514e-01 5.76086521e-01 5.54551542e-01 5.39606273e-01 5.35466254e-01 5.18452704e-01 5.07561684e-01 5.90962827e-01 6.48169518e-01 6.59679532e-01 6.52544796e-01 6.26286209e-01 5.56120753e-01 4.07887578e-01 3.86149973e-01 4.95464563e-01 6.78960025e-01 6.85990334e-01 7.10181415e-01 6.84553981e-01 6.58866405e-01 6.52040958e-01 6.44259691e-01 6.01514876e-01 3.75328004e-01 1.16262659e-01 5.59132509e-02 6.51436374e-02 9.92153138e-02 1.99607372e-01 4.30947006e-01 5.93309820e-01 5.84584296e-01 5.51767647e-01 5.47356904e-01 5.48162997e-01 5.34489274e-01 5.34731030e-01 6.05008185e-01 6.34456813e-01 6.40145421e-01 6.35525227e-01 6.27186775e-01 6.17584586e-01 6.35770559e-01 6.78552568e-01 7.46874630e-01 7.08919287e-01 6.77110612e-01 6.65251493e-01 6.55740499e-01 6.43384397e-01 6.39262319e-01 6.37901247e-01 5.89725256e-01 4.07173216e-01 1.20407104e-01 4.25194092e-02 5.27169071e-02 1.00946628e-01 2.55568266e-01 5.42371333e-01 6.19113803e-01 5.75182080e-01 5.53515911e-01 5.63515961e-01 5.68364322e-01 5.48859596e-01 5.46531916e-01 6.01069629e-01 6.03608727e-01 6.42418861e-01 6.37825012e-01 6.31931782e-01 6.45188570e-01 6.40534878e-01 6.38681531e-01 6.60751522e-01 6.57375991e-01 6.51119351e-01 6.27012193e-01 6.01549149e-01 6.05675876e-01 6.30389154e-01 5.90520263e-01 5.86551905e-01 4.22095418e-01 1.12643644e-01 3.31261456e-02 4.18896042e-02 1.24831192e-01 3.51043552e-01 6.26822710e-01 6.10833824e-01 5.65579236e-01 5.60602963e-01 5.79108417e-01 5.83912373e-01 5.59426844e-01 5.46061397e-01 5.84000826e-01 5.94753087e-01 5.93011916e-01 6.08629048e-01 6.09235287e-01 5.90833843e-01 5.86182594e-01 5.81004739e-01 5.71089625e-01 5.85092485e-01 5.50826013e-01 5.44960558e-01 5.64798594e-01 5.84449708e-01 5.85087061e-01 5.77242792e-01 5.75278401e-01 4.33471322e-01 1.01414755e-01 2.65839808e-02 3.33411880e-02 1.83641508e-01 4.98955458e-01 6.55691981e-01 5.88149130e-01 5.49387336e-01 5.55874646e-01 5.77656329e-01 5.81721067e-01 5.56337178e-01 5.34715056e-01 5.51531374e-01 5.74928403e-01 5.79455018e-01 5.72677135e-01 5.67925394e-01 5.64346194e-01 5.32760978e-01 4.66713309e-01 4.68490303e-01 5.67502141e-01 5.33858299e-01 4.87189204e-01 4.89066005e-01 5.10662079e-01 5.28841615e-01 5.52227139e-01 5.26874542e-01 4.45930123e-01 1.06712550e-01 2.11131461e-02 2.73881424e-02 2.63046145e-01 6.17545843e-01 6.39143527e-01 5.55014789e-01 5.24607956e-01 5.36529958e-01 5.60277045e-01 5.69184124e-01 5.47706306e-01 5.18593550e-01 5.12716234e-01 5.20215929e-01 5.29573202e-01 5.33967137e-01 5.28975248e-01 5.09389460e-01 4.67913717e-01 4.10040587e-01 4.09073472e-01 6.08405471e-01 5.92263103e-01 4.93611932e-01 4.44077075e-01 4.59746838e-01 4.56267864e-01 5.14145613e-01 4.62109864e-01 4.43480253e-01 1.27031177e-01 1.72345806e-02 2.18047891e-02 3.79790157e-01 8.26400161e-01 6.64061427e-01 6.00400686e-01 5.80738306e-01 5.87395012e-01 5.96303403e-01 5.91468036e-01 5.57782292e-01 5.08894086e-01 4.83083636e-01 4.77260709e-01 4.77197558e-01 4.74854052e-01 4.64072257e-01 4.41110015e-01 4.13250268e-01 4.34924453e-01 3.88333231e-01 5.33108413e-01 6.42068923e-01 5.26220381e-01 5.05636454e-01 5.38367987e-01 4.50978935e-01 4.79953468e-01 5.20097673e-01 4.39198434e-01 2.36034200e-01 1.28416866e-02 1.69087071e-02 4.40630943e-01 6.52892053e-01 5.31944156e-01 4.83464718e-01 4.92915452e-01 5.06538212e-01 5.28627455e-01 5.53298593e-01 5.54643512e-01 5.15441954e-01 4.87458140e-01 4.87987459e-01 4.87068564e-01 4.69693482e-01 4.34233963e-01 3.91311079e-01 3.43526661e-01 3.30914646e-01 4.30489779e-01 4.13820267e-01 4.75942373e-01 4.85372812e-01 5.15262425e-01 5.61504543e-01 5.04109919e-01 4.61635381e-01 5.73323548e-01 5.70784211e-01 5.27649283e-01 2.11654082e-02 1.62571985e-02 5.87718189e-01 4.61982250e-01 4.36278850e-01 4.12964642e-01 4.16880041e-01 4.38386410e-01 4.72218692e-01 5.09839237e-01 5.35344779e-01 5.40373743e-01 5.47510922e-01 5.53889334e-01 5.51065087e-01 5.35695016e-01 5.00867724e-01 4.39658403e-01 3.48641366e-01 1.84953153e-01 2.72969306e-01 5.43510377e-01 5.21326244e-01 5.53474426e-01 6.35969102e-01 6.42274916e-01 5.93869030e-01 4.49437469e-01 
