# vtk DataFile Version 2.0
results/iter8.vtk, Created by Freefem++ 
ASCII
DATASET UNSTRUCTURED_GRID
POINTS 961 float
0 0 0
0.033333333 0 0
0.066666667 0 0
0.1 0 0
0.13333333 0 0
0.16666667 0 0
0.2 0 0
0.23333333 0 0
0.26666667 0 0
0.3 0 0
0.33333333 0 0
0.36666667 0 0
0.4 0 0
0.43333333 0 0
0.46666667 0 0
0.5 0 0
0.53333333 0 0
0.56666667 0 0
0.6 0 0
0.63333333 0 0
0.66666667 0 0
0.7 0 0
0.73333333 0 0
0.76666667 0 0
0.8 0 0
0.83333333 0 0
0.86666667 0 0
0.9 0 0
0.93333333 0 0
0.96666667 0 0
1 0 0
0 0.033333333 0
0.033333333 0.033333333 0
0.066666667 0.033333333 0
0.1 0.033333333 0
0.13333333 0.033333333 0
0.16666667 0.033333333 0
0.2 0.033333333 0
0.23333333 0.033333333 0
0.26666667 0.033333333 0
0.3 0.033333333 0
0.33333333 0.033333333 0
0.36666667 0.033333333 0
0.4 0.033333333 0
0.43333333 0.033333333 0
0.46666667 0.033333333 0
0.5 0.033333333 0
0.53333333 0.033333333 0
0.56666667 0.033333333 0
0.6 0.033333333 0
0.63333333 0.033333333 0
0.66666667 0.033333333 0
0.7 0.033333333 0
0.73333333 0.033333333 0
0.76666667 0.033333333 0
0.8 0.033333333 0
0.83333333 0.033333333 0
0.86666667 0.033333333 0
0.9 0.033333333 0
0.93333333 0.033333333 0
0.96666667 0.033333333 0
1 0.033333333 0
0 0.066666667 0
0.033333333 0.066666667 0
0.066666667 0.066666667 0
0.1 0.066666667 0
0.13333333 0.066666667 0
0.16666667 0.066666667 0
0.2 0.066666667 0
0.23333333 0.066666667 0
0.26666667 0.066666667 0
0.3 0.066666667 0
0.33333333 0.066666667 0
0.36666667 0.066666667 0
0.4 0.066666667 0
0.43333333 0.066666667 0
0.46666667 0.066666667 0
0.5 0.066666667 0
0.53333333 0.066666667 0
0.56666667 0.066666667 0
0.6 0.066666667 0
0.63333333 0.066666667 0
0.66666667 0.066666667 0
0.7 0.066666667 0
0.73333333 0.066666667 0
0.76666667 0.066666667 0
0.8 0.066666667 0
0.83333333 0.066666667 0
0.86666667 0.066666667 0
0.9 0.066666667 0
0.93333333 0.066666667 0
0.96666667 0.066666667 0
1 0.066666667 0
0 0.1 0
0.033333333 0.1 0
0.066666667 0.1 0
0.1 0.1 0
0.13333333 0.1 0
0.16666667 0.1 0
0.2 0.1 0
0.23333333 0.1 0
0.26666667 0.1 0
0.3 0.1 0
0.33333333 0.1 0
0.36666667 0.1 0
0.4 0.1 0
0.43333333 0.1 0
0.46666667 0.1 0
0.5 0.1 0
0.53333333 0.1 0
0.56666667 0.1 0
0.6 0.1 0
0.63333333 0.1 0
0.66666667 0.1 0
0.7 0.1 0
0.73333333 0.1 0
0.76666667 0.1 0
0.8 0.1 0
0.83333333 0.1 0
0.86666667 0.1 0
0.9 0.1 0
0.93333333 0.1 0
0.96666667 0.1 0
1 0.1 0
0 0.13333333 0
0.033333333 0.13333333 0
0.066666667 0.13333333 0
0.1 0.13333333 0
0.13333333 0.13333333 0
0.16666667 0.13333333 0
0.2 0.13333333 0
0.23333333 0.13333333 0
0.26666667 0.13333333 0
0.3 0.13333333 0
0.33333333 0.13333333 0
0.36666667 0.13333333 0
0.4 0.13333333 0
0.43333333 0.13333333 0
0.46666667 0.13333333 0
0.5 0.13333333 0
0.53333333 0.13333333 0
0.56666667 0.13333333 0
0.6 0.13333333 0
0.63333333 0.13333333 0
0.66666667 0.13333333 0
0.7 0.13333333 0
0.73333333 0.13333333 0
0.76666667 0.13333333 0
0.8 0.13333333 0
0.83333333 0.13333333 0
0.86666667 0.13333333 0
0.9 0.13333333 0
0.93333333 0.13333333 0
0.96666667 0.13333333 0
1 0.13333333 0
0 0.16666667 0
0.033333333 0.16666667 0
0.066666667 0.16666667 0
0.1 0.16666667 0
0.13333333 0.16666667 0
0.16666667 0.16666667 0
0.2 0.16666667 0
0.23333333 0.16666667 0
0.26666667 0.16666667 0
0.3 0.16666667 0
0.33333333 0.16666667 0
0.36666667 0.16666667 0
0.4 0.16666667 0
0.43333333 0.16666667 0
0.46666667 0.16666667 0
0.5 0.16666667 0
0.53333333 0.16666667 0
0.56666667 0.16666667 0
0.6 0.16666667 0
0.63333333 0.16666667 0
0.66666667 0.16666667 0
0.7 0.16666667 0
0.73333333 0.16666667 0
0.76666667 0.16666667 0
0.8 0.16666667 0
0.83333333 0.16666667 0
0.86666667 0.16666667 0
0.9 0.16666667 0
0.93333333 0.16666667 0
0.96666667 0.16666667 0
1 0.16666667 0
0 0.2 0
0.033333333 0.2 0
0.066666667 0.2 0
0.1 0.2 0
0.13333333 0.2 0
0.16666667 0.2 0
0.2 0.2 0
0.23333333 0.2 0
0.26666667 0.2 0
0.3 0.2 0
0.33333333 0.2 0
0.36666667 0.2 0
0.4 0.2 0
0.43333333 0.2 0
0.46666667 0.2 0
0.5 0.2 0
0.53333333 0.2 0
0.56666667 0.2 0
0.6 0.2 0
0.63333333 0.2 0
0.66666667 0.2 0
0.7 0.2 0
0.73333333 0.2 0
0.76666667 0.2 0
0.8 0.2 0
0.83333333 0.2 0
0.86666667 0.2 0
0.9 0.2 0
0.93333333 0.2 0
0.96666667 0.2 0
1 0.2 0
0 0.23333333 0
0.033333333 0.23333333 0
0.066666667 0.23333333 0
0.1 0.23333333 0
0.13333333 0.23333333 0
0.16666667 0.23333333 0
0.2 0.23333333 0
0.23333333 0.23333333 0
0.26666667 0.23333333 0
0.3 0.23333333 0
0.33333333 0.23333333 0
0.36666667 0.23333333 0
0.4 0.23333333 0
0.43333333 0.23333333 0
0.46666667 0.23333333 0
0.5 0.23333333 0
0.53333333 0.23333333 0
0.56666667 0.23333333 0
0.6 0.23333333 0
0.63333333 0.23333333 0
0.66666667 0.23333333 0
0.7 0.23333333 0
0.73333333 0.23333333 0
0.76666667 0.23333333 0
0.8 0.23333333 0
0.83333333 0.23333333 0
0.86666667 0.23333333 0
0.9 0.23333333 0
0.93333333 0.23333333 0
0.96666667 0.23333333 0
1 0.23333333 0
0 0.26666667 0
0.033333333 0.26666667 0
0.066666667 0.26666667 0
0.1 0.26666667 0
0.13333333 0.26666667 0
0.16666667 0.26666667 0
0.2 0.26666667 0
0.23333333 0.26666667 0
0.26666667 0.26666667 0
0.3 0.26666667 0
0.33333333 0.26666667 0
0.36666667 0.26666667 0
0.4 0.26666667 0
0.43333333 0.26666667 0
0.46666667 0.26666667 0
0.5 0.26666667 0
0.53333333 0.26666667 0
0.56666667 0.26666667 0
0.6 0.26666667 0
0.63333333 0.26666667 0
0.66666667 0.26666667 0
0.7 0.26666667 0
0.73333333 0.26666667 0
0.76666667 0.26666667 0
0.8 0.26666667 0
0.83333333 0.26666667 0
0.86666667 0.26666667 0
0.9 0.26666667 0
0.93333333 0.26666667 0
0.96666667 0.26666667 0
1 0.26666667 0
0 0.3 0
0.033333333 0.3 0
0.066666667 0.3 0
0.1 0.3 0
0.13333333 0.3 0
0.16666667 0.3 0
0.2 0.3 0
0.23333333 0.3 0
0.26666667 0.3 0
0.3 0.3 0
0.33333333 0.3 0
0.36666667 0.3 0
0.4 0.3 0
0.43333333 0.3 0
0.46666667 0.3 0
0.5 0.3 0
0.53333333 0.3 0
0.56666667 0.3 0
0.6 0.3 0
0.63333333 0.3 0
0.66666667 0.3 0
0.7 0.3 0
0.73333333 0.3 0
0.76666667 0.3 0
0.8 0.3 0
0.83333333 0.3 0
0.86666667 0.3 0
0.9 0.3 0
0.93333333 0.3 0
0.96666667 0.3 0
1 0.3 0
0 0.33333333 0
0.033333333 0.33333333 0
0.066666667 0.33333333 0
0.1 0.33333333 0
0.13333333 0.33333333 0
0.16666667 0.33333333 0
0.2 0.33333333 0
0.23333333 0.33333333 0
0.26666667 0.33333333 0
0.3 0.33333333 0
0.33333333 0.33333333 0
0.36666667 0.33333333 0
0.4 0.33333333 0
0.43333333 0.33333333 0
0.46666667 0.33333333 0
0.5 0.33333333 0
0.53333333 0.33333333 0
0.56666667 0.33333333 0
0.6 0.33333333 0
0.63333333 0.33333333 0
0.66666667 0.33333333 0
0.7 0.33333333 0
0.73333333 0.33333333 0
0.76666667 0.33333333 0
0.8 0.33333333 0
0.83333333 0.33333333 0
0.86666667 0.33333333 0
0.9 0.33333333 0
0.93333333 0.33333333 0
0.96666667 0.33333333 0
1 0.33333333 0
0 0.36666667 0
0.033333333 0.36666667 0
0.066666667 0.36666667 0
0.1 0.36666667 0
0.13333333 0.36666667 0
0.16666667 0.36666667 0
0.2 0.36666667 0
0.23333333 0.36666667 0
0.26666667 0.36666667 0
0.3 0.36666667 0
0.33333333 0.36666667 0
0.36666667 0.36666667 0
0.4 0.36666667 0
0.43333333 0.36666667 0
0.46666667 0.36666667 0
0.5 0.36666667 0
0.53333333 0.36666667 0
0.56666667 0.36666667 0
0.6 0.36666667 0
0.63333333 0.36666667 0
0.66666667 0.36666667 0
0.7 0.36666667 0
0.73333333 0.36666667 0
0.76666667 0.36666667 0
0.8 0.36666667 0
0.83333333 0.36666667 0
0.86666667 0.36666667 0
0.9 0.36666667 0
0.93333333 0.36666667 0
0.96666667 0.36666667 0
1 0.36666667 0
0 0.4 0
0.033333333 0.4 0
0.066666667 0.4 0
0.1 0.4 0
0.13333333 0.4 0
0.16666667 0.4 0
0.2 0.4 0
0.23333333 0.4 0
0.26666667 0.4 0
0.3 0.4 0
0.33333333 0.4 0
0.36666667 0.4 0
0.4 0.4 0
0.43333333 0.4 0
0.46666667 0.4 0
0.5 0.4 0
0.53333333 0.4 0
0.56666667 0.4 0
0.6 0.4 0
0.63333333 0.4 0
0.66666667 0.4 0
0.7 0.4 0
0.73333333 0.4 0
0.76666667 0.4 0
0.8 0.4 0
0.83333333 0.4 0
0.86666667 0.4 0
0.9 0.4 0
0.93333333 0.4 0
0.96666667 0.4 0
1 0.4 0
0 0.43333333 0
0.033333333 0.43333333 0
0.066666667 0.43333333 0
0.1 0.43333333 0
0.13333333 0.43333333 0
0.16666667 0.43333333 0
0.2 0.43333333 0
0.23333333 0.43333333 0
0.26666667 0.43333333 0
0.3 0.43333333 0
0.33333333 0.43333333 0
0.36666667 0.43333333 0
0.4 0.43333333 0
0.43333333 0.43333333 0
0.46666667 0.43333333 0
0.5 0.43333333 0
0.53333333 0.43333333 0
0.56666667 0.43333333 0
0.6 0.43333333 0
0.63333333 0.43333333 0
0.66666667 0.43333333 0
0.7 0.43333333 0
0.73333333 0.43333333 0
0.76666667 0.43333333 0
0.8 0.43333333 0
0.83333333 0.43333333 0
0.86666667 0.43333333 0
0.9 0.43333333 0
0.93333333 0.43333333 0
0.96666667 0.43333333 0
1 0.43333333 0
0 0.46666667 0
0.033333333 0.46666667 0
0.066666667 0.46666667 0
0.1 0.46666667 0
0.13333333 0.46666667 0
0.16666667 0.46666667 0
0.2 0.46666667 0
0.23333333 0.46666667 0
0.26666667 0.46666667 0
0.3 0.46666667 0
0.33333333 0.46666667 0
0.36666667 0.46666667 0
0.4 0.46666667 0
0.43333333 0.46666667 0
0.46666667 0.46666667 0
0.5 0.46666667 0
0.53333333 0.46666667 0
0.56666667 0.46666667 0
0.6 0.46666667 0
0.63333333 0.46666667 0
0.66666667 0.46666667 0
0.7 0.46666667 0
0.73333333 0.46666667 0
0.76666667 0.46666667 0
0.8 0.46666667 0
0.83333333 0.46666667 0
0.86666667 0.46666667 0
0.9 0.46666667 0
0.93333333 0.46666667 0
0.96666667 0.46666667 0
1 0.46666667 0
0 0.5 0
0.033333333 0.5 0
0.066666667 0.5 0
0.1 0.5 0
0.13333333 0.5 0
0.16666667 0.5 0
0.2 0.5 0
0.23333333 0.5 0
0.26666667 0.5 0
0.3 0.5 0
0.33333333 0.5 0
0.36666667 0.5 0
0.4 0.5 0
0.43333333 0.5 0
0.46666667 0.5 0
0.5 0.5 0
0.53333333 0.5 0
0.56666667 0.5 0
0.6 0.5 0
0.63333333 0.5 0
0.66666667 0.5 0
0.7 0.5 0
0.73333333 0.5 0
0.76666667 0.5 0
0.8 0.5 0
0.83333333 0.5 0
0.86666667 0.5 0
0.9 0.5 0
0.93333333 0.5 0
0.96666667 0.5 0
1 0.5 0
0 0.53333333 0
0.033333333 0.53333333 0
0.066666667 0.53333333 0
0.1 0.53333333 0
0.13333333 0.53333333 0
0.16666667 0.53333333 0
0.2 0.53333333 0
0.23333333 0.53333333 0
0.26666667 0.53333333 0
0.3 0.53333333 0
0.33333333 0.53333333 0
0.36666667 0.53333333 0
0.4 0.53333333 0
0.43333333 0.53333333 0
0.46666667 0.53333333 0
0.5 0.53333333 0
0.53333333 0.53333333 0
0.56666667 0.53333333 0
0.6 0.53333333 0
0.63333333 0.53333333 0
0.66666667 0.53333333 0
0.7 0.53333333 0
0.73333333 0.53333333 0
0.76666667 0.53333333 0
0.8 0.53333333 0
[...]
CELL_DATA 1920
Scalars  Label int 1
LOOKUP_TABLE FreeFempp_table
0
0
0
0
0
0
0
0
0
0
0
0
0
0
0
0
0
0
0
0
0
0
0
0
0
0
0
0
0
0
0
0
0
0
0
0
0
0
0
0
0
0
0
0
0
0
0
0
0
0
0
0
0
0
0
0
0
0
0
0
0
0
0
0
0
0
0
0
0
0
0
0
0
0
0
0
0
0
0
0
0
0
0
0
0
0
0
0
0
0
0
0
0
0
0
0
0
0
0
0
0
0
0
0
0
0
0
0
0
0
0
0
0
0
0
0
0
0
0
0
0
0
0
0
0
0
0
0
0
0
0
0
0
0
0
0
0
0
0
0
0
0
0
0
0
0
0
0
0
0
0
0
0
0
0
0
0
0
0
0
0
0
0
0
0
0
0
0
0
0
0
0
0
0
0
0
0
0
0
0
0
0
0
0
0
0
0
0
0
0
0
0
0
0
0
0
0
0
0
0
0
0
0
0
0
0
0
0
0
0
0
0
0
0
0
0
0
0
0
0
0
0
0
0
0
0
0
0
0
0
0
0
0
0
0
0
0
0
0
0
0
0
0
0
0
0
0
0
0
0
0
0
0
0
0
0
0
0
0
0
0
0
0
0
0
0
0
0
0
0
0
0
0
0
0
0
0
0
0
0
0
0
0
0
0
0
0
0
0
0
0
0
0
0
0
0
0
0
0
0
0
0
0
0
0
0
0
0
0
0
0
0
0
0
0
0
0
0
0
0
0
0
0
0
0
0
0
0
0
0
0
0
0
0
0
0
0
0
0
0
0
0
0
0
0
0
0
0
0
0
0
0
0
0
0
0
0
0
0
0
0
0
0
0
0
0
0
0
0
0
0
0
0
0
0
0
0
0
0
0
0
0
0
0
0
0
0
0
0
0
0
0
0
0
0
0
0
0
0
0
0
0
0
0
0
0
0
0
0
0
0
0
0
0
0
0
0
0
0
0
0
0
0
0
0
0
0
0
0
0
0
0
0
0
0
0
0
0
0
0
0
0
0
0
0
0
0
0
0
0
0
0
0
0
0
0
0
0
0
0
0
0
0
0
0
0
0
0
0
0
0
0
0
0
0
0
0
0
0
0
0
0
0
0
0
0
0
0
0
0
0
0
0
0
0
0
0
0
0
0
0
0
0
0
0
0
0
0
0
0
0
0
0
0
0
0
0
0
0
0
0
0
0
0
0
0
0
0
0
0
0
0
0
0
0
0
0
0
0
0
0
0
0
0
0
0
0
0
0
0
0
0
0
0
0
0
0
0
0
0
0
0
0
0
0
0
0
0
0
0
0
0
0
0
0
0
0
0
0
0
0
0
0
0
0
0
0
0
0
0
0
0
0
0
0
0
0
0
0
0
0
0
0
0
0
0
0
0
0
0
0
0
0
0
0
0
0
0
0
0
0
0
0
0
0
0
0
0
0
0
0
0
0
0
0
0
0
0
0
0
0
0
0
0
0
0
0
0
0
0
0
0
0
0
0
0
0
0
0
0
0
0
0
0
0
0
0
0
0
0
0
0
0
0
0
0
0
0
0
0
0
0
0
0
0
0
0
0
0
0
0
0
0
0
0
0
0
0
0
0
0
0
0
0
0
0
0
0
0
0
0
0
0
0
0
0
0
0
0
0
0
0
0
0
0
0
0
0
0
0
0
0
0
0
0
0
0
0
0
0
0
0
0
0
0
0
0
0
0
0
0
0
0
0
0
0
0
0
0
0
0
0
0
0
0
0
0
0
0
0
0
0
0
0
0
0
0
0
0
0
0
0
0
0
0
0
0
0
0
0
0
0
0
0
0
0
0
0
0
0
0
0
0
0
0
0
0
0
0
0
0
0
0
0
0
0
0
0
0
0
0
0
0
0
0
0
0
0
0
0
0
0
0
0
0
0
0
0
0
0
0
0
0
0
0
0
0
0
0
0
0
0
0
0
0
0
0
0
0
0
0
0
0
0
0
0
0
0
0
0
0
0
0
0
0
0
0
0
0
0
0
0
0
0
0
0
0
0
0
0
0
0
0
0
0
0
0
0
0
0
0
0
0
0
0
0
0
0
0
0
0
0
0
0
0
0
0
0
0
0
0
0
0
0
0
0
0
0
0
0
0
0
0
0
0
0
0
0
0
0
0
0
0
0
0
0
0
0
0
0
0
0
0
0
0
0
0
0
0
0
0
0
0
0
0
0
0
0
0
0
0
0
0
0
0
0
0
0
0
0
0
0
0
0
0
0
0
0
0
0
0
0
0
0
0
0
0
0
0
0
0
0
0
0
0
0
0
0
0
0
0
0
0
0
0
0
0
0
0
0
0
0
0
0
0
0
0
0
0
0
0
0
0
0
0
0
0
0
0
0
0
0
0
0
0
0
0
0
0
0
0
0
0
0
0
0
0
0
0
0
0
0
0
0
0
0
0
0
0
0
0
0
0
0
0
0
0
0
0
0
0
0
0
0
0
0
0
0
0
0
0
0
0
0
0
0
0
0
0
0
0
0
0
0
0
0
0
0
0
0
0
0
0
0
0
0
0
0
0
0
0
0
0
0
0
0
0
0
0
0
0
0
0
0
0
0
0
0
0
0
0
0
0
0
0
0
0
0
0
0
0
0
0
0
0
0
0
0
0
0
0
0
0
0
0
0
0
0
0
0
0
0
0
0
0
0
0
0
0
0
0
0
0
0
0
0
0
0
0
0
0
0
0
0
0
0
0
0
0
0
0
0
0
0
0
0
0
0
0
0
0
0
0
0
0
0
0
0
0
0
0
0
0
0
0
0
0
0
0
0
0
0
0
0
0
0
0
0
0
0
0
0
0
0
0
0
0
0
0
0
0
0
0
0
0
0
0
0
0
0
0
0
0
0
0
0
0
0
0
0
0
0
0
0
0
0
0
0
0
0
0
0
0
0
0
0
0
0
0
0
0
0
0
0
0
0
0
0
0
0
0
0
0
0
0
0
0
0
0
0
0
0
0
0
0
0
0
0
0
0
0
0
0
0
0
0
0
0
0
0
0
0
0
0
0
0
0
0
0
0
0
0
0
0
0
0
0
0
0
0
0
0
0
0
0
0
0
0
0
0
0
0
0
0
0
0
0
0
0
0
0
0
0
0
0
0
0
0
0
0
0
0
0
0
0
0
0
0
0
0
0
0
0
0
0
0
0
0
0
0
0
0
0
0
0
0
0
0
0
0
0
0
0
0
0
0
0
0
0
0
0
0
0
0
0
0
0
0
0
0
0
0
0
0
0
0
0
0
0
0
0
0
0
0
0
0
0
0
0
0
0
0
0
0
0
0
0
0
0
0
0
0
0
0
0
0
0
0
0
0
0
0
0
0
0
0
0
0
0
0
0
0
0
0
0
0
0
0
0
0
0
0
0
0
0
0
0
0
0
0
0
0
0
0
0
0
0
0
0
0
0
0
0
0
0
0
0
0
0
0
0
0
0
0
0
0
0
0
0
0
0
0
0
0
0
0
0
0
0
0
0
0
0
0
0
0
0
0
0
0
0
0
0
0
0
0
0
0
0
0
0
0
0
0
0
0
0
0
0
0
0
0
0
0
0
0
0
0
0
0
0
0
0
0
0
0
0
0
0
0
0
0
0
0
0
0
0
0
0
0
0
0
0
0
0
0
0
0
0
0
0
0
0
0
0
0
0
0
0
0
0
0
0
0
0
0
0
0
0
0
0
0
0
0
0
0
0
0
0
0
0
0
0
0
0
0
0
0
0
0
0
0
0
0
0
0
0
0
0
0
0
0
0
0
0
0
0
0
0
0
0
0
0
0
0
0
0
0
0
0
0
0
0
0
0
0
0
0
0
0
0
0
0
0
0
0
0
0
0
0
0
0
0
0
0
0
0
0
0
0
0
0
0
0
0
0
0
0
0
0
0
0
0
0
0
0
0
0
0
0
0
0
0
0
0
0
0
0
0
0
0
0
0
0
0
0
0
0
0
0
0
0
0
0
0
0
0
0
0
0
0
0
0
0
0
0
0
0
0
0
0
0
0
0
0
0
0
0
0
0
0
0
0
0
0
0
0
0
0
0
0
0
0
0
0
0
0
0
0
0
1
1
1
1
1
1
1
1
1
1
1
1
1
1
1
1
1
1
1
1
1
1
1
1
1
1
1
1
1
1
2
2
2
2
2
2
2
2
2
2
2
2
2
2
2
2
2
2
2
2
2
2
2
2
2
2
2
2
2
2
3
3
3
3
3
3
3
3
3
3
3
3
3
3
3
3
3
3
3
3
3
3
3
3
3
3
3
3
3
3
4
4
4
4
4
4
4
4
4
4
4
4
4
4
4
4
4
4
4
4
4
4
4
4
4
4
4
4
4
4

LOOKUP_TABLE FreeFempp_table 5
1.00000000 0.00000000 0.00000000 1.00000000
1.00000000 1.00000000 0.00000000 1.00000000
1.00000000 0.00000000 1.00000000 1.00000000
0.00000000 1.00000000 0.00000000 1.00000000
0.00000000 1.00000000 1.00000000 1.00000000

POINT_DATA 961
FIELD FieldData 1
Density 1 961 float
4.29451287e-01 4.01442170e-01 3.72629941e-01 3.46089274e-01 3.27608287e-01 3.12307656e-01 2.89183527e-01 2.51209646e-01 2.05801100e-01 1.65052816e-01 1.31701246e-01 1.08774036e-01 1.21702977e-01 2.08768606e-01 5.11015296e-01 6.57021105e-01 5.46281695e-01 6.31225646e-01 6.14086390e-01 5.95341742e-01 5.78156233e-01 5.78828096e-01 5.77568829e-01 5.77015758e-01 5.78059018e-01 5.80579519e-01 5.85058153e-01 5.92480242e-01 6.10336125e-01 5.85656941e-01 5.62331855e-01 5.82116961e-01 2.98165351e-01 2.12874070e-01 1.64012536e-01 1.35195881e-01 1.17840946e-01 1.06315985e-01 9.59670916e-02 8.58304724e-02 7.65923560e-02 6.93171546e-02 6.62223622e-02 7.43372291e-02 1.18958771e-01 3.72060955e-01 8.88762534e-01 9.29150209e-02 8.70805085e-02 6.42471254e-01 6.26236141e-01 6.35169685e-01 6.00377321e-01 5.86931467e-01 5.84278405e-01 5.81580758e-01 5.79656780e-01 5.73067248e-01 5.61676145e-01 5.61904907e-01 5.31446695e-01 5.50268710e-01 5.82944322e-03 7.61643192e-03 1.11076646e-02 1.68554410e-02 1.89103186e-02 1.81540810e-02 1.68122984e-02 1.57652274e-02 1.51405232e-02 1.50625743e-02 1.59931127e-02 1.89775154e-02 2.67453548e-02 4.87563014e-02 1.55982196e-01 6.23617113e-01 1.94490954e-01 4.41046283e-02 2.96319239e-02 3.29919197e-02 1.40799835e-01 5.43237209e-01 5.71886420e-01 5.02952635e-01 4.80439544e-01 4.84390378e-01 4.67043042e-01 4.53147709e-01 4.59118187e-01 4.57393229e-01 4.78893161e-01 6.73973234e-03 3.68865184e-03 6.89596357e-03 7.82442000e-03 8.17243848e-03 8.52678064e-03 8.78578145e-03 8.93595815e-03 9.00022127e-03 8.97530466e-03 8.81240983e-03 8.43269657e-03 7.95955490e-03 8.22824426e-03 9.71545000e-03 9.09606144e-02 9.14860249e-01 6.87616110e-01 5.56308702e-02 1.85481459e-02 1.43246446e-02 1.50955133e-02 1.30398601e-01 4.48112398e-01 3.43226254e-01 2.76834786e-01 3.98537964e-01 4.01451945e-01 3.88623655e-01 3.82498831e-01 4.08388406e-01 1.47862464e-01 2.71021295e-02 1.14122340e-02 9.34200082e-03 9.00500827e-03 9.05235019e-03 9.26123932e-03 9.46333911e-03 9.59925167e-03 9.65307374e-03 9.58693400e-03 9.29752272e-03 8.56549479e-03 7.14737875e-03 4.74629272e-03 4.00389265e-03 8.35983083e-03 9.30450082e-01 9.19092655e-01 6.88587487e-01 3.55994739e-02 9.77166276e-03 9.27923713e-03 9.18528810e-03 4.95567530e-01 3.62875760e-01 3.42936426e-01 3.20086747e-01 3.12484175e-01 3.05438846e-01 3.30345899e-01 3.71562719e-01 2.99800903e-01 2.04946086e-01 1.23728290e-01 8.78806412e-02 7.20992684e-02 6.54632375e-02 6.33479655e-02 6.32776394e-02 6.36276007e-02 6.38173744e-02 6.22418448e-02 5.53294905e-02 3.69892456e-02 1.26886321e-02 4.34223050e-03 1.40727323e-03 1.84427050e-03 5.74792828e-03 8.53874862e-01 5.45159042e-01 2.95596361e-01 1.28087820e-02 6.66468451e-03 4.79487749e-03 5.46605051e-01 3.18839848e-01 2.61514544e-01 2.34792233e-01 2.20384806e-01 2.65430093e-01 4.65905011e-01 4.22012150e-01 3.95500451e-01 3.54152679e-01 3.15243065e-01 2.86580920e-01 2.69070894e-01 2.59606570e-01 2.53975481e-01 2.49379680e-01 2.45614782e-01 2.45315552e-01 2.50374585e-01 2.60709822e-01 2.62030691e-01 1.92298636e-01 2.53643841e-02 4.35164059e-03 5.05277305e-04 1.14908803e-03 7.59145260e-01 7.61332810e-01 7.53288627e-01 7.00104833e-01 3.24623822e-03 3.65471002e-03 8.93510040e-03 1.10178545e-01 1.50694445e-01 1.59765840e-01 2.19920009e-01 5.76814353e-01 5.40715218e-01 5.41074514e-01 5.13666809e-01 4.87881720e-01 4.67452615e-01 4.53249842e-01 4.43841904e-01 4.37583625e-01 4.33036447e-01 4.28899974e-01 4.24566090e-01 4.20783728e-01 4.17719275e-01 4.14020360e-01 4.05734062e-01 3.84860963e-01 3.31811696e-01 1.87101185e-01 2.74397084e-03 4.43947874e-03 6.32887363e-01 5.64532638e-01 7.19837844e-01 8.48839045e-01 6.45919843e-03 5.76812308e-03 5.21009415e-03 6.03613891e-02 1.16814300e-01 1.80545151e-01 6.04479074e-01 6.33529484e-01 6.36923671e-01 6.38637185e-01 6.40008986e-01 6.36582077e-01 6.28711700e-01 6.18544698e-01 6.08121395e-01 5.98240733e-01 5.88347137e-01 5.77950120e-01 5.67561090e-01 5.55936217e-01 5.40982366e-01 5.23531616e-01 4.95722920e-01 4.49512690e-01 4.03973073e-01 2.87608802e-01 5.15836803e-03 6.43117912e-03 2.03397721e-02 4.90363836e-02 2.09412426e-01 9.38353956e-01 5.58897443e-02 4.95597860e-03 4.65062493e-03 5.60804754e-02 1.49655521e-01 5.94036460e-01 6.44972622e-01 6.37100399e-01 6.35889649e-01 6.41082585e-01 6.47641003e-01 6.52671397e-01 6.54869139e-01 6.54200971e-01 6.51387811e-01 6.47160470e-01 6.41694307e-01 6.34776711e-01 6.26490831e-01 6.17311835e-01 6.07421219e-01 5.97119093e-01 5.86286485e-01 5.74476063e-01 5.63749135e-01 5.50960541e-01 1.92621201e-02 1.17741246e-02 1.72663685e-02 2.30715685e-02 4.29430604e-02 9.28344786e-01 1.31761745e-01 5.60181635e-03 7.84904230e-03 9.73361880e-02 5.77796042e-01 5.96659184e-01 5.80935955e-01 5.83981931e-01 5.93052566e-01 6.03858590e-01 6.14073694e-01 6.22603059e-01 6.29266262e-01 6.34360492e-01 6.38349950e-01 6.41399205e-01 6.42972291e-01 6.42082393e-01 6.38241112e-01 6.32690728e-01 6.29186809e-01 6.30117893e-01 6.35445058e-01 6.41851604e-01 6.27781272e-01 6.05096579e-01 6.80131614e-02 3.22516970e-02 2.28864420e-02 2.23955102e-02 4.38730195e-02 8.96900356e-01 9.48202237e-03 8.76816083e-03 5.98356687e-02 5.69734573e-01 5.51469266e-01 4.48809415e-01 4.24004644e-01 4.32884306e-01 4.48067009e-01 4.65183944e-01 4.81641561e-01 4.95882869e-01 5.07762492e-01 5.18542945e-01 5.30227959e-01 5.44291794e-01 5.61218858e-01 5.81290245e-01 6.03362799e-01 6.23807847e-01 6.35784030e-01 6.34258091e-01 6.49459362e-01 6.65463984e-01 6.44484997e-01 6.33206367e-01 6.17086112e-01 5.20669222e-01 8.89251679e-02 4.02865298e-02 7.86675811e-01 1.41410176e-02 9.54028778e-03 3.36391963e-02 5.64961553e-01 4.35794592e-01 3.82084221e-01 3.74188781e-01 3.79170656e-01 3.93955112e-01 4.18680727e-01 4.42534924e-01 4.58318472e-01 4.66117203e-01 4.67859238e-01 4.65817153e-01 4.62705582e-01 4.59294796e-01 4.55284745e-01 4.52090949e-01 4.51800227e-01 4.59673285e-01 4.92991030e-01 5.62698305e-01 6.17437124e-01 6.26960337e-01 6.32440090e-01 6.51056111e-01 6.47071362e-01 5.89783847e-01 9.14146006e-02 8.91542077e-01 1.72380731e-02 1.19289057e-02 2.62469556e-02 5.79499543e-01 4.16012555e-01 3.84403944e-01 3.82532984e-01 3.87387484e-01 3.95182818e-01 4.05907810e-01 4.16182905e-01 4.11850661e-01 4.23241466e-01 4.37412411e-01 4.44996804e-01 4.44476277e-01 4.38646406e-01 4.27081436e-01 4.12679672e-01 4.00557697e-01 3.94154936e-01 3.95770609e-01 4.16185111e-01 4.52117950e-01 4.90975708e-01 5.22806406e-01 5.46595991e-01 5.94098449e-01 6.58320189e-01 6.67294383e-01 8.43662858e-01 2.04206482e-02 1.53500512e-02 2.49204878e-02 5.93047142e-01 3.81733894e-01 3.76039237e-01 3.71117860e-01 3.74881536e-01 3.82294953e-01 3.93482596e-01 4.08998519e-01 4.27715480e-01 4.47642982e-01 4.45802450e-01 4.47724819e-01 4.43842888e-01 4.33723450e-01 4.21672553e-01 4.18537229e-01 4.19271827e-01 4.10410613e-01 4.03504431e-01 3.97423595e-01 3.81551564e-01 4.17494804e-01 4.61395890e-01 5.53526163e-01 6.46004319e-01 6.86134875e-01 7.42414355e-01 7.36540556e-01 2.24747006e-02 1.81268193e-02 2.64452044e-02 5.99767745e-01 3.87613475e-01 3.60575318e-01 3.56580943e-01 3.59366804e-01 3.67805004e-01 3.80221039e-01 3.96675676e-01 4.17228580e-01 4.40370053e-01 4.46722806e-01 4.45941329e-01 4.46910411e-01 4.35054749e-01 4.20499265e-01 4.25357521e-01 4.10942912e-01 3.99628907e-01 3.90284628e-01 3.92725289e-01 4.04156208e-01 4.21697468e-01 5.40309370e-01 6.58979475e-01 6.87248766e-01 7.36305773e-01 7.56839752e-01 1.73016787e-01 1.86499357e-02 1.80947464e-02 3.22280899e-02 6.29380345e-01 3.68323445e-01 3.29848915e-01 3.31641555e-01 3.38175714e-01 3.50262552e-01 3.66748482e-01 3.86780858e-01 4.10432518e-01 4.34851736e-01 4.30412561e-01 4.53170300e-01 4.65908408e-01 4.46548015e-01 4.15202111e-01 4.17500705e-01 3.99201959e-01 3.76692414e-01 3.74851793e-01 3.96966547e-01 4.20106739e-01 5.69355905e-01 6.98301315e-01 6.93175554e-01 7.24241078e-01 7.42331386e-01 2.18919024e-01 5.71967661e-02 1.71077177e-02 1.71831269e-02 4.86490056e-02 6.51546955e-01 3.38436872e-01 2.81422347e-01 2.89865136e-01 3.05268288e-01 3.25545192e-01 3.50351244e-01 3.77450377e-01 4.04483944e-01 4.19800550e-01 4.37786222e-01 4.86647695e-01 5.02902389e-01 4.69197035e-01 4.08722878e-01 3.99615854e-01 3.78566265e-01 3.64188343e-01 3.69009167e-01 4.06357884e-01 6.25132620e-01 7.48328030e-01 7.10726917e-01 6.94643259e-01 6.93759680e-01 2.20843866e-01 6.62672371e-02 3.20091024e-02 2.16727760e-02 2.29355935e-02 9.16263685e-02 6.62653267e-01 3.00417125e-01 2.20711574e-01 2.32412681e-01 2.57726401e-01 2.89573312e-01 3.26415151e-01 3.64146233e-01 3.97446543e-01 4.08685029e-01 4.78189468e-01 5.16844094e-01 5.29881775e-01 4.88465399e-01 4.01811153e-01 3.82268548e-01 3.70446175e-01 3.81425560e-01 4.40221637e-01 6.79969370e-01 7.67136931e-01 7.23730683e-01 6.48770511e-01 6.02842987e-01 1.44646049e-01 5.71043566e-02 3.51004079e-02 2.83123925e-02 3.13344933e-02 4.93894517e-02 1.50678545e-01 6.66793227e-01 2.62868255e-01 1.64317518e-01 1.71066597e-01 2.00194731e-01 2.41767079e-01 2.90474325e-01 3.42256844e-01 3.74243498e-01 4.54756409e-01 5.10244548e-01 5.29547751e-01 5.35507023e-01 4.88745689e-01 4.02325273e-01 3.63879859e-01 3.98915440e-01 4.91744280e-01 7.41334617e-01 7.45800018e-01 6.08350098e-01 4.15391773e-01 2.82474250e-01 9.51451659e-02 4.65970598e-02 3.54448259e-02 3.11472416e-02 3.65112573e-02 5.67619242e-02 1.14110239e-01 2.33027473e-01 6.61631107e-01 2.44703487e-01 1.26328126e-01 1.22469895e-01 1.46524683e-01 1.86417282e-01 2.43448198e-01 3.16555113e-01 4.01118994e-01 5.02154529e-01 5.31853855e-01 5.34813404e-01 5.29000103e-01 4.92758989e-01 4.36249763e-01 4.25410002e-01 5.22156954e-01 7.16715634e-01 7.32193768e-01 6.59657001e-01 9.50537026e-02 9.38678756e-02 5.33223413e-02 4.82669510e-02 4.54762988e-02 4.01183628e-02 4.56125960e-02 7.86248222e-02 1.67268381e-01 2.71599174e-01 3.56592268e-01 6.45392001e-01 2.65807450e-01 1.09438062e-01 9.12406147e-02 1.08291253e-01 1.41240537e-01 2.00712085e-01 2.99170077e-01 4.60865527e-01 5.42932630e-01 5.49209774e-01 5.36936402e-01 5.30159175e-01 5.01869798e-01 4.73838866e-01 4.97900307e-01 6.29937828e-01 6.88119233e-01 6.86941147e-01 6.32762015e-01 4.13319260e-01 1.64874673e-01 6.39517680e-02 4.93105799e-02 5.49789034e-02 8.36115628e-02 2.29693338e-01 6.13323450e-01 6.26648009e-01 6.45128548e-01 5.98041594e-01 6.22294724e-01 3.20925236e-01 1.08614974e-01 7.10392892e-02 8.11953843e-02 1.14360362e-01 1.82933375e-01 3.45919430e-01 5.27204454e-01 5.76085031e-01 5.54553270e-01 5.39609373e-01 5.35469890e-01 5.18459499e-01 5.07573724e-01 5.90976059e-01 6.48187757e-01 6.59701347e-01 6.52560353e-01 6.26284719e-01 5.56105971e-01 4.07903165e-01 3.86193514e-01 4.95502025e-01 6.78981841e-01 6.86015069e-01 7.10208118e-01 6.84574366e-01 6.58882558e-01 6.52056694e-01 6.44260228e-01 6.01513386e-01 3.75341862e-01 1.16249830e-01 5.58720417e-02 6.51312470e-02 9.92467776e-02 1.99632838e-01 4.30952728e-01 5.93304634e-01 5.84581256e-01 5.51768184e-01 5.47357976e-01 5.48164785e-01 5.34494758e-01 5.34740984e-01 6.05018735e-01 6.34470701e-01 6.40160680e-01 6.35537922e-01 6.27192378e-01 6.17584944e-01 6.35777414e-01 6.78572595e-01 7.46890187e-01 7.08937168e-01 6.77129805e-01 6.65270448e-01 6.55757427e-01 6.43399000e-01 6.39276922e-01 6.37902379e-01 5.89723289e-01 4.07184809e-01 1.20393455e-01 4.24702913e-02 5.26934266e-02 1.00976735e-01 2.55587399e-01 5.42368889e-01 6.19105160e-01 5.75177789e-01 5.53513765e-01 5.63513160e-01 5.68362176e-01 5.48862040e-01 5.46538711e-01 6.01076484e-01 6.03619397e-01 6.42427325e-01 6.37833297e-01 6.31938696e-01 6.45191967e-01 6.40538692e-01 6.38687432e-01 6.60755336e-01 6.57381117e-01 6.51125252e-01 6.27020001e-01 6.01558805e-01 6.05685294e-01 6.30396843e-01 5.90523005e-01 5.86548686e-01 4.22105521e-01 1.12640165e-01 3.30587029e-02 4.18426432e-02 1.24854185e-01 3.51054877e-01 6.26812339e-01 6.10824585e-01 5.65573692e-01 5.60597837e-01 5.79101861e-01 5.83906531e-01 5.59426010e-01 5.46065688e-01 5.84005356e-01 5.94759464e-01 5.93020082e-01 6.08635664e-01 6.09240949e-01 5.90839922e-01 5.86187005e-01 5.81005335e-01 5.71087360e-01 5.85090637e-01 5.50830781e-01 5.44966757e-01 5.64803243e-01 5.84453106e-01 5.85090756e-01 5.77242613e-01 5.75274944e-01 4.33480173e-01 1.01435348e-01 2.65073739e-02 3.32751460e-02 1.83657989e-01 4.98955488e-01 6.55677736e-01 5.88140845e-01 5.49381912e-01 5.55868506e-01 5.77648461e-01 5.81713855e-01 5.56334674e-01 5.34717858e-01 5.51535904e-01 5.74932694e-01 5.79460144e-01 5.72683036e-01 5.67930639e-01 5.64349949e-01 5.32765567e-01 4.66720551e-01 4.68491942e-01 5.67493796e-01 5.33857465e-01 4.87195194e-01 4.89072949e-01 5.10667384e-01 5.28844774e-01 5.52225828e-01 5.26874483e-01 4.45937902e-01 1.06747799e-01 2.10592244e-02 2.73017772e-02 2.63062775e-01 6.17534697e-01 6.39129877e-01 5.55008709e-01 5.24604142e-01 5.36525011e-01 5.60270250e-01 5.69177270e-01 5.47703147e-01 5.18595576e-01 5.12721300e-01 5.20221770e-01 5.29578686e-01 5.33972323e-01 5.28980315e-01 5.09395003e-01 4.67920840e-01 4.10051942e-01 4.09082770e-01 6.08391762e-01 5.92251956e-01 4.93612230e-01 4.44084078e-01 4.59754139e-01 4.56275225e-01 5.14145970e-01 4.62114394e-01 4.43488777e-01 1.27074420e-01 1.71958171e-02 2.17293389e-02 3.79799515e-01 8.26346278e-01 6.64043069e-01 6.00389361e-01 5.80728889e-01 5.87385178e-01 5.96293151e-01 5.91458917e-01 5.57777584e-01 5.08895576e-01 4.83089060e-01 4.77267355e-01 4.77204204e-01 4.74860609e-01 4.64079529e-01 4.41119313e-01 4.13261801e-01 4.34932053e-01 3.88345778e-01 5.33105373e-01 6.42051220e-01 5.26214242e-01 5.05633414e-01 5.38364112e-01 4.50984061e-01 4.79956001e-01 5.20097256e-01 4.39205945e-01 2.36065179e-01 1.28049450e-02 1.68701634e-02 4.40638363e-01 6.52876019e-01 5.31939685e-01 4.83464628e-01 4.92914617e-01 5.06536424e-01 5.28623998e-01 5.53293109e-01 5.54638624e-01 5.15441775e-01 4.87461537e-01 4.87990946e-01 4.87071604e-01 4.69697416e-01 4.34240669e-01 3.91322076e-01 3.43543977e-01 3.30933988e-01 4.30496514e-01 4.13828790e-01 4.75943029e-01 4.85370576e-01 5.15257001e-01 5.61495185e-01 5.04105449e-01 4.61637735e-01 5.73318183e-01 5.70780396e-01 5.27651072e-01 2.11253315e-02 1.62117034e-02 5.87715626e-01 4.61986125e-01 4.36284602e-01 4.12972450e-01 4.16887403e-01 4.38391745e-01 4.72220868e-01 5.09837985e-01 5.35341322e-01 5.40370107e-01 5.47506988e-01 5.53884923e-01 5.51060617e-01 5.35691500e-01 5.00866950e-01 4.39663231e-01 3.48656386e-01 1.85002849e-01 2.72996724e-01 5.43506086e-01 5.21323740e-01 5.53467989e-01 6.35953248e-01 6.42257988e-01 5.93856514e-01 4.49439973e-01 
