# vtk DataFile Version 2.0
results/iter4.vtk, Created by Freefem++ 
ASCII
DATASET UNSTRUCTURED_GRID
POINTS 961 float
0 0 0
0.033333333 0 0
0.066666667 0 0
0.1 0 0
0.13333333 0 0
0.16666667 0 0
0.2 0 0
0.23333333 0 0
0.26666667 0 0
0.3 0 0
0.33333333 0 0
0.36666667 0 0
0.4 0 0
0.43333333 0 0
0.46666667 0 0
0.5 0 0
0.53333333 0 0
0.56666667 0 0
0.6 0 0
0.63333333 0 0
0.66666667 0 0
0.7 0 0
0.73333333 0 0
0.76666667 0 0
0.8 0 0
0.83333333 0 0
0.86666667 0 0
0.9 0 0
0.93333333 0 0
0.96666667 0 0
1 0 0
0 0.033333333 0
0.033333333 0.033333333 0
0.066666667 0.033333333 0
0.1 0.033333333 0
0.13333333 0.033333333 0
0.16666667 0.033333333 0
0.2 0.033333333 0
0.23333333 0.033333333 0
0.26666667 0.033333333 0
0.3 0.033333333 0
0.33333333 0.033333333 0
0.36666667 0.033333333 0
0.4 0.033333333 0
0.43333333 0.033333333 0
0.46666667 0.033333333 0
0.5 0.033333333 0
0.53333333 0.033333333 0
0.56666667 0.033333333 0
0.6 0.033333333 0
0.63333333 0.033333333 0
0.66666667 0.033333333 0
0.7 0.033333333 0
0.73333333 0.033333333 0
0.76666667 0.033333333 0
0.8 0.033333333 0
0.83333333 0.033333333 0
0.86666667 0.033333333 0
0.9 0.033333333 0
0.93333333 0.033333333 0
0.96666667 0.033333333 0
1 0.033333333 0
0 0.066666667 0
0.033333333 0.066666667 0
0.066666667 0.066666667 0
0.1 0.066666667 0
0.13333333 0.066666667 0
0.16666667 0.066666667 0
0.2 0.066666667 0
0.23333333 0.066666667 0
0.26666667 0.066666667 0
0.3 0.066666667 0
0.33333333 0.066666667 0
0.36666667 0.066666667 0
0.4 0.066666667 0
0.43333333 0.066666667 0
0.46666667 0.066666667 0
0.5 0.066666667 0
0.53333333 0.066666667 0
0.56666667 0.066666667 0
0.6 0.066666667 0
0.63333333 0.066666667 0
0.66666667 0.066666667 0
0.7 0.066666667 0
0.73333333 0.066666667 0
0.76666667 0.066666667 0
0.8 0.066666667 0
0.83333333 0.066666667 0
0.86666667 0.066666667 0
0.9 0.066666667 0
0.93333333 0.066666667 0
0.96666667 0.066666667 0
1 0.066666667 0
0 0.1 0
0.033333333 0.1 0
0.066666667 0.1 0
0.1 0.1 0
0.13333333 0.1 0
0.16666667 0.1 0
0.2 0.1 0
0.23333333 0.1 0
0.26666667 0.1 0
0.3 0.1 0
0.33333333 0.1 0
0.36666667 0.1 0
0.4 0.1 0
0.43333333 0.1 0
0.46666667 0.1 0
0.5 0.1 0
0.53333333 0.1 0
0.56666667 0.1 0
0.6 0.1 0
0.63333333 0.1 0
0.66666667 0.1 0
0.7 0.1 0
0.73333333 0.1 0
0.76666667 0.1 0
0.8 0.1 0
0.83333333 0.1 0
0.86666667 0.1 0
0.9 0.1 0
0.93333333 0.1 0
0.96666667 0.1 0
1 0.1 0
0 0.13333333 0
0.033333333 0.13333333 0
0.066666667 0.13333333 0
0.1 0.13333333 0
0.13333333 0.13333333 0
0.16666667 0.13333333 0
0.2 0.13333333 0
0.23333333 0.13333333 0
0.26666667 0.13333333 0
0.3 0.13333333 0
0.33333333 0.13333333 0
0.36666667 0.13333333 0
0.4 0.13333333 0
0.43333333 0.13333333 0
0.46666667 0.13333333 0
0.5 0.13333333 0
0.53333333 0.13333333 0
0.56666667 0.13333333 0
0.6 0.13333333 0
0.63333333 0.13333333 0
0.66666667 0.13333333 0
0.7 0.13333333 0
0.73333333 0.13333333 0
0.76666667 0.13333333 0
0.8 0.13333333 0
0.83333333 0.13333333 0
0.86666667 0.13333333 0
0.9 0.13333333 0
0.93333333 0.13333333 0
0.96666667 0.13333333 0
1 0.13333333 0
0 0.16666667 0
0.033333333 0.16666667 0
0.066666667 0.16666667 0
0.1 0.16666667 0
0.13333333 0.16666667 0
0.16666667 0.16666667 0
0.2 0.16666667 0
0.23333333 0.16666667 0
0.26666667 0.16666667 0
0.3 0.16666667 0
0.33333333 0.16666667 0
0.36666667 0.16666667 0
0.4 0.16666667 0
0.43333333 0.16666667 0
0.46666667 0.16666667 0
0.5 0.16666667 0
0.53333333 0.16666667 0
0.56666667 0.16666667 0
0.6 0.16666667 0
0.63333333 0.16666667 0
0.66666667 0.16666667 0
0.7 0.16666667 0
0.73333333 0.16666667 0
0.76666667 0.16666667 0
0.8 0.16666667 0
0.83333333 0.16666667 0
0.86666667 0.16666667 0
0.9 0.16666667 0
0.93333333 0.16666667 0
0.96666667 0.16666667 0
1 0.16666667 0
0 0.2 0
0.033333333 0.2 0
0.066666667 0.2 0
0.1 0.2 0
0.13333333 0.2 0
0.16666667 0.2 0
0.2 0.2 0
0.23333333 0.2 0
0.26666667 0.2 0
0.3 0.2 0
0.33333333 0.2 0
0.36666667 0.2 0
0.4 0.2 0
0.43333333 0.2 0
0.46666667 0.2 0
0.5 0.2 0
0.53333333 0.2 0
0.56666667 0.2 0
0.6 0.2 0
0.63333333 0.2 0
0.66666667 0.2 0
0.7 0.2 0
0.73333333 0.2 0
0.76666667 0.2 0
0.8 0.2 0
0.83333333 0.2 0
0.86666667 0.2 0
0.9 0.2 0
0.93333333 0.2 0
0.96666667 0.2 0
1 0.2 0
0 0.23333333 0
0.033333333 0.23333333 0
0.066666667 0.23333333 0
0.1 0.23333333 0
0.13333333 0.23333333 0
0.16666667 0.23333333 0
0.2 0.23333333 0
0.23333333 0.23333333 0
0.26666667 0.23333333 0
0.3 0.23333333 0
0.33333333 0.23333333 0
0.36666667 0.23333333 0
0.4 0.23333333 0
0.43333333 0.23333333 0
0.46666667 0.23333333 0
0.5 0.23333333 0
0.53333333 0.23333333 0
0.56666667 0.23333333 0
0.6 0.23333333 0
0.63333333 0.23333333 0
0.66666667 0.23333333 0
0.7 0.23333333 0
0.73333333 0.23333333 0
0.76666667 0.23333333 0
0.8 0.23333333 0
0.83333333 0.23333333 0
0.86666667 0.23333333 0
0.9 0.23333333 0
0.93333333 0.23333333 0
0.96666667 0.23333333 0
1 0.23333333 0
0 0.26666667 0
0.033333333 0.26666667 0
0.066666667 0.26666667 0
0.1 0.26666667 0
0.13333333 0.26666667 0
0.16666667 0.26666667 0
0.2 0.26666667 0
0.23333333 0.26666667 0
0.26666667 0.26666667 0
0.3 0.26666667 0
0.33333333 0.26666667 0
0.36666667 0.26666667 0
0.4 0.26666667 0
0.43333333 0.26666667 0
0.46666667 0.26666667 0
0.5 0.26666667 0
0.53333333 0.26666667 0
0.56666667 0.26666667 0
0.6 0.26666667 0
0.63333333 0.26666667 0
0.66666667 0.26666667 0
0.7 0.26666667 0
0.73333333 0.26666667 0
0.76666667 0.26666667 0
0.8 0.26666667 0
0.83333333 0.26666667 0
0.86666667 0.26666667 0
0.9 0.26666667 0
0.93333333 0.26666667 0
0.96666667 0.26666667 0
1 0.26666667 0
0 0.3 0
0.033333333 0.3 0
0.066666667 0.3 0
0.1 0.3 0
0.13333333 0.3 0
0.16666667 0.3 0
0.2 0.3 0
0.23333333 0.3 0
0.26666667 0.3 0
0.3 0.3 0
0.33333333 0.3 0
0.36666667 0.3 0
0.4 0.3 0
0.43333333 0.3 0
0.46666667 0.3 0
0.5 0.3 0
0.53333333 0.3 0
0.56666667 0.3 0
0.6 0.3 0
0.63333333 0.3 0
0.66666667 0.3 0
0.7 0.3 0
0.73333333 0.3 0
0.76666667 0.3 0
0.8 0.3 0
0.83333333 0.3 0
0.86666667 0.3 0
0.9 0.3 0
0.93333333 0.3 0
0.96666667 0.3 0
1 0.3 0
0 0.33333333 0
0.033333333 0.33333333 0
0.066666667 0.33333333 0
0.1 0.33333333 0
0.13333333 0.33333333 0
0.16666667 0.33333333 0
0.2 0.33333333 0
0.23333333 0.33333333 0
0.26666667 0.33333333 0
0.3 0.33333333 0
0.33333333 0.33333333 0
0.36666667 0.33333333 0
0.4 0.33333333 0
0.43333333 0.33333333 0
0.46666667 0.33333333 0
0.5 0.33333333 0
0.53333333 0.33333333 0
0.56666667 0.33333333 0
0.6 0.33333333 0
0.63333333 0.33333333 0
0.66666667 0.33333333 0
0.7 0.33333333 0
0.73333333 0.33333333 0
0.76666667 0.33333333 0
0.8 0.33333333 0
0.83333333 0.33333333 0
0.86666667 0.33333333 0
0.9 0.33333333 0
0.93333333 0.33333333 0
0.96666667 0.33333333 0
1 0.33333333 0
0 0.36666667 0
0.033333333 0.36666667 0
0.066666667 0.36666667 0
0.1 0.36666667 0
0.13333333 0.36666667 0
0.16666667 0.36666667 0
0.2 0.36666667 0
0.23333333 0.36666667 0
0.26666667 0.36666667 0
0.3 0.36666667 0
0.33333333 0.36666667 0
0.36666667 0.36666667 0
0.4 0.36666667 0
0.43333333 0.36666667 0
0.46666667 0.36666667 0
0.5 0.36666667 0
0.53333333 0.36666667 0
0.56666667 0.36666667 0
0.6 0.36666667 0
0.63333333 0.36666667 0
0.66666667 0.36666667 0
0.7 0.36666667 0
0.73333333 0.36666667 0
0.76666667 0.36666667 0
0.8 0.36666667 0
0.83333333 0.36666667 0
0.86666667 0.36666667 0
0.9 0.36666667 0
0.93333333 0.36666667 0
0.96666667 0.36666667 0
1 0.36666667 0
0 0.4 0
0.033333333 0.4 0
0.066666667 0.4 0
0.1 0.4 0
0.13333333 0.4 0
0.16666667 0.4 0
0.2 0.4 0
0.23333333 0.4 0
0.26666667 0.4 0
0.3 0.4 0
0.33333333 0.4 0
0.36666667 0.4 0
0.4 0.4 0
0.43333333 0.4 0
0.46666667 0.4 0
0.5 0.4 0
0.53333333 0.4 0
0.56666667 0.4 0
0.6 0.4 0
0.63333333 0.4 0
0.66666667 0.4 0
0.7 0.4 0
0.73333333 0.4 0
0.76666667 0.4 0
0.8 0.4 0
0.83333333 0.4 0
0.86666667 0.4 0
0.9 0.4 0
0.93333333 0.4 0
0.96666667 0.4 0
1 0.4 0
0 0.43333333 0
0.033333333 0.43333333 0
0.066666667 0.43333333 0
0.1 0.43333333 0
0.13333333 0.43333333 0
0.16666667 0.43333333 0
0.2 0.43333333 0
0.23333333 0.43333333 0
0.26666667 0.43333333 0
0.3 0.43333333 0
0.33333333 0.43333333 0
0.36666667 0.43333333 0
0.4 0.43333333 0
0.43333333 0.43333333 0
0.46666667 0.43333333 0
0.5 0.43333333 0
0.53333333 0.43333333 0
0.56666667 0.43333333 0
0.6 0.43333333 0
0.63333333 0.43333333 0
0.66666667 0.43333333 0
0.7 0.43333333 0
0.73333333 0.43333333 0
0.76666667 0.43333333 0
0.8 0.43333333 0
0.83333333 0.43333333 0
0.86666667 0.43333333 0
0.9 0.43333333 0
0.93333333 0.43333333 0
0.96666667 0.43333333 0
1 0.43333333 0
0 0.46666667 0
0.033333333 0.46666667 0
0.066666667 0.46666667 0
0.1 0.46666667 0
0.13333333 0.46666667 0
0.16666667 0.46666667 0
0.2 0.46666667 0
0.23333333 0.46666667 0
0.26666667 0.46666667 0
0.3 0.46666667 0
0.33333333 0.46666667 0
0.36666667 0.46666667 0
0.4 0.46666667 0
0.43333333 0.46666667 0
0.46666667 0.46666667 0
0.5 0.46666667 0
0.53333333 0.46666667 0
0.56666667 0.46666667 0
0.6 0.46666667 0
0.63333333 0.46666667 0
0.66666667 0.46666667 0
0.7 0.46666667 0
0.73333333 0.46666667 0
0.76666667 0.46666667 0
0.8 0.46666667 0
0.83333333 0.46666667 0
0.86666667 0.46666667 0
0.9 0.46666667 0
0.93333333 0.46666667 0
0.96666667 0.46666667 0
1 0.46666667 0
0 0.5 0
0.033333333 0.5 0
0.066666667 0.5 0
0.1 0.5 0
0.13333333 0.5 0
0.16666667 0.5 0
0.2 0.5 0
0.23333333 0.5 0
0.26666667 0.5 0
0.3 0.5 0
0.33333333 0.5 0
0.36666667 0.5 0
0.4 0.5 0
0.43333333 0.5 0
0.46666667 0.5 0
0.5 0.5 0
0.53333333 0.5 0
0.56666667 0.5 0
0.6 0.5 0
0.63333333 0.5 0
0.66666667 0.5 0
0.7 0.5 0
0.73333333 0.5 0
0.76666667 0.5 0
0.8 0.5 0
0.83333333 0.5 0
0.86666667 0.5 0
0.9 0.5 0
0.93333333 0.5 0
0.96666667 0.5 0
1 0.5 0
0 0.53333333 0
0.033333333 0.53333333 0
0.066666667 0.53333333 0
0.1 0.53333333 0
0.13333333 0.53333333 0
0.16666667 0.53333333 0
0.2 0.53333333 0
0.23333333 0.53333333 0
0.26666667 0.53333333 0
0.3 0.53333333 0
0.33333333 0.53333333 0
0.36666667 0.53333333 0
0.4 0.53333333 0
0.43333333 0.53333333 0
0.46666667 0.53333333 0
0.5 0.53333333 0
0.53333333 0.53333333 0
0.56666667 0.53333333 0
0.6 0.53333333 0
0.63333333 0.53333333 0
0.66666667 0.53333333 0
0.7 0.53333333 0
0.73333333 0.53333333 0
0.76666667 0.53333333 0
0.8 0.53333333 0
[...]
CELL_DATA 1920
Scalars  Label int 1
LOOKUP_TABLE FreeFempp_table
0
0
0
0
0
0
0
0
0
0
0
0
0
0
0
0
0
0
0
0
0
0
0
0
0
0
0
0
0
0
0
0
0
0
0
0
0
0
0
0
0
0
0
0
0
0
0
0
0
0
0
0
0
0
0
0
0
0
0
0
0
0
0
0
0
0
0
0
0
0
0
0
0
0
0
0
0
0
0
0
0
0
0
0
0
0
0
0
0
0
0
0
0
0
0
0
0
0
0
0
0
0
0
0
0
0
0
0
0
0
0
0
0
0
0
0
0
0
0
0
0
0
0
0
0
0
0
0
0
0
0
0
0
0
0
0
0
0
0
0
0
0
0
0
0
0
0
0
0
0
0
0
0
0
0
0
0
0
0
0
0
0
0
0
0
0
0
0
0
0
0
0
0
0
0
0
0
0
0
0
0
0
0
0
0
0
0
0
0
0
0
0
0
0
0
0
0
0
0
0
0
0
0
0
0
0
0
0
0
0
0
0
0
0
0
0
0
0
0
0
0
0
0
0
0
0
0
0
0
0
0
0
0
0
0
0
0
0
0
0
0
0
0
0
0
0
0
0
0
0
0
0
0
0
0
0
0
0
0
0
0
0
0
0
0
0
0
0
0
0
0
0
0
0
0
0
0
0
0
0
0
0
0
0
0
0
0
0
0
0
0
0
0
0
0
0
0
0
0
0
0
0
0
0
0
0
0
0
0
0
0
0
0
0
0
0
0
0
0
0
0
0
0
0
0
0
0
0
0
0
0
0
0
0
0
0
0
0
0
0
0
0
0
0
0
0
0
0
0
0
0
0
0
0
0
0
0
0
0
0
0
0
0
0
0
0
0
0
0
0
0
0
0
0
0
0
0
0
0
0
0
0
0
0
0
0
0
0
0
0
0
0
0
0
0
0
0
0
0
0
0
0
0
0
0
0
0
0
0
0
0
0
0
0
0
0
0
0
0
0
0
0
0
0
0
0
0
0
0
0
0
0
0
0
0
0
0
0
0
0
0
0
0
0
0
0
0
0
0
0
0
0
0
0
0
0
0
0
0
0
0
0
0
0
0
0
0
0
0
0
0
0
0
0
0
0
0
0
0
0
0
0
0
0
0
0
0
0
0
0
0
0
0
0
0
0
0
0
0
0
0
0
0
0
0
0
0
0
0
0
0
0
0
0
0
0
0
0
0
0
0
0
0
0
0
0
0
0
0
0
0
0
0
0
0
0
0
0
0
0
0
0
0
0
0
0
0
0
0
0
0
0
0
0
0
0
0
0
0
0
0
0
0
0
0
0
0
0
0
0
0
0
0
0
0
0
0
0
0
0
0
0
0
0
0
0
0
0
0
0
0
0
0
0
0
0
0
0
0
0
0
0
0
0
0
0
0
0
0
0
0
0
0
0
0
0
0
0
0
0
0
0
0
0
0
0
0
0
0
0
0
0
0
0
0
0
0
0
0
0
0
0
0
0
0
0
0
0
0
0
0
0
0
0
0
0
0
0
0
0
0
0
0
0
0
0
0
0
0
0
0
0
0
0
0
0
0
0
0
0
0
0
0
0
0
0
0
0
0
0
0
0
0
0
0
0
0
0
0
0
0
0
0
0
0
0
0
0
0
0
0
0
0
0
0
0
0
0
0
0
0
0
0
0
0
0
0
0
0
0
0
0
0
0
0
0
0
0
0
0
0
0
0
0
0
0
0
0
0
0
0
0
0
0
0
0
0
0
0
0
0
0
0
0
0
0
0
0
0
0
0
0
0
0
0
0
0
0
0
0
0
0
0
0
0
0
0
0
0
0
0
0
0
0
0
0
0
0
0
0
0
0
0
0
0
0
0
0
0
0
0
0
0
0
0
0
0
0
0
0
0
0
0
0
0
0
0
0
0
0
0
0
0
0
0
0
0
0
0
0
0
0
0
0
0
0
0
0
0
0
0
0
0
0
0
0
0
0
0
0
0
0
0
0
0
0
0
0
0
0
0
0
0
0
0
0
0
0
0
0
0
0
0
0
0
0
0
0
0
0
0
0
0
0
0
0
0
0
0
0
0
0
0
0
0
0
0
0
0
0
0
0
0
0
0
0
0
0
0
0
0
0
0
0
0
0
0
0
0
0
0
0
0
0
0
0
0
0
0
0
0
0
0
0
0
0
0
0
0
0
0
0
0
0
0
0
0
0
0
0
0
0
0
0
0
0
0
0
0
0
0
0
0
0
0
0
0
0
0
0
0
0
0
0
0
0
0
0
0
0
0
0
0
0
0
0
0
0
0
0
0
0
0
0
0
0
0
0
0
0
0
0
0
0
0
0
0
0
0
0
0
0
0
0
0
0
0
0
0
0
0
0
0
0
0
0
0
0
0
0
0
0
0
0
0
0
0
0
0
0
0
0
0
0
0
0
0
0
0
0
0
0
0
0
0
0
0
0
0
0
0
0
0
0
0
0
0
0
0
0
0
0
0
0
0
0
0
0
0
0
0
0
0
0
0
0
0
0
0
0
0
0
0
0
0
0
0
0
0
0
0
0
0
0
0
0
0
0
0
0
0
0
0
0
0
0
0
0
0
0
0
0
0
0
0
0
0
0
0
0
0
0
0
0
0
0
0
0
0
0
0
0
0
0
0
0
0
0
0
0
0
0
0
0
0
0
0
0
0
0
0
0
0
0
0
0
0
0
0
0
0
0
0
0
0
0
0
0
0
0
0
0
0
0
0
0
0
0
0
0
0
0
0
0
0
0
0
0
0
0
0
0
0
0
0
0
0
0
0
0
0
0
0
0
0
0
0
0
0
0
0
0
0
0
0
0
0
0
0
0
0
0
0
0
0
0
0
0
0
0
0
0
0
0
0
0
0
0
0
0
0
0
0
0
0
0
0
0
0
0
0
0
0
0
0
0
0
0
0
0
0
0
0
0
0
0
0
0
0
0
0
0
0
0
0
0
0
0
0
0
0
0
0
0
0
0
0
0
0
0
0
0
0
0
0
0
0
0
0
0
0
0
0
0
0
0
0
0
0
0
0
0
0
0
0
0
0
0
0
0
0
0
0
0
0
0
0
0
0
0
0
0
0
0
0
0
0
0
0
0
0
0
0
0
0
0
0
0
0
0
0
0
0
0
0
0
0
0
0
0
0
0
0
0
0
0
0
0
0
0
0
0
0
0
0
0
0
0
0
0
0
0
0
0
0
0
0
0
0
0
0
0
0
0
0
0
0
0
0
0
0
0
0
0
0
0
0
0
0
0
0
0
0
0
0
0
0
0
0
0
0
0
0
0
0
0
0
0
0
0
0
0
0
0
0
0
0
0
0
0
0
0
0
0
0
0
0
0
0
0
0
0
0
0
0
0
0
0
0
0
0
0
0
0
0
0
0
0
0
0
0
0
0
0
0
0
0
0
0
0
0
0
0
0
0
0
0
0
0
0
0
0
0
0
0
0
0
0
0
0
0
0
0
0
0
0
0
0
0
0
0
0
0
0
0
0
0
0
0
0
0
0
0
0
0
0
0
0
0
0
0
0
0
0
0
0
0
0
0
0
0
0
0
0
0
0
0
0
0
0
0
0
0
0
0
0
0
0
0
0
0
0
0
0
0
0
0
0
0
0
0
0
0
0
0
0
0
0
0
0
0
0
0
0
0
0
0
0
0
0
0
0
0
0
0
0
0
0
0
0
0
0
0
0
0
0
0
0
0
0
0
0
0
0
0
0
0
0
0
0
0
0
0
0
0
0
0
0
0
0
0
0
0
0
0
0
0
0
0
0
0
0
0
0
0
0
0
0
0
0
0
0
0
0
0
0
0
0
0
0
0
0
0
0
0
0
0
0
0
0
0
0
0
0
0
0
0
0
0
0
0
0
0
0
0
0
0
0
0
0
0
0
0
0
0
0
0
0
0
0
0
0
0
0
0
0
0
0
0
0
0
0
0
0
0
0
0
0
0
0
0
0
0
0
0
0
0
0
0
0
0
0
0
0
0
0
0
0
0
0
0
0
0
0
0
0
0
0
0
0
0
0
0
0
0
0
0
0
0
0
0
0
0
0
0
0
0
0
0
0
0
0
0
0
0
0
0
0
0
0
1
1
1
1
1
1
1
1
1
1
1
1
1
1
1
1
1
1
1
1
1
1
1
1
1
1
1
1
1
1
2
2
2
2
2
2
2
2
2
2
2
2
2
2
2
2
2
2
2
2
2
2
2
2
2
2
2
2
2
2
3
3
3
3
3
3
3
3
3
3
3
3
3
3
3
3
3
3
3
3
3
3
3
3
3
3
3
3
3
3
4
4
4
4
4
4
4
4
4
4
4
4
4
4
4
4
4
4
4
4
4
4
4
4
4
4
4
4
4
4

LOOKUP_TABLE FreeFempp_table 5
1.00000000 0.00000000 0.00000000 1.00000000
1.00000000 1.00000000 0.00000000 1.00000000
1.00000000 0.00000000 1.00000000 1.00000000
0.00000000 1.00000000 0.00000000 1.00000000
0.00000000 1.00000000 1.00000000 1.00000000

POINT_DATA 961
FIELD FieldData 1
Density 1 961 float
4.85041380e-01 4.42239136e-01 4.38418329e-01 4.37978894e-01 4.37512219e-01 4.37026888e-01 4.36267227e-01 4.29685414e-01 2.22278863e-01 1.33172958e-03 1.90508261e-03 1.40891850e-01 4.06112015e-01 4.26710665e-01 4.90531772e-01 6.62544250e-01 7.75670350e-01 7.07494199e-01 6.50286496e-01 6.19145691e-01 5.88464260e-01 5.68791628e-01 5.51494300e-01 5.40258110e-01 5.32890856e-01 5.27255714e-01 5.22960484e-01 5.19714534e-01 5.17163754e-01 5.12598574e-01 5.42527795e-01 7.41334319e-01 4.06259179e-01 3.41497213e-01 3.40845287e-01 3.40581447e-01 3.40220839e-01 3.39864343e-01 3.37595075e-01 2.67907798e-01 1.27712975e-03 9.30419366e-04 3.41927521e-02 3.16584677e-01 3.33913386e-01 3.53363574e-01 6.68179750e-01 9.23548996e-01 8.95694911e-01 7.72707105e-01 7.21647620e-01 6.32118225e-01 6.05037808e-01 5.54905951e-01 5.19036949e-01 5.00423789e-01 4.87946332e-01 4.78830010e-01 4.72189993e-01 4.67270046e-01 4.60584044e-01 5.09404182e-01 2.98795901e-04 2.72945093e-04 2.73520738e-04 2.74207734e-04 2.75039842e-04 2.75771366e-04 2.75973522e-04 2.77051731e-04 2.81551736e-04 2.83972331e-04 3.00761691e-04 3.56669712e-04 3.41491491e-01 3.61559898e-01 3.26693594e-01 3.60882938e-01 9.39118385e-01 4.69889631e-03 2.33588414e-03 7.51221925e-02 3.41891915e-01 5.21062016e-01 5.62404633e-01 5.11928082e-01 4.84486401e-01 4.70348537e-01 4.61211622e-01 4.55078214e-01 4.50877905e-01 4.45435673e-01 5.03105700e-01 3.87254171e-04 2.57416163e-04 2.74394231e-04 2.73456913e-04 2.74112303e-04 2.74888967e-04 2.75219179e-04 2.75426835e-04 2.77867948e-04 2.84732610e-04 2.79426982e-04 2.31027574e-04 2.22017858e-04 2.64733855e-04 2.69481592e-04 2.28686690e-01 5.38185894e-01 8.51574779e-01 1.52788777e-03 1.43686240e-03 1.75664155e-03 4.24434617e-03 4.12082113e-02 5.36273360e-01 4.50710028e-01 4.44092810e-01 4.36849654e-01 4.32388663e-01 4.29580867e-01 4.25994009e-01 4.93786007e-01 4.09865528e-01 2.79272139e-01 2.77131528e-01 2.81935424e-01 2.87984282e-01 2.96360165e-01 3.07299763e-01 3.19800526e-01 3.32011610e-01 3.41845661e-01 3.31669062e-01 1.16962229e-03 2.77764630e-04 2.60232628e-04 2.06032390e-04 2.10246319e-04 3.12477845e-04 3.00155225e-04 9.97723162e-01 1.92342279e-03 1.33147452e-03 8.23661161e-04 6.59819169e-04 6.12583885e-04 6.01813018e-01 4.14271712e-01 4.10617143e-01 4.08557951e-01 4.07468408e-01 4.06008482e-01 4.83201563e-01 4.48744386e-01 3.21510613e-01 3.14441115e-01 3.17355067e-01 3.22325349e-01 3.28773767e-01 3.36305976e-01 3.43967825e-01 3.50784123e-01 3.56302917e-01 3.57862920e-01 3.50624621e-01 3.44782323e-01 3.23395193e-01 3.41049507e-02 2.79274129e-04 3.08536983e-04 2.28713921e-04 2.37301079e-04 9.92217302e-01 2.31213905e-02 1.75634411e-03 8.85012036e-04 4.34064103e-04 3.90564644e-04 5.95885515e-01 3.89266104e-01 3.89404356e-01 3.89478743e-01 3.89764994e-01 4.74033654e-01 4.92173791e-01 4.01692331e-01 3.99348050e-01 3.97546113e-01 3.97324860e-01 3.98238540e-01 3.99830163e-01 4.01633739e-01 4.03422296e-01 4.05278057e-01 4.06666577e-01 4.04723734e-01 4.00926173e-01 3.99514019e-01 3.94237131e-01 3.87287825e-01 3.76234084e-01 3.52749944e-01 2.56595900e-04 2.74709600e-04 9.61570144e-01 8.27061176e-01 8.02138627e-01 7.02174425e-01 3.70762311e-04 4.08010877e-04 3.80308896e-01 3.71308357e-01 3.77475858e-01 3.78879607e-01 4.67620760e-01 5.33830702e-01 4.85566229e-01 4.87892926e-01 4.83440727e-01 4.78914380e-01 4.75319475e-01 4.72842872e-01 4.71514583e-01 4.71268743e-01 4.71749693e-01 4.72070605e-01 4.71241683e-01 4.69363421e-01 4.65789884e-01 4.59417969e-01 4.52488214e-01 4.37667787e-01 4.17527437e-01 3.92151952e-01 2.94510071e-04 3.04097077e-04 8.71248007e-01 9.02241528e-01 9.00581956e-01 9.64728594e-01 5.42243070e-04 3.34809767e-04 4.62077498e-01 3.67002696e-01 3.73152345e-01 4.63824362e-01 5.68857253e-01 5.59159875e-01 5.60688853e-01 5.55598378e-01 5.49958944e-01 5.44963300e-01 5.41205645e-01 5.38945436e-01 5.38058341e-01 5.37930667e-01 5.37717581e-01 5.37132382e-01 5.36444008e-01 5.34937382e-01 5.32131016e-01 5.28789937e-01 5.22510350e-01 5.10278046e-01 4.91363764e-01 4.58660960e-01 3.21789208e-04 3.43340158e-04 6.53837051e-04 1.03752210e-03 6.97216531e-03 9.83332157e-01 2.88687326e-04 2.87497009e-04 3.83485436e-01 3.70274425e-01 4.62037474e-01 5.91437936e-01 6.10135913e-01 6.06735766e-01 6.01268709e-01 5.95898926e-01 5.91322958e-01 5.87936819e-01 5.85915685e-01 5.85074782e-01 5.84892213e-01 5.84908307e-01 5.85301459e-01 5.86612225e-01 5.88860393e-01 5.92336714e-01 5.97464502e-01 6.02860034e-01 6.07070029e-01 6.10580146e-01 6.17113531e-01 6.37728631e-01 4.74013767e-04 5.51823352e-04 6.31960109e-04 9.63646336e-04 2.06045131e-03 9.85867202e-01 2.96715094e-04 2.96900078e-04 3.61332685e-01 4.60254163e-01 5.96156418e-01 6.26398325e-01 6.15185857e-01 6.09272599e-01 6.05002701e-01 6.01881742e-01 5.99722385e-01 5.98435819e-01 5.97798526e-01 5.97500503e-01 5.97476304e-01 5.98205447e-01 6.00417435e-01 6.04620934e-01 6.11419022e-01 6.21027410e-01 6.32610977e-01 6.46136940e-01 6.63841248e-01 6.89516366e-01 7.41936266e-01 7.85721660e-01 8.36894035e-01 7.88048003e-03 1.70699437e-03 1.54625496e-03 1.48849888e-03 9.96780157e-01 3.10093514e-04 3.54854215e-04 4.12863582e-01 5.81415415e-01 6.03291452e-01 5.84110737e-01 5.76307833e-01 5.72832346e-01 5.71721017e-01 5.71601510e-01 5.71641386e-01 5.71351945e-01 5.70524216e-01 5.69340944e-01 5.68434358e-01 5.68602800e-01 5.70507109e-01 5.74692309e-01 5.81176400e-01 5.89446425e-01 6.00072443e-01 6.15554690e-01 6.39136314e-01 6.76160157e-01 7.32415855e-01 8.08822095e-01 8.61991942e-01 8.63111019e-01 3.82399887e-01 3.49322264e-03 5.34477532e-01 1.51893974e-03 3.83066363e-04 5.53467835e-04 5.52277923e-01 5.43486595e-01 5.17315626e-01 5.05293250e-01 5.02953470e-01 5.05095959e-01 5.08729458e-01 5.11799037e-01 5.13081729e-01 5.12195587e-01 5.09402692e-01 5.05392373e-01 5.00967860e-01 4.96795356e-01 4.93309766e-01 4.90542293e-01 4.88582134e-01 4.89004105e-01 4.95281607e-01 5.10884881e-01 5.37191927e-01 5.72222531e-01 6.14533663e-01 6.82735384e-01 7.51921058e-01 7.76670754e-01 3.58601898e-01 9.94689405e-01 1.12308364e-03 9.46845976e-04 6.59935351e-04 5.21867394e-01 4.57437366e-01 4.11627889e-01 3.95125508e-01 3.98572803e-01 4.09308642e-01 4.22143668e-01 4.33117092e-01 4.39836919e-01 4.41805989e-01 4.39453334e-01 4.33599681e-01 4.25125837e-01 4.14773464e-01 4.03075814e-01 3.90464664e-01 3.78076047e-01 3.69068950e-01 3.68643850e-01 3.81690592e-01 4.09329295e-01 4.46216673e-01 4.83032018e-01 5.20239830e-01 5.76959193e-01 7.04166234e-01 8.87849569e-01 9.61681306e-01 7.66841986e-04 8.37772328e-04 2.45389389e-03 5.07259727e-01 3.69212717e-01 2.75149465e-01 2.57899642e-01 2.75959820e-01 3.02872092e-01 3.30025822e-01 3.53800893e-01 3.70812654e-01 3.79966110e-01 3.81884843e-01 3.77652943e-01 3.68345946e-01 3.54880273e-01 3.38027388e-01 3.18756193e-01 2.99287856e-01 2.84323841e-01 2.80618578e-01 2.94492304e-01 3.29034388e-01 3.82065564e-01 4.46402401e-01 5.23754656e-01 6.47677124e-01 8.42184305e-01 9.37761664e-01 8.54075551e-01 7.09087704e-04 7.29403400e-04 6.37887977e-03 5.18458068e-01 3.01165909e-01 1.48115516e-01 1.35319144e-01 1.64482325e-01 2.07255706e-01 2.50721902e-01 2.89471656e-01 3.19380224e-01 3.38517994e-01 3.47496599e-01 3.47669393e-01 3.40333730e-01 3.26555908e-01 3.07274431e-01 2.83924788e-01 2.59882092e-01 2.41670638e-01 2.37811655e-01 2.56425709e-01 3.04693818e-01 3.89357090e-01 5.09023786e-01 6.61882102e-01 8.32544088e-01 9.28777337e-01 9.30238247e-01 5.28875226e-03 7.68609927e-04 6.99045660e-04 3.61878797e-02 5.50884962e-01 2.62983114e-01 7.07016960e-02 6.28390536e-02 9.06377211e-02 1.39174342e-01 1.95488870e-01 2.48341188e-01 2.90873706e-01 3.20054322e-01 3.36384565e-01 3.41546506e-01 3.37107748e-01 3.24242830e-01 3.03990334e-01 2.78350443e-01 2.52276570e-01 2.34635606e-01 2.36489728e-01 2.70227611e-01 3.51378679e-01 4.98327494e-01 6.87062204e-01 8.49167585e-01 9.20976818e-01 9.22112286e-01 2.89332271e-02 1.98670663e-03 1.13660702e-03 9.28902882e-04 2.26959109e-01 5.88114440e-01 2.54198730e-01 3.20396572e-02 2.77309641e-02 5.03507219e-02 9.94995013e-02 1.66334823e-01 2.31980190e-01 2.85357863e-01 3.22414696e-01 3.44156355e-01 3.52971792e-01 3.50855768e-01 3.39176804e-01 3.19296628e-01 2.94321865e-01 2.71554410e-01 2.63117313e-01 2.84814268e-01 3.56781095e-01 5.00098884e-01 7.11668193e-01 8.65495324e-01 9.19553399e-01 8.99199486e-01 6.72726929e-02 2.61364318e-03 1.28932507e-03 1.36664754e-03 1.82134984e-03 3.61399531e-01 6.15392506e-01 2.68485755e-01 1.38393296e-02 1.20123299e-02 2.88320668e-02 8.00718740e-02 1.60208926e-01 2.38297731e-01 2.99476147e-01 3.40625823e-01 3.64642471e-01 3.74972671e-01 3.74181449e-01 3.64158750e-01 3.47317636e-01 3.28989446e-01 3.20271850e-01 3.39397699e-01 4.11735028e-01 5.58896184e-01 7.49263704e-01 8.82849514e-01 9.16959941e-01 8.34861875e-01 4.20061722e-02 2.75085098e-03 1.46375026e-03 1.41694036e-03 1.76749658e-03 9.17549431e-03 4.00539905e-01 6.28313184e-01 2.98035294e-01 5.97448228e-03 5.61911613e-03 1.77146085e-02 7.51101151e-02 1.74722031e-01 2.63414532e-01 3.26936394e-01 3.67576063e-01 3.90797883e-01 4.00873840e-01 4.00995463e-01 3.94145727e-01 3.84916216e-01 3.82400602e-01 4.03628588e-01 4.75330323e-01 6.20966196e-01 7.93809950e-01 8.87979031e-01 8.92935991e-01 5.27287781e-01 1.61567237e-02 2.61225179e-03 1.81869161e-03 1.56862533e-03 2.06108112e-03 8.45213607e-03 1.54339299e-01 4.38391298e-01 6.29358351e-01 3.35550338e-01 2.82931118e-03 3.06483661e-03 1.24747483e-02 8.33780095e-02 2.08260074e-01 3.00654322e-01 3.59586656e-01 3.95866752e-01 4.16276962e-01 4.25288439e-01 4.26698178e-01 4.24990535e-01 4.27481472e-01 4.47132349e-01 5.04582345e-01 6.20469809e-01 7.73722410e-01 8.80438209e-01 9.04912770e-01 6.20599806e-01 3.29008475e-02 7.56444922e-03 3.09165101e-03 2.12611980e-03 3.75161250e-03 2.15847380e-02 2.06047937e-01 3.81541342e-01 4.73333836e-01 6.23024881e-01 3.74378562e-01 1.70740962e-03 1.99717260e-03 1.05183767e-02 1.07167378e-01 2.55748361e-01 3.40779245e-01 3.90205622e-01 4.20210540e-01 4.37064201e-01 4.45006609e-01 4.48283195e-01 4.52593446e-01 4.66968089e-01 5.05251110e-01 5.83551407e-01 7.02415645e-01 8.18890989e-01 8.82956862e-01 8.77356768e-01 6.80619538e-01 1.08462594e-01 1.41515387e-02 1.22920424e-02 3.47449854e-02 2.00565159e-01 5.05048692e-01 5.57059824e-01 5.64803720e-01 5.45975745e-01 6.13843858e-01 4.08547044e-01 1.32307410e-03 1.50973559e-03 1.04282871e-02 1.48211777e-01 3.06563199e-01 3.76138955e-01 4.14728284e-01 4.38158095e-01 4.51535612e-01 4.58772540e-01 4.64179009e-01 4.73717839e-01 4.96169865e-01 5.42734146e-01 6.21136129e-01 7.20175624e-01 8.04450750e-01 8.45514953e-01 8.27890337e-01 6.98199451e-01 4.78296220e-01 5.19641697e-01 6.79424465e-01 7.69706666e-01 7.73931205e-01 7.24259198e-01 6.83290720e-01 6.88639224e-01 6.20416164e-01 6.04529798e-01 4.34953719e-01 1.19934848e-03 1.27354951e-03 1.09672723e-02 2.00659320e-01 3.50724846e-01 4.03505236e-01 4.31817472e-01 4.48954731e-01 4.59313720e-01 4.66354430e-01 4.73850787e-01 4.86944109e-01 5.12610435e-01 5.58058202e-01 6.24812067e-01 7.00103045e-01 7.59643197e-01 7.84586787e-01 7.64468729e-01 6.96320415e-01 6.57566667e-01 7.10373461e-01 7.43729830e-01 7.21773744e-01 6.92782640e-01 6.76312089e-01 6.76940262e-01 6.99138224e-01 6.41559362e-01 5.94355762e-01 4.55501825e-01 1.23564247e-03 1.16179138e-03 9.88935307e-03 2.51750082e-01 3.85081977e-01 4.22487199e-01 4.40948129e-01 4.52213913e-01 4.60320443e-01 4.67837960e-01 4.77354586e-01 4.92450118e-01 5.17727196e-01 5.56960762e-01 6.08784556e-01 6.62758172e-01 7.02656209e-01 7.15204656e-01 6.94144189e-01 6.48126006e-01 6.15613103e-01 6.10787034e-01 5.95867217e-01 5.77995121e-01 5.76908171e-01 5.94348371e-01 6.22471869e-01 6.49969578e-01 6.17766976e-01 5.80186009e-01 4.72657353e-01 1.53198489e-03 1.08920946e-03 5.81055786e-03 2.94533908e-01 4.10919964e-01 4.32652593e-01 4.41179574e-01 4.47484583e-01 4.54543680e-01 4.63384092e-01 4.74998206e-01 4.91180539e-01 5.14339268e-01 5.45980036e-01 5.84046841e-01 6.21216297e-01 6.47062778e-01 6.52643561e-01 6.33905947e-01 5.96503258e-01 5.58314204e-01 5.32919407e-01 5.19357204e-01 5.16216099e-01 5.27262390e-01 5.49755991e-01 5.75429022e-01 5.96079469e-01 5.86240351e-01 5.58249056e-01 4.83350337e-01 2.49851495e-03 9.60021338e-04 2.23872275e-03 3.33285928e-01 4.28415209e-01 4.32141155e-01 4.31468666e-01 4.34719533e-01 4.42285806e-01 4.53281522e-01 4.67216849e-01 4.84340847e-01 5.05321085e-01 5.30309677e-01 5.57577133e-01 5.82753658e-01 5.99882364e-01 6.03654504e-01 5.91377020e-01 5.65405428e-01 5.34740150e-01 5.10646999e-01 5.00008881e-01 5.01368523e-01 5.11254430e-01 5.26170492e-01 5.42126656e-01 5.55262625e-01 5.62749922e-01 5.25935411e-01 4.93304342e-01 6.60604425e-03 7.96738837e-04 1.13463076e-03 3.72292250e-01 4.34515804e-01 4.19237554e-01 4.12490070e-01 4.15355891e-01 4.24666494e-01 4.38157767e-01 4.54598695e-01 4.73261625e-01 4.93495852e-01 5.14446318e-01 5.34760118e-01 5.52358091e-01 5.64601600e-01 5.68884313e-01 5.63421667e-01 5.48527122e-01 5.28144181e-01 5.09415269e-01 4.98798341e-01 4.96974647e-01 5.00708997e-01 5.07232904e-01 5.13989925e-01 5.20429492e-01 5.44684589e-01 4.94726866e-01 4.62220907e-01 6.92581162e-02 7.17308198e-04 8.10141792e-04 4.07587171e-01 4.25508440e-01 3.96567792e-01 3.88978899e-01 3.93244624e-01 4.03933793e-01 4.19003755e-01 4.37630773e-01 4.58912015e-01 4.81345445e-01 5.02975881e-01 5.21910787e-01 5.36720216e-01 5.46394825e-01 5.50034583e-01 5.46867371e-01 5.37015080e-01 5.22463500e-01 5.07030666e-01 4.94819880e-01 4.87628132e-01 4.84477729e-01 4.83751416e-01 4.83924240e-01 4.85930383e-01 5.27532458e-01 5.28236210e-01 4.53807831e-01 4.15088147e-01 6.19778642e-04 7.28493789e-04 4.45276946e-01 4.07395303e-01 3.74444455e-01 3.68462771e-01 3.72404695e-01 3.82093638e-01 3.97226542e-01 4.18058366e-01 4.44075912e-01 4.73376960e-01 5.02678812e-01 5.28031230e-01 5.45927227e-01 5.54200411e-01 5.52421153e-01 5.42048991e-01 5.26362598e-01 5.09381115e-01 4.93900627e-01 4.80829597e-01 4.70210016e-01 4.61805016e-01 4.55305189e-01 4.50732350e-01 4.51269060e-01 5.10961950e-01 5.71928442e-01 5.53121269e-01 5.29088259e-01 9.66041582e-04 7.43567711e-04 6.43619716e-01 4.85398769e-01 4.63699222e-01 4.57114756e-01 4.56734866e-01 4.60462421e-01 4.68233347e-01 4.80172008e-01 4.95895565e-01 5.14218330e-01 5.33125877e-01 5.50014853e-01 5.62177241e-01 5.67446768e-01 5.64895213e-01 5.55464506e-01 5.42223394e-01 5.29429376e-01 5.20008802e-01 5.13795376e-01 5.08888423e-01 5.04100621e-01 4.99494851e-01 4.95843232e-01 4.94095564e-01 5.17990291e-01 
