# vtk DataFile Version 2.0
results_case1_non_linear/iter6.vtk, Created by Freefem++ 
ASCII
DATASET UNSTRUCTURED_GRID
POINTS 961 float
0 0 0
0.033333333 0 0
0.066666667 0 0
0.1 0 0
0.13333333 0 0
0.16666667 0 0
0.2 0 0
0.23333333 0 0
0.26666667 0 0
0.3 0 0
0.33333333 0 0
0.36666667 0 0
0.4 0 0
0.43333333 0 0
0.46666667 0 0
0.5 0 0
0.53333333 0 0
0.56666667 0 0
0.6 0 0
0.63333333 0 0
0.66666667 0 0
0.7 0 0
0.73333333 0 0
0.76666667 0 0
0.8 0 0
0.83333333 0 0
0.86666667 0 0
0.9 0 0
0.93333333 0 0
0.96666667 0 0
1 0 0
0 0.033333333 0
0.033333333 0.033333333 0
0.066666667 0.033333333 0
0.1 0.033333333 0
0.13333333 0.033333333 0
0.16666667 0.033333333 0
0.2 0.033333333 0
0.23333333 0.033333333 0
0.26666667 0.033333333 0
0.3 0.033333333 0
0.33333333 0.033333333 0
0.36666667 0.033333333 0
0.4 0.033333333 0
0.43333333 0.033333333 0
0.46666667 0.033333333 0
0.5 0.033333333 0
0.53333333 0.033333333 0
0.56666667 0.033333333 0
0.6 0.033333333 0
0.63333333 0.033333333 0
0.66666667 0.033333333 0
0.7 0.033333333 0
0.73333333 0.033333333 0
0.76666667 0.033333333 0
0.8 0.033333333 0
0.83333333 0.033333333 0
0.86666667 0.033333333 0
0.9 0.033333333 0
0.93333333 0.033333333 0
0.96666667 0.033333333 0
1 0.033333333 0
0 0.066666667 0
0.033333333 0.066666667 0
0.066666667 0.066666667 0
0.1 0.066666667 0
0.13333333 0.066666667 0
0.16666667 0.066666667 0
0.2 0.066666667 0
0.23333333 0.066666667 0
0.26666667 0.066666667 0
0.3 0.066666667 0
0.33333333 0.066666667 0
0.36666667 0.066666667 0
0.4 0.066666667 0
0.43333333 0.066666667 0
0.46666667 0.066666667 0
0.5 0.066666667 0
0.53333333 0.066666667 0
0.56666667 0.066666667 0
0.6 0.066666667 0
0.63333333 0.066666667 0
0.66666667 0.066666667 0
0.7 0.066666667 0
0.73333333 0.066666667 0
0.76666667 0.066666667 0
0.8 0.066666667 0
0.83333333 0.066666667 0
0.86666667 0.066666667 0
0.9 0.066666667 0
0.93333333 0.066666667 0
0.96666667 0.066666667 0
1 0.066666667 0
0 0.1 0
0.033333333 0.1 0
0.066666667 0.1 0
0.1 0.1 0
0.13333333 0.1 0
0.16666667 0.1 0
0.2 0.1 0
0.23333333 0.1 0
0.26666667 0.1 0
0.3 0.1 0
0.33333333 0.1 0
0.36666667 0.1 0
0.4 0.1 0
0.43333333 0.1 0
0.46666667 0.1 0
0.5 0.1 0
0.53333333 0.1 0
0.56666667 0.1 0
0.6 0.1 0
0.63333333 0.1 0
0.66666667 0.1 0
0.7 0.1 0
0.73333333 0.1 0
0.76666667 0.1 0
0.8 0.1 0
0.83333333 0.1 0
0.86666667 0.1 0
0.9 0.1 0
0.93333333 0.1 0
0.96666667 0.1 0
1 0.1 0
0 0.13333333 0
0.033333333 0.13333333 0
0.066666667 0.13333333 0
0.1 0.13333333 0
0.13333333 0.13333333 0
0.16666667 0.13333333 0
0.2 0.13333333 0
0.23333333 0.13333333 0
0.26666667 0.13333333 0
0.3 0.13333333 0
0.33333333 0.13333333 0
0.36666667 0.13333333 0
0.4 0.13333333 0
0.43333333 0.13333333 0
0.46666667 0.13333333 0
0.5 0.13333333 0
0.53333333 0.13333333 0
0.56666667 0.13333333 0
0.6 0.13333333 0
0.63333333 0.13333333 0
0.66666667 0.13333333 0
0.7 0.13333333 0
0.73333333 0.13333333 0
0.76666667 0.13333333 0
0.8 0.13333333 0
0.83333333 0.13333333 0
0.86666667 0.13333333 0
0.9 0.13333333 0
0.93333333 0.13333333 0
0.96666667 0.13333333 0
1 0.13333333 0
0 0.16666667 0
0.033333333 0.16666667 0
0.066666667 0.16666667 0
0.1 0.16666667 0
0.13333333 0.16666667 0
0.16666667 0.16666667 0
0.2 0.16666667 0
0.23333333 0.16666667 0
0.26666667 0.16666667 0
0.3 0.16666667 0
0.33333333 0.16666667 0
0.36666667 0.16666667 0
0.4 0.16666667 0
0.43333333 0.16666667 0
0.46666667 0.16666667 0
0.5 0.16666667 0
0.53333333 0.16666667 0
0.56666667 0.16666667 0
0.6 0.16666667 0
0.63333333 0.16666667 0
0.66666667 0.16666667 0
0.7 0.16666667 0
0.73333333 0.16666667 0
0.76666667 0.16666667 0
0.8 0.16666667 0
0.83333333 0.16666667 0
0.86666667 0.16666667 0
0.9 0.16666667 0
0.93333333 0.16666667 0
0.96666667 0.16666667 0
1 0.16666667 0
0 0.2 0
0.033333333 0.2 0
0.066666667 0.2 0
0.1 0.2 0
0.13333333 0.2 0
0.16666667 0.2 0
0.2 0.2 0
0.23333333 0.2 0
0.26666667 0.2 0
0.3 0.2 0
0.33333333 0.2 0
0.36666667 0.2 0
0.4 0.2 0
0.43333333 0.2 0
0.46666667 0.2 0
0.5 0.2 0
0.53333333 0.2 0
0.56666667 0.2 0
0.6 0.2 0
0.63333333 0.2 0
0.66666667 0.2 0
0.7 0.2 0
0.73333333 0.2 0
0.76666667 0.2 0
0.8 0.2 0
0.83333333 0.2 0
0.86666667 0.2 0
0.9 0.2 0
0.93333333 0.2 0
0.96666667 0.2 0
1 0.2 0
0 0.23333333 0
0.033333333 0.23333333 0
0.066666667 0.23333333 0
0.1 0.23333333 0
0.13333333 0.23333333 0
0.16666667 0.23333333 0
0.2 0.23333333 0
0.23333333 0.23333333 0
0.26666667 0.23333333 0
0.3 0.23333333 0
0.33333333 0.23333333 0
0.36666667 0.23333333 0
0.4 0.23333333 0
0.43333333 0.23333333 0
0.46666667 0.23333333 0
0.5 0.23333333 0
0.53333333 0.23333333 0
0.56666667 0.23333333 0
0.6 0.23333333 0
0.63333333 0.23333333 0
0.66666667 0.23333333 0
0.7 0.23333333 0
0.73333333 0.23333333 0
0.76666667 0.23333333 0
0.8 0.23333333 0
0.83333333 0.23333333 0
0.86666667 0.23333333 0
0.9 0.23333333 0
0.93333333 0.23333333 0
0.96666667 0.23333333 0
1 0.23333333 0
0 0.26666667 0
0.033333333 0.26666667 0
0.066666667 0.26666667 0
0.1 0.26666667 0
0.13333333 0.26666667 0
0.16666667 0.26666667 0
0.2 0.26666667 0
0.23333333 0.26666667 0
0.26666667 0.26666667 0
0.3 0.26666667 0
0.33333333 0.26666667 0
0.36666667 0.26666667 0
0.4 0.26666667 0
0.43333333 0.26666667 0
0.46666667 0.26666667 0
0.5 0.26666667 0
0.53333333 0.26666667 0
0.56666667 0.26666667 0
0.6 0.26666667 0
0.63333333 0.26666667 0
0.66666667 0.26666667 0
0.7 0.26666667 0
0.73333333 0.26666667 0
0.76666667 0.26666667 0
0.8 0.26666667 0
0.83333333 0.26666667 0
0.86666667 0.26666667 0
0.9 0.26666667 0
0.93333333 0.26666667 0
0.96666667 0.26666667 0
1 0.26666667 0
0 0.3 0
0.033333333 0.3 0
0.066666667 0.3 0
0.1 0.3 0
0.13333333 0.3 0
0.16666667 0.3 0
0.2 0.3 0
0.23333333 0.3 0
0.26666667 0.3 0
0.3 0.3 0
0.33333333 0.3 0
0.36666667 0.3 0
0.4 0.3 0
0.43333333 0.3 0
0.46666667 0.3 0
0.5 0.3 0
0.53333333 0.3 0
0.56666667 0.3 0
0.6 0.3 0
0.63333333 0.3 0
0.66666667 0.3 0
0.7 0.3 0
0.73333333 0.3 0
0.76666667 0.3 0
0.8 0.3 0
0.83333333 0.3 0
0.86666667 0.3 0
0.9 0.3 0
0.93333333 0.3 0
0.96666667 0.3 0
1 0.3 0
0 0.33333333 0
0.033333333 0.33333333 0
0.066666667 0.33333333 0
0.1 0.33333333 0
0.13333333 0.33333333 0
0.16666667 0.33333333 0
0.2 0.33333333 0
0.23333333 0.33333333 0
0.26666667 0.33333333 0
0.3 0.33333333 0
0.33333333 0.33333333 0
0.36666667 0.33333333 0
0.4 0.33333333 0
0.43333333 0.33333333 0
0.46666667 0.33333333 0
0.5 0.33333333 0
0.53333333 0.33333333 0
0.56666667 0.33333333 0
0.6 0.33333333 0
0.63333333 0.33333333 0
0.66666667 0.33333333 0
0.7 0.33333333 0
0.73333333 0.33333333 0
0.76666667 0.33333333 0
0.8 0.33333333 0
0.83333333 0.33333333 0
0.86666667 0.33333333 0
0.9 0.33333333 0
0.93333333 0.33333333 0
0.96666667 0.33333333 0
1 0.33333333 0
0 0.36666667 0
0.033333333 0.36666667 0
0.066666667 0.36666667 0
0.1 0.36666667 0
0.13333333 0.36666667 0
0.16666667 0.36666667 0
0.2 0.36666667 0
0.23333333 0.36666667 0
0.26666667 0.36666667 0
0.3 0.36666667 0
0.33333333 0.36666667 0
0.36666667 0.36666667 0
0.4 0.36666667 0
0.43333333 0.36666667 0
0.46666667 0.36666667 0
0.5 0.36666667 0
0.53333333 0.36666667 0
0.56666667 0.36666667 0
0.6 0.36666667 0
0.63333333 0.36666667 0
0.66666667 0.36666667 0
0.7 0.36666667 0
0.73333333 0.36666667 0
0.76666667 0.36666667 0
0.8 0.36666667 0
0.83333333 0.36666667 0
0.86666667 0.36666667 0
0.9 0.36666667 0
0.93333333 0.36666667 0
0.96666667 0.36666667 0
1 0.36666667 0
0 0.4 0
0.033333333 0.4 0
0.066666667 0.4 0
0.1 0.4 0
0.13333333 0.4 0
0.16666667 0.4 0
0.2 0.4 0
0.23333333 0.4 0
0.26666667 0.4 0
0.3 0.4 0
0.33333333 0.4 0
0.36666667 0.4 0
0.4 0.4 0
0.43333333 0.4 0
0.46666667 0.4 0
0.5 0.4 0
0.53333333 0.4 0
0.56666667 0.4 0
0.6 0.4 0
0.63333333 0.4 0
0.66666667 0.4 0
0.7 0.4 0
0.73333333 0.4 0
0.76666667 0.4 0
0.8 0.4 0
0.83333333 0.4 0
0.86666667 0.4 0
0.9 0.4 0
0.93333333 0.4 0
0.96666667 0.4 0
1 0.4 0
0 0.43333333 0
0.033333333 0.43333333 0
0.066666667 0.43333333 0
0.1 0.43333333 0
0.13333333 0.43333333 0
0.16666667 0.43333333 0
0.2 0.43333333 0
0.23333333 0.43333333 0
0.26666667 0.43333333 0
0.3 0.43333333 0
0.33333333 0.43333333 0
0.36666667 0.43333333 0
0.4 0.43333333 0
0.43333333 0.43333333 0
0.46666667 0.43333333 0
0.5 0.43333333 0
0.53333333 0.43333333 0
0.56666667 0.43333333 0
0.6 0.43333333 0
0.63333333 0.43333333 0
0.66666667 0.43333333 0
0.7 0.43333333 0
0.73333333 0.43333333 0
0.76666667 0.43333333 0
0.8 0.43333333 0
0.83333333 0.43333333 0
0.86666667 0.43333333 0
0.9 0.43333333 0
0.93333333 0.43333333 0
0.96666667 0.43333333 0
1 0.43333333 0
0 0.46666667 0
0.033333333 0.46666667 0
0.066666667 0.46666667 0
0.1 0.46666667 0
0.13333333 0.46666667 0
0.16666667 0.46666667 0
0.2 0.46666667 0
0.23333333 0.46666667 0
0.26666667 0.46666667 0
0.3 0.46666667 0
0.33333333 0.46666667 0
0.36666667 0.46666667 0
0.4 0.46666667 0
0.43333333 0.46666667 0
0.46666667 0.46666667 0
0.5 0.46666667 0
0.53333333 0.46666667 0
0.56666667 0.46666667 0
0.6 0.46666667 0
0.63333333 0.46666667 0
0.66666667 0.46666667 0
0.7 0.46666667 0
0.73333333 0.46666667 0
0.76666667 0.46666667 0
0.8 0.46666667 0
0.83333333 0.46666667 0
0.86666667 0.46666667 0
0.9 0.46666667 0
0.93333333 0.46666667 0
0.96666667 0.46666667 0
1 0.46666667 0
0 0.5 0
0.033333333 0.5 0
0.066666667 0.5 0
0.1 0.5 0
0.13333333 0.5 0
0.16666667 0.5 0
0.2 0.5 0
0.23333333 0.5 0
0.26666667 0.5 0
0.3 0.5 0
0.33333333 0.5 0
0.36666667 0.5 0
0.4 0.5 0
0.43333333 0.5 0
0.46666667 0.5 0
0.5 0.5 0
0.53333333 0.5 0
0.56666667 0.5 0
0.6 0.5 0
0.63333333 0.5 0
0.66666667 0.5 0
0.7 0.5 0
0.73333333 0.5 0
0.76666667 0.5 0
0.8 0.5 0
0.83333333 0.5 0
0.86666667 0.5 0
0.9 0.5 0
0.93333333 0.5 0
0.96666667 0.5 0
1 0.5 0
0 0.53333333 0
0.033333333 0.53333333 0
0.066666667 0.53333333 0
0.1 0.53333333 0
0.13333333 0.53333333 0
0.16666667 0.53333333 0
0.2 0.53333333 0
0.23333333 0.53333333 0
0.26666667 0.53333333 0
0.3 0.53333333 0
0.33333333 0.53333333 0
0.36666667 0.53333333 0
0.4 0.53333333 0
0.43333333 0.53333333 0
0.46666667 0.53333333 0
0.5 0.53333333 0
0.53333333 0.53333333 0
0.56666667 0.53333333 0
0.6 0.53333333 0
0.63333333 0.53333333 0
0.66666667 0.53333333 0
0.7 0.53333333 0
0.73333333 0.53333333 0
0.76666667 0.53333333 0
[...]
CELL_DATA 1920
Scalars  Label int 1
LOOKUP_TABLE FreeFempp_table
0
0
0
0
0
0
0
0
0
0
0
0
0
0
0
0
0
0
0
0
0
0
0
0
0
0
0
0
0
0
0
0
0
0
0
0
0
0
0
0
0
0
0
0
0
0
0
0
0
0
0
0
0
0
0
0
0
0
0
0
0
0
0
0
0
0
0
0
0
0
0
0
0
0
0
0
0
0
0
0
0
0
0
0
0
0
0
0
0
0
0
0
0
0
0
0
0
0
0
0
0
0
0
0
0
0
0
0
0
0
0
0
0
0
0
0
0
0
0
0
0
0
0
0
0
0
0
0
0
0
0
0
0
0
0
0
0
0
0
0
0
0
0
0
0
0
0
0
0
0
0
0
0
0
0
0
0
0
0
0
0
0
0
0
0
0
0
0
0
0
0
0
0
0
0
0
0
0
0
0
0
0
0
0
0
0
0
0
0
0
0
0
0
0
0
0
0
0
0
0
0
0
0
0
0
0
0
0
0
0
0
0
0
0
0
0
0
0
0
0
0
0
0
0
0
0
0
0
0
0
0
0
0
0
0
0
0
0
0
0
0
0
0
0
0
0
0
0
0
0
0
0
0
0
0
0
0
0
0
0
0
0
0
0
0
0
0
0
0
0
0
0
0
0
0
0
0
0
0
0
0
0
0
0
0
0
0
0
0
0
0
0
0
0
0
0
0
0
0
0
0
0
0
0
0
0
0
0
0
0
0
0
0
0
0
0
0
0
0
0
0
0
0
0
0
0
0
0
0
0
0
0
0
0
0
0
0
0
0
0
0
0
0
0
0
0
0
0
0
0
0
0
0
0
0
0
0
0
0
0
0
0
0
0
0
0
0
0
0
0
0
0
0
0
0
0
0
0
0
0
0
0
0
0
0
0
0
0
0
0
0
0
0
0
0
0
0
0
0
0
0
0
0
0
0
0
0
0
0
0
0
0
0
0
0
0
0
0
0
0
0
0
0
0
0
0
0
0
0
0
0
0
0
0
0
0
0
0
0
0
0
0
0
0
0
0
0
0
0
0
0
0
0
0
0
0
0
0
0
0
0
0
0
0
0
0
0
0
0
0
0
0
0
0
0
0
0
0
0
0
0
0
0
0
0
0
0
0
0
0
0
0
0
0
0
0
0
0
0
0
0
0
0
0
0
0
0
0
0
0
0
0
0
0
0
0
0
0
0
0
0
0
0
0
0
0
0
0
0
0
0
0
0
0
0
0
0
0
0
0
0
0
0
0
0
0
0
0
0
0
0
0
0
0
0
0
0
0
0
0
0
0
0
0
0
0
0
0
0
0
0
0
0
0
0
0
0
0
0
0
0
0
0
0
0
0
0
0
0
0
0
0
0
0
0
0
0
0
0
0
0
0
0
0
0
0
0
0
0
0
0
0
0
0
0
0
0
0
0
0
0
0
0
0
0
0
0
0
0
0
0
0
0
0
0
0
0
0
0
0
0
0
0
0
0
0
0
0
0
0
0
0
0
0
0
0
0
0
0
0
0
0
0
0
0
0
0
0
0
0
0
0
0
0
0
0
0
0
0
0
0
0
0
0
0
0
0
0
0
0
0
0
0
0
0
0
0
0
0
0
0
0
0
0
0
0
0
0
0
0
0
0
0
0
0
0
0
0
0
0
0
0
0
0
0
0
0
0
0
0
0
0
0
0
0
0
0
0
0
0
0
0
0
0
0
0
0
0
0
0
0
0
0
0
0
0
0
0
0
0
0
0
0
0
0
0
0
0
0
0
0
0
0
0
0
0
0
0
0
0
0
0
0
0
0
0
0
0
0
0
0
0
0
0
0
0
0
0
0
0
0
0
0
0
0
0
0
0
0
0
0
0
0
0
0
0
0
0
0
0
0
0
0
0
0
0
0
0
0
0
0
0
0
0
0
0
0
0
0
0
0
0
0
0
0
0
0
0
0
0
0
0
0
0
0
0
0
0
0
0
0
0
0
0
0
0
0
0
0
0
0
0
0
0
0
0
0
0
0
0
0
0
0
0
0
0
0
0
0
0
0
0
0
0
0
0
0
0
0
0
0
0
0
0
0
0
0
0
0
0
0
0
0
0
0
0
0
0
0
0
0
0
0
0
0
0
0
0
0
0
0
0
0
0
0
0
0
0
0
0
0
0
0
0
0
0
0
0
0
0
0
0
0
0
0
0
0
0
0
0
0
0
0
0
0
0
0
0
0
0
0
0
0
0
0
0
0
0
0
0
0
0
0
0
0
0
0
0
0
0
0
0
0
0
0
0
0
0
0
0
0
0
0
0
0
0
0
0
0
0
0
0
0
0
0
0
0
0
0
0
0
0
0
0
0
0
0
0
0
0
0
0
0
0
0
0
0
0
0
0
0
0
0
0
0
0
0
0
0
0
0
0
0
0
0
0
0
0
0
0
0
0
0
0
0
0
0
0
0
0
0
0
0
0
0
0
0
0
0
0
0
0
0
0
0
0
0
0
0
0
0
0
0
0
0
0
0
0
0
0
0
0
0
0
0
0
0
0
0
0
0
0
0
0
0
0
0
0
0
0
0
0
0
0
0
0
0
0
0
0
0
0
0
0
0
0
0
0
0
0
0
0
0
0
0
0
0
0
0
0
0
0
0
0
0
0
0
0
0
0
0
0
0
0
0
0
0
0
0
0
0
0
0
0
0
0
0
0
0
0
0
0
0
0
0
0
0
0
0
0
0
0
0
0
0
0
0
0
0
0
0
0
0
0
0
0
0
0
0
0
0
0
0
0
0
0
0
0
0
0
0
0
0
0
0
0
0
0
0
0
0
0
0
0
0
0
0
0
0
0
0
0
0
0
0
0
0
0
0
0
0
0
0
0
0
0
0
0
0
0
0
0
0
0
0
0
0
0
0
0
0
0
0
0
0
0
0
0
0
0
0
0
0
0
0
0
0
0
0
0
0
0
0
0
0
0
0
0
0
0
0
0
0
0
0
0
0
0
0
0
0
0
0
0
0
0
0
0
0
0
0
0
0
0
0
0
0
0
0
0
0
0
0
0
0
0
0
0
0
0
0
0
0
0
0
0
0
0
0
0
0
0
0
0
0
0
0
0
0
0
0
0
0
0
0
0
0
0
0
0
0
0
0
0
0
0
0
0
0
0
0
0
0
0
0
0
0
0
0
0
0
0
0
0
0
0
0
0
0
0
0
0
0
0
0
0
0
0
0
0
0
0
0
0
0
0
0
0
0
0
0
0
0
0
0
0
0
0
0
0
0
0
0
0
0
0
0
0
0
0
0
0
0
0
0
0
0
0
0
0
0
0
0
0
0
0
0
0
0
0
0
0
0
0
0
0
0
0
0
0
0
0
0
0
0
0
0
0
0
0
0
0
0
0
0
0
0
0
0
0
0
0
0
0
0
0
0
0
0
0
0
0
0
0
0
0
0
0
0
0
0
0
0
0
0
0
0
0
0
0
0
0
0
0
0
0
0
0
0
0
0
0
0
0
0
0
0
0
0
0
0
0
0
0
0
0
0
0
0
0
0
0
0
0
0
0
0
0
0
0
0
0
0
0
0
0
0
0
0
0
0
0
0
0
0
0
0
0
0
0
0
0
0
0
0
0
0
0
0
0
0
0
0
0
0
0
0
0
0
0
0
0
0
0
0
0
0
0
0
0
0
0
0
0
0
0
0
0
0
0
0
0
0
0
0
0
0
0
0
0
0
0
0
0
0
0
0
0
0
0
0
0
0
0
0
0
0
0
0
0
0
0
0
0
0
0
0
0
0
0
0
0
0
0
0
0
0
0
0
0
0
0
0
0
0
0
0
0
0
0
0
0
0
0
0
0
0
0
0
0
0
0
0
0
0
0
0
0
0
0
0
0
0
0
0
0
0
0
0
0
0
0
0
0
0
0
0
0
0
0
0
0
0
0
0
0
0
0
0
0
0
0
0
0
0
0
0
0
0
0
0
0
0
0
0
0
0
0
0
0
0
0
0
0
0
0
0
0
0
0
0
0
0
0
0
0
0
0
0
0
0
0
0
0
0
0
0
0
0
0
0
0
0
0
0
0
0
0
0
0
0
0
0
0
0
0
0
0
0
0
1
1
1
1
1
1
1
1
1
1
1
1
1
1
1
1
1
1
1
1
1
1
1
1
1
1
1
1
1
1
2
2
2
2
2
2
2
2
2
2
2
2
2
2
2
2
2
2
2
2
2
2
2
2
2
2
2
2
2
2
3
3
3
3
3
3
3
3
3
3
3
3
3
3
3
3
3
3
3
3
3
3
3
3
3
3
3
3
3
3
4
4
4
4
4
4
4
4
4
4
4
4
4
4
4
4
4
4
4
4
4
4
4
4
4
4
4
4
4
4

LOOKUP_TABLE FreeFempp_table 5
1.00000000 0.00000000 0.00000000 1.00000000
1.00000000 1.00000000 0.00000000 1.00000000
1.00000000 0.00000000 1.00000000 1.00000000
0.00000000 1.00000000 0.00000000 1.00000000
0.00000000 1.00000000 1.00000000 1.00000000

POINT_DATA 961
FIELD FieldData 1
Density 1 961 float
2.00967479e-04 1.85276556e-04 1.91551168e-04 1.92405641e-04 1.91982777e-04 1.91425643e-04 1.91100131e-04 1.91218685e-04 1.91933912e-04 1.93306929e-04 1.95262299e-04 1.97576461e-04 1.99676550e-04 1.99424554e-04 1.94685024e-04 2.17036330e-04 1.47135621e-02 9.99742687e-01 9.97991323e-01 7.70949006e-01 9.70374882e-01 9.83675778e-01 9.85364854e-01 9.85327661e-01 9.84690607e-01 9.83733058e-01 9.82359529e-01 9.80144083e-01 9.73684192e-01 9.70869303e-01 9.57573354e-01 1.70355503e-04 1.55018162e-04 1.57029863e-04 1.58172887e-04 1.59015122e-04 1.59735981e-04 1.60387935e-04 1.60987664e-04 1.61541859e-04 1.62044060e-04 1.62463824e-04 1.62741344e-04 1.62824523e-04 1.62806129e-04 1.63121600e-04 1.66257378e-04 3.01730906e-04 9.99942422e-01 9.99845445e-01 1.78101484e-03 6.96954668e-01 9.84771371e-01 9.90391374e-01 9.91123080e-01 9.90933061e-01 9.90487218e-01 9.90033090e-01 9.89947200e-01 9.84745800e-01 9.77463841e-01 9.68316972e-01 1.67252438e-04 1.50049615e-04 1.51465443e-04 1.52309483e-04 1.53244575e-04 1.54099020e-04 1.54881098e-04 1.55609290e-04 1.56288574e-04 1.56916358e-04 1.57479823e-04 1.57943912e-04 1.58253766e-04 1.58411800e-04 1.58487164e-04 1.60179174e-04 1.88781618e-04 9.99904871e-01 6.37708664e-01 2.05191725e-04 1.91259489e-04 1.83141718e-04 1.81305775e-04 1.87915153e-04 1.93745160e-04 2.06914599e-04 2.46903859e-04 4.17371630e-04 1.54574274e-03 8.55706155e-01 9.52073872e-01 1.65611622e-04 1.48792038e-04 1.50734340e-04 1.51593107e-04 1.52440858e-04 1.53216897e-04 1.53925313e-04 1.54569047e-04 1.55134359e-04 1.55588103e-04 1.55869158e-04 1.55866685e-04 1.55381756e-04 1.54066860e-04 1.50913867e-04 1.45703016e-04 1.57479240e-04 9.49861109e-01 9.99908626e-01 1.93230502e-04 1.90536783e-04 1.83467826e-04 1.79764917e-04 1.77476075e-04 1.75427209e-04 1.74884000e-04 1.74931411e-04 1.75254259e-04 1.79402807e-04 1.90113104e-04 1.64382032e-03 1.63598466e-04 1.47578758e-04 1.50530454e-04 1.51617787e-04 1.52384717e-04 1.52998895e-04 1.53541507e-04 1.54016336e-04 1.54377849e-04 1.54548863e-04 1.54414098e-04 1.53809306e-04 1.52513458e-04 1.50300169e-04 1.46710241e-04 1.40367585e-04 1.37897659e-04 1.63272096e-04 9.99914110e-01 1.89004088e-04 1.86511083e-04 1.82520074e-04 1.78878006e-04 1.77106049e-04 1.74646659e-04 1.74478686e-04 1.74354500e-04 1.73455657e-04 1.72293629e-04 1.71110412e-04 2.19327805e-04 1.60471725e-04 1.46124599e-04 1.50697379e-04 1.51916218e-04 1.52449764e-04 1.52808600e-04 1.53141926e-04 1.53430170e-04 1.53574729e-04 1.53445668e-04 1.52870780e-04 1.51649991e-04 1.49646105e-04 1.46911640e-04 1.43999205e-04 1.39309588e-04 1.32662128e-04 1.35092152e-04 1.60534037e-04 9.99938190e-01 1.35263090e-03 1.91491286e-04 1.80615796e-04 1.76800648e-04 1.73470820e-04 1.73974739e-04 1.74185509e-04 1.73706241e-04 1.72920059e-04 1.72187429e-04 2.02551557e-04 1.57333867e-04 1.45176542e-04 1.51968023e-04 1.52825451e-04 1.52726978e-04 1.52682449e-04 1.52787979e-04 1.52922003e-04 1.52896653e-04 1.52532943e-04 1.51580927e-04 1.49714673e-04 1.46888502e-04 1.43312194e-04 1.41806755e-04 1.39822485e-04 1.34024973e-04 1.27940788e-04 1.33211739e-04 1.59360774e-04 9.99921322e-01 9.99936879e-01 1.15405228e-02 1.81959826e-04 1.76075831e-04 1.73528329e-04 1.74345347e-04 1.74354267e-04 1.73955515e-04 1.73616936e-04 1.94341512e-04 1.74205212e-04 1.52873748e-04 1.56273949e-04 1.56093884e-04 1.54756257e-04 1.54167632e-04 1.54082387e-04 1.54161302e-04 1.54110618e-04 1.53779882e-04 1.52948036e-04 1.51131360e-04 1.47723345e-04 1.41515018e-04 1.40501666e-04 1.41668061e-04 1.36840783e-04 1.29712644e-04 1.25679988e-04 1.33114969e-04 1.58951414e-04 9.99865532e-01 9.99874592e-01 9.99871790e-01 1.85752466e-01 1.76670495e-04 1.73790511e-04 1.74611821e-04 1.74757326e-04 1.74296758e-04 1.88604201e-04 9.75359678e-01 8.87718808e-04 2.02326308e-04 1.77037204e-04 1.69138395e-04 1.67733349e-04 1.67428239e-04 1.67450955e-04 1.67498452e-04 1.67411359e-04 1.67106613e-04 1.66344485e-04 1.64718935e-04 1.56231166e-04 1.48879175e-04 1.48515726e-04 1.45307989e-04 1.35600654e-04 1.26411906e-04 1.24696700e-04 1.26653715e-04 1.31307548e-04 1.37210358e-04 9.99837935e-01 9.99847174e-01 9.99848723e-01 1.76489746e-04 1.74318833e-04 1.75413224e-04 1.73380409e-04 1.88823949e-04 9.98955369e-01 9.99525845e-01 9.99159336e-01 9.93737638e-01 8.52367938e-01 1.93182990e-01 3.31064276e-02 1.56282727e-02 1.69193577e-02 3.33329476e-02 9.41298604e-02 2.57615030e-01 2.56561458e-01 1.62072584e-01 6.19403727e-04 2.04950571e-04 1.74070650e-04 1.59915595e-04 1.38669857e-04 1.30273955e-04 1.29447712e-04 1.23148493e-04 1.05890249e-04 1.20457698e-04 9.98432517e-01 9.99739230e-01 9.99833345e-01 1.78793678e-04 1.73437555e-04 1.68938583e-04 1.86579389e-04 9.99650538e-01 9.99818087e-01 9.99819040e-01 9.99775171e-01 9.99642611e-01 9.99003530e-01 9.94805932e-01 9.65774655e-01 8.59579265e-01 7.34958231e-01 7.07827628e-01 7.56707013e-01 8.04737985e-01 8.09454978e-01 7.87396908e-01 8.04915488e-01 8.45655918e-01 6.22842371e-01 1.64040662e-02 2.46923184e-04 1.58559676e-04 1.47130864e-04 1.55180605e-04 1.92681109e-04 2.89460091e-04 2.21038805e-04 1.76397793e-04 9.99874592e-01 1.72410597e-04 1.43377620e-04 1.73747234e-04 9.99445140e-01 9.99816835e-01 9.99827325e-01 9.99820054e-01 9.99800265e-01 9.99760985e-01 9.99653399e-01 9.99285161e-01 9.97905612e-01 9.93550181e-01 9.85777378e-01 9.80282605e-01 9.79070485e-01 9.77851093e-01 9.74588513e-01 9.69860971e-01 9.62557852e-01 9.49049532e-01 9.25014913e-01 8.96822453e-01 8.94647896e-01 8.94396603e-01 7.13437200e-01 2.14349580e-04 3.68384470e-04 2.65828450e-04 1.99252812e-04 2.12205210e-04 9.99868870e-01 1.14639188e-04 1.35691444e-04 9.87137020e-01 9.99632597e-01 9.99201417e-01 9.87163544e-01 9.99463379e-01 9.99682248e-01 9.99712884e-01 9.99629915e-01 9.99299705e-01 9.98155534e-01 9.95393395e-01 9.92626071e-01 9.91945922e-01 9.91851389e-01 9.91246164e-01 9.90079284e-01 9.87876832e-01 9.83850718e-01 9.76938665e-01 9.65008259e-01 9.49505389e-01 9.41026926e-01 9.30261195e-01 8.64294112e-01 2.49091070e-04 3.36803787e-04 2.41634218e-04 2.10571117e-04 9.99963105e-01 1.24216429e-04 1.14116185e-04 9.89739418e-01 9.99758720e-01 9.99529064e-01 3.92617375e-01 1.02822715e-03 5.00285008e-04 9.95209336e-01 9.99446332e-01 9.99442577e-01 9.98637497e-01 9.95426834e-01 9.89753246e-01 9.88665998e-01 9.89858031e-01 9.90503728e-01 9.91069674e-01 9.91553724e-01 9.91037250e-01 9.89202619e-01 9.83300447e-01 9.66040373e-01 9.37861323e-01 8.47243547e-01 6.73099041e-01 8.05153608e-01 2.78357300e-04 3.28735914e-04 9.99696672e-01 9.99868989e-01 1.34772403e-04 1.26832019e-04 9.77524996e-01 9.99628365e-01 9.98320937e-01 6.49284944e-02 2.40242021e-04 1.81894371e-04 1.87550206e-04 2.65563978e-03 9.98987019e-01 9.99069393e-01 9.96047497e-01 9.75559115e-01 9.64134932e-01 9.72236693e-01 9.73121345e-01 9.74360824e-01 9.84342992e-01 9.91422951e-01 9.94223654e-01 9.95084465e-01 9.91112888e-01 9.68003094e-01 3.09237897e-01 7.14638853e-04 9.29136574e-03 5.55191829e-04 2.46162002e-04 1.93788335e-04 9.99862909e-01 1.39817144e-04 1.34908056e-04 9.63827074e-01 9.99561310e-01 9.98611331e-01 1.63101852e-01 2.59787455e-04 1.81906318e-04 1.81913580e-04 1.82381715e-04 5.21092094e-04 9.99147356e-01 9.99234676e-01 9.93576944e-01 9.71892357e-01 9.60110664e-01 9.38591897e-01 4.79402333e-01 3.41411948e-01 7.62352049e-01 9.89765465e-01 9.96375144e-01 9.98879910e-01 9.98576701e-01 9.83318686e-01 4.41942248e-04 2.02309486e-04 2.43661038e-04 2.00824346e-04 1.89727914e-04 9.99861062e-01 1.48359017e-04 1.45718484e-04 9.48246539e-01 9.99474227e-01 9.98531997e-01 2.07525790e-01 2.47619580e-04 1.81924377e-04 1.81941257e-04 1.82015181e-04 1.88353515e-04 1.45296872e-01 9.99589443e-01 9.99736845e-01 9.98259306e-01 9.90389585e-01 9.22192991e-01 8.41010749e-01 8.57084811e-01 8.83264661e-01 8.22118521e-01 7.83711851e-01 9.57719743e-01 9.99341369e-01 9.99598384e-01 9.99055088e-01 3.96500574e-04 2.19077367e-04 2.81849672e-04 7.61977222e-04 9.99872446e-01 1.61733871e-04 1.61344244e-04 9.27746117e-01 9.99374807e-01 9.98270750e-01 1.47855371e-01 2.20870774e-04 1.81892450e-04 1.81947311e-04 1.82032323e-04 1.82197793e-04 3.74368625e-04 9.97842848e-01 9.99679029e-01 9.99494076e-01 9.97910321e-01 9.93375421e-01 9.93629515e-01 9.91710603e-01 9.91278350e-01 9.84010220e-01 9.52506602e-01 8.48422945e-01 6.81823254e-01 9.73116040e-01 9.99613762e-01 9.99503255e-01 8.67867563e-03 2.82668578e-03 9.99741614e-01 9.99879599e-01 1.74748129e-04 1.75206689e-04 9.03627694e-01 9.99259830e-01 9.97807980e-01 7.85156488e-02 2.06050347e-04 1.81729323e-04 1.81844400e-04 1.81965734e-04 1.82073956e-04 1.99252550e-04 4.10889596e-01 9.98732567e-01 9.99667287e-01 9.98908877e-01 9.88741279e-01 9.86101687e-01 9.90228713e-01 9.81420815e-01 9.50450003e-01 8.32657099e-01 6.07885122e-01 2.28711247e-01 6.71055838e-02 6.34313881e-01 9.99034941e-01 9.99499202e-01 9.99572098e-01 9.99877930e-01 9.99853790e-01 1.89279119e-04 1.88888996e-04 8.80874693e-01 9.99172568e-01 9.97234583e-01 2.97542177e-02 1.96504698e-04 1.81381605e-04 1.81573021e-04 1.81767871e-04 1.82040865e-04 1.93719548e-04 2.89970458e-01 9.76173222e-01 9.97012258e-01 9.98649955e-01 9.98284817e-01 9.38632965e-01 9.48651195e-01 9.63282585e-01 7.50739634e-01 2.68903822e-01 1.15906857e-01 7.76559412e-02 9.85617265e-02 1.80957556e-01 9.97628093e-01 9.99633193e-01 9.99807537e-01 9.99884307e-01 2.02772673e-04 1.94639841e-04 2.08312893e-04 8.59132588e-01 9.99173105e-01 9.96600807e-01 4.28305985e-03 1.85317811e-04 1.80829637e-04 1.81083902e-04 1.81276686e-04 1.82025819e-04 2.14832864e-04 8.37228239e-01 9.75951552e-01 9.89805222e-01 9.95965302e-01 9.97049868e-01 9.94652390e-01 6.13968134e-01 5.66637218e-01 1.50751173e-01 1.02905761e-02 1.75541118e-02 3.04444790e-01 8.31627309e-01 9.99398351e-01 9.99535203e-01 9.99763668e-01 9.99817669e-01 9.99742687e-01 1.83962125e-04 1.82656309e-04 2.00271985e-04 8.18919301e-01 9.99230921e-01 9.94740307e-01 3.15795449e-04 1.81319469e-04 1.80329007e-04 1.80594987e-04 1.80730494e-04 1.81939133e-04 6.07024587e-04 8.98644328e-01 9.73733962e-01 9.85778153e-01 9.93135870e-01 9.94135857e-01 9.87471342e-01 9.13291812e-01 2.08635237e-02 8.30281712e-03 4.05237824e-03 1.25317350e-01 9.91447449e-01 9.99797285e-01 9.99748349e-01 9.99729574e-01 9.99751925e-01 9.99733806e-01 1.82774951e-04 1.80216623e-04 1.80513278e-04 1.92241991e-04 7.22426772e-01 9.99293625e-01 9.87817883e-01 1.85494646e-04 1.80726551e-04 1.80047122e-04 1.80313975e-04 1.80724513e-04 1.82120013e-04 1.41322687e-02 9.63117301e-01 9.76125896e-01 9.83661592e-01 9.91043150e-01 9.92168128e-01 9.80195224e-01 7.00733483e-01 3.35858087e-03 8.55324091e-04 4.07267064e-02 9.99542892e-01 9.99853492e-01 9.99817908e-01 9.99710679e-01 9.99492109e-01 9.99147415e-01 1.80934483e-04 1.77145965e-04 1.77135196e-04 1.77423164e-04 1.90835301e-04 4.93422091e-01 9.99348223e-01 9.75990295e-01 1.80745876e-04 1.79258917e-04 1.79067662e-04 1.79135212e-04 1.80817267e-04 1.82538774e-04 7.30769277e-01 9.74836469e-01 9.76035237e-01 9.77703512e-01 9.87419963e-01 9.90975857e-01 9.86693561e-01 9.36430156e-01 2.45221332e-01 3.16552445e-02 9.98300135e-01 9.99880195e-01 9.99877453e-01 9.99713004e-01 9.97942746e-01 9.58712459e-01 1.71882872e-04 1.60949014e-04 1.70426356e-04 1.73722525e-04 1.76438931e-04 1.89264625e-04 1.57876432e-01 9.99219060e-01 9.81653273e-01 1.79499490e-04 1.77020600e-04 1.77092370e-04 1.77506576e-04 1.80139847e-04 3.61482787e-04 9.82324421e-01 9.92035985e-01 9.25508320e-01 9.59553421e-01 9.82656240e-01 9.91128385e-01 9.93889630e-01 9.95480418e-01 9.98000681e-01 9.99503613e-01 9.99792278e-01 9.99435008e-01 1.86261677e-04 1.82985154e-04 1.77104273e-04 1.71938198e-04 1.70549640e-04 1.62893804e-04 1.67393810e-04 1.77739188e-04 1.79591458e-04 2.38895940e-04 2.34414376e-02 9.98132229e-01 9.94083285e-01 1.77953334e-04 1.73885186e-04 1.73413035e-04 1.77283262e-04 1.80225456e-04 9.51293036e-02 9.85111535e-01 9.57278967e-01 1.24529367e-02 3.74676660e-02 9.70758796e-01 9.94665205e-01 9.97292638e-01 9.98682439e-01 9.99538600e-01 9.99784410e-01 9.99843478e-01 9.99815762e-01 2.05393735e-04 1.82685806e-04 1.80446295e-04 1.76420275e-04 1.71648120e-04 1.78423667e-04 9.99800980e-01 9.99786615e-01 9.99822617e-01 9.99490380e-01 5.44254296e-03 6.44283533e-01 9.88630056e-01 1.76695656e-04 1.69948689e-04 1.67555903e-04 1.75165740e-04 2.91870296e-04 9.33530509e-01 9.60540831e-01 9.52270508e-01 7.91190949e-04 2.00666866e-04 3.81188409e-04 9.78346169e-01 9.98307884e-01 9.99085069e-01 9.99574244e-01 9.99770999e-01 9.99826312e-01 9.99837399e-01 9.99784112e-01 9.99831438e-01 9.99878168e-01 9.99879062e-01 9.99879897e-01 9.99881268e-01 9.99876738e-01 9.99856472e-01 9.99847531e-01 9.99732554e-01 5.76998480e-03 8.14485997e-02 9.98857975e-01 1.77545662e-04 1.66565107e-04 1.61220945e-04 1.72210261e-04 3.99883687e-02 9.94423926e-01 9.43374455e-01 5.34342408e-01 4.57875401e-01 1.94313470e-04 1.76486632e-04 2.38998065e-04 3.79064113e-01 9.96926248e-01 9.98760879e-01 9.99484301e-01 9.99704540e-01 9.99781728e-01 9.99814987e-01 9.99843955e-01 9.99870300e-01 9.99873340e-01 9.99873042e-01 9.99861479e-01 9.99842107e-01 9.99787211e-01 9.99762237e-01 9.99468446e-01 2.77096499e-02 9.82382707e-03 9.97159839e-01 1.79606781e-04 1.59324452e-04 1.49187515e-04 1.66579674e-04 9.31959927e-01 9.96938288e-01 8.97580922e-01 1.86144054e-01 1.58981830e-01 1.56984627e-02 1.83860044e-04 1.65174497e-04 3.27570946e-04 4.62365076e-02 8.30005288e-01 9.81873512e-01 9.90176082e-01 9.91891742e-01 9.95958567e-01 9.98753786e-01 9.99349952e-01 9.99441564e-01 9.99335349e-01 9.99041021e-01 9.98611569e-01 9.98187065e-01 9.97814834e-01 9.96135354e-01 6.00547671e-01 1.88981965e-01 9.67851043e-01 9.86440301e-01 1.64313780e-04 1.26768136e-04 1.52830340e-04 9.95741308e-01 9.94668961e-01 9.27720189e-01 6.42647803e-01 5.46447933e-01 4.22317207e-01 8.85133923e-04 1.58260926e-04 1.85227487e-04 3.20164161e-03 2.32916009e-02 1.71547532e-02 1.54575263e-03 1.50859763e-03 1.41521543e-03 4.08488698e-03 2.64231320e-02 1.03990234e-01 1.39734060e-01 1.01028100e-01 6.15849718e-02 4.14344296e-02 4.48399819e-02 5.63229501e-01 9.21531916e-01 8.51563394e-01 9.86418664e-01 9.99632776e-01 9.35817196e-04 1.51267508e-04 1.47946674e-04 9.99776363e-01 9.72803473e-01 8.61643016e-01 7.65435815e-01 6.52557969e-01 4.61192667e-01 2.65081115e-02 2.48611701e-04 2.12347833e-04 1.16998926e-02 7.43526697e-01 2.87966549e-01 3.65792448e-03 2.27607973e-03 5.99423051e-03 1.61073189e-02 5.76305129e-02 1.26319960e-01 1.42882094e-01 1.05196811e-01 6.67083338e-02 4.58845496e-02 5.03335781e-02 5.45845106e-02 
