# vtk DataFile Version 2.0
results_case1_non_linear/iter11.vtk, Created by Freefem++ 
ASCII
DATASET UNSTRUCTURED_GRID
POINTS 961 float
0 0 0
0.033333333 0 0
0.066666667 0 0
0.1 0 0
0.13333333 0 0
0.16666667 0 0
0.2 0 0
0.23333333 0 0
0.26666667 0 0
0.3 0 0
0.33333333 0 0
0.36666667 0 0
0.4 0 0
0.43333333 0 0
0.46666667 0 0
0.5 0 0
0.53333333 0 0
0.56666667 0 0
0.6 0 0
0.63333333 0 0
0.66666667 0 0
0.7 0 0
0.73333333 0 0
0.76666667 0 0
0.8 0 0
0.83333333 0 0
0.86666667 0 0
0.9 0 0
0.93333333 0 0
0.96666667 0 0
1 0 0
0 0.033333333 0
0.033333333 0.033333333 0
0.066666667 0.033333333 0
0.1 0.033333333 0
0.13333333 0.033333333 0
0.16666667 0.033333333 0
0.2 0.033333333 0
0.23333333 0.033333333 0
0.26666667 0.033333333 0
0.3 0.033333333 0
0.33333333 0.033333333 0
0.36666667 0.033333333 0
0.4 0.033333333 0
0.43333333 0.033333333 0
0.46666667 0.033333333 0
0.5 0.033333333 0
0.53333333 0.033333333 0
0.56666667 0.033333333 0
0.6 0.033333333 0
0.63333333 0.033333333 0
0.66666667 0.033333333 0
0.7 0.033333333 0
0.73333333 0.033333333 0
0.76666667 0.033333333 0
0.8 0.033333333 0
0.83333333 0.033333333 0
0.86666667 0.033333333 0
0.9 0.033333333 0
0.93333333 0.033333333 0
0.96666667 0.033333333 0
1 0.033333333 0
0 0.066666667 0
0.033333333 0.066666667 0
0.066666667 0.066666667 0
0.1 0.066666667 0
0.13333333 0.066666667 0
0.16666667 0.066666667 0
0.2 0.066666667 0
0.23333333 0.066666667 0
0.26666667 0.066666667 0
0.3 0.066666667 0
0.33333333 0.066666667 0
0.36666667 0.066666667 0
0.4 0.066666667 0
0.43333333 0.066666667 0
0.46666667 0.066666667 0
0.5 0.066666667 0
0.53333333 0.066666667 0
0.56666667 0.066666667 0
0.6 0.066666667 0
0.63333333 0.066666667 0
0.66666667 0.066666667 0
0.7 0.066666667 0
0.73333333 0.066666667 0
0.76666667 0.066666667 0
0.8 0.066666667 0
0.83333333 0.066666667 0
0.86666667 0.066666667 0
0.9 0.066666667 0
0.93333333 0.066666667 0
0.96666667 0.066666667 0
1 0.066666667 0
0 0.1 0
0.033333333 0.1 0
0.066666667 0.1 0
0.1 0.1 0
0.13333333 0.1 0
0.16666667 0.1 0
0.2 0.1 0
0.23333333 0.1 0
0.26666667 0.1 0
0.3 0.1 0
0.33333333 0.1 0
0.36666667 0.1 0
0.4 0.1 0
0.43333333 0.1 0
0.46666667 0.1 0
0.5 0.1 0
0.53333333 0.1 0
0.56666667 0.1 0
0.6 0.1 0
0.63333333 0.1 0
0.66666667 0.1 0
0.7 0.1 0
0.73333333 0.1 0
0.76666667 0.1 0
0.8 0.1 0
0.83333333 0.1 0
0.86666667 0.1 0
0.9 0.1 0
0.93333333 0.1 0
0.96666667 0.1 0
1 0.1 0
0 0.13333333 0
0.033333333 0.13333333 0
0.066666667 0.13333333 0
0.1 0.13333333 0
0.13333333 0.13333333 0
0.16666667 0.13333333 0
0.2 0.13333333 0
0.23333333 0.13333333 0
0.26666667 0.13333333 0
0.3 0.13333333 0
0.33333333 0.13333333 0
0.36666667 0.13333333 0
0.4 0.13333333 0
0.43333333 0.13333333 0
0.46666667 0.13333333 0
0.5 0.13333333 0
0.53333333 0.13333333 0
0.56666667 0.13333333 0
0.6 0.13333333 0
0.63333333 0.13333333 0
0.66666667 0.13333333 0
0.7 0.13333333 0
0.73333333 0.13333333 0
0.76666667 0.13333333 0
0.8 0.13333333 0
0.83333333 0.13333333 0
0.86666667 0.13333333 0
0.9 0.13333333 0
0.93333333 0.13333333 0
0.96666667 0.13333333 0
1 0.13333333 0
0 0.16666667 0
0.033333333 0.16666667 0
0.066666667 0.16666667 0
0.1 0.16666667 0
0.13333333 0.16666667 0
0.16666667 0.16666667 0
0.2 0.16666667 0
0.23333333 0.16666667 0
0.26666667 0.16666667 0
0.3 0.16666667 0
0.33333333 0.16666667 0
0.36666667 0.16666667 0
0.4 0.16666667 0
0.43333333 0.16666667 0
0.46666667 0.16666667 0
0.5 0.16666667 0
0.53333333 0.16666667 0
0.56666667 0.16666667 0
0.6 0.16666667 0
0.63333333 0.16666667 0
0.66666667 0.16666667 0
0.7 0.16666667 0
0.73333333 0.16666667 0
0.76666667 0.16666667 0
0.8 0.16666667 0
0.83333333 0.16666667 0
0.86666667 0.16666667 0
0.9 0.16666667 0
0.93333333 0.16666667 0
0.96666667 0.16666667 0
1 0.16666667 0
0 0.2 0
0.033333333 0.2 0
0.066666667 0.2 0
0.1 0.2 0
0.13333333 0.2 0
0.16666667 0.2 0
0.2 0.2 0
0.23333333 0.2 0
0.26666667 0.2 0
0.3 0.2 0
0.33333333 0.2 0
0.36666667 0.2 0
0.4 0.2 0
0.43333333 0.2 0
0.46666667 0.2 0
0.5 0.2 0
0.53333333 0.2 0
0.56666667 0.2 0
0.6 0.2 0
0.63333333 0.2 0
0.66666667 0.2 0
0.7 0.2 0
0.73333333 0.2 0
0.76666667 0.2 0
0.8 0.2 0
0.83333333 0.2 0
0.86666667 0.2 0
0.9 0.2 0
0.93333333 0.2 0
0.96666667 0.2 0
1 0.2 0
0 0.23333333 0
0.033333333 0.23333333 0
0.066666667 0.23333333 0
0.1 0.23333333 0
0.13333333 0.23333333 0
0.16666667 0.23333333 0
0.2 0.23333333 0
0.23333333 0.23333333 0
0.26666667 0.23333333 0
0.3 0.23333333 0
0.33333333 0.23333333 0
0.36666667 0.23333333 0
0.4 0.23333333 0
0.43333333 0.23333333 0
0.46666667 0.23333333 0
0.5 0.23333333 0
0.53333333 0.23333333 0
0.56666667 0.23333333 0
0.6 0.23333333 0
0.63333333 0.23333333 0
0.66666667 0.23333333 0
0.7 0.23333333 0
0.73333333 0.23333333 0
0.76666667 0.23333333 0
0.8 0.23333333 0
0.83333333 0.23333333 0
0.86666667 0.23333333 0
0.9 0.23333333 0
0.93333333 0.23333333 0
0.96666667 0.23333333 0
1 0.23333333 0
0 0.26666667 0
0.033333333 0.26666667 0
0.066666667 0.26666667 0
0.1 0.26666667 0
0.13333333 0.26666667 0
0.16666667 0.26666667 0
0.2 0.26666667 0
0.23333333 0.26666667 0
0.26666667 0.26666667 0
0.3 0.26666667 0
0.33333333 0.26666667 0
0.36666667 0.26666667 0
0.4 0.26666667 0
0.43333333 0.26666667 0
0.46666667 0.26666667 0
0.5 0.26666667 0
0.53333333 0.26666667 0
0.56666667 0.26666667 0
0.6 0.26666667 0
0.63333333 0.26666667 0
0.66666667 0.26666667 0
0.7 0.26666667 0
0.73333333 0.26666667 0
0.76666667 0.26666667 0
0.8 0.26666667 0
0.83333333 0.26666667 0
0.86666667 0.26666667 0
0.9 0.26666667 0
0.93333333 0.26666667 0
0.96666667 0.26666667 0
1 0.26666667 0
0 0.3 0
0.033333333 0.3 0
0.066666667 0.3 0
0.1 0.3 0
0.13333333 0.3 0
0.16666667 0.3 0
0.2 0.3 0
0.23333333 0.3 0
0.26666667 0.3 0
0.3 0.3 0
0.33333333 0.3 0
0.36666667 0.3 0
0.4 0.3 0
0.43333333 0.3 0
0.46666667 0.3 0
0.5 0.3 0
0.53333333 0.3 0
0.56666667 0.3 0
0.6 0.3 0
0.63333333 0.3 0
0.66666667 0.3 0
0.7 0.3 0
0.73333333 0.3 0
0.76666667 0.3 0
0.8 0.3 0
0.83333333 0.3 0
0.86666667 0.3 0
0.9 0.3 0
0.93333333 0.3 0
0.96666667 0.3 0
1 0.3 0
0 0.33333333 0
0.033333333 0.33333333 0
0.066666667 0.33333333 0
0.1 0.33333333 0
0.13333333 0.33333333 0
0.16666667 0.33333333 0
0.2 0.33333333 0
0.23333333 0.33333333 0
0.26666667 0.33333333 0
0.3 0.33333333 0
0.33333333 0.33333333 0
0.36666667 0.33333333 0
0.4 0.33333333 0
0.43333333 0.33333333 0
0.46666667 0.33333333 0
0.5 0.33333333 0
0.53333333 0.33333333 0
0.56666667 0.33333333 0
0.6 0.33333333 0
0.63333333 0.33333333 0
0.66666667 0.33333333 0
0.7 0.33333333 0
0.73333333 0.33333333 0
0.76666667 0.33333333 0
0.8 0.33333333 0
0.83333333 0.33333333 0
0.86666667 0.33333333 0
0.9 0.33333333 0
0.93333333 0.33333333 0
0.96666667 0.33333333 0
1 0.33333333 0
0 0.36666667 0
0.033333333 0.36666667 0
0.066666667 0.36666667 0
0.1 0.36666667 0
0.13333333 0.36666667 0
0.16666667 0.36666667 0
0.2 0.36666667 0
0.23333333 0.36666667 0
0.26666667 0.36666667 0
0.3 0.36666667 0
0.33333333 0.36666667 0
0.36666667 0.36666667 0
0.4 0.36666667 0
0.43333333 0.36666667 0
0.46666667 0.36666667 0
0.5 0.36666667 0
0.53333333 0.36666667 0
0.56666667 0.36666667 0
0.6 0.36666667 0
0.63333333 0.36666667 0
0.66666667 0.36666667 0
0.7 0.36666667 0
0.73333333 0.36666667 0
0.76666667 0.36666667 0
0.8 0.36666667 0
0.83333333 0.36666667 0
0.86666667 0.36666667 0
0.9 0.36666667 0
0.93333333 0.36666667 0
0.96666667 0.36666667 0
1 0.36666667 0
0 0.4 0
0.033333333 0.4 0
0.066666667 0.4 0
0.1 0.4 0
0.13333333 0.4 0
0.16666667 0.4 0
0.2 0.4 0
0.23333333 0.4 0
0.26666667 0.4 0
0.3 0.4 0
0.33333333 0.4 0
0.36666667 0.4 0
0.4 0.4 0
0.43333333 0.4 0
0.46666667 0.4 0
0.5 0.4 0
0.53333333 0.4 0
0.56666667 0.4 0
0.6 0.4 0
0.63333333 0.4 0
0.66666667 0.4 0
0.7 0.4 0
0.73333333 0.4 0
0.76666667 0.4 0
0.8 0.4 0
0.83333333 0.4 0
0.86666667 0.4 0
0.9 0.4 0
0.93333333 0.4 0
0.96666667 0.4 0
1 0.4 0
0 0.43333333 0
0.033333333 0.43333333 0
0.066666667 0.43333333 0
0.1 0.43333333 0
0.13333333 0.43333333 0
0.16666667 0.43333333 0
0.2 0.43333333 0
0.23333333 0.43333333 0
0.26666667 0.43333333 0
0.3 0.43333333 0
0.33333333 0.43333333 0
0.36666667 0.43333333 0
0.4 0.43333333 0
0.43333333 0.43333333 0
0.46666667 0.43333333 0
0.5 0.43333333 0
0.53333333 0.43333333 0
0.56666667 0.43333333 0
0.6 0.43333333 0
0.63333333 0.43333333 0
0.66666667 0.43333333 0
0.7 0.43333333 0
0.73333333 0.43333333 0
0.76666667 0.43333333 0
0.8 0.43333333 0
0.83333333 0.43333333 0
0.86666667 0.43333333 0
0.9 0.43333333 0
0.93333333 0.43333333 0
0.96666667 0.43333333 0
1 0.43333333 0
0 0.46666667 0
0.033333333 0.46666667 0
0.066666667 0.46666667 0
0.1 0.46666667 0
0.13333333 0.46666667 0
0.16666667 0.46666667 0
0.2 0.46666667 0
0.23333333 0.46666667 0
0.26666667 0.46666667 0
0.3 0.46666667 0
0.33333333 0.46666667 0
0.36666667 0.46666667 0
0.4 0.46666667 0
0.43333333 0.46666667 0
0.46666667 0.46666667 0
0.5 0.46666667 0
0.53333333 0.46666667 0
0.56666667 0.46666667 0
0.6 0.46666667 0
0.63333333 0.46666667 0
0.66666667 0.46666667 0
0.7 0.46666667 0
0.73333333 0.46666667 0
0.76666667 0.46666667 0
0.8 0.46666667 0
0.83333333 0.46666667 0
0.86666667 0.46666667 0
0.9 0.46666667 0
0.93333333 0.46666667 0
0.96666667 0.46666667 0
1 0.46666667 0
0 0.5 0
0.033333333 0.5 0
0.066666667 0.5 0
0.1 0.5 0
0.13333333 0.5 0
0.16666667 0.5 0
0.2 0.5 0
0.23333333 0.5 0
0.26666667 0.5 0
0.3 0.5 0
0.33333333 0.5 0
0.36666667 0.5 0
0.4 0.5 0
0.43333333 0.5 0
0.46666667 0.5 0
0.5 0.5 0
0.53333333 0.5 0
0.56666667 0.5 0
0.6 0.5 0
0.63333333 0.5 0
0.66666667 0.5 0
0.7 0.5 0
0.73333333 0.5 0
0.76666667 0.5 0
0.8 0.5 0
0.83333333 0.5 0
0.86666667 0.5 0
0.9 0.5 0
0.93333333 0.5 0
0.96666667 0.5 0
1 0.5 0
0 0.53333333 0
0.033333333 0.53333333 0
0.066666667 0.53333333 0
0.1 0.53333333 0
0.13333333 0.53333333 0
0.16666667 0.53333333 0
0.2 0.53333333 0
0.23333333 0.53333333 0
0.26666667 0.53333333 0
0.3 0.53333333 0
0.33333333 0.53333333 0
0.36666667 0.53333333 0
0.4 0.53333333 0
0.43333333 0.53333333 0
0.46666667 0.53333333 0
0.5 0.53333333 0
0.53333333 0.53333333 0
0.56666667 0.53333333 0
0.6 0.53333333 0
0.63333333 0.53333333 0
0.66666667 0.53333333 0
0.7 0.53333333 0
0.73333333 0.53333333 0
0.76666667 0.53333333 0
[...]
CELL_DATA 1920
Scalars  Label int 1
LOOKUP_TABLE FreeFempp_table
0
0
0
0
0
0
0
0
0
0
0
0
0
0
0
0
0
0
0
0
0
0
0
0
0
0
0
0
0
0
0
0
0
0
0
0
0
0
0
0
0
0
0
0
0
0
0
0
0
0
0
0
0
0
0
0
0
0
0
0
0
0
0
0
0
0
0
0
0
0
0
0
0
0
0
0
0
0
0
0
0
0
0
0
0
0
0
0
0
0
0
0
0
0
0
0
0
0
0
0
0
0
0
0
0
0
0
0
0
0
0
0
0
0
0
0
0
0
0
0
0
0
0
0
0
0
0
0
0
0
0
0
0
0
0
0
0
0
0
0
0
0
0
0
0
0
0
0
0
0
0
0
0
0
0
0
0
0
0
0
0
0
0
0
0
0
0
0
0
0
0
0
0
0
0
0
0
0
0
0
0
0
0
0
0
0
0
0
0
0
0
0
0
0
0
0
0
0
0
0
0
0
0
0
0
0
0
0
0
0
0
0
0
0
0
0
0
0
0
0
0
0
0
0
0
0
0
0
0
0
0
0
0
0
0
0
0
0
0
0
0
0
0
0
0
0
0
0
0
0
0
0
0
0
0
0
0
0
0
0
0
0
0
0
0
0
0
0
0
0
0
0
0
0
0
0
0
0
0
0
0
0
0
0
0
0
0
0
0
0
0
0
0
0
0
0
0
0
0
0
0
0
0
0
0
0
0
0
0
0
0
0
0
0
0
0
0
0
0
0
0
0
0
0
0
0
0
0
0
0
0
0
0
0
0
0
0
0
0
0
0
0
0
0
0
0
0
0
0
0
0
0
0
0
0
0
0
0
0
0
0
0
0
0
0
0
0
0
0
0
0
0
0
0
0
0
0
0
0
0
0
0
0
0
0
0
0
0
0
0
0
0
0
0
0
0
0
0
0
0
0
0
0
0
0
0
0
0
0
0
0
0
0
0
0
0
0
0
0
0
0
0
0
0
0
0
0
0
0
0
0
0
0
0
0
0
0
0
0
0
0
0
0
0
0
0
0
0
0
0
0
0
0
0
0
0
0
0
0
0
0
0
0
0
0
0
0
0
0
0
0
0
0
0
0
0
0
0
0
0
0
0
0
0
0
0
0
0
0
0
0
0
0
0
0
0
0
0
0
0
0
0
0
0
0
0
0
0
0
0
0
0
0
0
0
0
0
0
0
0
0
0
0
0
0
0
0
0
0
0
0
0
0
0
0
0
0
0
0
0
0
0
0
0
0
0
0
0
0
0
0
0
0
0
0
0
0
0
0
0
0
0
0
0
0
0
0
0
0
0
0
0
0
0
0
0
0
0
0
0
0
0
0
0
0
0
0
0
0
0
0
0
0
0
0
0
0
0
0
0
0
0
0
0
0
0
0
0
0
0
0
0
0
0
0
0
0
0
0
0
0
0
0
0
0
0
0
0
0
0
0
0
0
0
0
0
0
0
0
0
0
0
0
0
0
0
0
0
0
0
0
0
0
0
0
0
0
0
0
0
0
0
0
0
0
0
0
0
0
0
0
0
0
0
0
0
0
0
0
0
0
0
0
0
0
0
0
0
0
0
0
0
0
0
0
0
0
0
0
0
0
0
0
0
0
0
0
0
0
0
0
0
0
0
0
0
0
0
0
0
0
0
0
0
0
0
0
0
0
0
0
0
0
0
0
0
0
0
0
0
0
0
0
0
0
0
0
0
0
0
0
0
0
0
0
0
0
0
0
0
0
0
0
0
0
0
0
0
0
0
0
0
0
0
0
0
0
0
0
0
0
0
0
0
0
0
0
0
0
0
0
0
0
0
0
0
0
0
0
0
0
0
0
0
0
0
0
0
0
0
0
0
0
0
0
0
0
0
0
0
0
0
0
0
0
0
0
0
0
0
0
0
0
0
0
0
0
0
0
0
0
0
0
0
0
0
0
0
0
0
0
0
0
0
0
0
0
0
0
0
0
0
0
0
0
0
0
0
0
0
0
0
0
0
0
0
0
0
0
0
0
0
0
0
0
0
0
0
0
0
0
0
0
0
0
0
0
0
0
0
0
0
0
0
0
0
0
0
0
0
0
0
0
0
0
0
0
0
0
0
0
0
0
0
0
0
0
0
0
0
0
0
0
0
0
0
0
0
0
0
0
0
0
0
0
0
0
0
0
0
0
0
0
0
0
0
0
0
0
0
0
0
0
0
0
0
0
0
0
0
0
0
0
0
0
0
0
0
0
0
0
0
0
0
0
0
0
0
0
0
0
0
0
0
0
0
0
0
0
0
0
0
0
0
0
0
0
0
0
0
0
0
0
0
0
0
0
0
0
0
0
0
0
0
0
0
0
0
0
0
0
0
0
0
0
0
0
0
0
0
0
0
0
0
0
0
0
0
0
0
0
0
0
0
0
0
0
0
0
0
0
0
0
0
0
0
0
0
0
0
0
0
0
0
0
0
0
0
0
0
0
0
0
0
0
0
0
0
0
0
0
0
0
0
0
0
0
0
0
0
0
0
0
0
0
0
0
0
0
0
0
0
0
0
0
0
0
0
0
0
0
0
0
0
0
0
0
0
0
0
0
0
0
0
0
0
0
0
0
0
0
0
0
0
0
0
0
0
0
0
0
0
0
0
0
0
0
0
0
0
0
0
0
0
0
0
0
0
0
0
0
0
0
0
0
0
0
0
0
0
0
0
0
0
0
0
0
0
0
0
0
0
0
0
0
0
0
0
0
0
0
0
0
0
0
0
0
0
0
0
0
0
0
0
0
0
0
0
0
0
0
0
0
0
0
0
0
0
0
0
0
0
0
0
0
0
0
0
0
0
0
0
0
0
0
0
0
0
0
0
0
0
0
0
0
0
0
0
0
0
0
0
0
0
0
0
0
0
0
0
0
0
0
0
0
0
0
0
0
0
0
0
0
0
0
0
0
0
0
0
0
0
0
0
0
0
0
0
0
0
0
0
0
0
0
0
0
0
0
0
0
0
0
0
0
0
0
0
0
0
0
0
0
0
0
0
0
0
0
0
0
0
0
0
0
0
0
0
0
0
0
0
0
0
0
0
0
0
0
0
0
0
0
0
0
0
0
0
0
0
0
0
0
0
0
0
0
0
0
0
0
0
0
0
0
0
0
0
0
0
0
0
0
0
0
0
0
0
0
0
0
0
0
0
0
0
0
0
0
0
0
0
0
0
0
0
0
0
0
0
0
0
0
0
0
0
0
0
0
0
0
0
0
0
0
0
0
0
0
0
0
0
0
0
0
0
0
0
0
0
0
0
0
0
0
0
0
0
0
0
0
0
0
0
0
0
0
0
0
0
0
0
0
0
0
0
0
0
0
0
0
0
0
0
0
0
0
0
0
0
0
0
0
0
0
0
0
0
0
0
0
0
0
0
0
0
0
0
0
0
0
0
0
0
0
0
0
0
0
0
0
0
0
0
0
0
0
0
0
0
0
0
0
0
0
0
0
0
0
0
0
0
0
0
0
0
0
0
0
0
0
0
0
0
0
0
0
0
0
0
0
0
0
0
0
0
0
0
0
0
0
0
0
0
0
0
0
0
0
0
0
0
0
0
0
0
0
0
0
0
0
0
0
0
0
0
0
0
0
0
0
0
0
0
0
0
0
0
0
0
0
0
0
0
0
0
0
0
0
0
0
0
0
0
0
0
0
0
0
0
0
0
0
0
0
0
0
0
0
0
0
0
0
0
0
0
0
0
0
0
0
0
0
0
0
0
0
0
0
0
0
0
0
0
0
0
0
0
0
0
0
0
0
0
0
0
0
0
0
0
0
0
0
0
0
0
0
0
0
0
0
0
0
0
0
0
0
0
0
0
0
0
0
0
0
0
0
0
0
0
0
0
0
0
0
0
0
0
0
0
0
0
0
0
0
0
0
0
0
0
0
0
0
0
0
0
0
0
0
0
0
0
0
0
0
0
0
0
0
0
0
0
0
0
0
0
0
0
0
0
0
0
0
0
0
0
0
0
0
0
0
0
0
0
0
0
0
0
0
0
0
0
0
0
0
0
0
0
0
0
0
0
0
0
0
0
0
0
0
0
0
0
0
0
0
0
0
0
0
0
1
1
1
1
1
1
1
1
1
1
1
1
1
1
1
1
1
1
1
1
1
1
1
1
1
1
1
1
1
1
2
2
2
2
2
2
2
2
2
2
2
2
2
2
2
2
2
2
2
2
2
2
2
2
2
2
2
2
2
2
3
3
3
3
3
3
3
3
3
3
3
3
3
3
3
3
3
3
3
3
3
3
3
3
3
3
3
3
3
3
4
4
4
4
4
4
4
4
4
4
4
4
4
4
4
4
4
4
4
4
4
4
4
4
4
4
4
4
4
4

LOOKUP_TABLE FreeFempp_table 5
1.00000000 0.00000000 0.00000000 1.00000000
1.00000000 1.00000000 0.00000000 1.00000000
1.00000000 0.00000000 1.00000000 1.00000000
0.00000000 1.00000000 0.00000000 1.00000000
0.00000000 1.00000000 1.00000000 1.00000000

POINT_DATA 961
FIELD FieldData 1
Density 1 961 float
4.76744026e-01 4.66573000e-01 4.68574226e-01 4.70545709e-01 4.72132862e-01 4.72987980e-01 4.72844958e-01 4.71693546e-01 4.69969869e-01 4.68406022e-01 4.67699468e-01 4.65532750e-01 3.59827667e-01 1.96564496e-02 2.75806449e-02 3.75335723e-01 7.23424017e-01 5.60052872e-01 4.86230701e-01 5.41967213e-01 5.85333347e-01 5.59604764e-01 5.38888276e-01 5.27037084e-01 5.20708501e-01 5.16162872e-01 5.13209283e-01 5.11374056e-01 5.10212719e-01 5.11022747e-01 5.03604114e-01 4.69643652e-01 4.39238459e-01 4.41148669e-01 4.43209887e-01 4.45296645e-01 4.46838140e-01 4.47302103e-01 4.46340501e-01 4.44031566e-01 4.40892369e-01 4.37637836e-01 4.33108807e-01 3.52239877e-01 1.80407874e-02 1.47788990e-02 1.87136963e-01 8.66092145e-01 6.77542508e-01 4.54536587e-01 5.56544721e-01 6.89020395e-01 6.57031655e-01 5.97961724e-01 5.70019543e-01 5.49873292e-01 5.36755979e-01 5.28447092e-01 5.23752689e-01 5.21495283e-01 5.22118032e-01 5.11435330e-01 4.85130906e-01 4.50460941e-01 4.49155033e-01 4.49353188e-01 4.50438082e-01 4.51781213e-01 4.52549845e-01 4.51449335e-01 4.47719008e-01 4.42356497e-01 4.36044276e-01 4.21461165e-01 3.31771642e-01 2.28554979e-02 1.77147090e-02 1.00123994e-01 8.31100404e-01 5.77771246e-01 9.14522186e-02 1.76853165e-01 2.28767172e-01 2.35566378e-01 5.75866342e-01 5.73866129e-01 5.51912606e-01 5.31397283e-01 5.18365562e-01 5.13045490e-01 5.10921121e-01 5.10122001e-01 5.07228851e-01 4.60904717e-01 4.35839683e-01 4.45454359e-01 4.51478809e-01 4.53866988e-01 4.53055531e-01 4.46107239e-01 4.21317309e-01 3.55361938e-01 2.38251597e-01 1.25825927e-01 7.14578927e-02 4.65704650e-02 2.06045974e-02 1.47343874e-02 7.06536695e-02 6.80607736e-01 7.30216324e-01 9.27163512e-02 6.98171258e-02 4.03342918e-02 2.58704834e-02 2.90697496e-02 6.21193014e-02 3.36509138e-01 5.18045425e-01 5.05671024e-01 4.95940924e-01 4.94070321e-01 4.92701709e-01 4.99406010e-01 8.63711089e-02 1.34622842e-01 2.28667349e-01 2.94102937e-01 3.32520932e-01 3.43574554e-01 3.09579790e-01 1.87684909e-01 4.69197780e-02 1.36155346e-02 7.86059536e-03 5.57581708e-03 5.55356592e-03 6.29604654e-03 4.99572838e-03 3.82775953e-03 3.72827828e-01 7.99315453e-01 3.64761978e-01 6.14352338e-02 5.13838306e-02 2.82703713e-02 1.54981650e-02 1.25421425e-02 1.12492740e-02 1.36127010e-01 4.56637532e-01 4.75808620e-01 4.72610474e-01 4.72395152e-01 4.89969790e-01 4.88266163e-03 3.98267480e-03 4.11556521e-03 4.66624880e-03 6.69361791e-03 8.63830093e-03 9.11096018e-03 8.57126806e-03 7.60100549e-03 7.97014311e-03 8.49257968e-03 6.55499799e-03 5.41333156e-03 6.11469056e-03 6.84355060e-03 2.48889555e-03 2.38860329e-03 4.54028666e-01 7.54599333e-01 3.03196341e-01 9.99964476e-02 1.01375610e-01 5.11176921e-02 2.00400930e-02 8.61445162e-03 7.68009713e-03 8.21632072e-02 4.32884306e-01 4.56428260e-01 4.55588788e-01 4.81731027e-01 7.53536634e-03 3.54660023e-03 4.08605905e-03 3.88672692e-03 4.45555290e-03 6.11643400e-03 7.41218403e-03 7.84419104e-03 7.46107427e-03 7.49601237e-03 9.18690767e-03 1.84513312e-02 7.59940222e-02 2.48181894e-01 3.17780048e-01 1.01520449e-01 2.82930653e-03 2.82808277e-03 4.45287913e-01 8.37020874e-01 6.91436470e-01 4.44828451e-01 3.76247436e-01 3.54036778e-01 1.38339996e-01 7.10430136e-03 6.51497487e-03 8.22342187e-02 4.35850441e-01 4.48123515e-01 4.76785213e-01 4.16977763e-01 2.71395653e-01 1.59244940e-01 7.26446211e-02 2.95620579e-02 1.53510282e-02 1.14199230e-02 1.12396209e-02 1.45551283e-02 2.64729280e-02 6.78047836e-02 1.85189664e-01 3.24325979e-01 4.07425940e-01 4.34169143e-01 4.28909898e-01 3.30426782e-01 2.72737863e-03 3.08769010e-03 3.19366492e-02 6.04558349e-01 8.02400112e-01 7.09502339e-01 6.75662339e-01 5.94768345e-01 2.79062241e-01 6.14608591e-03 5.58115216e-03 1.47573844e-01 4.42784309e-01 4.73926395e-01 5.08431315e-01 5.00859618e-01 4.93630409e-01 4.82031792e-01 4.68758464e-01 4.45212454e-01 4.07433867e-01 3.68319273e-01 3.46910447e-01 3.47485155e-01 3.67385656e-01 4.00250942e-01 4.33887303e-01 4.52081710e-01 4.55402017e-01 4.55501378e-01 4.54119712e-01 4.01900738e-01 3.69882351e-03 4.60978644e-03 6.82974933e-03 4.03264090e-02 6.89140975e-01 7.09213614e-01 7.20891953e-01 7.96323478e-01 1.97332606e-01 5.87182632e-03 7.06931856e-03 3.36105168e-01 4.69476700e-01 5.27611554e-01 5.34890890e-01 5.23837805e-01 5.11667311e-01 4.97858018e-01 4.87424016e-01 4.80296046e-01 4.76535022e-01 4.77014303e-01 4.80387628e-01 4.83257473e-01 4.85259086e-01 4.83723968e-01 4.79292214e-01 4.76802677e-01 4.77521777e-01 4.77841288e-01 4.86106008e-01 4.42379504e-01 8.88881646e-03 5.77887241e-03 6.61125593e-03 9.62560344e-03 2.06715345e-01 2.15722054e-01 2.73467779e-01 8.23108315e-01 1.66136902e-02 7.14826630e-03 1.66535247e-02 4.44132000e-01 5.47668457e-01 5.75940728e-01 5.64757943e-01 5.58511198e-01 5.49084783e-01 5.37553251e-01 5.26590288e-01 5.17843783e-01 5.12335420e-01 5.09686887e-01 5.08849323e-01 5.08349240e-01 5.07251859e-01 5.05103588e-01 5.02871275e-01 5.02084553e-01 5.02382755e-01 5.01810074e-01 5.02742767e-01 5.17316401e-01 3.54674608e-01 1.16252806e-02 8.50606710e-03 8.87669437e-03 1.83471330e-02 5.70673868e-02 1.37420103e-01 9.46657598e-01 6.85790973e-03 5.64186973e-03 1.94120333e-01 5.55171728e-01 6.02721453e-01 5.92978239e-01 5.90378165e-01 5.83198369e-01 5.72829723e-01 5.61358631e-01 5.50669312e-01 5.41816175e-01 5.35569012e-01 5.31653106e-01 5.29166102e-01 5.27452767e-01 5.25909185e-01 5.24230957e-01 5.22772431e-01 5.22581100e-01 5.23674905e-01 5.24903834e-01 5.29270887e-01 5.31479895e-01 5.00385880e-01 1.38719454e-01 1.23235779e-02 1.39266560e-02 1.44593250e-02 5.16826063e-02 7.52234757e-01 6.56896383e-02 5.57754422e-03 8.43768846e-03 5.49331784e-01 6.03564680e-01 5.96147180e-01 5.95063150e-01 5.90027511e-01 5.80922484e-01 5.69079578e-01 5.58315516e-01 5.50301015e-01 5.45202315e-01 5.42075753e-01 5.39740860e-01 5.37459612e-01 5.35066664e-01 5.32738030e-01 5.30827880e-01 5.30118346e-01 5.31841695e-01 5.36613345e-01 5.44861257e-01 5.58961451e-01 5.73567927e-01 5.99772692e-01 4.94062781e-01 2.01274574e-01 1.30566105e-01 6.91236481e-02 2.00513825e-01 9.23194289e-01 9.65021644e-03 9.13924631e-03 5.35752714e-01 5.83135486e-01 5.72165191e-01 5.62784374e-01 5.62798738e-01 5.62668502e-01 5.52267849e-01 5.42475462e-01 5.36301374e-01 5.34398973e-01 5.34395039e-01 5.34030139e-01 5.32248557e-01 5.29249430e-01 5.25836408e-01 5.22671223e-01 5.20358682e-01 5.19957483e-01 5.22791564e-01 5.28999388e-01 5.39075196e-01 5.54211736e-01 5.82345903e-01 6.43351138e-01 6.49088204e-01 3.61686230e-01 1.17968440e-01 1.10368818e-01 9.57184136e-01 1.04492530e-02 9.75688174e-03 5.20856500e-01 5.51993370e-01 5.25995731e-01 4.87220824e-01 4.87674773e-01 5.05543530e-01 5.14839947e-01 5.14252245e-01 5.08477926e-01 5.10978878e-01 5.15280128e-01 5.17698705e-01 5.17041862e-01 5.13970613e-01 5.09937882e-01 5.05769253e-01 5.02053618e-01 4.99841988e-01 5.00427783e-01 5.04063964e-01 5.09410739e-01 5.15614212e-01 5.24881542e-01 5.48591316e-01 5.69321990e-01 5.01939476e-01 4.13296491e-01 5.45882225e-01 8.90073419e-01 1.14657814e-02 1.03350589e-02 5.10112703e-01 5.23771346e-01 4.75946397e-01 3.80386978e-01 3.59456420e-01 4.05555457e-01 4.49675649e-01 4.72479343e-01 4.82081145e-01 4.85386729e-01 4.93640453e-01 4.98669446e-01 4.99505550e-01 4.97367084e-01 4.93761182e-01 4.89599824e-01 4.85435545e-01 4.83547300e-01 4.82682437e-01 4.85470831e-01 4.89307970e-01 4.91771013e-01 4.91930693e-01 4.90615159e-01 4.74042445e-01 4.49097306e-01 4.91319716e-01 6.69503152e-01 8.41754794e-01 1.22984741e-02 1.13599952e-02 5.05186021e-01 5.07901847e-01 4.46865916e-01 2.91828632e-01 2.26472303e-01 2.81771392e-01 3.63653243e-01 4.21086460e-01 4.51588720e-01 4.64710534e-01 4.75300610e-01 4.82800215e-01 4.85596806e-01 4.85171020e-01 4.83076632e-01 4.79525894e-01 4.75718647e-01 4.73188370e-01 4.73004460e-01 4.74329948e-01 4.75576878e-01 4.76594567e-01 4.76228416e-01 4.72353220e-01 4.65422601e-01 4.68331665e-01 5.43272793e-01 7.11793244e-01 7.74149299e-01 1.24856038e-02 1.18805775e-02 5.03939271e-01 5.02845168e-01 4.45405364e-01 2.52163351e-01 1.45308837e-01 1.82529300e-01 2.76656866e-01 3.66063029e-01 4.20629561e-01 4.50488269e-01 4.62940305e-01 4.72608417e-01 4.77932513e-01 4.80132073e-01 4.79551852e-01 4.76774365e-01 4.73173887e-01 4.70068872e-01 4.68118608e-01 4.67266321e-01 4.66795653e-01 4.67848390e-01 4.72132653e-01 4.76833820e-01 4.86690104e-01 5.24382353e-01 6.13958418e-01 7.28158891e-01 6.82346046e-01 1.44015132e-02 1.28252655e-02 5.03631115e-01 5.02081752e-01 4.57028598e-01 2.51425773e-01 1.01264171e-01 1.19168311e-01 2.07683876e-01 3.18386078e-01 3.95037174e-01 4.37563062e-01 4.57546532e-01 4.68862057e-01 4.76693898e-01 4.81604457e-01 4.83248591e-01 4.81863797e-01 4.78496879e-01 4.74701524e-01 4.70910132e-01 4.67158973e-01 4.64584082e-01 4.67623472e-01 4.78988826e-01 4.99550015e-01 5.25565326e-01 5.78771532e-01 6.59775972e-01 7.15531290e-01 4.93118376e-01 1.73451845e-02 1.52696911e-02 5.02758622e-01 5.01208961e-01 4.68308985e-01 2.71243960e-01 7.53894448e-02 8.17739666e-02 1.57652497e-01 2.85102636e-01 3.80443692e-01 4.31075692e-01 4.54245627e-01 4.70015943e-01 4.80659366e-01 4.87610579e-01 4.90978986e-01 4.91401523e-01 4.88692760e-01 4.84580100e-01 4.79973614e-01 4.74742651e-01 4.72896457e-01 4.79572117e-01 4.95686769e-01 5.24189413e-01 5.66326678e-01 6.25493526e-01 6.80878818e-01 6.48043454e-01 1.86531559e-01 2.09114850e-02 1.78995486e-02 5.00963390e-01 4.98746276e-01 4.75802809e-01 2.99371988e-01 5.99959753e-02 6.11475743e-02 1.23477541e-01 2.69543320e-01 3.79807860e-01 4.31321621e-01 4.55558538e-01 4.73350048e-01 4.87084001e-01 4.95622277e-01 4.99930024e-01 5.01377821e-01 5.00395894e-01 4.97408241e-01 4.93874878e-01 4.91123825e-01 4.92362052e-01 5.02634346e-01 5.26387334e-01 5.56210577e-01 6.01736367e-01 6.53339088e-01 6.63011134e-01 4.33568716e-01 7.54830837e-02 2.75927521e-02 2.28539575e-02 4.98347878e-01 4.94693339e-01 4.79998201e-01 3.29522192e-01 4.94928844e-02 4.85510342e-02 1.01894744e-01 2.72723943e-01 3.92556548e-01 4.36523706e-01 4.57555711e-01 4.77337956e-01 4.93119448e-01 5.02992153e-01 5.08120179e-01 5.10808706e-01 5.12063920e-01 5.11738837e-01 5.11795819e-01 5.13935387e-01 5.19490242e-01 5.34854710e-01 5.61694682e-01 5.93986273e-01 6.26340628e-01 6.42985761e-01 5.11160910e-01 1.42413840e-01 4.53684740e-02 3.59693877e-02 3.58983390e-02 4.94901001e-01 4.89325166e-01 4.81700808e-01 3.58351111e-01 4.16711420e-02 3.99290957e-02 8.82761329e-02 2.93146759e-01 4.13205594e-01 4.43488210e-01 4.60640162e-01 4.80531842e-01 4.96910214e-01 5.07720888e-01 5.13923705e-01 5.18045783e-01 5.22004187e-01 5.25297761e-01 5.30225515e-01 5.38803101e-01 5.52080750e-01 5.73458433e-01 6.00004613e-01 6.17978930e-01 6.04423523e-01 4.99778301e-01 1.73505932e-01 7.69047067e-02 4.52990457e-02 4.59078327e-02 8.68253112e-02 4.90433604e-01 4.82465267e-01 4.81482863e-01 3.84961903e-01 3.63855809e-02 3.37569416e-02 7.87081644e-02 3.26614797e-01 4.33321595e-01 4.49185669e-01 4.64201748e-01 4.82168078e-01 4.97645438e-01 5.08791149e-01 5.16329110e-01 5.22013426e-01 5.28524280e-01 5.35565615e-01 5.45343459e-01 5.59247494e-01 5.80756724e-01 6.06847107e-01 6.27967894e-01 6.15152776e-01 5.06409526e-01 2.30873019e-01 1.05602555e-01 6.76359907e-02 6.27382174e-02 8.16944987e-02 2.61884779e-01 4.85331744e-01 4.74022001e-01 4.79162693e-01 4.11388725e-01 3.36683132e-02 2.91516893e-02 6.99653476e-02 3.67048770e-01 4.47309822e-01 4.53913927e-01 4.66336429e-01 4.81941879e-01 4.95458722e-01 5.06166995e-01 5.14869273e-01 5.22413969e-01 5.30553520e-01 5.40707707e-01 5.53823948e-01 5.72063327e-01 5.96863985e-01 6.26837969e-01 6.42641664e-01 6.11597598e-01 4.57519978e-01 1.99902132e-01 1.07848302e-01 9.15577933e-02 1.14859037e-01 2.14096576e-01 4.09336925e-01 4.80976582e-01 4.65120107e-01 4.74806666e-01 4.39706594e-01 3.42625082e-02 2.53030565e-02 5.88380769e-02 4.07521129e-01 4.54605579e-01 4.57788020e-01 4.66441154e-01 4.78720874e-01 4.90341336e-01 5.00279725e-01 5.09542346e-01 5.18695772e-01 5.28418422e-01 5.40104747e-01 5.54973483e-01 5.74231505e-01 5.98383546e-01 6.25845432e-01 6.40159428e-01 6.15722179e-01 5.00939727e-01 2.87022233e-01 1.90162539e-01 2.16842920e-01 3.20891857e-01 4.28663284e-01 4.73704726e-01 4.76411343e-01 4.57209468e-01 4.69628066e-01 4.69227761e-01 4.05197293e-02 2.06874348e-02 4.34295908e-02 4.39826906e-01 4.58993405e-01 4.59471226e-01 4.63861406e-01 4.72380698e-01 4.82101738e-01 4.91639197e-01 5.00635803e-01 5.10672808e-01 5.21531045e-01 5.33698738e-01 5.48307478e-01 5.66188216e-01 5.87056756e-01 6.08563483e-01 6.22998595e-01 6.15760267e-01 5.64381897e-01 4.74069089e-01 4.39354420e-01 4.88771945e-01 5.47086060e-01 5.67618787e-01 5.24524510e-01 4.74024862e-01 4.49403912e-01 4.63570207e-01 4.87948060e-01 5.97038157e-02 1.50225740e-02 2.67794095e-02 4.56874132e-01 4.58489150e-01 4.56566811e-01 4.58176076e-01 4.62844014e-01 4.70982105e-01 4.79535639e-01 4.88773316e-01 4.99074459e-01 5.10103703e-01 5.22741377e-01 5.36550641e-01 5.51875532e-01 5.68368793e-01 5.85122705e-01 5.99257112e-01 6.04919076e-01 5.94333470e-01 5.72084188e-01 5.65467775e-01 5.80901265e-01 5.91496289e-01 5.95293045e-01 5.45912385e-01 4.76889282e-01 4.49901611e-01 4.55739439e-01 4.90200788e-01 1.23135366e-01 1.17412237e-02 1.59344431e-02 4.61949319e-01 4.54744250e-01 4.49544370e-01 4.48651373e-01 4.51434970e-01 4.57633585e-01 4.64720309e-01 4.73081410e-01 4.83275592e-01 4.94901747e-01 5.08604825e-01 5.22394419e-01 5.37011027e-01 5.51011801e-01 5.63759327e-01 5.75291574e-01 5.84219575e-01 5.86749673e-01 5.81037283e-01 5.72854340e-01 5.67942023e-01 5.65732300e-01 5.67476213e-01 5.37916362e-01 4.90317166e-01 4.68565732e-01 4.67668563e-01 4.74357814e-01 3.71239066e-01 9.69190150e-03 1.19536035e-02 4.65504557e-01 4.49418902e-01 4.40841913e-01 4.38839495e-01 4.39302981e-01 4.41409945e-01 4.46762741e-01 4.53598410e-01 4.63887602e-01 4.76826698e-01 4.92650747e-01 5.10945737e-01 5.29693961e-01 5.47354519e-01 5.59716165e-01 5.65918088e-01 5.66101968e-01 5.60761511e-01 5.52805126e-01 5.42953253e-01 5.33446431e-01 5.26607811e-01 5.26204050e-01 5.20225763e-01 5.01933336e-01 4.99178827e-01 4.99814034e-01 4.99808431e-01 3.28244090e-01 1.68490149e-02 1.19346594e-02 5.13047695e-01 4.75416869e-01 4.69362468e-01 4.66737568e-01 4.65722084e-01 4.65398878e-01 4.67232198e-01 4.70271319e-01 4.75458235e-01 4.82760608e-01 4.91834044e-01 5.02135098e-01 5.14325261e-01 5.25439560e-01 5.33530116e-01 5.35892785e-01 5.31869173e-01 5.23732245e-01 5.15379906e-01 5.09567082e-01 5.06166220e-01 5.03620803e-01 5.01226664e-01 5.02979994e-01 
