# vtk DataFile Version 2.0
results/1_density.vtk, Created by Freefem++ 
ASCII
DATASET UNSTRUCTURED_GRID
POINTS 961 float
0 0 0
0.033333333 0 0
0.066666667 0 0
0.1 0 0
0.13333333 0 0
0.16666667 0 0
0.2 0 0
0.23333333 0 0
0.26666667 0 0
0.3 0 0
0.33333333 0 0
0.36666667 0 0
0.4 0 0
0.43333333 0 0
0.46666667 0 0
0.5 0 0
0.53333333 0 0
0.56666667 0 0
0.6 0 0
0.63333333 0 0
0.66666667 0 0
0.7 0 0
0.73333333 0 0
0.76666667 0 0
0.8 0 0
0.83333333 0 0
0.86666667 0 0
0.9 0 0
0.93333333 0 0
0.96666667 0 0
1 0 0
0 0.033333333 0
0.033333333 0.033333333 0
0.066666667 0.033333333 0
0.1 0.033333333 0
0.13333333 0.033333333 0
0.16666667 0.033333333 0
0.2 0.033333333 0
0.23333333 0.033333333 0
0.26666667 0.033333333 0
0.3 0.033333333 0
0.33333333 0.033333333 0
0.36666667 0.033333333 0
0.4 0.033333333 0
0.43333333 0.033333333 0
0.46666667 0.033333333 0
0.5 0.033333333 0
0.53333333 0.033333333 0
0.56666667 0.033333333 0
0.6 0.033333333 0
0.63333333 0.033333333 0
0.66666667 0.033333333 0
0.7 0.033333333 0
0.73333333 0.033333333 0
0.76666667 0.033333333 0
0.8 0.033333333 0
0.83333333 0.033333333 0
0.86666667 0.033333333 0
0.9 0.033333333 0
0.93333333 0.033333333 0
0.96666667 0.033333333 0
1 0.033333333 0
0 0.066666667 0
0.033333333 0.066666667 0
0.066666667 0.066666667 0
0.1 0.066666667 0
0.13333333 0.066666667 0
0.16666667 0.066666667 0
0.2 0.066666667 0
0.23333333 0.066666667 0
0.26666667 0.066666667 0
0.3 0.066666667 0
0.33333333 0.066666667 0
0.36666667 0.066666667 0
0.4 0.066666667 0
0.43333333 0.066666667 0
0.46666667 0.066666667 0
0.5 0.066666667 0
0.53333333 0.066666667 0
0.56666667 0.066666667 0
0.6 0.066666667 0
0.63333333 0.066666667 0
0.66666667 0.066666667 0
0.7 0.066666667 0
0.73333333 0.066666667 0
0.76666667 0.066666667 0
0.8 0.066666667 0
0.83333333 0.066666667 0
0.86666667 0.066666667 0
0.9 0.066666667 0
0.93333333 0.066666667 0
0.96666667 0.066666667 0
1 0.066666667 0
0 0.1 0
0.033333333 0.1 0
0.066666667 0.1 0
0.1 0.1 0
0.13333333 0.1 0
0.16666667 0.1 0
0.2 0.1 0
0.23333333 0.1 0
0.26666667 0.1 0
0.3 0.1 0
0.33333333 0.1 0
0.36666667 0.1 0
0.4 0.1 0
0.43333333 0.1 0
0.46666667 0.1 0
0.5 0.1 0
0.53333333 0.1 0
0.56666667 0.1 0
0.6 0.1 0
0.63333333 0.1 0
0.66666667 0.1 0
0.7 0.1 0
0.73333333 0.1 0
0.76666667 0.1 0
0.8 0.1 0
0.83333333 0.1 0
0.86666667 0.1 0
0.9 0.1 0
0.93333333 0.1 0
0.96666667 0.1 0
1 0.1 0
0 0.13333333 0
0.033333333 0.13333333 0
0.066666667 0.13333333 0
0.1 0.13333333 0
0.13333333 0.13333333 0
0.16666667 0.13333333 0
0.2 0.13333333 0
0.23333333 0.13333333 0
0.26666667 0.13333333 0
0.3 0.13333333 0
0.33333333 0.13333333 0
0.36666667 0.13333333 0
0.4 0.13333333 0
0.43333333 0.13333333 0
0.46666667 0.13333333 0
0.5 0.13333333 0
0.53333333 0.13333333 0
0.56666667 0.13333333 0
0.6 0.13333333 0
0.63333333 0.13333333 0
0.66666667 0.13333333 0
0.7 0.13333333 0
0.73333333 0.13333333 0
0.76666667 0.13333333 0
0.8 0.13333333 0
0.83333333 0.13333333 0
0.86666667 0.13333333 0
0.9 0.13333333 0
0.93333333 0.13333333 0
0.96666667 0.13333333 0
1 0.13333333 0
0 0.16666667 0
0.033333333 0.16666667 0
0.066666667 0.16666667 0
0.1 0.16666667 0
0.13333333 0.16666667 0
0.16666667 0.16666667 0
0.2 0.16666667 0
0.23333333 0.16666667 0
0.26666667 0.16666667 0
0.3 0.16666667 0
0.33333333 0.16666667 0
0.36666667 0.16666667 0
0.4 0.16666667 0
0.43333333 0.16666667 0
0.46666667 0.16666667 0
0.5 0.16666667 0
0.53333333 0.16666667 0
0.56666667 0.16666667 0
0.6 0.16666667 0
0.63333333 0.16666667 0
0.66666667 0.16666667 0
0.7 0.16666667 0
0.73333333 0.16666667 0
0.76666667 0.16666667 0
0.8 0.16666667 0
0.83333333 0.16666667 0
0.86666667 0.16666667 0
0.9 0.16666667 0
0.93333333 0.16666667 0
0.96666667 0.16666667 0
1 0.16666667 0
0 0.2 0
0.033333333 0.2 0
0.066666667 0.2 0
0.1 0.2 0
0.13333333 0.2 0
0.16666667 0.2 0
0.2 0.2 0
0.23333333 0.2 0
0.26666667 0.2 0
0.3 0.2 0
0.33333333 0.2 0
0.36666667 0.2 0
0.4 0.2 0
0.43333333 0.2 0
0.46666667 0.2 0
0.5 0.2 0
0.53333333 0.2 0
0.56666667 0.2 0
0.6 0.2 0
0.63333333 0.2 0
0.66666667 0.2 0
0.7 0.2 0
0.73333333 0.2 0
0.76666667 0.2 0
0.8 0.2 0
0.83333333 0.2 0
0.86666667 0.2 0
0.9 0.2 0
0.93333333 0.2 0
0.96666667 0.2 0
1 0.2 0
0 0.23333333 0
0.033333333 0.23333333 0
0.066666667 0.23333333 0
0.1 0.23333333 0
0.13333333 0.23333333 0
0.16666667 0.23333333 0
0.2 0.23333333 0
0.23333333 0.23333333 0
0.26666667 0.23333333 0
0.3 0.23333333 0
0.33333333 0.23333333 0
0.36666667 0.23333333 0
0.4 0.23333333 0
0.43333333 0.23333333 0
0.46666667 0.23333333 0
0.5 0.23333333 0
0.53333333 0.23333333 0
0.56666667 0.23333333 0
0.6 0.23333333 0
0.63333333 0.23333333 0
0.66666667 0.23333333 0
0.7 0.23333333 0
0.73333333 0.23333333 0
0.76666667 0.23333333 0
0.8 0.23333333 0
0.83333333 0.23333333 0
0.86666667 0.23333333 0
0.9 0.23333333 0
0.93333333 0.23333333 0
0.96666667 0.23333333 0
1 0.23333333 0
0 0.26666667 0
0.033333333 0.26666667 0
0.066666667 0.26666667 0
0.1 0.26666667 0
0.13333333 0.26666667 0
0.16666667 0.26666667 0
0.2 0.26666667 0
0.23333333 0.26666667 0
0.26666667 0.26666667 0
0.3 0.26666667 0
0.33333333 0.26666667 0
0.36666667 0.26666667 0
0.4 0.26666667 0
0.43333333 0.26666667 0
0.46666667 0.26666667 0
0.5 0.26666667 0
0.53333333 0.26666667 0
0.56666667 0.26666667 0
0.6 0.26666667 0
0.63333333 0.26666667 0
0.66666667 0.26666667 0
0.7 0.26666667 0
0.73333333 0.26666667 0
0.76666667 0.26666667 0
0.8 0.26666667 0
0.83333333 0.26666667 0
0.86666667 0.26666667 0
0.9 0.26666667 0
0.93333333 0.26666667 0
0.96666667 0.26666667 0
1 0.26666667 0
0 0.3 0
0.033333333 0.3 0
0.066666667 0.3 0
0.1 0.3 0
0.13333333 0.3 0
0.16666667 0.3 0
0.2 0.3 0
0.23333333 0.3 0
0.26666667 0.3 0
0.3 0.3 0
0.33333333 0.3 0
0.36666667 0.3 0
0.4 0.3 0
0.43333333 0.3 0
0.46666667 0.3 0
0.5 0.3 0
0.53333333 0.3 0
0.56666667 0.3 0
0.6 0.3 0
0.63333333 0.3 0
0.66666667 0.3 0
0.7 0.3 0
0.73333333 0.3 0
0.76666667 0.3 0
0.8 0.3 0
0.83333333 0.3 0
0.86666667 0.3 0
0.9 0.3 0
0.93333333 0.3 0
0.96666667 0.3 0
1 0.3 0
0 0.33333333 0
0.033333333 0.33333333 0
0.066666667 0.33333333 0
0.1 0.33333333 0
0.13333333 0.33333333 0
0.16666667 0.33333333 0
0.2 0.33333333 0
0.23333333 0.33333333 0
0.26666667 0.33333333 0
0.3 0.33333333 0
0.33333333 0.33333333 0
0.36666667 0.33333333 0
0.4 0.33333333 0
0.43333333 0.33333333 0
0.46666667 0.33333333 0
0.5 0.33333333 0
0.53333333 0.33333333 0
0.56666667 0.33333333 0
0.6 0.33333333 0
0.63333333 0.33333333 0
0.66666667 0.33333333 0
0.7 0.33333333 0
0.73333333 0.33333333 0
0.76666667 0.33333333 0
0.8 0.33333333 0
0.83333333 0.33333333 0
0.86666667 0.33333333 0
0.9 0.33333333 0
0.93333333 0.33333333 0
0.96666667 0.33333333 0
1 0.33333333 0
0 0.36666667 0
0.033333333 0.36666667 0
0.066666667 0.36666667 0
0.1 0.36666667 0
0.13333333 0.36666667 0
0.16666667 0.36666667 0
0.2 0.36666667 0
0.23333333 0.36666667 0
0.26666667 0.36666667 0
0.3 0.36666667 0
0.33333333 0.36666667 0
0.36666667 0.36666667 0
0.4 0.36666667 0
0.43333333 0.36666667 0
0.46666667 0.36666667 0
0.5 0.36666667 0
0.53333333 0.36666667 0
0.56666667 0.36666667 0
0.6 0.36666667 0
0.63333333 0.36666667 0
0.66666667 0.36666667 0
0.7 0.36666667 0
0.73333333 0.36666667 0
0.76666667 0.36666667 0
0.8 0.36666667 0
0.83333333 0.36666667 0
0.86666667 0.36666667 0
0.9 0.36666667 0
0.93333333 0.36666667 0
0.96666667 0.36666667 0
1 0.36666667 0
0 0.4 0
0.033333333 0.4 0
0.066666667 0.4 0
0.1 0.4 0
0.13333333 0.4 0
0.16666667 0.4 0
0.2 0.4 0
0.23333333 0.4 0
0.26666667 0.4 0
0.3 0.4 0
0.33333333 0.4 0
0.36666667 0.4 0
0.4 0.4 0
0.43333333 0.4 0
0.46666667 0.4 0
0.5 0.4 0
0.53333333 0.4 0
0.56666667 0.4 0
0.6 0.4 0
0.63333333 0.4 0
0.66666667 0.4 0
0.7 0.4 0
0.73333333 0.4 0
0.76666667 0.4 0
0.8 0.4 0
0.83333333 0.4 0
0.86666667 0.4 0
0.9 0.4 0
0.93333333 0.4 0
0.96666667 0.4 0
1 0.4 0
0 0.43333333 0
0.033333333 0.43333333 0
0.066666667 0.43333333 0
0.1 0.43333333 0
0.13333333 0.43333333 0
0.16666667 0.43333333 0
0.2 0.43333333 0
0.23333333 0.43333333 0
0.26666667 0.43333333 0
0.3 0.43333333 0
0.33333333 0.43333333 0
0.36666667 0.43333333 0
0.4 0.43333333 0
0.43333333 0.43333333 0
0.46666667 0.43333333 0
0.5 0.43333333 0
0.53333333 0.43333333 0
0.56666667 0.43333333 0
0.6 0.43333333 0
0.63333333 0.43333333 0
0.66666667 0.43333333 0
0.7 0.43333333 0
0.73333333 0.43333333 0
0.76666667 0.43333333 0
0.8 0.43333333 0
0.83333333 0.43333333 0
0.86666667 0.43333333 0
0.9 0.43333333 0
0.93333333 0.43333333 0
0.96666667 0.43333333 0
1 0.43333333 0
0 0.46666667 0
0.033333333 0.46666667 0
0.066666667 0.46666667 0
0.1 0.46666667 0
0.13333333 0.46666667 0
0.16666667 0.46666667 0
0.2 0.46666667 0
0.23333333 0.46666667 0
0.26666667 0.46666667 0
0.3 0.46666667 0
0.33333333 0.46666667 0
0.36666667 0.46666667 0
0.4 0.46666667 0
0.43333333 0.46666667 0
0.46666667 0.46666667 0
0.5 0.46666667 0
0.53333333 0.46666667 0
0.56666667 0.46666667 0
0.6 0.46666667 0
0.63333333 0.46666667 0
0.66666667 0.46666667 0
0.7 0.46666667 0
0.73333333 0.46666667 0
0.76666667 0.46666667 0
0.8 0.46666667 0
0.83333333 0.46666667 0
0.86666667 0.46666667 0
0.9 0.46666667 0
0.93333333 0.46666667 0
0.96666667 0.46666667 0
1 0.46666667 0
0 0.5 0
0.033333333 0.5 0
0.066666667 0.5 0
0.1 0.5 0
0.13333333 0.5 0
0.16666667 0.5 0
0.2 0.5 0
0.23333333 0.5 0
0.26666667 0.5 0
0.3 0.5 0
0.33333333 0.5 0
0.36666667 0.5 0
0.4 0.5 0
0.43333333 0.5 0
0.46666667 0.5 0
0.5 0.5 0
0.53333333 0.5 0
0.56666667 0.5 0
0.6 0.5 0
0.63333333 0.5 0
0.66666667 0.5 0
0.7 0.5 0
0.73333333 0.5 0
0.76666667 0.5 0
0.8 0.5 0
0.83333333 0.5 0
0.86666667 0.5 0
0.9 0.5 0
0.93333333 0.5 0
0.96666667 0.5 0
1 0.5 0
0 0.53333333 0
0.033333333 0.53333333 0
0.066666667 0.53333333 0
0.1 0.53333333 0
0.13333333 0.53333333 0
0.16666667 0.53333333 0
0.2 0.53333333 0
0.23333333 0.53333333 0
0.26666667 0.53333333 0
0.3 0.53333333 0
0.33333333 0.53333333 0
0.36666667 0.53333333 0
0.4 0.53333333 0
0.43333333 0.53333333 0
0.46666667 0.53333333 0
0.5 0.53333333 0
0.53333333 0.53333333 0
0.56666667 0.53333333 0
0.6 0.53333333 0
0.63333333 0.53333333 0
0.66666667 0.53333333 0
0.7 0.53333333 0
0.73333333 0.53333333 0
0.76666667 0.53333333 0
0.8 0.53333333 0
[...]
CELL_DATA 1920
Scalars  Label int 1
LOOKUP_TABLE FreeFempp_table
0
0
0
0
0
0
0
0
0
0
0
0
0
0
0
0
0
0
0
0
0
0
0
0
0
0
0
0
0
0
0
0
0
0
0
0
0
0
0
0
0
0
0
0
0
0
0
0
0
0
0
0
0
0
0
0
0
0
0
0
0
0
0
0
0
0
0
0
0
0
0
0
0
0
0
0
0
0
0
0
0
0
0
0
0
0
0
0
0
0
0
0
0
0
0
0
0
0
0
0
0
0
0
0
0
0
0
0
0
0
0
0
0
0
0
0
0
0
0
0
0
0
0
0
0
0
0
0
0
0
0
0
0
0
0
0
0
0
0
0
0
0
0
0
0
0
0
0
0
0
0
0
0
0
0
0
0
0
0
0
0
0
0
0
0
0
0
0
0
0
0
0
0
0
0
0
0
0
0
0
0
0
0
0
0
0
0
0
0
0
0
0
0
0
0
0
0
0
0
0
0
0
0
0
0
0
0
0
0
0
0
0
0
0
0
0
0
0
0
0
0
0
0
0
0
0
0
0
0
0
0
0
0
0
0
0
0
0
0
0
0
0
0
0
0
0
0
0
0
0
0
0
0
0
0
0
0
0
0
0
0
0
0
0
0
0
0
0
0
0
0
0
0
0
0
0
0
0
0
0
0
0
0
0
0
0
0
0
0
0
0
0
0
0
0
0
0
0
0
0
0
0
0
0
0
0
0
0
0
0
0
0
0
0
0
0
0
0
0
0
0
0
0
0
0
0
0
0
0
0
0
0
0
0
0
0
0
0
0
0
0
0
0
0
0
0
0
0
0
0
0
0
0
0
0
0
0
0
0
0
0
0
0
0
0
0
0
0
0
0
0
0
0
0
0
0
0
0
0
0
0
0
0
0
0
0
0
0
0
0
0
0
0
0
0
0
0
0
0
0
0
0
0
0
0
0
0
0
0
0
0
0
0
0
0
0
0
0
0
0
0
0
0
0
0
0
0
0
0
0
0
0
0
0
0
0
0
0
0
0
0
0
0
0
0
0
0
0
0
0
0
0
0
0
0
0
0
0
0
0
0
0
0
0
0
0
0
0
0
0
0
0
0
0
0
0
0
0
0
0
0
0
0
0
0
0
0
0
0
0
0
0
0
0
0
0
0
0
0
0
0
0
0
0
0
0
0
0
0
0
0
0
0
0
0
0
0
0
0
0
0
0
0
0
0
0
0
0
0
0
0
0
0
0
0
0
0
0
0
0
0
0
0
0
0
0
0
0
0
0
0
0
0
0
0
0
0
0
0
0
0
0
0
0
0
0
0
0
0
0
0
0
0
0
0
0
0
0
0
0
0
0
0
0
0
0
0
0
0
0
0
0
0
0
0
0
0
0
0
0
0
0
0
0
0
0
0
0
0
0
0
0
0
0
0
0
0
0
0
0
0
0
0
0
0
0
0
0
0
0
0
0
0
0
0
0
0
0
0
0
0
0
0
0
0
0
0
0
0
0
0
0
0
0
0
0
0
0
0
0
0
0
0
0
0
0
0
0
0
0
0
0
0
0
0
0
0
0
0
0
0
0
0
0
0
0
0
0
0
0
0
0
0
0
0
0
0
0
0
0
0
0
0
0
0
0
0
0
0
0
0
0
0
0
0
0
0
0
0
0
0
0
0
0
0
0
0
0
0
0
0
0
0
0
0
0
0
0
0
0
0
0
0
0
0
0
0
0
0
0
0
0
0
0
0
0
0
0
0
0
0
0
0
0
0
0
0
0
0
0
0
0
0
0
0
0
0
0
0
0
0
0
0
0
0
0
0
0
0
0
0
0
0
0
0
0
0
0
0
0
0
0
0
0
0
0
0
0
0
0
0
0
0
0
0
0
0
0
0
0
0
0
0
0
0
0
0
0
0
0
0
0
0
0
0
0
0
0
0
0
0
0
0
0
0
0
0
0
0
0
0
0
0
0
0
0
0
0
0
0
0
0
0
0
0
0
0
0
0
0
0
0
0
0
0
0
0
0
0
0
0
0
0
0
0
0
0
0
0
0
0
0
0
0
0
0
0
0
0
0
0
0
0
0
0
0
0
0
0
0
0
0
0
0
0
0
0
0
0
0
0
0
0
0
0
0
0
0
0
0
0
0
0
0
0
0
0
0
0
0
0
0
0
0
0
0
0
0
0
0
0
0
0
0
0
0
0
0
0
0
0
0
0
0
0
0
0
0
0
0
0
0
0
0
0
0
0
0
0
0
0
0
0
0
0
0
0
0
0
0
0
0
0
0
0
0
0
0
0
0
0
0
0
0
0
0
0
0
0
0
0
0
0
0
0
0
0
0
0
0
0
0
0
0
0
0
0
0
0
0
0
0
0
0
0
0
0
0
0
0
0
0
0
0
0
0
0
0
0
0
0
0
0
0
0
0
0
0
0
0
0
0
0
0
0
0
0
0
0
0
0
0
0
0
0
0
0
0
0
0
0
0
0
0
0
0
0
0
0
0
0
0
0
0
0
0
0
0
0
0
0
0
0
0
0
0
0
0
0
0
0
0
0
0
0
0
0
0
0
0
0
0
0
0
0
0
0
0
0
0
0
0
0
0
0
0
0
0
0
0
0
0
0
0
0
0
0
0
0
0
0
0
0
0
0
0
0
0
0
0
0
0
0
0
0
0
0
0
0
0
0
0
0
0
0
0
0
0
0
0
0
0
0
0
0
0
0
0
0
0
0
0
0
0
0
0
0
0
0
0
0
0
0
0
0
0
0
0
0
0
0
0
0
0
0
0
0
0
0
0
0
0
0
0
0
0
0
0
0
0
0
0
0
0
0
0
0
0
0
0
0
0
0
0
0
0
0
0
0
0
0
0
0
0
0
0
0
0
0
0
0
0
0
0
0
0
0
0
0
0
0
0
0
0
0
0
0
0
0
0
0
0
0
0
0
0
0
0
0
0
0
0
0
0
0
0
0
0
0
0
0
0
0
0
0
0
0
0
0
0
0
0
0
0
0
0
0
0
0
0
0
0
0
0
0
0
0
0
0
0
0
0
0
0
0
0
0
0
0
0
0
0
0
0
0
0
0
0
0
0
0
0
0
0
0
0
0
0
0
0
0
0
0
0
0
0
0
0
0
0
0
0
0
0
0
0
0
0
0
0
0
0
0
0
0
0
0
0
0
0
0
0
0
0
0
0
0
0
0
0
0
0
0
0
0
0
0
0
0
0
0
0
0
0
0
0
0
0
0
0
0
0
0
0
0
0
0
0
0
0
0
0
0
0
0
0
0
0
0
0
0
0
0
0
0
0
0
0
0
0
0
0
0
0
0
0
0
0
0
0
0
0
0
0
0
0
0
0
0
0
0
0
0
0
0
0
0
0
0
0
0
0
0
0
0
0
0
0
0
0
0
0
0
0
0
0
0
0
0
0
0
0
0
0
0
0
0
0
0
0
0
0
0
0
0
0
0
0
0
0
0
0
0
0
0
0
0
0
0
0
0
0
0
0
0
0
0
0
0
0
0
0
0
0
0
0
0
0
0
0
0
0
0
0
0
0
0
0
0
0
0
0
0
0
0
0
0
0
0
0
0
0
0
0
0
0
0
0
0
0
0
0
0
0
0
0
0
0
0
0
0
0
0
0
0
0
0
0
0
0
0
0
0
0
0
0
0
0
0
0
0
0
0
0
0
0
0
0
0
0
0
0
0
0
0
0
0
0
0
0
0
0
0
0
0
0
0
0
0
0
0
0
0
0
0
0
0
0
0
0
0
0
0
0
0
0
0
0
0
0
0
0
0
0
0
0
0
0
0
0
0
0
0
0
0
0
0
0
0
0
0
0
0
0
0
0
0
0
0
0
0
0
0
0
0
0
0
0
0
0
0
0
0
0
0
0
0
0
0
0
0
0
0
0
0
0
0
0
0
0
0
0
0
0
0
0
0
0
0
0
0
0
0
0
0
0
0
0
0
0
0
0
0
0
0
0
0
0
0
0
0
0
0
0
0
0
0
0
0
0
0
0
0
0
0
0
0
0
0
0
0
0
0
0
0
0
0
0
0
0
0
0
0
0
0
0
0
0
0
0
0
0
0
0
0
0
0
0
0
0
1
1
1
1
1
1
1
1
1
1
1
1
1
1
1
1
1
1
1
1
1
1
1
1
1
1
1
1
1
1
2
2
2
2
2
2
2
2
2
2
2
2
2
2
2
2
2
2
2
2
2
2
2
2
2
2
2
2
2
2
3
3
3
3
3
3
3
3
3
3
3
3
3
3
3
3
3
3
3
3
3
3
3
3
3
3
3
3
3
3
4
4
4
4
4
4
4
4
4
4
4
4
4
4
4
4
4
4
4
4
4
4
4
4
4
4
4
4
4
4

LOOKUP_TABLE FreeFempp_table 5
1.00000000 0.00000000 0.00000000 1.00000000
1.00000000 1.00000000 0.00000000 1.00000000
1.00000000 0.00000000 1.00000000 1.00000000
0.00000000 1.00000000 0.00000000 1.00000000
0.00000000 1.00000000 1.00000000 1.00000000

POINT_DATA 961
FIELD FieldData 1
Density 1 961 float
2.70463198e-01 2.55073488e-01 2.89448023e-01 2.98142523e-01 2.91028768e-01 2.76093692e-01 2.52129138e-01 2.11468920e-01 1.54139146e-01 1.26454800e-01 1.64554268e-01 2.70619959e-01 3.52722585e-01 3.82518470e-01 3.97997260e-01 4.16610152e-01 4.53995794e-01 5.27275860e-01 6.16006613e-01 6.52599275e-01 6.26926243e-01 6.10912442e-01 6.51150823e-01 6.55221999e-01 6.28526688e-01 6.25161588e-01 6.12341583e-01 5.70127666e-01 5.69001615e-01 5.68577290e-01 5.23834348e-01 3.37582501e-03 2.01902747e-01 2.49347717e-01 2.56362766e-01 2.47232392e-01 2.32757658e-01 2.12277800e-01 1.80773541e-01 1.35523841e-01 9.93737206e-02 1.09900177e-01 1.82180494e-01 2.87769884e-01 3.24667543e-01 3.42125922e-01 3.60292792e-01 3.98631454e-01 5.06613731e-01 6.83799505e-01 7.48276651e-01 6.79583073e-01 5.67445457e-01 5.57364047e-01 6.08016431e-01 6.06520951e-01 6.04736209e-01 6.09768271e-01 5.92896104e-01 6.10203326e-01 5.92444539e-01 5.59857190e-01 2.24262592e-03 1.83039485e-03 3.05181067e-03 3.00469459e-03 3.06404522e-03 3.09750088e-03 3.12144728e-03 3.13476706e-03 3.10152513e-03 3.29672475e-03 2.96027726e-03 1.43548429e-01 3.57174158e-01 3.74911040e-01 3.81829709e-01 3.90551239e-01 3.98720980e-01 4.66663897e-01 6.21314406e-01 5.18155158e-01 2.08189592e-01 1.48494586e-01 1.07633024e-01 8.78558755e-02 8.17171708e-02 1.02696188e-01 1.69243947e-01 3.71235162e-01 4.84307677e-01 5.06884754e-01 5.15771091e-01 4.62061197e-01 2.97986530e-03 3.23092612e-03 2.95809703e-03 3.02884146e-03 3.07256472e-03 3.10577382e-03 3.12859099e-03 3.13674239e-03 3.19752237e-03 1.91554974e-03 1.93990022e-03 3.32980882e-03 3.74172907e-03 4.87376982e-03 3.74179155e-01 4.24552172e-01 4.19554591e-01 5.62247038e-01 7.00036362e-02 5.93262464e-02 5.38725890e-02 3.62567082e-02 3.06931790e-02 2.26705484e-02 2.02982351e-02 2.20531244e-02 4.50719446e-02 2.93673754e-01 4.31922138e-01 4.75815326e-01 4.55138326e-01 3.92014652e-01 1.51434526e-01 1.59919664e-01 3.87107164e-01 4.02336538e-01 4.02260333e-01 4.04645085e-01 4.09379512e-01 4.09680247e-01 3.11808378e-01 3.08414106e-03 3.48072941e-03 3.11549753e-03 2.47978582e-03 2.57601589e-03 3.68598686e-03 3.62540334e-02 3.78236175e-01 5.81409812e-01 3.09084393e-02 5.34095615e-02 3.93491536e-02 3.48736085e-02 2.84104552e-02 2.14233920e-02 1.43601326e-02 1.26180593e-02 3.05787995e-02 3.18208754e-01 4.53724831e-01 4.32562500e-01 3.64884645e-01 1.55798286e-01 1.28229156e-01 3.34652245e-01 3.89589101e-01 3.97099763e-01 3.99804980e-01 4.02898401e-01 4.03679371e-01 3.95642906e-01 3.93613994e-01 4.11303908e-01 4.14283633e-01 2.23773960e-02 3.68462829e-03 2.51145475e-03 2.67409673e-03 3.74908652e-03 5.74150920e-01 8.52877796e-01 1.47367716e-01 1.08902320e-01 8.85120407e-02 7.85443261e-02 7.11523294e-02 4.61244322e-02 1.21638048e-02 8.79668631e-03 4.65626717e-02 4.35760885e-01 4.16567683e-01 3.30638438e-01 2.07111374e-01 1.42185062e-01 2.61863858e-01 3.73040974e-01 3.99932712e-01 4.09632206e-01 4.15199757e-01 4.18794394e-01 4.18481529e-01 4.14930612e-01 4.18174505e-01 4.22783494e-01 4.21995044e-01 4.26520079e-01 3.99981230e-01 4.78155352e-03 2.69287685e-03 2.59027467e-03 1.82934627e-01 9.13591564e-01 3.41854185e-01 2.06962034e-01 2.29942933e-01 2.11515844e-01 2.07067624e-01 8.30936655e-02 7.58997025e-03 1.12793278e-02 4.35392588e-01 4.36469495e-01 3.44996363e-01 2.92441159e-01 2.20157206e-01 2.80789554e-01 3.81128043e-01 4.16561902e-01 4.31595236e-01 4.39793795e-01 4.44552958e-01 4.46156025e-01 4.45027024e-01 4.43788946e-01 4.43365127e-01 4.41160858e-01 4.39192176e-01 4.40647751e-01 4.40613121e-01 3.96343499e-01 2.94211507e-03 3.30725382e-03 2.82601546e-02 8.84999633e-01 5.73068202e-01 3.38456661e-01 3.17153543e-01 2.71996498e-01 1.76360056e-01 8.01890902e-03 9.42704640e-03 4.49929923e-01 5.08830369e-01 4.53970075e-01 4.27258879e-01 4.03833777e-01 4.12368953e-01 4.49859381e-01 4.68047470e-01 4.76298451e-01 4.80421156e-01 4.81732100e-01 4.80684519e-01 4.77823228e-01 4.74285960e-01 4.70635504e-01 4.66488540e-01 4.62308168e-01 4.58822161e-01 4.55257446e-01 4.51508254e-01 4.45439070e-01 3.91577091e-03 4.56025405e-03 1.41235022e-02 8.39256823e-01 6.99449182e-01 5.02906263e-01 3.64756316e-01 2.41640210e-01 7.21238321e-03 7.84969423e-03 4.58490819e-01 5.93611538e-01 6.19085610e-01 5.97309291e-01 5.79585850e-01 5.64853013e-01 5.54237723e-01 5.45690179e-01 5.38654923e-01 5.32507360e-01 5.26477873e-01 5.20219088e-01 5.13810039e-01 5.07515371e-01 5.01362979e-01 4.95266676e-01 4.89392281e-01 4.83744681e-01 4.78133380e-01 4.72760081e-01 4.66445953e-01 4.59271312e-01 6.59965305e-03 6.98218727e-03 1.14174681e-02 7.50280082e-01 7.12781131e-01 6.21104360e-01 3.54899019e-01 7.93310814e-03 6.95141219e-03 4.25670624e-01 6.08008862e-01 6.94620490e-01 6.72873437e-01 6.62318826e-01 6.46231949e-01 6.27089202e-01 6.07944667e-01 5.91365516e-01 5.77444434e-01 5.65547585e-01 5.55111885e-01 5.45853317e-01 5.37575245e-01 5.30033529e-01 5.23061037e-01 5.16570687e-01 5.10364532e-01 5.04263937e-01 4.98431414e-01 4.93046016e-01 4.88068432e-01 4.77169454e-01 1.41696623e-02 9.29125398e-03 1.13260634e-02 5.26792586e-01 3.74200791e-01 8.48722816e-01 1.02635920e-02 5.38992742e-03 3.65249105e-02 5.24956167e-01 6.02759004e-01 6.03021085e-01 6.20931089e-01 6.30666435e-01 6.29943073e-01 6.20920658e-01 6.08490348e-01 5.95769227e-01 5.83956122e-01 5.73364139e-01 5.64042568e-01 5.55898488e-01 5.48752964e-01 5.42430997e-01 5.36721110e-01 5.31355441e-01 5.26158988e-01 5.21146536e-01 5.16848207e-01 5.14920592e-01 5.17351151e-01 5.04532397e-01 2.88758967e-02 1.08129056e-02 1.17676528e-02 5.53718284e-02 9.13835689e-02 5.92450619e-01 5.52287698e-03 7.86591973e-03 4.10493761e-01 3.82313728e-01 4.14371133e-01 4.71540332e-01 5.28750896e-01 5.66609502e-01 5.82847476e-01 5.85988104e-01 5.82740366e-01 5.76788604e-01 5.69997728e-01 5.63337266e-01 5.57278633e-01 5.52004158e-01 5.47523320e-01 5.43677151e-01 5.40188968e-01 5.36801457e-01 5.33369422e-01 5.30119717e-01 5.28874278e-01 5.34200013e-01 5.49957991e-01 5.46190798e-01 7.89000839e-02 1.56225171e-02 2.10152697e-02 5.67332432e-02 8.87070537e-01 8.99521820e-03 8.49444885e-03 3.26005101e-01 2.28072375e-01 2.48679116e-01 3.09427351e-01 3.95846218e-01 4.72148865e-01 5.17785788e-01 5.40453374e-01 5.49838543e-01 5.52075326e-01 5.50643563e-01 5.47557354e-01 5.44016540e-01 5.40730119e-01 5.38069785e-01 5.36111712e-01 5.34698486e-01 5.33521950e-01 5.32163620e-01 5.30165076e-01 5.27629793e-01 5.27525008e-01 5.34436226e-01 5.66647828e-01 6.23544037e-01 3.12787831e-01 5.53341545e-02 6.56168610e-02 9.08996344e-01 9.75064561e-03 8.77855811e-03 2.55322844e-01 1.54139519e-01 1.62794292e-01 2.12359384e-01 3.00368339e-01 3.93431336e-01 4.57339019e-01 4.94547486e-01 5.14367342e-01 5.23688555e-01 5.26855230e-01 5.26562512e-01 5.24570882e-01 5.22093892e-01 5.19962549e-01 5.18666387e-01 5.18387854e-01 5.19011021e-01 5.20096004e-01 5.20754218e-01 5.19465148e-01 5.14405191e-01 5.02512395e-01 4.89439607e-01 5.01456320e-01 6.16179168e-01 1.55261189e-01 9.83607545e-02 9.36596870e-01 1.15802540e-02 1.00781173e-02 1.77636787e-01 1.06490061e-01 1.14608839e-01 1.66080624e-01 2.58762151e-01 3.52764845e-01 4.19917077e-01 4.62410390e-01 4.87729788e-01 5.01609802e-01 5.07958949e-01 5.09437859e-01 5.07960141e-01 5.05022466e-01 5.01861334e-01 4.99483287e-01 4.98620957e-01 4.99654710e-01 5.02511919e-01 5.06532907e-01 5.10217249e-01 5.10882080e-01 5.01810670e-01 4.67322797e-01 3.71501029e-01 3.52723956e-01 2.72059560e-01 1.17061459e-01 9.15106535e-01 1.04700103e-02 1.06520290e-02 1.07212819e-01 7.52305612e-02 8.66555050e-02 1.51973531e-01 2.58286268e-01 3.47503483e-01 4.07119036e-01 4.46926802e-01 4.72977430e-01 4.88923192e-01 4.97325748e-01 5.00150084e-01 4.98994738e-01 4.95278001e-01 4.90385115e-01 4.85719144e-01 4.82619762e-01 4.82136250e-01 4.84733552e-01 4.90068644e-01 4.97042537e-01 5.04418492e-01 5.10866940e-01 5.12466729e-01 4.51439679e-01 3.32906276e-01 3.12097073e-01 3.08998346e-01 8.75174463e-01 9.37043969e-03 9.07708891e-03 6.01201504e-02 5.59039973e-02 7.36179054e-02 1.66329652e-01 2.89449662e-01 3.65015805e-01 4.11206990e-01 4.44207162e-01 4.68118548e-01 4.84378785e-01 4.94062483e-01 4.98219788e-01 4.97867107e-01 4.94027197e-01 4.87860441e-01 4.80801761e-01 4.74562556e-01 4.70862687e-01 4.70833689e-01 4.74432915e-01 4.80469763e-01 4.87910122e-01 4.97719646e-01 5.15077531e-01 5.33642650e-01 4.43722844e-01 4.05485123e-01 6.48583770e-01 8.25405359e-01 1.09014018e-02 9.76752862e-03 3.49565186e-02 4.09733653e-02 7.58996084e-02 2.13172123e-01 3.37271303e-01 3.89697343e-01 4.22461450e-01 4.48551655e-01 4.69540149e-01 4.85251665e-01 4.95705217e-01 5.01226246e-01 5.02276659e-01 4.99374270e-01 4.93175805e-01 4.84683275e-01 4.75434959e-01 4.67424512e-01 4.62483078e-01 4.61432129e-01 4.63852733e-01 4.69494760e-01 4.78819281e-01 4.94909674e-01 5.27572274e-01 5.58757424e-01 5.54482698e-01 7.78966725e-01 7.45565832e-01 1.29334955e-02 1.15812309e-02 2.34746467e-02 2.87112240e-02 9.96859074e-02 2.91242361e-01 3.79953682e-01 4.11550194e-01 4.34654385e-01 4.55616057e-01 4.74006474e-01 4.88873094e-01 4.99730706e-01 5.06509602e-01 5.09320319e-01 5.08280873e-01 5.03495157e-01 4.95220333e-01 4.84162241e-01 4.71644282e-01 4.59404707e-01 4.49755996e-01 4.45926785e-01 4.52560455e-01 4.70305055e-01 4.96233195e-01 5.39572239e-01 6.06707752e-01 6.94450021e-01 7.76460052e-01 2.37736136e-01 1.49847167e-02 1.32676372e-02 1.84496287e-02 2.13521346e-02 1.62090242e-01 3.65675569e-01 4.09518570e-01 4.28235650e-01 4.45465058e-01 4.62939113e-01 4.79215443e-01 4.93128210e-01 5.04066586e-01 5.11830211e-01 5.16400337e-01 5.17709196e-01 5.15468657e-01 5.09152293e-01 4.98183042e-01 4.82150614e-01 4.61228788e-01 4.39054251e-01 4.27600801e-01 4.41271365e-01 4.80101526e-01 5.31980753e-01 6.04285657e-01 6.72376812e-01 7.23474681e-01 6.64355040e-01 6.02989346e-02 1.81514435e-02 1.54943159e-02 1.60666779e-02 1.77353416e-02 2.78620034e-01 4.12639797e-01 4.29119527e-01 4.40593302e-01 4.54304755e-01 4.69212860e-01 4.83632118e-01 4.96468097e-01 5.07159829e-01 5.15510082e-01 5.21512985e-01 5.25124252e-01 5.25948226e-01 5.22921860e-01 5.14163971e-01 4.97164100e-01 4.70555007e-01 4.41378683e-01 4.29568082e-01 4.59733665e-01 5.29541552e-01 6.02565706e-01 6.72739506e-01 6.94465995e-01 6.82026029e-01 2.34000862e-01 2.95199435e-02 2.25043520e-02 2.21081004e-02 1.44955413e-02 1.56514328e-02 3.74146581e-01 4.34995532e-01 4.42151189e-01 4.49880183e-01 4.61068690e-01 4.73678291e-01 4.86216009e-01 4.97779369e-01 5.07881165e-01 5.16322076e-01 5.23111045e-01 5.28312325e-01 5.31695485e-01 5.32178700e-01 5.27328849e-01 5.13931096e-01 4.92967069e-01 4.78579104e-01 4.96319890e-01 5.69412649e-01 6.32079780e-01 6.93952978e-01 7.17051387e-01 6.70089006e-01 4.62771475e-01 4.97954711e-02 2.17824541e-02 2.22932361e-02 4.37821783e-02 1.32559156e-02 1.41673340e-02 4.17090207e-01 4.45533365e-01 4.50571418e-01 4.56601828e-01 4.65474397e-01 4.75698560e-01 4.86207724e-01 4.96299744e-01 5.05509734e-01 5.13566434e-01 5.20427823e-01 5.26318192e-01 5.31640053e-01 5.36669791e-01 5.41286349e-01 5.46286762e-01 5.59568405e-01 5.99859178e-01 6.55350029e-01 6.74163640e-01 6.68257117e-01 6.90457463e-01 5.50499320e-01 3.96239534e-02 2.43826956e-02 2.25450322e-02 2.64703371e-02 3.09668947e-02 1.73696727e-01 1.22400345e-02 1.29932305e-02 4.34032440e-01 4.52774584e-01 4.55981672e-01 4.60370839e-01 4.66835767e-01 4.74640042e-01 4.83097702e-01 4.91642505e-01 4.99795467e-01 5.07189512e-01 5.13693035e-01 5.19678771e-01 5.26416242e-01 5.36401570e-01 5.53342164e-01 5.81985831e-01 6.27833366e-01 6.88975096e-01 7.17181385e-01 3.43467921e-01 8.73575211e-02 5.78826480e-02 4.29930724e-02 3.30406129e-02 2.68269423e-02 2.31908392e-02 3.11248433e-02 9.11313519e-02 4.51244950e-01 1.13827586e-02 1.20278113e-02 4.44799781e-01 4.59122419e-01 4.59019065e-01 4.60771620e-01 4.64703053e-01 4.70246792e-01 4.76813674e-01 4.83869344e-01 4.90940571e-01 4.97632116e-01 5.03733575e-01 5.09566784e-01 5.16693354e-01 5.28745890e-01 5.51358581e-01 5.89699030e-01 6.43249571e-01 7.00134158e-01 7.32050359e-01 6.69604301e-01 1.49121299e-01 8.31733271e-02 5.45660779e-02 3.96803468e-02 5.22572100e-02 6.40120625e-01 7.09246457e-01 7.48598814e-01 6.19013786e-01 1.06256139e-02 1.12100085e-02 4.54961926e-01 4.63769346e-01 4.59063381e-01 4.57708716e-01 4.59303856e-01 4.62938190e-01 4.67857450e-01 4.73507255e-01 4.79502201e-01 4.85561758e-01 4.91487175e-01 4.97342348e-01 5.04051983e-01 5.14361203e-01 5.33128202e-01 5.64957559e-01 6.09131992e-01 6.57393217e-01 6.99037194e-01 7.16722250e-01 7.05990970e-01 7.60576606e-01 8.25403690e-01 8.41267288e-01 8.53742719e-01 8.31751108e-01 7.89980352e-01 7.84700096e-01 6.91296518e-01 9.86483600e-03 1.04886228e-02 4.66053575e-01 4.64971364e-01 4.55235004e-01 4.51462716e-01 4.51514691e-01 4.53767180e-01 4.57261175e-01 4.61504340e-01 4.66330826e-01 4.71741140e-01 4.77726102e-01 4.84167397e-01 4.91011560e-01 4.98918891e-01 5.10081828e-01 5.27761996e-01 5.53500235e-01 5.85247993e-01 6.20387614e-01 6.55155361e-01 6.86125994e-01 7.17956305e-01 7.36608982e-01 7.41425157e-01 7.39070773e-01 7.29487896e-01 7.04787076e-01 7.01301694e-01 6.35858953e-01 8.74702074e-03 9.81156714e-03 4.78157848e-01 4.60528731e-01 4.47674215e-01 4.43352997e-01 4.42956865e-01 4.44287837e-01 4.46425885e-01 4.49114263e-01 4.52512175e-01 4.56996530e-01 4.62922931e-01 4.70343143e-01 4.78772163e-01 4.87245470e-01 4.94953245e-01 5.02229512e-01 5.10626733e-01 5.21228492e-01 5.32792568e-01 5.41763246e-01 5.46676040e-01 5.48962533e-01 5.43409705e-01 5.39070487e-01 5.38216949e-01 5.41368008e-01 5.51477492e-01 5.60973287e-01 5.49844980e-01 6.72327587e-03 8.39014631e-03 5.00103414e-01 4.51783091e-01 4.39264059e-01 4.35913086e-01 4.35193330e-01 4.35246080e-01 4.35593992e-01 4.36370194e-01 4.38089818e-01 4.41501349e-01 4.47386861e-01 4.56248343e-01 4.67868596e-01 4.80847716e-01 4.92377371e-01 4.98613566e-01 4.95716661e-01 4.81002569e-01 4.54213440e-01 4.23046619e-01 4.10151899e-01 4.24613714e-01 4.47806984e-01 4.64374304e-01 4.71822262e-01 4.75469768e-01 4.78872806e-01 4.81960356e-01 5.00249207e-01 9.91810393e-03 7.45805493e-03 5.72552204e-01 4.75376576e-01 4.68222350e-01 4.66051668e-01 4.65322912e-01 4.64898795e-01 4.64473575e-01 4.64189887e-01 4.64433193e-01 4.65727270e-01 4.68633235e-01 4.73580778e-01 4.80611771e-01 4.89072293e-01 4.97318029e-01 5.02503157e-01 5.00607491e-01 4.87177104e-01 4.59920794e-01 4.25301254e-01 4.05289978e-01 4.16286767e-01 4.45548028e-01 4.68852818e-01 4.80515331e-01 4.83028114e-01 4.81247723e-01 4.78223026e-01 4.86604422e-01 
