# vtk DataFile Version 2.0
results/3_density.vtk, Created by Freefem++ 
ASCII
DATASET UNSTRUCTURED_GRID
POINTS 961 float
0 0 0
0.033333333 0 0
0.066666667 0 0
0.1 0 0
0.13333333 0 0
0.16666667 0 0
0.2 0 0
0.23333333 0 0
0.26666667 0 0
0.3 0 0
0.33333333 0 0
0.36666667 0 0
0.4 0 0
0.43333333 0 0
0.46666667 0 0
0.5 0 0
0.53333333 0 0
0.56666667 0 0
0.6 0 0
0.63333333 0 0
0.66666667 0 0
0.7 0 0
0.73333333 0 0
0.76666667 0 0
0.8 0 0
0.83333333 0 0
0.86666667 0 0
0.9 0 0
0.93333333 0 0
0.96666667 0 0
1 0 0
0 0.033333333 0
0.033333333 0.033333333 0
0.066666667 0.033333333 0
0.1 0.033333333 0
0.13333333 0.033333333 0
0.16666667 0.033333333 0
0.2 0.033333333 0
0.23333333 0.033333333 0
0.26666667 0.033333333 0
0.3 0.033333333 0
0.33333333 0.033333333 0
0.36666667 0.033333333 0
0.4 0.033333333 0
0.43333333 0.033333333 0
0.46666667 0.033333333 0
0.5 0.033333333 0
0.53333333 0.033333333 0
0.56666667 0.033333333 0
0.6 0.033333333 0
0.63333333 0.033333333 0
0.66666667 0.033333333 0
0.7 0.033333333 0
0.73333333 0.033333333 0
0.76666667 0.033333333 0
0.8 0.033333333 0
0.83333333 0.033333333 0
0.86666667 0.033333333 0
0.9 0.033333333 0
0.93333333 0.033333333 0
0.96666667 0.033333333 0
1 0.033333333 0
0 0.066666667 0
0.033333333 0.066666667 0
0.066666667 0.066666667 0
0.1 0.066666667 0
0.13333333 0.066666667 0
0.16666667 0.066666667 0
0.2 0.066666667 0
0.23333333 0.066666667 0
0.26666667 0.066666667 0
0.3 0.066666667 0
0.33333333 0.066666667 0
0.36666667 0.066666667 0
0.4 0.066666667 0
0.43333333 0.066666667 0
0.46666667 0.066666667 0
0.5 0.066666667 0
0.53333333 0.066666667 0
0.56666667 0.066666667 0
0.6 0.066666667 0
0.63333333 0.066666667 0
0.66666667 0.066666667 0
0.7 0.066666667 0
0.73333333 0.066666667 0
0.76666667 0.066666667 0
0.8 0.066666667 0
0.83333333 0.066666667 0
0.86666667 0.066666667 0
0.9 0.066666667 0
0.93333333 0.066666667 0
0.96666667 0.066666667 0
1 0.066666667 0
0 0.1 0
0.033333333 0.1 0
0.066666667 0.1 0
0.1 0.1 0
0.13333333 0.1 0
0.16666667 0.1 0
0.2 0.1 0
0.23333333 0.1 0
0.26666667 0.1 0
0.3 0.1 0
0.33333333 0.1 0
0.36666667 0.1 0
0.4 0.1 0
0.43333333 0.1 0
0.46666667 0.1 0
0.5 0.1 0
0.53333333 0.1 0
0.56666667 0.1 0
0.6 0.1 0
0.63333333 0.1 0
0.66666667 0.1 0
0.7 0.1 0
0.73333333 0.1 0
0.76666667 0.1 0
0.8 0.1 0
0.83333333 0.1 0
0.86666667 0.1 0
0.9 0.1 0
0.93333333 0.1 0
0.96666667 0.1 0
1 0.1 0
0 0.13333333 0
0.033333333 0.13333333 0
0.066666667 0.13333333 0
0.1 0.13333333 0
0.13333333 0.13333333 0
0.16666667 0.13333333 0
0.2 0.13333333 0
0.23333333 0.13333333 0
0.26666667 0.13333333 0
0.3 0.13333333 0
0.33333333 0.13333333 0
0.36666667 0.13333333 0
0.4 0.13333333 0
0.43333333 0.13333333 0
0.46666667 0.13333333 0
0.5 0.13333333 0
0.53333333 0.13333333 0
0.56666667 0.13333333 0
0.6 0.13333333 0
0.63333333 0.13333333 0
0.66666667 0.13333333 0
0.7 0.13333333 0
0.73333333 0.13333333 0
0.76666667 0.13333333 0
0.8 0.13333333 0
0.83333333 0.13333333 0
0.86666667 0.13333333 0
0.9 0.13333333 0
0.93333333 0.13333333 0
0.96666667 0.13333333 0
1 0.13333333 0
0 0.16666667 0
0.033333333 0.16666667 0
0.066666667 0.16666667 0
0.1 0.16666667 0
0.13333333 0.16666667 0
0.16666667 0.16666667 0
0.2 0.16666667 0
0.23333333 0.16666667 0
0.26666667 0.16666667 0
0.3 0.16666667 0
0.33333333 0.16666667 0
0.36666667 0.16666667 0
0.4 0.16666667 0
0.43333333 0.16666667 0
0.46666667 0.16666667 0
0.5 0.16666667 0
0.53333333 0.16666667 0
0.56666667 0.16666667 0
0.6 0.16666667 0
0.63333333 0.16666667 0
0.66666667 0.16666667 0
0.7 0.16666667 0
0.73333333 0.16666667 0
0.76666667 0.16666667 0
0.8 0.16666667 0
0.83333333 0.16666667 0
0.86666667 0.16666667 0
0.9 0.16666667 0
0.93333333 0.16666667 0
0.96666667 0.16666667 0
1 0.16666667 0
0 0.2 0
0.033333333 0.2 0
0.066666667 0.2 0
0.1 0.2 0
0.13333333 0.2 0
0.16666667 0.2 0
0.2 0.2 0
0.23333333 0.2 0
0.26666667 0.2 0
0.3 0.2 0
0.33333333 0.2 0
0.36666667 0.2 0
0.4 0.2 0
0.43333333 0.2 0
0.46666667 0.2 0
0.5 0.2 0
0.53333333 0.2 0
0.56666667 0.2 0
0.6 0.2 0
0.63333333 0.2 0
0.66666667 0.2 0
0.7 0.2 0
0.73333333 0.2 0
0.76666667 0.2 0
0.8 0.2 0
0.83333333 0.2 0
0.86666667 0.2 0
0.9 0.2 0
0.93333333 0.2 0
0.96666667 0.2 0
1 0.2 0
0 0.23333333 0
0.033333333 0.23333333 0
0.066666667 0.23333333 0
0.1 0.23333333 0
0.13333333 0.23333333 0
0.16666667 0.23333333 0
0.2 0.23333333 0
0.23333333 0.23333333 0
0.26666667 0.23333333 0
0.3 0.23333333 0
0.33333333 0.23333333 0
0.36666667 0.23333333 0
0.4 0.23333333 0
0.43333333 0.23333333 0
0.46666667 0.23333333 0
0.5 0.23333333 0
0.53333333 0.23333333 0
0.56666667 0.23333333 0
0.6 0.23333333 0
0.63333333 0.23333333 0
0.66666667 0.23333333 0
0.7 0.23333333 0
0.73333333 0.23333333 0
0.76666667 0.23333333 0
0.8 0.23333333 0
0.83333333 0.23333333 0
0.86666667 0.23333333 0
0.9 0.23333333 0
0.93333333 0.23333333 0
0.96666667 0.23333333 0
1 0.23333333 0
0 0.26666667 0
0.033333333 0.26666667 0
0.066666667 0.26666667 0
0.1 0.26666667 0
0.13333333 0.26666667 0
0.16666667 0.26666667 0
0.2 0.26666667 0
0.23333333 0.26666667 0
0.26666667 0.26666667 0
0.3 0.26666667 0
0.33333333 0.26666667 0
0.36666667 0.26666667 0
0.4 0.26666667 0
0.43333333 0.26666667 0
0.46666667 0.26666667 0
0.5 0.26666667 0
0.53333333 0.26666667 0
0.56666667 0.26666667 0
0.6 0.26666667 0
0.63333333 0.26666667 0
0.66666667 0.26666667 0
0.7 0.26666667 0
0.73333333 0.26666667 0
0.76666667 0.26666667 0
0.8 0.26666667 0
0.83333333 0.26666667 0
0.86666667 0.26666667 0
0.9 0.26666667 0
0.93333333 0.26666667 0
0.96666667 0.26666667 0
1 0.26666667 0
0 0.3 0
0.033333333 0.3 0
0.066666667 0.3 0
0.1 0.3 0
0.13333333 0.3 0
0.16666667 0.3 0
0.2 0.3 0
0.23333333 0.3 0
0.26666667 0.3 0
0.3 0.3 0
0.33333333 0.3 0
0.36666667 0.3 0
0.4 0.3 0
0.43333333 0.3 0
0.46666667 0.3 0
0.5 0.3 0
0.53333333 0.3 0
0.56666667 0.3 0
0.6 0.3 0
0.63333333 0.3 0
0.66666667 0.3 0
0.7 0.3 0
0.73333333 0.3 0
0.76666667 0.3 0
0.8 0.3 0
0.83333333 0.3 0
0.86666667 0.3 0
0.9 0.3 0
0.93333333 0.3 0
0.96666667 0.3 0
1 0.3 0
0 0.33333333 0
0.033333333 0.33333333 0
0.066666667 0.33333333 0
0.1 0.33333333 0
0.13333333 0.33333333 0
0.16666667 0.33333333 0
0.2 0.33333333 0
0.23333333 0.33333333 0
0.26666667 0.33333333 0
0.3 0.33333333 0
0.33333333 0.33333333 0
0.36666667 0.33333333 0
0.4 0.33333333 0
0.43333333 0.33333333 0
0.46666667 0.33333333 0
0.5 0.33333333 0
0.53333333 0.33333333 0
0.56666667 0.33333333 0
0.6 0.33333333 0
0.63333333 0.33333333 0
0.66666667 0.33333333 0
0.7 0.33333333 0
0.73333333 0.33333333 0
0.76666667 0.33333333 0
0.8 0.33333333 0
0.83333333 0.33333333 0
0.86666667 0.33333333 0
0.9 0.33333333 0
0.93333333 0.33333333 0
0.96666667 0.33333333 0
1 0.33333333 0
0 0.36666667 0
0.033333333 0.36666667 0
0.066666667 0.36666667 0
0.1 0.36666667 0
0.13333333 0.36666667 0
0.16666667 0.36666667 0
0.2 0.36666667 0
0.23333333 0.36666667 0
0.26666667 0.36666667 0
0.3 0.36666667 0
0.33333333 0.36666667 0
0.36666667 0.36666667 0
0.4 0.36666667 0
0.43333333 0.36666667 0
0.46666667 0.36666667 0
0.5 0.36666667 0
0.53333333 0.36666667 0
0.56666667 0.36666667 0
0.6 0.36666667 0
0.63333333 0.36666667 0
0.66666667 0.36666667 0
0.7 0.36666667 0
0.73333333 0.36666667 0
0.76666667 0.36666667 0
0.8 0.36666667 0
0.83333333 0.36666667 0
0.86666667 0.36666667 0
0.9 0.36666667 0
0.93333333 0.36666667 0
0.96666667 0.36666667 0
1 0.36666667 0
0 0.4 0
0.033333333 0.4 0
0.066666667 0.4 0
0.1 0.4 0
0.13333333 0.4 0
0.16666667 0.4 0
0.2 0.4 0
0.23333333 0.4 0
0.26666667 0.4 0
0.3 0.4 0
0.33333333 0.4 0
0.36666667 0.4 0
0.4 0.4 0
0.43333333 0.4 0
0.46666667 0.4 0
0.5 0.4 0
0.53333333 0.4 0
0.56666667 0.4 0
0.6 0.4 0
0.63333333 0.4 0
0.66666667 0.4 0
0.7 0.4 0
0.73333333 0.4 0
0.76666667 0.4 0
0.8 0.4 0
0.83333333 0.4 0
0.86666667 0.4 0
0.9 0.4 0
0.93333333 0.4 0
0.96666667 0.4 0
1 0.4 0
0 0.43333333 0
0.033333333 0.43333333 0
0.066666667 0.43333333 0
0.1 0.43333333 0
0.13333333 0.43333333 0
0.16666667 0.43333333 0
0.2 0.43333333 0
0.23333333 0.43333333 0
0.26666667 0.43333333 0
0.3 0.43333333 0
0.33333333 0.43333333 0
0.36666667 0.43333333 0
0.4 0.43333333 0
0.43333333 0.43333333 0
0.46666667 0.43333333 0
0.5 0.43333333 0
0.53333333 0.43333333 0
0.56666667 0.43333333 0
0.6 0.43333333 0
0.63333333 0.43333333 0
0.66666667 0.43333333 0
0.7 0.43333333 0
0.73333333 0.43333333 0
0.76666667 0.43333333 0
0.8 0.43333333 0
0.83333333 0.43333333 0
0.86666667 0.43333333 0
0.9 0.43333333 0
0.93333333 0.43333333 0
0.96666667 0.43333333 0
1 0.43333333 0
0 0.46666667 0
0.033333333 0.46666667 0
0.066666667 0.46666667 0
0.1 0.46666667 0
0.13333333 0.46666667 0
0.16666667 0.46666667 0
0.2 0.46666667 0
0.23333333 0.46666667 0
0.26666667 0.46666667 0
0.3 0.46666667 0
0.33333333 0.46666667 0
0.36666667 0.46666667 0
0.4 0.46666667 0
0.43333333 0.46666667 0
0.46666667 0.46666667 0
0.5 0.46666667 0
0.53333333 0.46666667 0
0.56666667 0.46666667 0
0.6 0.46666667 0
0.63333333 0.46666667 0
0.66666667 0.46666667 0
0.7 0.46666667 0
0.73333333 0.46666667 0
0.76666667 0.46666667 0
0.8 0.46666667 0
0.83333333 0.46666667 0
0.86666667 0.46666667 0
0.9 0.46666667 0
0.93333333 0.46666667 0
0.96666667 0.46666667 0
1 0.46666667 0
0 0.5 0
0.033333333 0.5 0
0.066666667 0.5 0
0.1 0.5 0
0.13333333 0.5 0
0.16666667 0.5 0
0.2 0.5 0
0.23333333 0.5 0
0.26666667 0.5 0
0.3 0.5 0
0.33333333 0.5 0
0.36666667 0.5 0
0.4 0.5 0
0.43333333 0.5 0
0.46666667 0.5 0
0.5 0.5 0
0.53333333 0.5 0
0.56666667 0.5 0
0.6 0.5 0
0.63333333 0.5 0
0.66666667 0.5 0
0.7 0.5 0
0.73333333 0.5 0
0.76666667 0.5 0
0.8 0.5 0
0.83333333 0.5 0
0.86666667 0.5 0
0.9 0.5 0
0.93333333 0.5 0
0.96666667 0.5 0
1 0.5 0
0 0.53333333 0
0.033333333 0.53333333 0
0.066666667 0.53333333 0
0.1 0.53333333 0
0.13333333 0.53333333 0
0.16666667 0.53333333 0
0.2 0.53333333 0
0.23333333 0.53333333 0
0.26666667 0.53333333 0
0.3 0.53333333 0
0.33333333 0.53333333 0
0.36666667 0.53333333 0
0.4 0.53333333 0
0.43333333 0.53333333 0
0.46666667 0.53333333 0
0.5 0.53333333 0
0.53333333 0.53333333 0
0.56666667 0.53333333 0
0.6 0.53333333 0
0.63333333 0.53333333 0
0.66666667 0.53333333 0
0.7 0.53333333 0
0.73333333 0.53333333 0
0.76666667 0.53333333 0
0.8 0.53333333 0
[...]
CELL_DATA 1920
Scalars  Label int 1
LOOKUP_TABLE FreeFempp_table
0
0
0
0
0
0
0
0
0
0
0
0
0
0
0
0
0
0
0
0
0
0
0
0
0
0
0
0
0
0
0
0
0
0
0
0
0
0
0
0
0
0
0
0
0
0
0
0
0
0
0
0
0
0
0
0
0
0
0
0
0
0
0
0
0
0
0
0
0
0
0
0
0
0
0
0
0
0
0
0
0
0
0
0
0
0
0
0
0
0
0
0
0
0
0
0
0
0
0
0
0
0
0
0
0
0
0
0
0
0
0
0
0
0
0
0
0
0
0
0
0
0
0
0
0
0
0
0
0
0
0
0
0
0
0
0
0
0
0
0
0
0
0
0
0
0
0
0
0
0
0
0
0
0
0
0
0
0
0
0
0
0
0
0
0
0
0
0
0
0
0
0
0
0
0
0
0
0
0
0
0
0
0
0
0
0
0
0
0
0
0
0
0
0
0
0
0
0
0
0
0
0
0
0
0
0
0
0
0
0
0
0
0
0
0
0
0
0
0
0
0
0
0
0
0
0
0
0
0
0
0
0
0
0
0
0
0
0
0
0
0
0
0
0
0
0
0
0
0
0
0
0
0
0
0
0
0
0
0
0
0
0
0
0
0
0
0
0
0
0
0
0
0
0
0
0
0
0
0
0
0
0
0
0
0
0
0
0
0
0
0
0
0
0
0
0
0
0
0
0
0
0
0
0
0
0
0
0
0
0
0
0
0
0
0
0
0
0
0
0
0
0
0
0
0
0
0
0
0
0
0
0
0
0
0
0
0
0
0
0
0
0
0
0
0
0
0
0
0
0
0
0
0
0
0
0
0
0
0
0
0
0
0
0
0
0
0
0
0
0
0
0
0
0
0
0
0
0
0
0
0
0
0
0
0
0
0
0
0
0
0
0
0
0
0
0
0
0
0
0
0
0
0
0
0
0
0
0
0
0
0
0
0
0
0
0
0
0
0
0
0
0
0
0
0
0
0
0
0
0
0
0
0
0
0
0
0
0
0
0
0
0
0
0
0
0
0
0
0
0
0
0
0
0
0
0
0
0
0
0
0
0
0
0
0
0
0
0
0
0
0
0
0
0
0
0
0
0
0
0
0
0
0
0
0
0
0
0
0
0
0
0
0
0
0
0
0
0
0
0
0
0
0
0
0
0
0
0
0
0
0
0
0
0
0
0
0
0
0
0
0
0
0
0
0
0
0
0
0
0
0
0
0
0
0
0
0
0
0
0
0
0
0
0
0
0
0
0
0
0
0
0
0
0
0
0
0
0
0
0
0
0
0
0
0
0
0
0
0
0
0
0
0
0
0
0
0
0
0
0
0
0
0
0
0
0
0
0
0
0
0
0
0
0
0
0
0
0
0
0
0
0
0
0
0
0
0
0
0
0
0
0
0
0
0
0
0
0
0
0
0
0
0
0
0
0
0
0
0
0
0
0
0
0
0
0
0
0
0
0
0
0
0
0
0
0
0
0
0
0
0
0
0
0
0
0
0
0
0
0
0
0
0
0
0
0
0
0
0
0
0
0
0
0
0
0
0
0
0
0
0
0
0
0
0
0
0
0
0
0
0
0
0
0
0
0
0
0
0
0
0
0
0
0
0
0
0
0
0
0
0
0
0
0
0
0
0
0
0
0
0
0
0
0
0
0
0
0
0
0
0
0
0
0
0
0
0
0
0
0
0
0
0
0
0
0
0
0
0
0
0
0
0
0
0
0
0
0
0
0
0
0
0
0
0
0
0
0
0
0
0
0
0
0
0
0
0
0
0
0
0
0
0
0
0
0
0
0
0
0
0
0
0
0
0
0
0
0
0
0
0
0
0
0
0
0
0
0
0
0
0
0
0
0
0
0
0
0
0
0
0
0
0
0
0
0
0
0
0
0
0
0
0
0
0
0
0
0
0
0
0
0
0
0
0
0
0
0
0
0
0
0
0
0
0
0
0
0
0
0
0
0
0
0
0
0
0
0
0
0
0
0
0
0
0
0
0
0
0
0
0
0
0
0
0
0
0
0
0
0
0
0
0
0
0
0
0
0
0
0
0
0
0
0
0
0
0
0
0
0
0
0
0
0
0
0
0
0
0
0
0
0
0
0
0
0
0
0
0
0
0
0
0
0
0
0
0
0
0
0
0
0
0
0
0
0
0
0
0
0
0
0
0
0
0
0
0
0
0
0
0
0
0
0
0
0
0
0
0
0
0
0
0
0
0
0
0
0
0
0
0
0
0
0
0
0
0
0
0
0
0
0
0
0
0
0
0
0
0
0
0
0
0
0
0
0
0
0
0
0
0
0
0
0
0
0
0
0
0
0
0
0
0
0
0
0
0
0
0
0
0
0
0
0
0
0
0
0
0
0
0
0
0
0
0
0
0
0
0
0
0
0
0
0
0
0
0
0
0
0
0
0
0
0
0
0
0
0
0
0
0
0
0
0
0
0
0
0
0
0
0
0
0
0
0
0
0
0
0
0
0
0
0
0
0
0
0
0
0
0
0
0
0
0
0
0
0
0
0
0
0
0
0
0
0
0
0
0
0
0
0
0
0
0
0
0
0
0
0
0
0
0
0
0
0
0
0
0
0
0
0
0
0
0
0
0
0
0
0
0
0
0
0
0
0
0
0
0
0
0
0
0
0
0
0
0
0
0
0
0
0
0
0
0
0
0
0
0
0
0
0
0
0
0
0
0
0
0
0
0
0
0
0
0
0
0
0
0
0
0
0
0
0
0
0
0
0
0
0
0
0
0
0
0
0
0
0
0
0
0
0
0
0
0
0
0
0
0
0
0
0
0
0
0
0
0
0
0
0
0
0
0
0
0
0
0
0
0
0
0
0
0
0
0
0
0
0
0
0
0
0
0
0
0
0
0
0
0
0
0
0
0
0
0
0
0
0
0
0
0
0
0
0
0
0
0
0
0
0
0
0
0
0
0
0
0
0
0
0
0
0
0
0
0
0
0
0
0
0
0
0
0
0
0
0
0
0
0
0
0
0
0
0
0
0
0
0
0
0
0
0
0
0
0
0
0
0
0
0
0
0
0
0
0
0
0
0
0
0
0
0
0
0
0
0
0
0
0
0
0
0
0
0
0
0
0
0
0
0
0
0
0
0
0
0
0
0
0
0
0
0
0
0
0
0
0
0
0
0
0
0
0
0
0
0
0
0
0
0
0
0
0
0
0
0
0
0
0
0
0
0
0
0
0
0
0
0
0
0
0
0
0
0
0
0
0
0
0
0
0
0
0
0
0
0
0
0
0
0
0
0
0
0
0
0
0
0
0
0
0
0
0
0
0
0
0
0
0
0
0
0
0
0
0
0
0
0
0
0
0
0
0
0
0
0
0
0
0
0
0
0
0
0
0
0
0
0
0
0
0
0
0
0
0
0
0
0
0
0
0
0
0
0
0
0
0
0
0
0
0
0
0
0
0
0
0
0
0
0
0
0
0
0
0
0
0
0
0
0
0
0
0
0
0
0
0
0
0
0
0
0
0
0
0
0
0
0
0
0
0
0
0
0
0
0
0
0
0
0
0
0
0
0
0
0
0
0
0
0
0
0
0
0
0
0
0
0
0
0
0
0
0
0
0
0
0
0
0
0
0
0
0
0
0
0
0
0
0
0
0
0
0
0
0
0
0
0
0
0
0
0
0
0
0
0
0
0
0
0
0
0
0
0
0
0
0
0
0
0
0
0
0
0
0
0
0
0
0
0
0
0
0
0
0
0
0
0
0
0
0
0
0
0
0
0
0
0
0
0
0
0
0
0
0
0
0
0
0
0
0
0
0
0
0
0
0
0
0
0
0
0
0
0
0
0
0
0
0
0
0
0
0
0
0
0
0
0
0
0
0
0
0
0
0
0
0
0
0
0
0
0
0
0
0
0
0
0
0
0
0
0
0
0
0
0
0
0
0
0
0
0
0
0
0
0
0
0
0
0
0
0
0
0
0
0
0
0
0
0
0
0
0
0
0
0
0
0
0
0
0
0
0
0
0
0
0
0
0
0
0
0
0
0
0
0
0
0
0
0
0
0
0
0
0
0
0
0
0
0
0
0
0
0
0
0
0
0
0
0
0
1
1
1
1
1
1
1
1
1
1
1
1
1
1
1
1
1
1
1
1
1
1
1
1
1
1
1
1
1
1
2
2
2
2
2
2
2
2
2
2
2
2
2
2
2
2
2
2
2
2
2
2
2
2
2
2
2
2
2
2
3
3
3
3
3
3
3
3
3
3
3
3
3
3
3
3
3
3
3
3
3
3
3
3
3
3
3
3
3
3
4
4
4
4
4
4
4
4
4
4
4
4
4
4
4
4
4
4
4
4
4
4
4
4
4
4
4
4
4
4

LOOKUP_TABLE FreeFempp_table 5
1.00000000 0.00000000 0.00000000 1.00000000
1.00000000 1.00000000 0.00000000 1.00000000
1.00000000 0.00000000 1.00000000 1.00000000
0.00000000 1.00000000 0.00000000 1.00000000
0.00000000 1.00000000 1.00000000 1.00000000

POINT_DATA 961
FIELD FieldData 1
Density 1 961 float
2.36500636e-01 2.17113182e-01 2.58629560e-01 2.69528896e-01 2.60583758e-01 2.42164895e-01 2.13656962e-01 1.68415517e-01 1.11657694e-01 8.71790200e-02 1.21237904e-01 2.35424548e-01 3.41201067e-01 3.82303447e-01 4.04034972e-01 4.30395961e-01 4.83740091e-01 5.87079883e-01 7.03015685e-01 7.46192276e-01 7.16267049e-01 6.96843207e-01 7.44565248e-01 7.49181092e-01 7.18195617e-01 7.14169264e-01 6.98599756e-01 6.44906878e-01 6.43426418e-01 6.42870486e-01 5.84952295e-01 8.59600585e-03 1.55010894e-01 2.07078978e-01 2.15205833e-01 2.04644710e-01 1.88312888e-01 1.66080937e-01 1.33924857e-01 9.21576396e-02 6.24808408e-02 7.09108710e-02 1.35327786e-01 2.52926171e-01 2.99987584e-01 3.23149830e-01 3.47758353e-01 4.01012331e-01 5.54440618e-01 7.77252495e-01 8.40731263e-01 7.72894323e-01 6.37743354e-01 6.24336958e-01 6.89801991e-01 6.87942266e-01 6.85718060e-01 6.91974998e-01 6.70766234e-01 6.92499459e-01 6.70186460e-01 6.31334186e-01 2.98483646e-03 9.48643079e-04 2.45705899e-03 1.92039879e-03 1.87497865e-03 1.95680023e-03 2.05346057e-03 2.16871523e-03 2.33213254e-03 2.33402709e-03 1.72225502e-03 9.87531394e-02 3.43419492e-01 3.67820531e-01 3.77469212e-01 3.89697284e-01 4.01197374e-01 4.97851521e-01 7.06769526e-01 5.72199523e-01 1.62006319e-01 1.03931740e-01 6.94333091e-02 5.42090982e-02 4.96362634e-02 6.54170141e-02 1.22908182e-01 3.62818807e-01 5.23095250e-01 5.54969668e-01 5.71231902e-01 4.95233238e-01 1.81340694e-03 2.72424566e-03 2.17107078e-03 1.87011808e-03 1.90752663e-03 2.00203550e-03 2.10250751e-03 2.24659685e-03 2.37433612e-03 9.82637750e-04 9.98796895e-04 2.38080043e-03 2.62903981e-03 5.57700265e-03 3.66803616e-01 4.37891990e-01 4.30683106e-01 6.31846368e-01 4.24302444e-02 3.46694142e-02 3.11728083e-02 1.97677519e-02 1.64363421e-02 1.16575509e-02 1.01968115e-02 1.11411214e-02 2.44352166e-02 2.60293245e-01 4.48312521e-01 5.14914095e-01 4.85403866e-01 3.91733438e-01 1.06619924e-01 1.14497796e-01 3.84814531e-01 4.06228215e-01 4.06127334e-01 4.09502327e-01 4.16204244e-01 4.16617662e-01 2.83169597e-01 1.99211924e-03 2.45286012e-03 2.16921675e-03 2.29449989e-03 2.28372193e-03 2.60096672e-03 1.68129969e-02 3.71788442e-01 6.58314109e-01 1.63695030e-02 3.06767710e-02 2.16604341e-02 1.89183597e-02 1.50086926e-02 1.08042629e-02 6.84846332e-03 5.77225583e-03 1.53734805e-02 2.91569322e-01 4.83389467e-01 4.53137934e-01 3.54041308e-01 1.10740855e-01 8.65153894e-02 3.13180745e-01 3.88333023e-01 3.98888350e-01 4.02700424e-01 4.07067895e-01 4.08174723e-01 3.96848172e-01 3.93999100e-01 4.18954670e-01 4.23139066e-01 9.25464649e-03 2.66757864e-03 2.21288810e-03 1.97569490e-03 7.66619924e-04 6.44640207e-01 9.21445489e-01 1.03067115e-01 7.05530718e-02 5.47882132e-02 4.74263430e-02 4.20890674e-02 2.51975246e-02 5.41372271e-03 4.98060463e-03 2.52101421e-02 4.57701892e-01 4.30357248e-01 3.07902515e-01 1.61124855e-01 9.86124650e-02 2.21653745e-01 3.65304142e-01 4.02899086e-01 4.16610509e-01 4.24506903e-01 4.29615796e-01 4.29171711e-01 4.24127162e-01 4.28739578e-01 4.35299128e-01 4.34175223e-01 4.40587133e-01 4.02869552e-01 5.09878201e-03 5.40065637e-04 4.60159266e-04 1.34779587e-01 9.56934035e-01 3.22980881e-01 1.60515025e-01 1.85145333e-01 1.65266946e-01 1.60580069e-01 5.01418002e-02 4.57574707e-03 4.89674229e-03 4.57168639e-01 4.58778888e-01 3.27134520e-01 2.59049386e-01 1.75082475e-01 2.44629920e-01 3.76610667e-01 4.26470846e-01 4.47872967e-01 4.59574282e-01 4.66371745e-01 4.68660474e-01 4.67044890e-01 4.65275526e-01 4.64671105e-01 4.61520314e-01 4.58707809e-01 4.60786045e-01 4.60724086e-01 3.97698611e-01 5.63938520e-04 1.67951570e-03 1.37798255e-02 9.41287816e-01 6.45164073e-01 3.18104684e-01 2.90076375e-01 2.33640283e-01 1.29539400e-01 4.04151250e-03 4.40882333e-03 4.77954000e-01 5.61578095e-01 4.79962736e-01 4.41894799e-01 4.08742368e-01 4.20796633e-01 4.74057734e-01 4.99976099e-01 5.11714935e-01 5.17569304e-01 5.19426107e-01 5.17933249e-01 5.13861895e-01 5.08826017e-01 5.03624499e-01 4.97709095e-01 4.91741687e-01 4.86763299e-01 4.81667429e-01 4.76304173e-01 4.67606902e-01 4.24914574e-03 5.85441338e-03 6.71276264e-03 9.12453592e-01 7.93625891e-01 5.49067616e-01 3.53630304e-01 1.98127434e-01 3.70553671e-03 3.96527955e-03 4.90193993e-01 6.75145447e-01 7.03360021e-01 6.76354945e-01 6.53665304e-01 6.34329081e-01 6.20122075e-01 6.08557582e-01 5.98970711e-01 5.90541720e-01 5.82229853e-01 5.73557436e-01 5.64632893e-01 5.55827975e-01 5.47187209e-01 5.38593829e-01 5.30287564e-01 5.22281051e-01 5.14307261e-01 5.06657720e-01 4.97654289e-01 4.87401485e-01 5.74955717e-03 5.81253646e-03 6.17782306e-03 8.42671692e-01 8.07514966e-01 7.05806673e-01 3.40233922e-01 3.74201010e-03 3.33260396e-03 4.43291903e-01 6.93148196e-01 7.88554013e-01 7.65435338e-01 7.53795683e-01 7.35529065e-01 7.12986171e-01 6.89606309e-01 6.68725491e-01 6.50769174e-01 6.35140240e-01 6.21231318e-01 6.08746946e-01 5.97478449e-01 5.87131381e-01 5.77501893e-01 5.68487883e-01 5.59826791e-01 5.51276386e-01 5.43071091e-01 5.35470843e-01 5.28427303e-01 5.12945354e-01 7.17094494e-03 6.24273438e-03 7.27007026e-03 5.83510280e-01 3.70488077e-01 9.19742823e-01 4.75657405e-03 3.36049404e-03 2.00700033e-02 5.83987057e-01 6.83161318e-01 6.83464527e-01 7.05524147e-01 7.17220366e-01 7.16361225e-01 7.05511153e-01 6.90261364e-01 6.74310923e-01 6.59204066e-01 6.45431280e-01 6.33143187e-01 6.22286856e-01 6.12674534e-01 6.04106128e-01 5.96318603e-01 5.88960648e-01 5.81799924e-01 5.74862361e-01 5.68891108e-01 5.66209614e-01 5.69602907e-01 5.51675618e-01 1.53266983e-02 8.02382082e-03 9.12232604e-03 3.34528424e-02 5.83124012e-02 6.68862283e-01 3.66500649e-03 6.45334739e-03 4.21879083e-01 3.78421426e-01 4.23503101e-01 5.04986584e-01 5.85344851e-01 6.36492372e-01 6.57728493e-01 6.61790729e-01 6.57612681e-01 6.49892628e-01 6.41001701e-01 6.32201314e-01 6.24130845e-01 6.17056608e-01 6.11013234e-01 6.05802178e-01 6.01058066e-01 5.96434951e-01 5.91735661e-01 5.87272942e-01 5.85564017e-01 5.92898309e-01 6.14359677e-01 6.09274387e-01 4.79879081e-02 1.10692233e-02 1.43363439e-02 3.43223214e-02 9.42950785e-01 4.12096083e-03 6.18437445e-03 3.05616736e-01 1.83450446e-01 2.06567541e-01 2.80435115e-01 3.97189528e-01 5.05740106e-01 5.70109248e-01 6.01349592e-01 6.14092231e-01 6.17118239e-01 6.15198612e-01 6.11037731e-01 6.06243968e-01 6.01777673e-01 5.98151326e-01 5.95476568e-01 5.93543649e-01 5.91933250e-01 5.90071797e-01 5.87327957e-01 5.83840668e-01 5.83707750e-01 5.93234956e-01 6.36688650e-01 7.08868206e-01 2.85456240e-01 3.67237106e-02 4.27569933e-02 9.55113947e-01 4.46120137e-03 6.32412499e-03 2.17498004e-01 1.09241977e-01 1.17188118e-01 1.66409552e-01 2.68803477e-01 3.93722981e-01 4.84579653e-01 5.37511706e-01 5.65354288e-01 5.78321457e-01 5.82710147e-01 5.82313716e-01 5.79566658e-01 5.76140583e-01 5.73186398e-01 5.71387768e-01 5.71002603e-01 5.71871102e-01 5.73381186e-01 5.74298859e-01 5.72514415e-01 5.65479100e-01 5.48835874e-01 5.30415058e-01 5.47434032e-01 7.00116217e-01 1.14115581e-01 6.79358020e-02 9.69630778e-01 4.92862053e-03 6.74135191e-03 1.34112224e-01 6.88513964e-02 7.53128529e-02 1.20182335e-01 2.18077928e-01 3.37503642e-01 4.31157917e-01 4.91821885e-01 5.27867317e-01 5.47478259e-01 5.56401849e-01 5.58480561e-01 5.56417048e-01 5.52301228e-01 5.47861993e-01 5.44516325e-01 5.43302119e-01 5.44758916e-01 5.48780560e-01 5.54429412e-01 5.59594750e-01 5.60532331e-01 5.47820747e-01 4.98936057e-01 3.63289058e-01 3.37701291e-01 2.35408202e-01 8.01805556e-02 9.59238589e-01 5.26627898e-03 7.16544455e-03 7.18510076e-02 4.54852432e-02 5.37305176e-02 1.07182771e-01 2.17513129e-01 3.30390781e-01 4.13004279e-01 4.69699711e-01 5.06898105e-01 5.29558241e-01 5.41440129e-01 5.45425832e-01 5.43803513e-01 5.38565218e-01 5.31651258e-01 5.25041819e-01 5.20643532e-01 5.19956291e-01 5.23642838e-01 5.31204760e-01 5.41063249e-01 5.51453233e-01 5.60504496e-01 5.62764347e-01 4.76269215e-01 3.11059237e-01 2.84046113e-01 2.81721145e-01 9.36174810e-01 5.39541105e-03 7.40421982e-03 3.73265184e-02 3.22906151e-02 4.43384126e-02 1.20389126e-01 2.55100638e-01 3.54236424e-01 4.18805569e-01 4.65820134e-01 4.99973744e-01 5.23112297e-01 5.36826551e-01 5.42696118e-01 5.42202055e-01 5.36785483e-01 5.28062403e-01 5.18047512e-01 5.09172916e-01 5.03901839e-01 5.03860235e-01 5.08988738e-01 5.17580271e-01 5.28147042e-01 5.42028069e-01 5.66395819e-01 5.92122614e-01 4.65265006e-01 4.10921276e-01 7.38725901e-01 9.02869284e-01 5.54986671e-03 7.46062491e-03 2.13938933e-02 2.28264164e-02 4.59027179e-02 1.67202532e-01 3.16706836e-01 3.88497382e-01 4.34806049e-01 4.72038031e-01 5.02006710e-01 5.24352849e-01 5.39144874e-01 5.46925962e-01 5.48404276e-01 5.44320524e-01 5.35575569e-01 5.23550034e-01 5.10406971e-01 4.98992860e-01 4.91942376e-01 4.90444481e-01 4.93904948e-01 5.01962245e-01 5.15253842e-01 5.38081527e-01 5.83756328e-01 6.26168668e-01 6.20472550e-01 8.67102802e-01 8.38239431e-01 6.57366402e-03 7.99841247e-03 1.47947306e-02 1.55823454e-02 6.34261966e-02 2.57335067e-01 3.74905169e-01 4.19315994e-01 4.52197939e-01 4.82142121e-01 5.08378386e-01 5.29491484e-01 5.44824064e-01 5.54349363e-01 5.58286369e-01 5.56830227e-01 5.50115883e-01 5.38461030e-01 5.22808611e-01 5.05007744e-01 4.87548530e-01 4.73769337e-01 4.68304843e-01 4.77795154e-01 5.03142595e-01 5.39960325e-01 6.00229919e-01 6.88123822e-01 7.88504422e-01 8.64985049e-01 1.93930075e-01 7.71825900e-03 8.97402316e-03 1.20234713e-02 1.14238868e-02 1.16345666e-01 3.55162412e-01 4.16442961e-01 4.43050086e-01 4.67647016e-01 4.92608786e-01 5.15798032e-01 5.35518944e-01 5.50928771e-01 5.61802924e-01 5.68175733e-01 5.69995701e-01 5.66874862e-01 5.58052242e-01 5.42643547e-01 5.19959331e-01 4.90162849e-01 4.58494753e-01 4.42162484e-01 4.61688578e-01 5.17114460e-01 5.89832425e-01 6.85095131e-01 7.64993250e-01 8.17500830e-01 7.56147683e-01 3.50854024e-02 9.53896251e-03 1.02893952e-02 1.07311197e-02 9.42218676e-03 2.41756484e-01 4.20868814e-01 4.44315344e-01 4.60693151e-01 4.80285108e-01 5.01565993e-01 5.22079110e-01 5.40242553e-01 5.55276752e-01 5.66945076e-01 5.75287879e-01 5.80286443e-01 5.81423640e-01 5.77236295e-01 5.65063298e-01 5.41220248e-01 5.03483534e-01 4.61833954e-01 4.44983989e-01 4.88102347e-01 5.86494148e-01 6.82947516e-01 7.65387714e-01 7.88496435e-01 7.75399864e-01 1.89754397e-01 1.58372391e-02 1.18715977e-02 1.38422055e-02 9.91442893e-03 8.29675980e-03 3.66833746e-01 4.52702165e-01 4.62923527e-01 4.73967850e-01 4.89951760e-01 5.07934332e-01 5.25750577e-01 5.42098463e-01 5.56294680e-01 5.68083584e-01 5.77510178e-01 5.84695756e-01 5.89351416e-01 5.90014994e-01 5.83339393e-01 5.64754665e-01 5.35318732e-01 5.14929533e-01 5.40064096e-01 6.40311837e-01 7.19033718e-01 7.87980020e-01 8.11256826e-01 7.62468636e-01 4.92377430e-01 2.83422265e-02 1.15838014e-02 1.18123954e-02 2.65761800e-02 9.29546356e-03 7.51847960e-03 4.27183270e-01 4.67758507e-01 4.74959522e-01 4.83576089e-01 4.96244222e-01 5.10814667e-01 5.25743425e-01 5.40016890e-01 5.52975357e-01 5.64248383e-01 5.73796511e-01 5.81950784e-01 5.89282036e-01 5.96178591e-01 6.02482021e-01 6.09281301e-01 6.27150297e-01 6.79470778e-01 7.46068537e-01 7.67191529e-01 7.60578990e-01 7.84336686e-01 6.15028560e-01 2.18931437e-02 1.27984593e-02 1.18192686e-02 1.41346306e-02 1.67188644e-02 1.30116358e-01 8.80611409e-03 6.91652484e-03 4.51324016e-01 4.78109717e-01 4.82692868e-01 4.88961965e-01 4.98188883e-01 5.09310603e-01 5.21334350e-01 5.33441663e-01 5.44946909e-01 5.55334389e-01 5.64428926e-01 5.72760582e-01 5.82090914e-01 5.95818520e-01 6.18798614e-01 6.56610608e-01 7.13833928e-01 7.82683194e-01 8.11475635e-01 3.26417148e-01 5.45833111e-02 3.36893797e-02 2.40271315e-02 1.81108676e-02 1.43482620e-02 1.21125160e-02 1.66777559e-02 5.69062158e-02 4.79832649e-01 8.40740465e-03 6.42817095e-03 4.66707796e-01 4.87181664e-01 4.87033397e-01 4.89535481e-01 4.95147049e-01 5.03053367e-01 5.12404978e-01 5.22430897e-01 5.32450736e-01 5.41901469e-01 5.50488412e-01 5.58667421e-01 5.68614960e-01 5.85312963e-01 6.16139889e-01 6.66546345e-01 7.32040107e-01 7.94235885e-01 8.25603187e-01 7.62278259e-01 1.05068110e-01 5.13258167e-02 3.14405747e-02 2.19726656e-02 3.00102215e-02 7.28339255e-01 8.03446710e-01 8.40767503e-01 7.06638813e-01 8.09386186e-03 6.01716014e-03 4.81234640e-01 4.93818939e-01 4.87097293e-01 4.85160828e-01 4.87438470e-01 4.92627501e-01 4.99646544e-01 5.07698894e-01 5.16229331e-01 5.24833858e-01 5.33227324e-01 5.41498065e-01 5.50943017e-01 5.65375805e-01 5.91355801e-01 6.34328723e-01 6.91050828e-01 7.48262167e-01 7.93117762e-01 8.10886323e-01 8.00234616e-01 8.51383507e-01 9.02503371e-01 9.13500547e-01 9.21747983e-01 9.06972170e-01 8.75818193e-01 8.71580482e-01 7.88153052e-01 8.38266592e-03 5.73979644e-03 4.97078031e-01 4.95535374e-01 4.81627434e-01 4.76235181e-01 4.76308733e-01 4.79527295e-01 4.84519452e-01 4.90579993e-01 4.97469455e-01 5.05184829e-01 5.13707697e-01 5.22862434e-01 5.32564759e-01 5.43734550e-01 5.59414566e-01 5.83991230e-01 6.19063437e-01 6.60876572e-01 7.04887569e-01 7.45738089e-01 7.79671371e-01 8.12033296e-01 8.29810202e-01 8.34257543e-01 8.32094610e-01 8.23138893e-01 7.98975825e-01 7.95440376e-01 7.26763725e-01 9.12808627e-03 5.92015218e-03 5.14327765e-01 4.89191890e-01 4.70820755e-01 4.64643985e-01 4.64077353e-01 4.65978861e-01 4.69034165e-01 4.72876459e-01 4.77733225e-01 4.84142363e-01 4.92608935e-01 5.03198981e-01 5.15206516e-01 5.27244449e-01 5.38158476e-01 5.48422277e-01 5.60210049e-01 5.74992955e-01 5.90973675e-01 6.03247643e-01 6.09900296e-01 6.12965405e-01 6.05418861e-01 5.99497318e-01 5.98328114e-01 6.02625251e-01 6.16318405e-01 6.29038572e-01 6.17871106e-01 9.76402499e-03 6.47740392e-03 5.45404911e-01 4.76695001e-01 4.58801746e-01 4.54014629e-01 4.52985972e-01 4.53060359e-01 4.53556359e-01 4.54664290e-01 4.57120359e-01 4.61994916e-01 4.70408142e-01 4.83076990e-01 4.99675691e-01 5.18168330e-01 5.34529746e-01 5.43354392e-01 5.39294600e-01 5.18485129e-01 4.80325729e-01 4.35851693e-01 4.17498767e-01 4.37982678e-01 4.71042424e-01 4.94686455e-01 5.05298436e-01 5.10489225e-01 5.15329599e-01 5.19717157e-01 5.49481809e-01 8.98928009e-03 8.40559602e-03 6.48047388e-01 5.14289141e-01 5.04099011e-01 5.01002371e-01 4.99961704e-01 4.99355733e-01 4.98748332e-01 4.98343140e-01 4.98690158e-01 5.00536501e-01 5.04681051e-01 5.11730671e-01 5.21731079e-01 5.33730090e-01 5.45381486e-01 5.52688956e-01 5.50046325e-01 5.31122148e-01 4.92373019e-01 4.42951024e-01 4.14499938e-01 4.30046022e-01 4.71742868e-01 5.04999697e-01 5.21585464e-01 5.25149584e-01 5.22622943e-01 5.18326819e-01 5.31523824e-01 
