# vtk DataFile Version 2.0
results/4_density.vtk, Created by Freefem++ 
ASCII
DATASET UNSTRUCTURED_GRID
POINTS 961 float
0 0 0
0.033333333 0 0
0.066666667 0 0
0.1 0 0
0.13333333 0 0
0.16666667 0 0
0.2 0 0
0.23333333 0 0
0.26666667 0 0
0.3 0 0
0.33333333 0 0
0.36666667 0 0
0.4 0 0
0.43333333 0 0
0.46666667 0 0
0.5 0 0
0.53333333 0 0
0.56666667 0 0
0.6 0 0
0.63333333 0 0
0.66666667 0 0
0.7 0 0
0.73333333 0 0
0.76666667 0 0
0.8 0 0
0.83333333 0 0
0.86666667 0 0
0.9 0 0
0.93333333 0 0
0.96666667 0 0
1 0 0
0 0.033333333 0
0.033333333 0.033333333 0
0.066666667 0.033333333 0
0.1 0.033333333 0
0.13333333 0.033333333 0
0.16666667 0.033333333 0
0.2 0.033333333 0
0.23333333 0.033333333 0
0.26666667 0.033333333 0
0.3 0.033333333 0
0.33333333 0.033333333 0
0.36666667 0.033333333 0
0.4 0.033333333 0
0.43333333 0.033333333 0
0.46666667 0.033333333 0
0.5 0.033333333 0
0.53333333 0.033333333 0
0.56666667 0.033333333 0
0.6 0.033333333 0
0.63333333 0.033333333 0
0.66666667 0.033333333 0
0.7 0.033333333 0
0.73333333 0.033333333 0
0.76666667 0.033333333 0
0.8 0.033333333 0
0.83333333 0.033333333 0
0.86666667 0.033333333 0
0.9 0.033333333 0
0.93333333 0.033333333 0
0.96666667 0.033333333 0
1 0.033333333 0
0 0.066666667 0
0.033333333 0.066666667 0
0.066666667 0.066666667 0
0.1 0.066666667 0
0.13333333 0.066666667 0
0.16666667 0.066666667 0
0.2 0.066666667 0
0.23333333 0.066666667 0
0.26666667 0.066666667 0
0.3 0.066666667 0
0.33333333 0.066666667 0
0.36666667 0.066666667 0
0.4 0.066666667 0
0.43333333 0.066666667 0
0.46666667 0.066666667 0
0.5 0.066666667 0
0.53333333 0.066666667 0
0.56666667 0.066666667 0
0.6 0.066666667 0
0.63333333 0.066666667 0
0.66666667 0.066666667 0
0.7 0.066666667 0
0.73333333 0.066666667 0
0.76666667 0.066666667 0
0.8 0.066666667 0
0.83333333 0.066666667 0
0.86666667 0.066666667 0
0.9 0.066666667 0
0.93333333 0.066666667 0
0.96666667 0.066666667 0
1 0.066666667 0
0 0.1 0
0.033333333 0.1 0
0.066666667 0.1 0
0.1 0.1 0
0.13333333 0.1 0
0.16666667 0.1 0
0.2 0.1 0
0.23333333 0.1 0
0.26666667 0.1 0
0.3 0.1 0
0.33333333 0.1 0
0.36666667 0.1 0
0.4 0.1 0
0.43333333 0.1 0
0.46666667 0.1 0
0.5 0.1 0
0.53333333 0.1 0
0.56666667 0.1 0
0.6 0.1 0
0.63333333 0.1 0
0.66666667 0.1 0
0.7 0.1 0
0.73333333 0.1 0
0.76666667 0.1 0
0.8 0.1 0
0.83333333 0.1 0
0.86666667 0.1 0
0.9 0.1 0
0.93333333 0.1 0
0.96666667 0.1 0
1 0.1 0
0 0.13333333 0
0.033333333 0.13333333 0
0.066666667 0.13333333 0
0.1 0.13333333 0
0.13333333 0.13333333 0
0.16666667 0.13333333 0
0.2 0.13333333 0
0.23333333 0.13333333 0
0.26666667 0.13333333 0
0.3 0.13333333 0
0.33333333 0.13333333 0
0.36666667 0.13333333 0
0.4 0.13333333 0
0.43333333 0.13333333 0
0.46666667 0.13333333 0
0.5 0.13333333 0
0.53333333 0.13333333 0
0.56666667 0.13333333 0
0.6 0.13333333 0
0.63333333 0.13333333 0
0.66666667 0.13333333 0
0.7 0.13333333 0
0.73333333 0.13333333 0
0.76666667 0.13333333 0
0.8 0.13333333 0
0.83333333 0.13333333 0
0.86666667 0.13333333 0
0.9 0.13333333 0
0.93333333 0.13333333 0
0.96666667 0.13333333 0
1 0.13333333 0
0 0.16666667 0
0.033333333 0.16666667 0
0.066666667 0.16666667 0
0.1 0.16666667 0
0.13333333 0.16666667 0
0.16666667 0.16666667 0
0.2 0.16666667 0
0.23333333 0.16666667 0
0.26666667 0.16666667 0
0.3 0.16666667 0
0.33333333 0.16666667 0
0.36666667 0.16666667 0
0.4 0.16666667 0
0.43333333 0.16666667 0
0.46666667 0.16666667 0
0.5 0.16666667 0
0.53333333 0.16666667 0
0.56666667 0.16666667 0
0.6 0.16666667 0
0.63333333 0.16666667 0
0.66666667 0.16666667 0
0.7 0.16666667 0
0.73333333 0.16666667 0
0.76666667 0.16666667 0
0.8 0.16666667 0
0.83333333 0.16666667 0
0.86666667 0.16666667 0
0.9 0.16666667 0
0.93333333 0.16666667 0
0.96666667 0.16666667 0
1 0.16666667 0
0 0.2 0
0.033333333 0.2 0
0.066666667 0.2 0
0.1 0.2 0
0.13333333 0.2 0
0.16666667 0.2 0
0.2 0.2 0
0.23333333 0.2 0
0.26666667 0.2 0
0.3 0.2 0
0.33333333 0.2 0
0.36666667 0.2 0
0.4 0.2 0
0.43333333 0.2 0
0.46666667 0.2 0
0.5 0.2 0
0.53333333 0.2 0
0.56666667 0.2 0
0.6 0.2 0
0.63333333 0.2 0
0.66666667 0.2 0
0.7 0.2 0
0.73333333 0.2 0
0.76666667 0.2 0
0.8 0.2 0
0.83333333 0.2 0
0.86666667 0.2 0
0.9 0.2 0
0.93333333 0.2 0
0.96666667 0.2 0
1 0.2 0
0 0.23333333 0
0.033333333 0.23333333 0
0.066666667 0.23333333 0
0.1 0.23333333 0
0.13333333 0.23333333 0
0.16666667 0.23333333 0
0.2 0.23333333 0
0.23333333 0.23333333 0
0.26666667 0.23333333 0
0.3 0.23333333 0
0.33333333 0.23333333 0
0.36666667 0.23333333 0
0.4 0.23333333 0
0.43333333 0.23333333 0
0.46666667 0.23333333 0
0.5 0.23333333 0
0.53333333 0.23333333 0
0.56666667 0.23333333 0
0.6 0.23333333 0
0.63333333 0.23333333 0
0.66666667 0.23333333 0
0.7 0.23333333 0
0.73333333 0.23333333 0
0.76666667 0.23333333 0
0.8 0.23333333 0
0.83333333 0.23333333 0
0.86666667 0.23333333 0
0.9 0.23333333 0
0.93333333 0.23333333 0
0.96666667 0.23333333 0
1 0.23333333 0
0 0.26666667 0
0.033333333 0.26666667 0
0.066666667 0.26666667 0
0.1 0.26666667 0
0.13333333 0.26666667 0
0.16666667 0.26666667 0
0.2 0.26666667 0
0.23333333 0.26666667 0
0.26666667 0.26666667 0
0.3 0.26666667 0
0.33333333 0.26666667 0
0.36666667 0.26666667 0
0.4 0.26666667 0
0.43333333 0.26666667 0
0.46666667 0.26666667 0
0.5 0.26666667 0
0.53333333 0.26666667 0
0.56666667 0.26666667 0
0.6 0.26666667 0
0.63333333 0.26666667 0
0.66666667 0.26666667 0
0.7 0.26666667 0
0.73333333 0.26666667 0
0.76666667 0.26666667 0
0.8 0.26666667 0
0.83333333 0.26666667 0
0.86666667 0.26666667 0
0.9 0.26666667 0
0.93333333 0.26666667 0
0.96666667 0.26666667 0
1 0.26666667 0
0 0.3 0
0.033333333 0.3 0
0.066666667 0.3 0
0.1 0.3 0
0.13333333 0.3 0
0.16666667 0.3 0
0.2 0.3 0
0.23333333 0.3 0
0.26666667 0.3 0
0.3 0.3 0
0.33333333 0.3 0
0.36666667 0.3 0
0.4 0.3 0
0.43333333 0.3 0
0.46666667 0.3 0
0.5 0.3 0
0.53333333 0.3 0
0.56666667 0.3 0
0.6 0.3 0
0.63333333 0.3 0
0.66666667 0.3 0
0.7 0.3 0
0.73333333 0.3 0
0.76666667 0.3 0
0.8 0.3 0
0.83333333 0.3 0
0.86666667 0.3 0
0.9 0.3 0
0.93333333 0.3 0
0.96666667 0.3 0
1 0.3 0
0 0.33333333 0
0.033333333 0.33333333 0
0.066666667 0.33333333 0
0.1 0.33333333 0
0.13333333 0.33333333 0
0.16666667 0.33333333 0
0.2 0.33333333 0
0.23333333 0.33333333 0
0.26666667 0.33333333 0
0.3 0.33333333 0
0.33333333 0.33333333 0
0.36666667 0.33333333 0
0.4 0.33333333 0
0.43333333 0.33333333 0
0.46666667 0.33333333 0
0.5 0.33333333 0
0.53333333 0.33333333 0
0.56666667 0.33333333 0
0.6 0.33333333 0
0.63333333 0.33333333 0
0.66666667 0.33333333 0
0.7 0.33333333 0
0.73333333 0.33333333 0
0.76666667 0.33333333 0
0.8 0.33333333 0
0.83333333 0.33333333 0
0.86666667 0.33333333 0
0.9 0.33333333 0
0.93333333 0.33333333 0
0.96666667 0.33333333 0
1 0.33333333 0
0 0.36666667 0
0.033333333 0.36666667 0
0.066666667 0.36666667 0
0.1 0.36666667 0
0.13333333 0.36666667 0
0.16666667 0.36666667 0
0.2 0.36666667 0
0.23333333 0.36666667 0
0.26666667 0.36666667 0
0.3 0.36666667 0
0.33333333 0.36666667 0
0.36666667 0.36666667 0
0.4 0.36666667 0
0.43333333 0.36666667 0
0.46666667 0.36666667 0
0.5 0.36666667 0
0.53333333 0.36666667 0
0.56666667 0.36666667 0
0.6 0.36666667 0
0.63333333 0.36666667 0
0.66666667 0.36666667 0
0.7 0.36666667 0
0.73333333 0.36666667 0
0.76666667 0.36666667 0
0.8 0.36666667 0
0.83333333 0.36666667 0
0.86666667 0.36666667 0
0.9 0.36666667 0
0.93333333 0.36666667 0
0.96666667 0.36666667 0
1 0.36666667 0
0 0.4 0
0.033333333 0.4 0
0.066666667 0.4 0
0.1 0.4 0
0.13333333 0.4 0
0.16666667 0.4 0
0.2 0.4 0
0.23333333 0.4 0
0.26666667 0.4 0
0.3 0.4 0
0.33333333 0.4 0
0.36666667 0.4 0
0.4 0.4 0
0.43333333 0.4 0
0.46666667 0.4 0
0.5 0.4 0
0.53333333 0.4 0
0.56666667 0.4 0
0.6 0.4 0
0.63333333 0.4 0
0.66666667 0.4 0
0.7 0.4 0
0.73333333 0.4 0
0.76666667 0.4 0
0.8 0.4 0
0.83333333 0.4 0
0.86666667 0.4 0
0.9 0.4 0
0.93333333 0.4 0
0.96666667 0.4 0
1 0.4 0
0 0.43333333 0
0.033333333 0.43333333 0
0.066666667 0.43333333 0
0.1 0.43333333 0
0.13333333 0.43333333 0
0.16666667 0.43333333 0
0.2 0.43333333 0
0.23333333 0.43333333 0
0.26666667 0.43333333 0
0.3 0.43333333 0
0.33333333 0.43333333 0
0.36666667 0.43333333 0
0.4 0.43333333 0
0.43333333 0.43333333 0
0.46666667 0.43333333 0
0.5 0.43333333 0
0.53333333 0.43333333 0
0.56666667 0.43333333 0
0.6 0.43333333 0
0.63333333 0.43333333 0
0.66666667 0.43333333 0
0.7 0.43333333 0
0.73333333 0.43333333 0
0.76666667 0.43333333 0
0.8 0.43333333 0
0.83333333 0.43333333 0
0.86666667 0.43333333 0
0.9 0.43333333 0
0.93333333 0.43333333 0
0.96666667 0.43333333 0
1 0.43333333 0
0 0.46666667 0
0.033333333 0.46666667 0
0.066666667 0.46666667 0
0.1 0.46666667 0
0.13333333 0.46666667 0
0.16666667 0.46666667 0
0.2 0.46666667 0
0.23333333 0.46666667 0
0.26666667 0.46666667 0
0.3 0.46666667 0
0.33333333 0.46666667 0
0.36666667 0.46666667 0
0.4 0.46666667 0
0.43333333 0.46666667 0
0.46666667 0.46666667 0
0.5 0.46666667 0
0.53333333 0.46666667 0
0.56666667 0.46666667 0
0.6 0.46666667 0
0.63333333 0.46666667 0
0.66666667 0.46666667 0
0.7 0.46666667 0
0.73333333 0.46666667 0
0.76666667 0.46666667 0
0.8 0.46666667 0
0.83333333 0.46666667 0
0.86666667 0.46666667 0
0.9 0.46666667 0
0.93333333 0.46666667 0
0.96666667 0.46666667 0
1 0.46666667 0
0 0.5 0
0.033333333 0.5 0
0.066666667 0.5 0
0.1 0.5 0
0.13333333 0.5 0
0.16666667 0.5 0
0.2 0.5 0
0.23333333 0.5 0
0.26666667 0.5 0
0.3 0.5 0
0.33333333 0.5 0
0.36666667 0.5 0
0.4 0.5 0
0.43333333 0.5 0
0.46666667 0.5 0
0.5 0.5 0
0.53333333 0.5 0
0.56666667 0.5 0
0.6 0.5 0
0.63333333 0.5 0
0.66666667 0.5 0
0.7 0.5 0
0.73333333 0.5 0
0.76666667 0.5 0
0.8 0.5 0
0.83333333 0.5 0
0.86666667 0.5 0
0.9 0.5 0
0.93333333 0.5 0
0.96666667 0.5 0
1 0.5 0
0 0.53333333 0
0.033333333 0.53333333 0
0.066666667 0.53333333 0
0.1 0.53333333 0
0.13333333 0.53333333 0
0.16666667 0.53333333 0
0.2 0.53333333 0
0.23333333 0.53333333 0
0.26666667 0.53333333 0
0.3 0.53333333 0
0.33333333 0.53333333 0
0.36666667 0.53333333 0
0.4 0.53333333 0
0.43333333 0.53333333 0
0.46666667 0.53333333 0
0.5 0.53333333 0
0.53333333 0.53333333 0
0.56666667 0.53333333 0
0.6 0.53333333 0
0.63333333 0.53333333 0
0.66666667 0.53333333 0
0.7 0.53333333 0
0.73333333 0.53333333 0
0.76666667 0.53333333 0
0.8 0.53333333 0
[...]
CELL_DATA 1920
Scalars  Label int 1
LOOKUP_TABLE FreeFempp_table
0
0
0
0
0
0
0
0
0
0
0
0
0
0
0
0
0
0
0
0
0
0
0
0
0
0
0
0
0
0
0
0
0
0
0
0
0
0
0
0
0
0
0
0
0
0
0
0
0
0
0
0
0
0
0
0
0
0
0
0
0
0
0
0
0
0
0
0
0
0
0
0
0
0
0
0
0
0
0
0
0
0
0
0
0
0
0
0
0
0
0
0
0
0
0
0
0
0
0
0
0
0
0
0
0
0
0
0
0
0
0
0
0
0
0
0
0
0
0
0
0
0
0
0
0
0
0
0
0
0
0
0
0
0
0
0
0
0
0
0
0
0
0
0
0
0
0
0
0
0
0
0
0
0
0
0
0
0
0
0
0
0
0
0
0
0
0
0
0
0
0
0
0
0
0
0
0
0
0
0
0
0
0
0
0
0
0
0
0
0
0
0
0
0
0
0
0
0
0
0
0
0
0
0
0
0
0
0
0
0
0
0
0
0
0
0
0
0
0
0
0
0
0
0
0
0
0
0
0
0
0
0
0
0
0
0
0
0
0
0
0
0
0
0
0
0
0
0
0
0
0
0
0
0
0
0
0
0
0
0
0
0
0
0
0
0
0
0
0
0
0
0
0
0
0
0
0
0
0
0
0
0
0
0
0
0
0
0
0
0
0
0
0
0
0
0
0
0
0
0
0
0
0
0
0
0
0
0
0
0
0
0
0
0
0
0
0
0
0
0
0
0
0
0
0
0
0
0
0
0
0
0
0
0
0
0
0
0
0
0
0
0
0
0
0
0
0
0
0
0
0
0
0
0
0
0
0
0
0
0
0
0
0
0
0
0
0
0
0
0
0
0
0
0
0
0
0
0
0
0
0
0
0
0
0
0
0
0
0
0
0
0
0
0
0
0
0
0
0
0
0
0
0
0
0
0
0
0
0
0
0
0
0
0
0
0
0
0
0
0
0
0
0
0
0
0
0
0
0
0
0
0
0
0
0
0
0
0
0
0
0
0
0
0
0
0
0
0
0
0
0
0
0
0
0
0
0
0
0
0
0
0
0
0
0
0
0
0
0
0
0
0
0
0
0
0
0
0
0
0
0
0
0
0
0
0
0
0
0
0
0
0
0
0
0
0
0
0
0
0
0
0
0
0
0
0
0
0
0
0
0
0
0
0
0
0
0
0
0
0
0
0
0
0
0
0
0
0
0
0
0
0
0
0
0
0
0
0
0
0
0
0
0
0
0
0
0
0
0
0
0
0
0
0
0
0
0
0
0
0
0
0
0
0
0
0
0
0
0
0
0
0
0
0
0
0
0
0
0
0
0
0
0
0
0
0
0
0
0
0
0
0
0
0
0
0
0
0
0
0
0
0
0
0
0
0
0
0
0
0
0
0
0
0
0
0
0
0
0
0
0
0
0
0
0
0
0
0
0
0
0
0
0
0
0
0
0
0
0
0
0
0
0
0
0
0
0
0
0
0
0
0
0
0
0
0
0
0
0
0
0
0
0
0
0
0
0
0
0
0
0
0
0
0
0
0
0
0
0
0
0
0
0
0
0
0
0
0
0
0
0
0
0
0
0
0
0
0
0
0
0
0
0
0
0
0
0
0
0
0
0
0
0
0
0
0
0
0
0
0
0
0
0
0
0
0
0
0
0
0
0
0
0
0
0
0
0
0
0
0
0
0
0
0
0
0
0
0
0
0
0
0
0
0
0
0
0
0
0
0
0
0
0
0
0
0
0
0
0
0
0
0
0
0
0
0
0
0
0
0
0
0
0
0
0
0
0
0
0
0
0
0
0
0
0
0
0
0
0
0
0
0
0
0
0
0
0
0
0
0
0
0
0
0
0
0
0
0
0
0
0
0
0
0
0
0
0
0
0
0
0
0
0
0
0
0
0
0
0
0
0
0
0
0
0
0
0
0
0
0
0
0
0
0
0
0
0
0
0
0
0
0
0
0
0
0
0
0
0
0
0
0
0
0
0
0
0
0
0
0
0
0
0
0
0
0
0
0
0
0
0
0
0
0
0
0
0
0
0
0
0
0
0
0
0
0
0
0
0
0
0
0
0
0
0
0
0
0
0
0
0
0
0
0
0
0
0
0
0
0
0
0
0
0
0
0
0
0
0
0
0
0
0
0
0
0
0
0
0
0
0
0
0
0
0
0
0
0
0
0
0
0
0
0
0
0
0
0
0
0
0
0
0
0
0
0
0
0
0
0
0
0
0
0
0
0
0
0
0
0
0
0
0
0
0
0
0
0
0
0
0
0
0
0
0
0
0
0
0
0
0
0
0
0
0
0
0
0
0
0
0
0
0
0
0
0
0
0
0
0
0
0
0
0
0
0
0
0
0
0
0
0
0
0
0
0
0
0
0
0
0
0
0
0
0
0
0
0
0
0
0
0
0
0
0
0
0
0
0
0
0
0
0
0
0
0
0
0
0
0
0
0
0
0
0
0
0
0
0
0
0
0
0
0
0
0
0
0
0
0
0
0
0
0
0
0
0
0
0
0
0
0
0
0
0
0
0
0
0
0
0
0
0
0
0
0
0
0
0
0
0
0
0
0
0
0
0
0
0
0
0
0
0
0
0
0
0
0
0
0
0
0
0
0
0
0
0
0
0
0
0
0
0
0
0
0
0
0
0
0
0
0
0
0
0
0
0
0
0
0
0
0
0
0
0
0
0
0
0
0
0
0
0
0
0
0
0
0
0
0
0
0
0
0
0
0
0
0
0
0
0
0
0
0
0
0
0
0
0
0
0
0
0
0
0
0
0
0
0
0
0
0
0
0
0
0
0
0
0
0
0
0
0
0
0
0
0
0
0
0
0
0
0
0
0
0
0
0
0
0
0
0
0
0
0
0
0
0
0
0
0
0
0
0
0
0
0
0
0
0
0
0
0
0
0
0
0
0
0
0
0
0
0
0
0
0
0
0
0
0
0
0
0
0
0
0
0
0
0
0
0
0
0
0
0
0
0
0
0
0
0
0
0
0
0
0
0
0
0
0
0
0
0
0
0
0
0
0
0
0
0
0
0
0
0
0
0
0
0
0
0
0
0
0
0
0
0
0
0
0
0
0
0
0
0
0
0
0
0
0
0
0
0
0
0
0
0
0
0
0
0
0
0
0
0
0
0
0
0
0
0
0
0
0
0
0
0
0
0
0
0
0
0
0
0
0
0
0
0
0
0
0
0
0
0
0
0
0
0
0
0
0
0
0
0
0
0
0
0
0
0
0
0
0
0
0
0
0
0
0
0
0
0
0
0
0
0
0
0
0
0
0
0
0
0
0
0
0
0
0
0
0
0
0
0
0
0
0
0
0
0
0
0
0
0
0
0
0
0
0
0
0
0
0
0
0
0
0
0
0
0
0
0
0
0
0
0
0
0
0
0
0
0
0
0
0
0
0
0
0
0
0
0
0
0
0
0
0
0
0
0
0
0
0
0
0
0
0
0
0
0
0
0
0
0
0
0
0
0
0
0
0
0
0
0
0
0
0
0
0
0
0
0
0
0
0
0
0
0
0
0
0
0
0
0
0
0
0
0
0
0
0
0
0
0
0
0
0
0
0
0
0
0
0
0
0
0
0
0
0
0
0
0
0
0
0
0
0
0
0
0
0
0
0
0
0
0
0
0
0
0
0
0
0
0
0
0
0
0
0
0
0
0
0
0
0
0
0
0
0
0
0
0
0
0
0
0
0
0
0
0
0
0
0
0
0
0
0
0
0
0
0
0
0
0
0
0
0
0
0
0
0
0
0
0
0
0
0
0
0
0
0
0
0
0
0
0
0
0
0
0
0
0
0
0
0
0
0
0
0
0
0
0
0
0
0
0
0
0
0
0
0
0
0
0
0
0
0
0
0
0
0
0
0
0
0
0
0
0
0
0
0
0
0
0
0
0
0
0
0
0
0
0
0
0
0
0
0
0
0
0
0
0
0
0
0
0
0
0
0
0
0
0
0
0
0
0
0
0
0
0
0
0
0
0
0
0
0
0
0
0
0
0
0
0
0
0
0
0
0
0
0
0
0
0
0
0
0
0
0
0
0
0
0
0
0
0
0
0
0
1
1
1
1
1
1
1
1
1
1
1
1
1
1
1
1
1
1
1
1
1
1
1
1
1
1
1
1
1
1
2
2
2
2
2
2
2
2
2
2
2
2
2
2
2
2
2
2
2
2
2
2
2
2
2
2
2
2
2
2
3
3
3
3
3
3
3
3
3
3
3
3
3
3
3
3
3
3
3
3
3
3
3
3
3
3
3
3
3
3
4
4
4
4
4
4
4
4
4
4
4
4
4
4
4
4
4
4
4
4
4
4
4
4
4
4
4
4
4
4

LOOKUP_TABLE FreeFempp_table 5
1.00000000 0.00000000 0.00000000 1.00000000
1.00000000 1.00000000 0.00000000 1.00000000
1.00000000 0.00000000 1.00000000 1.00000000
0.00000000 1.00000000 0.00000000 1.00000000
0.00000000 1.00000000 1.00000000 1.00000000

POINT_DATA 961
FIELD FieldData 1
Density 1 961 float
1.75733820e-01 1.48957327e-01 1.95232719e-01 2.08224416e-01 1.97424784e-01 1.76093787e-01 1.45243376e-01 1.01549886e-01 5.60903549e-02 3.97912562e-02 6.21350035e-02 1.66710004e-01 3.01709324e-01 3.61734450e-01 3.94615352e-01 4.35167313e-01 5.17940760e-01 6.70653522e-01 8.11062813e-01 8.52719724e-01 8.24618459e-01 8.04951847e-01 8.51433158e-01 8.55530262e-01 8.26617062e-01 8.22620392e-01 8.06704760e-01 7.46011794e-01 7.44192600e-01 7.43547320e-01 6.82476580e-01 2.11999775e-03 7.71362185e-02 1.21860564e-01 1.29674017e-01 1.19593196e-01 1.04513183e-01 8.52867663e-02 6.04950823e-02 3.52209769e-02 2.18031816e-02 2.65136659e-02 6.33929595e-02 1.69152528e-01 2.24980354e-01 2.55060941e-01 2.88705081e-01 3.66004348e-01 6.01010978e-01 8.65131676e-01 9.12795484e-01 8.61635566e-01 7.17460275e-01 7.00070322e-01 7.79757619e-01 7.77676225e-01 7.75213420e-01 7.82201350e-01 7.57836342e-01 7.82610178e-01 7.57088840e-01 7.29274035e-01 1.14573026e-03 1.98447099e-03 1.83256785e-03 1.68297905e-03 1.70111854e-03 1.72561698e-03 1.75418309e-03 1.79783744e-03 1.85154134e-03 2.05042190e-03 1.99580798e-03 3.99859771e-02 2.81730354e-01 3.16358894e-01 3.30756396e-01 3.49000841e-01 3.66384506e-01 5.14811754e-01 8.00484538e-01 6.34773731e-01 8.42646956e-02 4.53010872e-02 2.76955664e-02 2.09651701e-02 1.90567933e-02 2.58885827e-02 5.66745251e-02 3.10127228e-01 5.54135680e-01 6.02078974e-01 6.48724973e-01 5.35300016e-01 1.84380589e-03 1.99304917e-03 1.70627818e-03 1.69375073e-03 1.70896691e-03 1.73055951e-03 1.76338130e-03 1.82251341e-03 1.97049254e-03 1.00064452e-03 9.43894149e-04 1.91855058e-03 2.03213678e-03 4.05116146e-03 3.14490497e-01 4.22150552e-01 4.09238130e-01 7.11110830e-01 1.60083361e-02 1.30393794e-02 1.16881272e-02 7.90178962e-03 6.90922886e-03 5.62336389e-03 5.23876771e-03 5.49624534e-03 9.37855523e-03 1.77909598e-01 4.38091218e-01 5.65759182e-01 5.20414591e-01 3.51470590e-01 4.60230932e-02 5.10709211e-02 3.40055883e-01 3.72567385e-01 3.72490734e-01 3.77620965e-01 3.87803078e-01 3.88423324e-01 2.03773662e-01 2.11631646e-03 2.07654666e-03 1.58087863e-03 1.61529984e-03 1.71505124e-03 2.06407043e-03 5.39552886e-03 3.09918046e-01 7.42970765e-01 7.00519374e-03 1.15674203e-02 8.49477015e-03 7.63498154e-03 6.49971468e-03 5.35518676e-03 5.07515762e-03 4.99726925e-03 6.53552217e-03 2.14770734e-01 5.17346323e-01 4.70340729e-01 2.97282338e-01 4.95136939e-02 3.62190641e-02 2.41424918e-01 3.46494973e-01 3.62269968e-01 3.67940634e-01 3.74534547e-01 3.76277745e-01 3.59284580e-01 3.55039209e-01 3.92467260e-01 3.98275465e-01 4.00739163e-03 2.14345544e-03 1.60726288e-03 1.59294554e-03 1.11497939e-03 6.98945582e-01 9.58564818e-01 4.62779738e-02 2.84065027e-02 2.12255586e-02 1.81126855e-02 1.59045998e-02 9.55131836e-03 4.97048395e-03 4.71619703e-03 9.52277612e-03 4.77418661e-01 4.35096800e-01 2.35438898e-01 8.40254799e-02 4.27115448e-02 1.36853173e-01 3.13100755e-01 3.68512809e-01 3.89239043e-01 4.01250511e-01 4.09089178e-01 4.08396900e-01 4.00642902e-01 4.07735080e-01 4.17862654e-01 4.16068375e-01 4.25313771e-01 3.66595179e-01 3.80228832e-03 4.96792258e-04 2.94159952e-04 4.67334576e-02 9.68625724e-01 2.63391852e-01 8.34549442e-02 1.02728747e-01 8.65182355e-02 8.29392895e-02 1.85836442e-02 4.39610519e-03 4.88101784e-03 4.76522028e-01 4.79431033e-01 2.60950297e-01 1.77334398e-01 9.54626724e-02 1.61472991e-01 3.30067962e-01 4.04467583e-01 4.37424928e-01 4.55534220e-01 4.66067135e-01 4.69584256e-01 4.67021614e-01 4.64253575e-01 4.63319004e-01 4.58374649e-01 4.53951389e-01 4.57129300e-01 4.56456244e-01 3.53586018e-01 4.37746872e-04 1.24218187e-03 5.59876161e-03 9.65159237e-01 7.26554632e-01 2.46264026e-01 2.11513445e-01 1.48744047e-01 6.01705797e-02 4.16864548e-03 4.46553156e-03 5.08825183e-01 6.34923398e-01 4.88023281e-01 4.29557264e-01 3.79481584e-01 3.97908479e-01 4.78851497e-01 5.18487692e-01 5.36459565e-01 5.45386374e-01 5.48184335e-01 5.45854628e-01 5.39569676e-01 5.31803608e-01 5.23769736e-01 5.14587343e-01 5.05299389e-01 4.97543842e-01 4.89514142e-01 4.80941951e-01 4.66496021e-01 2.51675420e-03 3.57771688e-03 4.78327973e-03 9.53330219e-01 8.77022326e-01 5.86824954e-01 2.94542015e-01 1.14594892e-01 4.00533900e-03 4.16732905e-03 5.27778685e-01 7.80594885e-01 7.93644726e-01 7.63684809e-01 7.36844718e-01 7.12624967e-01 6.93755090e-01 6.77998364e-01 6.64789498e-01 6.53016746e-01 6.41249001e-01 6.28806889e-01 6.15842104e-01 6.02907121e-01 5.90080202e-01 5.77194571e-01 5.64634681e-01 5.52445889e-01 5.40212274e-01 5.28427482e-01 5.14534771e-01 4.98493373e-01 4.77593346e-03 4.53329831e-03 5.12088509e-03 9.15123105e-01 8.92444491e-01 7.97357261e-01 2.84578681e-01 4.04126709e-03 3.74463107e-03 4.54922050e-01 8.00193965e-01 8.73426914e-01 8.53878021e-01 8.43473971e-01 8.26325476e-01 8.03672314e-01 7.78448641e-01 7.54447222e-01 7.32717335e-01 7.13009953e-01 6.94876909e-01 6.78149939e-01 6.62706256e-01 6.48250520e-01 6.34572089e-01 6.21584654e-01 6.08950078e-01 5.96331954e-01 5.84104121e-01 5.72673261e-01 5.61936617e-01 5.38226724e-01 5.12933638e-03 5.07556135e-03 5.44719119e-03 6.52875006e-01 3.73427778e-01 9.71365035e-01 4.83982358e-03 3.49920033e-03 8.49967357e-03 6.66858494e-01 7.71723509e-01 7.71791577e-01 7.95813560e-01 8.07905674e-01 8.06995571e-01 7.95662940e-01 7.79093683e-01 7.60961235e-01 7.43046045e-01 7.26102650e-01 7.10512578e-01 6.96381867e-01 6.83600128e-01 6.71999395e-01 6.61291540e-01 6.51033640e-01 6.40922010e-01 6.31008446e-01 6.22380614e-01 6.18449926e-01 6.23322248e-01 5.96961200e-01 6.71344297e-03 5.65424375e-03 5.90711320e-03 1.38057582e-02 2.52468176e-02 7.52084374e-01 3.68508720e-03 4.43568313e-03 4.23336059e-01 3.34367037e-01 4.01634723e-01 5.27038097e-01 6.45694613e-01 7.14313447e-01 7.40823746e-01 7.45859206e-01 7.40924120e-01 7.31541038e-01 7.20480204e-01 7.09292471e-01 6.98835135e-01 6.89519405e-01 6.81453586e-01 6.74418807e-01 6.67947650e-01 6.61579728e-01 6.55047476e-01 6.48794413e-01 6.46398485e-01 6.56731069e-01 6.86179161e-01 6.79283798e-01 1.91096477e-02 6.25109160e-03 7.59107713e-03 1.42100733e-02 9.69072163e-01 4.25998494e-03 4.64926939e-03 2.54294336e-01 1.02259435e-01 1.23037048e-01 2.02038035e-01 3.60321552e-01 5.26548088e-01 6.23022318e-01 6.67351305e-01 6.84892356e-01 6.89122379e-01 6.86696291e-01 6.81210816e-01 6.74795926e-01 6.68754518e-01 6.63810074e-01 6.60142481e-01 6.57480180e-01 6.55252099e-01 6.52664781e-01 6.48835957e-01 6.43957973e-01 6.43860996e-01 6.57413363e-01 7.15876639e-01 8.00427079e-01 2.15443909e-01 2.17044074e-02 2.42757667e-02 9.72697258e-01 4.45839809e-03 4.82711382e-03 1.49341628e-01 4.86220345e-02 5.33485748e-02 8.76879394e-02 1.87414691e-01 3.54077458e-01 4.93254781e-01 5.74624598e-01 6.16174340e-01 6.35135770e-01 6.41577005e-01 6.41157687e-01 6.37355864e-01 6.32536173e-01 6.28347337e-01 6.25789821e-01 6.25254512e-01 6.26522303e-01 6.28715932e-01 6.30068958e-01 6.27559066e-01 6.17468297e-01 5.93165755e-01 5.65964460e-01 5.92528939e-01 7.94274271e-01 9.36647579e-02 1.43705353e-01 9.42030191e-01 4.76502161e-03 5.13424166e-03 7.42315501e-02 2.75905840e-02 3.06017958e-02 5.49653843e-02 1.32979468e-01 2.73570418e-01 4.10344958e-01 5.04444420e-01 5.60043573e-01 5.89772165e-01 6.03183687e-01 6.06393278e-01 6.03471398e-01 5.97475350e-01 5.90940356e-01 5.85981905e-01 5.84177911e-01 5.86357117e-01 5.92357874e-01 6.00759745e-01 6.08429551e-01 6.09910011e-01 5.91300607e-01 5.17422080e-01 3.12343866e-01 2.78752238e-01 1.77833766e-01 5.05001917e-02 9.86588538e-01 5.02214441e-03 5.45824599e-03 3.39569636e-02 1.74440742e-02 2.08681393e-02 4.71831784e-02 1.32434890e-01 2.64037222e-01 3.82781208e-01 4.70131397e-01 5.27874708e-01 5.62651396e-01 5.80697954e-01 5.86774886e-01 5.84444165e-01 5.76661348e-01 5.66282570e-01 5.56281507e-01 5.49586833e-01 5.48534513e-01 5.54157853e-01 5.65665424e-01 5.80587268e-01 5.96198022e-01 6.09712601e-01 6.13304734e-01 4.82623339e-01 2.41853744e-01 2.09376037e-01 2.40510181e-01 9.73982692e-01 5.05124778e-03 5.64008113e-03 1.69052798e-02 1.22964932e-02 1.69671606e-02 5.50843067e-02 1.71787888e-01 2.97083467e-01 3.91883373e-01 4.64312881e-01 5.17281890e-01 5.52831709e-01 5.73659241e-01 5.82524180e-01 5.81829667e-01 5.73730946e-01 5.60569823e-01 5.45329630e-01 5.31730711e-01 5.23620784e-01 5.23568034e-01 5.31500936e-01 5.44760287e-01 5.60997486e-01 5.82115412e-01 6.18365347e-01 6.55495167e-01 4.65649277e-01 3.83539408e-01 8.35370839e-01 9.52499628e-01 5.02269901e-03 5.75207965e-03 1.03450529e-02 9.00167134e-03 1.76015366e-02 8.82007107e-02 2.46518672e-01 3.46771896e-01 4.16659802e-01 4.74221379e-01 5.20601273e-01 5.54825842e-01 5.77179670e-01 5.88812113e-01 5.91003895e-01 5.84904373e-01 5.71768522e-01 5.53540468e-01 5.33438444e-01 5.15871525e-01 5.05006313e-01 5.02760351e-01 5.08239388e-01 5.20862401e-01 5.41504860e-01 5.76410830e-01 6.43579245e-01 7.01864064e-01 6.95011377e-01 9.30216849e-01 9.13320124e-01 5.06543322e-03 5.88006433e-03 7.94916227e-03 6.81020692e-03 2.50829868e-02 1.74588054e-01 3.27110112e-01 3.93223792e-01 4.43723470e-01 4.90125865e-01 5.30616999e-01 5.62800646e-01 5.85817218e-01 5.99915087e-01 6.05665445e-01 6.03470325e-01 5.93492270e-01 5.76041937e-01 5.52334964e-01 5.25078177e-01 4.98167187e-01 4.76928771e-01 4.68638152e-01 4.83604789e-01 5.23077905e-01 5.79422534e-01 6.66789412e-01 7.77421117e-01 8.74471545e-01 9.29013610e-01 1.12066448e-01 5.14665479e-03 6.00338215e-03 6.97651086e-03 5.66909788e-03 5.26660159e-02 2.98990428e-01 3.88997704e-01 4.29751873e-01 4.67830062e-01 5.06514966e-01 5.42181849e-01 5.72092593e-01 5.95075548e-01 6.11030519e-01 6.20243609e-01 6.22802734e-01 6.18199050e-01 6.05232835e-01 5.82327604e-01 5.48032999e-01 5.02278924e-01 4.53366518e-01 4.28373784e-01 4.58926499e-01 5.44894159e-01 6.52385354e-01 7.74010479e-01 8.54449809e-01 8.96692276e-01 8.47006798e-01 1.32932859e-02 5.22797881e-03 6.20037923e-03 6.51794998e-03 5.29811345e-03 1.57656655e-01 3.95804107e-01 4.31792706e-01 4.57142293e-01 4.87548679e-01 5.20479441e-01 5.51922381e-01 5.79358578e-01 6.01679742e-01 6.18704379e-01 6.30681217e-01 6.37745857e-01 6.39274418e-01 6.33213758e-01 6.15567744e-01 5.80312610e-01 5.22995710e-01 4.58720088e-01 4.32940900e-01 5.00348568e-01 6.47919893e-01 7.71655917e-01 8.54776084e-01 8.74276221e-01 8.63519073e-01 1.07252248e-01 6.80307997e-03 5.71838906e-03 7.47585902e-03 6.28615171e-03 5.27064921e-03 3.15647900e-01 4.44823444e-01 4.60658073e-01 4.77801770e-01 5.02605677e-01 5.30377388e-01 5.57621360e-01 5.82272053e-01 6.03329837e-01 6.20520055e-01 6.34038866e-01 6.44183815e-01 6.50655985e-01 6.51499450e-01 6.42022133e-01 6.15302682e-01 5.71771502e-01 5.41045785e-01 5.79502285e-01 7.20537543e-01 8.10904741e-01 8.73893440e-01 8.91909778e-01 8.52138281e-01 5.06624401e-01 1.08009111e-02 5.63436467e-03 5.69311716e-03 1.22325961e-02 6.26176968e-03 5.24781365e-03 4.05510306e-01 4.68201339e-01 4.79371846e-01 4.92750794e-01 5.12391508e-01 5.34866989e-01 5.57691753e-01 5.79251826e-01 5.98547041e-01 6.15076542e-01 6.28860831e-01 6.40455604e-01 6.50733054e-01 6.60285115e-01 6.68947160e-01 6.78273618e-01 7.02252567e-01 7.66989470e-01 8.37367117e-01 8.57854724e-01 8.51041198e-01 8.70872676e-01 6.86866164e-01 8.61839857e-03 5.95206209e-03 5.69059234e-03 6.32896367e-03 7.05047883e-03 7.10292310e-02 6.24440610e-03 5.22884866e-03 4.42731977e-01 4.84282762e-01 4.91389543e-01 5.01124918e-01 5.15430748e-01 5.32601297e-01 5.51036537e-01 5.69425821e-01 5.86702287e-01 6.02104425e-01 6.15413010e-01 6.27443910e-01 6.40735805e-01 6.59967780e-01 6.91206515e-01 7.39551306e-01 8.04500282e-01 8.68942618e-01 8.92041087e-01 2.63469279e-01 2.10508090e-02 1.27194421e-02 9.30437353e-03 7.44074862e-03 6.37212861e-03 5.76504739e-03 7.03620072e-03 2.21422464e-02 5.11829495e-01 6.23595668e-03 5.21432422e-03 4.66607630e-01 4.98359710e-01 4.98129994e-01 5.02031505e-01 5.10754287e-01 5.23001552e-01 5.37416935e-01 5.52770019e-01 5.67988217e-01 5.82207024e-01 5.94995320e-01 6.07046127e-01 6.21528924e-01 6.45407498e-01 6.87837839e-01 7.51694322e-01 8.23029280e-01 8.78269792e-01 9.01755750e-01 8.52736831e-01 4.55926508e-02 1.97137240e-02 1.18952310e-02 8.64253286e-03 1.13805113e-02 8.19443285e-01 8.85656655e-01 9.12318349e-01 8.14545631e-01 6.23850711e-03 5.20586642e-03 4.89168465e-01 5.08637965e-01 4.98238623e-01 4.95268911e-01 4.98840511e-01 5.06917834e-01 5.17803073e-01 5.30238509e-01 5.43343782e-01 5.56480706e-01 5.69204152e-01 5.81642151e-01 5.95712721e-01 6.16917133e-01 6.54046059e-01 7.11890578e-01 7.80125380e-01 8.38682652e-01 8.77362013e-01 8.90963137e-01 8.82774353e-01 9.18848157e-01 9.47961271e-01 9.53262568e-01 9.56904769e-01 9.50200438e-01 9.33752954e-01 9.31310713e-01 8.87352169e-01 6.25145715e-03 5.20499237e-03 5.13705432e-01 5.11291623e-01 4.89771038e-01 4.81440991e-01 4.81594771e-01 4.86626208e-01 4.94400203e-01 5.03814459e-01 5.14487505e-01 5.26401043e-01 5.39506853e-01 5.53509474e-01 5.68247259e-01 5.85055113e-01 6.08307779e-01 6.43811822e-01 6.92081988e-01 7.45245576e-01 7.95386970e-01 8.36326897e-01 8.66277993e-01 8.91686440e-01 9.04473782e-01 9.07557368e-01 9.06096876e-01 8.99850070e-01 8.81882787e-01 8.79118562e-01 8.34271729e-01 6.24942640e-03 5.22015663e-03 5.40243566e-01 5.01482606e-01 4.73024279e-01 4.63474900e-01 4.62626874e-01 4.65601504e-01 4.70360041e-01 4.76334542e-01 4.83879626e-01 4.93829846e-01 5.06959617e-01 5.23341358e-01 5.41829050e-01 5.60233533e-01 5.76774120e-01 5.92173159e-01 6.09648228e-01 6.31230295e-01 6.54101551e-01 6.71249449e-01 6.80152714e-01 6.83969259e-01 6.73467755e-01 6.65188789e-01 6.63502336e-01 6.69390023e-01 6.87949598e-01 7.04759479e-01 7.11447537e-01 6.02102140e-03 5.22034941e-03 5.87316751e-01 4.82149839e-01 4.54427034e-01 4.47031587e-01 4.45447594e-01 4.45561826e-01 4.46321756e-01 4.48025525e-01 4.51818794e-01 4.59370524e-01 4.72433090e-01 4.92121667e-01 5.17869651e-01 5.46372712e-01 5.71337342e-01 5.84724069e-01 5.78787029e-01 5.47440767e-01 4.88843679e-01 4.20143247e-01 3.91890705e-01 4.22845811e-01 4.73658174e-01 5.10084629e-01 5.26311874e-01 5.34182429e-01 5.41527689e-01 5.48201859e-01 6.16981566e-01 7.42620043e-03 6.08544005e-03 7.49313056e-01 5.64795196e-01 5.49340904e-01 5.44620991e-01 5.43024123e-01 5.42083502e-01 5.41136324e-01 5.40497065e-01 5.41010737e-01 5.43822467e-01 5.50147295e-01 5.60880959e-01 5.76019764e-01 5.94015658e-01 6.11291289e-01 6.22052610e-01 6.18339241e-01 5.90619147e-01 5.32112241e-01 4.55844909e-01 4.11929518e-01 4.35524523e-01 4.99768138e-01 5.50748825e-01 5.75774789e-01 5.81046700e-01 5.77188075e-01 5.70674419e-01 5.98496795e-01 
