# vtk DataFile Version 2.0
results_case1_non_linear/7_density.vtk, Created by Freefem++ 
ASCII
DATASET UNSTRUCTURED_GRID
POINTS 961 float
0 0 0
0.033333333 0 0
0.066666667 0 0
0.1 0 0
0.13333333 0 0
0.16666667 0 0
0.2 0 0
0.23333333 0 0
0.26666667 0 0
0.3 0 0
0.33333333 0 0
0.36666667 0 0
0.4 0 0
0.43333333 0 0
0.46666667 0 0
0.5 0 0
0.53333333 0 0
0.56666667 0 0
0.6 0 0
0.63333333 0 0
0.66666667 0 0
0.7 0 0
0.73333333 0 0
0.76666667 0 0
0.8 0 0
0.83333333 0 0
0.86666667 0 0
0.9 0 0
0.93333333 0 0
0.96666667 0 0
1 0 0
0 0.033333333 0
0.033333333 0.033333333 0
0.066666667 0.033333333 0
0.1 0.033333333 0
0.13333333 0.033333333 0
0.16666667 0.033333333 0
0.2 0.033333333 0
0.23333333 0.033333333 0
0.26666667 0.033333333 0
0.3 0.033333333 0
0.33333333 0.033333333 0
0.36666667 0.033333333 0
0.4 0.033333333 0
0.43333333 0.033333333 0
0.46666667 0.033333333 0
0.5 0.033333333 0
0.53333333 0.033333333 0
0.56666667 0.033333333 0
0.6 0.033333333 0
0.63333333 0.033333333 0
0.66666667 0.033333333 0
0.7 0.033333333 0
0.73333333 0.033333333 0
0.76666667 0.033333333 0
0.8 0.033333333 0
0.83333333 0.033333333 0
0.86666667 0.033333333 0
0.9 0.033333333 0
0.93333333 0.033333333 0
0.96666667 0.033333333 0
1 0.033333333 0
0 0.066666667 0
0.033333333 0.066666667 0
0.066666667 0.066666667 0
0.1 0.066666667 0
0.13333333 0.066666667 0
0.16666667 0.066666667 0
0.2 0.066666667 0
0.23333333 0.066666667 0
0.26666667 0.066666667 0
0.3 0.066666667 0
0.33333333 0.066666667 0
0.36666667 0.066666667 0
0.4 0.066666667 0
0.43333333 0.066666667 0
0.46666667 0.066666667 0
0.5 0.066666667 0
0.53333333 0.066666667 0
0.56666667 0.066666667 0
0.6 0.066666667 0
0.63333333 0.066666667 0
0.66666667 0.066666667 0
0.7 0.066666667 0
0.73333333 0.066666667 0
0.76666667 0.066666667 0
0.8 0.066666667 0
0.83333333 0.066666667 0
0.86666667 0.066666667 0
0.9 0.066666667 0
0.93333333 0.066666667 0
0.96666667 0.066666667 0
1 0.066666667 0
0 0.1 0
0.033333333 0.1 0
0.066666667 0.1 0
0.1 0.1 0
0.13333333 0.1 0
0.16666667 0.1 0
0.2 0.1 0
0.23333333 0.1 0
0.26666667 0.1 0
0.3 0.1 0
0.33333333 0.1 0
0.36666667 0.1 0
0.4 0.1 0
0.43333333 0.1 0
0.46666667 0.1 0
0.5 0.1 0
0.53333333 0.1 0
0.56666667 0.1 0
0.6 0.1 0
0.63333333 0.1 0
0.66666667 0.1 0
0.7 0.1 0
0.73333333 0.1 0
0.76666667 0.1 0
0.8 0.1 0
0.83333333 0.1 0
0.86666667 0.1 0
0.9 0.1 0
0.93333333 0.1 0
0.96666667 0.1 0
1 0.1 0
0 0.13333333 0
0.033333333 0.13333333 0
0.066666667 0.13333333 0
0.1 0.13333333 0
0.13333333 0.13333333 0
0.16666667 0.13333333 0
0.2 0.13333333 0
0.23333333 0.13333333 0
0.26666667 0.13333333 0
0.3 0.13333333 0
0.33333333 0.13333333 0
0.36666667 0.13333333 0
0.4 0.13333333 0
0.43333333 0.13333333 0
0.46666667 0.13333333 0
0.5 0.13333333 0
0.53333333 0.13333333 0
0.56666667 0.13333333 0
0.6 0.13333333 0
0.63333333 0.13333333 0
0.66666667 0.13333333 0
0.7 0.13333333 0
0.73333333 0.13333333 0
0.76666667 0.13333333 0
0.8 0.13333333 0
0.83333333 0.13333333 0
0.86666667 0.13333333 0
0.9 0.13333333 0
0.93333333 0.13333333 0
0.96666667 0.13333333 0
1 0.13333333 0
0 0.16666667 0
0.033333333 0.16666667 0
0.066666667 0.16666667 0
0.1 0.16666667 0
0.13333333 0.16666667 0
0.16666667 0.16666667 0
0.2 0.16666667 0
0.23333333 0.16666667 0
0.26666667 0.16666667 0
0.3 0.16666667 0
0.33333333 0.16666667 0
0.36666667 0.16666667 0
0.4 0.16666667 0
0.43333333 0.16666667 0
0.46666667 0.16666667 0
0.5 0.16666667 0
0.53333333 0.16666667 0
0.56666667 0.16666667 0
0.6 0.16666667 0
0.63333333 0.16666667 0
0.66666667 0.16666667 0
0.7 0.16666667 0
0.73333333 0.16666667 0
0.76666667 0.16666667 0
0.8 0.16666667 0
0.83333333 0.16666667 0
0.86666667 0.16666667 0
0.9 0.16666667 0
0.93333333 0.16666667 0
0.96666667 0.16666667 0
1 0.16666667 0
0 0.2 0
0.033333333 0.2 0
0.066666667 0.2 0
0.1 0.2 0
0.13333333 0.2 0
0.16666667 0.2 0
0.2 0.2 0
0.23333333 0.2 0
0.26666667 0.2 0
0.3 0.2 0
0.33333333 0.2 0
0.36666667 0.2 0
0.4 0.2 0
0.43333333 0.2 0
0.46666667 0.2 0
0.5 0.2 0
0.53333333 0.2 0
0.56666667 0.2 0
0.6 0.2 0
0.63333333 0.2 0
0.66666667 0.2 0
0.7 0.2 0
0.73333333 0.2 0
0.76666667 0.2 0
0.8 0.2 0
0.83333333 0.2 0
0.86666667 0.2 0
0.9 0.2 0
0.93333333 0.2 0
0.96666667 0.2 0
1 0.2 0
0 0.23333333 0
0.033333333 0.23333333 0
0.066666667 0.23333333 0
0.1 0.23333333 0
0.13333333 0.23333333 0
0.16666667 0.23333333 0
0.2 0.23333333 0
0.23333333 0.23333333 0
0.26666667 0.23333333 0
0.3 0.23333333 0
0.33333333 0.23333333 0
0.36666667 0.23333333 0
0.4 0.23333333 0
0.43333333 0.23333333 0
0.46666667 0.23333333 0
0.5 0.23333333 0
0.53333333 0.23333333 0
0.56666667 0.23333333 0
0.6 0.23333333 0
0.63333333 0.23333333 0
0.66666667 0.23333333 0
0.7 0.23333333 0
0.73333333 0.23333333 0
0.76666667 0.23333333 0
0.8 0.23333333 0
0.83333333 0.23333333 0
0.86666667 0.23333333 0
0.9 0.23333333 0
0.93333333 0.23333333 0
0.96666667 0.23333333 0
1 0.23333333 0
0 0.26666667 0
0.033333333 0.26666667 0
0.066666667 0.26666667 0
0.1 0.26666667 0
0.13333333 0.26666667 0
0.16666667 0.26666667 0
0.2 0.26666667 0
0.23333333 0.26666667 0
0.26666667 0.26666667 0
0.3 0.26666667 0
0.33333333 0.26666667 0
0.36666667 0.26666667 0
0.4 0.26666667 0
0.43333333 0.26666667 0
0.46666667 0.26666667 0
0.5 0.26666667 0
0.53333333 0.26666667 0
0.56666667 0.26666667 0
0.6 0.26666667 0
0.63333333 0.26666667 0
0.66666667 0.26666667 0
0.7 0.26666667 0
0.73333333 0.26666667 0
0.76666667 0.26666667 0
0.8 0.26666667 0
0.83333333 0.26666667 0
0.86666667 0.26666667 0
0.9 0.26666667 0
0.93333333 0.26666667 0
0.96666667 0.26666667 0
1 0.26666667 0
0 0.3 0
0.033333333 0.3 0
0.066666667 0.3 0
0.1 0.3 0
0.13333333 0.3 0
0.16666667 0.3 0
0.2 0.3 0
0.23333333 0.3 0
0.26666667 0.3 0
0.3 0.3 0
0.33333333 0.3 0
0.36666667 0.3 0
0.4 0.3 0
0.43333333 0.3 0
0.46666667 0.3 0
0.5 0.3 0
0.53333333 0.3 0
0.56666667 0.3 0
0.6 0.3 0
0.63333333 0.3 0
0.66666667 0.3 0
0.7 0.3 0
0.73333333 0.3 0
0.76666667 0.3 0
0.8 0.3 0
0.83333333 0.3 0
0.86666667 0.3 0
0.9 0.3 0
0.93333333 0.3 0
0.96666667 0.3 0
1 0.3 0
0 0.33333333 0
0.033333333 0.33333333 0
0.066666667 0.33333333 0
0.1 0.33333333 0
0.13333333 0.33333333 0
0.16666667 0.33333333 0
0.2 0.33333333 0
0.23333333 0.33333333 0
0.26666667 0.33333333 0
0.3 0.33333333 0
0.33333333 0.33333333 0
0.36666667 0.33333333 0
0.4 0.33333333 0
0.43333333 0.33333333 0
0.46666667 0.33333333 0
0.5 0.33333333 0
0.53333333 0.33333333 0
0.56666667 0.33333333 0
0.6 0.33333333 0
0.63333333 0.33333333 0
0.66666667 0.33333333 0
0.7 0.33333333 0
0.73333333 0.33333333 0
0.76666667 0.33333333 0
0.8 0.33333333 0
0.83333333 0.33333333 0
0.86666667 0.33333333 0
0.9 0.33333333 0
0.93333333 0.33333333 0
0.96666667 0.33333333 0
1 0.33333333 0
0 0.36666667 0
0.033333333 0.36666667 0
0.066666667 0.36666667 0
0.1 0.36666667 0
0.13333333 0.36666667 0
0.16666667 0.36666667 0
0.2 0.36666667 0
0.23333333 0.36666667 0
0.26666667 0.36666667 0
0.3 0.36666667 0
0.33333333 0.36666667 0
0.36666667 0.36666667 0
0.4 0.36666667 0
0.43333333 0.36666667 0
0.46666667 0.36666667 0
0.5 0.36666667 0
0.53333333 0.36666667 0
0.56666667 0.36666667 0
0.6 0.36666667 0
0.63333333 0.36666667 0
0.66666667 0.36666667 0
0.7 0.36666667 0
0.73333333 0.36666667 0
0.76666667 0.36666667 0
0.8 0.36666667 0
0.83333333 0.36666667 0
0.86666667 0.36666667 0
0.9 0.36666667 0
0.93333333 0.36666667 0
0.96666667 0.36666667 0
1 0.36666667 0
0 0.4 0
0.033333333 0.4 0
0.066666667 0.4 0
0.1 0.4 0
0.13333333 0.4 0
0.16666667 0.4 0
0.2 0.4 0
0.23333333 0.4 0
0.26666667 0.4 0
0.3 0.4 0
0.33333333 0.4 0
0.36666667 0.4 0
0.4 0.4 0
0.43333333 0.4 0
0.46666667 0.4 0
0.5 0.4 0
0.53333333 0.4 0
0.56666667 0.4 0
0.6 0.4 0
0.63333333 0.4 0
0.66666667 0.4 0
0.7 0.4 0
0.73333333 0.4 0
0.76666667 0.4 0
0.8 0.4 0
0.83333333 0.4 0
0.86666667 0.4 0
0.9 0.4 0
0.93333333 0.4 0
0.96666667 0.4 0
1 0.4 0
0 0.43333333 0
0.033333333 0.43333333 0
0.066666667 0.43333333 0
0.1 0.43333333 0
0.13333333 0.43333333 0
0.16666667 0.43333333 0
0.2 0.43333333 0
0.23333333 0.43333333 0
0.26666667 0.43333333 0
0.3 0.43333333 0
0.33333333 0.43333333 0
0.36666667 0.43333333 0
0.4 0.43333333 0
0.43333333 0.43333333 0
0.46666667 0.43333333 0
0.5 0.43333333 0
0.53333333 0.43333333 0
0.56666667 0.43333333 0
0.6 0.43333333 0
0.63333333 0.43333333 0
0.66666667 0.43333333 0
0.7 0.43333333 0
0.73333333 0.43333333 0
0.76666667 0.43333333 0
0.8 0.43333333 0
0.83333333 0.43333333 0
0.86666667 0.43333333 0
0.9 0.43333333 0
0.93333333 0.43333333 0
0.96666667 0.43333333 0
1 0.43333333 0
0 0.46666667 0
0.033333333 0.46666667 0
0.066666667 0.46666667 0
0.1 0.46666667 0
0.13333333 0.46666667 0
0.16666667 0.46666667 0
0.2 0.46666667 0
0.23333333 0.46666667 0
0.26666667 0.46666667 0
0.3 0.46666667 0
0.33333333 0.46666667 0
0.36666667 0.46666667 0
0.4 0.46666667 0
0.43333333 0.46666667 0
0.46666667 0.46666667 0
0.5 0.46666667 0
0.53333333 0.46666667 0
0.56666667 0.46666667 0
0.6 0.46666667 0
0.63333333 0.46666667 0
0.66666667 0.46666667 0
0.7 0.46666667 0
0.73333333 0.46666667 0
0.76666667 0.46666667 0
0.8 0.46666667 0
0.83333333 0.46666667 0
0.86666667 0.46666667 0
0.9 0.46666667 0
0.93333333 0.46666667 0
0.96666667 0.46666667 0
1 0.46666667 0
0 0.5 0
0.033333333 0.5 0
0.066666667 0.5 0
0.1 0.5 0
0.13333333 0.5 0
0.16666667 0.5 0
0.2 0.5 0
0.23333333 0.5 0
0.26666667 0.5 0
0.3 0.5 0
0.33333333 0.5 0
0.36666667 0.5 0
0.4 0.5 0
0.43333333 0.5 0
0.46666667 0.5 0
0.5 0.5 0
0.53333333 0.5 0
0.56666667 0.5 0
0.6 0.5 0
0.63333333 0.5 0
0.66666667 0.5 0
0.7 0.5 0
0.73333333 0.5 0
0.76666667 0.5 0
0.8 0.5 0
0.83333333 0.5 0
0.86666667 0.5 0
0.9 0.5 0
0.93333333 0.5 0
0.96666667 0.5 0
1 0.5 0
0 0.53333333 0
0.033333333 0.53333333 0
0.066666667 0.53333333 0
0.1 0.53333333 0
0.13333333 0.53333333 0
0.16666667 0.53333333 0
0.2 0.53333333 0
0.23333333 0.53333333 0
0.26666667 0.53333333 0
0.3 0.53333333 0
0.33333333 0.53333333 0
0.36666667 0.53333333 0
0.4 0.53333333 0
0.43333333 0.53333333 0
0.46666667 0.53333333 0
0.5 0.53333333 0
0.53333333 0.53333333 0
0.56666667 0.53333333 0
0.6 0.53333333 0
0.63333333 0.53333333 0
0.66666667 0.53333333 0
0.7 0.53333333 0
0.73333333 0.53333333 0
0.76666667 0.53333333 0
[...]
CELL_DATA 1920
Scalars  Label int 1
LOOKUP_TABLE FreeFempp_table
0
0
0
0
0
0
0
0
0
0
0
0
0
0
0
0
0
0
0
0
0
0
0
0
0
0
0
0
0
0
0
0
0
0
0
0
0
0
0
0
0
0
0
0
0
0
0
0
0
0
0
0
0
0
0
0
0
0
0
0
0
0
0
0
0
0
0
0
0
0
0
0
0
0
0
0
0
0
0
0
0
0
0
0
0
0
0
0
0
0
0
0
0
0
0
0
0
0
0
0
0
0
0
0
0
0
0
0
0
0
0
0
0
0
0
0
0
0
0
0
0
0
0
0
0
0
0
0
0
0
0
0
0
0
0
0
0
0
0
0
0
0
0
0
0
0
0
0
0
0
0
0
0
0
0
0
0
0
0
0
0
0
0
0
0
0
0
0
0
0
0
0
0
0
0
0
0
0
0
0
0
0
0
0
0
0
0
0
0
0
0
0
0
0
0
0
0
0
0
0
0
0
0
0
0
0
0
0
0
0
0
0
0
0
0
0
0
0
0
0
0
0
0
0
0
0
0
0
0
0
0
0
0
0
0
0
0
0
0
0
0
0
0
0
0
0
0
0
0
0
0
0
0
0
0
0
0
0
0
0
0
0
0
0
0
0
0
0
0
0
0
0
0
0
0
0
0
0
0
0
0
0
0
0
0
0
0
0
0
0
0
0
0
0
0
0
0
0
0
0
0
0
0
0
0
0
0
0
0
0
0
0
0
0
0
0
0
0
0
0
0
0
0
0
0
0
0
0
0
0
0
0
0
0
0
0
0
0
0
0
0
0
0
0
0
0
0
0
0
0
0
0
0
0
0
0
0
0
0
0
0
0
0
0
0
0
0
0
0
0
0
0
0
0
0
0
0
0
0
0
0
0
0
0
0
0
0
0
0
0
0
0
0
0
0
0
0
0
0
0
0
0
0
0
0
0
0
0
0
0
0
0
0
0
0
0
0
0
0
0
0
0
0
0
0
0
0
0
0
0
0
0
0
0
0
0
0
0
0
0
0
0
0
0
0
0
0
0
0
0
0
0
0
0
0
0
0
0
0
0
0
0
0
0
0
0
0
0
0
0
0
0
0
0
0
0
0
0
0
0
0
0
0
0
0
0
0
0
0
0
0
0
0
0
0
0
0
0
0
0
0
0
0
0
0
0
0
0
0
0
0
0
0
0
0
0
0
0
0
0
0
0
0
0
0
0
0
0
0
0
0
0
0
0
0
0
0
0
0
0
0
0
0
0
0
0
0
0
0
0
0
0
0
0
0
0
0
0
0
0
0
0
0
0
0
0
0
0
0
0
0
0
0
0
0
0
0
0
0
0
0
0
0
0
0
0
0
0
0
0
0
0
0
0
0
0
0
0
0
0
0
0
0
0
0
0
0
0
0
0
0
0
0
0
0
0
0
0
0
0
0
0
0
0
0
0
0
0
0
0
0
0
0
0
0
0
0
0
0
0
0
0
0
0
0
0
0
0
0
0
0
0
0
0
0
0
0
0
0
0
0
0
0
0
0
0
0
0
0
0
0
0
0
0
0
0
0
0
0
0
0
0
0
0
0
0
0
0
0
0
0
0
0
0
0
0
0
0
0
0
0
0
0
0
0
0
0
0
0
0
0
0
0
0
0
0
0
0
0
0
0
0
0
0
0
0
0
0
0
0
0
0
0
0
0
0
0
0
0
0
0
0
0
0
0
0
0
0
0
0
0
0
0
0
0
0
0
0
0
0
0
0
0
0
0
0
0
0
0
0
0
0
0
0
0
0
0
0
0
0
0
0
0
0
0
0
0
0
0
0
0
0
0
0
0
0
0
0
0
0
0
0
0
0
0
0
0
0
0
0
0
0
0
0
0
0
0
0
0
0
0
0
0
0
0
0
0
0
0
0
0
0
0
0
0
0
0
0
0
0
0
0
0
0
0
0
0
0
0
0
0
0
0
0
0
0
0
0
0
0
0
0
0
0
0
0
0
0
0
0
0
0
0
0
0
0
0
0
0
0
0
0
0
0
0
0
0
0
0
0
0
0
0
0
0
0
0
0
0
0
0
0
0
0
0
0
0
0
0
0
0
0
0
0
0
0
0
0
0
0
0
0
0
0
0
0
0
0
0
0
0
0
0
0
0
0
0
0
0
0
0
0
0
0
0
0
0
0
0
0
0
0
0
0
0
0
0
0
0
0
0
0
0
0
0
0
0
0
0
0
0
0
0
0
0
0
0
0
0
0
0
0
0
0
0
0
0
0
0
0
0
0
0
0
0
0
0
0
0
0
0
0
0
0
0
0
0
0
0
0
0
0
0
0
0
0
0
0
0
0
0
0
0
0
0
0
0
0
0
0
0
0
0
0
0
0
0
0
0
0
0
0
0
0
0
0
0
0
0
0
0
0
0
0
0
0
0
0
0
0
0
0
0
0
0
0
0
0
0
0
0
0
0
0
0
0
0
0
0
0
0
0
0
0
0
0
0
0
0
0
0
0
0
0
0
0
0
0
0
0
0
0
0
0
0
0
0
0
0
0
0
0
0
0
0
0
0
0
0
0
0
0
0
0
0
0
0
0
0
0
0
0
0
0
0
0
0
0
0
0
0
0
0
0
0
0
0
0
0
0
0
0
0
0
0
0
0
0
0
0
0
0
0
0
0
0
0
0
0
0
0
0
0
0
0
0
0
0
0
0
0
0
0
0
0
0
0
0
0
0
0
0
0
0
0
0
0
0
0
0
0
0
0
0
0
0
0
0
0
0
0
0
0
0
0
0
0
0
0
0
0
0
0
0
0
0
0
0
0
0
0
0
0
0
0
0
0
0
0
0
0
0
0
0
0
0
0
0
0
0
0
0
0
0
0
0
0
0
0
0
0
0
0
0
0
0
0
0
0
0
0
0
0
0
0
0
0
0
0
0
0
0
0
0
0
0
0
0
0
0
0
0
0
0
0
0
0
0
0
0
0
0
0
0
0
0
0
0
0
0
0
0
0
0
0
0
0
0
0
0
0
0
0
0
0
0
0
0
0
0
0
0
0
0
0
0
0
0
0
0
0
0
0
0
0
0
0
0
0
0
0
0
0
0
0
0
0
0
0
0
0
0
0
0
0
0
0
0
0
0
0
0
0
0
0
0
0
0
0
0
0
0
0
0
0
0
0
0
0
0
0
0
0
0
0
0
0
0
0
0
0
0
0
0
0
0
0
0
0
0
0
0
0
0
0
0
0
0
0
0
0
0
0
0
0
0
0
0
0
0
0
0
0
0
0
0
0
0
0
0
0
0
0
0
0
0
0
0
0
0
0
0
0
0
0
0
0
0
0
0
0
0
0
0
0
0
0
0
0
0
0
0
0
0
0
0
0
0
0
0
0
0
0
0
0
0
0
0
0
0
0
0
0
0
0
0
0
0
0
0
0
0
0
0
0
0
0
0
0
0
0
0
0
0
0
0
0
0
0
0
0
0
0
0
0
0
0
0
0
0
0
0
0
0
0
0
0
0
0
0
0
0
0
0
0
0
0
0
0
0
0
0
0
0
0
0
0
0
0
0
0
0
0
0
0
0
0
0
0
0
0
0
0
0
0
0
0
0
0
0
0
0
0
0
0
0
0
0
0
0
0
0
0
0
0
0
0
0
0
0
0
0
0
0
0
0
0
0
0
0
0
0
0
0
0
0
0
0
0
0
0
0
0
0
0
0
0
0
0
0
0
0
0
0
0
0
0
0
0
0
0
0
0
0
0
0
0
0
0
0
0
0
0
0
0
0
0
0
0
0
0
0
0
0
0
0
0
0
0
0
0
0
0
0
0
0
0
0
0
0
0
0
0
0
0
0
0
0
0
0
0
0
0
0
0
0
0
0
0
0
0
0
0
0
0
0
0
0
0
0
0
0
0
0
0
0
0
0
0
0
0
0
0
0
0
0
0
0
0
0
0
0
0
0
0
0
0
0
0
0
0
0
0
0
0
0
0
0
0
0
0
0
0
0
0
0
0
0
0
0
0
0
0
0
0
0
0
0
0
0
0
0
0
0
0
0
0
0
0
0
0
0
0
0
0
0
0
0
0
0
0
0
0
0
0
0
0
0
0
0
1
1
1
1
1
1
1
1
1
1
1
1
1
1
1
1
1
1
1
1
1
1
1
1
1
1
1
1
1
1
2
2
2
2
2
2
2
2
2
2
2
2
2
2
2
2
2
2
2
2
2
2
2
2
2
2
2
2
2
2
3
3
3
3
3
3
3
3
3
3
3
3
3
3
3
3
3
3
3
3
3
3
3
3
3
3
3
3
3
3
4
4
4
4
4
4
4
4
4
4
4
4
4
4
4
4
4
4
4
4
4
4
4
4
4
4
4
4
4
4

LOOKUP_TABLE FreeFempp_table 5
1.00000000 0.00000000 0.00000000 1.00000000
1.00000000 1.00000000 0.00000000 1.00000000
1.00000000 0.00000000 1.00000000 1.00000000
0.00000000 1.00000000 0.00000000 1.00000000
0.00000000 1.00000000 1.00000000 1.00000000

POINT_DATA 961
FIELD FieldData 1
Density 1 961 float
3.60938907e-01 3.73635948e-01 3.89581382e-01 3.94450217e-01 3.95314097e-01 3.95360976e-01 3.92127514e-01 3.63983959e-01 2.43212879e-01 5.12328669e-02 6.40086234e-02 2.69059956e-01 4.03592348e-01 4.87898171e-01 5.72441280e-01 5.88087380e-01 5.12630522e-01 4.77972686e-01 5.20560265e-01 5.76202989e-01 5.91030896e-01 5.91908455e-01 5.92709780e-01 5.85378826e-01 5.71016669e-01 5.55002511e-01 5.45444965e-01 5.39588153e-01 5.35540462e-01 5.29868603e-01 5.24168551e-01 2.31953800e-01 2.62380034e-01 2.84916967e-01 2.91261584e-01 2.92143375e-01 2.91987747e-01 2.89243430e-01 2.70977587e-01 1.95808858e-01 4.72647361e-02 3.69155072e-02 2.00842127e-01 3.53371352e-01 4.46716636e-01 5.49794197e-01 5.78518152e-01 4.47783917e-01 3.50360870e-01 3.70317817e-01 4.37561363e-01 4.71897811e-01 5.07205188e-01 5.47984302e-01 5.59691906e-01 5.54234862e-01 5.44416487e-01 5.41614056e-01 5.37651241e-01 5.33742487e-01 5.29406071e-01 5.24051249e-01 3.49991471e-02 4.42580059e-02 5.00265509e-02 5.14677875e-02 5.15223667e-02 5.14902547e-02 5.11681065e-02 4.87491414e-02 3.80126610e-02 1.20002721e-02 7.27856159e-03 5.55940419e-02 1.89571321e-01 2.87704289e-01 4.25899893e-01 5.58886707e-01 4.07285541e-01 1.93918496e-01 1.05526172e-01 9.60277617e-02 1.09674551e-01 1.73900694e-01 2.99805403e-01 3.60043526e-01 3.79293472e-01 4.14504439e-01 4.77783054e-01 5.01921058e-01 5.06048143e-01 5.06974161e-01 5.07265091e-01 5.98853715e-02 5.08320704e-02 4.81817238e-02 4.78913747e-02 4.85778786e-02 4.93798107e-02 4.99536656e-02 5.01303412e-02 4.96511459e-02 4.82871234e-02 4.57096547e-02 3.05062868e-02 2.93817781e-02 5.23402467e-02 1.20300286e-01 3.85772347e-01 4.83129561e-01 3.34957421e-01 1.68680027e-01 8.09474289e-02 4.04290520e-02 2.35858075e-02 4.75092158e-02 6.54585660e-02 7.25119710e-02 1.06012240e-01 2.94294953e-01 4.20185000e-01 4.58001852e-01 4.70558584e-01 4.77197260e-01 3.02553922e-01 2.81585217e-01 2.69931257e-01 2.69594282e-01 2.74004072e-01 2.78716415e-01 2.82203645e-01 2.84082025e-01 2.83772916e-01 2.79039383e-01 2.59410739e-01 1.96135119e-01 8.04661065e-02 5.27300127e-02 3.72672603e-02 7.87115172e-02 2.27591574e-01 4.65903103e-01 4.76350904e-01 3.47845316e-01 2.44680732e-01 1.26357734e-01 1.04702577e-01 1.01900160e-01 7.82537907e-02 3.67934853e-02 7.61944130e-02 2.75249690e-01 3.95202547e-01 4.35990870e-01 4.49816316e-01 4.06198442e-01 3.94951880e-01 3.82117152e-01 3.81150812e-01 3.86593491e-01 3.93015623e-01 3.98161858e-01 4.01702702e-01 4.03708577e-01 4.03631479e-01 3.97710204e-01 3.74711305e-01 3.23910415e-01 2.84111381e-01 2.15985820e-01 7.08012730e-02 3.36016826e-02 1.28064141e-01 3.73994648e-01 4.89646077e-01 5.11643112e-01 4.84947562e-01 4.87073362e-01 5.11771739e-01 4.59927142e-01 2.59171575e-01 8.57952461e-02 8.03707093e-02 2.71599203e-01 3.90539229e-01 4.22633469e-01 4.38202500e-01 4.28657830e-01 4.18792367e-01 4.17980105e-01 4.22012478e-01 4.27217811e-01 4.31831181e-01 4.35563356e-01 4.38695192e-01 4.41352785e-01 4.42819864e-01 4.40678835e-01 4.32610303e-01 4.23051029e-01 3.93524557e-01 2.89702743e-01 9.91847217e-02 4.51093279e-02 6.02001771e-02 1.36015490e-01 3.32962126e-01 3.69672239e-01 3.97984415e-01 5.11614680e-01 5.97160935e-01 5.54792047e-01 3.73563051e-01 1.04669102e-01 7.98764899e-02 2.70225942e-01 3.58049035e-01 4.58328128e-01 4.51285422e-01 4.45008188e-01 4.44702685e-01 4.47151184e-01 4.50486034e-01 4.53828543e-01 4.56958681e-01 4.59987611e-01 4.62933928e-01 4.65472728e-01 4.66927290e-01 4.66960669e-01 4.66498047e-01 4.61849660e-01 4.39689338e-01 3.68155301e-01 2.57610112e-01 9.49098319e-02 3.99887972e-02 5.13938665e-02 7.29087815e-02 8.88080820e-02 1.93589926e-01 3.40578586e-01 4.81690496e-01 5.51481724e-01 3.71593982e-01 8.32288638e-02 7.14084953e-02 1.91865861e-01 4.76516575e-01 4.72170293e-01 4.68727231e-01 4.68764067e-01 4.70118225e-01 4.72000510e-01 4.74138796e-01 4.76404905e-01 4.78745669e-01 4.81033444e-01 4.83012915e-01 4.84435648e-01 4.85436350e-01 4.86779183e-01 4.88588244e-01 4.89304274e-01 4.82518256e-01 4.53015357e-01 3.67673695e-01 2.44518265e-01 9.78374034e-02 4.70971316e-02 2.09199395e-02 3.18100192e-02 7.79284537e-02 1.92565367e-01 4.21627253e-01 5.48367202e-01 2.54751056e-01 3.68301533e-02 2.87142452e-02 4.91285264e-01 4.88986045e-01 4.87443507e-01 4.87539619e-01 4.88158643e-01 4.89092231e-01 4.90307510e-01 4.91707981e-01 4.93159831e-01 4.94495898e-01 4.95560288e-01 4.96331453e-01 4.97091115e-01 4.98467654e-01 5.01100481e-01 5.05490720e-01 5.11603951e-01 5.16187966e-01 5.09140432e-01 4.78019089e-01 3.95738661e-01 2.80896634e-01 1.37486592e-01 6.28013387e-02 4.51177433e-02 6.69344440e-02 2.30358645e-01 5.52396059e-01 4.60833192e-01 8.03554431e-02 1.20157050e-02 4.98500556e-01 4.97307479e-01 4.97062355e-01 4.97380286e-01 4.97837037e-01 4.98495668e-01 4.99328613e-01 5.00200450e-01 5.00944078e-01 5.01417696e-01 5.01567066e-01 5.01496434e-01 5.01515687e-01 5.02109706e-01 5.03825247e-01 5.07269442e-01 5.13127863e-01 5.21618783e-01 5.31397641e-01 5.38789272e-01 5.32324970e-01 4.97032642e-01 4.05956775e-01 2.85665333e-01 2.08682895e-01 1.61162212e-01 2.31435046e-01 5.06133139e-01 5.47981501e-01 1.09666683e-01 9.94894747e-03 4.94274914e-01 4.92910117e-01 4.93576497e-01 4.94874358e-01 4.96271402e-01 4.97766644e-01 4.99176770e-01 5.00275373e-01 5.00884712e-01 5.00924110e-01 5.00441909e-01 4.99628931e-01 4.98802513e-01 4.98359591e-01 4.98730451e-01 5.00380635e-01 5.03776312e-01 5.09175062e-01 5.16404092e-01 5.24827600e-01 5.32696128e-01 5.36639929e-01 5.25610089e-01 4.90011036e-01 4.50960308e-01 4.13923651e-01 4.38378036e-01 5.97580135e-01 5.81791759e-01 1.18730932e-01 6.85006240e-03 4.77086246e-01 4.73920375e-01 4.75107670e-01 4.78606045e-01 4.82580274e-01 4.86503601e-01 4.89861399e-01 4.92279738e-01 4.93595600e-01 4.93841648e-01 4.93207872e-01 4.91995543e-01 4.90569234e-01 4.89314646e-01 4.88617539e-01 4.88852441e-01 4.90308553e-01 4.93021220e-01 4.96662199e-01 5.00681281e-01 5.04626334e-01 5.08308172e-01 5.10138154e-01 5.07151663e-01 5.03753066e-01 5.08737862e-01 5.60486197e-01 6.69305980e-01 5.83017170e-01 1.17270790e-01 5.92375966e-03 4.47601408e-01 4.40901697e-01 4.42189395e-01 4.49521154e-01 4.58257258e-01 4.66644943e-01 4.73601013e-01 4.78563458e-01 4.81461436e-01 4.82550025e-01 4.82249022e-01 4.81034607e-01 4.79379117e-01 4.77725953e-01 4.76485491e-01 4.76019859e-01 4.76566583e-01 4.78105277e-01 4.80270535e-01 4.82412368e-01 4.83777672e-01 4.83654290e-01 4.81399655e-01 4.77983922e-01 4.81476575e-01 5.10640442e-01 5.90379775e-01 6.79136693e-01 5.50746620e-01 1.09706394e-01 6.34311419e-03 4.06825483e-01 3.95122737e-01 3.96286398e-01 4.09700245e-01 4.26177531e-01 4.41593379e-01 4.53956068e-01 4.62590426e-01 4.67743307e-01 4.70099717e-01 4.70441848e-01 4.69494015e-01 4.67884302e-01 4.66155916e-01 4.64787275e-01 4.64185029e-01 4.64622855e-01 4.66142476e-01 4.68481570e-01 4.71068501e-01 4.73056167e-01 4.73430276e-01 4.71678585e-01 4.70383316e-01 4.80586052e-01 5.23800075e-01 6.10327125e-01 6.64841235e-01 4.97959465e-01 9.91952047e-02 7.57595524e-03 3.55454832e-01 3.38009834e-01 3.39326739e-01 3.61738771e-01 3.89785647e-01 4.15219963e-01 4.34698194e-01 4.47762758e-01 4.55440998e-01 4.59161609e-01 4.60215002e-01 4.59621429e-01 4.58175212e-01 4.56524551e-01 4.55229014e-01 4.54770893e-01 4.55511689e-01 4.57614690e-01 4.60973024e-01 4.65165347e-01 4.69459087e-01 4.73048389e-01 4.76110667e-01 4.82529789e-01 5.03754795e-01 5.55905998e-01 6.29261613e-01 6.28914297e-01 4.21270996e-01 8.48551691e-02 9.08452459e-03 2.95497358e-01 2.73091376e-01 2.75698632e-01 3.10094893e-01 3.53574246e-01 3.91596287e-01 4.19111222e-01 4.36586350e-01 4.46492493e-01 4.51323926e-01 4.52961653e-01 4.52703148e-01 4.51467037e-01 4.49970365e-01 4.48834032e-01 4.48616505e-01 4.49785680e-01 4.52648669e-01 4.57269579e-01 4.63406920e-01 4.70565170e-01 4.78433341e-01 4.88127589e-01 5.04318655e-01 5.36351621e-01 5.89528382e-01 6.31742060e-01 5.65048575e-01 3.25132340e-01 6.72080070e-02 1.14127612e-02 2.32208461e-01 2.07968399e-01 2.14197174e-01 2.62580216e-01 3.23669672e-01 3.74832869e-01 4.09545511e-01 4.30254489e-01 4.41480607e-01 4.46905851e-01 4.48921442e-01 4.48990285e-01 4.48063165e-01 4.46856797e-01 4.46002394e-01 4.46100354e-01 4.47705179e-01 4.51261997e-01 4.57023472e-01 4.65000331e-01 4.75089908e-01 4.87628549e-01 5.04429877e-01 5.29647708e-01 5.67725003e-01 6.10417008e-01 6.08198702e-01 4.79794294e-01 2.35630676e-01 5.22526130e-02 1.57898702e-02 1.73003525e-01 1.51944235e-01 1.65229768e-01 2.28531420e-01 3.06392431e-01 3.67993861e-01 4.06842858e-01 4.28524256e-01 4.39777821e-01 4.45211083e-01 4.47447300e-01 4.47928458e-01 4.47523326e-01 4.46870208e-01 4.46545780e-01 4.47131127e-01 4.49210733e-01 4.53330129e-01 4.59949017e-01 4.69454676e-01 4.82352078e-01 4.99683768e-01 5.23298383e-01 5.54937661e-01 5.91498256e-01 6.11230791e-01 5.58439910e-01 3.85957837e-01 1.67993337e-01 4.59198244e-02 2.36199256e-02 1.23211518e-01 1.10034838e-01 1.34090200e-01 2.13714331e-01 3.04985523e-01 3.71515006e-01 4.09968108e-01 4.29979026e-01 4.40031141e-01 4.45038050e-01 4.47466701e-01 4.48542416e-01 4.48955297e-01 4.49206531e-01 4.49765652e-01 4.51132089e-01 4.53847140e-01 4.58495021e-01 4.65746552e-01 4.76496875e-01 4.92070496e-01 5.14141560e-01 5.43572426e-01 5.77521443e-01 6.03554785e-01 5.89764655e-01 4.88711268e-01 2.96983451e-01 1.23116635e-01 5.03979959e-02 3.87501530e-02 8.38511437e-02 8.15375000e-02 1.19875818e-01 2.17961803e-01 3.17880243e-01 3.82825583e-01 4.16482598e-01 4.32720244e-01 4.40789461e-01 4.45195138e-01 4.47908044e-01 4.49796587e-01 4.51315463e-01 4.52802986e-01 4.54599947e-01 4.57091212e-01 4.60729510e-01 4.66102958e-01 4.74115878e-01 4.86272365e-01 5.04755616e-01 5.31399727e-01 5.64533710e-01 5.94417274e-01 5.99075317e-01 5.44029593e-01 4.05597061e-01 2.22825229e-01 9.86349955e-02 6.36638328e-02 6.57460466e-02 5.66962846e-02 6.41967505e-02 1.20179988e-01 2.37261415e-01 3.40101123e-01 3.97775054e-01 4.23699528e-01 4.35111016e-01 4.40950036e-01 4.44795638e-01 4.47934389e-01 4.50812072e-01 4.53628272e-01 4.56561089e-01 4.59836692e-01 4.63747025e-01 4.68692005e-01 4.75330293e-01 4.84892428e-01 4.99491364e-01 5.21713674e-01 5.52121699e-01 5.84120870e-01 5.99368513e-01 5.69439471e-01 4.70329165e-01 3.13608885e-01 1.66766390e-01 9.18476731e-02 8.61703306e-02 1.04471222e-01 4.19978760e-02 5.59035987e-02 1.32419541e-01 2.65892297e-01 3.65920395e-01 4.12554681e-01 4.29588526e-01 4.36078280e-01 4.39834416e-01 4.43283021e-01 4.46978480e-01 4.50936258e-01 4.55109924e-01 4.59540337e-01 4.64382708e-01 4.69914913e-01 4.76610392e-01 4.85351771e-01 4.97754753e-01 5.16200542e-01 5.42482674e-01 5.73662043e-01 5.95955372e-01 5.83444715e-01 5.10334849e-01 3.76772285e-01 2.30135620e-01 1.34453014e-01 1.04229808e-01 1.24482267e-01 1.56253755e-01 3.32684740e-02 5.27655296e-02 1.52780786e-01 2.98206896e-01 3.90738696e-01 4.24572945e-01 4.32858676e-01 4.34949994e-01 4.37029451e-01 4.40320581e-01 4.44676578e-01 4.49725330e-01 4.55215067e-01 4.61086780e-01 4.67473865e-01 4.74724084e-01 4.83501345e-01 4.94979471e-01 5.10959208e-01 5.33313692e-01 5.61647296e-01 5.88459790e-01 5.94482243e-01 5.52290678e-01 4.47087705e-01 3.06460440e-01 1.94030434e-01 1.44044071e-01 1.47225842e-01 1.88460186e-01 2.27665991e-01 2.64180247e-02 5.16199805e-02 1.77091941e-01 3.30020070e-01 4.11470294e-01 4.32132512e-01 4.32597667e-01 4.31238264e-01 4.32262659e-01 4.35697764e-01 4.40787971e-01 4.46880549e-01 4.53599572e-01 4.60827827e-01 4.68690038e-01 4.77601796e-01 4.88380641e-01 5.02332270e-01 5.21035492e-01 5.45241177e-01 5.72204232e-01 5.91830432e-01 5.85434437e-01 5.33544242e-01 4.33839291e-01 3.18241775e-01 2.39450559e-01 2.18651265e-01 2.39328563e-01 2.85198897e-01 3.20618957e-01 2.11264193e-02 5.21443859e-02 2.03258261e-01 3.58843744e-01 4.26008761e-01 4.33942854e-01 4.28163320e-01 4.24693584e-01 4.25441802e-01 4.29313779e-01 4.35136259e-01 4.42160130e-01 4.50004607e-01 4.58532989e-01 4.67818886e-01 4.78220761e-01 4.90492761e-01 5.05767167e-01 5.25116980e-01 5.48324108e-01 5.71750820e-01 5.86355388e-01 5.78956604e-01 5.40034890e-01 4.74526137e-01 4.05788869e-01 3.63159239e-01 3.55043381e-01 3.69577408e-01 3.96745235e-01 4.17127550e-01 1.73344705e-02 5.44796735e-02 2.30879188e-01 3.83137554e-01 4.32999760e-01 4.29487973e-01 4.19694394e-01 4.15674239e-01 4.16838050e-01 4.21233386e-01 4.27587599e-01 4.35294032e-01 4.44104165e-01 4.53903735e-01 4.64657277e-01 4.76492286e-01 4.89820927e-01 5.05315006e-01 5.23493767e-01 5.43763280e-01 5.63145339e-01 5.75727999e-01 5.74524462e-01 5.56304574e-01 5.25804460e-01 4.94313031e-01 4.72955674e-01 4.64251906e-01 4.64868635e-01 4.73212481e-01 4.80986655e-01 1.45458262e-02 5.79613410e-02 2.58600950e-01 4.01225984e-01 4.32362437e-01 4.20124561e-01 4.08912569e-01 4.05532092e-01 4.07218874e-01 4.11711633e-01 4.18032110e-01 4.25933838e-01 4.35412198e-01 4.46432084e-01 4.58851755e-01 4.72486943e-01 4.87232506e-01 5.03108382e-01 5.20060182e-01 5.37436008e-01 5.53368211e-01 5.64718664e-01 5.68293393e-01 5.62954247e-01 5.50549507e-01 5.34627974e-01 5.18965364e-01 5.06168544e-01 4.98648733e-01 4.98867333e-01 5.01712143e-01 1.18405214e-02 6.18418194e-02 2.84796119e-01 4.13550079e-01 4.28146631e-01 4.11303490e-01 4.00582343e-01 3.97706658e-01 3.98909330e-01 4.02358592e-01 4.07663167e-01 4.15007502e-01 4.24649954e-01 4.36682850e-01 4.50949430e-01 4.67055768e-01 4.84438151e-01 5.02434134e-01 5.20283520e-01 5.37009716e-01 5.51256716e-01 5.61337769e-01 5.65729439e-01 5.63748121e-01 5.55662870e-01 5.42476118e-01 5.26381493e-01 5.10784984e-01 5.00029027e-01 4.97869670e-01 4.99769479e-01 1.18795037e-02 6.79994598e-02 3.14360648e-01 4.30200517e-01 4.33193654e-01 4.15155500e-01 4.05021340e-01 4.01208431e-01 4.00363117e-01 4.01509166e-01 4.04775292e-01 4.10595834e-01 4.19357270e-01 4.31243062e-01 4.46161211e-01 4.63708043e-01 4.83153284e-01 5.03443956e-01 5.23237765e-01 5.40983319e-01 5.55072308e-01 5.64091265e-01 5.67140043e-01 5.64024091e-01 5.55122077e-01 5.41312635e-01 5.24423182e-01 5.07503033e-01 4.94782954e-01 4.90750521e-01 4.92688805e-01 2.40950081e-02 6.98229894e-02 3.35308790e-01 4.52962279e-01 4.47605342e-01 4.27831888e-01 4.17758942e-01 4.13243055e-01 4.11091805e-01 4.10799742e-01 4.12664384e-01 4.17128354e-01 4.24550682e-01 4.35106725e-01 4.48730171e-01 4.65069026e-01 4.83445823e-01 5.02825975e-01 5.21822035e-01 5.38781404e-01 5.52000940e-01 5.60065389e-01 5.62209487e-01 5.58483005e-01 5.49563169e-01 5.36524594e-01 5.20977736e-01 5.05321383e-01 4.92932886e-01 4.87731785e-01 4.88833606e-01 
