# vtk DataFile Version 2.0
results_case1_non_linear/8_density.vtk, Created by Freefem++ 
ASCII
DATASET UNSTRUCTURED_GRID
POINTS 961 float
0 0 0
0.033333333 0 0
0.066666667 0 0
0.1 0 0
0.13333333 0 0
0.16666667 0 0
0.2 0 0
0.23333333 0 0
0.26666667 0 0
0.3 0 0
0.33333333 0 0
0.36666667 0 0
0.4 0 0
0.43333333 0 0
0.46666667 0 0
0.5 0 0
0.53333333 0 0
0.56666667 0 0
0.6 0 0
0.63333333 0 0
0.66666667 0 0
0.7 0 0
0.73333333 0 0
0.76666667 0 0
0.8 0 0
0.83333333 0 0
0.86666667 0 0
0.9 0 0
0.93333333 0 0
0.96666667 0 0
1 0 0
0 0.033333333 0
0.033333333 0.033333333 0
0.066666667 0.033333333 0
0.1 0.033333333 0
0.13333333 0.033333333 0
0.16666667 0.033333333 0
0.2 0.033333333 0
0.23333333 0.033333333 0
0.26666667 0.033333333 0
0.3 0.033333333 0
0.33333333 0.033333333 0
0.36666667 0.033333333 0
0.4 0.033333333 0
0.43333333 0.033333333 0
0.46666667 0.033333333 0
0.5 0.033333333 0
0.53333333 0.033333333 0
0.56666667 0.033333333 0
0.6 0.033333333 0
0.63333333 0.033333333 0
0.66666667 0.033333333 0
0.7 0.033333333 0
0.73333333 0.033333333 0
0.76666667 0.033333333 0
0.8 0.033333333 0
0.83333333 0.033333333 0
0.86666667 0.033333333 0
0.9 0.033333333 0
0.93333333 0.033333333 0
0.96666667 0.033333333 0
1 0.033333333 0
0 0.066666667 0
0.033333333 0.066666667 0
0.066666667 0.066666667 0
0.1 0.066666667 0
0.13333333 0.066666667 0
0.16666667 0.066666667 0
0.2 0.066666667 0
0.23333333 0.066666667 0
0.26666667 0.066666667 0
0.3 0.066666667 0
0.33333333 0.066666667 0
0.36666667 0.066666667 0
0.4 0.066666667 0
0.43333333 0.066666667 0
0.46666667 0.066666667 0
0.5 0.066666667 0
0.53333333 0.066666667 0
0.56666667 0.066666667 0
0.6 0.066666667 0
0.63333333 0.066666667 0
0.66666667 0.066666667 0
0.7 0.066666667 0
0.73333333 0.066666667 0
0.76666667 0.066666667 0
0.8 0.066666667 0
0.83333333 0.066666667 0
0.86666667 0.066666667 0
0.9 0.066666667 0
0.93333333 0.066666667 0
0.96666667 0.066666667 0
1 0.066666667 0
0 0.1 0
0.033333333 0.1 0
0.066666667 0.1 0
0.1 0.1 0
0.13333333 0.1 0
0.16666667 0.1 0
0.2 0.1 0
0.23333333 0.1 0
0.26666667 0.1 0
0.3 0.1 0
0.33333333 0.1 0
0.36666667 0.1 0
0.4 0.1 0
0.43333333 0.1 0
0.46666667 0.1 0
0.5 0.1 0
0.53333333 0.1 0
0.56666667 0.1 0
0.6 0.1 0
0.63333333 0.1 0
0.66666667 0.1 0
0.7 0.1 0
0.73333333 0.1 0
0.76666667 0.1 0
0.8 0.1 0
0.83333333 0.1 0
0.86666667 0.1 0
0.9 0.1 0
0.93333333 0.1 0
0.96666667 0.1 0
1 0.1 0
0 0.13333333 0
0.033333333 0.13333333 0
0.066666667 0.13333333 0
0.1 0.13333333 0
0.13333333 0.13333333 0
0.16666667 0.13333333 0
0.2 0.13333333 0
0.23333333 0.13333333 0
0.26666667 0.13333333 0
0.3 0.13333333 0
0.33333333 0.13333333 0
0.36666667 0.13333333 0
0.4 0.13333333 0
0.43333333 0.13333333 0
0.46666667 0.13333333 0
0.5 0.13333333 0
0.53333333 0.13333333 0
0.56666667 0.13333333 0
0.6 0.13333333 0
0.63333333 0.13333333 0
0.66666667 0.13333333 0
0.7 0.13333333 0
0.73333333 0.13333333 0
0.76666667 0.13333333 0
0.8 0.13333333 0
0.83333333 0.13333333 0
0.86666667 0.13333333 0
0.9 0.13333333 0
0.93333333 0.13333333 0
0.96666667 0.13333333 0
1 0.13333333 0
0 0.16666667 0
0.033333333 0.16666667 0
0.066666667 0.16666667 0
0.1 0.16666667 0
0.13333333 0.16666667 0
0.16666667 0.16666667 0
0.2 0.16666667 0
0.23333333 0.16666667 0
0.26666667 0.16666667 0
0.3 0.16666667 0
0.33333333 0.16666667 0
0.36666667 0.16666667 0
0.4 0.16666667 0
0.43333333 0.16666667 0
0.46666667 0.16666667 0
0.5 0.16666667 0
0.53333333 0.16666667 0
0.56666667 0.16666667 0
0.6 0.16666667 0
0.63333333 0.16666667 0
0.66666667 0.16666667 0
0.7 0.16666667 0
0.73333333 0.16666667 0
0.76666667 0.16666667 0
0.8 0.16666667 0
0.83333333 0.16666667 0
0.86666667 0.16666667 0
0.9 0.16666667 0
0.93333333 0.16666667 0
0.96666667 0.16666667 0
1 0.16666667 0
0 0.2 0
0.033333333 0.2 0
0.066666667 0.2 0
0.1 0.2 0
0.13333333 0.2 0
0.16666667 0.2 0
0.2 0.2 0
0.23333333 0.2 0
0.26666667 0.2 0
0.3 0.2 0
0.33333333 0.2 0
0.36666667 0.2 0
0.4 0.2 0
0.43333333 0.2 0
0.46666667 0.2 0
0.5 0.2 0
0.53333333 0.2 0
0.56666667 0.2 0
0.6 0.2 0
0.63333333 0.2 0
0.66666667 0.2 0
0.7 0.2 0
0.73333333 0.2 0
0.76666667 0.2 0
0.8 0.2 0
0.83333333 0.2 0
0.86666667 0.2 0
0.9 0.2 0
0.93333333 0.2 0
0.96666667 0.2 0
1 0.2 0
0 0.23333333 0
0.033333333 0.23333333 0
0.066666667 0.23333333 0
0.1 0.23333333 0
0.13333333 0.23333333 0
0.16666667 0.23333333 0
0.2 0.23333333 0
0.23333333 0.23333333 0
0.26666667 0.23333333 0
0.3 0.23333333 0
0.33333333 0.23333333 0
0.36666667 0.23333333 0
0.4 0.23333333 0
0.43333333 0.23333333 0
0.46666667 0.23333333 0
0.5 0.23333333 0
0.53333333 0.23333333 0
0.56666667 0.23333333 0
0.6 0.23333333 0
0.63333333 0.23333333 0
0.66666667 0.23333333 0
0.7 0.23333333 0
0.73333333 0.23333333 0
0.76666667 0.23333333 0
0.8 0.23333333 0
0.83333333 0.23333333 0
0.86666667 0.23333333 0
0.9 0.23333333 0
0.93333333 0.23333333 0
0.96666667 0.23333333 0
1 0.23333333 0
0 0.26666667 0
0.033333333 0.26666667 0
0.066666667 0.26666667 0
0.1 0.26666667 0
0.13333333 0.26666667 0
0.16666667 0.26666667 0
0.2 0.26666667 0
0.23333333 0.26666667 0
0.26666667 0.26666667 0
0.3 0.26666667 0
0.33333333 0.26666667 0
0.36666667 0.26666667 0
0.4 0.26666667 0
0.43333333 0.26666667 0
0.46666667 0.26666667 0
0.5 0.26666667 0
0.53333333 0.26666667 0
0.56666667 0.26666667 0
0.6 0.26666667 0
0.63333333 0.26666667 0
0.66666667 0.26666667 0
0.7 0.26666667 0
0.73333333 0.26666667 0
0.76666667 0.26666667 0
0.8 0.26666667 0
0.83333333 0.26666667 0
0.86666667 0.26666667 0
0.9 0.26666667 0
0.93333333 0.26666667 0
0.96666667 0.26666667 0
1 0.26666667 0
0 0.3 0
0.033333333 0.3 0
0.066666667 0.3 0
0.1 0.3 0
0.13333333 0.3 0
0.16666667 0.3 0
0.2 0.3 0
0.23333333 0.3 0
0.26666667 0.3 0
0.3 0.3 0
0.33333333 0.3 0
0.36666667 0.3 0
0.4 0.3 0
0.43333333 0.3 0
0.46666667 0.3 0
0.5 0.3 0
0.53333333 0.3 0
0.56666667 0.3 0
0.6 0.3 0
0.63333333 0.3 0
0.66666667 0.3 0
0.7 0.3 0
0.73333333 0.3 0
0.76666667 0.3 0
0.8 0.3 0
0.83333333 0.3 0
0.86666667 0.3 0
0.9 0.3 0
0.93333333 0.3 0
0.96666667 0.3 0
1 0.3 0
0 0.33333333 0
0.033333333 0.33333333 0
0.066666667 0.33333333 0
0.1 0.33333333 0
0.13333333 0.33333333 0
0.16666667 0.33333333 0
0.2 0.33333333 0
0.23333333 0.33333333 0
0.26666667 0.33333333 0
0.3 0.33333333 0
0.33333333 0.33333333 0
0.36666667 0.33333333 0
0.4 0.33333333 0
0.43333333 0.33333333 0
0.46666667 0.33333333 0
0.5 0.33333333 0
0.53333333 0.33333333 0
0.56666667 0.33333333 0
0.6 0.33333333 0
0.63333333 0.33333333 0
0.66666667 0.33333333 0
0.7 0.33333333 0
0.73333333 0.33333333 0
0.76666667 0.33333333 0
0.8 0.33333333 0
0.83333333 0.33333333 0
0.86666667 0.33333333 0
0.9 0.33333333 0
0.93333333 0.33333333 0
0.96666667 0.33333333 0
1 0.33333333 0
0 0.36666667 0
0.033333333 0.36666667 0
0.066666667 0.36666667 0
0.1 0.36666667 0
0.13333333 0.36666667 0
0.16666667 0.36666667 0
0.2 0.36666667 0
0.23333333 0.36666667 0
0.26666667 0.36666667 0
0.3 0.36666667 0
0.33333333 0.36666667 0
0.36666667 0.36666667 0
0.4 0.36666667 0
0.43333333 0.36666667 0
0.46666667 0.36666667 0
0.5 0.36666667 0
0.53333333 0.36666667 0
0.56666667 0.36666667 0
0.6 0.36666667 0
0.63333333 0.36666667 0
0.66666667 0.36666667 0
0.7 0.36666667 0
0.73333333 0.36666667 0
0.76666667 0.36666667 0
0.8 0.36666667 0
0.83333333 0.36666667 0
0.86666667 0.36666667 0
0.9 0.36666667 0
0.93333333 0.36666667 0
0.96666667 0.36666667 0
1 0.36666667 0
0 0.4 0
0.033333333 0.4 0
0.066666667 0.4 0
0.1 0.4 0
0.13333333 0.4 0
0.16666667 0.4 0
0.2 0.4 0
0.23333333 0.4 0
0.26666667 0.4 0
0.3 0.4 0
0.33333333 0.4 0
0.36666667 0.4 0
0.4 0.4 0
0.43333333 0.4 0
0.46666667 0.4 0
0.5 0.4 0
0.53333333 0.4 0
0.56666667 0.4 0
0.6 0.4 0
0.63333333 0.4 0
0.66666667 0.4 0
0.7 0.4 0
0.73333333 0.4 0
0.76666667 0.4 0
0.8 0.4 0
0.83333333 0.4 0
0.86666667 0.4 0
0.9 0.4 0
0.93333333 0.4 0
0.96666667 0.4 0
1 0.4 0
0 0.43333333 0
0.033333333 0.43333333 0
0.066666667 0.43333333 0
0.1 0.43333333 0
0.13333333 0.43333333 0
0.16666667 0.43333333 0
0.2 0.43333333 0
0.23333333 0.43333333 0
0.26666667 0.43333333 0
0.3 0.43333333 0
0.33333333 0.43333333 0
0.36666667 0.43333333 0
0.4 0.43333333 0
0.43333333 0.43333333 0
0.46666667 0.43333333 0
0.5 0.43333333 0
0.53333333 0.43333333 0
0.56666667 0.43333333 0
0.6 0.43333333 0
0.63333333 0.43333333 0
0.66666667 0.43333333 0
0.7 0.43333333 0
0.73333333 0.43333333 0
0.76666667 0.43333333 0
0.8 0.43333333 0
0.83333333 0.43333333 0
0.86666667 0.43333333 0
0.9 0.43333333 0
0.93333333 0.43333333 0
0.96666667 0.43333333 0
1 0.43333333 0
0 0.46666667 0
0.033333333 0.46666667 0
0.066666667 0.46666667 0
0.1 0.46666667 0
0.13333333 0.46666667 0
0.16666667 0.46666667 0
0.2 0.46666667 0
0.23333333 0.46666667 0
0.26666667 0.46666667 0
0.3 0.46666667 0
0.33333333 0.46666667 0
0.36666667 0.46666667 0
0.4 0.46666667 0
0.43333333 0.46666667 0
0.46666667 0.46666667 0
0.5 0.46666667 0
0.53333333 0.46666667 0
0.56666667 0.46666667 0
0.6 0.46666667 0
0.63333333 0.46666667 0
0.66666667 0.46666667 0
0.7 0.46666667 0
0.73333333 0.46666667 0
0.76666667 0.46666667 0
0.8 0.46666667 0
0.83333333 0.46666667 0
0.86666667 0.46666667 0
0.9 0.46666667 0
0.93333333 0.46666667 0
0.96666667 0.46666667 0
1 0.46666667 0
0 0.5 0
0.033333333 0.5 0
0.066666667 0.5 0
0.1 0.5 0
0.13333333 0.5 0
0.16666667 0.5 0
0.2 0.5 0
0.23333333 0.5 0
0.26666667 0.5 0
0.3 0.5 0
0.33333333 0.5 0
0.36666667 0.5 0
0.4 0.5 0
0.43333333 0.5 0
0.46666667 0.5 0
0.5 0.5 0
0.53333333 0.5 0
0.56666667 0.5 0
0.6 0.5 0
0.63333333 0.5 0
0.66666667 0.5 0
0.7 0.5 0
0.73333333 0.5 0
0.76666667 0.5 0
0.8 0.5 0
0.83333333 0.5 0
0.86666667 0.5 0
0.9 0.5 0
0.93333333 0.5 0
0.96666667 0.5 0
1 0.5 0
0 0.53333333 0
0.033333333 0.53333333 0
0.066666667 0.53333333 0
0.1 0.53333333 0
0.13333333 0.53333333 0
0.16666667 0.53333333 0
0.2 0.53333333 0
0.23333333 0.53333333 0
0.26666667 0.53333333 0
0.3 0.53333333 0
0.33333333 0.53333333 0
0.36666667 0.53333333 0
0.4 0.53333333 0
0.43333333 0.53333333 0
0.46666667 0.53333333 0
0.5 0.53333333 0
0.53333333 0.53333333 0
0.56666667 0.53333333 0
0.6 0.53333333 0
0.63333333 0.53333333 0
0.66666667 0.53333333 0
0.7 0.53333333 0
0.73333333 0.53333333 0
0.76666667 0.53333333 0
[...]
CELL_DATA 1920
Scalars  Label int 1
LOOKUP_TABLE FreeFempp_table
0
0
0
0
0
0
0
0
0
0
0
0
0
0
0
0
0
0
0
0
0
0
0
0
0
0
0
0
0
0
0
0
0
0
0
0
0
0
0
0
0
0
0
0
0
0
0
0
0
0
0
0
0
0
0
0
0
0
0
0
0
0
0
0
0
0
0
0
0
0
0
0
0
0
0
0
0
0
0
0
0
0
0
0
0
0
0
0
0
0
0
0
0
0
0
0
0
0
0
0
0
0
0
0
0
0
0
0
0
0
0
0
0
0
0
0
0
0
0
0
0
0
0
0
0
0
0
0
0
0
0
0
0
0
0
0
0
0
0
0
0
0
0
0
0
0
0
0
0
0
0
0
0
0
0
0
0
0
0
0
0
0
0
0
0
0
0
0
0
0
0
0
0
0
0
0
0
0
0
0
0
0
0
0
0
0
0
0
0
0
0
0
0
0
0
0
0
0
0
0
0
0
0
0
0
0
0
0
0
0
0
0
0
0
0
0
0
0
0
0
0
0
0
0
0
0
0
0
0
0
0
0
0
0
0
0
0
0
0
0
0
0
0
0
0
0
0
0
0
0
0
0
0
0
0
0
0
0
0
0
0
0
0
0
0
0
0
0
0
0
0
0
0
0
0
0
0
0
0
0
0
0
0
0
0
0
0
0
0
0
0
0
0
0
0
0
0
0
0
0
0
0
0
0
0
0
0
0
0
0
0
0
0
0
0
0
0
0
0
0
0
0
0
0
0
0
0
0
0
0
0
0
0
0
0
0
0
0
0
0
0
0
0
0
0
0
0
0
0
0
0
0
0
0
0
0
0
0
0
0
0
0
0
0
0
0
0
0
0
0
0
0
0
0
0
0
0
0
0
0
0
0
0
0
0
0
0
0
0
0
0
0
0
0
0
0
0
0
0
0
0
0
0
0
0
0
0
0
0
0
0
0
0
0
0
0
0
0
0
0
0
0
0
0
0
0
0
0
0
0
0
0
0
0
0
0
0
0
0
0
0
0
0
0
0
0
0
0
0
0
0
0
0
0
0
0
0
0
0
0
0
0
0
0
0
0
0
0
0
0
0
0
0
0
0
0
0
0
0
0
0
0
0
0
0
0
0
0
0
0
0
0
0
0
0
0
0
0
0
0
0
0
0
0
0
0
0
0
0
0
0
0
0
0
0
0
0
0
0
0
0
0
0
0
0
0
0
0
0
0
0
0
0
0
0
0
0
0
0
0
0
0
0
0
0
0
0
0
0
0
0
0
0
0
0
0
0
0
0
0
0
0
0
0
0
0
0
0
0
0
0
0
0
0
0
0
0
0
0
0
0
0
0
0
0
0
0
0
0
0
0
0
0
0
0
0
0
0
0
0
0
0
0
0
0
0
0
0
0
0
0
0
0
0
0
0
0
0
0
0
0
0
0
0
0
0
0
0
0
0
0
0
0
0
0
0
0
0
0
0
0
0
0
0
0
0
0
0
0
0
0
0
0
0
0
0
0
0
0
0
0
0
0
0
0
0
0
0
0
0
0
0
0
0
0
0
0
0
0
0
0
0
0
0
0
0
0
0
0
0
0
0
0
0
0
0
0
0
0
0
0
0
0
0
0
0
0
0
0
0
0
0
0
0
0
0
0
0
0
0
0
0
0
0
0
0
0
0
0
0
0
0
0
0
0
0
0
0
0
0
0
0
0
0
0
0
0
0
0
0
0
0
0
0
0
0
0
0
0
0
0
0
0
0
0
0
0
0
0
0
0
0
0
0
0
0
0
0
0
0
0
0
0
0
0
0
0
0
0
0
0
0
0
0
0
0
0
0
0
0
0
0
0
0
0
0
0
0
0
0
0
0
0
0
0
0
0
0
0
0
0
0
0
0
0
0
0
0
0
0
0
0
0
0
0
0
0
0
0
0
0
0
0
0
0
0
0
0
0
0
0
0
0
0
0
0
0
0
0
0
0
0
0
0
0
0
0
0
0
0
0
0
0
0
0
0
0
0
0
0
0
0
0
0
0
0
0
0
0
0
0
0
0
0
0
0
0
0
0
0
0
0
0
0
0
0
0
0
0
0
0
0
0
0
0
0
0
0
0
0
0
0
0
0
0
0
0
0
0
0
0
0
0
0
0
0
0
0
0
0
0
0
0
0
0
0
0
0
0
0
0
0
0
0
0
0
0
0
0
0
0
0
0
0
0
0
0
0
0
0
0
0
0
0
0
0
0
0
0
0
0
0
0
0
0
0
0
0
0
0
0
0
0
0
0
0
0
0
0
0
0
0
0
0
0
0
0
0
0
0
0
0
0
0
0
0
0
0
0
0
0
0
0
0
0
0
0
0
0
0
0
0
0
0
0
0
0
0
0
0
0
0
0
0
0
0
0
0
0
0
0
0
0
0
0
0
0
0
0
0
0
0
0
0
0
0
0
0
0
0
0
0
0
0
0
0
0
0
0
0
0
0
0
0
0
0
0
0
0
0
0
0
0
0
0
0
0
0
0
0
0
0
0
0
0
0
0
0
0
0
0
0
0
0
0
0
0
0
0
0
0
0
0
0
0
0
0
0
0
0
0
0
0
0
0
0
0
0
0
0
0
0
0
0
0
0
0
0
0
0
0
0
0
0
0
0
0
0
0
0
0
0
0
0
0
0
0
0
0
0
0
0
0
0
0
0
0
0
0
0
0
0
0
0
0
0
0
0
0
0
0
0
0
0
0
0
0
0
0
0
0
0
0
0
0
0
0
0
0
0
0
0
0
0
0
0
0
0
0
0
0
0
0
0
0
0
0
0
0
0
0
0
0
0
0
0
0
0
0
0
0
0
0
0
0
0
0
0
0
0
0
0
0
0
0
0
0
0
0
0
0
0
0
0
0
0
0
0
0
0
0
0
0
0
0
0
0
0
0
0
0
0
0
0
0
0
0
0
0
0
0
0
0
0
0
0
0
0
0
0
0
0
0
0
0
0
0
0
0
0
0
0
0
0
0
0
0
0
0
0
0
0
0
0
0
0
0
0
0
0
0
0
0
0
0
0
0
0
0
0
0
0
0
0
0
0
0
0
0
0
0
0
0
0
0
0
0
0
0
0
0
0
0
0
0
0
0
0
0
0
0
0
0
0
0
0
0
0
0
0
0
0
0
0
0
0
0
0
0
0
0
0
0
0
0
0
0
0
0
0
0
0
0
0
0
0
0
0
0
0
0
0
0
0
0
0
0
0
0
0
0
0
0
0
0
0
0
0
0
0
0
0
0
0
0
0
0
0
0
0
0
0
0
0
0
0
0
0
0
0
0
0
0
0
0
0
0
0
0
0
0
0
0
0
0
0
0
0
0
0
0
0
0
0
0
0
0
0
0
0
0
0
0
0
0
0
0
0
0
0
0
0
0
0
0
0
0
0
0
0
0
0
0
0
0
0
0
0
0
0
0
0
0
0
0
0
0
0
0
0
0
0
0
0
0
0
0
0
0
0
0
0
0
0
0
0
0
0
0
0
0
0
0
0
0
0
0
0
0
0
0
0
0
0
0
0
0
0
0
0
0
0
0
0
0
0
0
0
0
0
0
0
0
0
0
0
0
0
0
0
0
0
0
0
0
0
0
0
0
0
0
0
0
0
0
0
0
0
0
0
0
0
0
0
0
0
0
0
0
0
0
0
0
0
0
0
0
0
0
0
0
0
0
0
0
0
0
0
0
0
0
0
0
0
0
0
0
0
0
0
0
0
0
0
0
0
0
0
0
0
0
0
0
0
0
0
0
0
0
0
0
0
0
0
0
0
0
0
0
0
0
0
0
0
0
0
0
0
0
0
0
0
0
0
0
0
0
0
0
0
0
0
0
0
0
0
0
0
0
0
0
0
0
0
0
0
0
0
0
0
0
0
0
0
0
0
0
0
0
0
0
0
0
0
0
0
0
0
0
0
0
0
0
0
0
0
0
0
0
0
0
0
0
0
0
0
0
0
0
0
0
0
0
0
0
0
0
0
0
0
0
0
0
0
0
0
0
0
0
0
0
0
0
0
0
0
0
0
0
0
0
0
0
0
0
0
0
0
0
0
0
0
0
0
0
0
0
0
0
0
1
1
1
1
1
1
1
1
1
1
1
1
1
1
1
1
1
1
1
1
1
1
1
1
1
1
1
1
1
1
2
2
2
2
2
2
2
2
2
2
2
2
2
2
2
2
2
2
2
2
2
2
2
2
2
2
2
2
2
2
3
3
3
3
3
3
3
3
3
3
3
3
3
3
3
3
3
3
3
3
3
3
3
3
3
3
3
3
3
3
4
4
4
4
4
4
4
4
4
4
4
4
4
4
4
4
4
4
4
4
4
4
4
4
4
4
4
4
4
4

LOOKUP_TABLE FreeFempp_table 5
1.00000000 0.00000000 0.00000000 1.00000000
1.00000000 1.00000000 0.00000000 1.00000000
1.00000000 0.00000000 1.00000000 1.00000000
0.00000000 1.00000000 0.00000000 1.00000000
0.00000000 1.00000000 1.00000000 1.00000000

POINT_DATA 961
FIELD FieldData 1
Density 1 961 float
3.39199185e-01 3.45876932e-01 3.60595942e-01 3.66641134e-01 3.68052453e-01 3.67853671e-01 3.62083614e-01 3.27149093e-01 2.09795564e-01 4.52635847e-02 5.64977564e-02 2.39076436e-01 3.82343084e-01 4.78419781e-01 5.60477078e-01 5.73862672e-01 5.04067659e-01 4.61626977e-01 4.90202487e-01 5.37891150e-01 5.58962524e-01 5.71044743e-01 5.81193686e-01 5.79296947e-01 5.67614675e-01 5.54108858e-01 5.46182275e-01 5.40873230e-01 5.36442578e-01 5.30926347e-01 5.26625693e-01 2.20770672e-01 2.40704924e-01 2.58119076e-01 2.64723837e-01 2.66022116e-01 2.65673846e-01 2.61489153e-01 2.39560291e-01 1.66132405e-01 4.07784432e-02 3.30841132e-02 1.78088844e-01 3.31218034e-01 4.34608549e-01 5.31395316e-01 5.59680462e-01 4.55462486e-01 3.56344968e-01 3.51388454e-01 3.95070195e-01 4.30310875e-01 4.74658489e-01 5.18941998e-01 5.35640121e-01 5.33999979e-01 5.30683875e-01 5.34300268e-01 5.34350812e-01 5.31708956e-01 5.27887881e-01 5.24174929e-01 3.29847075e-02 3.98761630e-02 4.38863486e-02 4.53152284e-02 4.54577394e-02 4.53681685e-02 4.47768308e-02 4.16677669e-02 3.09844576e-02 9.63965431e-03 6.07219944e-03 4.85948622e-02 1.72364637e-01 2.70589203e-01 3.96198422e-01 5.14774740e-01 4.22521383e-01 2.24630505e-01 1.07569583e-01 8.54765102e-02 1.00136653e-01 1.77519470e-01 2.79868692e-01 3.32221687e-01 3.50882113e-01 3.88229191e-01 4.57448781e-01 4.93298203e-01 5.03638387e-01 5.06210089e-01 5.06605089e-01 5.27256541e-02 4.46206182e-02 4.22828645e-02 4.20679189e-02 4.25629020e-02 4.32187244e-02 4.36963700e-02 4.37867455e-02 4.34044413e-02 4.28235568e-02 4.08219025e-02 2.67161522e-02 2.59204935e-02 4.74433526e-02 1.05838701e-01 3.37675303e-01 4.49600577e-01 3.49093050e-01 1.78384110e-01 8.20478499e-02 4.07357514e-02 2.68890429e-02 4.64604534e-02 6.13093302e-02 6.63793534e-02 9.78285372e-02 2.69505709e-01 4.00663733e-01 4.52482671e-01 4.70457464e-01 4.76235896e-01 2.73581684e-01 2.57758319e-01 2.48394236e-01 2.47513175e-01 2.50936419e-01 2.55064279e-01 2.58318335e-01 2.60203958e-01 2.60138631e-01 2.55667239e-01 2.36909598e-01 1.78261220e-01 7.20410198e-02 4.45970409e-02 3.02387513e-02 7.70093277e-02 2.51566738e-01 4.24850255e-01 4.43129063e-01 3.43963146e-01 2.39045143e-01 1.11693107e-01 8.87839496e-02 8.77197087e-02 7.20131546e-02 3.90954167e-02 6.86861500e-02 2.48137906e-01 3.77700061e-01 4.31041449e-01 4.45185691e-01 3.91240835e-01 3.83852541e-01 3.73296797e-01 3.71687859e-01 3.76148403e-01 3.82019281e-01 3.86988312e-01 3.90492797e-01 3.92369419e-01 3.91529560e-01 3.83191317e-01 3.55892718e-01 3.00585270e-01 2.53911257e-01 1.80652395e-01 5.96070662e-02 3.98432128e-02 1.19321577e-01 3.42930257e-01 4.37500060e-01 4.61309016e-01 4.22612697e-01 4.18587834e-01 4.40965414e-01 4.04854685e-01 2.58528799e-01 8.33139047e-02 7.10661858e-02 2.45068595e-01 3.71398240e-01 4.06779319e-01 4.33132261e-01 4.27162319e-01 4.18576539e-01 4.17157441e-01 4.20759559e-01 4.25808012e-01 4.30436462e-01 4.34199899e-01 4.37201619e-01 4.39327061e-01 4.39371169e-01 4.34311777e-01 4.21951056e-01 4.06529903e-01 3.66653740e-01 2.56914854e-01 8.66670832e-02 3.72340381e-02 5.41982204e-02 1.18906476e-01 2.93590873e-01 3.43348056e-01 3.78562182e-01 4.71733302e-01 5.39818406e-01 5.08613169e-01 3.46699744e-01 9.60393548e-02 7.08307922e-02 2.39227176e-01 3.21159542e-01 4.56036448e-01 4.51265574e-01 4.45440471e-01 4.44622397e-01 4.46977168e-01 4.50377792e-01 4.53804255e-01 4.56967741e-01 4.59911942e-01 4.62619364e-01 4.64738667e-01 4.65553403e-01 4.64709520e-01 4.62699890e-01 4.53507960e-01 4.19833720e-01 3.35506797e-01 2.24793196e-01 8.05601478e-02 2.94192731e-02 4.33765985e-02 6.64291158e-02 8.88866708e-02 2.04434484e-01 3.30412120e-01 4.53437418e-01 5.08040011e-01 3.45435321e-01 8.25035945e-02 5.95892593e-02 1.53008297e-01 4.74919170e-01 4.71806765e-01 4.68467176e-01 4.68176514e-01 4.69577670e-01 4.71596777e-01 4.73836184e-01 4.76137131e-01 4.78435874e-01 4.80628371e-01 4.82512176e-01 4.83895034e-01 4.84915346e-01 4.86113042e-01 4.86828417e-01 4.83622789e-01 4.67777401e-01 4.27360117e-01 3.32922816e-01 1.97722703e-01 8.26702937e-02 4.45507839e-02 2.17063278e-02 3.22928466e-02 7.50284344e-02 1.98287979e-01 4.11550432e-01 5.03342330e-01 2.63599128e-01 3.93844694e-02 2.26063356e-02 4.89554673e-01 4.87790406e-01 4.86218661e-01 4.86242056e-01 4.87044215e-01 4.88189399e-01 4.89565343e-01 4.91063058e-01 4.92558390e-01 4.93915468e-01 4.95020598e-01 4.95884806e-01 4.96788174e-01 4.98291105e-01 5.00864506e-01 5.04585922e-01 5.08306324e-01 5.07490158e-01 4.90553498e-01 4.43846464e-01 3.62046957e-01 2.65746325e-01 1.49345368e-01 6.58823848e-02 4.31088656e-02 6.95219412e-02 2.51841247e-01 5.14624476e-01 4.16849703e-01 7.54944235e-02 9.77376197e-03 4.96144801e-01 4.95115519e-01 4.94758338e-01 4.95246112e-01 4.96053547e-01 4.97046083e-01 4.98153925e-01 4.99237597e-01 5.00143766e-01 5.00758231e-01 5.01056314e-01 5.01161635e-01 5.01388192e-01 5.02213418e-01 5.04170775e-01 5.07818758e-01 5.13614893e-01 5.21156728e-01 5.27901709e-01 5.28725147e-01 5.13749719e-01 4.71890330e-01 3.88161331e-01 2.88676679e-01 2.14907989e-01 1.70883283e-01 2.59584904e-01 4.97486711e-01 4.86765951e-01 9.65399072e-02 9.22113284e-03 4.91015017e-01 4.89881605e-01 4.90364879e-01 4.91982728e-01 4.93899077e-01 4.95884925e-01 4.97721523e-01 4.99173015e-01 5.00072360e-01 5.00363052e-01 5.00118554e-01 4.99548554e-01 4.98983383e-01 4.98833597e-01 4.99545455e-01 5.01591563e-01 5.05413830e-01 5.11173010e-01 5.18432140e-01 5.25994718e-01 5.31109810e-01 5.28857291e-01 5.09431601e-01 4.71176982e-01 4.30087358e-01 3.99371982e-01 4.41166133e-01 5.78361928e-01 5.19910038e-01 1.05473943e-01 8.41062702e-03 4.72549647e-01 4.70234305e-01 4.71213102e-01 4.75061119e-01 4.79729354e-01 4.84340727e-01 4.88308668e-01 4.91235793e-01 4.92965430e-01 4.93553996e-01 4.93218035e-01 4.92281914e-01 4.91130412e-01 4.90169019e-01 4.89799917e-01 4.90402371e-01 4.92257208e-01 4.95388746e-01 4.99459147e-01 5.03871143e-01 5.07921875e-01 5.10723472e-01 5.09923697e-01 5.03734946e-01 4.97896433e-01 5.06264567e-01 5.61558127e-01 6.44929528e-01 5.25191367e-01 1.05585076e-01 8.65419954e-03 4.41120088e-01 4.36477780e-01 4.37642246e-01 4.45237517e-01 4.54874068e-01 4.64220643e-01 4.72023576e-01 4.77677971e-01 4.81118023e-01 4.82626915e-01 4.82658058e-01 4.81718570e-01 4.80307698e-01 4.78890955e-01 4.77892190e-01 4.77673233e-01 4.78460550e-01 4.80224937e-01 4.82607573e-01 4.84980822e-01 4.86606598e-01 4.86783534e-01 4.85038370e-01 4.83035982e-01 4.89567250e-01 5.22517323e-01 5.96402884e-01 6.54957116e-01 4.99939054e-01 9.87929702e-02 8.24822579e-03 3.97709429e-01 3.89821887e-01 3.91103804e-01 4.04523969e-01 4.22074258e-01 4.38775599e-01 4.52284425e-01 4.61837649e-01 4.67680454e-01 4.70534265e-01 4.71229553e-01 4.70536143e-01 4.69118714e-01 4.67546612e-01 4.66311783e-01 4.65821266e-01 4.66340780e-01 4.67905343e-01 4.70253319e-01 4.72822666e-01 4.74805743e-01 4.75357980e-01 4.74464715e-01 4.75611866e-01 4.90196735e-01 5.36045015e-01 6.11550748e-01 6.37982488e-01 4.56530809e-01 8.92326459e-02 7.73892459e-03 3.43543708e-01 3.32068652e-01 3.33924860e-01 3.55804682e-01 3.84867013e-01 4.11855221e-01 4.32806969e-01 4.47057605e-01 4.55595613e-01 4.59893823e-01 4.61315900e-01 4.60950911e-01 4.59644675e-01 4.58077937e-01 4.56826359e-01 4.56375211e-01 4.57082480e-01 4.59108114e-01 4.62346405e-01 4.66388226e-01 4.70564842e-01 4.74293113e-01 4.78262544e-01 4.87053335e-01 5.11730313e-01 5.63368380e-01 6.22399986e-01 6.01653993e-01 3.96142364e-01 7.79996514e-02 8.53757933e-03 2.81521380e-01 2.67156810e-01 2.70909011e-01 3.03964555e-01 3.47969770e-01 3.87619525e-01 4.16919261e-01 4.35870796e-01 4.46813643e-01 4.52295065e-01 4.54307586e-01 4.54249740e-01 4.53109711e-01 4.51644838e-01 4.50494468e-01 4.50221419e-01 4.51291025e-01 4.54008698e-01 4.58445400e-01 4.64394718e-01 4.71474707e-01 4.79631156e-01 4.90370899e-01 5.08573949e-01 5.42203188e-01 5.91065645e-01 6.18495226e-01 5.43150604e-01 3.21316063e-01 6.47167116e-02 1.08881630e-02 2.17468321e-01 2.02381596e-01 2.10549116e-01 2.56872863e-01 3.17606330e-01 3.70278776e-01 4.07076508e-01 4.29554641e-01 4.41970855e-01 4.48088437e-01 4.50464904e-01 4.50700104e-01 4.49831218e-01 4.48621392e-01 4.47722137e-01 4.47738260e-01 4.49220896e-01 4.52613652e-01 4.58184540e-01 4.66008753e-01 4.76141214e-01 4.89159077e-01 5.07048965e-01 5.33609867e-01 5.71102738e-01 6.06571198e-01 5.92446506e-01 4.67593402e-01 2.46240154e-01 5.21067046e-02 1.37413237e-02 1.58544242e-01 1.46265879e-01 1.62414253e-01 2.23416433e-01 2.99974710e-01 3.62992793e-01 4.04268801e-01 4.27972138e-01 4.40496415e-01 4.46608126e-01 4.49162364e-01 4.49766546e-01 4.49384123e-01 4.48701590e-01 4.48316932e-01 4.48817015e-01 4.50784743e-01 4.54768449e-01 4.61256266e-01 4.70723748e-01 4.83837873e-01 5.01778722e-01 5.26270092e-01 5.58195353e-01 5.91997981e-01 6.03427052e-01 5.44251084e-01 3.84422064e-01 1.82502955e-01 4.49508131e-02 1.83706991e-02 1.09677598e-01 1.04165301e-01 1.31976515e-01 2.09005803e-01 2.98192292e-01 3.66335809e-01 4.07615572e-01 4.29781646e-01 4.41059649e-01 4.46659237e-01 4.49335039e-01 4.50485379e-01 4.50889081e-01 4.51090634e-01 4.51580197e-01 4.52866644e-01 4.55499142e-01 4.60083008e-01 4.67344999e-01 4.78283316e-01 4.94313151e-01 5.16999006e-01 5.46686947e-01 5.79342186e-01 6.00602746e-01 5.79424679e-01 4.78641361e-01 3.03378105e-01 1.35072097e-01 4.69858721e-02 2.98764445e-02 7.28166923e-02 7.64647573e-02 1.19322792e-01 2.13376403e-01 3.10713649e-01 3.77881289e-01 4.14736003e-01 4.33064193e-01 4.42174971e-01 4.47028607e-01 4.49903727e-01 4.51822698e-01 4.53309983e-01 4.54736114e-01 4.56459522e-01 4.58881468e-01 4.62483197e-01 4.67911810e-01 4.76168722e-01 4.88843441e-01 5.08008301e-01 5.34937203e-01 5.66990972e-01 5.93386889e-01 5.91981649e-01 5.32775521e-01 4.00765032e-01 2.31937945e-01 1.06014654e-01 5.89786842e-02 5.40827438e-02 4.88845147e-02 6.05026782e-02 1.21840507e-01 2.32292041e-01 3.32653016e-01 3.93501222e-01 4.22823578e-01 4.36059237e-01 4.42667902e-01 4.46798116e-01 4.50019926e-01 4.52897191e-01 4.55675513e-01 4.58551735e-01 4.61766154e-01 4.65636849e-01 4.70619708e-01 4.77470577e-01 4.87525344e-01 5.02862394e-01 5.25601983e-01 5.55250943e-01 5.84141970e-01 5.94069302e-01 5.59423268e-01 4.62074786e-01 3.15846294e-01 1.75098658e-01 9.57121700e-02 8.22692588e-02 9.28177088e-02 3.47870775e-02 5.22221625e-02 1.35552272e-01 2.59938717e-01 3.58331561e-01 4.09226000e-01 4.29618120e-01 4.37552780e-01 4.41802949e-01 4.45393950e-01 4.49112803e-01 4.53057379e-01 4.57206637e-01 4.61608678e-01 4.66429472e-01 4.71979111e-01 4.78798628e-01 4.87861305e-01 5.00807106e-01 5.19756436e-01 5.45706511e-01 5.74607968e-01 5.92557669e-01 5.75978637e-01 5.03595769e-01 3.78460467e-01 2.40550667e-01 1.42862052e-01 1.08045846e-01 1.23014048e-01 1.46013275e-01 2.58081164e-02 4.81351912e-02 1.55654207e-01 2.90812045e-01 3.83126348e-01 4.22232717e-01 4.33658600e-01 4.36810374e-01 4.39156562e-01 4.42483604e-01 4.46825475e-01 4.51865047e-01 4.57360774e-01 4.63252246e-01 4.69678491e-01 4.77012038e-01 4.85960662e-01 4.97722924e-01 5.13992488e-01 5.36226690e-01 5.63272893e-01 5.87165177e-01 5.89915752e-01 5.48012316e-01 4.50315475e-01 3.20376456e-01 2.10135147e-01 1.54960051e-01 1.54655889e-01 1.90346897e-01 2.18781412e-01 1.97720788e-02 4.67500798e-02 1.78148314e-01 3.20856005e-01 4.03947294e-01 4.30716902e-01 4.34017152e-01 4.33371574e-01 4.34481442e-01 4.37874407e-01 4.42930907e-01 4.49029297e-01 4.55790848e-01 4.63090956e-01 4.71053630e-01 4.80100811e-01 4.91049051e-01 5.05151510e-01 5.23803115e-01 5.47386706e-01 5.72781920e-01 5.90194702e-01 5.82660198e-01 5.33196688e-01 4.40552175e-01 3.32991987e-01 2.55580723e-01 2.30501488e-01 2.47711778e-01 2.87090749e-01 3.12246174e-01 1.59607027e-02 4.75539267e-02 2.01229960e-01 3.47704470e-01 4.18854386e-01 4.33509082e-01 4.30162191e-01 4.27058250e-01 4.27724570e-01 4.31491405e-01 4.37271416e-01 4.44316924e-01 4.52230483e-01 4.60865021e-01 4.70291942e-01 4.80863690e-01 4.93302286e-01 5.08649647e-01 5.27803600e-01 5.50322115e-01 5.72495699e-01 5.85746646e-01 5.78000069e-01 5.40425956e-01 4.77162033e-01 4.09739226e-01 3.65680844e-01 3.55191976e-01 3.69083285e-01 3.94084156e-01 4.09070611e-01 1.37743726e-02 5.00318855e-02 2.24261627e-01 3.70029628e-01 4.26791877e-01 4.30303842e-01 4.22343940e-01 4.18278575e-01 4.19183642e-01 4.23418462e-01 4.29725587e-01 4.37461227e-01 4.46345747e-01 4.56255376e-01 4.67160136e-01 4.79189128e-01 4.92725998e-01 5.08361220e-01 5.26481330e-01 5.46362162e-01 5.65013528e-01 5.76723933e-01 5.74761510e-01 5.55681169e-01 5.23572743e-01 4.89904255e-01 4.66897547e-01 4.58420575e-01 4.60984439e-01 4.69935805e-01 4.76060718e-01 1.22441435e-02 5.32501191e-02 2.46240765e-01 3.86932611e-01 4.28156257e-01 4.22670603e-01 4.12415475e-01 4.08523887e-01 4.09789115e-01 4.14087385e-01 4.20364350e-01 4.28296238e-01 4.37835246e-01 4.48938131e-01 4.61478889e-01 4.75295067e-01 4.90284950e-01 5.06427824e-01 5.23576975e-01 5.40965796e-01 5.56648433e-01 5.67467451e-01 5.70167959e-01 5.63403130e-01 5.49036622e-01 5.31462550e-01 5.15443385e-01 5.03808618e-01 4.98053700e-01 4.98587310e-01 5.00742793e-01 1.02341911e-02 5.65772504e-02 2.67254382e-01 4.00368005e-01 4.27501619e-01 4.16256219e-01 4.05510306e-01 4.01839942e-01 4.02629375e-01 4.05947059e-01 4.11240369e-01 4.18592483e-01 4.28212911e-01 4.40181166e-01 4.54351991e-01 4.70359445e-01 4.87673014e-01 5.05649030e-01 5.23509800e-01 5.40216446e-01 5.54325521e-01 5.64070582e-01 5.67866325e-01 5.65008283e-01 5.55966496e-01 5.42247474e-01 5.26340842e-01 5.11486292e-01 5.01500368e-01 4.98948395e-01 5.00071585e-01 9.87069961e-03 6.05387911e-02 2.90128320e-01 4.17486101e-01 4.34024841e-01 4.19800639e-01 4.09101039e-01 4.04807538e-01 4.03977334e-01 4.05311137e-01 4.08762902e-01 4.14693117e-01 4.23458695e-01 4.35230106e-01 4.49909210e-01 4.67094958e-01 4.86074656e-01 5.05834222e-01 5.25088847e-01 5.42348385e-01 5.56048334e-01 5.64785123e-01 5.67629635e-01 5.64342141e-01 5.55321157e-01 5.41556418e-01 5.24934411e-01 5.08489132e-01 4.96313065e-01 4.91950303e-01 4.92815286e-01 1.96136739e-02 6.06485307e-02 3.01125348e-01 4.34612542e-01 4.44774896e-01 4.27547187e-01 4.16404665e-01 4.11671013e-01 4.09890264e-01 4.10068035e-01 4.12381053e-01 4.17262048e-01 4.25082445e-01 4.36024129e-01 4.50013369e-01 4.66678083e-01 4.85315502e-01 5.04874051e-01 5.23971677e-01 5.40988088e-01 5.54265857e-01 5.62417686e-01 5.64652979e-01 5.60935080e-01 5.51853299e-01 5.38472414e-01 5.22499681e-01 5.06547391e-01 4.94174600e-01 4.88772929e-01 4.88862693e-01 
