# vtk DataFile Version 2.0
results/iter0.vtk, Created by Freefem++ 
ASCII
DATASET UNSTRUCTURED_GRID
POINTS 961 float
0 0 0
0.033333333 0 0
0.066666667 0 0
0.1 0 0
0.13333333 0 0
0.16666667 0 0
0.2 0 0
0.23333333 0 0
0.26666667 0 0
0.3 0 0
0.33333333 0 0
0.36666667 0 0
0.4 0 0
0.43333333 0 0
0.46666667 0 0
0.5 0 0
0.53333333 0 0
0.56666667 0 0
0.6 0 0
0.63333333 0 0
0.66666667 0 0
0.7 0 0
0.73333333 0 0
0.76666667 0 0
0.8 0 0
0.83333333 0 0
0.86666667 0 0
0.9 0 0
0.93333333 0 0
0.96666667 0 0
1 0 0
0 0.033333333 0
0.033333333 0.033333333 0
0.066666667 0.033333333 0
0.1 0.033333333 0
0.13333333 0.033333333 0
0.16666667 0.033333333 0
0.2 0.033333333 0
0.23333333 0.033333333 0
0.26666667 0.033333333 0
0.3 0.033333333 0
0.33333333 0.033333333 0
0.36666667 0.033333333 0
0.4 0.033333333 0
0.43333333 0.033333333 0
0.46666667 0.033333333 0
0.5 0.033333333 0
0.53333333 0.033333333 0
0.56666667 0.033333333 0
0.6 0.033333333 0
0.63333333 0.033333333 0
0.66666667 0.033333333 0
0.7 0.033333333 0
0.73333333 0.033333333 0
0.76666667 0.033333333 0
0.8 0.033333333 0
0.83333333 0.033333333 0
0.86666667 0.033333333 0
0.9 0.033333333 0
0.93333333 0.033333333 0
0.96666667 0.033333333 0
1 0.033333333 0
0 0.066666667 0
0.033333333 0.066666667 0
0.066666667 0.066666667 0
0.1 0.066666667 0
0.13333333 0.066666667 0
0.16666667 0.066666667 0
0.2 0.066666667 0
0.23333333 0.066666667 0
0.26666667 0.066666667 0
0.3 0.066666667 0
0.33333333 0.066666667 0
0.36666667 0.066666667 0
0.4 0.066666667 0
0.43333333 0.066666667 0
0.46666667 0.066666667 0
0.5 0.066666667 0
0.53333333 0.066666667 0
0.56666667 0.066666667 0
0.6 0.066666667 0
0.63333333 0.066666667 0
0.66666667 0.066666667 0
0.7 0.066666667 0
0.73333333 0.066666667 0
0.76666667 0.066666667 0
0.8 0.066666667 0
0.83333333 0.066666667 0
0.86666667 0.066666667 0
0.9 0.066666667 0
0.93333333 0.066666667 0
0.96666667 0.066666667 0
1 0.066666667 0
0 0.1 0
0.033333333 0.1 0
0.066666667 0.1 0
0.1 0.1 0
0.13333333 0.1 0
0.16666667 0.1 0
0.2 0.1 0
0.23333333 0.1 0
0.26666667 0.1 0
0.3 0.1 0
0.33333333 0.1 0
0.36666667 0.1 0
0.4 0.1 0
0.43333333 0.1 0
0.46666667 0.1 0
0.5 0.1 0
0.53333333 0.1 0
0.56666667 0.1 0
0.6 0.1 0
0.63333333 0.1 0
0.66666667 0.1 0
0.7 0.1 0
0.73333333 0.1 0
0.76666667 0.1 0
0.8 0.1 0
0.83333333 0.1 0
0.86666667 0.1 0
0.9 0.1 0
0.93333333 0.1 0
0.96666667 0.1 0
1 0.1 0
0 0.13333333 0
0.033333333 0.13333333 0
0.066666667 0.13333333 0
0.1 0.13333333 0
0.13333333 0.13333333 0
0.16666667 0.13333333 0
0.2 0.13333333 0
0.23333333 0.13333333 0
0.26666667 0.13333333 0
0.3 0.13333333 0
0.33333333 0.13333333 0
0.36666667 0.13333333 0
0.4 0.13333333 0
0.43333333 0.13333333 0
0.46666667 0.13333333 0
0.5 0.13333333 0
0.53333333 0.13333333 0
0.56666667 0.13333333 0
0.6 0.13333333 0
0.63333333 0.13333333 0
0.66666667 0.13333333 0
0.7 0.13333333 0
0.73333333 0.13333333 0
0.76666667 0.13333333 0
0.8 0.13333333 0
0.83333333 0.13333333 0
0.86666667 0.13333333 0
0.9 0.13333333 0
0.93333333 0.13333333 0
0.96666667 0.13333333 0
1 0.13333333 0
0 0.16666667 0
0.033333333 0.16666667 0
0.066666667 0.16666667 0
0.1 0.16666667 0
0.13333333 0.16666667 0
0.16666667 0.16666667 0
0.2 0.16666667 0
0.23333333 0.16666667 0
0.26666667 0.16666667 0
0.3 0.16666667 0
0.33333333 0.16666667 0
0.36666667 0.16666667 0
0.4 0.16666667 0
0.43333333 0.16666667 0
0.46666667 0.16666667 0
0.5 0.16666667 0
0.53333333 0.16666667 0
0.56666667 0.16666667 0
0.6 0.16666667 0
0.63333333 0.16666667 0
0.66666667 0.16666667 0
0.7 0.16666667 0
0.73333333 0.16666667 0
0.76666667 0.16666667 0
0.8 0.16666667 0
0.83333333 0.16666667 0
0.86666667 0.16666667 0
0.9 0.16666667 0
0.93333333 0.16666667 0
0.96666667 0.16666667 0
1 0.16666667 0
0 0.2 0
0.033333333 0.2 0
0.066666667 0.2 0
0.1 0.2 0
0.13333333 0.2 0
0.16666667 0.2 0
0.2 0.2 0
0.23333333 0.2 0
0.26666667 0.2 0
0.3 0.2 0
0.33333333 0.2 0
0.36666667 0.2 0
0.4 0.2 0
0.43333333 0.2 0
0.46666667 0.2 0
0.5 0.2 0
0.53333333 0.2 0
0.56666667 0.2 0
0.6 0.2 0
0.63333333 0.2 0
0.66666667 0.2 0
0.7 0.2 0
0.73333333 0.2 0
0.76666667 0.2 0
0.8 0.2 0
0.83333333 0.2 0
0.86666667 0.2 0
0.9 0.2 0
0.93333333 0.2 0
0.96666667 0.2 0
1 0.2 0
0 0.23333333 0
0.033333333 0.23333333 0
0.066666667 0.23333333 0
0.1 0.23333333 0
0.13333333 0.23333333 0
0.16666667 0.23333333 0
0.2 0.23333333 0
0.23333333 0.23333333 0
0.26666667 0.23333333 0
0.3 0.23333333 0
0.33333333 0.23333333 0
0.36666667 0.23333333 0
0.4 0.23333333 0
0.43333333 0.23333333 0
0.46666667 0.23333333 0
0.5 0.23333333 0
0.53333333 0.23333333 0
0.56666667 0.23333333 0
0.6 0.23333333 0
0.63333333 0.23333333 0
0.66666667 0.23333333 0
0.7 0.23333333 0
0.73333333 0.23333333 0
0.76666667 0.23333333 0
0.8 0.23333333 0
0.83333333 0.23333333 0
0.86666667 0.23333333 0
0.9 0.23333333 0
0.93333333 0.23333333 0
0.96666667 0.23333333 0
1 0.23333333 0
0 0.26666667 0
0.033333333 0.26666667 0
0.066666667 0.26666667 0
0.1 0.26666667 0
0.13333333 0.26666667 0
0.16666667 0.26666667 0
0.2 0.26666667 0
0.23333333 0.26666667 0
0.26666667 0.26666667 0
0.3 0.26666667 0
0.33333333 0.26666667 0
0.36666667 0.26666667 0
0.4 0.26666667 0
0.43333333 0.26666667 0
0.46666667 0.26666667 0
0.5 0.26666667 0
0.53333333 0.26666667 0
0.56666667 0.26666667 0
0.6 0.26666667 0
0.63333333 0.26666667 0
0.66666667 0.26666667 0
0.7 0.26666667 0
0.73333333 0.26666667 0
0.76666667 0.26666667 0
0.8 0.26666667 0
0.83333333 0.26666667 0
0.86666667 0.26666667 0
0.9 0.26666667 0
0.93333333 0.26666667 0
0.96666667 0.26666667 0
1 0.26666667 0
0 0.3 0
0.033333333 0.3 0
0.066666667 0.3 0
0.1 0.3 0
0.13333333 0.3 0
0.16666667 0.3 0
0.2 0.3 0
0.23333333 0.3 0
0.26666667 0.3 0
0.3 0.3 0
0.33333333 0.3 0
0.36666667 0.3 0
0.4 0.3 0
0.43333333 0.3 0
0.46666667 0.3 0
0.5 0.3 0
0.53333333 0.3 0
0.56666667 0.3 0
0.6 0.3 0
0.63333333 0.3 0
0.66666667 0.3 0
0.7 0.3 0
0.73333333 0.3 0
0.76666667 0.3 0
0.8 0.3 0
0.83333333 0.3 0
0.86666667 0.3 0
0.9 0.3 0
0.93333333 0.3 0
0.96666667 0.3 0
1 0.3 0
0 0.33333333 0
0.033333333 0.33333333 0
0.066666667 0.33333333 0
0.1 0.33333333 0
0.13333333 0.33333333 0
0.16666667 0.33333333 0
0.2 0.33333333 0
0.23333333 0.33333333 0
0.26666667 0.33333333 0
0.3 0.33333333 0
0.33333333 0.33333333 0
0.36666667 0.33333333 0
0.4 0.33333333 0
0.43333333 0.33333333 0
0.46666667 0.33333333 0
0.5 0.33333333 0
0.53333333 0.33333333 0
0.56666667 0.33333333 0
0.6 0.33333333 0
0.63333333 0.33333333 0
0.66666667 0.33333333 0
0.7 0.33333333 0
0.73333333 0.33333333 0
0.76666667 0.33333333 0
0.8 0.33333333 0
0.83333333 0.33333333 0
0.86666667 0.33333333 0
0.9 0.33333333 0
0.93333333 0.33333333 0
0.96666667 0.33333333 0
1 0.33333333 0
0 0.36666667 0
0.033333333 0.36666667 0
0.066666667 0.36666667 0
0.1 0.36666667 0
0.13333333 0.36666667 0
0.16666667 0.36666667 0
0.2 0.36666667 0
0.23333333 0.36666667 0
0.26666667 0.36666667 0
0.3 0.36666667 0
0.33333333 0.36666667 0
0.36666667 0.36666667 0
0.4 0.36666667 0
0.43333333 0.36666667 0
0.46666667 0.36666667 0
0.5 0.36666667 0
0.53333333 0.36666667 0
0.56666667 0.36666667 0
0.6 0.36666667 0
0.63333333 0.36666667 0
0.66666667 0.36666667 0
0.7 0.36666667 0
0.73333333 0.36666667 0
0.76666667 0.36666667 0
0.8 0.36666667 0
0.83333333 0.36666667 0
0.86666667 0.36666667 0
0.9 0.36666667 0
0.93333333 0.36666667 0
0.96666667 0.36666667 0
1 0.36666667 0
0 0.4 0
0.033333333 0.4 0
0.066666667 0.4 0
0.1 0.4 0
0.13333333 0.4 0
0.16666667 0.4 0
0.2 0.4 0
0.23333333 0.4 0
0.26666667 0.4 0
0.3 0.4 0
0.33333333 0.4 0
0.36666667 0.4 0
0.4 0.4 0
0.43333333 0.4 0
0.46666667 0.4 0
0.5 0.4 0
0.53333333 0.4 0
0.56666667 0.4 0
0.6 0.4 0
0.63333333 0.4 0
0.66666667 0.4 0
0.7 0.4 0
0.73333333 0.4 0
0.76666667 0.4 0
0.8 0.4 0
0.83333333 0.4 0
0.86666667 0.4 0
0.9 0.4 0
0.93333333 0.4 0
0.96666667 0.4 0
1 0.4 0
0 0.43333333 0
0.033333333 0.43333333 0
0.066666667 0.43333333 0
0.1 0.43333333 0
0.13333333 0.43333333 0
0.16666667 0.43333333 0
0.2 0.43333333 0
0.23333333 0.43333333 0
0.26666667 0.43333333 0
0.3 0.43333333 0
0.33333333 0.43333333 0
0.36666667 0.43333333 0
0.4 0.43333333 0
0.43333333 0.43333333 0
0.46666667 0.43333333 0
0.5 0.43333333 0
0.53333333 0.43333333 0
0.56666667 0.43333333 0
0.6 0.43333333 0
0.63333333 0.43333333 0
0.66666667 0.43333333 0
0.7 0.43333333 0
0.73333333 0.43333333 0
0.76666667 0.43333333 0
0.8 0.43333333 0
0.83333333 0.43333333 0
0.86666667 0.43333333 0
0.9 0.43333333 0
0.93333333 0.43333333 0
0.96666667 0.43333333 0
1 0.43333333 0
0 0.46666667 0
0.033333333 0.46666667 0
0.066666667 0.46666667 0
0.1 0.46666667 0
0.13333333 0.46666667 0
0.16666667 0.46666667 0
0.2 0.46666667 0
0.23333333 0.46666667 0
0.26666667 0.46666667 0
0.3 0.46666667 0
0.33333333 0.46666667 0
0.36666667 0.46666667 0
0.4 0.46666667 0
0.43333333 0.46666667 0
0.46666667 0.46666667 0
0.5 0.46666667 0
0.53333333 0.46666667 0
0.56666667 0.46666667 0
0.6 0.46666667 0
0.63333333 0.46666667 0
0.66666667 0.46666667 0
0.7 0.46666667 0
0.73333333 0.46666667 0
0.76666667 0.46666667 0
0.8 0.46666667 0
0.83333333 0.46666667 0
0.86666667 0.46666667 0
0.9 0.46666667 0
0.93333333 0.46666667 0
0.96666667 0.46666667 0
1 0.46666667 0
0 0.5 0
0.033333333 0.5 0
0.066666667 0.5 0
0.1 0.5 0
0.13333333 0.5 0
0.16666667 0.5 0
0.2 0.5 0
0.23333333 0.5 0
0.26666667 0.5 0
0.3 0.5 0
0.33333333 0.5 0
0.36666667 0.5 0
0.4 0.5 0
0.43333333 0.5 0
0.46666667 0.5 0
0.5 0.5 0
0.53333333 0.5 0
0.56666667 0.5 0
0.6 0.5 0
0.63333333 0.5 0
0.66666667 0.5 0
0.7 0.5 0
0.73333333 0.5 0
0.76666667 0.5 0
0.8 0.5 0
0.83333333 0.5 0
0.86666667 0.5 0
0.9 0.5 0
0.93333333 0.5 0
0.96666667 0.5 0
1 0.5 0
0 0.53333333 0
0.033333333 0.53333333 0
0.066666667 0.53333333 0
0.1 0.53333333 0
0.13333333 0.53333333 0
0.16666667 0.53333333 0
0.2 0.53333333 0
0.23333333 0.53333333 0
0.26666667 0.53333333 0
0.3 0.53333333 0
0.33333333 0.53333333 0
0.36666667 0.53333333 0
0.4 0.53333333 0
0.43333333 0.53333333 0
0.46666667 0.53333333 0
0.5 0.53333333 0
0.53333333 0.53333333 0
0.56666667 0.53333333 0
0.6 0.53333333 0
0.63333333 0.53333333 0
0.66666667 0.53333333 0
0.7 0.53333333 0
0.73333333 0.53333333 0
0.76666667 0.53333333 0
0.8 0.53333333 0
[...]
CELL_DATA 1920
Scalars  Label int 1
LOOKUP_TABLE FreeFempp_table
0
0
0
0
0
0
0
0
0
0
0
0
0
0
0
0
0
0
0
0
0
0
0
0
0
0
0
0
0
0
0
0
0
0
0
0
0
0
0
0
0
0
0
0
0
0
0
0
0
0
0
0
0
0
0
0
0
0
0
0
0
0
0
0
0
0
0
0
0
0
0
0
0
0
0
0
0
0
0
0
0
0
0
0
0
0
0
0
0
0
0
0
0
0
0
0
0
0
0
0
0
0
0
0
0
0
0
0
0
0
0
0
0
0
0
0
0
0
0
0
0
0
0
0
0
0
0
0
0
0
0
0
0
0
0
0
0
0
0
0
0
0
0
0
0
0
0
0
0
0
0
0
0
0
0
0
0
0
0
0
0
0
0
0
0
0
0
0
0
0
0
0
0
0
0
0
0
0
0
0
0
0
0
0
0
0
0
0
0
0
0
0
0
0
0
0
0
0
0
0
0
0
0
0
0
0
0
0
0
0
0
0
0
0
0
0
0
0
0
0
0
0
0
0
0
0
0
0
0
0
0
0
0
0
0
0
0
0
0
0
0
0
0
0
0
0
0
0
0
0
0
0
0
0
0
0
0
0
0
0
0
0
0
0
0
0
0
0
0
0
0
0
0
0
0
0
0
0
0
0
0
0
0
0
0
0
0
0
0
0
0
0
0
0
0
0
0
0
0
0
0
0
0
0
0
0
0
0
0
0
0
0
0
0
0
0
0
0
0
0
0
0
0
0
0
0
0
0
0
0
0
0
0
0
0
0
0
0
0
0
0
0
0
0
0
0
0
0
0
0
0
0
0
0
0
0
0
0
0
0
0
0
0
0
0
0
0
0
0
0
0
0
0
0
0
0
0
0
0
0
0
0
0
0
0
0
0
0
0
0
0
0
0
0
0
0
0
0
0
0
0
0
0
0
0
0
0
0
0
0
0
0
0
0
0
0
0
0
0
0
0
0
0
0
0
0
0
0
0
0
0
0
0
0
0
0
0
0
0
0
0
0
0
0
0
0
0
0
0
0
0
0
0
0
0
0
0
0
0
0
0
0
0
0
0
0
0
0
0
0
0
0
0
0
0
0
0
0
0
0
0
0
0
0
0
0
0
0
0
0
0
0
0
0
0
0
0
0
0
0
0
0
0
0
0
0
0
0
0
0
0
0
0
0
0
0
0
0
0
0
0
0
0
0
0
0
0
0
0
0
0
0
0
0
0
0
0
0
0
0
0
0
0
0
0
0
0
0
0
0
0
0
0
0
0
0
0
0
0
0
0
0
0
0
0
0
0
0
0
0
0
0
0
0
0
0
0
0
0
0
0
0
0
0
0
0
0
0
0
0
0
0
0
0
0
0
0
0
0
0
0
0
0
0
0
0
0
0
0
0
0
0
0
0
0
0
0
0
0
0
0
0
0
0
0
0
0
0
0
0
0
0
0
0
0
0
0
0
0
0
0
0
0
0
0
0
0
0
0
0
0
0
0
0
0
0
0
0
0
0
0
0
0
0
0
0
0
0
0
0
0
0
0
0
0
0
0
0
0
0
0
0
0
0
0
0
0
0
0
0
0
0
0
0
0
0
0
0
0
0
0
0
0
0
0
0
0
0
0
0
0
0
0
0
0
0
0
0
0
0
0
0
0
0
0
0
0
0
0
0
0
0
0
0
0
0
0
0
0
0
0
0
0
0
0
0
0
0
0
0
0
0
0
0
0
0
0
0
0
0
0
0
0
0
0
0
0
0
0
0
0
0
0
0
0
0
0
0
0
0
0
0
0
0
0
0
0
0
0
0
0
0
0
0
0
0
0
0
0
0
0
0
0
0
0
0
0
0
0
0
0
0
0
0
0
0
0
0
0
0
0
0
0
0
0
0
0
0
0
0
0
0
0
0
0
0
0
0
0
0
0
0
0
0
0
0
0
0
0
0
0
0
0
0
0
0
0
0
0
0
0
0
0
0
0
0
0
0
0
0
0
0
0
0
0
0
0
0
0
0
0
0
0
0
0
0
0
0
0
0
0
0
0
0
0
0
0
0
0
0
0
0
0
0
0
0
0
0
0
0
0
0
0
0
0
0
0
0
0
0
0
0
0
0
0
0
0
0
0
0
0
0
0
0
0
0
0
0
0
0
0
0
0
0
0
0
0
0
0
0
0
0
0
0
0
0
0
0
0
0
0
0
0
0
0
0
0
0
0
0
0
0
0
0
0
0
0
0
0
0
0
0
0
0
0
0
0
0
0
0
0
0
0
0
0
0
0
0
0
0
0
0
0
0
0
0
0
0
0
0
0
0
0
0
0
0
0
0
0
0
0
0
0
0
0
0
0
0
0
0
0
0
0
0
0
0
0
0
0
0
0
0
0
0
0
0
0
0
0
0
0
0
0
0
0
0
0
0
0
0
0
0
0
0
0
0
0
0
0
0
0
0
0
0
0
0
0
0
0
0
0
0
0
0
0
0
0
0
0
0
0
0
0
0
0
0
0
0
0
0
0
0
0
0
0
0
0
0
0
0
0
0
0
0
0
0
0
0
0
0
0
0
0
0
0
0
0
0
0
0
0
0
0
0
0
0
0
0
0
0
0
0
0
0
0
0
0
0
0
0
0
0
0
0
0
0
0
0
0
0
0
0
0
0
0
0
0
0
0
0
0
0
0
0
0
0
0
0
0
0
0
0
0
0
0
0
0
0
0
0
0
0
0
0
0
0
0
0
0
0
0
0
0
0
0
0
0
0
0
0
0
0
0
0
0
0
0
0
0
0
0
0
0
0
0
0
0
0
0
0
0
0
0
0
0
0
0
0
0
0
0
0
0
0
0
0
0
0
0
0
0
0
0
0
0
0
0
0
0
0
0
0
0
0
0
0
0
0
0
0
0
0
0
0
0
0
0
0
0
0
0
0
0
0
0
0
0
0
0
0
0
0
0
0
0
0
0
0
0
0
0
0
0
0
0
0
0
0
0
0
0
0
0
0
0
0
0
0
0
0
0
0
0
0
0
0
0
0
0
0
0
0
0
0
0
0
0
0
0
0
0
0
0
0
0
0
0
0
0
0
0
0
0
0
0
0
0
0
0
0
0
0
0
0
0
0
0
0
0
0
0
0
0
0
0
0
0
0
0
0
0
0
0
0
0
0
0
0
0
0
0
0
0
0
0
0
0
0
0
0
0
0
0
0
0
0
0
0
0
0
0
0
0
0
0
0
0
0
0
0
0
0
0
0
0
0
0
0
0
0
0
0
0
0
0
0
0
0
0
0
0
0
0
0
0
0
0
0
0
0
0
0
0
0
0
0
0
0
0
0
0
0
0
0
0
0
0
0
0
0
0
0
0
0
0
0
0
0
0
0
0
0
0
0
0
0
0
0
0
0
0
0
0
0
0
0
0
0
0
0
0
0
0
0
0
0
0
0
0
0
0
0
0
0
0
0
0
0
0
0
0
0
0
0
0
0
0
0
0
0
0
0
0
0
0
0
0
0
0
0
0
0
0
0
0
0
0
0
0
0
0
0
0
0
0
0
0
0
0
0
0
0
0
0
0
0
0
0
0
0
0
0
0
0
0
0
0
0
0
0
0
0
0
0
0
0
0
0
0
0
0
0
0
0
0
0
0
0
0
0
0
0
0
0
0
0
0
0
0
0
0
0
0
0
0
0
0
0
0
0
0
0
0
0
0
0
0
0
0
0
0
0
0
0
0
0
0
0
0
0
0
0
0
0
0
0
0
0
0
0
0
0
0
0
0
0
0
0
0
0
0
0
0
0
0
0
0
0
0
0
0
0
0
0
0
0
0
0
0
0
0
0
0
0
0
0
0
0
0
0
0
0
0
0
0
0
0
0
0
0
0
0
0
0
0
0
0
0
0
0
0
0
0
0
0
0
0
0
0
0
0
0
0
0
0
0
0
0
0
0
0
0
0
0
0
0
0
0
0
0
0
0
0
0
0
0
0
0
0
0
0
0
0
0
0
0
0
0
0
0
0
0
0
0
0
0
0
0
0
0
0
0
0
0
0
0
0
0
0
0
0
0
0
0
0
0
0
0
0
0
0
0
0
0
0
0
0
0
0
0
1
1
1
1
1
1
1
1
1
1
1
1
1
1
1
1
1
1
1
1
1
1
1
1
1
1
1
1
1
1
2
2
2
2
2
2
2
2
2
2
2
2
2
2
2
2
2
2
2
2
2
2
2
2
2
2
2
2
2
2
3
3
3
3
3
3
3
3
3
3
3
3
3
3
3
3
3
3
3
3
3
3
3
3
3
3
3
3
3
3
4
4
4
4
4
4
4
4
4
4
4
4
4
4
4
4
4
4
4
4
4
4
4
4
4
4
4
4
4
4

LOOKUP_TABLE FreeFempp_table 5
1.00000000 0.00000000 0.00000000 1.00000000
1.00000000 1.00000000 0.00000000 1.00000000
1.00000000 0.00000000 1.00000000 1.00000000
0.00000000 1.00000000 0.00000000 1.00000000
0.00000000 1.00000000 1.00000000 1.00000000

POINT_DATA 961
FIELD FieldData 1
Density 1 961 float
1.92551121e-01 1.73368961e-01 2.17902765e-01 2.30100006e-01 2.20102593e-01 1.99898571e-01 1.69752985e-01 1.24999762e-01 7.50049204e-02 5.60160056e-02 8.33396018e-02 1.92723110e-01 3.14587265e-01 3.65750909e-01 3.93505841e-01 4.27683741e-01 4.97301519e-01 6.30048811e-01 7.67279446e-01 8.13350856e-01 7.82626033e-01 7.61494339e-01 8.12248409e-01 8.17398846e-01 7.84997463e-01 7.80202985e-01 7.63422847e-01 7.00889289e-01 6.99090123e-01 6.98608041e-01 6.23872340e-01 1.05799292e-03 1.16035193e-01 1.66538224e-01 1.74929425e-01 1.64056331e-01 1.47632554e-01 1.26091212e-01 9.67327133e-02 6.20097890e-02 4.00538258e-02 4.61740531e-02 9.81833190e-02 2.15613946e-01 2.69474119e-01 2.97203243e-01 3.27672005e-01 3.95599067e-01 5.94812036e-01 8.47877443e-01 9.03152525e-01 8.44221175e-01 6.98660672e-01 6.80677354e-01 7.56266832e-01 7.55134284e-01 7.52228558e-01 7.59116590e-01 7.34812438e-01 7.59882510e-01 7.34197259e-01 6.84319019e-01 7.24237179e-04 6.03182765e-04 9.58502700e-04 9.45460284e-04 9.66138556e-04 9.78216063e-04 9.86059662e-04 9.90054454e-04 9.80082201e-04 1.03858381e-03 9.40434344e-04 6.74313158e-02 3.21900904e-01 3.52181673e-01 3.64207089e-01 3.79810780e-01 3.95236850e-01 5.22879303e-01 7.71143079e-01 6.04891717e-01 1.24437578e-01 7.32132569e-02 4.59083468e-02 3.50027978e-02 3.16316299e-02 4.27944921e-02 8.73624459e-02 3.44223410e-01 5.52345753e-01 5.93424737e-01 6.09409869e-01 5.11548042e-01 9.40983067e-04 1.01238757e-03 9.30880837e-04 9.53980605e-04 9.69885557e-04 9.81106772e-04 9.88225685e-04 9.90598346e-04 1.00872654e-03 6.31323550e-04 6.38176280e-04 1.04569423e-03 1.16775406e-03 1.49984797e-03 3.50107908e-01 4.41648304e-01 4.35833514e-01 6.84193909e-01 2.40604654e-02 1.92450453e-02 1.82743352e-02 1.13644423e-02 9.65909567e-03 6.96851034e-03 6.28034165e-03 6.93351030e-03 1.57776326e-02 2.22133279e-01 4.55250114e-01 5.37049949e-01 4.98712420e-01 3.82360756e-01 7.45632499e-02 8.04999322e-02 3.73682648e-01 4.01164353e-01 4.01067466e-01 4.05401677e-01 4.13984597e-01 4.14445817e-01 2.48858467e-01 9.76033392e-04 1.09090854e-03 9.83406440e-04 7.94967636e-04 8.23626295e-04 1.15127163e-03 1.22006750e-02 3.65753233e-01 7.02268243e-01 1.00095114e-02 1.79963652e-02 1.24918157e-02 1.11418078e-02 8.87649506e-03 6.55196048e-03 4.33226256e-03 3.80419008e-03 1.03081493e-02 2.58232832e-01 4.96022254e-01 4.56867129e-01 3.35400462e-01 7.70840272e-02 5.83201982e-02 2.85546720e-01 3.78363132e-01 3.91780585e-01 3.96653652e-01 4.02244836e-01 4.03653502e-01 3.89151633e-01 3.85485351e-01 4.17438328e-01 4.22868580e-01 7.16844946e-03 1.15307514e-03 8.03654373e-04 8.50939716e-04 1.17639790e-03 7.13419557e-01 9.61369634e-01 7.18021840e-02 4.84732985e-02 3.46235707e-02 2.99816318e-02 2.61966176e-02 1.52867772e-02 3.61426151e-03 2.64425552e-03 1.64052993e-02 4.62540835e-01 4.27414030e-01 2.79348522e-01 1.20534085e-01 6.71839565e-02 1.82477608e-01 3.49421918e-01 3.96935165e-01 4.14503962e-01 4.24678624e-01 4.31275070e-01 4.30697590e-01 4.24172252e-01 4.30102885e-01 4.38568354e-01 4.37104404e-01 4.45349753e-01 3.96516144e-01 1.47045904e-03 8.61817505e-04 8.32644757e-04 9.83742550e-02 9.81742501e-01 3.00695390e-01 1.22955188e-01 1.45210102e-01 1.25924632e-01 1.21165812e-01 3.17230560e-02 2.30108388e-03 3.43130017e-03 4.61837471e-01 4.63991731e-01 3.01973671e-01 2.21842796e-01 1.33402035e-01 2.06129566e-01 3.63334358e-01 4.27197069e-01 4.54932511e-01 4.70150083e-01 4.79000747e-01 4.81983244e-01 4.79879975e-01 4.77566600e-01 4.76758540e-01 4.72631842e-01 4.68954772e-01 4.71666485e-01 4.71507728e-01 3.89717221e-01 9.37683159e-04 1.04532053e-03 9.14532132e-03 9.73119259e-01 7.07948864e-01 2.92982846e-01 2.58704871e-01 1.94902658e-01 9.33209136e-02 2.46180804e-03 2.88813305e-03 4.88910466e-01 5.97010314e-01 4.96103704e-01 4.46152478e-01 4.02676314e-01 4.18378949e-01 4.88583535e-01 5.22607207e-01 5.37933052e-01 5.45559287e-01 5.47985375e-01 5.46065986e-01 5.40797234e-01 5.34261048e-01 5.27491093e-01 5.19777536e-01 5.11985064e-01 5.05492747e-01 4.98884618e-01 4.91857350e-01 4.80521590e-01 1.22571934e-03 1.41703628e-03 4.41204431e-03 9.55956399e-01 8.64213228e-01 5.88227034e-01 3.35713983e-01 1.57630369e-01 2.22397665e-03 2.41447543e-03 5.04781365e-01 7.36251056e-01 7.71691263e-01 7.41247892e-01 7.14776397e-01 6.91821277e-01 6.74898624e-01 6.60902917e-01 6.49124384e-01 6.38672054e-01 6.28285468e-01 6.17374361e-01 6.06075585e-01 5.94862998e-01 5.83800435e-01 5.72746873e-01 5.62018335e-01 5.51647127e-01 5.41316271e-01 5.31416476e-01 5.19659698e-01 5.06195486e-01 2.02962384e-03 2.16179108e-03 3.55525455e-03 9.05239999e-01 8.75359535e-01 7.75403798e-01 3.17828894e-01 2.44352291e-03 2.14261096e-03 4.43584234e-01 7.57096112e-01 8.59070659e-01 8.36865425e-01 8.25233102e-01 8.06465745e-01 7.82489181e-01 7.56716371e-01 7.32962966e-01 7.12018609e-01 6.93427563e-01 6.76621258e-01 6.61342263e-01 6.47403717e-01 6.34488940e-01 6.22376502e-01 6.10962570e-01 5.99934042e-01 5.88997960e-01 5.78473032e-01 5.68700016e-01 5.59523940e-01 5.39298415e-01 4.43488033e-03 2.89182574e-03 3.52289109e-03 6.28123164e-01 3.44038635e-01 9.58274186e-01 3.14375386e-03 1.66060287e-03 1.19612636e-02 6.25932515e-01 7.49841094e-01 7.50107646e-01 7.74682939e-01 7.87342548e-01 7.86346555e-01 7.74502754e-01 7.57574201e-01 7.39482999e-01 7.21996367e-01 7.05772042e-01 6.91083491e-01 6.77948356e-01 6.66200399e-01 6.55638576e-01 6.45969033e-01 6.36775196e-01 6.27777755e-01 6.19016886e-01 6.11449778e-01 6.08027935e-01 6.12213969e-01 5.89253128e-01 9.57840309e-03 3.37339449e-03 3.67741031e-03 1.95791591e-02 3.59691158e-02 7.33226061e-01 1.69248867e-03 2.39228434e-03 4.16085124e-01 3.65488648e-01 4.23159331e-01 5.29273629e-01 6.32419586e-01 6.95287883e-01 7.20409691e-01 7.25108802e-01 7.20202148e-01 7.11106181e-01 7.00539887e-01 6.89984262e-01 6.80221319e-01 6.71599925e-01 6.64188206e-01 6.57762825e-01 6.51885688e-01 6.46134079e-01 6.40263438e-01 6.34669185e-01 6.32520318e-01 6.41616166e-01 6.67986751e-01 6.61779702e-01 3.11182458e-02 4.95476415e-03 6.75931666e-03 2.01717410e-02 9.73913312e-01 2.73812260e-03 2.58452469e-03 2.71656334e-01 1.42682463e-01 1.65854350e-01 2.46527627e-01 3.89510334e-01 5.30455709e-01 6.13255501e-01 6.52379036e-01 6.68047190e-01 6.71725273e-01 6.69361115e-01 6.64248824e-01 6.58342123e-01 6.52820230e-01 6.48323238e-01 6.44998610e-01 6.42591894e-01 6.40583515e-01 6.38257802e-01 6.34824276e-01 6.30458295e-01 6.30275130e-01 6.42040670e-01 6.95244730e-01 7.77976394e-01 2.52567410e-01 1.99860968e-02 2.44584121e-02 9.81317639e-01 2.98378849e-03 2.67461920e-03 1.73712760e-01 7.58535266e-02 8.24619085e-02 1.26435265e-01 2.33466610e-01 3.85252178e-01 5.02930164e-01 5.71564496e-01 6.07153594e-01 6.23534560e-01 6.29038572e-01 6.28530204e-01 6.25071526e-01 6.20755792e-01 6.17031932e-01 6.14767849e-01 6.14294410e-01 6.15410268e-01 6.17338598e-01 6.18520379e-01 6.16297424e-01 6.07419968e-01 5.86148679e-01 5.62606156e-01 5.84902525e-01 7.69595504e-01 7.92342052e-02 4.19295542e-02 9.87908304e-01 3.62249301e-03 3.12436931e-03 9.42965299e-02 4.47405167e-02 4.94986698e-02 8.50906000e-02 1.78138092e-01 3.14858049e-01 4.33419704e-01 5.12314916e-01 5.59070468e-01 5.84291577e-01 5.95689654e-01 5.98329723e-01 5.95691919e-01 5.90434551e-01 5.84758818e-01 5.80482364e-01 5.78944921e-01 5.80843031e-01 5.86032927e-01 5.93299091e-01 5.99942803e-01 6.01213217e-01 5.85045457e-01 5.21963835e-01 3.47466886e-01 3.16086501e-01 1.95713863e-01 5.17338216e-02 9.82678115e-01 3.24599259e-03 3.32932337e-03 4.50501032e-02 2.85000931e-02 3.41168344e-02 7.42880702e-02 1.77554518e-01 3.06170017e-01 4.09958631e-01 4.83461976e-01 5.31869531e-01 5.61207592e-01 5.76500297e-01 5.81605732e-01 5.79513311e-01 5.72774112e-01 5.63865185e-01 5.55335104e-01 5.49659550e-01 5.48793972e-01 5.53598166e-01 5.63409030e-01 5.76161385e-01 5.89565635e-01 6.01209998e-01 6.04152739e-01 4.92495507e-01 2.83092558e-01 2.50656962e-01 2.44992092e-01 9.70316291e-01 2.88089062e-03 2.78355530e-03 2.16125920e-02 1.98533125e-02 2.77424101e-02 8.51987749e-02 2.18123615e-01 3.35481972e-01 4.17398959e-01 4.78379637e-01 5.22844493e-01 5.52855432e-01 5.70545912e-01 5.78081310e-01 5.77431619e-01 5.70449293e-01 5.59184670e-01 5.46217442e-01 5.34702599e-01 5.27860999e-01 5.27824461e-01 5.34516275e-01 5.45705378e-01 5.59437215e-01 5.77377200e-01 6.08517051e-01 6.40865624e-01 4.77443695e-01 4.06648695e-01 8.08492899e-01 9.50091839e-01 3.37477820e-03 3.01114540e-03 1.15855346e-02 1.38453329e-02 2.87748612e-02 1.27124622e-01 2.89491683e-01 3.78544867e-01 4.38055873e-01 4.86458451e-01 5.25470614e-01 5.54444909e-01 5.73516250e-01 5.83496332e-01 5.85373342e-01 5.80113530e-01 5.68840563e-01 5.53285778e-01 5.36224961e-01 5.21371543e-01 5.12188733e-01 5.10249257e-01 5.14793456e-01 5.25334418e-01 5.42636573e-01 5.72116852e-01 6.30240798e-01 6.82700694e-01 6.75065994e-01 9.25528467e-01 9.03019905e-01 4.02150629e-03 3.59134353e-03 7.51748495e-03 9.33536515e-03 4.08383161e-02 2.20411718e-01 3.61265689e-01 4.18004066e-01 4.60616559e-01 4.99607086e-01 5.33737123e-01 5.61073899e-01 5.80803931e-01 5.92989147e-01 5.97996116e-01 5.96113265e-01 5.87496579e-01 5.72491944e-01 5.52241147e-01 5.29103220e-01 5.06342471e-01 4.88374144e-01 4.81304765e-01 4.93767530e-01 5.26846707e-01 5.74478745e-01 6.50731385e-01 7.55117714e-01 8.58953118e-01 9.23823595e-01 1.53309509e-01 4.67450917e-03 4.12655063e-03 5.82757732e-03 6.79794094e-03 8.16780478e-02 3.36433530e-01 4.14262325e-01 4.48708445e-01 4.80712622e-01 5.13226330e-01 5.43353915e-01 5.68838418e-01 5.88619769e-01 6.02487564e-01 6.10567331e-01 6.12849593e-01 6.08856976e-01 5.97581565e-01 5.77787280e-01 5.48432350e-01 5.09620368e-01 4.68305260e-01 4.47160691e-01 4.72733885e-01 5.45019448e-01 6.37829423e-01 7.51629531e-01 8.36301148e-01 8.85108173e-01 8.27810645e-01 2.16202810e-02 5.68731315e-03 4.83120978e-03 5.04217111e-03 5.59062278e-03 2.03026593e-01 4.19929415e-01 4.50333416e-01 4.71643329e-01 4.97168422e-01 5.24870753e-01 5.51480889e-01 5.74909806e-01 5.94170690e-01 6.09016359e-01 6.19563341e-01 6.25843763e-01 6.27242088e-01 6.21917307e-01 6.06426418e-01 5.75822294e-01 5.26850641e-01 4.72530425e-01 4.50783998e-01 5.07134259e-01 6.33737147e-01 7.49295235e-01 8.36718142e-01 8.58899951e-01 8.46600354e-01 1.48913503e-01 9.58239287e-03 7.13604968e-03 6.99468888e-03 4.53087175e-03 4.90626041e-03 3.50882471e-01 4.61225808e-01 4.74544019e-01 4.88931835e-01 5.09753048e-01 5.33138335e-01 5.56221306e-01 5.77287018e-01 5.95462203e-01 6.10453725e-01 6.22363448e-01 6.31386757e-01 6.37195528e-01 6.37985051e-01 6.29549742e-01 6.05954409e-01 5.68158627e-01 5.41815341e-01 5.74691176e-01 6.99496627e-01 7.89170861e-01 8.58387113e-01 8.79567146e-01 8.33964109e-01 5.13046622e-01 1.72174238e-02 6.90146675e-03 7.06938514e-03 1.48022724e-02 4.13160212e-03 4.42491658e-03 4.27951247e-01 4.80843335e-01 4.90230173e-01 5.01449764e-01 5.17938614e-01 5.36870241e-01 5.56203485e-01 5.74602425e-01 5.91213167e-01 6.05577350e-01 6.17671967e-01 6.27944171e-01 6.37131274e-01 6.45727158e-01 6.53536797e-01 6.61917508e-01 6.83775663e-01 7.45373487e-01 8.17275465e-01 8.38380158e-01 8.32874775e-01 8.55085433e-01 6.69379413e-01 1.32108033e-02 7.75188440e-03 7.13596819e-03 8.49263370e-03 1.00774933e-02 9.07566473e-02 3.80616309e-03 4.04724432e-03 4.59310710e-01 4.94342148e-01 5.00310957e-01 5.08463502e-01 5.20462751e-01 5.34909308e-01 5.50490737e-01 5.66126168e-01 5.80919981e-01 5.94212711e-01 6.05795383e-01 6.16359830e-01 6.28136814e-01 6.45337999e-01 6.73714578e-01 7.19035745e-01 7.83642590e-01 8.53498042e-01 8.79152536e-01 2.94664294e-01 3.43490131e-02 2.04746015e-02 1.44761754e-02 1.07678128e-02 8.57905671e-03 7.34907109e-03 1.01127941e-02 3.61227058e-02 4.91310120e-01 3.53187462e-03 3.73787270e-03 4.79399234e-01 5.06173372e-01 5.05966306e-01 5.09204566e-01 5.16495883e-01 5.26770055e-01 5.38907945e-01 5.51893175e-01 5.64832568e-01 5.76995075e-01 5.88006437e-01 5.98459840e-01 6.11127019e-01 6.32231951e-01 6.70510054e-01 7.30670631e-01 8.03065479e-01 8.64335060e-01 8.91905010e-01 8.31980407e-01 7.16938749e-02 3.20919305e-02 1.90587454e-02 1.32176010e-02 1.81495920e-02 7.98995078e-01 8.72523129e-01 9.04635966e-01 7.71925926e-01 3.28965415e-03 3.47582484e-03 4.98344123e-01 5.14825881e-01 5.06043613e-01 5.03495097e-01 5.06447017e-01 5.13194799e-01 5.22321999e-01 5.32782912e-01 5.43847203e-01 5.54983675e-01 5.65819442e-01 5.76468647e-01 5.88595748e-01 6.07035220e-01 6.39831126e-01 6.92606747e-01 7.58597314e-01 8.19807351e-01 8.63316059e-01 8.79179060e-01 8.69989216e-01 9.13583636e-01 9.50354099e-01 9.57377553e-01 9.62470651e-01 9.53139305e-01 9.31686819e-01 9.28571105e-01 8.55729520e-01 3.05220392e-03 3.24621145e-03 5.19000113e-01 5.17060220e-01 4.98903185e-01 4.91850227e-01 4.91933405e-01 4.96120363e-01 5.02619982e-01 5.10510385e-01 5.19475400e-01 5.29505134e-01 5.40567279e-01 5.52424312e-01 5.64958155e-01 5.79343975e-01 5.99436402e-01 6.30587220e-01 6.74084604e-01 7.24067152e-01 7.73950398e-01 8.17255199e-01 8.50782335e-01 8.80492389e-01 8.95718873e-01 8.99389446e-01 8.97553444e-01 8.89957666e-01 8.68594944e-01 8.65343750e-01 7.93799162e-01 2.72081303e-03 3.04345577e-03 5.41455090e-01 5.08781493e-01 4.84802514e-01 4.76734042e-01 4.75987405e-01 4.78460342e-01 4.82438952e-01 4.87444967e-01 4.93774056e-01 5.02124846e-01 5.13149798e-01 5.26922047e-01 5.42503059e-01 5.58074355e-01 5.72143197e-01 5.85332692e-01 6.00418448e-01 6.19194567e-01 6.39269471e-01 6.54525340e-01 6.62775993e-01 6.66555166e-01 6.57303274e-01 6.49990499e-01 6.48538351e-01 6.53853178e-01 6.70694768e-01 6.86106324e-01 6.67976022e-01 2.12134398e-03 2.63231318e-03 5.81567526e-01 4.92472529e-01 4.69135344e-01 4.62890208e-01 4.61546510e-01 4.61641818e-01 4.62288171e-01 4.63732988e-01 4.66934174e-01 4.73285884e-01 4.84248698e-01 5.00754118e-01 5.22353292e-01 5.46339095e-01 5.67444384e-01 5.78743041e-01 5.73455870e-01 5.46497166e-01 4.96777087e-01 4.38898951e-01 4.15361792e-01 4.42065418e-01 4.85149831e-01 5.15934348e-01 5.29716551e-01 5.36450326e-01 5.42740703e-01 5.48385322e-01 5.81783354e-01 3.08627239e-03 2.34165904e-03 7.04365969e-01 5.36341906e-01 5.23068011e-01 5.19029200e-01 5.17670751e-01 5.16881049e-01 5.16091526e-01 5.15566885e-01 5.16022861e-01 5.18431306e-01 5.23829162e-01 5.32997310e-01 5.45975387e-01 5.61495364e-01 5.76494217e-01 5.85839212e-01 5.82382023e-01 5.57898045e-01 5.07461429e-01 4.43120986e-01 4.06536102e-01 4.26777959e-01 4.81006950e-01 5.24315655e-01 5.45819581e-01 5.50411522e-01 5.47128081e-01 5.41493595e-01 5.56955755e-01 
