# vtk DataFile Version 2.0
results/iter8.vtk, Created by Freefem++ 
ASCII
DATASET UNSTRUCTURED_GRID
POINTS 961 float
0 0 0
0.033333333 0 0
0.066666667 0 0
0.1 0 0
0.13333333 0 0
0.16666667 0 0
0.2 0 0
0.23333333 0 0
0.26666667 0 0
0.3 0 0
0.33333333 0 0
0.36666667 0 0
0.4 0 0
0.43333333 0 0
0.46666667 0 0
0.5 0 0
0.53333333 0 0
0.56666667 0 0
0.6 0 0
0.63333333 0 0
0.66666667 0 0
0.7 0 0
0.73333333 0 0
0.76666667 0 0
0.8 0 0
0.83333333 0 0
0.86666667 0 0
0.9 0 0
0.93333333 0 0
0.96666667 0 0
1 0 0
0 0.033333333 0
0.033333333 0.033333333 0
0.066666667 0.033333333 0
0.1 0.033333333 0
0.13333333 0.033333333 0
0.16666667 0.033333333 0
0.2 0.033333333 0
0.23333333 0.033333333 0
0.26666667 0.033333333 0
0.3 0.033333333 0
0.33333333 0.033333333 0
0.36666667 0.033333333 0
0.4 0.033333333 0
0.43333333 0.033333333 0
0.46666667 0.033333333 0
0.5 0.033333333 0
0.53333333 0.033333333 0
0.56666667 0.033333333 0
0.6 0.033333333 0
0.63333333 0.033333333 0
0.66666667 0.033333333 0
0.7 0.033333333 0
0.73333333 0.033333333 0
0.76666667 0.033333333 0
0.8 0.033333333 0
0.83333333 0.033333333 0
0.86666667 0.033333333 0
0.9 0.033333333 0
0.93333333 0.033333333 0
0.96666667 0.033333333 0
1 0.033333333 0
0 0.066666667 0
0.033333333 0.066666667 0
0.066666667 0.066666667 0
0.1 0.066666667 0
0.13333333 0.066666667 0
0.16666667 0.066666667 0
0.2 0.066666667 0
0.23333333 0.066666667 0
0.26666667 0.066666667 0
0.3 0.066666667 0
0.33333333 0.066666667 0
0.36666667 0.066666667 0
0.4 0.066666667 0
0.43333333 0.066666667 0
0.46666667 0.066666667 0
0.5 0.066666667 0
0.53333333 0.066666667 0
0.56666667 0.066666667 0
0.6 0.066666667 0
0.63333333 0.066666667 0
0.66666667 0.066666667 0
0.7 0.066666667 0
0.73333333 0.066666667 0
0.76666667 0.066666667 0
0.8 0.066666667 0
0.83333333 0.066666667 0
0.86666667 0.066666667 0
0.9 0.066666667 0
0.93333333 0.066666667 0
0.96666667 0.066666667 0
1 0.066666667 0
0 0.1 0
0.033333333 0.1 0
0.066666667 0.1 0
0.1 0.1 0
0.13333333 0.1 0
0.16666667 0.1 0
0.2 0.1 0
0.23333333 0.1 0
0.26666667 0.1 0
0.3 0.1 0
0.33333333 0.1 0
0.36666667 0.1 0
0.4 0.1 0
0.43333333 0.1 0
0.46666667 0.1 0
0.5 0.1 0
0.53333333 0.1 0
0.56666667 0.1 0
0.6 0.1 0
0.63333333 0.1 0
0.66666667 0.1 0
0.7 0.1 0
0.73333333 0.1 0
0.76666667 0.1 0
0.8 0.1 0
0.83333333 0.1 0
0.86666667 0.1 0
0.9 0.1 0
0.93333333 0.1 0
0.96666667 0.1 0
1 0.1 0
0 0.13333333 0
0.033333333 0.13333333 0
0.066666667 0.13333333 0
0.1 0.13333333 0
0.13333333 0.13333333 0
0.16666667 0.13333333 0
0.2 0.13333333 0
0.23333333 0.13333333 0
0.26666667 0.13333333 0
0.3 0.13333333 0
0.33333333 0.13333333 0
0.36666667 0.13333333 0
0.4 0.13333333 0
0.43333333 0.13333333 0
0.46666667 0.13333333 0
0.5 0.13333333 0
0.53333333 0.13333333 0
0.56666667 0.13333333 0
0.6 0.13333333 0
0.63333333 0.13333333 0
0.66666667 0.13333333 0
0.7 0.13333333 0
0.73333333 0.13333333 0
0.76666667 0.13333333 0
0.8 0.13333333 0
0.83333333 0.13333333 0
0.86666667 0.13333333 0
0.9 0.13333333 0
0.93333333 0.13333333 0
0.96666667 0.13333333 0
1 0.13333333 0
0 0.16666667 0
0.033333333 0.16666667 0
0.066666667 0.16666667 0
0.1 0.16666667 0
0.13333333 0.16666667 0
0.16666667 0.16666667 0
0.2 0.16666667 0
0.23333333 0.16666667 0
0.26666667 0.16666667 0
0.3 0.16666667 0
0.33333333 0.16666667 0
0.36666667 0.16666667 0
0.4 0.16666667 0
0.43333333 0.16666667 0
0.46666667 0.16666667 0
0.5 0.16666667 0
0.53333333 0.16666667 0
0.56666667 0.16666667 0
0.6 0.16666667 0
0.63333333 0.16666667 0
0.66666667 0.16666667 0
0.7 0.16666667 0
0.73333333 0.16666667 0
0.76666667 0.16666667 0
0.8 0.16666667 0
0.83333333 0.16666667 0
0.86666667 0.16666667 0
0.9 0.16666667 0
0.93333333 0.16666667 0
0.96666667 0.16666667 0
1 0.16666667 0
0 0.2 0
0.033333333 0.2 0
0.066666667 0.2 0
0.1 0.2 0
0.13333333 0.2 0
0.16666667 0.2 0
0.2 0.2 0
0.23333333 0.2 0
0.26666667 0.2 0
0.3 0.2 0
0.33333333 0.2 0
0.36666667 0.2 0
0.4 0.2 0
0.43333333 0.2 0
0.46666667 0.2 0
0.5 0.2 0
0.53333333 0.2 0
0.56666667 0.2 0
0.6 0.2 0
0.63333333 0.2 0
0.66666667 0.2 0
0.7 0.2 0
0.73333333 0.2 0
0.76666667 0.2 0
0.8 0.2 0
0.83333333 0.2 0
0.86666667 0.2 0
0.9 0.2 0
0.93333333 0.2 0
0.96666667 0.2 0
1 0.2 0
0 0.23333333 0
0.033333333 0.23333333 0
0.066666667 0.23333333 0
0.1 0.23333333 0
0.13333333 0.23333333 0
0.16666667 0.23333333 0
0.2 0.23333333 0
0.23333333 0.23333333 0
0.26666667 0.23333333 0
0.3 0.23333333 0
0.33333333 0.23333333 0
0.36666667 0.23333333 0
0.4 0.23333333 0
0.43333333 0.23333333 0
0.46666667 0.23333333 0
0.5 0.23333333 0
0.53333333 0.23333333 0
0.56666667 0.23333333 0
0.6 0.23333333 0
0.63333333 0.23333333 0
0.66666667 0.23333333 0
0.7 0.23333333 0
0.73333333 0.23333333 0
0.76666667 0.23333333 0
0.8 0.23333333 0
0.83333333 0.23333333 0
0.86666667 0.23333333 0
0.9 0.23333333 0
0.93333333 0.23333333 0
0.96666667 0.23333333 0
1 0.23333333 0
0 0.26666667 0
0.033333333 0.26666667 0
0.066666667 0.26666667 0
0.1 0.26666667 0
0.13333333 0.26666667 0
0.16666667 0.26666667 0
0.2 0.26666667 0
0.23333333 0.26666667 0
0.26666667 0.26666667 0
0.3 0.26666667 0
0.33333333 0.26666667 0
0.36666667 0.26666667 0
0.4 0.26666667 0
0.43333333 0.26666667 0
0.46666667 0.26666667 0
0.5 0.26666667 0
0.53333333 0.26666667 0
0.56666667 0.26666667 0
0.6 0.26666667 0
0.63333333 0.26666667 0
0.66666667 0.26666667 0
0.7 0.26666667 0
0.73333333 0.26666667 0
0.76666667 0.26666667 0
0.8 0.26666667 0
0.83333333 0.26666667 0
0.86666667 0.26666667 0
0.9 0.26666667 0
0.93333333 0.26666667 0
0.96666667 0.26666667 0
1 0.26666667 0
0 0.3 0
0.033333333 0.3 0
0.066666667 0.3 0
0.1 0.3 0
0.13333333 0.3 0
0.16666667 0.3 0
0.2 0.3 0
0.23333333 0.3 0
0.26666667 0.3 0
0.3 0.3 0
0.33333333 0.3 0
0.36666667 0.3 0
0.4 0.3 0
0.43333333 0.3 0
0.46666667 0.3 0
0.5 0.3 0
0.53333333 0.3 0
0.56666667 0.3 0
0.6 0.3 0
0.63333333 0.3 0
0.66666667 0.3 0
0.7 0.3 0
0.73333333 0.3 0
0.76666667 0.3 0
0.8 0.3 0
0.83333333 0.3 0
0.86666667 0.3 0
0.9 0.3 0
0.93333333 0.3 0
0.96666667 0.3 0
1 0.3 0
0 0.33333333 0
0.033333333 0.33333333 0
0.066666667 0.33333333 0
0.1 0.33333333 0
0.13333333 0.33333333 0
0.16666667 0.33333333 0
0.2 0.33333333 0
0.23333333 0.33333333 0
0.26666667 0.33333333 0
0.3 0.33333333 0
0.33333333 0.33333333 0
0.36666667 0.33333333 0
0.4 0.33333333 0
0.43333333 0.33333333 0
0.46666667 0.33333333 0
0.5 0.33333333 0
0.53333333 0.33333333 0
0.56666667 0.33333333 0
0.6 0.33333333 0
0.63333333 0.33333333 0
0.66666667 0.33333333 0
0.7 0.33333333 0
0.73333333 0.33333333 0
0.76666667 0.33333333 0
0.8 0.33333333 0
0.83333333 0.33333333 0
0.86666667 0.33333333 0
0.9 0.33333333 0
0.93333333 0.33333333 0
0.96666667 0.33333333 0
1 0.33333333 0
0 0.36666667 0
0.033333333 0.36666667 0
0.066666667 0.36666667 0
0.1 0.36666667 0
0.13333333 0.36666667 0
0.16666667 0.36666667 0
0.2 0.36666667 0
0.23333333 0.36666667 0
0.26666667 0.36666667 0
0.3 0.36666667 0
0.33333333 0.36666667 0
0.36666667 0.36666667 0
0.4 0.36666667 0
0.43333333 0.36666667 0
0.46666667 0.36666667 0
0.5 0.36666667 0
0.53333333 0.36666667 0
0.56666667 0.36666667 0
0.6 0.36666667 0
0.63333333 0.36666667 0
0.66666667 0.36666667 0
0.7 0.36666667 0
0.73333333 0.36666667 0
0.76666667 0.36666667 0
0.8 0.36666667 0
0.83333333 0.36666667 0
0.86666667 0.36666667 0
0.9 0.36666667 0
0.93333333 0.36666667 0
0.96666667 0.36666667 0
1 0.36666667 0
0 0.4 0
0.033333333 0.4 0
0.066666667 0.4 0
0.1 0.4 0
0.13333333 0.4 0
0.16666667 0.4 0
0.2 0.4 0
0.23333333 0.4 0
0.26666667 0.4 0
0.3 0.4 0
0.33333333 0.4 0
0.36666667 0.4 0
0.4 0.4 0
0.43333333 0.4 0
0.46666667 0.4 0
0.5 0.4 0
0.53333333 0.4 0
0.56666667 0.4 0
0.6 0.4 0
0.63333333 0.4 0
0.66666667 0.4 0
0.7 0.4 0
0.73333333 0.4 0
0.76666667 0.4 0
0.8 0.4 0
0.83333333 0.4 0
0.86666667 0.4 0
0.9 0.4 0
0.93333333 0.4 0
0.96666667 0.4 0
1 0.4 0
0 0.43333333 0
0.033333333 0.43333333 0
0.066666667 0.43333333 0
0.1 0.43333333 0
0.13333333 0.43333333 0
0.16666667 0.43333333 0
0.2 0.43333333 0
0.23333333 0.43333333 0
0.26666667 0.43333333 0
0.3 0.43333333 0
0.33333333 0.43333333 0
0.36666667 0.43333333 0
0.4 0.43333333 0
0.43333333 0.43333333 0
0.46666667 0.43333333 0
0.5 0.43333333 0
0.53333333 0.43333333 0
0.56666667 0.43333333 0
0.6 0.43333333 0
0.63333333 0.43333333 0
0.66666667 0.43333333 0
0.7 0.43333333 0
0.73333333 0.43333333 0
0.76666667 0.43333333 0
0.8 0.43333333 0
0.83333333 0.43333333 0
0.86666667 0.43333333 0
0.9 0.43333333 0
0.93333333 0.43333333 0
0.96666667 0.43333333 0
1 0.43333333 0
0 0.46666667 0
0.033333333 0.46666667 0
0.066666667 0.46666667 0
0.1 0.46666667 0
0.13333333 0.46666667 0
0.16666667 0.46666667 0
0.2 0.46666667 0
0.23333333 0.46666667 0
0.26666667 0.46666667 0
0.3 0.46666667 0
0.33333333 0.46666667 0
0.36666667 0.46666667 0
0.4 0.46666667 0
0.43333333 0.46666667 0
0.46666667 0.46666667 0
0.5 0.46666667 0
0.53333333 0.46666667 0
0.56666667 0.46666667 0
0.6 0.46666667 0
0.63333333 0.46666667 0
0.66666667 0.46666667 0
0.7 0.46666667 0
0.73333333 0.46666667 0
0.76666667 0.46666667 0
0.8 0.46666667 0
0.83333333 0.46666667 0
0.86666667 0.46666667 0
0.9 0.46666667 0
0.93333333 0.46666667 0
0.96666667 0.46666667 0
1 0.46666667 0
0 0.5 0
0.033333333 0.5 0
0.066666667 0.5 0
0.1 0.5 0
0.13333333 0.5 0
0.16666667 0.5 0
0.2 0.5 0
0.23333333 0.5 0
0.26666667 0.5 0
0.3 0.5 0
0.33333333 0.5 0
0.36666667 0.5 0
0.4 0.5 0
0.43333333 0.5 0
0.46666667 0.5 0
0.5 0.5 0
0.53333333 0.5 0
0.56666667 0.5 0
0.6 0.5 0
0.63333333 0.5 0
0.66666667 0.5 0
0.7 0.5 0
0.73333333 0.5 0
0.76666667 0.5 0
0.8 0.5 0
0.83333333 0.5 0
0.86666667 0.5 0
0.9 0.5 0
0.93333333 0.5 0
0.96666667 0.5 0
1 0.5 0
0 0.53333333 0
0.033333333 0.53333333 0
0.066666667 0.53333333 0
0.1 0.53333333 0
0.13333333 0.53333333 0
0.16666667 0.53333333 0
0.2 0.53333333 0
0.23333333 0.53333333 0
0.26666667 0.53333333 0
0.3 0.53333333 0
0.33333333 0.53333333 0
0.36666667 0.53333333 0
0.4 0.53333333 0
0.43333333 0.53333333 0
0.46666667 0.53333333 0
0.5 0.53333333 0
0.53333333 0.53333333 0
0.56666667 0.53333333 0
0.6 0.53333333 0
0.63333333 0.53333333 0
0.66666667 0.53333333 0
0.7 0.53333333 0
0.73333333 0.53333333 0
0.76666667 0.53333333 0
0.8 0.53333333 0
[...]
CELL_DATA 1920
Scalars  Label int 1
LOOKUP_TABLE FreeFempp_table
0
0
0
0
0
0
0
0
0
0
0
0
0
0
0
0
0
0
0
0
0
0
0
0
0
0
0
0
0
0
0
0
0
0
0
0
0
0
0
0
0
0
0
0
0
0
0
0
0
0
0
0
0
0
0
0
0
0
0
0
0
0
0
0
0
0
0
0
0
0
0
0
0
0
0
0
0
0
0
0
0
0
0
0
0
0
0
0
0
0
0
0
0
0
0
0
0
0
0
0
0
0
0
0
0
0
0
0
0
0
0
0
0
0
0
0
0
0
0
0
0
0
0
0
0
0
0
0
0
0
0
0
0
0
0
0
0
0
0
0
0
0
0
0
0
0
0
0
0
0
0
0
0
0
0
0
0
0
0
0
0
0
0
0
0
0
0
0
0
0
0
0
0
0
0
0
0
0
0
0
0
0
0
0
0
0
0
0
0
0
0
0
0
0
0
0
0
0
0
0
0
0
0
0
0
0
0
0
0
0
0
0
0
0
0
0
0
0
0
0
0
0
0
0
0
0
0
0
0
0
0
0
0
0
0
0
0
0
0
0
0
0
0
0
0
0
0
0
0
0
0
0
0
0
0
0
0
0
0
0
0
0
0
0
0
0
0
0
0
0
0
0
0
0
0
0
0
0
0
0
0
0
0
0
0
0
0
0
0
0
0
0
0
0
0
0
0
0
0
0
0
0
0
0
0
0
0
0
0
0
0
0
0
0
0
0
0
0
0
0
0
0
0
0
0
0
0
0
0
0
0
0
0
0
0
0
0
0
0
0
0
0
0
0
0
0
0
0
0
0
0
0
0
0
0
0
0
0
0
0
0
0
0
0
0
0
0
0
0
0
0
0
0
0
0
0
0
0
0
0
0
0
0
0
0
0
0
0
0
0
0
0
0
0
0
0
0
0
0
0
0
0
0
0
0
0
0
0
0
0
0
0
0
0
0
0
0
0
0
0
0
0
0
0
0
0
0
0
0
0
0
0
0
0
0
0
0
0
0
0
0
0
0
0
0
0
0
0
0
0
0
0
0
0
0
0
0
0
0
0
0
0
0
0
0
0
0
0
0
0
0
0
0
0
0
0
0
0
0
0
0
0
0
0
0
0
0
0
0
0
0
0
0
0
0
0
0
0
0
0
0
0
0
0
0
0
0
0
0
0
0
0
0
0
0
0
0
0
0
0
0
0
0
0
0
0
0
0
0
0
0
0
0
0
0
0
0
0
0
0
0
0
0
0
0
0
0
0
0
0
0
0
0
0
0
0
0
0
0
0
0
0
0
0
0
0
0
0
0
0
0
0
0
0
0
0
0
0
0
0
0
0
0
0
0
0
0
0
0
0
0
0
0
0
0
0
0
0
0
0
0
0
0
0
0
0
0
0
0
0
0
0
0
0
0
0
0
0
0
0
0
0
0
0
0
0
0
0
0
0
0
0
0
0
0
0
0
0
0
0
0
0
0
0
0
0
0
0
0
0
0
0
0
0
0
0
0
0
0
0
0
0
0
0
0
0
0
0
0
0
0
0
0
0
0
0
0
0
0
0
0
0
0
0
0
0
0
0
0
0
0
0
0
0
0
0
0
0
0
0
0
0
0
0
0
0
0
0
0
0
0
0
0
0
0
0
0
0
0
0
0
0
0
0
0
0
0
0
0
0
0
0
0
0
0
0
0
0
0
0
0
0
0
0
0
0
0
0
0
0
0
0
0
0
0
0
0
0
0
0
0
0
0
0
0
0
0
0
0
0
0
0
0
0
0
0
0
0
0
0
0
0
0
0
0
0
0
0
0
0
0
0
0
0
0
0
0
0
0
0
0
0
0
0
0
0
0
0
0
0
0
0
0
0
0
0
0
0
0
0
0
0
0
0
0
0
0
0
0
0
0
0
0
0
0
0
0
0
0
0
0
0
0
0
0
0
0
0
0
0
0
0
0
0
0
0
0
0
0
0
0
0
0
0
0
0
0
0
0
0
0
0
0
0
0
0
0
0
0
0
0
0
0
0
0
0
0
0
0
0
0
0
0
0
0
0
0
0
0
0
0
0
0
0
0
0
0
0
0
0
0
0
0
0
0
0
0
0
0
0
0
0
0
0
0
0
0
0
0
0
0
0
0
0
0
0
0
0
0
0
0
0
0
0
0
0
0
0
0
0
0
0
0
0
0
0
0
0
0
0
0
0
0
0
0
0
0
0
0
0
0
0
0
0
0
0
0
0
0
0
0
0
0
0
0
0
0
0
0
0
0
0
0
0
0
0
0
0
0
0
0
0
0
0
0
0
0
0
0
0
0
0
0
0
0
0
0
0
0
0
0
0
0
0
0
0
0
0
0
0
0
0
0
0
0
0
0
0
0
0
0
0
0
0
0
0
0
0
0
0
0
0
0
0
0
0
0
0
0
0
0
0
0
0
0
0
0
0
0
0
0
0
0
0
0
0
0
0
0
0
0
0
0
0
0
0
0
0
0
0
0
0
0
0
0
0
0
0
0
0
0
0
0
0
0
0
0
0
0
0
0
0
0
0
0
0
0
0
0
0
0
0
0
0
0
0
0
0
0
0
0
0
0
0
0
0
0
0
0
0
0
0
0
0
0
0
0
0
0
0
0
0
0
0
0
0
0
0
0
0
0
0
0
0
0
0
0
0
0
0
0
0
0
0
0
0
0
0
0
0
0
0
0
0
0
0
0
0
0
0
0
0
0
0
0
0
0
0
0
0
0
0
0
0
0
0
0
0
0
0
0
0
0
0
0
0
0
0
0
0
0
0
0
0
0
0
0
0
0
0
0
0
0
0
0
0
0
0
0
0
0
0
0
0
0
0
0
0
0
0
0
0
0
0
0
0
0
0
0
0
0
0
0
0
0
0
0
0
0
0
0
0
0
0
0
0
0
0
0
0
0
0
0
0
0
0
0
0
0
0
0
0
0
0
0
0
0
0
0
0
0
0
0
0
0
0
0
0
0
0
0
0
0
0
0
0
0
0
0
0
0
0
0
0
0
0
0
0
0
0
0
0
0
0
0
0
0
0
0
0
0
0
0
0
0
0
0
0
0
0
0
0
0
0
0
0
0
0
0
0
0
0
0
0
0
0
0
0
0
0
0
0
0
0
0
0
0
0
0
0
0
0
0
0
0
0
0
0
0
0
0
0
0
0
0
0
0
0
0
0
0
0
0
0
0
0
0
0
0
0
0
0
0
0
0
0
0
0
0
0
0
0
0
0
0
0
0
0
0
0
0
0
0
0
0
0
0
0
0
0
0
0
0
0
0
0
0
0
0
0
0
0
0
0
0
0
0
0
0
0
0
0
0
0
0
0
0
0
0
0
0
0
0
0
0
0
0
0
0
0
0
0
0
0
0
0
0
0
0
0
0
0
0
0
0
0
0
0
0
0
0
0
0
0
0
0
0
0
0
0
0
0
0
0
0
0
0
0
0
0
0
0
0
0
0
0
0
0
0
0
0
0
0
0
0
0
0
0
0
0
0
0
0
0
0
0
0
0
0
0
0
0
0
0
0
0
0
0
0
0
0
0
0
0
0
0
0
0
0
0
0
0
0
0
0
0
0
0
0
0
0
0
0
0
0
0
0
0
0
0
0
0
0
0
0
0
0
0
0
0
0
0
0
0
0
0
0
0
0
0
0
0
0
0
0
0
0
0
0
0
0
0
0
0
0
0
0
0
0
0
0
0
0
0
0
0
0
0
0
0
0
0
0
0
0
0
0
0
0
0
0
0
0
0
0
0
0
0
0
0
0
0
0
0
0
0
0
0
0
0
0
0
0
0
0
0
0
0
0
0
0
0
0
0
0
0
0
0
0
0
0
0
0
0
0
0
0
0
0
0
0
0
0
0
0
0
0
0
0
0
0
0
0
0
0
0
0
0
0
0
0
0
0
0
0
0
0
0
0
0
0
0
0
0
0
0
0
0
0
0
0
0
0
0
0
0
0
0
0
0
0
0
0
0
0
0
0
0
0
0
0
0
0
0
0
0
0
0
0
0
0
0
0
0
0
0
0
0
0
0
0
0
0
0
0
0
0
0
0
0
0
0
0
0
0
0
0
0
0
0
1
1
1
1
1
1
1
1
1
1
1
1
1
1
1
1
1
1
1
1
1
1
1
1
1
1
1
1
1
1
2
2
2
2
2
2
2
2
2
2
2
2
2
2
2
2
2
2
2
2
2
2
2
2
2
2
2
2
2
2
3
3
3
3
3
3
3
3
3
3
3
3
3
3
3
3
3
3
3
3
3
3
3
3
3
3
3
3
3
3
4
4
4
4
4
4
4
4
4
4
4
4
4
4
4
4
4
4
4
4
4
4
4
4
4
4
4
4
4
4

LOOKUP_TABLE FreeFempp_table 5
1.00000000 0.00000000 0.00000000 1.00000000
1.00000000 1.00000000 0.00000000 1.00000000
1.00000000 0.00000000 1.00000000 1.00000000
0.00000000 1.00000000 0.00000000 1.00000000
0.00000000 1.00000000 1.00000000 1.00000000

POINT_DATA 961
FIELD FieldData 1
Density 1 961 float
6.98773265e-02 7.52430269e-03 4.76744724e-03 3.45021067e-03 1.97171560e-03 2.07823096e-03 9.55888536e-03 1.51802629e-01 4.68201905e-01 5.18323660e-01 2.62702256e-01 4.52968932e-04 1.45576661e-04 1.92515552e-04 7.24884272e-01 9.85607564e-01 9.94470239e-01 9.91690636e-01 9.50613976e-01 8.02350104e-01 9.41597998e-01 9.89261925e-01 9.89910483e-01 9.89122033e-01 9.83987033e-01 9.74933863e-01 9.67802644e-01 9.63857353e-01 9.63381708e-01 9.65889037e-01 8.74765992e-01 1.01038022e-04 1.02312682e-04 1.04926061e-04 1.10176130e-04 1.23596154e-04 1.84986566e-04 1.14232511e-03 4.40037474e-02 2.98713744e-01 2.62950718e-01 3.23237330e-02 2.90579221e-04 1.34728412e-04 1.34435308e-04 1.87636122e-01 9.97197330e-01 9.99421239e-01 9.99452055e-01 9.96493161e-01 8.78940344e-01 8.40537965e-01 9.95805025e-01 9.98866975e-01 9.97994840e-01 9.97094274e-01 9.95972693e-01 9.94690895e-01 9.93263543e-01 9.92249250e-01 9.92516041e-01 9.64944780e-01 1.00672129e-04 1.01546939e-04 1.03122409e-04 1.03569779e-04 1.03344290e-04 1.02952137e-04 1.03006627e-04 1.03398037e-04 1.01503887e-04 1.12738395e-04 2.57947337e-04 2.54678336e-04 1.49811865e-04 1.47324361e-04 6.93419576e-02 9.95356500e-01 9.99046147e-01 9.98992443e-01 9.90774632e-01 2.56676495e-01 4.55007330e-03 7.98371062e-03 1.28421769e-01 9.30226982e-01 9.83104825e-01 9.84981716e-01 9.82650876e-01 9.81394351e-01 9.78439987e-01 9.77705479e-01 9.42797482e-01 6.93404138e-01 5.34776211e-01 1.25739796e-04 1.09179338e-04 1.04988350e-04 1.03545564e-04 1.03053433e-04 1.03259583e-04 1.02427039e-04 1.02677353e-04 1.03978098e-04 1.14168106e-04 2.06472032e-04 2.08627403e-04 1.29367784e-01 9.85552192e-01 9.98419583e-01 9.98690367e-01 9.86005843e-01 6.35691881e-02 6.44423417e-04 3.55897646e-04 2.91389908e-04 3.83929786e-04 2.02116072e-02 8.07427287e-01 7.99729884e-01 8.52860510e-01 9.03451860e-01 9.05335546e-01 8.80113780e-01 6.94276273e-01 6.06244266e-01 5.21754861e-01 2.14463860e-01 1.81459844e-01 3.17602038e-01 3.98178995e-01 1.79165095e-01 1.58732480e-04 1.07147331e-04 1.03395687e-04 1.03215767e-04 1.09398934e-04 5.31391590e-04 3.98332238e-01 9.58001435e-01 9.96801138e-01 9.98162448e-01 9.85775530e-01 1.17555410e-01 1.23186421e-03 5.48206153e-04 2.43874922e-04 2.00358540e-04 2.11686653e-04 4.61189868e-03 1.35259584e-01 2.37294793e-01 6.14251137e-01 7.49879062e-01 7.90820658e-01 7.01646268e-01 6.06581807e-01 6.02783978e-01 3.67832333e-01 1.80070922e-01 3.15007597e-01 5.72965801e-01 6.66495264e-01 6.82096720e-01 6.17321730e-01 1.45170197e-04 1.04325911e-04 1.03612823e-04 1.14588976e-04 4.96673919e-02 9.10531521e-01 9.93452370e-01 9.97272670e-01 9.88377392e-01 4.35635984e-01 6.50084065e-03 2.00302666e-03 1.12462952e-03 3.11202457e-04 1.47307306e-04 1.80084156e-04 2.60026497e-03 2.91121043e-02 2.41554052e-01 6.39389277e-01 7.31235325e-01 7.21688032e-01 6.48296773e-01 6.72778249e-01 6.01373017e-01 3.81956249e-01 3.73295784e-01 5.55477083e-01 6.54875755e-01 6.83278620e-01 6.90179765e-01 5.44223785e-01 1.21969213e-04 1.03775405e-04 1.05313702e-04 2.19824171e-04 8.17061007e-01 9.88484502e-01 9.95916009e-01 9.90396678e-01 8.14547896e-01 6.86030164e-02 1.57256071e-02 1.27790617e-02 6.85432320e-03 2.53710779e-04 1.38938150e-04 1.45202706e-04 3.89514898e-04 6.74106106e-02 6.35599792e-01 7.14021206e-01 7.33116031e-01 6.80557370e-01 7.00688958e-01 6.53843224e-01 4.75410789e-01 4.16669011e-01 5.23412824e-01 6.21399820e-01 6.60190105e-01 6.73239589e-01 6.07400775e-01 3.84471699e-04 1.05693944e-04 1.04630810e-04 1.26060826e-04 5.68526924e-01 9.79620516e-01 9.94020402e-01 9.91424322e-01 9.43048060e-01 4.23231810e-01 9.62035358e-02 6.47469983e-02 6.81737214e-02 3.22066769e-02 1.83186799e-04 1.32765766e-04 1.35004710e-04 2.30723090e-04 4.52845573e-01 6.92456663e-01 7.30557084e-01 6.80714965e-01 6.85070276e-01 6.02920532e-01 3.79968852e-01 3.34762961e-01 4.61942196e-01 5.78893960e-01 6.28103495e-01 6.38607919e-01 5.65781355e-01 2.00547930e-03 1.08231630e-04 1.04695151e-04 1.12505099e-04 1.35134056e-01 9.62872982e-01 9.90958571e-01 9.91612911e-01 9.75898266e-01 8.22557807e-01 3.63664478e-01 1.71255171e-01 1.69741809e-01 2.38755390e-01 1.56949416e-01 4.62708733e-04 1.36014074e-04 1.24926330e-04 4.66844212e-04 6.59307361e-01 7.14369774e-01 6.51169658e-01 6.45691991e-01 5.38587093e-01 2.48052731e-01 1.75046042e-01 3.44901532e-01 5.32585442e-01 5.96144259e-01 5.84993899e-01 4.46750402e-01 4.71412577e-03 1.10939895e-04 1.04793580e-04 1.08045868e-04 8.77700001e-03 9.23134685e-01 9.84580278e-01 9.90697980e-01 9.85936165e-01 9.45743322e-01 7.32462227e-01 3.83870780e-01 3.16028386e-01 3.99462909e-01 4.79491472e-01 4.36534077e-01 2.94229090e-01 1.22138052e-04 1.16894174e-04 3.96858573e-01 6.79424822e-01 5.87043524e-01 5.83508313e-01 5.01470983e-01 1.92144662e-01 7.05431849e-02 1.62721142e-01 4.56342846e-01 5.68830311e-01 5.14625371e-01 2.51189262e-01 5.22906333e-03 1.15061011e-04 1.04984909e-04 1.06393651e-04 8.40004068e-04 8.14877450e-01 9.68677163e-01 9.87672091e-01 9.89419341e-01 9.77181673e-01 9.10846770e-01 6.65400267e-01 5.02751172e-01 5.33368528e-01 6.14638805e-01 6.26843989e-01 6.75149381e-01 4.15201575e-01 1.15456336e-04 1.22795056e-04 6.29763603e-01 4.90263671e-01 4.88167465e-01 4.34035718e-01 1.96360201e-01 4.10504118e-02 4.33305763e-02 2.41274580e-01 4.79405940e-01 3.99619520e-01 8.27844366e-02 2.94647249e-03 1.22046542e-04 1.05593608e-04 1.05838910e-04 2.28351084e-04 5.06271541e-01 9.25321519e-01 9.79459882e-01 9.89948452e-01 9.87329125e-01 9.66472864e-01 8.58538628e-01 6.80939555e-01 6.24891639e-01 6.75079763e-01 6.79154396e-01 6.93301082e-01 6.15171790e-01 1.50106367e-04 1.31898225e-04 6.39019549e-01 4.59278733e-01 4.40667987e-01 3.57887119e-01 1.62709966e-01 3.94903384e-02 1.77493356e-02 4.75483276e-02 1.62484303e-01 1.09341919e-01 1.15152383e-02 9.96576739e-04 1.32287678e-04 1.07149543e-04 1.06042840e-04 1.40298347e-04 6.23889044e-02 7.78183341e-01 9.55534637e-01 9.87654269e-01 9.91103649e-01 9.84490097e-01 9.44269657e-01 8.18697989e-01 6.86225295e-01 6.99800253e-01 6.98413014e-01 6.88163579e-01 5.62276602e-01 1.39706593e-04 1.43537211e-04 8.39136183e-01 7.50249803e-01 6.77654028e-01 5.37227750e-01 2.11162016e-01 5.07876724e-02 1.54779525e-02 1.53159443e-02 2.75867097e-02 6.69581071e-03 1.05114176e-03 3.15735844e-04 1.37136798e-04 1.10637797e-04 1.07380161e-04 1.22516794e-04 1.58055930e-03 2.56906778e-01 8.62219036e-01 9.79122221e-01 9.91982579e-01 9.90968704e-01 9.77095127e-01 9.10329878e-01 7.39688873e-01 7.08920777e-01 7.06253648e-01 6.55339301e-01 1.82504088e-01 1.36431860e-04 1.39014795e-04 9.86278474e-01 9.93562698e-01 9.83422220e-01 9.56444502e-01 8.16563666e-01 3.24680716e-01 6.69017434e-02 1.73690077e-02 1.33892735e-02 4.42895014e-03 4.82334872e-04 1.86542718e-04 1.32134126e-04 1.16421535e-04 1.11170077e-04 1.20964782e-04 3.28454480e-04 1.20751942e-02 4.59093362e-01 9.46584404e-01 9.89727199e-01 9.93073404e-01 9.89003003e-01 9.60513413e-01 8.05094779e-01 7.23356903e-01 7.09219038e-01 5.90301812e-01 5.00316673e-04 1.38920601e-04 1.35207811e-04 9.98305082e-01 9.99790609e-01 9.99510288e-01 9.99032080e-01 9.97530878e-01 9.89749134e-01 9.09518778e-01 3.49903673e-01 3.23339477e-02 8.04361794e-03 5.08653407e-04 1.54523048e-04 1.26894971e-04 1.21323610e-04 1.19795848e-04 1.30105080e-04 2.86255585e-04 2.44485377e-03 9.18929279e-02 8.11737835e-01 9.76953626e-01 9.91836786e-01 9.92823720e-01 9.82207894e-01 8.77460182e-01 7.50780582e-01 7.05097198e-01 4.79595989e-01 1.58450086e-04 1.53104760e-04 1.45654878e-04 9.98164654e-01 9.99689877e-01 9.98697877e-01 9.99513507e-01 9.99572754e-01 9.99574006e-01 9.99221861e-01 9.96518075e-01 9.27372456e-01 1.67884365e-01 1.41819613e-03 1.46918333e-04 1.18214804e-04 1.20753393e-04 1.33123845e-04 1.64197190e-04 5.18462621e-04 4.72137006e-03 5.06606400e-02 4.84978080e-01 8.93067241e-01 9.77718174e-01 9.92231071e-01 9.90743339e-01 9.38703179e-01 7.91698158e-01 6.84621990e-01 1.61807835e-01 1.30922577e-04 1.40904260e-04 2.28028162e-04 9.94070172e-01 8.62040818e-01 8.81674408e-04 1.79721311e-01 9.84650075e-01 9.99013186e-01 9.99686480e-01 9.99733329e-01 9.99441206e-01 9.95002568e-01 5.88875473e-01 1.99259302e-04 1.15562980e-04 1.11877307e-04 1.29787688e-04 2.49352044e-04 1.71335111e-03 1.24636292e-02 2.51603611e-02 1.10207155e-01 3.94083023e-01 6.91800952e-01 9.72404361e-01 9.94098306e-01 9.77642357e-01 8.50862861e-01 6.10069931e-01 1.51130068e-03 1.28266300e-04 1.29216729e-04 4.64635110e-03 9.88063872e-01 6.59750402e-01 2.85944989e-04 5.60476852e-04 1.45935174e-02 3.08626860e-01 9.88968313e-01 9.99503911e-01 9.99819875e-01 9.99804258e-01 9.99320626e-01 4.34575021e-01 1.29579115e-04 1.09882494e-04 1.11087946e-04 1.38216274e-04 4.99638205e-04 2.21958570e-03 1.97854335e-03 4.21443442e-03 1.82003360e-02 1.01791052e-02 1.85707867e-01 9.93571997e-01 9.93968308e-01 9.03846920e-01 4.56245899e-01 2.28433317e-04 1.34290676e-04 1.29930908e-04 5.17174423e-01 9.67505693e-01 9.62103009e-01 2.20169924e-04 2.41467511e-04 1.40090263e-03 3.22888652e-03 1.22228991e-02 7.61517882e-01 9.99078691e-01 9.99847531e-01 9.99901056e-01 9.99831617e-01 2.10160352e-02 1.18772281e-04 1.09189794e-04 1.10738125e-04 1.23681079e-04 1.67703693e-04 1.85941870e-04 3.23208253e-04 1.27905922e-03 4.19077754e-04 2.56419560e-04 9.67842221e-01 9.98416364e-01 9.31113839e-01 1.29667923e-01 1.46564096e-04 1.39618423e-04 1.42584860e-04 6.58133328e-01 9.44455802e-01 9.61315930e-01 1.83694312e-04 1.73817723e-04 3.71667324e-04 6.89591630e-04 1.22104643e-03 6.49612537e-03 7.34341264e-01 9.98948693e-01 9.99858916e-01 9.99940038e-01 9.99905527e-01 1.83150952e-03 1.18732416e-04 1.10889159e-04 1.12342204e-04 1.25760751e-04 1.19779776e-04 1.53787158e-04 4.05241532e-04 1.45428770e-04 1.35684022e-04 2.27848575e-01 9.99425590e-01 9.65613484e-01 6.96542207e-03 1.29504129e-04 1.32908317e-04 1.92784457e-04 6.72126770e-01 9.24618423e-01 9.48086023e-01 1.60242344e-04 1.41892611e-04 2.03006566e-04 4.64671088e-04 9.20636812e-04 3.51549545e-03 7.96730071e-02 9.45682943e-01 9.98842955e-01 9.99872863e-01 9.99957204e-01 9.99928474e-01 2.67892634e-03 1.41394310e-04 1.22421348e-04 1.26470099e-04 1.17108022e-04 1.44076388e-04 3.00626591e-04 1.95456931e-04 1.18200456e-04 2.01545120e-03 9.99723852e-01 9.94111657e-01 7.02231075e-04 1.26526109e-04 1.26978848e-04 5.47241943e-04 6.83289886e-01 9.08303142e-01 9.34943974e-01 1.46929495e-04 1.28594547e-04 1.59019430e-04 7.23639678e-04 3.06061003e-03 2.70480979e-02 2.99801379e-01 7.65333652e-01 9.71069217e-01 9.98712778e-01 9.99883771e-01 9.99965906e-01 9.99930084e-01 1.65716466e-02 2.50610639e-04 1.49428190e-04 3.10928968e-04 1.47157174e-03 2.20810733e-04 3.24520224e-04 1.22398953e-04 1.78322084e-02 9.99821663e-01 9.98811245e-01 2.75454746e-04 1.30467408e-04 1.28299231e-04 1.75647121e-02 6.99039817e-01 8.94489944e-01 9.21817303e-01 1.37810523e-04 1.23000806e-04 1.41866622e-04 6.26780698e-03 1.76476970e-01 6.15942776e-01 7.72514284e-01 8.13456774e-01 8.81589413e-01 9.74076688e-01 9.98865962e-01 9.99908328e-01 9.99973476e-01 9.99946713e-01 1.50983259e-01 8.31286074e-04 1.41155929e-03 5.90346977e-02 1.91516131e-02 1.72841491e-03 1.02636252e-04 9.75404799e-01 9.99880135e-01 9.99445200e-01 1.92129373e-04 1.36500967e-04 1.36824558e-04 3.30369234e-01 7.14398503e-01 8.82834554e-01 9.08846080e-01 1.29106149e-04 1.20476645e-04 1.36071452e-04 2.40470096e-01 6.77225113e-01 8.17233980e-01 8.40863407e-01 8.35823417e-01 8.49867523e-01 8.84438157e-01 9.71306443e-01 9.99001563e-01 9.99937236e-01 9.99982417e-01 9.99975204e-01 3.19728345e-01 1.59936922e-03 7.15397578e-03 5.77853434e-03 2.93033477e-03 1.77820772e-02 9.99328315e-01 9.99938846e-01 9.99538422e-01 1.57953851e-04 1.41036595e-04 1.56505208e-04 5.57160676e-01 7.25357831e-01 8.71288955e-01 8.96159530e-01 1.21716119e-04 1.17981857e-04 1.35303111e-04 5.98601878e-01 7.78522611e-01 8.27200949e-01 8.27895701e-01 8.06875467e-01 7.81883299e-01 7.38248765e-01 7.47102499e-01 9.41148102e-01 9.98894572e-01 9.99952734e-01 9.99987781e-01 9.99991596e-01 5.64953566e-01 1.81075314e-03 2.23228475e-03 6.64327201e-03 8.81404102e-01 9.99878764e-01 9.99969363e-01 9.72449064e-01 1.44408201e-04 1.40252290e-04 2.18232555e-04 6.33756816e-01 7.33079433e-01 8.55650902e-01 8.84299338e-01 1.17422249e-04 1.15007570e-04 1.36508912e-04 7.16308415e-01 7.99574375e-01 8.01140666e-01 7.78872848e-01 7.31005192e-01 6.43703282e-01 4.87970769e-01 3.59490395e-01 4.48536873e-01 8.74799192e-01 9.98224139e-01 9.99933541e-01 9.99981880e-01 9.99958932e-01 8.78143668e-01 1.39380768e-02 2.93630838e-01 9.98994708e-01 9.99973059e-01 9.99974728e-01 2.09974853e-04 1.38742602e-04 1.40646240e-04 7.93921179e-04 8.00480425e-01 7.56940186e-01 8.31391037e-01 8.76335680e-01 1.18127900e-04 1.12259717e-04 1.33911439e-04 7.63861895e-01 7.87579000e-01 7.49691069e-01 6.94930971e-01 6.22903109e-01 5.04862785e-01 3.13058972e-01 1.62646607e-01 1.42203376e-01 2.96126842e-01 8.24980557e-01 9.96974170e-01 9.99858379e-01 9.99943316e-01 9.99856710e-01 9.98447061e-01 9.99275804e-01 9.99927461e-01 9.99926388e-01 1.55018002e-03 1.61509539e-04 1.44361707e-04 1.75152309e-04 4.87810969e-01 9.87862349e-01 8.88013840e-01 7.98954785e-01 8.90456617e-01 1.27470586e-04 1.09230903e-04 1.23849502e-04 7.79803932e-01 7.49958754e-01 6.84198320e-01 6.12798631e-01 5.39288819e-01 4.44789261e-01 2.93483853e-01 1.43553749e-01 8.55447203e-02 1.12170763e-01 3.06326509e-01 8.41689825e-01 9.96273518e-01 9.99792993e-01 9.99933064e-01 9.99946713e-01 9.99945760e-01 9.99924242e-01 6.03873074e-01 3.30394396e-04 2.07653575e-04 2.18864574e-04 9.98892665e-01 9.99492168e-01 9.99542713e-01 9.90113676e-01 8.56097758e-01 8.67745638e-01 2.31155776e-04 1.05403655e-04 1.11135349e-04 8.08499277e-01 6.90347791e-01 6.32652283e-01 6.02762222e-01 5.81112623e-01 5.68927228e-01 5.50269127e-01 4.90750223e-01 4.10333395e-01 4.15298998e-01 5.56954265e-01 7.38216639e-01 9.14542377e-01 9.94910598e-01 9.99748349e-01 9.99951899e-01 9.99978244e-01 9.99983907e-01 9.99977171e-01 9.99656916e-01 4.54399645e-01 9.99851406e-01 9.99925971e-01 9.99784350e-01 9.99599934e-01 9.97286558e-01 8.50492179e-01 8.90507758e-01 9.76219654e-01 1.07453474e-04 1.06917731e-04 8.46016169e-01 7.17875779e-01 6.93795383e-01 7.06992745e-01 7.37648249e-01 7.79250145e-01 8.33415806e-01 8.84009659e-01 9.16669309e-01 9.32073772e-01 9.34469819e-01 9.18666005e-01 8.75876129e-01 8.78178060e-01 9.73143458e-01 9.98563051e-01 9.99858022e-01 9.99956548e-01 9.99972343e-01 9.99971569e-01 9.99947786e-01 9.99753594e-01 9.98750567e-01 9.89533305e-01 9.71711636e-01 9.55102623e-01 
