# vtk DataFile Version 2.0
results/iter9.vtk, Created by Freefem++ 
ASCII
DATASET UNSTRUCTURED_GRID
POINTS 961 float
0 0 0
0.033333333 0 0
0.066666667 0 0
0.1 0 0
0.13333333 0 0
0.16666667 0 0
0.2 0 0
0.23333333 0 0
0.26666667 0 0
0.3 0 0
0.33333333 0 0
0.36666667 0 0
0.4 0 0
0.43333333 0 0
0.46666667 0 0
0.5 0 0
0.53333333 0 0
0.56666667 0 0
0.6 0 0
0.63333333 0 0
0.66666667 0 0
0.7 0 0
0.73333333 0 0
0.76666667 0 0
0.8 0 0
0.83333333 0 0
0.86666667 0 0
0.9 0 0
0.93333333 0 0
0.96666667 0 0
1 0 0
0 0.033333333 0
0.033333333 0.033333333 0
0.066666667 0.033333333 0
0.1 0.033333333 0
0.13333333 0.033333333 0
0.16666667 0.033333333 0
0.2 0.033333333 0
0.23333333 0.033333333 0
0.26666667 0.033333333 0
0.3 0.033333333 0
0.33333333 0.033333333 0
0.36666667 0.033333333 0
0.4 0.033333333 0
0.43333333 0.033333333 0
0.46666667 0.033333333 0
0.5 0.033333333 0
0.53333333 0.033333333 0
0.56666667 0.033333333 0
0.6 0.033333333 0
0.63333333 0.033333333 0
0.66666667 0.033333333 0
0.7 0.033333333 0
0.73333333 0.033333333 0
0.76666667 0.033333333 0
0.8 0.033333333 0
0.83333333 0.033333333 0
0.86666667 0.033333333 0
0.9 0.033333333 0
0.93333333 0.033333333 0
0.96666667 0.033333333 0
1 0.033333333 0
0 0.066666667 0
0.033333333 0.066666667 0
0.066666667 0.066666667 0
0.1 0.066666667 0
0.13333333 0.066666667 0
0.16666667 0.066666667 0
0.2 0.066666667 0
0.23333333 0.066666667 0
0.26666667 0.066666667 0
0.3 0.066666667 0
0.33333333 0.066666667 0
0.36666667 0.066666667 0
0.4 0.066666667 0
0.43333333 0.066666667 0
0.46666667 0.066666667 0
0.5 0.066666667 0
0.53333333 0.066666667 0
0.56666667 0.066666667 0
0.6 0.066666667 0
0.63333333 0.066666667 0
0.66666667 0.066666667 0
0.7 0.066666667 0
0.73333333 0.066666667 0
0.76666667 0.066666667 0
0.8 0.066666667 0
0.83333333 0.066666667 0
0.86666667 0.066666667 0
0.9 0.066666667 0
0.93333333 0.066666667 0
0.96666667 0.066666667 0
1 0.066666667 0
0 0.1 0
0.033333333 0.1 0
0.066666667 0.1 0
0.1 0.1 0
0.13333333 0.1 0
0.16666667 0.1 0
0.2 0.1 0
0.23333333 0.1 0
0.26666667 0.1 0
0.3 0.1 0
0.33333333 0.1 0
0.36666667 0.1 0
0.4 0.1 0
0.43333333 0.1 0
0.46666667 0.1 0
0.5 0.1 0
0.53333333 0.1 0
0.56666667 0.1 0
0.6 0.1 0
0.63333333 0.1 0
0.66666667 0.1 0
0.7 0.1 0
0.73333333 0.1 0
0.76666667 0.1 0
0.8 0.1 0
0.83333333 0.1 0
0.86666667 0.1 0
0.9 0.1 0
0.93333333 0.1 0
0.96666667 0.1 0
1 0.1 0
0 0.13333333 0
0.033333333 0.13333333 0
0.066666667 0.13333333 0
0.1 0.13333333 0
0.13333333 0.13333333 0
0.16666667 0.13333333 0
0.2 0.13333333 0
0.23333333 0.13333333 0
0.26666667 0.13333333 0
0.3 0.13333333 0
0.33333333 0.13333333 0
0.36666667 0.13333333 0
0.4 0.13333333 0
0.43333333 0.13333333 0
0.46666667 0.13333333 0
0.5 0.13333333 0
0.53333333 0.13333333 0
0.56666667 0.13333333 0
0.6 0.13333333 0
0.63333333 0.13333333 0
0.66666667 0.13333333 0
0.7 0.13333333 0
0.73333333 0.13333333 0
0.76666667 0.13333333 0
0.8 0.13333333 0
0.83333333 0.13333333 0
0.86666667 0.13333333 0
0.9 0.13333333 0
0.93333333 0.13333333 0
0.96666667 0.13333333 0
1 0.13333333 0
0 0.16666667 0
0.033333333 0.16666667 0
0.066666667 0.16666667 0
0.1 0.16666667 0
0.13333333 0.16666667 0
0.16666667 0.16666667 0
0.2 0.16666667 0
0.23333333 0.16666667 0
0.26666667 0.16666667 0
0.3 0.16666667 0
0.33333333 0.16666667 0
0.36666667 0.16666667 0
0.4 0.16666667 0
0.43333333 0.16666667 0
0.46666667 0.16666667 0
0.5 0.16666667 0
0.53333333 0.16666667 0
0.56666667 0.16666667 0
0.6 0.16666667 0
0.63333333 0.16666667 0
0.66666667 0.16666667 0
0.7 0.16666667 0
0.73333333 0.16666667 0
0.76666667 0.16666667 0
0.8 0.16666667 0
0.83333333 0.16666667 0
0.86666667 0.16666667 0
0.9 0.16666667 0
0.93333333 0.16666667 0
0.96666667 0.16666667 0
1 0.16666667 0
0 0.2 0
0.033333333 0.2 0
0.066666667 0.2 0
0.1 0.2 0
0.13333333 0.2 0
0.16666667 0.2 0
0.2 0.2 0
0.23333333 0.2 0
0.26666667 0.2 0
0.3 0.2 0
0.33333333 0.2 0
0.36666667 0.2 0
0.4 0.2 0
0.43333333 0.2 0
0.46666667 0.2 0
0.5 0.2 0
0.53333333 0.2 0
0.56666667 0.2 0
0.6 0.2 0
0.63333333 0.2 0
0.66666667 0.2 0
0.7 0.2 0
0.73333333 0.2 0
0.76666667 0.2 0
0.8 0.2 0
0.83333333 0.2 0
0.86666667 0.2 0
0.9 0.2 0
0.93333333 0.2 0
0.96666667 0.2 0
1 0.2 0
0 0.23333333 0
0.033333333 0.23333333 0
0.066666667 0.23333333 0
0.1 0.23333333 0
0.13333333 0.23333333 0
0.16666667 0.23333333 0
0.2 0.23333333 0
0.23333333 0.23333333 0
0.26666667 0.23333333 0
0.3 0.23333333 0
0.33333333 0.23333333 0
0.36666667 0.23333333 0
0.4 0.23333333 0
0.43333333 0.23333333 0
0.46666667 0.23333333 0
0.5 0.23333333 0
0.53333333 0.23333333 0
0.56666667 0.23333333 0
0.6 0.23333333 0
0.63333333 0.23333333 0
0.66666667 0.23333333 0
0.7 0.23333333 0
0.73333333 0.23333333 0
0.76666667 0.23333333 0
0.8 0.23333333 0
0.83333333 0.23333333 0
0.86666667 0.23333333 0
0.9 0.23333333 0
0.93333333 0.23333333 0
0.96666667 0.23333333 0
1 0.23333333 0
0 0.26666667 0
0.033333333 0.26666667 0
0.066666667 0.26666667 0
0.1 0.26666667 0
0.13333333 0.26666667 0
0.16666667 0.26666667 0
0.2 0.26666667 0
0.23333333 0.26666667 0
0.26666667 0.26666667 0
0.3 0.26666667 0
0.33333333 0.26666667 0
0.36666667 0.26666667 0
0.4 0.26666667 0
0.43333333 0.26666667 0
0.46666667 0.26666667 0
0.5 0.26666667 0
0.53333333 0.26666667 0
0.56666667 0.26666667 0
0.6 0.26666667 0
0.63333333 0.26666667 0
0.66666667 0.26666667 0
0.7 0.26666667 0
0.73333333 0.26666667 0
0.76666667 0.26666667 0
0.8 0.26666667 0
0.83333333 0.26666667 0
0.86666667 0.26666667 0
0.9 0.26666667 0
0.93333333 0.26666667 0
0.96666667 0.26666667 0
1 0.26666667 0
0 0.3 0
0.033333333 0.3 0
0.066666667 0.3 0
0.1 0.3 0
0.13333333 0.3 0
0.16666667 0.3 0
0.2 0.3 0
0.23333333 0.3 0
0.26666667 0.3 0
0.3 0.3 0
0.33333333 0.3 0
0.36666667 0.3 0
0.4 0.3 0
0.43333333 0.3 0
0.46666667 0.3 0
0.5 0.3 0
0.53333333 0.3 0
0.56666667 0.3 0
0.6 0.3 0
0.63333333 0.3 0
0.66666667 0.3 0
0.7 0.3 0
0.73333333 0.3 0
0.76666667 0.3 0
0.8 0.3 0
0.83333333 0.3 0
0.86666667 0.3 0
0.9 0.3 0
0.93333333 0.3 0
0.96666667 0.3 0
1 0.3 0
0 0.33333333 0
0.033333333 0.33333333 0
0.066666667 0.33333333 0
0.1 0.33333333 0
0.13333333 0.33333333 0
0.16666667 0.33333333 0
0.2 0.33333333 0
0.23333333 0.33333333 0
0.26666667 0.33333333 0
0.3 0.33333333 0
0.33333333 0.33333333 0
0.36666667 0.33333333 0
0.4 0.33333333 0
0.43333333 0.33333333 0
0.46666667 0.33333333 0
0.5 0.33333333 0
0.53333333 0.33333333 0
0.56666667 0.33333333 0
0.6 0.33333333 0
0.63333333 0.33333333 0
0.66666667 0.33333333 0
0.7 0.33333333 0
0.73333333 0.33333333 0
0.76666667 0.33333333 0
0.8 0.33333333 0
0.83333333 0.33333333 0
0.86666667 0.33333333 0
0.9 0.33333333 0
0.93333333 0.33333333 0
0.96666667 0.33333333 0
1 0.33333333 0
0 0.36666667 0
0.033333333 0.36666667 0
0.066666667 0.36666667 0
0.1 0.36666667 0
0.13333333 0.36666667 0
0.16666667 0.36666667 0
0.2 0.36666667 0
0.23333333 0.36666667 0
0.26666667 0.36666667 0
0.3 0.36666667 0
0.33333333 0.36666667 0
0.36666667 0.36666667 0
0.4 0.36666667 0
0.43333333 0.36666667 0
0.46666667 0.36666667 0
0.5 0.36666667 0
0.53333333 0.36666667 0
0.56666667 0.36666667 0
0.6 0.36666667 0
0.63333333 0.36666667 0
0.66666667 0.36666667 0
0.7 0.36666667 0
0.73333333 0.36666667 0
0.76666667 0.36666667 0
0.8 0.36666667 0
0.83333333 0.36666667 0
0.86666667 0.36666667 0
0.9 0.36666667 0
0.93333333 0.36666667 0
0.96666667 0.36666667 0
1 0.36666667 0
0 0.4 0
0.033333333 0.4 0
0.066666667 0.4 0
0.1 0.4 0
0.13333333 0.4 0
0.16666667 0.4 0
0.2 0.4 0
0.23333333 0.4 0
0.26666667 0.4 0
0.3 0.4 0
0.33333333 0.4 0
0.36666667 0.4 0
0.4 0.4 0
0.43333333 0.4 0
0.46666667 0.4 0
0.5 0.4 0
0.53333333 0.4 0
0.56666667 0.4 0
0.6 0.4 0
0.63333333 0.4 0
0.66666667 0.4 0
0.7 0.4 0
0.73333333 0.4 0
0.76666667 0.4 0
0.8 0.4 0
0.83333333 0.4 0
0.86666667 0.4 0
0.9 0.4 0
0.93333333 0.4 0
0.96666667 0.4 0
1 0.4 0
0 0.43333333 0
0.033333333 0.43333333 0
0.066666667 0.43333333 0
0.1 0.43333333 0
0.13333333 0.43333333 0
0.16666667 0.43333333 0
0.2 0.43333333 0
0.23333333 0.43333333 0
0.26666667 0.43333333 0
0.3 0.43333333 0
0.33333333 0.43333333 0
0.36666667 0.43333333 0
0.4 0.43333333 0
0.43333333 0.43333333 0
0.46666667 0.43333333 0
0.5 0.43333333 0
0.53333333 0.43333333 0
0.56666667 0.43333333 0
0.6 0.43333333 0
0.63333333 0.43333333 0
0.66666667 0.43333333 0
0.7 0.43333333 0
0.73333333 0.43333333 0
0.76666667 0.43333333 0
0.8 0.43333333 0
0.83333333 0.43333333 0
0.86666667 0.43333333 0
0.9 0.43333333 0
0.93333333 0.43333333 0
0.96666667 0.43333333 0
1 0.43333333 0
0 0.46666667 0
0.033333333 0.46666667 0
0.066666667 0.46666667 0
0.1 0.46666667 0
0.13333333 0.46666667 0
0.16666667 0.46666667 0
0.2 0.46666667 0
0.23333333 0.46666667 0
0.26666667 0.46666667 0
0.3 0.46666667 0
0.33333333 0.46666667 0
0.36666667 0.46666667 0
0.4 0.46666667 0
0.43333333 0.46666667 0
0.46666667 0.46666667 0
0.5 0.46666667 0
0.53333333 0.46666667 0
0.56666667 0.46666667 0
0.6 0.46666667 0
0.63333333 0.46666667 0
0.66666667 0.46666667 0
0.7 0.46666667 0
0.73333333 0.46666667 0
0.76666667 0.46666667 0
0.8 0.46666667 0
0.83333333 0.46666667 0
0.86666667 0.46666667 0
0.9 0.46666667 0
0.93333333 0.46666667 0
0.96666667 0.46666667 0
1 0.46666667 0
0 0.5 0
0.033333333 0.5 0
0.066666667 0.5 0
0.1 0.5 0
0.13333333 0.5 0
0.16666667 0.5 0
0.2 0.5 0
0.23333333 0.5 0
0.26666667 0.5 0
0.3 0.5 0
0.33333333 0.5 0
0.36666667 0.5 0
0.4 0.5 0
0.43333333 0.5 0
0.46666667 0.5 0
0.5 0.5 0
0.53333333 0.5 0
0.56666667 0.5 0
0.6 0.5 0
0.63333333 0.5 0
0.66666667 0.5 0
0.7 0.5 0
0.73333333 0.5 0
0.76666667 0.5 0
0.8 0.5 0
0.83333333 0.5 0
0.86666667 0.5 0
0.9 0.5 0
0.93333333 0.5 0
0.96666667 0.5 0
1 0.5 0
0 0.53333333 0
0.033333333 0.53333333 0
0.066666667 0.53333333 0
0.1 0.53333333 0
0.13333333 0.53333333 0
0.16666667 0.53333333 0
0.2 0.53333333 0
0.23333333 0.53333333 0
0.26666667 0.53333333 0
0.3 0.53333333 0
0.33333333 0.53333333 0
0.36666667 0.53333333 0
0.4 0.53333333 0
0.43333333 0.53333333 0
0.46666667 0.53333333 0
0.5 0.53333333 0
0.53333333 0.53333333 0
0.56666667 0.53333333 0
0.6 0.53333333 0
0.63333333 0.53333333 0
0.66666667 0.53333333 0
0.7 0.53333333 0
0.73333333 0.53333333 0
0.76666667 0.53333333 0
0.8 0.53333333 0
[...]
CELL_DATA 1920
Scalars  Label int 1
LOOKUP_TABLE FreeFempp_table
0
0
0
0
0
0
0
0
0
0
0
0
0
0
0
0
0
0
0
0
0
0
0
0
0
0
0
0
0
0
0
0
0
0
0
0
0
0
0
0
0
0
0
0
0
0
0
0
0
0
0
0
0
0
0
0
0
0
0
0
0
0
0
0
0
0
0
0
0
0
0
0
0
0
0
0
0
0
0
0
0
0
0
0
0
0
0
0
0
0
0
0
0
0
0
0
0
0
0
0
0
0
0
0
0
0
0
0
0
0
0
0
0
0
0
0
0
0
0
0
0
0
0
0
0
0
0
0
0
0
0
0
0
0
0
0
0
0
0
0
0
0
0
0
0
0
0
0
0
0
0
0
0
0
0
0
0
0
0
0
0
0
0
0
0
0
0
0
0
0
0
0
0
0
0
0
0
0
0
0
0
0
0
0
0
0
0
0
0
0
0
0
0
0
0
0
0
0
0
0
0
0
0
0
0
0
0
0
0
0
0
0
0
0
0
0
0
0
0
0
0
0
0
0
0
0
0
0
0
0
0
0
0
0
0
0
0
0
0
0
0
0
0
0
0
0
0
0
0
0
0
0
0
0
0
0
0
0
0
0
0
0
0
0
0
0
0
0
0
0
0
0
0
0
0
0
0
0
0
0
0
0
0
0
0
0
0
0
0
0
0
0
0
0
0
0
0
0
0
0
0
0
0
0
0
0
0
0
0
0
0
0
0
0
0
0
0
0
0
0
0
0
0
0
0
0
0
0
0
0
0
0
0
0
0
0
0
0
0
0
0
0
0
0
0
0
0
0
0
0
0
0
0
0
0
0
0
0
0
0
0
0
0
0
0
0
0
0
0
0
0
0
0
0
0
0
0
0
0
0
0
0
0
0
0
0
0
0
0
0
0
0
0
0
0
0
0
0
0
0
0
0
0
0
0
0
0
0
0
0
0
0
0
0
0
0
0
0
0
0
0
0
0
0
0
0
0
0
0
0
0
0
0
0
0
0
0
0
0
0
0
0
0
0
0
0
0
0
0
0
0
0
0
0
0
0
0
0
0
0
0
0
0
0
0
0
0
0
0
0
0
0
0
0
0
0
0
0
0
0
0
0
0
0
0
0
0
0
0
0
0
0
0
0
0
0
0
0
0
0
0
0
0
0
0
0
0
0
0
0
0
0
0
0
0
0
0
0
0
0
0
0
0
0
0
0
0
0
0
0
0
0
0
0
0
0
0
0
0
0
0
0
0
0
0
0
0
0
0
0
0
0
0
0
0
0
0
0
0
0
0
0
0
0
0
0
0
0
0
0
0
0
0
0
0
0
0
0
0
0
0
0
0
0
0
0
0
0
0
0
0
0
0
0
0
0
0
0
0
0
0
0
0
0
0
0
0
0
0
0
0
0
0
0
0
0
0
0
0
0
0
0
0
0
0
0
0
0
0
0
0
0
0
0
0
0
0
0
0
0
0
0
0
0
0
0
0
0
0
0
0
0
0
0
0
0
0
0
0
0
0
0
0
0
0
0
0
0
0
0
0
0
0
0
0
0
0
0
0
0
0
0
0
0
0
0
0
0
0
0
0
0
0
0
0
0
0
0
0
0
0
0
0
0
0
0
0
0
0
0
0
0
0
0
0
0
0
0
0
0
0
0
0
0
0
0
0
0
0
0
0
0
0
0
0
0
0
0
0
0
0
0
0
0
0
0
0
0
0
0
0
0
0
0
0
0
0
0
0
0
0
0
0
0
0
0
0
0
0
0
0
0
0
0
0
0
0
0
0
0
0
0
0
0
0
0
0
0
0
0
0
0
0
0
0
0
0
0
0
0
0
0
0
0
0
0
0
0
0
0
0
0
0
0
0
0
0
0
0
0
0
0
0
0
0
0
0
0
0
0
0
0
0
0
0
0
0
0
0
0
0
0
0
0
0
0
0
0
0
0
0
0
0
0
0
0
0
0
0
0
0
0
0
0
0
0
0
0
0
0
0
0
0
0
0
0
0
0
0
0
0
0
0
0
0
0
0
0
0
0
0
0
0
0
0
0
0
0
0
0
0
0
0
0
0
0
0
0
0
0
0
0
0
0
0
0
0
0
0
0
0
0
0
0
0
0
0
0
0
0
0
0
0
0
0
0
0
0
0
0
0
0
0
0
0
0
0
0
0
0
0
0
0
0
0
0
0
0
0
0
0
0
0
0
0
0
0
0
0
0
0
0
0
0
0
0
0
0
0
0
0
0
0
0
0
0
0
0
0
0
0
0
0
0
0
0
0
0
0
0
0
0
0
0
0
0
0
0
0
0
0
0
0
0
0
0
0
0
0
0
0
0
0
0
0
0
0
0
0
0
0
0
0
0
0
0
0
0
0
0
0
0
0
0
0
0
0
0
0
0
0
0
0
0
0
0
0
0
0
0
0
0
0
0
0
0
0
0
0
0
0
0
0
0
0
0
0
0
0
0
0
0
0
0
0
0
0
0
0
0
0
0
0
0
0
0
0
0
0
0
0
0
0
0
0
0
0
0
0
0
0
0
0
0
0
0
0
0
0
0
0
0
0
0
0
0
0
0
0
0
0
0
0
0
0
0
0
0
0
0
0
0
0
0
0
0
0
0
0
0
0
0
0
0
0
0
0
0
0
0
0
0
0
0
0
0
0
0
0
0
0
0
0
0
0
0
0
0
0
0
0
0
0
0
0
0
0
0
0
0
0
0
0
0
0
0
0
0
0
0
0
0
0
0
0
0
0
0
0
0
0
0
0
0
0
0
0
0
0
0
0
0
0
0
0
0
0
0
0
0
0
0
0
0
0
0
0
0
0
0
0
0
0
0
0
0
0
0
0
0
0
0
0
0
0
0
0
0
0
0
0
0
0
0
0
0
0
0
0
0
0
0
0
0
0
0
0
0
0
0
0
0
0
0
0
0
0
0
0
0
0
0
0
0
0
0
0
0
0
0
0
0
0
0
0
0
0
0
0
0
0
0
0
0
0
0
0
0
0
0
0
0
0
0
0
0
0
0
0
0
0
0
0
0
0
0
0
0
0
0
0
0
0
0
0
0
0
0
0
0
0
0
0
0
0
0
0
0
0
0
0
0
0
0
0
0
0
0
0
0
0
0
0
0
0
0
0
0
0
0
0
0
0
0
0
0
0
0
0
0
0
0
0
0
0
0
0
0
0
0
0
0
0
0
0
0
0
0
0
0
0
0
0
0
0
0
0
0
0
0
0
0
0
0
0
0
0
0
0
0
0
0
0
0
0
0
0
0
0
0
0
0
0
0
0
0
0
0
0
0
0
0
0
0
0
0
0
0
0
0
0
0
0
0
0
0
0
0
0
0
0
0
0
0
0
0
0
0
0
0
0
0
0
0
0
0
0
0
0
0
0
0
0
0
0
0
0
0
0
0
0
0
0
0
0
0
0
0
0
0
0
0
0
0
0
0
0
0
0
0
0
0
0
0
0
0
0
0
0
0
0
0
0
0
0
0
0
0
0
0
0
0
0
0
0
0
0
0
0
0
0
0
0
0
0
0
0
0
0
0
0
0
0
0
0
0
0
0
0
0
0
0
0
0
0
0
0
0
0
0
0
0
0
0
0
0
0
0
0
0
0
0
0
0
0
0
0
0
0
0
0
0
0
0
0
0
0
0
0
0
0
0
0
0
0
0
0
0
0
0
0
0
0
0
0
0
0
0
0
0
0
0
0
0
0
0
0
0
0
0
0
0
0
0
0
0
0
0
0
0
0
0
0
0
0
0
0
0
0
0
0
0
0
0
0
0
0
0
0
0
0
0
0
0
0
0
0
0
0
0
0
0
0
0
0
0
0
0
0
0
0
0
0
0
0
0
0
0
0
0
0
0
0
0
0
0
0
0
0
0
0
0
0
0
0
0
0
0
0
0
0
0
0
0
0
0
0
0
0
0
0
0
0
0
0
0
0
0
0
0
0
0
0
0
0
0
0
0
0
0
0
0
0
0
0
0
0
0
0
0
0
0
0
0
0
0
0
0
0
0
0
0
0
0
0
0
0
0
0
0
0
0
0
0
0
0
0
0
0
0
0
0
0
0
0
0
0
0
0
0
1
1
1
1
1
1
1
1
1
1
1
1
1
1
1
1
1
1
1
1
1
1
1
1
1
1
1
1
1
1
2
2
2
2
2
2
2
2
2
2
2
2
2
2
2
2
2
2
2
2
2
2
2
2
2
2
2
2
2
2
3
3
3
3
3
3
3
3
3
3
3
3
3
3
3
3
3
3
3
3
3
3
3
3
3
3
3
3
3
3
4
4
4
4
4
4
4
4
4
4
4
4
4
4
4
4
4
4
4
4
4
4
4
4
4
4
4
4
4
4

LOOKUP_TABLE FreeFempp_table 5
1.00000000 0.00000000 0.00000000 1.00000000
1.00000000 1.00000000 0.00000000 1.00000000
1.00000000 0.00000000 1.00000000 1.00000000
0.00000000 1.00000000 0.00000000 1.00000000
0.00000000 1.00000000 1.00000000 1.00000000

POINT_DATA 961
FIELD FieldData 1
Density 1 961 float
1.27374093e-04 1.41535682e-04 1.59628966e-04 3.33602802e-04 2.73583736e-03 3.30157392e-02 2.31140435e-01 4.52306300e-01 5.15234590e-01 5.47926188e-01 5.90177119e-01 6.64630890e-01 7.52297163e-01 8.24274898e-01 8.61670375e-01 8.66538405e-01 8.40856194e-01 7.96001613e-01 7.46657491e-01 7.04394698e-01 6.82138324e-01 6.73274338e-01 6.70566082e-01 6.70317888e-01 6.70702815e-01 6.71729267e-01 6.73135817e-01 6.74564719e-01 6.75734699e-01 6.73042178e-01 7.45163500e-01 1.05008869e-04 1.03992359e-04 1.03761311e-04 1.03449929e-04 1.03641600e-04 1.04884159e-04 1.15775038e-04 4.04427722e-02 2.57156670e-01 3.10772747e-01 3.63950074e-01 4.76665527e-01 6.59925163e-01 8.26840520e-01 9.06160474e-01 9.26184177e-01 9.07087624e-01 8.52049291e-01 7.66267300e-01 6.69452310e-01 5.97226560e-01 5.61611831e-01 5.46767235e-01 5.40375113e-01 5.37016690e-01 5.36193252e-01 5.37362993e-01 5.39558589e-01 5.41671097e-01 5.38072944e-01 6.69602692e-01 1.11119400e-04 1.04634957e-04 1.05075800e-04 1.04042301e-04 1.03405386e-04 1.02857237e-04 1.02459839e-04 1.02627964e-04 1.02874081e-04 1.47406943e-02 3.79984468e-01 4.70678091e-01 6.41917288e-01 8.14772844e-01 9.01620507e-01 9.20554280e-01 9.04604912e-01 8.60088527e-01 7.94806004e-01 7.15274513e-01 6.49164498e-01 6.11107528e-01 5.89398980e-01 5.63953161e-01 5.43811679e-01 5.31643927e-01 5.25443733e-01 5.23000002e-01 5.22335470e-01 5.16927004e-01 6.61311507e-01 5.78192115e-01 3.62212181e-01 3.75686616e-01 3.34384054e-01 1.55524686e-01 1.65906153e-04 1.06125655e-04 1.03087077e-04 1.01779660e-04 1.01800018e-04 1.66861617e-04 4.79036570e-01 6.26981556e-01 8.05376172e-01 8.99048924e-01 9.18751657e-01 8.98831666e-01 8.28255355e-01 6.57175124e-01 4.77280051e-01 4.04318243e-01 4.52886462e-01 5.41948855e-01 5.74588060e-01 5.63697219e-01 5.28580070e-01 5.08294821e-01 4.99002129e-01 4.94198620e-01 4.86807734e-01 6.47955298e-01 5.74674249e-01 3.70536029e-01 3.81185234e-01 3.85284722e-01 3.76622975e-01 3.53443384e-01 3.15847933e-01 2.51650304e-01 2.02255305e-02 1.02008373e-04 1.02124694e-04 1.26144543e-04 6.15237355e-01 8.24017644e-01 9.04362798e-01 9.21126962e-01 8.86556864e-01 7.60241270e-01 3.91629785e-01 7.85225779e-02 1.26805408e-02 4.60571609e-03 5.74591896e-03 3.35333422e-02 3.35413456e-01 4.87386376e-01 4.79881376e-01 4.61020440e-01 4.52751666e-01 4.45194870e-01 6.28342628e-01 5.67556441e-01 3.51122469e-01 3.63765925e-01 3.72357517e-01 3.73082846e-01 3.61544698e-01 3.51612568e-01 3.55707765e-01 3.56780261e-01 3.29305828e-01 1.02308237e-04 1.02243648e-04 1.41790471e-04 8.58205974e-01 9.35775042e-01 9.35570180e-01 8.90900791e-01 7.39117086e-01 3.77052337e-01 8.36662203e-02 1.25781987e-02 2.11659679e-03 5.95951919e-04 3.51813040e-04 4.09567845e-04 2.27407552e-03 3.71943891e-01 4.17925030e-01 4.07742888e-01 4.00731087e-01 6.05018258e-01 5.64718604e-01 3.42429161e-01 3.51921916e-01 3.59552711e-01 3.62928629e-01 3.56686234e-01 3.48561972e-01 3.49364191e-01 3.52421165e-01 3.57375801e-01 3.07849646e-01 1.02266378e-04 1.02137332e-04 1.38769764e-03 9.56860602e-01 9.59947944e-01 9.16557074e-01 7.75291860e-01 4.67139751e-01 1.76357508e-01 5.91941364e-02 1.82978101e-02 3.66713782e-03 6.77713833e-04 2.51486403e-04 1.90805033e-04 1.97710513e-04 3.07764500e-01 3.75852734e-01 3.64595026e-01 5.82637727e-01 5.64612210e-01 3.39647770e-01 3.46181214e-01 3.51611644e-01 3.54836881e-01 3.50782633e-01 3.44132662e-01 3.41791004e-01 3.42194319e-01 3.45829904e-01 3.47665220e-01 4.45788121e-03 1.02313541e-04 1.03789142e-04 8.89439523e-01 9.78422225e-01 9.48868692e-01 8.41864526e-01 5.90728998e-01 3.16690445e-01 1.71481416e-01 1.15907788e-01 9.36373174e-02 7.07092434e-02 1.62859503e-02 5.79002430e-04 1.48479259e-04 1.42566641e-04 3.00763756e-01 3.42274308e-01 5.63589811e-01 5.67735136e-01 3.42622757e-01 3.47017407e-01 3.50399345e-01 3.53452384e-01 3.48695368e-01 3.41162503e-01 3.36128682e-01 3.33739072e-01 3.34323496e-01 3.38934720e-01 2.51207918e-01 1.04727340e-04 1.03724560e-04 3.94326560e-02 9.80346859e-01 9.73095059e-01 9.06742454e-01 7.13664889e-01 4.46568578e-01 2.71342576e-01 1.93225831e-01 1.70645297e-01 1.77621067e-01 1.98178023e-01 2.03143626e-01 4.17976975e-02 1.36368748e-04 1.33244277e-04 2.58456022e-01 5.33665359e-01 5.75584352e-01 3.53379577e-01 3.56306911e-01 3.57243359e-01 3.58748436e-01 3.53891820e-01 3.44402701e-01 3.35834861e-01 3.29519182e-01 3.23992610e-01 3.21181923e-01 3.18826020e-01 1.09866327e-04 1.03248720e-04 1.17256866e-04 9.58152175e-01 9.82630849e-01 9.51383471e-01 8.24728549e-01 5.75180590e-01 3.58958244e-01 2.44457781e-01 1.96971416e-01 1.88276276e-01 2.06832260e-01 2.48358965e-01 2.88589388e-01 2.18676761e-01 1.32404457e-04 1.32148009e-04 6.92340359e-02 5.90624988e-01 3.76134962e-01 3.78041685e-01 3.75825167e-01 3.75336170e-01 3.70681047e-01 3.60749245e-01 3.48001242e-01 3.37597877e-01 3.25304955e-01 3.10129464e-01 2.93532848e-01 4.72708634e-04 1.03608567e-04 1.05328800e-04 7.87279069e-01 9.80726719e-01 9.72420156e-01 9.05597925e-01 7.11061418e-01 4.66036320e-01 3.08350861e-01 2.32761681e-01 2.06119999e-01 2.10308328e-01 2.37251118e-01 2.77460545e-01 3.17169607e-01 1.48165524e-01 1.33607580e-04 1.55577771e-04 6.15788460e-01 4.17522132e-01 4.18725282e-01 4.13494706e-01 4.10016507e-01 4.06297833e-01 3.97428304e-01 3.82928997e-01 3.67689699e-01 3.48769248e-01 3.20704579e-01 2.72030324e-01 1.18016906e-01 1.04969629e-04 1.03641061e-04 5.06347138e-03 9.70411837e-01 9.81399715e-01 9.52050745e-01 8.34803402e-01 6.02636933e-01 3.98547560e-01 2.88124621e-01 2.39759937e-01 2.27413163e-01 2.35589355e-01 2.51134276e-01 2.56795973e-01 1.83434069e-01 9.02479608e-03 2.41003145e-04 6.52098238e-01 4.83740687e-01 4.84346211e-01 4.77032095e-01 4.71296579e-01 4.67656881e-01 4.62190181e-01 4.50796515e-01 4.32884693e-01 4.06518549e-01 3.62252533e-01 2.87824184e-01 2.17981637e-01 1.17382500e-04 1.03642029e-04 1.12345100e-04 9.11808789e-01 9.83958125e-01 9.74770486e-01 9.21026587e-01 7.54181087e-01 5.19304693e-01 3.56648475e-01 2.72826552e-01 2.31420428e-01 2.08749399e-01 1.84892431e-01 1.31148070e-01 5.00576980e-02 4.11438057e-03 1.08423363e-02 6.98599100e-01 5.76698840e-01 5.75098097e-01 5.66064596e-01 5.60052335e-01 5.57560802e-01 5.57527125e-01 5.57346106e-01 5.45197904e-01 5.14583528e-01 4.60775763e-01 3.65204871e-01 2.58327097e-01 4.04074369e-03 1.04812054e-04 1.04861312e-04 2.49068178e-02 9.76437986e-01 9.84314680e-01 9.65837777e-01 8.82246494e-01 6.66901648e-01 4.31353956e-01 2.82254428e-01 1.97085202e-01 1.43991336e-01 1.00278810e-01 4.13757451e-02 9.10899881e-03 2.45661149e-03 5.75447874e-03 7.48627901e-01 6.83395147e-01 6.75879657e-01 6.65089011e-01 6.61486864e-01 6.62619650e-01 6.68256879e-01 6.75409317e-01 6.80173397e-01 6.67545259e-01 6.24270916e-01 5.30983865e-01 3.85228515e-01 2.33740658e-01 1.14068265e-04 1.04344661e-04 1.20088014e-04 9.06994164e-01 9.85761940e-01 9.84292388e-01 9.56667602e-01 8.21107864e-01 5.18025875e-01 2.61469364e-01 1.34121597e-01 7.74708688e-02 4.68399636e-02 1.33195641e-02 1.45618559e-03 1.91164762e-03 5.55306021e-03 7.93525577e-01 7.79827178e-01 7.64302075e-01 7.49037206e-01 7.45086551e-01 7.51931787e-01 7.65439391e-01 7.79520988e-01 7.90315151e-01 7.93027937e-01 7.82797754e-01 7.39448428e-01 6.39929414e-01 5.11832476e-01 2.19277549e-03 1.05348736e-04 1.05322688e-04 1.66852232e-02 9.67548132e-01 9.89786029e-01 9.85976696e-01 9.36514497e-01 6.45390093e-01 2.29012072e-01 7.44206086e-02 3.40079814e-02 2.01337487e-02 6.54956512e-03 4.63732140e-04 1.08320010e-03 1.65842213e-02 8.25071812e-01 8.44641864e-01 8.19642484e-01 7.97852099e-01 7.93390095e-01 8.04085135e-01 8.23616266e-01 8.45105827e-01 8.62964988e-01 8.74205530e-01 8.80019426e-01 8.77798796e-01 8.54932368e-01 8.20982575e-01 6.30186677e-01 1.38258445e-04 1.05610990e-04 1.10371147e-04 7.61094570e-01 9.83433545e-01 9.94144022e-01 9.85355616e-01 8.34004998e-01 2.32392669e-01 4.01789993e-02 1.35397650e-02 7.16132531e-03 3.10585368e-03 2.92615499e-04 5.01958712e-04 1.96126431e-01 8.36961865e-01 8.67583454e-01 8.29944432e-01 7.94651389e-01 7.85291016e-01 8.04604411e-01 8.35185051e-01 8.65061283e-01 8.89642119e-01 9.07660484e-01 9.20103133e-01 9.31777418e-01 9.37150121e-01 9.40005362e-01 9.37661171e-01 6.92428112e-01 1.16004747e-04 1.08373752e-04 1.20221972e-04 8.64672720e-01 9.94133353e-01 9.97111440e-01 9.72545028e-01 4.18051064e-01 3.56840193e-02 7.86887296e-03 3.08559276e-03 8.52805853e-04 2.50513986e-04 3.34188691e-04 7.01008737e-01 8.31930280e-01 8.36105466e-01 7.30751038e-01 6.63106561e-01 6.56982183e-01 7.04246998e-01 7.73829281e-01 8.33267987e-01 8.73979688e-01 9.01225567e-01 9.21268523e-01 9.37959015e-01 9.54376101e-01 9.64549243e-01 9.77723241e-01 9.78173375e-01 6.86020136e-01 1.14143266e-04 1.10619971e-04 1.27590276e-04 4.68959332e-01 9.98866439e-01 9.98643339e-01 9.30152595e-01 1.07447185e-01 1.04748644e-02 2.58771470e-03 2.99275212e-04 2.33266241e-04 3.10969685e-04 8.00471008e-01 8.27848673e-01 7.47630000e-01 4.29671675e-01 3.08644295e-01 3.20378244e-01 4.07280296e-01 5.58915794e-01 7.15172887e-01 8.05466712e-01 8.52477193e-01 8.82998347e-01 9.08619583e-01 9.37370718e-01 9.58214164e-01 9.75150585e-01 9.90056694e-01 9.92690980e-01 8.47392499e-01 1.17611227e-04 1.12380607e-04 1.16687988e-04 2.97602150e-04 9.99606371e-01 9.99341011e-01 8.57163191e-01 4.55220491e-02 3.93721880e-03 1.77994327e-04 2.00779075e-04 4.09319502e-04 8.33400607e-01 8.37101519e-01 6.25457346e-01 1.15625337e-01 5.90938777e-02 6.75124899e-02 1.14513822e-01 2.50835240e-01 4.92770880e-01 6.88824475e-01 7.66457319e-01 8.04147363e-01 8.33380461e-01 8.65303099e-01 9.13455248e-01 9.47943628e-01 9.76402581e-01 9.93374765e-01 9.97189879e-01 9.68709588e-01 1.32374378e-04 1.14426621e-04 1.18436692e-04 1.35325914e-04 9.99839723e-01 9.99616921e-01 7.99561739e-01 5.79678267e-03 1.45871338e-04 1.61034899e-04 1.03716040e-03 8.51702809e-01 8.53574216e-01 5.36008596e-01 2.13081185e-02 8.93818680e-03 1.21633783e-02 2.73187123e-02 9.50007737e-02 3.10501665e-01 5.61708272e-01 6.79926932e-01 7.14026451e-01 7.32842028e-01 7.51858950e-01 7.81592965e-01 8.49801302e-01 9.12740290e-01 9.65825021e-01 9.91897225e-01 9.97234821e-01 9.97292876e-01 4.35867289e-04 1.73020628e-04 1.25982580e-04 1.32587229e-04 9.99425113e-01 9.99873757e-01 3.86369904e-03 1.38090720e-04 1.42198740e-04 8.21363647e-03 8.38654757e-01 8.65456998e-01 5.12861609e-01 4.58950782e-03 1.80451025e-03 3.04714101e-03 1.01268580e-02 5.57965748e-02 2.47834951e-01 4.85266507e-01 6.02160454e-01 6.32883370e-01 6.35006726e-01 6.39777005e-01 6.46183014e-01 6.60227597e-01 7.30424821e-01 8.21261466e-01 9.10029233e-01 9.68268394e-01 9.92240429e-01 9.97147739e-01 9.95122910e-01 9.75457966e-01 2.01713032e-04 1.07488420e-03 9.99977708e-01 2.47486820e-03 1.41051074e-04 1.39365686e-04 9.48629901e-02 7.88537264e-01 8.68309259e-01 5.35438597e-01 1.38984062e-03 5.89700590e-04 1.15917891e-03 6.36115856e-03 6.10362589e-02 2.79948592e-01 4.68953311e-01 5.34738481e-01 5.47345638e-01 5.36579370e-01 5.27084768e-01 5.29835999e-01 5.37855983e-01 5.56099355e-01 6.08145535e-01 6.92953110e-01 7.62619853e-01 8.31628203e-01 9.02891755e-01 9.53872502e-01 9.68389094e-01 9.81905103e-01 9.99043107e-01 9.99982774e-01 1.25163305e-03 1.52545210e-04 1.47780185e-04 2.09532484e-01 7.61880159e-01 8.61465871e-01 5.74878633e-01 6.28039939e-04 2.94268277e-04 6.02487067e-04 6.61683735e-03 1.06923997e-01 3.67628455e-01 4.71971273e-01 4.75023001e-01 4.57491606e-01 4.36895639e-01 4.17152137e-01 4.10428375e-01 4.23578739e-01 4.54129070e-01 5.08521378e-01 5.84057450e-01 6.53812945e-01 6.89939201e-01 7.02146888e-01 6.71867847e-01 6.66842937e-01 8.68223727e-01 9.98135209e-01 9.99919295e-01 5.26342832e-04 1.79395880e-04 1.84565506e-04 2.64391303e-01 7.75228322e-01 8.42771590e-01 6.16305470e-01 4.31656372e-04 1.94101900e-04 3.63378174e-04 1.07122269e-02 2.12741852e-01 4.43402141e-01 4.59014386e-01 4.16559011e-01 3.76455367e-01 3.45231712e-01 3.20715129e-01 3.07303637e-01 3.16665977e-01 3.57672274e-01 4.29114789e-01 5.28343797e-01 6.32927001e-01 6.98024690e-01 7.16254890e-01 6.82046831e-01 7.38937616e-01 9.67732906e-01 9.99498188e-01 9.99454379e-01 3.83809616e-04 2.26140517e-04 4.00292571e-04 3.85981947e-01 7.92980254e-01 8.06054235e-01 6.49946928e-01 4.60092735e-04 1.50021457e-04 2.29940328e-04 2.54592840e-02 3.50798249e-01 4.69064921e-01 4.20636058e-01 3.55907083e-01 3.06554824e-01 2.69171864e-01 2.39769548e-01 2.22475111e-01 2.29838476e-01 2.72930056e-01 3.64143163e-01 4.98020291e-01 6.47025526e-01 7.66758502e-01 8.15286398e-01 8.67045820e-01 9.58763957e-01 9.97575641e-01 9.99566197e-01 8.14528614e-02 4.07583255e-04 3.41498933e-04 4.75312723e-03 5.96152127e-01 7.98330009e-01 7.40655720e-01 6.67597234e-01 9.79027478e-04 1.28483487e-04 1.58383380e-04 7.58193731e-02 4.50634539e-01 4.45564687e-01 3.63968998e-01 2.96294719e-01 2.46724635e-01 2.07405746e-01 1.75140291e-01 1.54750437e-01 1.56712219e-01 1.96929574e-01 2.94894129e-01 4.64079142e-01 6.67771876e-01 8.35248649e-01 9.30338204e-01 9.72352445e-01 9.91618991e-01 9.97673631e-01 9.37013566e-01 1.69678591e-02 1.10892928e-03 1.13920192e-03 3.04693311e-01 8.37645710e-01 8.18115950e-01 6.65681660e-01 6.06430948e-01 1.23031009e-02 1.19172117e-04 1.28625266e-04 2.04596028e-01 4.77337748e-01 3.92231464e-01 3.09527695e-01 2.49972492e-01 2.02172831e-01 1.60959199e-01 1.27055541e-01 1.05129592e-01 1.02105930e-01 1.29150689e-01 2.12241232e-01 3.84358406e-01 6.30907774e-01 8.41913342e-01 9.48473036e-01 9.83615637e-01 9.94243622e-01 9.95957792e-01 9.80186641e-01 1.08323485e-01 1.31625861e-01 7.92086959e-01 9.76738989e-01 9.83626246e-01 9.12710786e-01 7.26979733e-01 5.71085334e-01 4.21680719e-01 1.13450129e-04 1.18816941e-04 3.96310687e-01 4.52401936e-01 3.43498856e-01 2.72669375e-01 2.14615613e-01 1.61258578e-01 1.14916839e-01 7.98416659e-02 5.87115921e-02 5.23473024e-02 6.42069429e-02 1.11293755e-01 2.38769069e-01 4.96019423e-01 7.90834010e-01 9.43767607e-01 9.86386120e-01 9.95847523e-01 9.97887850e-01 9.98569071e-01 9.99082386e-01 9.99165952e-01 9.98895288e-01 9.97928262e-01 9.97791409e-01 9.75846589e-01 8.03193748e-01 7.71469712e-01 6.99675024e-01 1.29825523e-04 1.18970267e-04 8.58010173e-01 6.43352330e-01 5.78572392e-01 5.27290106e-01 4.70220745e-01 4.02605981e-01 3.27146769e-01 2.53227025e-01 1.95710346e-01 1.68595552e-01 1.82576835e-01 2.53686607e-01 3.95266831e-01 5.82587361e-01 7.58940578e-01 8.81349981e-01 9.47070181e-01 9.76246774e-01 9.87258852e-01 9.91571069e-01 9.94270325e-01 9.93297637e-01 9.86748517e-01 9.80970740e-01 9.82132614e-01 9.61278439e-01 
