# vtk DataFile Version 2.0
results/iter4.vtk, Created by Freefem++ 
ASCII
DATASET UNSTRUCTURED_GRID
POINTS 961 float
0 0 0
0.033333333 0 0
0.066666667 0 0
0.1 0 0
0.13333333 0 0
0.16666667 0 0
0.2 0 0
0.23333333 0 0
0.26666667 0 0
0.3 0 0
0.33333333 0 0
0.36666667 0 0
0.4 0 0
0.43333333 0 0
0.46666667 0 0
0.5 0 0
0.53333333 0 0
0.56666667 0 0
0.6 0 0
0.63333333 0 0
0.66666667 0 0
0.7 0 0
0.73333333 0 0
0.76666667 0 0
0.8 0 0
0.83333333 0 0
0.86666667 0 0
0.9 0 0
0.93333333 0 0
0.96666667 0 0
1 0 0
0 0.033333333 0
0.033333333 0.033333333 0
0.066666667 0.033333333 0
0.1 0.033333333 0
0.13333333 0.033333333 0
0.16666667 0.033333333 0
0.2 0.033333333 0
0.23333333 0.033333333 0
0.26666667 0.033333333 0
0.3 0.033333333 0
0.33333333 0.033333333 0
0.36666667 0.033333333 0
0.4 0.033333333 0
0.43333333 0.033333333 0
0.46666667 0.033333333 0
0.5 0.033333333 0
0.53333333 0.033333333 0
0.56666667 0.033333333 0
0.6 0.033333333 0
0.63333333 0.033333333 0
0.66666667 0.033333333 0
0.7 0.033333333 0
0.73333333 0.033333333 0
0.76666667 0.033333333 0
0.8 0.033333333 0
0.83333333 0.033333333 0
0.86666667 0.033333333 0
0.9 0.033333333 0
0.93333333 0.033333333 0
0.96666667 0.033333333 0
1 0.033333333 0
0 0.066666667 0
0.033333333 0.066666667 0
0.066666667 0.066666667 0
0.1 0.066666667 0
0.13333333 0.066666667 0
0.16666667 0.066666667 0
0.2 0.066666667 0
0.23333333 0.066666667 0
0.26666667 0.066666667 0
0.3 0.066666667 0
0.33333333 0.066666667 0
0.36666667 0.066666667 0
0.4 0.066666667 0
0.43333333 0.066666667 0
0.46666667 0.066666667 0
0.5 0.066666667 0
0.53333333 0.066666667 0
0.56666667 0.066666667 0
0.6 0.066666667 0
0.63333333 0.066666667 0
0.66666667 0.066666667 0
0.7 0.066666667 0
0.73333333 0.066666667 0
0.76666667 0.066666667 0
0.8 0.066666667 0
0.83333333 0.066666667 0
0.86666667 0.066666667 0
0.9 0.066666667 0
0.93333333 0.066666667 0
0.96666667 0.066666667 0
1 0.066666667 0
0 0.1 0
0.033333333 0.1 0
0.066666667 0.1 0
0.1 0.1 0
0.13333333 0.1 0
0.16666667 0.1 0
0.2 0.1 0
0.23333333 0.1 0
0.26666667 0.1 0
0.3 0.1 0
0.33333333 0.1 0
0.36666667 0.1 0
0.4 0.1 0
0.43333333 0.1 0
0.46666667 0.1 0
0.5 0.1 0
0.53333333 0.1 0
0.56666667 0.1 0
0.6 0.1 0
0.63333333 0.1 0
0.66666667 0.1 0
0.7 0.1 0
0.73333333 0.1 0
0.76666667 0.1 0
0.8 0.1 0
0.83333333 0.1 0
0.86666667 0.1 0
0.9 0.1 0
0.93333333 0.1 0
0.96666667 0.1 0
1 0.1 0
0 0.13333333 0
0.033333333 0.13333333 0
0.066666667 0.13333333 0
0.1 0.13333333 0
0.13333333 0.13333333 0
0.16666667 0.13333333 0
0.2 0.13333333 0
0.23333333 0.13333333 0
0.26666667 0.13333333 0
0.3 0.13333333 0
0.33333333 0.13333333 0
0.36666667 0.13333333 0
0.4 0.13333333 0
0.43333333 0.13333333 0
0.46666667 0.13333333 0
0.5 0.13333333 0
0.53333333 0.13333333 0
0.56666667 0.13333333 0
0.6 0.13333333 0
0.63333333 0.13333333 0
0.66666667 0.13333333 0
0.7 0.13333333 0
0.73333333 0.13333333 0
0.76666667 0.13333333 0
0.8 0.13333333 0
0.83333333 0.13333333 0
0.86666667 0.13333333 0
0.9 0.13333333 0
0.93333333 0.13333333 0
0.96666667 0.13333333 0
1 0.13333333 0
0 0.16666667 0
0.033333333 0.16666667 0
0.066666667 0.16666667 0
0.1 0.16666667 0
0.13333333 0.16666667 0
0.16666667 0.16666667 0
0.2 0.16666667 0
0.23333333 0.16666667 0
0.26666667 0.16666667 0
0.3 0.16666667 0
0.33333333 0.16666667 0
0.36666667 0.16666667 0
0.4 0.16666667 0
0.43333333 0.16666667 0
0.46666667 0.16666667 0
0.5 0.16666667 0
0.53333333 0.16666667 0
0.56666667 0.16666667 0
0.6 0.16666667 0
0.63333333 0.16666667 0
0.66666667 0.16666667 0
0.7 0.16666667 0
0.73333333 0.16666667 0
0.76666667 0.16666667 0
0.8 0.16666667 0
0.83333333 0.16666667 0
0.86666667 0.16666667 0
0.9 0.16666667 0
0.93333333 0.16666667 0
0.96666667 0.16666667 0
1 0.16666667 0
0 0.2 0
0.033333333 0.2 0
0.066666667 0.2 0
0.1 0.2 0
0.13333333 0.2 0
0.16666667 0.2 0
0.2 0.2 0
0.23333333 0.2 0
0.26666667 0.2 0
0.3 0.2 0
0.33333333 0.2 0
0.36666667 0.2 0
0.4 0.2 0
0.43333333 0.2 0
0.46666667 0.2 0
0.5 0.2 0
0.53333333 0.2 0
0.56666667 0.2 0
0.6 0.2 0
0.63333333 0.2 0
0.66666667 0.2 0
0.7 0.2 0
0.73333333 0.2 0
0.76666667 0.2 0
0.8 0.2 0
0.83333333 0.2 0
0.86666667 0.2 0
0.9 0.2 0
0.93333333 0.2 0
0.96666667 0.2 0
1 0.2 0
0 0.23333333 0
0.033333333 0.23333333 0
0.066666667 0.23333333 0
0.1 0.23333333 0
0.13333333 0.23333333 0
0.16666667 0.23333333 0
0.2 0.23333333 0
0.23333333 0.23333333 0
0.26666667 0.23333333 0
0.3 0.23333333 0
0.33333333 0.23333333 0
0.36666667 0.23333333 0
0.4 0.23333333 0
0.43333333 0.23333333 0
0.46666667 0.23333333 0
0.5 0.23333333 0
0.53333333 0.23333333 0
0.56666667 0.23333333 0
0.6 0.23333333 0
0.63333333 0.23333333 0
0.66666667 0.23333333 0
0.7 0.23333333 0
0.73333333 0.23333333 0
0.76666667 0.23333333 0
0.8 0.23333333 0
0.83333333 0.23333333 0
0.86666667 0.23333333 0
0.9 0.23333333 0
0.93333333 0.23333333 0
0.96666667 0.23333333 0
1 0.23333333 0
0 0.26666667 0
0.033333333 0.26666667 0
0.066666667 0.26666667 0
0.1 0.26666667 0
0.13333333 0.26666667 0
0.16666667 0.26666667 0
0.2 0.26666667 0
0.23333333 0.26666667 0
0.26666667 0.26666667 0
0.3 0.26666667 0
0.33333333 0.26666667 0
0.36666667 0.26666667 0
0.4 0.26666667 0
0.43333333 0.26666667 0
0.46666667 0.26666667 0
0.5 0.26666667 0
0.53333333 0.26666667 0
0.56666667 0.26666667 0
0.6 0.26666667 0
0.63333333 0.26666667 0
0.66666667 0.26666667 0
0.7 0.26666667 0
0.73333333 0.26666667 0
0.76666667 0.26666667 0
0.8 0.26666667 0
0.83333333 0.26666667 0
0.86666667 0.26666667 0
0.9 0.26666667 0
0.93333333 0.26666667 0
0.96666667 0.26666667 0
1 0.26666667 0
0 0.3 0
0.033333333 0.3 0
0.066666667 0.3 0
0.1 0.3 0
0.13333333 0.3 0
0.16666667 0.3 0
0.2 0.3 0
0.23333333 0.3 0
0.26666667 0.3 0
0.3 0.3 0
0.33333333 0.3 0
0.36666667 0.3 0
0.4 0.3 0
0.43333333 0.3 0
0.46666667 0.3 0
0.5 0.3 0
0.53333333 0.3 0
0.56666667 0.3 0
0.6 0.3 0
0.63333333 0.3 0
0.66666667 0.3 0
0.7 0.3 0
0.73333333 0.3 0
0.76666667 0.3 0
0.8 0.3 0
0.83333333 0.3 0
0.86666667 0.3 0
0.9 0.3 0
0.93333333 0.3 0
0.96666667 0.3 0
1 0.3 0
0 0.33333333 0
0.033333333 0.33333333 0
0.066666667 0.33333333 0
0.1 0.33333333 0
0.13333333 0.33333333 0
0.16666667 0.33333333 0
0.2 0.33333333 0
0.23333333 0.33333333 0
0.26666667 0.33333333 0
0.3 0.33333333 0
0.33333333 0.33333333 0
0.36666667 0.33333333 0
0.4 0.33333333 0
0.43333333 0.33333333 0
0.46666667 0.33333333 0
0.5 0.33333333 0
0.53333333 0.33333333 0
0.56666667 0.33333333 0
0.6 0.33333333 0
0.63333333 0.33333333 0
0.66666667 0.33333333 0
0.7 0.33333333 0
0.73333333 0.33333333 0
0.76666667 0.33333333 0
0.8 0.33333333 0
0.83333333 0.33333333 0
0.86666667 0.33333333 0
0.9 0.33333333 0
0.93333333 0.33333333 0
0.96666667 0.33333333 0
1 0.33333333 0
0 0.36666667 0
0.033333333 0.36666667 0
0.066666667 0.36666667 0
0.1 0.36666667 0
0.13333333 0.36666667 0
0.16666667 0.36666667 0
0.2 0.36666667 0
0.23333333 0.36666667 0
0.26666667 0.36666667 0
0.3 0.36666667 0
0.33333333 0.36666667 0
0.36666667 0.36666667 0
0.4 0.36666667 0
0.43333333 0.36666667 0
0.46666667 0.36666667 0
0.5 0.36666667 0
0.53333333 0.36666667 0
0.56666667 0.36666667 0
0.6 0.36666667 0
0.63333333 0.36666667 0
0.66666667 0.36666667 0
0.7 0.36666667 0
0.73333333 0.36666667 0
0.76666667 0.36666667 0
0.8 0.36666667 0
0.83333333 0.36666667 0
0.86666667 0.36666667 0
0.9 0.36666667 0
0.93333333 0.36666667 0
0.96666667 0.36666667 0
1 0.36666667 0
0 0.4 0
0.033333333 0.4 0
0.066666667 0.4 0
0.1 0.4 0
0.13333333 0.4 0
0.16666667 0.4 0
0.2 0.4 0
0.23333333 0.4 0
0.26666667 0.4 0
0.3 0.4 0
0.33333333 0.4 0
0.36666667 0.4 0
0.4 0.4 0
0.43333333 0.4 0
0.46666667 0.4 0
0.5 0.4 0
0.53333333 0.4 0
0.56666667 0.4 0
0.6 0.4 0
0.63333333 0.4 0
0.66666667 0.4 0
0.7 0.4 0
0.73333333 0.4 0
0.76666667 0.4 0
0.8 0.4 0
0.83333333 0.4 0
0.86666667 0.4 0
0.9 0.4 0
0.93333333 0.4 0
0.96666667 0.4 0
1 0.4 0
0 0.43333333 0
0.033333333 0.43333333 0
0.066666667 0.43333333 0
0.1 0.43333333 0
0.13333333 0.43333333 0
0.16666667 0.43333333 0
0.2 0.43333333 0
0.23333333 0.43333333 0
0.26666667 0.43333333 0
0.3 0.43333333 0
0.33333333 0.43333333 0
0.36666667 0.43333333 0
0.4 0.43333333 0
0.43333333 0.43333333 0
0.46666667 0.43333333 0
0.5 0.43333333 0
0.53333333 0.43333333 0
0.56666667 0.43333333 0
0.6 0.43333333 0
0.63333333 0.43333333 0
0.66666667 0.43333333 0
0.7 0.43333333 0
0.73333333 0.43333333 0
0.76666667 0.43333333 0
0.8 0.43333333 0
0.83333333 0.43333333 0
0.86666667 0.43333333 0
0.9 0.43333333 0
0.93333333 0.43333333 0
0.96666667 0.43333333 0
1 0.43333333 0
0 0.46666667 0
0.033333333 0.46666667 0
0.066666667 0.46666667 0
0.1 0.46666667 0
0.13333333 0.46666667 0
0.16666667 0.46666667 0
0.2 0.46666667 0
0.23333333 0.46666667 0
0.26666667 0.46666667 0
0.3 0.46666667 0
0.33333333 0.46666667 0
0.36666667 0.46666667 0
0.4 0.46666667 0
0.43333333 0.46666667 0
0.46666667 0.46666667 0
0.5 0.46666667 0
0.53333333 0.46666667 0
0.56666667 0.46666667 0
0.6 0.46666667 0
0.63333333 0.46666667 0
0.66666667 0.46666667 0
0.7 0.46666667 0
0.73333333 0.46666667 0
0.76666667 0.46666667 0
0.8 0.46666667 0
0.83333333 0.46666667 0
0.86666667 0.46666667 0
0.9 0.46666667 0
0.93333333 0.46666667 0
0.96666667 0.46666667 0
1 0.46666667 0
0 0.5 0
0.033333333 0.5 0
0.066666667 0.5 0
0.1 0.5 0
0.13333333 0.5 0
0.16666667 0.5 0
0.2 0.5 0
0.23333333 0.5 0
0.26666667 0.5 0
0.3 0.5 0
0.33333333 0.5 0
0.36666667 0.5 0
0.4 0.5 0
0.43333333 0.5 0
0.46666667 0.5 0
0.5 0.5 0
0.53333333 0.5 0
0.56666667 0.5 0
0.6 0.5 0
0.63333333 0.5 0
0.66666667 0.5 0
0.7 0.5 0
0.73333333 0.5 0
0.76666667 0.5 0
0.8 0.5 0
0.83333333 0.5 0
0.86666667 0.5 0
0.9 0.5 0
0.93333333 0.5 0
0.96666667 0.5 0
1 0.5 0
0 0.53333333 0
0.033333333 0.53333333 0
0.066666667 0.53333333 0
0.1 0.53333333 0
0.13333333 0.53333333 0
0.16666667 0.53333333 0
0.2 0.53333333 0
0.23333333 0.53333333 0
0.26666667 0.53333333 0
0.3 0.53333333 0
0.33333333 0.53333333 0
0.36666667 0.53333333 0
0.4 0.53333333 0
0.43333333 0.53333333 0
0.46666667 0.53333333 0
0.5 0.53333333 0
0.53333333 0.53333333 0
0.56666667 0.53333333 0
0.6 0.53333333 0
0.63333333 0.53333333 0
0.66666667 0.53333333 0
0.7 0.53333333 0
0.73333333 0.53333333 0
0.76666667 0.53333333 0
0.8 0.53333333 0
[...]
CELL_DATA 1920
Scalars  Label int 1
LOOKUP_TABLE FreeFempp_table
0
0
0
0
0
0
0
0
0
0
0
0
0
0
0
0
0
0
0
0
0
0
0
0
0
0
0
0
0
0
0
0
0
0
0
0
0
0
0
0
0
0
0
0
0
0
0
0
0
0
0
0
0
0
0
0
0
0
0
0
0
0
0
0
0
0
0
0
0
0
0
0
0
0
0
0
0
0
0
0
0
0
0
0
0
0
0
0
0
0
0
0
0
0
0
0
0
0
0
0
0
0
0
0
0
0
0
0
0
0
0
0
0
0
0
0
0
0
0
0
0
0
0
0
0
0
0
0
0
0
0
0
0
0
0
0
0
0
0
0
0
0
0
0
0
0
0
0
0
0
0
0
0
0
0
0
0
0
0
0
0
0
0
0
0
0
0
0
0
0
0
0
0
0
0
0
0
0
0
0
0
0
0
0
0
0
0
0
0
0
0
0
0
0
0
0
0
0
0
0
0
0
0
0
0
0
0
0
0
0
0
0
0
0
0
0
0
0
0
0
0
0
0
0
0
0
0
0
0
0
0
0
0
0
0
0
0
0
0
0
0
0
0
0
0
0
0
0
0
0
0
0
0
0
0
0
0
0
0
0
0
0
0
0
0
0
0
0
0
0
0
0
0
0
0
0
0
0
0
0
0
0
0
0
0
0
0
0
0
0
0
0
0
0
0
0
0
0
0
0
0
0
0
0
0
0
0
0
0
0
0
0
0
0
0
0
0
0
0
0
0
0
0
0
0
0
0
0
0
0
0
0
0
0
0
0
0
0
0
0
0
0
0
0
0
0
0
0
0
0
0
0
0
0
0
0
0
0
0
0
0
0
0
0
0
0
0
0
0
0
0
0
0
0
0
0
0
0
0
0
0
0
0
0
0
0
0
0
0
0
0
0
0
0
0
0
0
0
0
0
0
0
0
0
0
0
0
0
0
0
0
0
0
0
0
0
0
0
0
0
0
0
0
0
0
0
0
0
0
0
0
0
0
0
0
0
0
0
0
0
0
0
0
0
0
0
0
0
0
0
0
0
0
0
0
0
0
0
0
0
0
0
0
0
0
0
0
0
0
0
0
0
0
0
0
0
0
0
0
0
0
0
0
0
0
0
0
0
0
0
0
0
0
0
0
0
0
0
0
0
0
0
0
0
0
0
0
0
0
0
0
0
0
0
0
0
0
0
0
0
0
0
0
0
0
0
0
0
0
0
0
0
0
0
0
0
0
0
0
0
0
0
0
0
0
0
0
0
0
0
0
0
0
0
0
0
0
0
0
0
0
0
0
0
0
0
0
0
0
0
0
0
0
0
0
0
0
0
0
0
0
0
0
0
0
0
0
0
0
0
0
0
0
0
0
0
0
0
0
0
0
0
0
0
0
0
0
0
0
0
0
0
0
0
0
0
0
0
0
0
0
0
0
0
0
0
0
0
0
0
0
0
0
0
0
0
0
0
0
0
0
0
0
0
0
0
0
0
0
0
0
0
0
0
0
0
0
0
0
0
0
0
0
0
0
0
0
0
0
0
0
0
0
0
0
0
0
0
0
0
0
0
0
0
0
0
0
0
0
0
0
0
0
0
0
0
0
0
0
0
0
0
0
0
0
0
0
0
0
0
0
0
0
0
0
0
0
0
0
0
0
0
0
0
0
0
0
0
0
0
0
0
0
0
0
0
0
0
0
0
0
0
0
0
0
0
0
0
0
0
0
0
0
0
0
0
0
0
0
0
0
0
0
0
0
0
0
0
0
0
0
0
0
0
0
0
0
0
0
0
0
0
0
0
0
0
0
0
0
0
0
0
0
0
0
0
0
0
0
0
0
0
0
0
0
0
0
0
0
0
0
0
0
0
0
0
0
0
0
0
0
0
0
0
0
0
0
0
0
0
0
0
0
0
0
0
0
0
0
0
0
0
0
0
0
0
0
0
0
0
0
0
0
0
0
0
0
0
0
0
0
0
0
0
0
0
0
0
0
0
0
0
0
0
0
0
0
0
0
0
0
0
0
0
0
0
0
0
0
0
0
0
0
0
0
0
0
0
0
0
0
0
0
0
0
0
0
0
0
0
0
0
0
0
0
0
0
0
0
0
0
0
0
0
0
0
0
0
0
0
0
0
0
0
0
0
0
0
0
0
0
0
0
0
0
0
0
0
0
0
0
0
0
0
0
0
0
0
0
0
0
0
0
0
0
0
0
0
0
0
0
0
0
0
0
0
0
0
0
0
0
0
0
0
0
0
0
0
0
0
0
0
0
0
0
0
0
0
0
0
0
0
0
0
0
0
0
0
0
0
0
0
0
0
0
0
0
0
0
0
0
0
0
0
0
0
0
0
0
0
0
0
0
0
0
0
0
0
0
0
0
0
0
0
0
0
0
0
0
0
0
0
0
0
0
0
0
0
0
0
0
0
0
0
0
0
0
0
0
0
0
0
0
0
0
0
0
0
0
0
0
0
0
0
0
0
0
0
0
0
0
0
0
0
0
0
0
0
0
0
0
0
0
0
0
0
0
0
0
0
0
0
0
0
0
0
0
0
0
0
0
0
0
0
0
0
0
0
0
0
0
0
0
0
0
0
0
0
0
0
0
0
0
0
0
0
0
0
0
0
0
0
0
0
0
0
0
0
0
0
0
0
0
0
0
0
0
0
0
0
0
0
0
0
0
0
0
0
0
0
0
0
0
0
0
0
0
0
0
0
0
0
0
0
0
0
0
0
0
0
0
0
0
0
0
0
0
0
0
0
0
0
0
0
0
0
0
0
0
0
0
0
0
0
0
0
0
0
0
0
0
0
0
0
0
0
0
0
0
0
0
0
0
0
0
0
0
0
0
0
0
0
0
0
0
0
0
0
0
0
0
0
0
0
0
0
0
0
0
0
0
0
0
0
0
0
0
0
0
0
0
0
0
0
0
0
0
0
0
0
0
0
0
0
0
0
0
0
0
0
0
0
0
0
0
0
0
0
0
0
0
0
0
0
0
0
0
0
0
0
0
0
0
0
0
0
0
0
0
0
0
0
0
0
0
0
0
0
0
0
0
0
0
0
0
0
0
0
0
0
0
0
0
0
0
0
0
0
0
0
0
0
0
0
0
0
0
0
0
0
0
0
0
0
0
0
0
0
0
0
0
0
0
0
0
0
0
0
0
0
0
0
0
0
0
0
0
0
0
0
0
0
0
0
0
0
0
0
0
0
0
0
0
0
0
0
0
0
0
0
0
0
0
0
0
0
0
0
0
0
0
0
0
0
0
0
0
0
0
0
0
0
0
0
0
0
0
0
0
0
0
0
0
0
0
0
0
0
0
0
0
0
0
0
0
0
0
0
0
0
0
0
0
0
0
0
0
0
0
0
0
0
0
0
0
0
0
0
0
0
0
0
0
0
0
0
0
0
0
0
0
0
0
0
0
0
0
0
0
0
0
0
0
0
0
0
0
0
0
0
0
0
0
0
0
0
0
0
0
0
0
0
0
0
0
0
0
0
0
0
0
0
0
0
0
0
0
0
0
0
0
0
0
0
0
0
0
0
0
0
0
0
0
0
0
0
0
0
0
0
0
0
0
0
0
0
0
0
0
0
0
0
0
0
0
0
0
0
0
0
0
0
0
0
0
0
0
0
0
0
0
0
0
0
0
0
0
0
0
0
0
0
0
0
0
0
0
0
0
0
0
0
0
0
0
0
0
0
0
0
0
0
0
0
0
0
0
0
0
0
0
0
0
0
0
0
0
0
0
0
0
0
0
0
0
0
0
0
0
0
0
0
0
0
0
0
0
0
0
0
0
0
0
0
0
0
0
0
0
0
0
0
0
0
0
0
0
0
0
0
0
0
0
0
0
0
0
0
0
0
0
0
0
0
0
0
0
0
0
0
0
0
0
0
0
0
0
0
0
0
0
0
0
0
0
0
0
0
0
0
0
0
0
0
0
0
0
0
0
0
0
0
0
0
0
0
0
0
0
0
0
0
0
0
0
0
0
0
0
0
0
0
0
0
0
0
0
0
0
0
0
0
0
0
0
0
0
0
0
0
0
0
0
0
0
0
0
0
0
0
0
0
0
0
0
0
0
0
0
0
1
1
1
1
1
1
1
1
1
1
1
1
1
1
1
1
1
1
1
1
1
1
1
1
1
1
1
1
1
1
2
2
2
2
2
2
2
2
2
2
2
2
2
2
2
2
2
2
2
2
2
2
2
2
2
2
2
2
2
2
3
3
3
3
3
3
3
3
3
3
3
3
3
3
3
3
3
3
3
3
3
3
3
3
3
3
3
3
3
3
4
4
4
4
4
4
4
4
4
4
4
4
4
4
4
4
4
4
4
4
4
4
4
4
4
4
4
4
4
4

LOOKUP_TABLE FreeFempp_table 5
1.00000000 0.00000000 0.00000000 1.00000000
1.00000000 1.00000000 0.00000000 1.00000000
1.00000000 0.00000000 1.00000000 1.00000000
0.00000000 1.00000000 0.00000000 1.00000000
0.00000000 1.00000000 1.00000000 1.00000000

POINT_DATA 961
FIELD FieldData 1
Density 1 961 float
5.62729120e-01 4.88221556e-01 4.83058661e-01 4.81338650e-01 4.79750603e-01 4.77305293e-01 4.72998172e-01 4.56215560e-01 2.77052283e-01 8.74079473e-04 1.03803060e-03 2.45918054e-02 5.10201335e-01 5.76348245e-01 7.03638434e-01 8.68141830e-01 8.73588741e-01 7.75659561e-01 8.42980921e-01 7.92831719e-01 7.39368141e-01 7.06459641e-01 6.79861069e-01 6.88128591e-01 6.93141758e-01 6.83324099e-01 6.72354400e-01 6.65696323e-01 6.63020790e-01 6.59260809e-01 6.82881236e-01 1.97572241e-04 1.81543452e-04 1.81922078e-04 1.87751473e-04 1.99897375e-04 2.29848039e-04 2.89989839e-04 3.77573160e-04 4.76773479e-04 4.53603105e-04 4.41966607e-04 2.78272270e-03 3.66207331e-01 4.30594593e-01 5.69062889e-01 9.36073244e-01 8.84096861e-01 4.52603072e-01 9.01850462e-01 8.81636620e-01 7.84228683e-01 7.55348444e-01 6.99884474e-01 6.77883744e-01 6.78602815e-01 6.55305922e-01 6.38382554e-01 6.24416113e-01 6.17400587e-01 6.10503733e-01 6.55601025e-01 2.44119219e-04 1.76214002e-04 1.81720141e-04 1.83778349e-04 1.88681312e-04 1.99255315e-04 2.18524350e-04 2.37176617e-04 2.43242874e-04 2.30998237e-04 1.92756692e-04 1.83677112e-04 1.76816102e-04 3.89772445e-01 4.31175202e-01 9.69938278e-01 3.38967741e-01 7.58293434e-04 2.08388665e-03 2.62179738e-03 1.49428070e-01 6.21962488e-01 6.93233550e-01 6.43824518e-01 6.51495039e-01 6.39126599e-01 6.13829136e-01 5.95543027e-01 5.87668419e-01 5.79670429e-01 6.43394172e-01 5.00292838e-01 2.89913714e-01 3.13327730e-01 2.94078648e-01 2.16869693e-02 1.67808053e-03 6.19117636e-04 3.95075680e-04 3.13077180e-04 2.82792113e-04 2.45064206e-04 1.96217967e-04 1.50350272e-04 1.52380657e-04 7.50471081e-04 2.30326340e-01 9.89529788e-01 1.28411539e-02 1.91985245e-03 1.00087759e-03 7.54232169e-04 9.65425512e-04 2.94847717e-03 2.51529783e-01 5.62551558e-01 5.62596977e-01 5.72311044e-01 5.53636134e-01 5.45374632e-01 5.37802219e-01 6.24141753e-01 4.97079104e-01 3.03013921e-01 2.56537318e-01 1.92290619e-01 1.39866814e-01 1.49656713e-01 2.19915137e-01 2.74521410e-01 3.14220369e-01 3.44214588e-01 3.57635677e-01 3.29502076e-01 1.20983891e-01 1.63850709e-04 1.70711603e-04 1.94667911e-04 1.90352919e-04 9.98653471e-01 9.92198467e-01 7.67353782e-03 9.29569243e-04 5.72131306e-04 4.27654333e-04 4.20408061e-04 4.73177584e-04 2.40062177e-02 4.98715490e-01 4.88820672e-01 4.99444783e-01 4.95941550e-01 6.02985561e-01 5.08543134e-01 3.16059291e-01 2.85251141e-01 2.47427598e-01 2.09209204e-01 2.06320077e-01 2.48005703e-01 2.88798153e-01 3.20849061e-01 3.46003860e-01 3.65776598e-01 3.76109511e-01 3.66193503e-01 3.43835324e-01 2.44757859e-04 2.10094207e-04 1.56784386e-04 1.61705248e-04 2.26557619e-04 9.99328613e-01 5.64078212e-01 3.68673517e-03 7.43118173e-04 4.40835342e-04 2.87967385e-04 2.69406417e-04 9.55666823e-04 4.44078565e-01 4.49713975e-01 4.64658678e-01 5.85803032e-01 5.40400565e-01 3.64007413e-01 3.48175943e-01 3.33751619e-01 3.19448799e-01 3.20740074e-01 3.37974399e-01 3.58222127e-01 3.75610292e-01 3.89415473e-01 4.00452524e-01 4.07796711e-01 4.04001683e-01 3.83278847e-01 3.72978151e-01 3.92060369e-01 3.93314958e-01 1.99884555e-04 1.83025535e-04 1.86606470e-04 9.96671438e-01 9.84461188e-01 9.39653873e-01 7.15065718e-01 2.69185239e-03 2.70432502e-04 2.64118775e-04 4.62450378e-04 4.22878176e-01 4.43593949e-01 5.76314986e-01 5.88692307e-01 4.46746439e-01 4.41482067e-01 4.38549370e-01 4.35405999e-01 4.34433460e-01 4.37611878e-01 4.44220901e-01 4.52199131e-01 4.60204512e-01 4.67803806e-01 4.73732144e-01 4.74411279e-01 4.67459649e-01 4.55257863e-01 4.48843658e-01 4.53130156e-01 4.48965043e-01 4.07365054e-01 1.97327128e-04 2.11456238e-04 3.21095606e-04 9.83035505e-01 9.68939662e-01 9.89211380e-01 9.95064080e-01 3.27338465e-04 2.66332208e-04 4.06699837e-04 3.96701932e-01 5.71818709e-01 6.47153676e-01 5.58328152e-01 5.56660295e-01 5.53193510e-01 5.49763680e-01 5.46093285e-01 5.43360591e-01 5.43203712e-01 5.45555115e-01 5.49374044e-01 5.53435385e-01 5.56149900e-01 5.55613279e-01 5.51015556e-01 5.43540835e-01 5.36162496e-01 5.29804766e-01 5.20830274e-01 5.07800460e-01 4.98505473e-01 2.71407742e-04 2.44582101e-04 2.52909871e-04 4.43715960e-01 7.09309936e-01 7.42334872e-02 9.97786701e-01 3.23636370e-04 2.48945667e-04 5.37696062e-04 5.37781596e-01 7.05145538e-01 6.79895878e-01 6.73227131e-01 6.64758444e-01 6.56465590e-01 6.49097741e-01 6.43237650e-01 6.39621437e-01 6.38180017e-01 6.38038814e-01 6.37969673e-01 6.36794508e-01 6.33865774e-01 6.29519463e-01 6.24854267e-01 6.20788872e-01 6.16964757e-01 6.12622976e-01 6.07676744e-01 6.05553091e-01 5.93485475e-01 4.99489814e-01 2.80531705e-04 2.99176056e-04 5.56941726e-04 9.46062442e-04 3.90363042e-03 9.99762118e-01 2.60197645e-04 2.21340757e-04 7.80004542e-04 7.44671047e-01 7.67545462e-01 7.53019750e-01 7.42585063e-01 7.31485426e-01 7.21938193e-01 7.14422405e-01 7.09014177e-01 7.05260456e-01 7.02301085e-01 6.99204147e-01 6.95384800e-01 6.90961361e-01 6.86767757e-01 6.83791578e-01 6.82299912e-01 6.81687474e-01 6.81921244e-01 6.83968425e-01 6.90301895e-01 7.03304470e-01 7.08632529e-01 6.92035675e-01 4.18792508e-04 4.51029977e-04 5.74841513e-04 1.22059812e-03 7.47531559e-03 9.98676300e-01 2.30651029e-04 2.79696076e-04 7.51191556e-01 7.96250880e-01 7.77074993e-01 7.67338812e-01 7.56405532e-01 7.47359872e-01 7.40483224e-01 7.35491335e-01 7.31619895e-01 7.27946401e-01 7.23765850e-01 7.18908668e-01 7.13879764e-01 7.09643424e-01 7.07030833e-01 7.06135929e-01 7.06520677e-01 7.08403766e-01 7.13092804e-01 7.23301053e-01 7.41931379e-01 7.67769754e-01 8.05207789e-01 8.60814214e-01 7.98539639e-01 5.42348623e-02 1.10835684e-02 7.84726907e-03 9.98300135e-01 3.83942999e-04 3.40040366e-04 7.21199393e-01 7.63159335e-01 7.42958784e-01 7.33874202e-01 7.25667894e-01 7.20695436e-01 7.18196750e-01 7.17120886e-01 7.16172159e-01 7.14229941e-01 7.10747004e-01 7.05894947e-01 7.00474083e-01 6.95560217e-01 6.91963136e-01 6.89831376e-01 6.88919485e-01 6.89379215e-01 6.91986144e-01 6.98107302e-01 7.09000468e-01 7.24888444e-01 7.48505116e-01 7.86043167e-01 8.38980138e-01 8.59526515e-01 6.49177849e-01 9.57212523e-02 9.96826530e-01 4.06861946e-04 3.72418377e-04 6.66568875e-01 6.58843398e-01 6.31613076e-01 6.23796284e-01 6.26623333e-01 6.35730267e-01 6.46725059e-01 6.56891525e-01 6.64270282e-01 6.67698383e-01 6.67067289e-01 6.63151741e-01 6.57257795e-01 6.50794029e-01 6.44832730e-01 6.39878452e-01 6.36104584e-01 6.33823335e-01 6.33484602e-01 6.35270655e-01 6.38320208e-01 6.40775561e-01 6.42368674e-01 6.47181392e-01 6.59002721e-01 6.51242912e-01 6.53044164e-01 6.39796495e-01 9.92237508e-01 4.44393547e-04 4.11043846e-04 6.15432620e-01 4.99083430e-01 4.21585619e-01 4.18498009e-01 4.48736548e-01 4.89522874e-01 5.30522466e-01 5.64587355e-01 5.88727951e-01 6.02691710e-01 6.07811093e-01 6.06168389e-01 6.00020349e-01 5.91441333e-01 5.82098782e-01 5.73211670e-01 5.65771043e-01 5.60790300e-01 5.59155583e-01 5.61102688e-01 5.65603554e-01 5.70701420e-01 5.74936152e-01 5.77196598e-01 5.79330385e-01 6.01580083e-01 7.00067222e-01 8.93392622e-01 9.83938932e-01 4.81424999e-04 4.50188789e-04 5.91836393e-01 3.52929801e-01 2.04607278e-01 2.01823652e-01 2.50918388e-01 3.19478780e-01 3.95549297e-01 4.62988555e-01 5.11338294e-01 5.40288091e-01 5.53691626e-01 5.55780232e-01 5.50165057e-01 5.39779961e-01 5.27022898e-01 5.13960123e-01 5.02581716e-01 4.94920105e-01 4.92779791e-01 4.97130662e-01 5.07558346e-01 5.22595108e-01 5.41091859e-01 5.63677490e-01 5.95470250e-01 6.58279717e-01 7.99391866e-01 9.28617477e-01 9.50855494e-01 5.11718797e-04 4.82393545e-04 5.97245991e-01 2.60353714e-01 8.44452381e-02 7.96082765e-02 1.19318448e-01 1.90125361e-01 2.84462690e-01 3.80271316e-01 4.53163922e-01 4.97712880e-01 5.19880891e-01 5.26397586e-01 5.22283733e-01 5.11196613e-01 4.96051461e-01 4.79519904e-01 4.64387923e-01 4.53658640e-01 4.50249523e-01 4.56334025e-01 4.72670048e-01 4.98634011e-01 5.33838928e-01 5.81582844e-01 6.52707815e-01 7.62962580e-01 8.84166181e-01 9.35645342e-01 8.50472510e-01 5.55541075e-04 5.15078893e-04 6.19352579e-01 2.08667919e-01 3.61337103e-02 3.24474461e-02 5.70277795e-02 1.18393503e-01 2.19089568e-01 3.33108515e-01 4.24231857e-01 4.80464101e-01 5.09246945e-01 5.19569159e-01 5.17543554e-01 5.07145464e-01 4.91352171e-01 4.72953945e-01 4.55075800e-01 4.41374063e-01 4.35839474e-01 4.42276508e-01 4.63637739e-01 5.01603723e-01 5.57951391e-01 6.37382269e-01 7.43707359e-01 8.55230451e-01 9.16891634e-01 9.15563226e-01 2.16566339e-01 6.39093225e-04 5.68699499e-04 6.50272310e-01 1.73605412e-01 1.71439238e-02 1.50830327e-02 3.07044517e-02 8.64417925e-02 1.95881277e-01 3.23374867e-01 4.23648119e-01 4.84423608e-01 5.15840769e-01 5.28375387e-01 5.28575122e-01 5.20254731e-01 5.06017447e-01 4.88306493e-01 4.70093459e-01 4.55226779e-01 4.48444039e-01 4.55296308e-01 4.82127219e-01 5.35231411e-01 6.19231880e-01 7.30778754e-01 8.41211319e-01 9.08179462e-01 9.19764400e-01 6.90101087e-01 7.35939760e-03 7.79432652e-04 6.63002313e-04 6.90354168e-01 1.30310565e-01 8.91162641e-03 8.11034720e-03 1.92961060e-02 7.84976184e-02 2.07702503e-01 3.45552862e-01 4.43760544e-01 5.00966430e-01 5.30968785e-01 5.44174790e-01 5.46651781e-01 5.41685522e-01 5.31316519e-01 5.17452002e-01 5.02651155e-01 4.90631849e-01 4.86496836e-01 4.97067153e-01 5.31958044e-01 6.02473676e-01 7.11906850e-01 8.29587340e-01 9.03258801e-01 9.18501019e-01 8.03155363e-01 2.65616663e-02 2.32725963e-03 1.09146698e-03 9.29212954e-04 7.38044143e-01 7.21867532e-02 5.03493613e-03 5.03922300e-03 1.44302221e-02 9.00012106e-02 2.51237869e-01 3.89346361e-01 4.73494202e-01 5.21057367e-01 5.47154963e-01 5.60282230e-01 5.65229714e-01 5.64577818e-01 5.59895575e-01 5.52726805e-01 5.45401752e-01 5.41741073e-01 5.47525823e-01 5.70650458e-01 6.21027589e-01 7.07241833e-01 8.21644127e-01 9.02882695e-01 9.20179904e-01 8.31771612e-01 6.65337741e-02 4.41595865e-03 1.60742365e-03 1.44819985e-03 1.96846481e-03 7.80819833e-01 2.97240037e-02 3.13076586e-03 3.51399300e-03 1.33574279e-02 1.25939354e-01 3.20064753e-01 4.40034270e-01 5.02415121e-01 5.38076520e-01 5.59635937e-01 5.72698712e-01 5.80399752e-01 5.84592342e-01 5.86666048e-01 5.88359177e-01 5.92603564e-01 6.04475617e-01 6.31711960e-01 6.82827413e-01 7.59698927e-01 8.44815850e-01 9.08658266e-01 9.21947181e-01 7.57623672e-01 4.84440401e-02 6.06431626e-03 2.48183403e-03 1.91935815e-03 2.36281403e-03 1.00639537e-02 8.07072759e-01 1.28117912e-02 2.15027900e-03 2.64564948e-03 1.61859654e-02 1.94100484e-01 3.98052096e-01 4.84181195e-01 5.23990929e-01 5.48517346e-01 5.66092730e-01 5.79540253e-01 5.90304852e-01 5.99537373e-01 6.08732402e-01 6.20397508e-01 6.38731420e-01 6.70061469e-01 7.21301317e-01 7.92518437e-01 8.65938902e-01 9.11175966e-01 9.03638363e-01 4.42877471e-01 2.38138679e-02 6.88915187e-03 3.79843498e-03 2.86320527e-03 3.47684813e-03 9.93809383e-03 2.17760205e-01 8.18195522e-01 7.28290621e-03 1.59531960e-03 2.09552678e-03 2.71072127e-02 2.92099535e-01 4.66226459e-01 5.14904499e-01 5.35632610e-01 5.51113248e-01 5.65804601e-01 5.80254495e-01 5.94373941e-01 6.08573854e-01 6.24416173e-01 6.45130932e-01 6.75646305e-01 7.21336663e-01 7.83555806e-01 8.51942539e-01 9.05040205e-01 9.23779190e-01 8.46072495e-01 2.31709450e-01 2.76269373e-02 8.48519709e-03 5.41054085e-03 7.50131207e-03 2.45366115e-02 1.83484524e-01 5.04144132e-01 8.18999231e-01 5.91151649e-03 1.22080056e-03 1.68872380e-03 6.35042340e-02 4.00118798e-01 5.13765693e-01 5.31083882e-01 5.37186742e-01 5.45965135e-01 5.58949769e-01 5.74903965e-01 5.92529655e-01 6.11380100e-01 6.32618785e-01 6.59477830e-01 6.96528494e-01 7.46946633e-01 8.07590902e-01 8.65834415e-01 9.05828774e-01 9.15292144e-01 8.49499643e-01 4.49630588e-01 9.18029696e-02 5.93962707e-02 1.13044210e-01 3.50041956e-01 6.23927653e-01 6.89924240e-01 6.61364675e-01 8.09777498e-01 7.10482523e-03 9.34731739e-04 1.30942045e-03 1.64997876e-01 4.86370862e-01 5.39241135e-01 5.34238100e-01 5.29752612e-01 5.33927679e-01 5.45973063e-01 5.63482702e-01 5.84488988e-01 6.07595086e-01 6.32875085e-01 6.62610054e-01 7.00346828e-01 7.47877359e-01 8.01308692e-01 8.50381076e-01 8.83921802e-01 8.93566310e-01 8.63884509e-01 7.70111382e-01 7.36955762e-01 8.15614820e-01 8.67204607e-01 8.71471047e-01 8.54663253e-01 8.56960893e-01 7.74521232e-01 7.83450067e-01 1.46057559e-02 7.35336100e-04 9.68410808e-04 3.09305102e-01 5.34591019e-01 5.45289516e-01 5.25707841e-01 5.14359891e-01 5.15725613e-01 5.26947498e-01 5.45406044e-01 5.69309533e-01 5.96465647e-01 6.25262916e-01 6.56136751e-01 6.91117108e-01 7.31545210e-01 7.75198758e-01 8.15545797e-01 8.44938219e-01 8.57867599e-01 8.51578116e-01 8.37223828e-01 8.47194612e-01 8.61157537e-01 8.52939188e-01 8.44038248e-01 8.43805194e-01 8.57315242e-01 7.96292424e-01 7.25607455e-01 6.98440820e-02 6.19560597e-04 7.38859060e-04 4.06729102e-01 5.50035536e-01 5.33086598e-01 5.05044997e-01 4.91330415e-01 4.91667032e-01 5.01618326e-01 5.19700706e-01 5.45490503e-01 5.76655805e-01 6.09742641e-01 6.42706692e-01 6.75364614e-01 7.08301067e-01 7.41373599e-01 7.72395194e-01 7.97437191e-01 8.12616825e-01 8.15877020e-01 8.10453236e-01 8.02667439e-01 7.88138151e-01 7.68166125e-01 7.62828588e-01 7.74821639e-01 7.94607341e-01 7.63694286e-01 6.55154467e-01 3.82561654e-01 5.56924730e-04 6.13984535e-04 4.63667423e-01 5.41667521e-01 5.03912687e-01 4.74945515e-01 4.63578343e-01 4.63619292e-01 4.70788300e-01 4.86061335e-01 5.11484206e-01 5.45741916e-01 5.84318936e-01 6.23027265e-01 6.59162879e-01 6.91179991e-01 7.18751192e-01 7.42223501e-01 7.61265457e-01 7.73783267e-01 7.76250184e-01 7.66270638e-01 7.45658875e-01 7.20147014e-01 6.99230731e-01 6.92035079e-01 6.97745740e-01 7.10718036e-01 7.17122793e-01 6.55716121e-01 5.17584562e-01 4.55862610e-04 5.42909838e-04 5.13961494e-01 5.19005179e-01 4.71386701e-01 4.45896059e-01 4.34760004e-01 4.30192679e-01 4.30751503e-01 4.39921737e-01 4.61806953e-01 4.98180121e-01 5.46090305e-01 5.99293053e-01 6.51376128e-01 6.96815014e-01 7.31695592e-01 7.54131496e-01 7.63745070e-01 7.60895312e-01 7.46576786e-01 7.23261476e-01 6.95258439e-01 6.67326450e-01 6.43351793e-01 6.25464797e-01 6.14313483e-01 6.16227448e-01 6.71942294e-01 7.02161193e-01 6.19383574e-01 7.45625293e-04 5.53348858e-04 7.67536104e-01 6.12928092e-01 5.90121984e-01 5.74363112e-01 5.62420189e-01 5.53093195e-01 5.47064066e-01 5.47524631e-01 5.58062255e-01 5.79518259e-01 6.08730674e-01 6.41201556e-01 6.73589349e-01 7.03010976e-01 7.26573706e-01 7.41576016e-01 7.45857179e-01 7.38517463e-01 7.21324444e-01 6.99642003e-01 6.79839969e-01 6.64472759e-01 6.52109742e-01 6.41206622e-01 6.32236183e-01 6.26394987e-01 6.55341625e-01 
