# vtk DataFile Version 2.0
results_case1_non_linear/iter7.vtk, Created by Freefem++ 
ASCII
DATASET UNSTRUCTURED_GRID
POINTS 961 float
0 0 0
0.033333333 0 0
0.066666667 0 0
0.1 0 0
0.13333333 0 0
0.16666667 0 0
0.2 0 0
0.23333333 0 0
0.26666667 0 0
0.3 0 0
0.33333333 0 0
0.36666667 0 0
0.4 0 0
0.43333333 0 0
0.46666667 0 0
0.5 0 0
0.53333333 0 0
0.56666667 0 0
0.6 0 0
0.63333333 0 0
0.66666667 0 0
0.7 0 0
0.73333333 0 0
0.76666667 0 0
0.8 0 0
0.83333333 0 0
0.86666667 0 0
0.9 0 0
0.93333333 0 0
0.96666667 0 0
1 0 0
0 0.033333333 0
0.033333333 0.033333333 0
0.066666667 0.033333333 0
0.1 0.033333333 0
0.13333333 0.033333333 0
0.16666667 0.033333333 0
0.2 0.033333333 0
0.23333333 0.033333333 0
0.26666667 0.033333333 0
0.3 0.033333333 0
0.33333333 0.033333333 0
0.36666667 0.033333333 0
0.4 0.033333333 0
0.43333333 0.033333333 0
0.46666667 0.033333333 0
0.5 0.033333333 0
0.53333333 0.033333333 0
0.56666667 0.033333333 0
0.6 0.033333333 0
0.63333333 0.033333333 0
0.66666667 0.033333333 0
0.7 0.033333333 0
0.73333333 0.033333333 0
0.76666667 0.033333333 0
0.8 0.033333333 0
0.83333333 0.033333333 0
0.86666667 0.033333333 0
0.9 0.033333333 0
0.93333333 0.033333333 0
0.96666667 0.033333333 0
1 0.033333333 0
0 0.066666667 0
0.033333333 0.066666667 0
0.066666667 0.066666667 0
0.1 0.066666667 0
0.13333333 0.066666667 0
0.16666667 0.066666667 0
0.2 0.066666667 0
0.23333333 0.066666667 0
0.26666667 0.066666667 0
0.3 0.066666667 0
0.33333333 0.066666667 0
0.36666667 0.066666667 0
0.4 0.066666667 0
0.43333333 0.066666667 0
0.46666667 0.066666667 0
0.5 0.066666667 0
0.53333333 0.066666667 0
0.56666667 0.066666667 0
0.6 0.066666667 0
0.63333333 0.066666667 0
0.66666667 0.066666667 0
0.7 0.066666667 0
0.73333333 0.066666667 0
0.76666667 0.066666667 0
0.8 0.066666667 0
0.83333333 0.066666667 0
0.86666667 0.066666667 0
0.9 0.066666667 0
0.93333333 0.066666667 0
0.96666667 0.066666667 0
1 0.066666667 0
0 0.1 0
0.033333333 0.1 0
0.066666667 0.1 0
0.1 0.1 0
0.13333333 0.1 0
0.16666667 0.1 0
0.2 0.1 0
0.23333333 0.1 0
0.26666667 0.1 0
0.3 0.1 0
0.33333333 0.1 0
0.36666667 0.1 0
0.4 0.1 0
0.43333333 0.1 0
0.46666667 0.1 0
0.5 0.1 0
0.53333333 0.1 0
0.56666667 0.1 0
0.6 0.1 0
0.63333333 0.1 0
0.66666667 0.1 0
0.7 0.1 0
0.73333333 0.1 0
0.76666667 0.1 0
0.8 0.1 0
0.83333333 0.1 0
0.86666667 0.1 0
0.9 0.1 0
0.93333333 0.1 0
0.96666667 0.1 0
1 0.1 0
0 0.13333333 0
0.033333333 0.13333333 0
0.066666667 0.13333333 0
0.1 0.13333333 0
0.13333333 0.13333333 0
0.16666667 0.13333333 0
0.2 0.13333333 0
0.23333333 0.13333333 0
0.26666667 0.13333333 0
0.3 0.13333333 0
0.33333333 0.13333333 0
0.36666667 0.13333333 0
0.4 0.13333333 0
0.43333333 0.13333333 0
0.46666667 0.13333333 0
0.5 0.13333333 0
0.53333333 0.13333333 0
0.56666667 0.13333333 0
0.6 0.13333333 0
0.63333333 0.13333333 0
0.66666667 0.13333333 0
0.7 0.13333333 0
0.73333333 0.13333333 0
0.76666667 0.13333333 0
0.8 0.13333333 0
0.83333333 0.13333333 0
0.86666667 0.13333333 0
0.9 0.13333333 0
0.93333333 0.13333333 0
0.96666667 0.13333333 0
1 0.13333333 0
0 0.16666667 0
0.033333333 0.16666667 0
0.066666667 0.16666667 0
0.1 0.16666667 0
0.13333333 0.16666667 0
0.16666667 0.16666667 0
0.2 0.16666667 0
0.23333333 0.16666667 0
0.26666667 0.16666667 0
0.3 0.16666667 0
0.33333333 0.16666667 0
0.36666667 0.16666667 0
0.4 0.16666667 0
0.43333333 0.16666667 0
0.46666667 0.16666667 0
0.5 0.16666667 0
0.53333333 0.16666667 0
0.56666667 0.16666667 0
0.6 0.16666667 0
0.63333333 0.16666667 0
0.66666667 0.16666667 0
0.7 0.16666667 0
0.73333333 0.16666667 0
0.76666667 0.16666667 0
0.8 0.16666667 0
0.83333333 0.16666667 0
0.86666667 0.16666667 0
0.9 0.16666667 0
0.93333333 0.16666667 0
0.96666667 0.16666667 0
1 0.16666667 0
0 0.2 0
0.033333333 0.2 0
0.066666667 0.2 0
0.1 0.2 0
0.13333333 0.2 0
0.16666667 0.2 0
0.2 0.2 0
0.23333333 0.2 0
0.26666667 0.2 0
0.3 0.2 0
0.33333333 0.2 0
0.36666667 0.2 0
0.4 0.2 0
0.43333333 0.2 0
0.46666667 0.2 0
0.5 0.2 0
0.53333333 0.2 0
0.56666667 0.2 0
0.6 0.2 0
0.63333333 0.2 0
0.66666667 0.2 0
0.7 0.2 0
0.73333333 0.2 0
0.76666667 0.2 0
0.8 0.2 0
0.83333333 0.2 0
0.86666667 0.2 0
0.9 0.2 0
0.93333333 0.2 0
0.96666667 0.2 0
1 0.2 0
0 0.23333333 0
0.033333333 0.23333333 0
0.066666667 0.23333333 0
0.1 0.23333333 0
0.13333333 0.23333333 0
0.16666667 0.23333333 0
0.2 0.23333333 0
0.23333333 0.23333333 0
0.26666667 0.23333333 0
0.3 0.23333333 0
0.33333333 0.23333333 0
0.36666667 0.23333333 0
0.4 0.23333333 0
0.43333333 0.23333333 0
0.46666667 0.23333333 0
0.5 0.23333333 0
0.53333333 0.23333333 0
0.56666667 0.23333333 0
0.6 0.23333333 0
0.63333333 0.23333333 0
0.66666667 0.23333333 0
0.7 0.23333333 0
0.73333333 0.23333333 0
0.76666667 0.23333333 0
0.8 0.23333333 0
0.83333333 0.23333333 0
0.86666667 0.23333333 0
0.9 0.23333333 0
0.93333333 0.23333333 0
0.96666667 0.23333333 0
1 0.23333333 0
0 0.26666667 0
0.033333333 0.26666667 0
0.066666667 0.26666667 0
0.1 0.26666667 0
0.13333333 0.26666667 0
0.16666667 0.26666667 0
0.2 0.26666667 0
0.23333333 0.26666667 0
0.26666667 0.26666667 0
0.3 0.26666667 0
0.33333333 0.26666667 0
0.36666667 0.26666667 0
0.4 0.26666667 0
0.43333333 0.26666667 0
0.46666667 0.26666667 0
0.5 0.26666667 0
0.53333333 0.26666667 0
0.56666667 0.26666667 0
0.6 0.26666667 0
0.63333333 0.26666667 0
0.66666667 0.26666667 0
0.7 0.26666667 0
0.73333333 0.26666667 0
0.76666667 0.26666667 0
0.8 0.26666667 0
0.83333333 0.26666667 0
0.86666667 0.26666667 0
0.9 0.26666667 0
0.93333333 0.26666667 0
0.96666667 0.26666667 0
1 0.26666667 0
0 0.3 0
0.033333333 0.3 0
0.066666667 0.3 0
0.1 0.3 0
0.13333333 0.3 0
0.16666667 0.3 0
0.2 0.3 0
0.23333333 0.3 0
0.26666667 0.3 0
0.3 0.3 0
0.33333333 0.3 0
0.36666667 0.3 0
0.4 0.3 0
0.43333333 0.3 0
0.46666667 0.3 0
0.5 0.3 0
0.53333333 0.3 0
0.56666667 0.3 0
0.6 0.3 0
0.63333333 0.3 0
0.66666667 0.3 0
0.7 0.3 0
0.73333333 0.3 0
0.76666667 0.3 0
0.8 0.3 0
0.83333333 0.3 0
0.86666667 0.3 0
0.9 0.3 0
0.93333333 0.3 0
0.96666667 0.3 0
1 0.3 0
0 0.33333333 0
0.033333333 0.33333333 0
0.066666667 0.33333333 0
0.1 0.33333333 0
0.13333333 0.33333333 0
0.16666667 0.33333333 0
0.2 0.33333333 0
0.23333333 0.33333333 0
0.26666667 0.33333333 0
0.3 0.33333333 0
0.33333333 0.33333333 0
0.36666667 0.33333333 0
0.4 0.33333333 0
0.43333333 0.33333333 0
0.46666667 0.33333333 0
0.5 0.33333333 0
0.53333333 0.33333333 0
0.56666667 0.33333333 0
0.6 0.33333333 0
0.63333333 0.33333333 0
0.66666667 0.33333333 0
0.7 0.33333333 0
0.73333333 0.33333333 0
0.76666667 0.33333333 0
0.8 0.33333333 0
0.83333333 0.33333333 0
0.86666667 0.33333333 0
0.9 0.33333333 0
0.93333333 0.33333333 0
0.96666667 0.33333333 0
1 0.33333333 0
0 0.36666667 0
0.033333333 0.36666667 0
0.066666667 0.36666667 0
0.1 0.36666667 0
0.13333333 0.36666667 0
0.16666667 0.36666667 0
0.2 0.36666667 0
0.23333333 0.36666667 0
0.26666667 0.36666667 0
0.3 0.36666667 0
0.33333333 0.36666667 0
0.36666667 0.36666667 0
0.4 0.36666667 0
0.43333333 0.36666667 0
0.46666667 0.36666667 0
0.5 0.36666667 0
0.53333333 0.36666667 0
0.56666667 0.36666667 0
0.6 0.36666667 0
0.63333333 0.36666667 0
0.66666667 0.36666667 0
0.7 0.36666667 0
0.73333333 0.36666667 0
0.76666667 0.36666667 0
0.8 0.36666667 0
0.83333333 0.36666667 0
0.86666667 0.36666667 0
0.9 0.36666667 0
0.93333333 0.36666667 0
0.96666667 0.36666667 0
1 0.36666667 0
0 0.4 0
0.033333333 0.4 0
0.066666667 0.4 0
0.1 0.4 0
0.13333333 0.4 0
0.16666667 0.4 0
0.2 0.4 0
0.23333333 0.4 0
0.26666667 0.4 0
0.3 0.4 0
0.33333333 0.4 0
0.36666667 0.4 0
0.4 0.4 0
0.43333333 0.4 0
0.46666667 0.4 0
0.5 0.4 0
0.53333333 0.4 0
0.56666667 0.4 0
0.6 0.4 0
0.63333333 0.4 0
0.66666667 0.4 0
0.7 0.4 0
0.73333333 0.4 0
0.76666667 0.4 0
0.8 0.4 0
0.83333333 0.4 0
0.86666667 0.4 0
0.9 0.4 0
0.93333333 0.4 0
0.96666667 0.4 0
1 0.4 0
0 0.43333333 0
0.033333333 0.43333333 0
0.066666667 0.43333333 0
0.1 0.43333333 0
0.13333333 0.43333333 0
0.16666667 0.43333333 0
0.2 0.43333333 0
0.23333333 0.43333333 0
0.26666667 0.43333333 0
0.3 0.43333333 0
0.33333333 0.43333333 0
0.36666667 0.43333333 0
0.4 0.43333333 0
0.43333333 0.43333333 0
0.46666667 0.43333333 0
0.5 0.43333333 0
0.53333333 0.43333333 0
0.56666667 0.43333333 0
0.6 0.43333333 0
0.63333333 0.43333333 0
0.66666667 0.43333333 0
0.7 0.43333333 0
0.73333333 0.43333333 0
0.76666667 0.43333333 0
0.8 0.43333333 0
0.83333333 0.43333333 0
0.86666667 0.43333333 0
0.9 0.43333333 0
0.93333333 0.43333333 0
0.96666667 0.43333333 0
1 0.43333333 0
0 0.46666667 0
0.033333333 0.46666667 0
0.066666667 0.46666667 0
0.1 0.46666667 0
0.13333333 0.46666667 0
0.16666667 0.46666667 0
0.2 0.46666667 0
0.23333333 0.46666667 0
0.26666667 0.46666667 0
0.3 0.46666667 0
0.33333333 0.46666667 0
0.36666667 0.46666667 0
0.4 0.46666667 0
0.43333333 0.46666667 0
0.46666667 0.46666667 0
0.5 0.46666667 0
0.53333333 0.46666667 0
0.56666667 0.46666667 0
0.6 0.46666667 0
0.63333333 0.46666667 0
0.66666667 0.46666667 0
0.7 0.46666667 0
0.73333333 0.46666667 0
0.76666667 0.46666667 0
0.8 0.46666667 0
0.83333333 0.46666667 0
0.86666667 0.46666667 0
0.9 0.46666667 0
0.93333333 0.46666667 0
0.96666667 0.46666667 0
1 0.46666667 0
0 0.5 0
0.033333333 0.5 0
0.066666667 0.5 0
0.1 0.5 0
0.13333333 0.5 0
0.16666667 0.5 0
0.2 0.5 0
0.23333333 0.5 0
0.26666667 0.5 0
0.3 0.5 0
0.33333333 0.5 0
0.36666667 0.5 0
0.4 0.5 0
0.43333333 0.5 0
0.46666667 0.5 0
0.5 0.5 0
0.53333333 0.5 0
0.56666667 0.5 0
0.6 0.5 0
0.63333333 0.5 0
0.66666667 0.5 0
0.7 0.5 0
0.73333333 0.5 0
0.76666667 0.5 0
0.8 0.5 0
0.83333333 0.5 0
0.86666667 0.5 0
0.9 0.5 0
0.93333333 0.5 0
0.96666667 0.5 0
1 0.5 0
0 0.53333333 0
0.033333333 0.53333333 0
0.066666667 0.53333333 0
0.1 0.53333333 0
0.13333333 0.53333333 0
0.16666667 0.53333333 0
0.2 0.53333333 0
0.23333333 0.53333333 0
0.26666667 0.53333333 0
0.3 0.53333333 0
0.33333333 0.53333333 0
0.36666667 0.53333333 0
0.4 0.53333333 0
0.43333333 0.53333333 0
0.46666667 0.53333333 0
0.5 0.53333333 0
0.53333333 0.53333333 0
0.56666667 0.53333333 0
0.6 0.53333333 0
0.63333333 0.53333333 0
0.66666667 0.53333333 0
0.7 0.53333333 0
0.73333333 0.53333333 0
0.76666667 0.53333333 0
[...]
CELL_DATA 1920
Scalars  Label int 1
LOOKUP_TABLE FreeFempp_table
0
0
0
0
0
0
0
0
0
0
0
0
0
0
0
0
0
0
0
0
0
0
0
0
0
0
0
0
0
0
0
0
0
0
0
0
0
0
0
0
0
0
0
0
0
0
0
0
0
0
0
0
0
0
0
0
0
0
0
0
0
0
0
0
0
0
0
0
0
0
0
0
0
0
0
0
0
0
0
0
0
0
0
0
0
0
0
0
0
0
0
0
0
0
0
0
0
0
0
0
0
0
0
0
0
0
0
0
0
0
0
0
0
0
0
0
0
0
0
0
0
0
0
0
0
0
0
0
0
0
0
0
0
0
0
0
0
0
0
0
0
0
0
0
0
0
0
0
0
0
0
0
0
0
0
0
0
0
0
0
0
0
0
0
0
0
0
0
0
0
0
0
0
0
0
0
0
0
0
0
0
0
0
0
0
0
0
0
0
0
0
0
0
0
0
0
0
0
0
0
0
0
0
0
0
0
0
0
0
0
0
0
0
0
0
0
0
0
0
0
0
0
0
0
0
0
0
0
0
0
0
0
0
0
0
0
0
0
0
0
0
0
0
0
0
0
0
0
0
0
0
0
0
0
0
0
0
0
0
0
0
0
0
0
0
0
0
0
0
0
0
0
0
0
0
0
0
0
0
0
0
0
0
0
0
0
0
0
0
0
0
0
0
0
0
0
0
0
0
0
0
0
0
0
0
0
0
0
0
0
0
0
0
0
0
0
0
0
0
0
0
0
0
0
0
0
0
0
0
0
0
0
0
0
0
0
0
0
0
0
0
0
0
0
0
0
0
0
0
0
0
0
0
0
0
0
0
0
0
0
0
0
0
0
0
0
0
0
0
0
0
0
0
0
0
0
0
0
0
0
0
0
0
0
0
0
0
0
0
0
0
0
0
0
0
0
0
0
0
0
0
0
0
0
0
0
0
0
0
0
0
0
0
0
0
0
0
0
0
0
0
0
0
0
0
0
0
0
0
0
0
0
0
0
0
0
0
0
0
0
0
0
0
0
0
0
0
0
0
0
0
0
0
0
0
0
0
0
0
0
0
0
0
0
0
0
0
0
0
0
0
0
0
0
0
0
0
0
0
0
0
0
0
0
0
0
0
0
0
0
0
0
0
0
0
0
0
0
0
0
0
0
0
0
0
0
0
0
0
0
0
0
0
0
0
0
0
0
0
0
0
0
0
0
0
0
0
0
0
0
0
0
0
0
0
0
0
0
0
0
0
0
0
0
0
0
0
0
0
0
0
0
0
0
0
0
0
0
0
0
0
0
0
0
0
0
0
0
0
0
0
0
0
0
0
0
0
0
0
0
0
0
0
0
0
0
0
0
0
0
0
0
0
0
0
0
0
0
0
0
0
0
0
0
0
0
0
0
0
0
0
0
0
0
0
0
0
0
0
0
0
0
0
0
0
0
0
0
0
0
0
0
0
0
0
0
0
0
0
0
0
0
0
0
0
0
0
0
0
0
0
0
0
0
0
0
0
0
0
0
0
0
0
0
0
0
0
0
0
0
0
0
0
0
0
0
0
0
0
0
0
0
0
0
0
0
0
0
0
0
0
0
0
0
0
0
0
0
0
0
0
0
0
0
0
0
0
0
0
0
0
0
0
0
0
0
0
0
0
0
0
0
0
0
0
0
0
0
0
0
0
0
0
0
0
0
0
0
0
0
0
0
0
0
0
0
0
0
0
0
0
0
0
0
0
0
0
0
0
0
0
0
0
0
0
0
0
0
0
0
0
0
0
0
0
0
0
0
0
0
0
0
0
0
0
0
0
0
0
0
0
0
0
0
0
0
0
0
0
0
0
0
0
0
0
0
0
0
0
0
0
0
0
0
0
0
0
0
0
0
0
0
0
0
0
0
0
0
0
0
0
0
0
0
0
0
0
0
0
0
0
0
0
0
0
0
0
0
0
0
0
0
0
0
0
0
0
0
0
0
0
0
0
0
0
0
0
0
0
0
0
0
0
0
0
0
0
0
0
0
0
0
0
0
0
0
0
0
0
0
0
0
0
0
0
0
0
0
0
0
0
0
0
0
0
0
0
0
0
0
0
0
0
0
0
0
0
0
0
0
0
0
0
0
0
0
0
0
0
0
0
0
0
0
0
0
0
0
0
0
0
0
0
0
0
0
0
0
0
0
0
0
0
0
0
0
0
0
0
0
0
0
0
0
0
0
0
0
0
0
0
0
0
0
0
0
0
0
0
0
0
0
0
0
0
0
0
0
0
0
0
0
0
0
0
0
0
0
0
0
0
0
0
0
0
0
0
0
0
0
0
0
0
0
0
0
0
0
0
0
0
0
0
0
0
0
0
0
0
0
0
0
0
0
0
0
0
0
0
0
0
0
0
0
0
0
0
0
0
0
0
0
0
0
0
0
0
0
0
0
0
0
0
0
0
0
0
0
0
0
0
0
0
0
0
0
0
0
0
0
0
0
0
0
0
0
0
0
0
0
0
0
0
0
0
0
0
0
0
0
0
0
0
0
0
0
0
0
0
0
0
0
0
0
0
0
0
0
0
0
0
0
0
0
0
0
0
0
0
0
0
0
0
0
0
0
0
0
0
0
0
0
0
0
0
0
0
0
0
0
0
0
0
0
0
0
0
0
0
0
0
0
0
0
0
0
0
0
0
0
0
0
0
0
0
0
0
0
0
0
0
0
0
0
0
0
0
0
0
0
0
0
0
0
0
0
0
0
0
0
0
0
0
0
0
0
0
0
0
0
0
0
0
0
0
0
0
0
0
0
0
0
0
0
0
0
0
0
0
0
0
0
0
0
0
0
0
0
0
0
0
0
0
0
0
0
0
0
0
0
0
0
0
0
0
0
0
0
0
0
0
0
0
0
0
0
0
0
0
0
0
0
0
0
0
0
0
0
0
0
0
0
0
0
0
0
0
0
0
0
0
0
0
0
0
0
0
0
0
0
0
0
0
0
0
0
0
0
0
0
0
0
0
0
0
0
0
0
0
0
0
0
0
0
0
0
0
0
0
0
0
0
0
0
0
0
0
0
0
0
0
0
0
0
0
0
0
0
0
0
0
0
0
0
0
0
0
0
0
0
0
0
0
0
0
0
0
0
0
0
0
0
0
0
0
0
0
0
0
0
0
0
0
0
0
0
0
0
0
0
0
0
0
0
0
0
0
0
0
0
0
0
0
0
0
0
0
0
0
0
0
0
0
0
0
0
0
0
0
0
0
0
0
0
0
0
0
0
0
0
0
0
0
0
0
0
0
0
0
0
0
0
0
0
0
0
0
0
0
0
0
0
0
0
0
0
0
0
0
0
0
0
0
0
0
0
0
0
0
0
0
0
0
0
0
0
0
0
0
0
0
0
0
0
0
0
0
0
0
0
0
0
0
0
0
0
0
0
0
0
0
0
0
0
0
0
0
0
0
0
0
0
0
0
0
0
0
0
0
0
0
0
0
0
0
0
0
0
0
0
0
0
0
0
0
0
0
0
0
0
0
0
0
0
0
0
0
0
0
0
0
0
0
0
0
0
0
0
0
0
0
0
0
0
0
0
0
0
0
0
0
0
0
0
0
0
0
0
0
0
0
0
0
0
0
0
0
0
0
0
0
0
0
0
0
0
0
0
0
0
0
0
0
0
0
0
0
0
0
0
0
0
0
0
0
0
0
0
0
0
0
0
0
0
0
0
0
0
0
0
0
0
0
0
0
0
0
0
0
0
0
0
0
0
0
0
0
0
0
0
0
0
0
0
0
0
0
0
0
0
0
0
0
0
0
0
0
0
0
0
0
0
0
0
0
0
0
0
0
0
0
0
0
0
0
0
0
0
0
0
0
0
0
0
0
0
0
0
0
0
0
0
0
0
0
0
0
0
0
0
0
0
0
0
0
0
0
0
0
0
0
0
0
0
0
0
0
0
0
0
0
0
0
0
0
0
0
0
0
0
0
0
0
0
0
0
0
0
0
0
0
0
0
0
0
0
0
0
0
0
0
0
0
0
0
0
0
0
0
0
0
0
0
0
0
0
0
0
0
0
0
0
0
0
0
0
0
0
0
0
0
0
0
0
0
0
0
0
0
0
1
1
1
1
1
1
1
1
1
1
1
1
1
1
1
1
1
1
1
1
1
1
1
1
1
1
1
1
1
1
2
2
2
2
2
2
2
2
2
2
2
2
2
2
2
2
2
2
2
2
2
2
2
2
2
2
2
2
2
2
3
3
3
3
3
3
3
3
3
3
3
3
3
3
3
3
3
3
3
3
3
3
3
3
3
3
3
3
3
3
4
4
4
4
4
4
4
4
4
4
4
4
4
4
4
4
4
4
4
4
4
4
4
4
4
4
4
4
4
4

LOOKUP_TABLE FreeFempp_table 5
1.00000000 0.00000000 0.00000000 1.00000000
1.00000000 1.00000000 0.00000000 1.00000000
1.00000000 0.00000000 1.00000000 1.00000000
0.00000000 1.00000000 0.00000000 1.00000000
0.00000000 1.00000000 1.00000000 1.00000000

POINT_DATA 961
FIELD FieldData 1
Density 1 961 float
6.20508313e-01 5.40795088e-01 5.31804860e-01 5.20175219e-01 5.03337979e-01 4.80672300e-01 4.51225907e-01 4.15168226e-01 3.70002091e-01 2.69486457e-01 3.18653211e-02 3.13349970e-04 2.30998383e-04 5.42215363e-04 9.84397680e-02 5.69388747e-01 6.77918553e-01 7.17561722e-01 7.41396785e-01 7.52215803e-01 7.48936594e-01 7.36869812e-01 7.23003626e-01 7.11080968e-01 7.01828241e-01 6.94857001e-01 6.89682782e-01 6.85951173e-01 6.83339179e-01 6.78070545e-01 7.21018016e-01 9.25405502e-01 3.55747968e-01 2.28372902e-01 1.84341505e-01 1.46924928e-01 1.00013837e-01 4.84427102e-02 1.38506386e-02 3.10555706e-03 1.11630699e-03 6.63211918e-04 2.47772055e-04 1.72603744e-04 2.52244674e-04 2.22256705e-02 3.13501656e-01 5.10263562e-01 6.24860585e-01 6.96808577e-01 7.35934794e-01 7.41983473e-01 7.25247264e-01 7.01512516e-01 6.80238664e-01 6.62814081e-01 6.48047090e-01 6.35225415e-01 6.24376833e-01 6.15674436e-01 6.04175985e-01 6.74538791e-01 1.04835592e-04 1.04469764e-04 1.04897452e-04 1.04977851e-04 1.05001280e-04 1.05020910e-04 1.05043051e-04 1.05079787e-04 1.05136831e-04 1.05191677e-04 1.05187406e-04 1.05063344e-04 1.05349623e-04 1.08675595e-04 4.25435118e-02 2.83457011e-01 3.76029909e-01 5.18406749e-01 6.24722481e-01 6.87289178e-01 7.04875052e-01 6.96685851e-01 6.80796742e-01 6.64830327e-01 6.49697244e-01 6.35277271e-01 6.21962786e-01 6.10416770e-01 6.01217568e-01 5.89740813e-01 6.69158399e-01 1.07462802e-04 1.03988321e-04 1.04823499e-04 1.04956838e-04 1.04983861e-04 1.05002080e-04 1.05017542e-04 1.05039209e-04 1.05081665e-04 1.05146748e-04 1.05201296e-04 1.05258448e-04 1.04512386e-04 1.04186358e-04 1.05182859e-04 1.94570139e-01 3.16886157e-01 4.63188440e-01 5.48963845e-01 6.29562080e-01 6.59739196e-01 6.59134984e-01 6.49176121e-01 6.37246788e-01 6.24776483e-01 6.12305105e-01 6.00599587e-01 5.90439618e-01 5.82435966e-01 5.71752965e-01 6.61707520e-01 3.64005566e-01 1.22372687e-01 8.97273198e-02 8.53371024e-02 9.82273892e-02 1.27056032e-01 1.70610175e-01 2.25646660e-01 2.85903901e-01 3.42079729e-01 3.85152936e-01 4.05820400e-01 3.67299497e-01 1.14022085e-04 1.04776416e-04 1.06759602e-04 3.20096701e-01 4.70322698e-01 4.97474283e-01 5.74843645e-01 6.15218580e-01 6.17568135e-01 6.11326337e-01 6.02076769e-01 5.91764629e-01 5.81394374e-01 5.71754098e-01 5.63474596e-01 5.57094336e-01 5.47370851e-01 6.50716245e-01 4.62129653e-01 1.62897974e-01 1.20130688e-01 1.16975352e-01 1.28938347e-01 1.56254783e-01 1.96969911e-01 2.45826468e-01 2.96642482e-01 3.45303416e-01 3.89583677e-01 4.26059872e-01 4.48872030e-01 4.05700386e-01 1.08608838e-04 1.04303515e-04 1.19009077e-04 5.30611515e-01 5.09967685e-01 5.61562479e-01 5.75319767e-01 5.75726032e-01 5.69590211e-01 5.62070787e-01 5.53721070e-01 5.45576930e-01 5.38282692e-01 5.32219470e-01 5.27803123e-01 5.19014180e-01 6.36813104e-01 5.64312816e-01 3.07186931e-01 2.62387395e-01 2.48017311e-01 2.44302496e-01 2.48829722e-01 2.59098768e-01 2.72339195e-01 2.89054483e-01 3.14388663e-01 3.52937967e-01 3.98546785e-01 4.34372544e-01 4.22536194e-01 1.48599339e-03 1.03933722e-04 1.05506857e-04 6.10743582e-01 5.79976201e-01 5.66131771e-01 5.46014607e-01 5.40657461e-01 5.31122804e-01 5.23302197e-01 5.15897930e-01 5.09343922e-01 5.04046082e-01 5.00091076e-01 4.97692823e-01 4.89538908e-01 6.20925188e-01 6.77575767e-01 5.26708722e-01 4.99266475e-01 4.61461335e-01 4.16996121e-01 3.68437797e-01 3.21263492e-01 2.82921463e-01 2.60691404e-01 2.62362957e-01 2.94481754e-01 3.49119365e-01 3.98916721e-01 3.97684813e-01 3.15058269e-02 1.05085513e-04 1.05185907e-04 6.42778456e-01 6.53544307e-01 5.84745407e-01 5.40873766e-01 5.19140124e-01 5.03616869e-01 4.92375761e-01 4.83698368e-01 4.77172852e-01 4.72797781e-01 4.70308721e-01 4.69614506e-01 4.61639464e-01 6.04136825e-01 7.95927823e-01 7.76540458e-01 7.63825655e-01 7.20380425e-01 6.50899947e-01 5.49328208e-01 4.25603479e-01 3.10559601e-01 2.33015120e-01 2.02533767e-01 2.21369356e-01 2.79883564e-01 3.41993958e-01 3.49460453e-01 4.84328866e-02 1.05088628e-04 1.05042047e-04 6.48135602e-01 6.93212152e-01 6.23627722e-01 5.54077387e-01 5.12903810e-01 4.88951743e-01 4.72314000e-01 4.60182816e-01 4.51927632e-01 4.47147191e-01 4.45223063e-01 4.45718020e-01 4.37559247e-01 5.87691605e-01 8.92496169e-01 9.35341060e-01 9.30520535e-01 9.14275646e-01 8.82736444e-01 8.15032005e-01 6.75551236e-01 4.54846382e-01 2.52327800e-01 1.53519392e-01 1.41316995e-01 1.84269667e-01 2.44340494e-01 2.59436339e-01 2.67270990e-02 1.05145227e-04 1.05100044e-04 6.47445440e-01 7.15988040e-01 6.51694834e-01 5.71877003e-01 5.16305566e-01 4.84213531e-01 4.62100774e-01 4.45602685e-01 4.34490383e-01 4.28279132e-01 4.26155269e-01 4.27411407e-01 4.18987602e-01 5.72961926e-01 9.42139626e-01 9.83383179e-01 9.81827557e-01 9.80306685e-01 9.77436841e-01 9.69100356e-01 9.41887021e-01 8.33182096e-01 4.77207333e-01 1.42784983e-01 6.89480752e-02 7.53992945e-02 1.02062836e-01 1.19622715e-01 6.67289784e-03 1.05206127e-04 1.05143161e-04 6.41998172e-01 7.30049849e-01 6.73518836e-01 5.88846207e-01 5.24045587e-01 4.85940486e-01 4.59269106e-01 4.38615322e-01 4.24336463e-01 4.16200280e-01 4.13519979e-01 4.15473372e-01 4.07088816e-01 5.61427712e-01 9.48266327e-01 9.90852475e-01 9.89946663e-01 9.91285682e-01 9.93140817e-01 9.94504035e-01 9.94694769e-01 9.91400182e-01 9.51772571e-01 3.27615499e-01 1.42914094e-02 7.01355422e-03 1.98429208e-02 3.02707162e-02 1.53417280e-03 1.05248393e-04 1.05189894e-04 6.30127728e-01 7.38634050e-01 6.93713367e-01 6.05221152e-01 5.33814013e-01 4.91985857e-01 4.61723715e-01 4.37532127e-01 4.20258641e-01 4.10122961e-01 4.07036483e-01 4.10205692e-01 4.02731985e-01 5.54783285e-01 8.97326052e-01 9.78686035e-01 9.75459874e-01 9.80599821e-01 9.88721073e-01 9.94758189e-01 9.97648478e-01 9.98741567e-01 9.99017656e-01 9.90541339e-01 3.42014134e-02 6.56093529e-04 5.58625848e-04 4.74964851e-04 3.70680791e-04 1.05410945e-04 1.05185165e-04 6.09501898e-01 7.43230402e-01 7.14283526e-01 6.22040749e-01 5.44692814e-01 5.01044929e-01 4.67879325e-01 4.40769196e-01 4.20749366e-01 4.08765107e-01 4.06028152e-01 4.11742479e-01 4.06947315e-01 5.55093050e-01 7.28825927e-01 8.30793142e-01 7.66561389e-01 7.51381516e-01 8.28896463e-01 9.37022805e-01 9.85004961e-01 9.94326234e-01 9.95881557e-01 9.99541938e-01 9.98976350e-01 1.09697171e-02 9.23244399e-04 6.60854159e-04 3.71369708e-04 1.06049025e-04 1.05604187e-04 5.74372888e-01 7.45076716e-01 7.35514402e-01 6.39836669e-01 5.56663692e-01 5.12225509e-01 4.76393104e-01 4.46881384e-01 4.24177319e-01 4.10634845e-01 4.09892976e-01 4.20707196e-01 4.21572149e-01 5.64622223e-01 5.57767212e-01 3.47216755e-01 1.69943541e-01 9.15320367e-02 9.30455700e-02 2.05528706e-01 5.07085264e-01 4.07289922e-01 2.17363518e-02 5.33309940e-04 9.98557687e-01 9.99868929e-01 2.92253852e-01 7.26140616e-03 2.17168359e-03 1.06464009e-04 1.06222549e-04 5.14679790e-01 7.45854437e-01 7.57127285e-01 6.59361005e-01 5.71304083e-01 5.25068223e-01 4.86220598e-01 4.54910845e-01 4.29456860e-01 4.14748013e-01 4.18868840e-01 4.39286739e-01 4.50373381e-01 5.85477114e-01 5.44365644e-01 1.77202344e-01 4.48378958e-02 1.60959344e-02 1.41701577e-02 3.35645303e-02 8.85617435e-02 3.90072033e-04 2.99218344e-04 2.30463324e-04 3.13978584e-04 9.96631980e-01 9.99923825e-01 9.83880520e-01 3.66872624e-02 1.07423090e-04 1.06504798e-04 1.72534823e-01 7.57889628e-01 7.81061411e-01 6.84357643e-01 5.92380106e-01 5.39201140e-01 4.96973306e-01 4.65760291e-01 4.38112557e-01 4.21981841e-01 4.34308827e-01 4.71181989e-01 4.99390513e-01 6.19268358e-01 6.20819628e-01 2.03790277e-01 3.55116464e-02 1.04398215e-02 8.25113803e-03 1.79869030e-02 1.33114323e-01 1.45195067e-01 4.59023286e-04 1.95550063e-04 1.46917751e-04 3.69417015e-04 9.99682307e-01 9.99915481e-01 9.96098697e-01 1.08262728e-04 1.05012281e-04 3.02697415e-04 7.32643545e-01 8.13505173e-01 7.15854883e-01 6.19959295e-01 5.55141449e-01 5.10359824e-01 4.83448386e-01 4.56225574e-01 4.34667021e-01 4.55034852e-01 5.16185760e-01 5.71227431e-01 6.65374160e-01 6.87831461e-01 3.19203585e-01 5.30433692e-02 1.31316315e-02 8.34370311e-03 1.27169043e-02 4.94765192e-02 4.89047527e-01 5.82315743e-01 1.61653780e-03 1.32825910e-04 1.22264886e-04 7.68703816e-04 9.99874830e-01 9.99882579e-01 9.94534254e-01 1.05168983e-04 1.05116844e-04 6.26932979e-01 8.37463737e-01 7.66451359e-01 6.53558314e-01 5.76964259e-01 5.26719332e-01 5.10020554e-01 4.89528686e-01 4.48836714e-01 4.66188610e-01 5.59730053e-01 6.54095352e-01 7.17954397e-01 7.16730297e-01 4.54613894e-01 1.00610934e-01 2.37210393e-02 1.25417504e-02 1.43477283e-02 3.20773013e-02 1.28124028e-01 6.62956178e-01 9.28955317e-01 3.74941915e-01 1.18124197e-04 1.13736569e-04 4.85548284e-03 9.99879003e-01 9.99797821e-01 9.38669741e-01 1.05584753e-04 1.08450949e-04 8.52877915e-01 8.48140895e-01 7.56517828e-01 6.34633303e-01 5.35251856e-01 5.27014017e-01 5.28363049e-01 4.36808735e-01 4.22242969e-01 5.68750739e-01 7.25409269e-01 7.67831922e-01 7.19879925e-01 5.36809862e-01 1.81141496e-01 5.03296331e-02 2.48155780e-02 2.31296662e-02 4.01537083e-02 1.08859517e-01 3.40632707e-01 8.35469127e-01 9.59879637e-01 1.13360055e-01 1.13322007e-04 1.16928408e-04 9.98842776e-01 9.99842703e-01 9.99741077e-01 1.10725021e-04 1.07042848e-04 7.33850300e-01 8.97868454e-01 8.25005591e-01 6.02648199e-01 4.15695518e-01 4.25540805e-01 5.21631718e-01 3.41529876e-01 2.44096786e-01 4.95797485e-01 7.77235866e-01 8.12611461e-01 7.06696451e-01 5.68190217e-01 2.80454665e-01 1.08321838e-01 5.73445931e-02 4.72415723e-02 6.12872615e-02 1.30571857e-01 3.01540941e-01 6.09039724e-01 9.32710290e-01 7.92068303e-01 1.27311941e-04 1.11641973e-04 1.85212601e-04 9.99461055e-01 9.99830306e-01 9.99550521e-01 1.07107408e-04 1.08051296e-04 8.46741855e-01 9.67319191e-01 7.22284496e-01 1.76492855e-01 3.75088304e-02 2.98292875e-01 2.25153223e-01 5.97799383e-02 2.89870709e-01 8.29587221e-01 8.62341166e-01 6.90150738e-01 5.73913157e-01 3.72264445e-01 2.03837052e-01 1.27716228e-01 1.03709467e-01 1.06115825e-01 1.52264446e-01 2.67261475e-01 4.42667961e-01 7.54584432e-01 9.59234774e-01 7.35749677e-03 1.10325804e-04 1.09603068e-04 6.92278028e-01 9.99652505e-01 9.99783993e-01 9.98808324e-01 1.08353670e-04 1.08981127e-04 9.29960847e-01 9.50773180e-01 5.75575829e-01 8.73227976e-03 4.20221919e-03 6.84407949e-02 1.61773749e-02 7.13277832e-02 8.74502659e-01 9.19627547e-01 6.79270089e-01 5.72984159e-01 4.41589475e-01 3.10595274e-01 2.29540378e-01 1.95130825e-01 1.85365722e-01 2.04920009e-01 2.70592600e-01 3.78542751e-01 5.46539843e-01 8.22639346e-01 9.01825368e-01 1.51784960e-04 1.08916895e-04 1.18128446e-04 9.93145883e-01 9.99691963e-01 9.99738216e-01 9.95321453e-01 1.10308974e-04 1.13304115e-04 9.65676725e-01 9.68391657e-01 5.44223666e-01 3.12026171e-03 1.60517660e-03 2.41950341e-03 1.28734242e-02 8.06820273e-01 9.60242689e-01 6.75594330e-01 5.75658500e-01 4.93909627e-01 4.03506219e-01 3.34446996e-01 2.96543419e-01 2.81159759e-01 2.85245657e-01 3.18194479e-01 3.83836746e-01 4.86974597e-01 6.44828916e-01 8.06710303e-01 7.77267873e-01 1.09476401e-04 1.06268672e-04 2.77177140e-04 9.97403026e-01 9.99755561e-01 9.99756396e-01 6.42596364e-01 1.16582014e-04 1.22415542e-04 1.15819545e-02 9.84850228e-01 8.99580240e-01 2.47118017e-03 5.03743358e-04 2.12257938e-03 3.60435933e-01 9.83737826e-01 6.76045597e-01 5.82933128e-01 5.34680903e-01 4.75386381e-01 4.22628313e-01 3.86449963e-01 3.67515147e-01 3.63436043e-01 3.77449363e-01 4.13326234e-01 4.73268151e-01 5.59155345e-01 6.63733006e-01 7.42101669e-01 6.47438228e-01 1.05116233e-04 1.04320883e-04 1.41895756e-01 9.98024404e-01 9.99850273e-01 9.99712884e-01 4.74189525e-04 1.26368890e-04 1.26790197e-04 4.23823862e-04 9.11036581e-02 6.24892950e-01 5.16481348e-04 6.58477715e-04 1.22564286e-01 9.85133708e-01 6.75460219e-01 5.88740349e-01 5.62049925e-01 5.23003578e-01 4.84429836e-01 4.53551710e-01 4.33811665e-01 4.24921811e-01 4.27622616e-01 4.43403244e-01 4.72413749e-01 5.13463736e-01 5.67324936e-01 6.36005700e-01 6.85783803e-01 5.08434713e-01 1.04414670e-04 1.05757739e-04 3.73534054e-01 9.93879914e-01 9.99891996e-01 9.99721289e-01 3.24090797e-04 1.83807089e-04 1.82300457e-04 1.97594374e-04 1.19428702e-01 2.13486864e-03 4.92987281e-04 3.76453586e-02 9.40039754e-01 6.68547928e-01 5.83289206e-01 5.69782615e-01 5.42812407e-01 5.14889121e-01 4.91073161e-01 4.74495858e-01 4.65728879e-01 4.64104801e-01 4.69129741e-01 4.79481757e-01 4.93180245e-01 5.12063563e-01 5.46564341e-01 6.10792875e-01 6.69322371e-01 1.11266134e-04 1.04924155e-04 1.27319305e-04 2.35686172e-02 6.28203630e-01 9.99824882e-01 9.99878466e-01 2.58056987e-02 4.07861769e-01 2.37864666e-02 6.29711509e-01 5.84869459e-02 9.74796945e-04 4.10863049e-02 7.66268075e-01 6.51617587e-01 5.57683468e-01 5.51502764e-01 5.31487286e-01 5.10958672e-01 4.94089842e-01 4.83691931e-01 4.80429113e-01 4.82435197e-01 4.87283021e-01 4.92174894e-01 4.94552046e-01 4.95116055e-01 5.01829624e-01 5.29179096e-01 6.01116359e-01 6.39352679e-01 1.03984239e-04 1.03257313e-04 7.29165226e-03 8.12871568e-03 7.62413070e-02 9.98325229e-01 9.99845982e-01 9.99548733e-01 9.99006271e-01 9.97475982e-01 9.68175769e-01 6.21175110e-01 9.00033295e-01 8.34253490e-01 6.24322712e-01 5.08426726e-01 5.04115224e-01 4.87580001e-01 4.71298963e-01 4.59452808e-01 4.55429584e-01 4.60549533e-01 4.72749054e-01 4.87894386e-01 5.00976801e-01 5.07932663e-01 5.07746160e-01 5.04259348e-01 5.06082416e-01 5.25655448e-01 5.76715827e-01 5.85321546e-01 1.03014354e-04 1.02903985e-04 1.32996570e-02 9.20347404e-03 4.32832055e-02 9.56842124e-01 9.99150753e-01 9.99544621e-01 9.99489069e-01 9.99099851e-01 9.97950613e-01 9.98837471e-01 9.82342958e-01 5.88480294e-01 4.36692238e-01 4.26252633e-01 4.08763975e-01 3.92952323e-01 3.82954746e-01 3.83178890e-01 3.96372914e-01 4.22275424e-01 4.57104266e-01 4.93898273e-01 5.25270760e-01 5.46627641e-01 5.57166398e-01 5.58881044e-01 5.55290043e-01 5.51502943e-01 5.51690280e-01 5.40842831e-01 1.03141909e-04 1.04599181e-04 2.95779910e-02 1.79868378e-02 5.26459441e-02 5.96492708e-01 9.72035468e-01 9.95465100e-01 9.98356879e-01 9.97858465e-01 9.99075770e-01 9.94968832e-01 6.89911544e-01 5.68729043e-01 5.56996584e-01 5.44268548e-01 5.32634914e-01 5.25364816e-01 5.25318205e-01 5.34838676e-01 5.54287553e-01 5.81596792e-01 6.12544239e-01 6.42322898e-01 6.67351127e-01 6.85815394e-01 6.96992993e-01 7.00063646e-01 6.93758309e-01 6.76961780e-01 6.71249568e-01 1.06046609e-04 1.05997133e-04 1.25831112e-01 1.53902262e-01 1.04146332e-01 1.82948172e-01 4.63279516e-01 7.85113275e-01 9.06897247e-01 9.59105849e-01 9.79968071e-01 9.54658031e-01 
