# vtk DataFile Version 2.0
results_case1_non_linear/iter4.vtk, Created by Freefem++ 
ASCII
DATASET UNSTRUCTURED_GRID
POINTS 961 float
0 0 0
0.033333333 0 0
0.066666667 0 0
0.1 0 0
0.13333333 0 0
0.16666667 0 0
0.2 0 0
0.23333333 0 0
0.26666667 0 0
0.3 0 0
0.33333333 0 0
0.36666667 0 0
0.4 0 0
0.43333333 0 0
0.46666667 0 0
0.5 0 0
0.53333333 0 0
0.56666667 0 0
0.6 0 0
0.63333333 0 0
0.66666667 0 0
0.7 0 0
0.73333333 0 0
0.76666667 0 0
0.8 0 0
0.83333333 0 0
0.86666667 0 0
0.9 0 0
0.93333333 0 0
0.96666667 0 0
1 0 0
0 0.033333333 0
0.033333333 0.033333333 0
0.066666667 0.033333333 0
0.1 0.033333333 0
0.13333333 0.033333333 0
0.16666667 0.033333333 0
0.2 0.033333333 0
0.23333333 0.033333333 0
0.26666667 0.033333333 0
0.3 0.033333333 0
0.33333333 0.033333333 0
0.36666667 0.033333333 0
0.4 0.033333333 0
0.43333333 0.033333333 0
0.46666667 0.033333333 0
0.5 0.033333333 0
0.53333333 0.033333333 0
0.56666667 0.033333333 0
0.6 0.033333333 0
0.63333333 0.033333333 0
0.66666667 0.033333333 0
0.7 0.033333333 0
0.73333333 0.033333333 0
0.76666667 0.033333333 0
0.8 0.033333333 0
0.83333333 0.033333333 0
0.86666667 0.033333333 0
0.9 0.033333333 0
0.93333333 0.033333333 0
0.96666667 0.033333333 0
1 0.033333333 0
0 0.066666667 0
0.033333333 0.066666667 0
0.066666667 0.066666667 0
0.1 0.066666667 0
0.13333333 0.066666667 0
0.16666667 0.066666667 0
0.2 0.066666667 0
0.23333333 0.066666667 0
0.26666667 0.066666667 0
0.3 0.066666667 0
0.33333333 0.066666667 0
0.36666667 0.066666667 0
0.4 0.066666667 0
0.43333333 0.066666667 0
0.46666667 0.066666667 0
0.5 0.066666667 0
0.53333333 0.066666667 0
0.56666667 0.066666667 0
0.6 0.066666667 0
0.63333333 0.066666667 0
0.66666667 0.066666667 0
0.7 0.066666667 0
0.73333333 0.066666667 0
0.76666667 0.066666667 0
0.8 0.066666667 0
0.83333333 0.066666667 0
0.86666667 0.066666667 0
0.9 0.066666667 0
0.93333333 0.066666667 0
0.96666667 0.066666667 0
1 0.066666667 0
0 0.1 0
0.033333333 0.1 0
0.066666667 0.1 0
0.1 0.1 0
0.13333333 0.1 0
0.16666667 0.1 0
0.2 0.1 0
0.23333333 0.1 0
0.26666667 0.1 0
0.3 0.1 0
0.33333333 0.1 0
0.36666667 0.1 0
0.4 0.1 0
0.43333333 0.1 0
0.46666667 0.1 0
0.5 0.1 0
0.53333333 0.1 0
0.56666667 0.1 0
0.6 0.1 0
0.63333333 0.1 0
0.66666667 0.1 0
0.7 0.1 0
0.73333333 0.1 0
0.76666667 0.1 0
0.8 0.1 0
0.83333333 0.1 0
0.86666667 0.1 0
0.9 0.1 0
0.93333333 0.1 0
0.96666667 0.1 0
1 0.1 0
0 0.13333333 0
0.033333333 0.13333333 0
0.066666667 0.13333333 0
0.1 0.13333333 0
0.13333333 0.13333333 0
0.16666667 0.13333333 0
0.2 0.13333333 0
0.23333333 0.13333333 0
0.26666667 0.13333333 0
0.3 0.13333333 0
0.33333333 0.13333333 0
0.36666667 0.13333333 0
0.4 0.13333333 0
0.43333333 0.13333333 0
0.46666667 0.13333333 0
0.5 0.13333333 0
0.53333333 0.13333333 0
0.56666667 0.13333333 0
0.6 0.13333333 0
0.63333333 0.13333333 0
0.66666667 0.13333333 0
0.7 0.13333333 0
0.73333333 0.13333333 0
0.76666667 0.13333333 0
0.8 0.13333333 0
0.83333333 0.13333333 0
0.86666667 0.13333333 0
0.9 0.13333333 0
0.93333333 0.13333333 0
0.96666667 0.13333333 0
1 0.13333333 0
0 0.16666667 0
0.033333333 0.16666667 0
0.066666667 0.16666667 0
0.1 0.16666667 0
0.13333333 0.16666667 0
0.16666667 0.16666667 0
0.2 0.16666667 0
0.23333333 0.16666667 0
0.26666667 0.16666667 0
0.3 0.16666667 0
0.33333333 0.16666667 0
0.36666667 0.16666667 0
0.4 0.16666667 0
0.43333333 0.16666667 0
0.46666667 0.16666667 0
0.5 0.16666667 0
0.53333333 0.16666667 0
0.56666667 0.16666667 0
0.6 0.16666667 0
0.63333333 0.16666667 0
0.66666667 0.16666667 0
0.7 0.16666667 0
0.73333333 0.16666667 0
0.76666667 0.16666667 0
0.8 0.16666667 0
0.83333333 0.16666667 0
0.86666667 0.16666667 0
0.9 0.16666667 0
0.93333333 0.16666667 0
0.96666667 0.16666667 0
1 0.16666667 0
0 0.2 0
0.033333333 0.2 0
0.066666667 0.2 0
0.1 0.2 0
0.13333333 0.2 0
0.16666667 0.2 0
0.2 0.2 0
0.23333333 0.2 0
0.26666667 0.2 0
0.3 0.2 0
0.33333333 0.2 0
0.36666667 0.2 0
0.4 0.2 0
0.43333333 0.2 0
0.46666667 0.2 0
0.5 0.2 0
0.53333333 0.2 0
0.56666667 0.2 0
0.6 0.2 0
0.63333333 0.2 0
0.66666667 0.2 0
0.7 0.2 0
0.73333333 0.2 0
0.76666667 0.2 0
0.8 0.2 0
0.83333333 0.2 0
0.86666667 0.2 0
0.9 0.2 0
0.93333333 0.2 0
0.96666667 0.2 0
1 0.2 0
0 0.23333333 0
0.033333333 0.23333333 0
0.066666667 0.23333333 0
0.1 0.23333333 0
0.13333333 0.23333333 0
0.16666667 0.23333333 0
0.2 0.23333333 0
0.23333333 0.23333333 0
0.26666667 0.23333333 0
0.3 0.23333333 0
0.33333333 0.23333333 0
0.36666667 0.23333333 0
0.4 0.23333333 0
0.43333333 0.23333333 0
0.46666667 0.23333333 0
0.5 0.23333333 0
0.53333333 0.23333333 0
0.56666667 0.23333333 0
0.6 0.23333333 0
0.63333333 0.23333333 0
0.66666667 0.23333333 0
0.7 0.23333333 0
0.73333333 0.23333333 0
0.76666667 0.23333333 0
0.8 0.23333333 0
0.83333333 0.23333333 0
0.86666667 0.23333333 0
0.9 0.23333333 0
0.93333333 0.23333333 0
0.96666667 0.23333333 0
1 0.23333333 0
0 0.26666667 0
0.033333333 0.26666667 0
0.066666667 0.26666667 0
0.1 0.26666667 0
0.13333333 0.26666667 0
0.16666667 0.26666667 0
0.2 0.26666667 0
0.23333333 0.26666667 0
0.26666667 0.26666667 0
0.3 0.26666667 0
0.33333333 0.26666667 0
0.36666667 0.26666667 0
0.4 0.26666667 0
0.43333333 0.26666667 0
0.46666667 0.26666667 0
0.5 0.26666667 0
0.53333333 0.26666667 0
0.56666667 0.26666667 0
0.6 0.26666667 0
0.63333333 0.26666667 0
0.66666667 0.26666667 0
0.7 0.26666667 0
0.73333333 0.26666667 0
0.76666667 0.26666667 0
0.8 0.26666667 0
0.83333333 0.26666667 0
0.86666667 0.26666667 0
0.9 0.26666667 0
0.93333333 0.26666667 0
0.96666667 0.26666667 0
1 0.26666667 0
0 0.3 0
0.033333333 0.3 0
0.066666667 0.3 0
0.1 0.3 0
0.13333333 0.3 0
0.16666667 0.3 0
0.2 0.3 0
0.23333333 0.3 0
0.26666667 0.3 0
0.3 0.3 0
0.33333333 0.3 0
0.36666667 0.3 0
0.4 0.3 0
0.43333333 0.3 0
0.46666667 0.3 0
0.5 0.3 0
0.53333333 0.3 0
0.56666667 0.3 0
0.6 0.3 0
0.63333333 0.3 0
0.66666667 0.3 0
0.7 0.3 0
0.73333333 0.3 0
0.76666667 0.3 0
0.8 0.3 0
0.83333333 0.3 0
0.86666667 0.3 0
0.9 0.3 0
0.93333333 0.3 0
0.96666667 0.3 0
1 0.3 0
0 0.33333333 0
0.033333333 0.33333333 0
0.066666667 0.33333333 0
0.1 0.33333333 0
0.13333333 0.33333333 0
0.16666667 0.33333333 0
0.2 0.33333333 0
0.23333333 0.33333333 0
0.26666667 0.33333333 0
0.3 0.33333333 0
0.33333333 0.33333333 0
0.36666667 0.33333333 0
0.4 0.33333333 0
0.43333333 0.33333333 0
0.46666667 0.33333333 0
0.5 0.33333333 0
0.53333333 0.33333333 0
0.56666667 0.33333333 0
0.6 0.33333333 0
0.63333333 0.33333333 0
0.66666667 0.33333333 0
0.7 0.33333333 0
0.73333333 0.33333333 0
0.76666667 0.33333333 0
0.8 0.33333333 0
0.83333333 0.33333333 0
0.86666667 0.33333333 0
0.9 0.33333333 0
0.93333333 0.33333333 0
0.96666667 0.33333333 0
1 0.33333333 0
0 0.36666667 0
0.033333333 0.36666667 0
0.066666667 0.36666667 0
0.1 0.36666667 0
0.13333333 0.36666667 0
0.16666667 0.36666667 0
0.2 0.36666667 0
0.23333333 0.36666667 0
0.26666667 0.36666667 0
0.3 0.36666667 0
0.33333333 0.36666667 0
0.36666667 0.36666667 0
0.4 0.36666667 0
0.43333333 0.36666667 0
0.46666667 0.36666667 0
0.5 0.36666667 0
0.53333333 0.36666667 0
0.56666667 0.36666667 0
0.6 0.36666667 0
0.63333333 0.36666667 0
0.66666667 0.36666667 0
0.7 0.36666667 0
0.73333333 0.36666667 0
0.76666667 0.36666667 0
0.8 0.36666667 0
0.83333333 0.36666667 0
0.86666667 0.36666667 0
0.9 0.36666667 0
0.93333333 0.36666667 0
0.96666667 0.36666667 0
1 0.36666667 0
0 0.4 0
0.033333333 0.4 0
0.066666667 0.4 0
0.1 0.4 0
0.13333333 0.4 0
0.16666667 0.4 0
0.2 0.4 0
0.23333333 0.4 0
0.26666667 0.4 0
0.3 0.4 0
0.33333333 0.4 0
0.36666667 0.4 0
0.4 0.4 0
0.43333333 0.4 0
0.46666667 0.4 0
0.5 0.4 0
0.53333333 0.4 0
0.56666667 0.4 0
0.6 0.4 0
0.63333333 0.4 0
0.66666667 0.4 0
0.7 0.4 0
0.73333333 0.4 0
0.76666667 0.4 0
0.8 0.4 0
0.83333333 0.4 0
0.86666667 0.4 0
0.9 0.4 0
0.93333333 0.4 0
0.96666667 0.4 0
1 0.4 0
0 0.43333333 0
0.033333333 0.43333333 0
0.066666667 0.43333333 0
0.1 0.43333333 0
0.13333333 0.43333333 0
0.16666667 0.43333333 0
0.2 0.43333333 0
0.23333333 0.43333333 0
0.26666667 0.43333333 0
0.3 0.43333333 0
0.33333333 0.43333333 0
0.36666667 0.43333333 0
0.4 0.43333333 0
0.43333333 0.43333333 0
0.46666667 0.43333333 0
0.5 0.43333333 0
0.53333333 0.43333333 0
0.56666667 0.43333333 0
0.6 0.43333333 0
0.63333333 0.43333333 0
0.66666667 0.43333333 0
0.7 0.43333333 0
0.73333333 0.43333333 0
0.76666667 0.43333333 0
0.8 0.43333333 0
0.83333333 0.43333333 0
0.86666667 0.43333333 0
0.9 0.43333333 0
0.93333333 0.43333333 0
0.96666667 0.43333333 0
1 0.43333333 0
0 0.46666667 0
0.033333333 0.46666667 0
0.066666667 0.46666667 0
0.1 0.46666667 0
0.13333333 0.46666667 0
0.16666667 0.46666667 0
0.2 0.46666667 0
0.23333333 0.46666667 0
0.26666667 0.46666667 0
0.3 0.46666667 0
0.33333333 0.46666667 0
0.36666667 0.46666667 0
0.4 0.46666667 0
0.43333333 0.46666667 0
0.46666667 0.46666667 0
0.5 0.46666667 0
0.53333333 0.46666667 0
0.56666667 0.46666667 0
0.6 0.46666667 0
0.63333333 0.46666667 0
0.66666667 0.46666667 0
0.7 0.46666667 0
0.73333333 0.46666667 0
0.76666667 0.46666667 0
0.8 0.46666667 0
0.83333333 0.46666667 0
0.86666667 0.46666667 0
0.9 0.46666667 0
0.93333333 0.46666667 0
0.96666667 0.46666667 0
1 0.46666667 0
0 0.5 0
0.033333333 0.5 0
0.066666667 0.5 0
0.1 0.5 0
0.13333333 0.5 0
0.16666667 0.5 0
0.2 0.5 0
0.23333333 0.5 0
0.26666667 0.5 0
0.3 0.5 0
0.33333333 0.5 0
0.36666667 0.5 0
0.4 0.5 0
0.43333333 0.5 0
0.46666667 0.5 0
0.5 0.5 0
0.53333333 0.5 0
0.56666667 0.5 0
0.6 0.5 0
0.63333333 0.5 0
0.66666667 0.5 0
0.7 0.5 0
0.73333333 0.5 0
0.76666667 0.5 0
0.8 0.5 0
0.83333333 0.5 0
0.86666667 0.5 0
0.9 0.5 0
0.93333333 0.5 0
0.96666667 0.5 0
1 0.5 0
0 0.53333333 0
0.033333333 0.53333333 0
0.066666667 0.53333333 0
0.1 0.53333333 0
0.13333333 0.53333333 0
0.16666667 0.53333333 0
0.2 0.53333333 0
0.23333333 0.53333333 0
0.26666667 0.53333333 0
0.3 0.53333333 0
0.33333333 0.53333333 0
0.36666667 0.53333333 0
0.4 0.53333333 0
0.43333333 0.53333333 0
0.46666667 0.53333333 0
0.5 0.53333333 0
0.53333333 0.53333333 0
0.56666667 0.53333333 0
0.6 0.53333333 0
0.63333333 0.53333333 0
0.66666667 0.53333333 0
0.7 0.53333333 0
0.73333333 0.53333333 0
0.76666667 0.53333333 0
[...]
CELL_DATA 1920
Scalars  Label int 1
LOOKUP_TABLE FreeFempp_table
0
0
0
0
0
0
0
0
0
0
0
0
0
0
0
0
0
0
0
0
0
0
0
0
0
0
0
0
0
0
0
0
0
0
0
0
0
0
0
0
0
0
0
0
0
0
0
0
0
0
0
0
0
0
0
0
0
0
0
0
0
0
0
0
0
0
0
0
0
0
0
0
0
0
0
0
0
0
0
0
0
0
0
0
0
0
0
0
0
0
0
0
0
0
0
0
0
0
0
0
0
0
0
0
0
0
0
0
0
0
0
0
0
0
0
0
0
0
0
0
0
0
0
0
0
0
0
0
0
0
0
0
0
0
0
0
0
0
0
0
0
0
0
0
0
0
0
0
0
0
0
0
0
0
0
0
0
0
0
0
0
0
0
0
0
0
0
0
0
0
0
0
0
0
0
0
0
0
0
0
0
0
0
0
0
0
0
0
0
0
0
0
0
0
0
0
0
0
0
0
0
0
0
0
0
0
0
0
0
0
0
0
0
0
0
0
0
0
0
0
0
0
0
0
0
0
0
0
0
0
0
0
0
0
0
0
0
0
0
0
0
0
0
0
0
0
0
0
0
0
0
0
0
0
0
0
0
0
0
0
0
0
0
0
0
0
0
0
0
0
0
0
0
0
0
0
0
0
0
0
0
0
0
0
0
0
0
0
0
0
0
0
0
0
0
0
0
0
0
0
0
0
0
0
0
0
0
0
0
0
0
0
0
0
0
0
0
0
0
0
0
0
0
0
0
0
0
0
0
0
0
0
0
0
0
0
0
0
0
0
0
0
0
0
0
0
0
0
0
0
0
0
0
0
0
0
0
0
0
0
0
0
0
0
0
0
0
0
0
0
0
0
0
0
0
0
0
0
0
0
0
0
0
0
0
0
0
0
0
0
0
0
0
0
0
0
0
0
0
0
0
0
0
0
0
0
0
0
0
0
0
0
0
0
0
0
0
0
0
0
0
0
0
0
0
0
0
0
0
0
0
0
0
0
0
0
0
0
0
0
0
0
0
0
0
0
0
0
0
0
0
0
0
0
0
0
0
0
0
0
0
0
0
0
0
0
0
0
0
0
0
0
0
0
0
0
0
0
0
0
0
0
0
0
0
0
0
0
0
0
0
0
0
0
0
0
0
0
0
0
0
0
0
0
0
0
0
0
0
0
0
0
0
0
0
0
0
0
0
0
0
0
0
0
0
0
0
0
0
0
0
0
0
0
0
0
0
0
0
0
0
0
0
0
0
0
0
0
0
0
0
0
0
0
0
0
0
0
0
0
0
0
0
0
0
0
0
0
0
0
0
0
0
0
0
0
0
0
0
0
0
0
0
0
0
0
0
0
0
0
0
0
0
0
0
0
0
0
0
0
0
0
0
0
0
0
0
0
0
0
0
0
0
0
0
0
0
0
0
0
0
0
0
0
0
0
0
0
0
0
0
0
0
0
0
0
0
0
0
0
0
0
0
0
0
0
0
0
0
0
0
0
0
0
0
0
0
0
0
0
0
0
0
0
0
0
0
0
0
0
0
0
0
0
0
0
0
0
0
0
0
0
0
0
0
0
0
0
0
0
0
0
0
0
0
0
0
0
0
0
0
0
0
0
0
0
0
0
0
0
0
0
0
0
0
0
0
0
0
0
0
0
0
0
0
0
0
0
0
0
0
0
0
0
0
0
0
0
0
0
0
0
0
0
0
0
0
0
0
0
0
0
0
0
0
0
0
0
0
0
0
0
0
0
0
0
0
0
0
0
0
0
0
0
0
0
0
0
0
0
0
0
0
0
0
0
0
0
0
0
0
0
0
0
0
0
0
0
0
0
0
0
0
0
0
0
0
0
0
0
0
0
0
0
0
0
0
0
0
0
0
0
0
0
0
0
0
0
0
0
0
0
0
0
0
0
0
0
0
0
0
0
0
0
0
0
0
0
0
0
0
0
0
0
0
0
0
0
0
0
0
0
0
0
0
0
0
0
0
0
0
0
0
0
0
0
0
0
0
0
0
0
0
0
0
0
0
0
0
0
0
0
0
0
0
0
0
0
0
0
0
0
0
0
0
0
0
0
0
0
0
0
0
0
0
0
0
0
0
0
0
0
0
0
0
0
0
0
0
0
0
0
0
0
0
0
0
0
0
0
0
0
0
0
0
0
0
0
0
0
0
0
0
0
0
0
0
0
0
0
0
0
0
0
0
0
0
0
0
0
0
0
0
0
0
0
0
0
0
0
0
0
0
0
0
0
0
0
0
0
0
0
0
0
0
0
0
0
0
0
0
0
0
0
0
0
0
0
0
0
0
0
0
0
0
0
0
0
0
0
0
0
0
0
0
0
0
0
0
0
0
0
0
0
0
0
0
0
0
0
0
0
0
0
0
0
0
0
0
0
0
0
0
0
0
0
0
0
0
0
0
0
0
0
0
0
0
0
0
0
0
0
0
0
0
0
0
0
0
0
0
0
0
0
0
0
0
0
0
0
0
0
0
0
0
0
0
0
0
0
0
0
0
0
0
0
0
0
0
0
0
0
0
0
0
0
0
0
0
0
0
0
0
0
0
0
0
0
0
0
0
0
0
0
0
0
0
0
0
0
0
0
0
0
0
0
0
0
0
0
0
0
0
0
0
0
0
0
0
0
0
0
0
0
0
0
0
0
0
0
0
0
0
0
0
0
0
0
0
0
0
0
0
0
0
0
0
0
0
0
0
0
0
0
0
0
0
0
0
0
0
0
0
0
0
0
0
0
0
0
0
0
0
0
0
0
0
0
0
0
0
0
0
0
0
0
0
0
0
0
0
0
0
0
0
0
0
0
0
0
0
0
0
0
0
0
0
0
0
0
0
0
0
0
0
0
0
0
0
0
0
0
0
0
0
0
0
0
0
0
0
0
0
0
0
0
0
0
0
0
0
0
0
0
0
0
0
0
0
0
0
0
0
0
0
0
0
0
0
0
0
0
0
0
0
0
0
0
0
0
0
0
0
0
0
0
0
0
0
0
0
0
0
0
0
0
0
0
0
0
0
0
0
0
0
0
0
0
0
0
0
0
0
0
0
0
0
0
0
0
0
0
0
0
0
0
0
0
0
0
0
0
0
0
0
0
0
0
0
0
0
0
0
0
0
0
0
0
0
0
0
0
0
0
0
0
0
0
0
0
0
0
0
0
0
0
0
0
0
0
0
0
0
0
0
0
0
0
0
0
0
0
0
0
0
0
0
0
0
0
0
0
0
0
0
0
0
0
0
0
0
0
0
0
0
0
0
0
0
0
0
0
0
0
0
0
0
0
0
0
0
0
0
0
0
0
0
0
0
0
0
0
0
0
0
0
0
0
0
0
0
0
0
0
0
0
0
0
0
0
0
0
0
0
0
0
0
0
0
0
0
0
0
0
0
0
0
0
0
0
0
0
0
0
0
0
0
0
0
0
0
0
0
0
0
0
0
0
0
0
0
0
0
0
0
0
0
0
0
0
0
0
0
0
0
0
0
0
0
0
0
0
0
0
0
0
0
0
0
0
0
0
0
0
0
0
0
0
0
0
0
0
0
0
0
0
0
0
0
0
0
0
0
0
0
0
0
0
0
0
0
0
0
0
0
0
0
0
0
0
0
0
0
0
0
0
0
0
0
0
0
0
0
0
0
0
0
0
0
0
0
0
0
0
0
0
0
0
0
0
0
0
0
0
0
0
0
0
0
0
0
0
0
0
0
0
0
0
0
0
0
0
0
0
0
0
0
0
0
0
0
0
0
0
0
0
0
0
0
0
0
0
0
0
0
0
0
0
0
0
0
0
0
0
0
0
0
0
0
0
0
0
0
0
0
0
0
0
0
0
0
0
0
0
0
0
0
0
0
0
0
0
0
0
0
0
0
0
0
0
0
0
0
0
0
0
0
0
0
0
0
0
0
0
0
0
0
0
0
0
0
0
0
0
0
0
0
0
0
0
0
0
0
0
0
0
0
0
0
0
0
0
0
0
0
0
0
0
0
0
0
0
0
0
0
0
0
0
0
0
0
0
0
0
0
0
0
0
0
0
0
0
0
0
0
0
0
0
0
0
0
0
0
0
0
0
0
0
0
0
1
1
1
1
1
1
1
1
1
1
1
1
1
1
1
1
1
1
1
1
1
1
1
1
1
1
1
1
1
1
2
2
2
2
2
2
2
2
2
2
2
2
2
2
2
2
2
2
2
2
2
2
2
2
2
2
2
2
2
2
3
3
3
3
3
3
3
3
3
3
3
3
3
3
3
3
3
3
3
3
3
3
3
3
3
3
3
3
3
3
4
4
4
4
4
4
4
4
4
4
4
4
4
4
4
4
4
4
4
4
4
4
4
4
4
4
4
4
4
4

LOOKUP_TABLE FreeFempp_table 5
1.00000000 0.00000000 0.00000000 1.00000000
1.00000000 1.00000000 0.00000000 1.00000000
1.00000000 0.00000000 1.00000000 1.00000000
0.00000000 1.00000000 0.00000000 1.00000000
0.00000000 1.00000000 1.00000000 1.00000000

POINT_DATA 961
FIELD FieldData 1
Density 1 961 float
5.82509696e-01 5.28940022e-01 5.27182221e-01 5.26657760e-01 5.26411295e-01 5.26172340e-01 5.25927961e-01 5.26110172e-01 5.18852532e-01 2.56157815e-01 1.22263888e-03 1.16127555e-03 9.16760415e-03 7.00101674e-01 9.17773068e-01 9.23993051e-01 8.90211880e-01 8.77055049e-01 8.40141237e-01 8.33918333e-01 8.09165657e-01 7.57672668e-01 7.25522041e-01 7.01357245e-01 6.83619797e-01 6.71062469e-01 6.61911786e-01 6.55345559e-01 6.51238918e-01 6.46865547e-01 6.68145955e-01 5.10407090e-01 3.81429940e-01 3.79320890e-01 3.78949523e-01 3.78523588e-01 3.78166795e-01 3.78437161e-01 3.79386902e-01 3.69395971e-01 2.07028195e-01 1.33267918e-03 6.89685869e-04 1.41002459e-03 4.44056332e-01 9.68938708e-01 4.65884626e-01 1.01059459e-01 8.17636192e-01 8.44341516e-01 8.63319993e-01 8.87030065e-01 8.55757415e-01 7.88087785e-01 7.27828324e-01 6.84244156e-01 6.54964924e-01 6.34531915e-01 6.20104313e-01 6.10748410e-01 6.02322876e-01 6.43043578e-01 3.47887195e-04 3.08932533e-04 3.06610542e-04 3.06185684e-04 3.05788737e-04 3.05448659e-04 3.06919595e-04 3.12139775e-04 3.21352418e-04 3.34265409e-04 3.37536476e-04 3.22852720e-04 3.10229167e-04 6.44834770e-04 7.38401532e-01 9.59739029e-01 4.92785824e-03 1.58444489e-03 9.89093096e-04 8.04407755e-04 8.01084796e-04 8.91339872e-03 6.70230150e-01 6.70066297e-01 6.36609554e-01 6.08947635e-01 5.92949986e-01 5.81988573e-01 5.75185478e-01 5.67893624e-01 6.29609883e-01 4.71858686e-04 2.92566780e-04 3.09159223e-04 3.06008646e-04 3.05588648e-04 3.05027876e-04 3.05151654e-04 3.08330869e-04 3.15411482e-04 3.26490757e-04 3.34634969e-04 3.54756310e-04 2.71174649e-04 2.57300417e-04 2.66398914e-04 9.96638596e-01 9.78375077e-01 3.13494192e-03 1.44126418e-03 9.43380874e-04 4.99382964e-04 4.29685111e-04 3.99403973e-04 2.68100768e-01 5.38199008e-01 5.38045406e-01 5.33208609e-01 5.29327512e-01 5.26398122e-01 5.21939754e-01 6.08551085e-01 6.06327951e-01 5.08889616e-01 5.12675583e-01 5.12685955e-01 5.12131572e-01 5.10775268e-01 5.08342862e-01 5.04441857e-01 4.98308212e-01 4.88325328e-01 4.70579624e-01 4.40921515e-01 3.02218407e-01 5.50916360e-04 2.26673059e-04 2.29846773e-04 3.36129102e-04 9.98749077e-01 9.89103436e-01 9.55914557e-01 3.61737609e-01 8.02764145e-04 2.87210918e-04 2.63990485e-04 1.89716718e-03 4.23819512e-01 4.62454289e-01 4.72706228e-01 4.76362318e-01 4.75127906e-01 5.84775448e-01 6.31467342e-01 5.74228942e-01 5.78380466e-01 5.78006387e-01 5.77568114e-01 5.76762140e-01 5.75363755e-01 5.73138833e-01 5.69997430e-01 5.66132605e-01 5.61479390e-01 5.56270540e-01 5.59053957e-01 5.51114023e-01 4.96206999e-01 3.11598502e-04 2.44536262e-04 2.49806733e-04 4.07222484e-04 9.88468230e-01 9.92512465e-01 9.96366143e-01 9.96353626e-01 2.71653495e-04 2.93200632e-04 6.39400852e-04 8.58361796e-02 3.43386471e-01 3.81181091e-01 3.94269288e-01 5.40841997e-01 6.39491081e-01 5.94574273e-01 5.97554326e-01 5.97152054e-01 5.97344458e-01 5.97863495e-01 5.98766446e-01 6.00207865e-01 6.02475822e-01 6.05857253e-01 6.10177398e-01 6.14833117e-01 6.21838510e-01 6.37480080e-01 6.54047847e-01 6.58036709e-01 5.94383121e-01 3.46053886e-04 2.96031823e-04 3.14665609e-04 7.47419661e-04 1.09308504e-03 5.59859816e-03 9.97362912e-01 4.00331977e-04 3.62512568e-04 4.78153292e-04 8.78602441e-04 7.96417007e-04 8.19501816e-04 2.03478592e-03 6.42085671e-01 6.03561103e-01 6.06102169e-01 6.05813384e-01 6.06715977e-01 6.08554780e-01 6.11428142e-01 6.15487754e-01 6.20891333e-01 6.27631247e-01 6.35318279e-01 6.43553376e-01 6.53476000e-01 6.68345809e-01 6.91325665e-01 7.24478841e-01 7.69160509e-01 7.86329031e-01 7.39387929e-01 4.81656054e-04 6.15075696e-04 7.47168320e-04 1.58234115e-03 1.35653066e-02 9.98530328e-01 7.00789562e-04 4.34632006e-04 6.40446844e-04 7.13072717e-04 6.48828340e-04 9.12889023e-04 6.39133036e-01 6.00960016e-01 6.03252113e-01 6.03097141e-01 6.04322910e-01 6.06794298e-01 6.10515296e-01 6.15436852e-01 6.21425271e-01 6.28174722e-01 6.35206223e-01 6.42310143e-01 6.50462151e-01 6.61870301e-01 6.78842485e-01 7.04143822e-01 7.40345180e-01 7.90666103e-01 8.53733659e-01 8.95010412e-01 8.85785341e-01 7.35634387e-01 3.76345366e-02 3.23805809e-02 9.57205296e-01 4.78701532e-01 5.65670547e-04 7.03630620e-04 2.69773905e-03 2.56944099e-03 2.16139155e-03 6.30639017e-01 5.86526096e-01 5.88399172e-01 5.88046074e-01 5.89152277e-01 5.91586649e-01 5.95188081e-01 5.99627733e-01 6.04441643e-01 6.09043181e-01 6.12838328e-01 6.15606248e-01 6.18001819e-01 6.21448576e-01 6.27406120e-01 6.37325287e-01 6.52828753e-01 6.75989509e-01 7.10844398e-01 7.63970137e-01 8.33425820e-01 8.62974942e-01 8.81705642e-01 8.40451181e-01 9.71393287e-01 9.84388411e-01 6.59360900e-04 6.48102781e-04 9.43360180e-02 3.72305721e-01 5.33096611e-01 6.17184579e-01 5.60946107e-01 5.62029660e-01 5.61150432e-01 5.61919451e-01 5.64122319e-01 5.67350268e-01 5.70940852e-01 5.74088931e-01 5.75953007e-01 5.75836122e-01 5.73482692e-01 5.69330156e-01 5.64340770e-01 5.59513032e-01 5.55700779e-01 5.53552806e-01 5.53619146e-01 5.56592941e-01 5.64245760e-01 5.77604532e-01 5.97740114e-01 6.48769140e-01 8.13366115e-01 9.71740067e-01 9.36537564e-01 7.66159385e-04 6.68778957e-04 1.33717597e-01 3.98632139e-01 5.52287817e-01 5.99859357e-01 5.26038945e-01 5.25540948e-01 5.24010062e-01 5.24687588e-01 5.27203918e-01 5.30787230e-01 5.34363031e-01 5.36761343e-01 5.36928535e-01 5.34153581e-01 5.28288007e-01 5.19841194e-01 5.09803772e-01 4.99328196e-01 4.89582747e-01 4.81690139e-01 4.76734996e-01 4.75806564e-01 4.80274916e-01 4.91776109e-01 5.21802485e-01 6.15846932e-01 8.42429459e-01 9.76541460e-01 7.50381649e-01 9.40279977e-04 7.82424700e-04 9.82364565e-02 3.98193687e-01 5.48174322e-01 5.80094457e-01 4.84505385e-01 4.80903059e-01 4.78778392e-01 4.80171472e-01 4.84386861e-01 4.90046978e-01 4.95491952e-01 4.99097556e-01 4.99606937e-01 4.96383190e-01 4.89522964e-01 4.79808003e-01 4.68496174e-01 4.57083464e-01 4.47190434e-01 4.40529883e-01 4.38979536e-01 4.44909543e-01 4.62306231e-01 4.99982744e-01 5.80910981e-01 7.43083119e-01 9.13068473e-01 9.60190952e-01 9.50480923e-02 1.24082679e-03 9.84677114e-04 6.44888282e-02 3.98032337e-01 5.60663819e-01 5.59588194e-01 4.39431548e-01 4.30132866e-01 4.27489638e-01 4.30961311e-01 4.39053118e-01 4.49312538e-01 4.59131718e-01 4.66247290e-01 4.69182670e-01 4.67468739e-01 4.61575925e-01 4.52679038e-01 4.42379296e-01 4.32501942e-01 4.25039798e-01 4.22240585e-01 4.26963717e-01 4.43642944e-01 4.80420023e-01 5.52661717e-01 6.80159152e-01 8.40905786e-01 9.33514774e-01 8.65173280e-01 1.73966140e-02 1.77507661e-03 1.39229279e-03 5.21687381e-02 4.02095824e-01 5.78828037e-01 5.40400267e-01 3.93783301e-01 3.75006586e-01 3.71817321e-01 3.79225820e-01 3.93954009e-01 4.11814481e-01 4.28654343e-01 4.41294163e-01 4.48075920e-01 4.48907822e-01 4.44858849e-01 4.37661052e-01 4.29345131e-01 4.22086418e-01 4.18271512e-01 4.20823753e-01 4.33979183e-01 4.64800060e-01 5.25125682e-01 6.29102170e-01 7.70414114e-01 8.84961307e-01 9.19737041e-01 5.18842459e-01 8.41279328e-03 2.56638648e-03 2.26208800e-03 5.61310686e-02 4.15061980e-01 5.98270416e-01 5.25052071e-01 3.50110263e-01 3.17136586e-01 3.13262582e-01 3.26818138e-01 3.51300448e-01 3.79914314e-01 4.06164438e-01 4.25624132e-01 4.36659098e-01 4.39995110e-01 4.37677801e-01 4.32219714e-01 4.26179141e-01 4.22120720e-01 4.22892213e-01 4.32258040e-01 4.56029832e-01 5.03483832e-01 5.86524546e-01 7.06768572e-01 8.28833342e-01 8.95256400e-01 8.51317585e-01 1.62560210e-01 6.97259326e-03 3.55708506e-03 4.12539532e-03 7.59491324e-02 4.34950799e-01 6.14576876e-01 5.16322911e-01 3.10269773e-01 2.58349031e-01 2.53655016e-01 2.75524944e-01 3.12934488e-01 3.55435669e-01 3.92937720e-01 4.19480324e-01 4.34009671e-01 4.38833028e-01 4.37459290e-01 4.33367431e-01 4.29661989e-01 4.29278523e-01 4.35553759e-01 4.53135073e-01 4.89134431e-01 5.53224087e-01 6.51497185e-01 7.67998278e-01 8.56892943e-01 8.79419863e-01 6.70303822e-01 6.40172884e-02 7.91312754e-03 5.08776866e-03 8.28395784e-03 1.13876440e-01 4.55815762e-01 6.24869585e-01 5.16764879e-01 2.75052845e-01 2.00809121e-01 1.95541918e-01 2.27252230e-01 2.80467331e-01 3.39911133e-01 3.89698178e-01 4.22246158e-01 4.38318163e-01 4.42914844e-01 4.41423357e-01 4.38275456e-01 4.36970860e-01 4.40696806e-01 4.53220934e-01 4.79900807e-01 5.28255999e-01 6.05498970e-01 7.07733274e-01 8.06643724e-01 8.62438560e-01 8.31692815e-01 4.26584363e-01 4.27488312e-02 1.10507589e-02 8.45952332e-03 1.81833226e-02 1.64595380e-01 4.76027429e-01 6.30971789e-01 5.28161466e-01 2.44026661e-01 1.47427768e-01 1.42608598e-01 1.83962569e-01 2.55412906e-01 3.34726065e-01 3.96595448e-01 4.32400227e-01 4.47093606e-01 4.49539572e-01 4.47041780e-01 4.44638491e-01 4.45885569e-01 4.54011500e-01 4.73046005e-01 5.08610785e-01 5.67268252e-01 6.51306689e-01 7.47392893e-01 8.24091613e-01 8.49711180e-01 7.51868606e-01 2.85433710e-01 4.46954742e-02 1.82799865e-02 1.70781836e-02 4.11100797e-02 2.18872055e-01 4.96635258e-01 6.36488557e-01 5.50869524e-01 2.15903506e-01 1.01701118e-01 9.86288935e-02 1.47311002e-01 2.39240482e-01 3.41159403e-01 4.12832022e-01 4.47400093e-01 4.57448006e-01 4.56237763e-01 4.52388108e-01 4.50872332e-01 4.54859972e-01 4.67372030e-01 4.92424667e-01 5.35247207e-01 6.00177228e-01 6.83984697e-01 7.68004060e-01 8.23669851e-01 8.21370125e-01 6.67206407e-01 2.49617681e-01 6.50559068e-02 3.54527161e-02 3.84944640e-02 8.46566856e-02 2.72140294e-01 5.16491711e-01 6.42459273e-01 5.83335340e-01 1.88953817e-01 6.62922785e-02 6.56293035e-02 1.18163399e-01 2.33442843e-01 3.60066831e-01 4.36128527e-01 4.63860661e-01 4.66588438e-01 4.61169511e-01 4.56314892e-01 4.56113994e-01 4.62949663e-01 4.79420185e-01 5.09206176e-01 5.56516171e-01 6.22910798e-01 7.00998068e-01 7.71036565e-01 8.08467507e-01 7.82537818e-01 6.07334971e-01 2.73594528e-01 1.10520855e-01 7.32577443e-02 8.18245336e-02 1.45879209e-01 3.21673602e-01 5.32287300e-01 6.47032559e-01 6.22295678e-01 1.62102312e-01 4.16570716e-02 4.30595055e-02 9.65189189e-02 2.39800736e-01 3.90962839e-01 4.62570071e-01 4.78182316e-01 4.72370774e-01 4.63348031e-01 4.58410740e-01 4.60060030e-01 4.69661772e-01 4.89267826e-01 5.21961808e-01 5.70587397e-01 6.34229720e-01 7.03429163e-01 7.59816051e-01 7.81967163e-01 7.39993632e-01 5.75423956e-01 3.23532701e-01 1.78536281e-01 1.34048983e-01 1.43591031e-01 2.11285323e-01 3.64164650e-01 5.41040182e-01 6.47908688e-01 6.63678288e-01 1.35759711e-01 2.59176176e-02 2.85674799e-02 8.19000080e-02 2.60573864e-01 4.30722296e-01 4.87202287e-01 4.87353563e-01 4.73620921e-01 4.62587476e-01 4.58784372e-01 4.62744504e-01 4.74812806e-01 4.96486604e-01 5.30131459e-01 5.77245176e-01 6.35234177e-01 6.94297731e-01 7.38307416e-01 7.48465836e-01 6.99363232e-01 5.59995472e-01 3.73001307e-01 2.49624699e-01 2.02206746e-01 2.08769485e-01 2.70762712e-01 3.97734284e-01 5.42523146e-01 6.44598782e-01 7.03644276e-01 1.11246042e-01 1.62825156e-02 1.94381978e-02 7.39037544e-02 2.98049450e-01 4.73024607e-01 5.05094409e-01 4.89421457e-01 4.70076591e-01 4.59222883e-01 4.57780808e-01 4.64342207e-01 4.78432149e-01 5.01081705e-01 5.33961654e-01 5.77497125e-01 6.28273189e-01 6.77201033e-01 7.10595012e-01 7.12487638e-01 6.63914979e-01 5.52110255e-01 4.12560433e-01 3.11074674e-01 2.65720397e-01 2.69333363e-01 3.22183311e-01 4.23778683e-01 5.39469004e-01 6.38577878e-01 7.38415837e-01 9.09207165e-02 1.04371123e-02 1.35386391e-02 7.27500990e-02 3.52476001e-01 5.09655476e-01 5.12246430e-01 4.83500123e-01 4.62110847e-01 4.53794092e-01 4.55753863e-01 4.65054274e-01 4.80725080e-01 5.03457785e-01 5.34336090e-01 5.73076844e-01 6.16133451e-01 6.55683041e-01 6.80541217e-01 6.77921832e-01 6.35064244e-01 5.48599243e-01 4.44356203e-01 3.63196462e-01 3.23116660e-01 3.24525326e-01 3.66966426e-01 4.45156962e-01 5.35392940e-01 6.31936133e-01 7.63254821e-01 7.82986358e-02 6.84397761e-03 9.51982848e-03 8.07539076e-02 4.18337911e-01 5.32723188e-01 5.06135762e-01 4.69737381e-01 4.50538754e-01 4.46878135e-01 4.52981532e-01 4.65104282e-01 4.82113361e-01 5.04440069e-01 5.32686949e-01 5.66198349e-01 6.01779580e-01 6.33152425e-01 6.51652515e-01 6.47729278e-01 6.13391399e-01 5.49030602e-01 4.72191244e-01 4.09080446e-01 3.75338733e-01 3.74750912e-01 4.06575739e-01 4.64018375e-01 5.32428980e-01 6.26133084e-01 7.72158265e-01 7.78603554e-02 4.60022222e-03 6.63732504e-03 1.04205765e-01 4.82312649e-01 5.35921037e-01 4.86286193e-01 4.49650556e-01 4.36691046e-01 4.39128131e-01 4.49727148e-01 4.64815795e-01 4.83332366e-01 5.05395889e-01 5.31129837e-01 5.59713066e-01 5.88600159e-01 6.13198936e-01 6.27320528e-01 6.24361873e-01 5.99488676e-01 5.53881168e-01 4.98688638e-01 4.50796694e-01 4.22868997e-01 4.19983029e-01 4.41598982e-01 4.81014609e-01 5.30655503e-01 6.21517301e-01 7.56791234e-01 9.87071469e-02 3.20835318e-03 4.56051109e-03 1.54710665e-01 5.25304317e-01 5.15545607e-01 4.55838948e-01 4.27056015e-01 4.22925830e-01 4.31610018e-01 4.46446419e-01 4.64671284e-01 4.85394716e-01 5.08242965e-01 5.32679081e-01 5.57645559e-01 5.81259370e-01 6.00606263e-01 6.11857712e-01 6.10905647e-01 5.94785213e-01 5.64132750e-01 5.25343895e-01 4.89087045e-01 4.65251446e-01 4.59296167e-01 4.71351981e-01 4.95329082e-01 5.28480828e-01 6.17407918e-01 7.02698112e-01 1.64768979e-01 2.37666443e-03 3.14932852e-03 2.37205252e-01 5.28993785e-01 4.76911247e-01 4.25413311e-01 4.09686387e-01 4.13354874e-01 4.26001400e-01 4.43540424e-01 4.64665025e-01 4.88689721e-01 5.14625072e-01 5.41011691e-01 5.66083252e-01 5.87950647e-01 6.04656518e-01 6.14125013e-01 6.14217699e-01 6.03270233e-01 5.81402004e-01 5.52067339e-01 5.22123694e-01 4.99379992e-01 4.89285886e-01 4.92774993e-01 5.05062938e-01 5.24649858e-01 6.12645388e-01 6.61733508e-01 3.30907762e-01 1.66916498e-03 2.28895480e-03 3.26680511e-01 5.13702691e-01 4.52688754e-01 4.17112172e-01 4.07904387e-01 4.11260217e-01 4.22366083e-01 4.40185905e-01 4.64428425e-01 4.94296581e-01 5.28023124e-01 5.62900901e-01 5.95671594e-01 6.23091757e-01 6.42423391e-01 6.51659429e-01 6.49541616e-01 6.35684252e-01 6.11148655e-01 5.79365075e-01 5.46422482e-01 5.19567847e-01 5.04308641e-01 5.02006292e-01 5.09330988e-01 5.22983372e-01 6.08067453e-01 6.90381944e-01 5.71333408e-01 3.57492804e-03 2.32981774e-03 6.19994223e-01 6.23878062e-01 5.88341534e-01 5.64551830e-01 5.52036762e-01 5.47406495e-01 5.49627900e-01 5.57999253e-01 5.71697831e-01 5.89622140e-01 6.10293210e-01 6.31899238e-01 6.52450264e-01 6.69963419e-01 6.82637513e-01 6.89010620e-01 6.88124657e-01 6.79744840e-01 6.64655328e-01 6.44944906e-01 6.24034524e-01 6.06116354e-01 5.94859779e-01 5.91835976e-01 5.95845103e-01 6.03829503e-01 6.33121073e-01 
