# vtk DataFile Version 2.0
results_case1_non_linear/iter0.vtk, Created by Freefem++ 
ASCII
DATASET UNSTRUCTURED_GRID
POINTS 961 float
0 0 0
0.033333333 0 0
0.066666667 0 0
0.1 0 0
0.13333333 0 0
0.16666667 0 0
0.2 0 0
0.23333333 0 0
0.26666667 0 0
0.3 0 0
0.33333333 0 0
0.36666667 0 0
0.4 0 0
0.43333333 0 0
0.46666667 0 0
0.5 0 0
0.53333333 0 0
0.56666667 0 0
0.6 0 0
0.63333333 0 0
0.66666667 0 0
0.7 0 0
0.73333333 0 0
0.76666667 0 0
0.8 0 0
0.83333333 0 0
0.86666667 0 0
0.9 0 0
0.93333333 0 0
0.96666667 0 0
1 0 0
0 0.033333333 0
0.033333333 0.033333333 0
0.066666667 0.033333333 0
0.1 0.033333333 0
0.13333333 0.033333333 0
0.16666667 0.033333333 0
0.2 0.033333333 0
0.23333333 0.033333333 0
0.26666667 0.033333333 0
0.3 0.033333333 0
0.33333333 0.033333333 0
0.36666667 0.033333333 0
0.4 0.033333333 0
0.43333333 0.033333333 0
0.46666667 0.033333333 0
0.5 0.033333333 0
0.53333333 0.033333333 0
0.56666667 0.033333333 0
0.6 0.033333333 0
0.63333333 0.033333333 0
0.66666667 0.033333333 0
0.7 0.033333333 0
0.73333333 0.033333333 0
0.76666667 0.033333333 0
0.8 0.033333333 0
0.83333333 0.033333333 0
0.86666667 0.033333333 0
0.9 0.033333333 0
0.93333333 0.033333333 0
0.96666667 0.033333333 0
1 0.033333333 0
0 0.066666667 0
0.033333333 0.066666667 0
0.066666667 0.066666667 0
0.1 0.066666667 0
0.13333333 0.066666667 0
0.16666667 0.066666667 0
0.2 0.066666667 0
0.23333333 0.066666667 0
0.26666667 0.066666667 0
0.3 0.066666667 0
0.33333333 0.066666667 0
0.36666667 0.066666667 0
0.4 0.066666667 0
0.43333333 0.066666667 0
0.46666667 0.066666667 0
0.5 0.066666667 0
0.53333333 0.066666667 0
0.56666667 0.066666667 0
0.6 0.066666667 0
0.63333333 0.066666667 0
0.66666667 0.066666667 0
0.7 0.066666667 0
0.73333333 0.066666667 0
0.76666667 0.066666667 0
0.8 0.066666667 0
0.83333333 0.066666667 0
0.86666667 0.066666667 0
0.9 0.066666667 0
0.93333333 0.066666667 0
0.96666667 0.066666667 0
1 0.066666667 0
0 0.1 0
0.033333333 0.1 0
0.066666667 0.1 0
0.1 0.1 0
0.13333333 0.1 0
0.16666667 0.1 0
0.2 0.1 0
0.23333333 0.1 0
0.26666667 0.1 0
0.3 0.1 0
0.33333333 0.1 0
0.36666667 0.1 0
0.4 0.1 0
0.43333333 0.1 0
0.46666667 0.1 0
0.5 0.1 0
0.53333333 0.1 0
0.56666667 0.1 0
0.6 0.1 0
0.63333333 0.1 0
0.66666667 0.1 0
0.7 0.1 0
0.73333333 0.1 0
0.76666667 0.1 0
0.8 0.1 0
0.83333333 0.1 0
0.86666667 0.1 0
0.9 0.1 0
0.93333333 0.1 0
0.96666667 0.1 0
1 0.1 0
0 0.13333333 0
0.033333333 0.13333333 0
0.066666667 0.13333333 0
0.1 0.13333333 0
0.13333333 0.13333333 0
0.16666667 0.13333333 0
0.2 0.13333333 0
0.23333333 0.13333333 0
0.26666667 0.13333333 0
0.3 0.13333333 0
0.33333333 0.13333333 0
0.36666667 0.13333333 0
0.4 0.13333333 0
0.43333333 0.13333333 0
0.46666667 0.13333333 0
0.5 0.13333333 0
0.53333333 0.13333333 0
0.56666667 0.13333333 0
0.6 0.13333333 0
0.63333333 0.13333333 0
0.66666667 0.13333333 0
0.7 0.13333333 0
0.73333333 0.13333333 0
0.76666667 0.13333333 0
0.8 0.13333333 0
0.83333333 0.13333333 0
0.86666667 0.13333333 0
0.9 0.13333333 0
0.93333333 0.13333333 0
0.96666667 0.13333333 0
1 0.13333333 0
0 0.16666667 0
0.033333333 0.16666667 0
0.066666667 0.16666667 0
0.1 0.16666667 0
0.13333333 0.16666667 0
0.16666667 0.16666667 0
0.2 0.16666667 0
0.23333333 0.16666667 0
0.26666667 0.16666667 0
0.3 0.16666667 0
0.33333333 0.16666667 0
0.36666667 0.16666667 0
0.4 0.16666667 0
0.43333333 0.16666667 0
0.46666667 0.16666667 0
0.5 0.16666667 0
0.53333333 0.16666667 0
0.56666667 0.16666667 0
0.6 0.16666667 0
0.63333333 0.16666667 0
0.66666667 0.16666667 0
0.7 0.16666667 0
0.73333333 0.16666667 0
0.76666667 0.16666667 0
0.8 0.16666667 0
0.83333333 0.16666667 0
0.86666667 0.16666667 0
0.9 0.16666667 0
0.93333333 0.16666667 0
0.96666667 0.16666667 0
1 0.16666667 0
0 0.2 0
0.033333333 0.2 0
0.066666667 0.2 0
0.1 0.2 0
0.13333333 0.2 0
0.16666667 0.2 0
0.2 0.2 0
0.23333333 0.2 0
0.26666667 0.2 0
0.3 0.2 0
0.33333333 0.2 0
0.36666667 0.2 0
0.4 0.2 0
0.43333333 0.2 0
0.46666667 0.2 0
0.5 0.2 0
0.53333333 0.2 0
0.56666667 0.2 0
0.6 0.2 0
0.63333333 0.2 0
0.66666667 0.2 0
0.7 0.2 0
0.73333333 0.2 0
0.76666667 0.2 0
0.8 0.2 0
0.83333333 0.2 0
0.86666667 0.2 0
0.9 0.2 0
0.93333333 0.2 0
0.96666667 0.2 0
1 0.2 0
0 0.23333333 0
0.033333333 0.23333333 0
0.066666667 0.23333333 0
0.1 0.23333333 0
0.13333333 0.23333333 0
0.16666667 0.23333333 0
0.2 0.23333333 0
0.23333333 0.23333333 0
0.26666667 0.23333333 0
0.3 0.23333333 0
0.33333333 0.23333333 0
0.36666667 0.23333333 0
0.4 0.23333333 0
0.43333333 0.23333333 0
0.46666667 0.23333333 0
0.5 0.23333333 0
0.53333333 0.23333333 0
0.56666667 0.23333333 0
0.6 0.23333333 0
0.63333333 0.23333333 0
0.66666667 0.23333333 0
0.7 0.23333333 0
0.73333333 0.23333333 0
0.76666667 0.23333333 0
0.8 0.23333333 0
0.83333333 0.23333333 0
0.86666667 0.23333333 0
0.9 0.23333333 0
0.93333333 0.23333333 0
0.96666667 0.23333333 0
1 0.23333333 0
0 0.26666667 0
0.033333333 0.26666667 0
0.066666667 0.26666667 0
0.1 0.26666667 0
0.13333333 0.26666667 0
0.16666667 0.26666667 0
0.2 0.26666667 0
0.23333333 0.26666667 0
0.26666667 0.26666667 0
0.3 0.26666667 0
0.33333333 0.26666667 0
0.36666667 0.26666667 0
0.4 0.26666667 0
0.43333333 0.26666667 0
0.46666667 0.26666667 0
0.5 0.26666667 0
0.53333333 0.26666667 0
0.56666667 0.26666667 0
0.6 0.26666667 0
0.63333333 0.26666667 0
0.66666667 0.26666667 0
0.7 0.26666667 0
0.73333333 0.26666667 0
0.76666667 0.26666667 0
0.8 0.26666667 0
0.83333333 0.26666667 0
0.86666667 0.26666667 0
0.9 0.26666667 0
0.93333333 0.26666667 0
0.96666667 0.26666667 0
1 0.26666667 0
0 0.3 0
0.033333333 0.3 0
0.066666667 0.3 0
0.1 0.3 0
0.13333333 0.3 0
0.16666667 0.3 0
0.2 0.3 0
0.23333333 0.3 0
0.26666667 0.3 0
0.3 0.3 0
0.33333333 0.3 0
0.36666667 0.3 0
0.4 0.3 0
0.43333333 0.3 0
0.46666667 0.3 0
0.5 0.3 0
0.53333333 0.3 0
0.56666667 0.3 0
0.6 0.3 0
0.63333333 0.3 0
0.66666667 0.3 0
0.7 0.3 0
0.73333333 0.3 0
0.76666667 0.3 0
0.8 0.3 0
0.83333333 0.3 0
0.86666667 0.3 0
0.9 0.3 0
0.93333333 0.3 0
0.96666667 0.3 0
1 0.3 0
0 0.33333333 0
0.033333333 0.33333333 0
0.066666667 0.33333333 0
0.1 0.33333333 0
0.13333333 0.33333333 0
0.16666667 0.33333333 0
0.2 0.33333333 0
0.23333333 0.33333333 0
0.26666667 0.33333333 0
0.3 0.33333333 0
0.33333333 0.33333333 0
0.36666667 0.33333333 0
0.4 0.33333333 0
0.43333333 0.33333333 0
0.46666667 0.33333333 0
0.5 0.33333333 0
0.53333333 0.33333333 0
0.56666667 0.33333333 0
0.6 0.33333333 0
0.63333333 0.33333333 0
0.66666667 0.33333333 0
0.7 0.33333333 0
0.73333333 0.33333333 0
0.76666667 0.33333333 0
0.8 0.33333333 0
0.83333333 0.33333333 0
0.86666667 0.33333333 0
0.9 0.33333333 0
0.93333333 0.33333333 0
0.96666667 0.33333333 0
1 0.33333333 0
0 0.36666667 0
0.033333333 0.36666667 0
0.066666667 0.36666667 0
0.1 0.36666667 0
0.13333333 0.36666667 0
0.16666667 0.36666667 0
0.2 0.36666667 0
0.23333333 0.36666667 0
0.26666667 0.36666667 0
0.3 0.36666667 0
0.33333333 0.36666667 0
0.36666667 0.36666667 0
0.4 0.36666667 0
0.43333333 0.36666667 0
0.46666667 0.36666667 0
0.5 0.36666667 0
0.53333333 0.36666667 0
0.56666667 0.36666667 0
0.6 0.36666667 0
0.63333333 0.36666667 0
0.66666667 0.36666667 0
0.7 0.36666667 0
0.73333333 0.36666667 0
0.76666667 0.36666667 0
0.8 0.36666667 0
0.83333333 0.36666667 0
0.86666667 0.36666667 0
0.9 0.36666667 0
0.93333333 0.36666667 0
0.96666667 0.36666667 0
1 0.36666667 0
0 0.4 0
0.033333333 0.4 0
0.066666667 0.4 0
0.1 0.4 0
0.13333333 0.4 0
0.16666667 0.4 0
0.2 0.4 0
0.23333333 0.4 0
0.26666667 0.4 0
0.3 0.4 0
0.33333333 0.4 0
0.36666667 0.4 0
0.4 0.4 0
0.43333333 0.4 0
0.46666667 0.4 0
0.5 0.4 0
0.53333333 0.4 0
0.56666667 0.4 0
0.6 0.4 0
0.63333333 0.4 0
0.66666667 0.4 0
0.7 0.4 0
0.73333333 0.4 0
0.76666667 0.4 0
0.8 0.4 0
0.83333333 0.4 0
0.86666667 0.4 0
0.9 0.4 0
0.93333333 0.4 0
0.96666667 0.4 0
1 0.4 0
0 0.43333333 0
0.033333333 0.43333333 0
0.066666667 0.43333333 0
0.1 0.43333333 0
0.13333333 0.43333333 0
0.16666667 0.43333333 0
0.2 0.43333333 0
0.23333333 0.43333333 0
0.26666667 0.43333333 0
0.3 0.43333333 0
0.33333333 0.43333333 0
0.36666667 0.43333333 0
0.4 0.43333333 0
0.43333333 0.43333333 0
0.46666667 0.43333333 0
0.5 0.43333333 0
0.53333333 0.43333333 0
0.56666667 0.43333333 0
0.6 0.43333333 0
0.63333333 0.43333333 0
0.66666667 0.43333333 0
0.7 0.43333333 0
0.73333333 0.43333333 0
0.76666667 0.43333333 0
0.8 0.43333333 0
0.83333333 0.43333333 0
0.86666667 0.43333333 0
0.9 0.43333333 0
0.93333333 0.43333333 0
0.96666667 0.43333333 0
1 0.43333333 0
0 0.46666667 0
0.033333333 0.46666667 0
0.066666667 0.46666667 0
0.1 0.46666667 0
0.13333333 0.46666667 0
0.16666667 0.46666667 0
0.2 0.46666667 0
0.23333333 0.46666667 0
0.26666667 0.46666667 0
0.3 0.46666667 0
0.33333333 0.46666667 0
0.36666667 0.46666667 0
0.4 0.46666667 0
0.43333333 0.46666667 0
0.46666667 0.46666667 0
0.5 0.46666667 0
0.53333333 0.46666667 0
0.56666667 0.46666667 0
0.6 0.46666667 0
0.63333333 0.46666667 0
0.66666667 0.46666667 0
0.7 0.46666667 0
0.73333333 0.46666667 0
0.76666667 0.46666667 0
0.8 0.46666667 0
0.83333333 0.46666667 0
0.86666667 0.46666667 0
0.9 0.46666667 0
0.93333333 0.46666667 0
0.96666667 0.46666667 0
1 0.46666667 0
0 0.5 0
0.033333333 0.5 0
0.066666667 0.5 0
0.1 0.5 0
0.13333333 0.5 0
0.16666667 0.5 0
0.2 0.5 0
0.23333333 0.5 0
0.26666667 0.5 0
0.3 0.5 0
0.33333333 0.5 0
0.36666667 0.5 0
0.4 0.5 0
0.43333333 0.5 0
0.46666667 0.5 0
0.5 0.5 0
0.53333333 0.5 0
0.56666667 0.5 0
0.6 0.5 0
0.63333333 0.5 0
0.66666667 0.5 0
0.7 0.5 0
0.73333333 0.5 0
0.76666667 0.5 0
0.8 0.5 0
0.83333333 0.5 0
0.86666667 0.5 0
0.9 0.5 0
0.93333333 0.5 0
0.96666667 0.5 0
1 0.5 0
0 0.53333333 0
0.033333333 0.53333333 0
0.066666667 0.53333333 0
0.1 0.53333333 0
0.13333333 0.53333333 0
0.16666667 0.53333333 0
0.2 0.53333333 0
0.23333333 0.53333333 0
0.26666667 0.53333333 0
0.3 0.53333333 0
0.33333333 0.53333333 0
0.36666667 0.53333333 0
0.4 0.53333333 0
0.43333333 0.53333333 0
0.46666667 0.53333333 0
0.5 0.53333333 0
0.53333333 0.53333333 0
0.56666667 0.53333333 0
0.6 0.53333333 0
0.63333333 0.53333333 0
0.66666667 0.53333333 0
0.7 0.53333333 0
0.73333333 0.53333333 0
0.76666667 0.53333333 0
[...]
CELL_DATA 1920
Scalars  Label int 1
LOOKUP_TABLE FreeFempp_table
0
0
0
0
0
0
0
0
0
0
0
0
0
0
0
0
0
0
0
0
0
0
0
0
0
0
0
0
0
0
0
0
0
0
0
0
0
0
0
0
0
0
0
0
0
0
0
0
0
0
0
0
0
0
0
0
0
0
0
0
0
0
0
0
0
0
0
0
0
0
0
0
0
0
0
0
0
0
0
0
0
0
0
0
0
0
0
0
0
0
0
0
0
0
0
0
0
0
0
0
0
0
0
0
0
0
0
0
0
0
0
0
0
0
0
0
0
0
0
0
0
0
0
0
0
0
0
0
0
0
0
0
0
0
0
0
0
0
0
0
0
0
0
0
0
0
0
0
0
0
0
0
0
0
0
0
0
0
0
0
0
0
0
0
0
0
0
0
0
0
0
0
0
0
0
0
0
0
0
0
0
0
0
0
0
0
0
0
0
0
0
0
0
0
0
0
0
0
0
0
0
0
0
0
0
0
0
0
0
0
0
0
0
0
0
0
0
0
0
0
0
0
0
0
0
0
0
0
0
0
0
0
0
0
0
0
0
0
0
0
0
0
0
0
0
0
0
0
0
0
0
0
0
0
0
0
0
0
0
0
0
0
0
0
0
0
0
0
0
0
0
0
0
0
0
0
0
0
0
0
0
0
0
0
0
0
0
0
0
0
0
0
0
0
0
0
0
0
0
0
0
0
0
0
0
0
0
0
0
0
0
0
0
0
0
0
0
0
0
0
0
0
0
0
0
0
0
0
0
0
0
0
0
0
0
0
0
0
0
0
0
0
0
0
0
0
0
0
0
0
0
0
0
0
0
0
0
0
0
0
0
0
0
0
0
0
0
0
0
0
0
0
0
0
0
0
0
0
0
0
0
0
0
0
0
0
0
0
0
0
0
0
0
0
0
0
0
0
0
0
0
0
0
0
0
0
0
0
0
0
0
0
0
0
0
0
0
0
0
0
0
0
0
0
0
0
0
0
0
0
0
0
0
0
0
0
0
0
0
0
0
0
0
0
0
0
0
0
0
0
0
0
0
0
0
0
0
0
0
0
0
0
0
0
0
0
0
0
0
0
0
0
0
0
0
0
0
0
0
0
0
0
0
0
0
0
0
0
0
0
0
0
0
0
0
0
0
0
0
0
0
0
0
0
0
0
0
0
0
0
0
0
0
0
0
0
0
0
0
0
0
0
0
0
0
0
0
0
0
0
0
0
0
0
0
0
0
0
0
0
0
0
0
0
0
0
0
0
0
0
0
0
0
0
0
0
0
0
0
0
0
0
0
0
0
0
0
0
0
0
0
0
0
0
0
0
0
0
0
0
0
0
0
0
0
0
0
0
0
0
0
0
0
0
0
0
0
0
0
0
0
0
0
0
0
0
0
0
0
0
0
0
0
0
0
0
0
0
0
0
0
0
0
0
0
0
0
0
0
0
0
0
0
0
0
0
0
0
0
0
0
0
0
0
0
0
0
0
0
0
0
0
0
0
0
0
0
0
0
0
0
0
0
0
0
0
0
0
0
0
0
0
0
0
0
0
0
0
0
0
0
0
0
0
0
0
0
0
0
0
0
0
0
0
0
0
0
0
0
0
0
0
0
0
0
0
0
0
0
0
0
0
0
0
0
0
0
0
0
0
0
0
0
0
0
0
0
0
0
0
0
0
0
0
0
0
0
0
0
0
0
0
0
0
0
0
0
0
0
0
0
0
0
0
0
0
0
0
0
0
0
0
0
0
0
0
0
0
0
0
0
0
0
0
0
0
0
0
0
0
0
0
0
0
0
0
0
0
0
0
0
0
0
0
0
0
0
0
0
0
0
0
0
0
0
0
0
0
0
0
0
0
0
0
0
0
0
0
0
0
0
0
0
0
0
0
0
0
0
0
0
0
0
0
0
0
0
0
0
0
0
0
0
0
0
0
0
0
0
0
0
0
0
0
0
0
0
0
0
0
0
0
0
0
0
0
0
0
0
0
0
0
0
0
0
0
0
0
0
0
0
0
0
0
0
0
0
0
0
0
0
0
0
0
0
0
0
0
0
0
0
0
0
0
0
0
0
0
0
0
0
0
0
0
0
0
0
0
0
0
0
0
0
0
0
0
0
0
0
0
0
0
0
0
0
0
0
0
0
0
0
0
0
0
0
0
0
0
0
0
0
0
0
0
0
0
0
0
0
0
0
0
0
0
0
0
0
0
0
0
0
0
0
0
0
0
0
0
0
0
0
0
0
0
0
0
0
0
0
0
0
0
0
0
0
0
0
0
0
0
0
0
0
0
0
0
0
0
0
0
0
0
0
0
0
0
0
0
0
0
0
0
0
0
0
0
0
0
0
0
0
0
0
0
0
0
0
0
0
0
0
0
0
0
0
0
0
0
0
0
0
0
0
0
0
0
0
0
0
0
0
0
0
0
0
0
0
0
0
0
0
0
0
0
0
0
0
0
0
0
0
0
0
0
0
0
0
0
0
0
0
0
0
0
0
0
0
0
0
0
0
0
0
0
0
0
0
0
0
0
0
0
0
0
0
0
0
0
0
0
0
0
0
0
0
0
0
0
0
0
0
0
0
0
0
0
0
0
0
0
0
0
0
0
0
0
0
0
0
0
0
0
0
0
0
0
0
0
0
0
0
0
0
0
0
0
0
0
0
0
0
0
0
0
0
0
0
0
0
0
0
0
0
0
0
0
0
0
0
0
0
0
0
0
0
0
0
0
0
0
0
0
0
0
0
0
0
0
0
0
0
0
0
0
0
0
0
0
0
0
0
0
0
0
0
0
0
0
0
0
0
0
0
0
0
0
0
0
0
0
0
0
0
0
0
0
0
0
0
0
0
0
0
0
0
0
0
0
0
0
0
0
0
0
0
0
0
0
0
0
0
0
0
0
0
0
0
0
0
0
0
0
0
0
0
0
0
0
0
0
0
0
0
0
0
0
0
0
0
0
0
0
0
0
0
0
0
0
0
0
0
0
0
0
0
0
0
0
0
0
0
0
0
0
0
0
0
0
0
0
0
0
0
0
0
0
0
0
0
0
0
0
0
0
0
0
0
0
0
0
0
0
0
0
0
0
0
0
0
0
0
0
0
0
0
0
0
0
0
0
0
0
0
0
0
0
0
0
0
0
0
0
0
0
0
0
0
0
0
0
0
0
0
0
0
0
0
0
0
0
0
0
0
0
0
0
0
0
0
0
0
0
0
0
0
0
0
0
0
0
0
0
0
0
0
0
0
0
0
0
0
0
0
0
0
0
0
0
0
0
0
0
0
0
0
0
0
0
0
0
0
0
0
0
0
0
0
0
0
0
0
0
0
0
0
0
0
0
0
0
0
0
0
0
0
0
0
0
0
0
0
0
0
0
0
0
0
0
0
0
0
0
0
0
0
0
0
0
0
0
0
0
0
0
0
0
0
0
0
0
0
0
0
0
0
0
0
0
0
0
0
0
0
0
0
0
0
0
0
0
0
0
0
0
0
0
0
0
0
0
0
0
0
0
0
0
0
0
0
0
0
0
0
0
0
0
0
0
0
0
0
0
0
0
0
0
0
0
0
0
0
0
0
0
0
0
0
0
0
0
0
0
0
0
0
0
0
0
0
0
0
0
0
0
0
0
0
0
0
0
0
0
0
0
0
0
0
0
0
0
0
0
0
0
0
0
0
0
0
0
0
0
0
0
0
0
0
0
0
0
0
0
0
0
0
0
0
0
0
0
0
0
0
0
0
0
0
0
0
0
0
0
0
0
0
0
0
0
0
0
0
0
0
0
0
0
0
0
0
0
0
0
0
0
0
0
0
0
0
0
0
0
0
0
0
0
0
0
0
0
0
0
0
0
0
0
0
0
0
0
0
0
0
0
0
0
0
0
0
0
0
0
0
0
0
0
0
0
0
0
0
0
0
0
0
0
0
0
0
0
0
0
0
0
0
0
0
0
0
0
0
0
0
0
0
0
0
0
0
0
0
0
0
0
0
0
0
0
0
0
0
0
0
0
0
0
0
0
0
0
0
0
0
0
0
0
0
0
0
0
0
0
0
0
0
0
0
0
0
0
0
0
0
0
0
0
0
0
0
0
1
1
1
1
1
1
1
1
1
1
1
1
1
1
1
1
1
1
1
1
1
1
1
1
1
1
1
1
1
1
2
2
2
2
2
2
2
2
2
2
2
2
2
2
2
2
2
2
2
2
2
2
2
2
2
2
2
2
2
2
3
3
3
3
3
3
3
3
3
3
3
3
3
3
3
3
3
3
3
3
3
3
3
3
3
3
3
3
3
3
4
4
4
4
4
4
4
4
4
4
4
4
4
4
4
4
4
4
4
4
4
4
4
4
4
4
4
4
4
4

LOOKUP_TABLE FreeFempp_table 5
1.00000000 0.00000000 0.00000000 1.00000000
1.00000000 1.00000000 0.00000000 1.00000000
1.00000000 0.00000000 1.00000000 1.00000000
0.00000000 1.00000000 0.00000000 1.00000000
0.00000000 1.00000000 1.00000000 1.00000000

POINT_DATA 961
FIELD FieldData 1
Density 1 961 float
1.92306831e-01 1.73105821e-01 2.17627913e-01 2.29819596e-01 2.19817191e-01 1.99629977e-01 1.69569090e-01 1.25106335e-01 7.55467340e-02 5.65141216e-02 8.34906846e-02 1.92507952e-01 3.14338416e-01 3.65497589e-01 3.93134862e-01 4.27075118e-01 4.96525139e-01 6.29813313e-01 7.68075943e-01 8.14310610e-01 7.82594264e-01 7.61137545e-01 8.12604308e-01 8.17358494e-01 7.84678161e-01 7.80288696e-01 7.63107121e-01 7.00891912e-01 6.99102521e-01 6.98457479e-01 6.23838902e-01 1.07335113e-03 1.15809456e-01 1.66266665e-01 1.74668118e-01 1.63779840e-01 1.47370920e-01 1.25912502e-01 9.67678502e-02 6.24286048e-02 4.05770168e-02 4.64770794e-02 9.79738459e-02 2.15315029e-01 2.69238323e-01 2.96918184e-01 3.27043235e-01 3.94272804e-01 5.93313336e-01 8.48440945e-01 9.04604197e-01 8.44133377e-01 6.96650982e-01 6.80453360e-01 7.57033765e-01 7.55024493e-01 7.52501011e-01 7.59534240e-01 7.35466182e-01 7.60115087e-01 7.34778523e-01 6.84484541e-01 7.34322006e-04 6.11599884e-04 9.76151321e-04 9.62061982e-04 9.79843782e-04 9.89858527e-04 9.97026567e-04 1.00101379e-03 9.91043751e-04 1.04959717e-03 9.48755944e-04 6.79320544e-02 3.21785480e-01 3.52145374e-01 3.64271104e-01 3.79755437e-01 3.94434959e-01 5.20114481e-01 7.75192380e-01 6.13935411e-01 1.21902741e-01 7.14450106e-02 4.51842882e-02 3.45235057e-02 3.14672552e-02 4.23995741e-02 8.72178823e-02 3.45776290e-01 5.52768409e-01 5.93790233e-01 6.09633923e-01 5.11556625e-01 9.54599876e-04 1.02984067e-03 9.48093482e-04 9.69298475e-04 9.82391997e-04 9.92332818e-04 9.99165350e-04 1.00160320e-03 1.01982756e-03 6.36934186e-04 6.44176733e-04 1.05951610e-03 1.18332601e-03 1.52525434e-03 3.50887030e-01 4.41739708e-01 4.32488918e-01 6.88312769e-01 2.59062033e-02 2.12261993e-02 1.89593285e-02 1.20591708e-02 1.00350073e-02 7.23954802e-03 6.43932587e-03 7.02935038e-03 1.54077057e-02 2.23527074e-01 4.55410779e-01 5.37098885e-01 4.98654485e-01 3.82366627e-01 7.35632703e-02 7.99030438e-02 3.73616219e-01 4.00982469e-01 4.00845319e-01 4.05178100e-01 4.13810462e-01 4.14353132e-01 2.49734625e-01 9.85858613e-04 1.10484473e-03 9.95233073e-04 8.05062009e-04 8.33801343e-04 1.16653962e-03 1.20548652e-02 3.57952178e-01 7.18222678e-01 1.01129953e-02 1.87554229e-02 1.32129313e-02 1.15500037e-02 9.22486093e-03 6.81786891e-03 4.49021440e-03 3.93169001e-03 9.99247003e-03 2.59353191e-01 4.96023387e-01 4.56588417e-01 3.34848493e-01 7.67853335e-02 5.76516353e-02 2.84908175e-01 3.78041595e-01 3.91513437e-01 3.96399111e-01 4.02005970e-01 4.03426200e-01 3.88894558e-01 3.85246009e-01 4.17327046e-01 4.22807842e-01 7.13962223e-03 1.16616127e-03 8.14499857e-04 8.63078109e-04 1.18549587e-03 7.07092345e-01 9.62226748e-01 7.05984086e-02 4.59649935e-02 3.48718539e-02 2.99380068e-02 2.64698491e-02 1.58216078e-02 3.78723512e-03 2.72919866e-03 1.59942303e-02 4.62539375e-01 4.27001387e-01 2.78562725e-01 1.20826319e-01 6.69714436e-02 1.81437150e-01 3.48909378e-01 3.96634996e-01 4.14277911e-01 4.24484223e-01 4.31100577e-01 4.30524647e-01 4.23990369e-01 4.29957658e-01 4.38461691e-01 4.37001079e-01 4.45365012e-01 3.96732718e-01 1.49724272e-03 8.68669478e-04 8.37977568e-04 9.86272395e-02 9.82223332e-01 2.96444446e-01 1.20690040e-01 1.44250467e-01 1.25152573e-01 1.20789334e-01 3.21509652e-02 2.35549384e-03 3.50707467e-03 4.61851358e-01 4.63851273e-01 3.01593333e-01 2.21786365e-01 1.33937821e-01 2.05866888e-01 3.63054663e-01 4.26993549e-01 4.54796970e-01 4.70049262e-01 4.78919238e-01 4.81908649e-01 4.79803175e-01 4.77494299e-01 4.76703256e-01 4.72592860e-01 4.68922734e-01 4.71630722e-01 4.71559465e-01 3.90156627e-01 9.43106948e-04 1.05235248e-03 9.16444603e-03 9.73764718e-01 7.05445647e-01 2.90977061e-01 2.57700980e-01 1.94282398e-01 9.30557474e-02 2.48742802e-03 2.92511843e-03 4.88937765e-01 5.97286046e-01 4.96465385e-01 4.46733445e-01 4.03697699e-01 4.19282615e-01 4.88809139e-01 5.22694826e-01 5.37994981e-01 5.45611322e-01 5.48028708e-01 5.46098053e-01 5.40816307e-01 5.34272432e-01 5.27504265e-01 5.19800007e-01 5.12020171e-01 5.05524635e-01 4.98877436e-01 4.91877645e-01 4.80569780e-01 1.23491569e-03 1.42886373e-03 4.41117492e-03 9.56606746e-01 8.63807797e-01 5.86635649e-01 3.34598869e-01 1.57326594e-01 2.23841332e-03 2.43486348e-03 5.04898548e-01 7.36505330e-01 7.72219360e-01 7.41880774e-01 7.15505362e-01 6.92492664e-01 6.75336957e-01 6.61195517e-01 6.49349093e-01 6.38852417e-01 6.28432870e-01 6.17494464e-01 6.06173038e-01 5.94944358e-01 5.83873928e-01 5.72820008e-01 5.62097728e-01 5.51732004e-01 5.41385233e-01 5.31439722e-01 5.19710064e-01 5.06351531e-01 2.04883795e-03 2.16751010e-03 3.55052715e-03 9.06089127e-01 8.75996828e-01 7.74902225e-01 3.17940265e-01 2.46089348e-03 2.15837872e-03 4.43807900e-01 7.57090628e-01 8.59191000e-01 8.37041140e-01 8.25460732e-01 8.06745529e-01 7.82785475e-01 7.56992221e-01 7.33204961e-01 7.12227821e-01 6.93607926e-01 6.76776230e-01 6.61475420e-01 6.47520125e-01 6.34594619e-01 6.22477472e-01 6.11064136e-01 6.00038946e-01 5.89103580e-01 5.78566372e-01 5.68771362e-01 5.59661627e-01 5.39588511e-01 4.42772079e-03 2.88370182e-03 3.52292019e-03 6.29110217e-01 3.50976139e-01 9.60573196e-01 3.18701589e-03 1.68167369e-03 1.21534364e-02 6.25791967e-01 7.49711871e-01 7.50084400e-01 7.74703264e-01 7.87414968e-01 7.86482334e-01 7.74679065e-01 7.57756829e-01 7.39655733e-01 7.22154498e-01 7.05914378e-01 6.91210449e-01 6.78062022e-01 6.66304350e-01 6.55737162e-01 6.46066427e-01 6.36874378e-01 6.27880752e-01 6.19124770e-01 6.11556053e-01 6.08142495e-01 6.12433434e-01 5.89582562e-01 9.38917324e-03 3.36126145e-03 3.66275245e-03 1.95773691e-02 3.63446884e-02 7.34718323e-01 1.72207260e-03 2.44082231e-03 4.15856570e-01 3.65155607e-01 4.22980726e-01 5.29199362e-01 6.32391095e-01 6.95307314e-01 7.20485628e-01 7.25216031e-01 7.20319331e-01 7.11222291e-01 7.00649202e-01 6.90083742e-01 6.80310309e-01 6.71679735e-01 6.64261341e-01 6.57832384e-01 6.51954353e-01 6.46204352e-01 6.40338242e-01 6.34747744e-01 6.32596910e-01 6.41761243e-01 6.68292642e-01 6.62048340e-01 3.01208179e-02 4.89987060e-03 6.68255985e-03 2.01411322e-02 9.74435568e-01 2.78945034e-03 2.63453415e-03 2.71320999e-01 1.42292321e-01 1.65489107e-01 2.46199057e-01 3.89269114e-01 5.30319273e-01 6.13217771e-01 6.52406812e-01 6.68108106e-01 6.71799779e-01 6.69437408e-01 6.64319515e-01 6.58403099e-01 6.52869940e-01 6.48362100e-01 6.45028114e-01 6.42613530e-01 6.40598655e-01 6.38267398e-01 6.34826779e-01 6.30443633e-01 6.30262792e-01 6.42163694e-01 6.95364475e-01 7.78076768e-01 2.51284122e-01 1.95715427e-02 2.39890404e-02 9.80959892e-01 3.02474014e-03 2.72203493e-03 1.73417807e-01 7.55544081e-02 8.21231678e-02 1.26000464e-01 2.33001992e-01 3.84922564e-01 5.02767682e-01 5.71515858e-01 6.07167423e-01 6.23578966e-01 6.29094362e-01 6.28584981e-01 6.25117004e-01 6.20786786e-01 6.17045820e-01 6.14763916e-01 6.14272654e-01 6.15370631e-01 6.17280185e-01 6.18438601e-01 6.16176248e-01 6.07239425e-01 5.85954607e-01 5.62214613e-01 5.84039807e-01 7.68234313e-01 7.64340907e-02 4.00997922e-02 9.87979114e-01 3.60136549e-03 3.12834978e-03 9.41195413e-02 4.45298851e-02 4.92391810e-02 8.46965164e-02 1.77600130e-01 3.14407110e-01 4.33169633e-01 5.12214780e-01 5.59056818e-01 5.84323585e-01 5.95742822e-01 5.98388016e-01 5.95743775e-01 5.90471387e-01 5.84775031e-01 5.80474555e-01 5.78911602e-01 5.80783606e-01 5.85947037e-01 5.93182445e-01 5.99778354e-01 6.00966513e-01 5.84685266e-01 5.21360934e-01 3.46270502e-01 3.14332843e-01 1.94313005e-01 5.07160835e-02 9.82629359e-01 3.24954977e-03 3.30817467e-03 4.49400917e-02 2.83614080e-02 3.39242518e-02 7.39545599e-02 1.77014247e-01 3.05700451e-01 4.09685314e-01 4.83344913e-01 5.31849086e-01 5.61242819e-01 5.76565504e-01 5.81683815e-01 5.79591632e-01 5.72842658e-01 5.63916385e-01 5.55363894e-01 5.49663067e-01 5.48771739e-01 5.53550541e-01 5.63334048e-01 5.76045871e-01 5.89380503e-01 6.00930810e-01 6.03772283e-01 4.91773099e-01 2.82153636e-01 2.50161082e-01 2.45464981e-01 9.70482409e-01 2.90707941e-03 2.81407870e-03 2.15709116e-02 1.97856054e-02 2.76060291e-02 8.48908350e-02 2.17625648e-01 3.35076392e-01 4.17156130e-01 4.78272140e-01 5.22830665e-01 5.52901983e-01 5.70629776e-01 5.78186512e-01 5.77546537e-01 5.70564747e-01 5.59293270e-01 5.46313524e-01 5.34782648e-01 5.27923524e-01 5.27869105e-01 5.34540832e-01 5.45698225e-01 5.59379458e-01 5.77267945e-01 6.08397424e-01 6.40774429e-01 4.77378488e-01 4.06723708e-01 8.09515297e-01 9.50365245e-01 3.38828727e-03 3.03183938e-03 1.15757007e-02 1.38251120e-02 2.86755059e-02 1.26806691e-01 2.89090574e-01 3.78236651e-01 4.37865943e-01 4.86374259e-01 5.25470138e-01 5.54505289e-01 5.73618770e-01 5.83627641e-01 5.85524142e-01 5.80277026e-01 5.69011390e-01 5.53459525e-01 5.36397457e-01 5.21538854e-01 5.12346447e-01 5.10389864e-01 5.14897048e-01 5.25385439e-01 5.42651713e-01 5.72157681e-01 6.30315185e-01 6.82719588e-01 6.75788105e-01 9.25270915e-01 9.02597129e-01 4.03273059e-03 3.60291381e-03 7.51203066e-03 9.32888035e-03 4.07483168e-02 2.20110312e-01 3.60980421e-01 4.17786151e-01 4.60478663e-01 4.99550432e-01 5.33752859e-01 5.61147690e-01 5.80921888e-01 5.93140721e-01 5.98174572e-01 5.96314907e-01 5.87719500e-01 5.72734654e-01 5.52500844e-01 5.29374421e-01 5.06614447e-01 4.88624454e-01 4.81484383e-01 4.93858874e-01 5.26895046e-01 5.74579716e-01 6.50910139e-01 7.55272746e-01 8.59030485e-01 9.23714161e-01 1.52923763e-01 4.69184900e-03 4.13952116e-03 5.82424877e-03 6.79257140e-03 8.15721825e-02 3.36207390e-01 4.14069414e-01 4.48557854e-01 4.80617583e-01 5.13195574e-01 5.43385446e-01 5.68923652e-01 5.88748634e-01 6.02651954e-01 6.10762537e-01 6.13074481e-01 6.09113216e-01 5.97872674e-01 5.78116536e-01 5.48799813e-01 5.10015309e-01 4.68676776e-01 4.47391480e-01 4.72811431e-01 5.45030117e-01 6.37954712e-01 7.51863062e-01 8.36504877e-01 8.85170639e-01 8.27729642e-01 2.16494165e-02 5.72622567e-03 4.85690217e-03 5.04246727e-03 5.58866886e-03 2.02970415e-01 4.19783801e-01 4.50198263e-01 4.71536845e-01 4.97105598e-01 5.24861217e-01 5.51525295e-01 5.75003028e-01 5.94305575e-01 6.09186709e-01 6.19765520e-01 6.26077771e-01 6.27512157e-01 6.22232616e-01 6.06800675e-01 5.76270342e-01 5.27360201e-01 4.73010749e-01 4.51041162e-01 5.07234693e-01 6.33744121e-01 7.49422133e-01 8.36891890e-01 8.59036267e-01 8.46632838e-01 1.48719281e-01 9.61574446e-03 7.18236901e-03 7.04813935e-03 4.53345291e-03 4.90743713e-03 3.50833863e-01 4.61115003e-01 4.74441022e-01 4.88853753e-01 5.09713233e-01 5.33144176e-01 5.56273997e-01 5.77383578e-01 5.95597804e-01 6.10623360e-01 6.22563601e-01 6.31616652e-01 6.37458324e-01 6.38289750e-01 6.29912436e-01 6.06390238e-01 5.68636417e-01 5.42218983e-01 5.74738145e-01 6.99725688e-01 7.89197147e-01 8.58532727e-01 8.79708409e-01 8.34034204e-01 5.12870431e-01 1.72810871e-02 6.93821767e-03 7.11091142e-03 1.49050383e-02 4.13542148e-03 4.42775991e-03 4.27955240e-01 4.80746984e-01 4.90144134e-01 5.01389921e-01 5.17913699e-01 5.36884785e-01 5.56258559e-01 5.74696481e-01 5.91343105e-01 6.05738938e-01 6.17860794e-01 6.28156185e-01 6.37363315e-01 6.45978034e-01 6.53807223e-01 6.62199855e-01 6.84021175e-01 7.45560884e-01 8.17510664e-01 8.38412404e-01 8.32033038e-01 8.55118811e-01 6.69193029e-01 1.33149177e-02 7.82370195e-03 7.19638169e-03 8.54472723e-03 1.01311514e-02 9.08383802e-02 3.81155778e-03 4.05147206e-03 4.59312916e-01 4.94254351e-01 5.00234902e-01 5.08414209e-01 5.20444989e-01 5.34925222e-01 5.50541222e-01 5.66210806e-01 5.81036866e-01 5.94358265e-01 6.05964243e-01 6.16544664e-01 6.28327191e-01 6.45521104e-01 6.73877537e-01 7.19170451e-01 7.83751726e-01 8.53651643e-01 8.79824758e-01 2.99185097e-01 3.42866555e-02 2.06204876e-02 1.46008013e-02 1.08780814e-02 8.66923854e-03 7.41605554e-03 1.01877041e-02 3.62111777e-02 4.91386592e-01 3.53986560e-03 3.74415051e-03 4.79372293e-01 5.06090641e-01 5.05896807e-01 5.09160578e-01 5.16478479e-01 5.26780248e-01 5.38946688e-01 5.51960826e-01 5.64928353e-01 5.77116430e-01 5.88148534e-01 5.98614573e-01 6.11281335e-01 6.32368684e-01 6.70614064e-01 7.30743051e-01 8.03131640e-01 8.64443302e-01 8.92181396e-01 8.33521008e-01 7.18922094e-02 3.21938768e-02 1.92306526e-02 1.33357355e-02 1.82802472e-02 7.99298346e-01 8.72817397e-01 9.04838443e-01 7.72129118e-01 3.30113363e-03 3.48527357e-03 4.98329818e-01 5.14745235e-01 5.05979002e-01 5.03452599e-01 5.06424487e-01 5.13192952e-01 5.22342265e-01 5.32826245e-01 5.43913722e-01 5.55072546e-01 5.65928280e-01 5.76592088e-01 5.88723719e-01 6.07152581e-01 6.39922857e-01 6.92670405e-01 7.58648634e-01 8.19864869e-01 8.63410115e-01 8.79426301e-01 8.69874835e-01 9.13311422e-01 9.50365603e-01 9.57459927e-01 9.62572694e-01 9.53287363e-01 9.31858718e-01 9.28754747e-01 8.55947971e-01 3.06249573e-03 3.25804902e-03 5.18992066e-01 5.16981661e-01 4.98841435e-01 4.91804302e-01 4.91900444e-01 4.96101350e-01 5.02616286e-01 5.10522842e-01 5.19504905e-01 5.29552937e-01 5.40634692e-01 5.52511334e-01 5.65061212e-01 5.79453349e-01 5.99537373e-01 6.30666852e-01 6.74140990e-01 7.24104226e-01 7.73972332e-01 8.17291260e-01 8.50810528e-01 8.80491734e-01 8.95781159e-01 8.99490595e-01 8.97689700e-01 8.90120387e-01 8.68776083e-01 8.65543902e-01 7.93995976e-01 2.71394802e-03 3.04587977e-03 5.41436791e-01 5.08709908e-01 4.84737992e-01 4.76678461e-01 4.75939542e-01 4.78420824e-01 4.82407957e-01 4.87422526e-01 4.93760943e-01 5.02123773e-01 5.13165534e-01 5.26960433e-01 5.42568624e-01 5.58166444e-01 5.72252512e-01 5.85442245e-01 6.00512743e-01 6.19274735e-01 6.39356673e-01 6.54630542e-01 6.62873030e-01 6.66669846e-01 6.57392263e-01 6.50064588e-01 6.48616135e-01 6.53951585e-01 6.70817137e-01 6.86292470e-01 6.68116927e-01 2.09034490e-03 2.60335160e-03 5.81601620e-01 4.92403090e-01 4.69058633e-01 4.62819368e-01 4.61480200e-01 4.61578459e-01 4.62225854e-01 4.63670373e-01 4.66871768e-01 4.73227203e-01 4.84201282e-01 5.00729322e-01 5.22364736e-01 5.46398520e-01 5.67556560e-01 5.78902245e-01 5.73645651e-01 5.46695113e-01 4.96953547e-01 4.38974112e-01 4.15250421e-01 4.41860586e-01 4.84987140e-01 5.15862346e-01 5.29699266e-01 5.36460161e-01 5.42753935e-01 5.48450232e-01 5.81862688e-01 3.08078295e-03 2.31860299e-03 7.04634964e-01 5.36289632e-01 5.23021460e-01 5.18986642e-01 5.17631412e-01 5.16842663e-01 5.16051650e-01 5.15523851e-01 5.15976667e-01 5.18383920e-01 5.23785114e-01 5.32964110e-01 5.45962393e-01 5.61512351e-01 5.76548636e-01 5.85933685e-01 5.82512081e-01 5.58047235e-01 5.07588863e-01 4.43140328e-01 4.06374007e-01 4.26492572e-01 4.80772436e-01 5.24186909e-01 5.45778453e-01 5.50410628e-01 5.47133207e-01 5.41551352e-01 5.56988597e-01 
