# vtk DataFile Version 2.0
results/2_density.vtk, Created by Freefem++ 
ASCII
DATASET UNSTRUCTURED_GRID
POINTS 961 float
0 0 0
0.033333333 0 0
0.066666667 0 0
0.1 0 0
0.13333333 0 0
0.16666667 0 0
0.2 0 0
0.23333333 0 0
0.26666667 0 0
0.3 0 0
0.33333333 0 0
0.36666667 0 0
0.4 0 0
0.43333333 0 0
0.46666667 0 0
0.5 0 0
0.53333333 0 0
0.56666667 0 0
0.6 0 0
0.63333333 0 0
0.66666667 0 0
0.7 0 0
0.73333333 0 0
0.76666667 0 0
0.8 0 0
0.83333333 0 0
0.86666667 0 0
0.9 0 0
0.93333333 0 0
0.96666667 0 0
1 0 0
0 0.033333333 0
0.033333333 0.033333333 0
0.066666667 0.033333333 0
0.1 0.033333333 0
0.13333333 0.033333333 0
0.16666667 0.033333333 0
0.2 0.033333333 0
0.23333333 0.033333333 0
0.26666667 0.033333333 0
0.3 0.033333333 0
0.33333333 0.033333333 0
0.36666667 0.033333333 0
0.4 0.033333333 0
0.43333333 0.033333333 0
0.46666667 0.033333333 0
0.5 0.033333333 0
0.53333333 0.033333333 0
0.56666667 0.033333333 0
0.6 0.033333333 0
0.63333333 0.033333333 0
0.66666667 0.033333333 0
0.7 0.033333333 0
0.73333333 0.033333333 0
0.76666667 0.033333333 0
0.8 0.033333333 0
0.83333333 0.033333333 0
0.86666667 0.033333333 0
0.9 0.033333333 0
0.93333333 0.033333333 0
0.96666667 0.033333333 0
1 0.033333333 0
0 0.066666667 0
0.033333333 0.066666667 0
0.066666667 0.066666667 0
0.1 0.066666667 0
0.13333333 0.066666667 0
0.16666667 0.066666667 0
0.2 0.066666667 0
0.23333333 0.066666667 0
0.26666667 0.066666667 0
0.3 0.066666667 0
0.33333333 0.066666667 0
0.36666667 0.066666667 0
0.4 0.066666667 0
0.43333333 0.066666667 0
0.46666667 0.066666667 0
0.5 0.066666667 0
0.53333333 0.066666667 0
0.56666667 0.066666667 0
0.6 0.066666667 0
0.63333333 0.066666667 0
0.66666667 0.066666667 0
0.7 0.066666667 0
0.73333333 0.066666667 0
0.76666667 0.066666667 0
0.8 0.066666667 0
0.83333333 0.066666667 0
0.86666667 0.066666667 0
0.9 0.066666667 0
0.93333333 0.066666667 0
0.96666667 0.066666667 0
1 0.066666667 0
0 0.1 0
0.033333333 0.1 0
0.066666667 0.1 0
0.1 0.1 0
0.13333333 0.1 0
0.16666667 0.1 0
0.2 0.1 0
0.23333333 0.1 0
0.26666667 0.1 0
0.3 0.1 0
0.33333333 0.1 0
0.36666667 0.1 0
0.4 0.1 0
0.43333333 0.1 0
0.46666667 0.1 0
0.5 0.1 0
0.53333333 0.1 0
0.56666667 0.1 0
0.6 0.1 0
0.63333333 0.1 0
0.66666667 0.1 0
0.7 0.1 0
0.73333333 0.1 0
0.76666667 0.1 0
0.8 0.1 0
0.83333333 0.1 0
0.86666667 0.1 0
0.9 0.1 0
0.93333333 0.1 0
0.96666667 0.1 0
1 0.1 0
0 0.13333333 0
0.033333333 0.13333333 0
0.066666667 0.13333333 0
0.1 0.13333333 0
0.13333333 0.13333333 0
0.16666667 0.13333333 0
0.2 0.13333333 0
0.23333333 0.13333333 0
0.26666667 0.13333333 0
0.3 0.13333333 0
0.33333333 0.13333333 0
0.36666667 0.13333333 0
0.4 0.13333333 0
0.43333333 0.13333333 0
0.46666667 0.13333333 0
0.5 0.13333333 0
0.53333333 0.13333333 0
0.56666667 0.13333333 0
0.6 0.13333333 0
0.63333333 0.13333333 0
0.66666667 0.13333333 0
0.7 0.13333333 0
0.73333333 0.13333333 0
0.76666667 0.13333333 0
0.8 0.13333333 0
0.83333333 0.13333333 0
0.86666667 0.13333333 0
0.9 0.13333333 0
0.93333333 0.13333333 0
0.96666667 0.13333333 0
1 0.13333333 0
0 0.16666667 0
0.033333333 0.16666667 0
0.066666667 0.16666667 0
0.1 0.16666667 0
0.13333333 0.16666667 0
0.16666667 0.16666667 0
0.2 0.16666667 0
0.23333333 0.16666667 0
0.26666667 0.16666667 0
0.3 0.16666667 0
0.33333333 0.16666667 0
0.36666667 0.16666667 0
0.4 0.16666667 0
0.43333333 0.16666667 0
0.46666667 0.16666667 0
0.5 0.16666667 0
0.53333333 0.16666667 0
0.56666667 0.16666667 0
0.6 0.16666667 0
0.63333333 0.16666667 0
0.66666667 0.16666667 0
0.7 0.16666667 0
0.73333333 0.16666667 0
0.76666667 0.16666667 0
0.8 0.16666667 0
0.83333333 0.16666667 0
0.86666667 0.16666667 0
0.9 0.16666667 0
0.93333333 0.16666667 0
0.96666667 0.16666667 0
1 0.16666667 0
0 0.2 0
0.033333333 0.2 0
0.066666667 0.2 0
0.1 0.2 0
0.13333333 0.2 0
0.16666667 0.2 0
0.2 0.2 0
0.23333333 0.2 0
0.26666667 0.2 0
0.3 0.2 0
0.33333333 0.2 0
0.36666667 0.2 0
0.4 0.2 0
0.43333333 0.2 0
0.46666667 0.2 0
0.5 0.2 0
0.53333333 0.2 0
0.56666667 0.2 0
0.6 0.2 0
0.63333333 0.2 0
0.66666667 0.2 0
0.7 0.2 0
0.73333333 0.2 0
0.76666667 0.2 0
0.8 0.2 0
0.83333333 0.2 0
0.86666667 0.2 0
0.9 0.2 0
0.93333333 0.2 0
0.96666667 0.2 0
1 0.2 0
0 0.23333333 0
0.033333333 0.23333333 0
0.066666667 0.23333333 0
0.1 0.23333333 0
0.13333333 0.23333333 0
0.16666667 0.23333333 0
0.2 0.23333333 0
0.23333333 0.23333333 0
0.26666667 0.23333333 0
0.3 0.23333333 0
0.33333333 0.23333333 0
0.36666667 0.23333333 0
0.4 0.23333333 0
0.43333333 0.23333333 0
0.46666667 0.23333333 0
0.5 0.23333333 0
0.53333333 0.23333333 0
0.56666667 0.23333333 0
0.6 0.23333333 0
0.63333333 0.23333333 0
0.66666667 0.23333333 0
0.7 0.23333333 0
0.73333333 0.23333333 0
0.76666667 0.23333333 0
0.8 0.23333333 0
0.83333333 0.23333333 0
0.86666667 0.23333333 0
0.9 0.23333333 0
0.93333333 0.23333333 0
0.96666667 0.23333333 0
1 0.23333333 0
0 0.26666667 0
0.033333333 0.26666667 0
0.066666667 0.26666667 0
0.1 0.26666667 0
0.13333333 0.26666667 0
0.16666667 0.26666667 0
0.2 0.26666667 0
0.23333333 0.26666667 0
0.26666667 0.26666667 0
0.3 0.26666667 0
0.33333333 0.26666667 0
0.36666667 0.26666667 0
0.4 0.26666667 0
0.43333333 0.26666667 0
0.46666667 0.26666667 0
0.5 0.26666667 0
0.53333333 0.26666667 0
0.56666667 0.26666667 0
0.6 0.26666667 0
0.63333333 0.26666667 0
0.66666667 0.26666667 0
0.7 0.26666667 0
0.73333333 0.26666667 0
0.76666667 0.26666667 0
0.8 0.26666667 0
0.83333333 0.26666667 0
0.86666667 0.26666667 0
0.9 0.26666667 0
0.93333333 0.26666667 0
0.96666667 0.26666667 0
1 0.26666667 0
0 0.3 0
0.033333333 0.3 0
0.066666667 0.3 0
0.1 0.3 0
0.13333333 0.3 0
0.16666667 0.3 0
0.2 0.3 0
0.23333333 0.3 0
0.26666667 0.3 0
0.3 0.3 0
0.33333333 0.3 0
0.36666667 0.3 0
0.4 0.3 0
0.43333333 0.3 0
0.46666667 0.3 0
0.5 0.3 0
0.53333333 0.3 0
0.56666667 0.3 0
0.6 0.3 0
0.63333333 0.3 0
0.66666667 0.3 0
0.7 0.3 0
0.73333333 0.3 0
0.76666667 0.3 0
0.8 0.3 0
0.83333333 0.3 0
0.86666667 0.3 0
0.9 0.3 0
0.93333333 0.3 0
0.96666667 0.3 0
1 0.3 0
0 0.33333333 0
0.033333333 0.33333333 0
0.066666667 0.33333333 0
0.1 0.33333333 0
0.13333333 0.33333333 0
0.16666667 0.33333333 0
0.2 0.33333333 0
0.23333333 0.33333333 0
0.26666667 0.33333333 0
0.3 0.33333333 0
0.33333333 0.33333333 0
0.36666667 0.33333333 0
0.4 0.33333333 0
0.43333333 0.33333333 0
0.46666667 0.33333333 0
0.5 0.33333333 0
0.53333333 0.33333333 0
0.56666667 0.33333333 0
0.6 0.33333333 0
0.63333333 0.33333333 0
0.66666667 0.33333333 0
0.7 0.33333333 0
0.73333333 0.33333333 0
0.76666667 0.33333333 0
0.8 0.33333333 0
0.83333333 0.33333333 0
0.86666667 0.33333333 0
0.9 0.33333333 0
0.93333333 0.33333333 0
0.96666667 0.33333333 0
1 0.33333333 0
0 0.36666667 0
0.033333333 0.36666667 0
0.066666667 0.36666667 0
0.1 0.36666667 0
0.13333333 0.36666667 0
0.16666667 0.36666667 0
0.2 0.36666667 0
0.23333333 0.36666667 0
0.26666667 0.36666667 0
0.3 0.36666667 0
0.33333333 0.36666667 0
0.36666667 0.36666667 0
0.4 0.36666667 0
0.43333333 0.36666667 0
0.46666667 0.36666667 0
0.5 0.36666667 0
0.53333333 0.36666667 0
0.56666667 0.36666667 0
0.6 0.36666667 0
0.63333333 0.36666667 0
0.66666667 0.36666667 0
0.7 0.36666667 0
0.73333333 0.36666667 0
0.76666667 0.36666667 0
0.8 0.36666667 0
0.83333333 0.36666667 0
0.86666667 0.36666667 0
0.9 0.36666667 0
0.93333333 0.36666667 0
0.96666667 0.36666667 0
1 0.36666667 0
0 0.4 0
0.033333333 0.4 0
0.066666667 0.4 0
0.1 0.4 0
0.13333333 0.4 0
0.16666667 0.4 0
0.2 0.4 0
0.23333333 0.4 0
0.26666667 0.4 0
0.3 0.4 0
0.33333333 0.4 0
0.36666667 0.4 0
0.4 0.4 0
0.43333333 0.4 0
0.46666667 0.4 0
0.5 0.4 0
0.53333333 0.4 0
0.56666667 0.4 0
0.6 0.4 0
0.63333333 0.4 0
0.66666667 0.4 0
0.7 0.4 0
0.73333333 0.4 0
0.76666667 0.4 0
0.8 0.4 0
0.83333333 0.4 0
0.86666667 0.4 0
0.9 0.4 0
0.93333333 0.4 0
0.96666667 0.4 0
1 0.4 0
0 0.43333333 0
0.033333333 0.43333333 0
0.066666667 0.43333333 0
0.1 0.43333333 0
0.13333333 0.43333333 0
0.16666667 0.43333333 0
0.2 0.43333333 0
0.23333333 0.43333333 0
0.26666667 0.43333333 0
0.3 0.43333333 0
0.33333333 0.43333333 0
0.36666667 0.43333333 0
0.4 0.43333333 0
0.43333333 0.43333333 0
0.46666667 0.43333333 0
0.5 0.43333333 0
0.53333333 0.43333333 0
0.56666667 0.43333333 0
0.6 0.43333333 0
0.63333333 0.43333333 0
0.66666667 0.43333333 0
0.7 0.43333333 0
0.73333333 0.43333333 0
0.76666667 0.43333333 0
0.8 0.43333333 0
0.83333333 0.43333333 0
0.86666667 0.43333333 0
0.9 0.43333333 0
0.93333333 0.43333333 0
0.96666667 0.43333333 0
1 0.43333333 0
0 0.46666667 0
0.033333333 0.46666667 0
0.066666667 0.46666667 0
0.1 0.46666667 0
0.13333333 0.46666667 0
0.16666667 0.46666667 0
0.2 0.46666667 0
0.23333333 0.46666667 0
0.26666667 0.46666667 0
0.3 0.46666667 0
0.33333333 0.46666667 0
0.36666667 0.46666667 0
0.4 0.46666667 0
0.43333333 0.46666667 0
0.46666667 0.46666667 0
0.5 0.46666667 0
0.53333333 0.46666667 0
0.56666667 0.46666667 0
0.6 0.46666667 0
0.63333333 0.46666667 0
0.66666667 0.46666667 0
0.7 0.46666667 0
0.73333333 0.46666667 0
0.76666667 0.46666667 0
0.8 0.46666667 0
0.83333333 0.46666667 0
0.86666667 0.46666667 0
0.9 0.46666667 0
0.93333333 0.46666667 0
0.96666667 0.46666667 0
1 0.46666667 0
0 0.5 0
0.033333333 0.5 0
0.066666667 0.5 0
0.1 0.5 0
0.13333333 0.5 0
0.16666667 0.5 0
0.2 0.5 0
0.23333333 0.5 0
0.26666667 0.5 0
0.3 0.5 0
0.33333333 0.5 0
0.36666667 0.5 0
0.4 0.5 0
0.43333333 0.5 0
0.46666667 0.5 0
0.5 0.5 0
0.53333333 0.5 0
0.56666667 0.5 0
0.6 0.5 0
0.63333333 0.5 0
0.66666667 0.5 0
0.7 0.5 0
0.73333333 0.5 0
0.76666667 0.5 0
0.8 0.5 0
0.83333333 0.5 0
0.86666667 0.5 0
0.9 0.5 0
0.93333333 0.5 0
0.96666667 0.5 0
1 0.5 0
0 0.53333333 0
0.033333333 0.53333333 0
0.066666667 0.53333333 0
0.1 0.53333333 0
0.13333333 0.53333333 0
0.16666667 0.53333333 0
0.2 0.53333333 0
0.23333333 0.53333333 0
0.26666667 0.53333333 0
0.3 0.53333333 0
0.33333333 0.53333333 0
0.36666667 0.53333333 0
0.4 0.53333333 0
0.43333333 0.53333333 0
0.46666667 0.53333333 0
0.5 0.53333333 0
0.53333333 0.53333333 0
0.56666667 0.53333333 0
0.6 0.53333333 0
0.63333333 0.53333333 0
0.66666667 0.53333333 0
0.7 0.53333333 0
0.73333333 0.53333333 0
0.76666667 0.53333333 0
0.8 0.53333333 0
[...]
CELL_DATA 1920
Scalars  Label int 1
LOOKUP_TABLE FreeFempp_table
0
0
0
0
0
0
0
0
0
0
0
0
0
0
0
0
0
0
0
0
0
0
0
0
0
0
0
0
0
0
0
0
0
0
0
0
0
0
0
0
0
0
0
0
0
0
0
0
0
0
0
0
0
0
0
0
0
0
0
0
0
0
0
0
0
0
0
0
0
0
0
0
0
0
0
0
0
0
0
0
0
0
0
0
0
0
0
0
0
0
0
0
0
0
0
0
0
0
0
0
0
0
0
0
0
0
0
0
0
0
0
0
0
0
0
0
0
0
0
0
0
0
0
0
0
0
0
0
0
0
0
0
0
0
0
0
0
0
0
0
0
0
0
0
0
0
0
0
0
0
0
0
0
0
0
0
0
0
0
0
0
0
0
0
0
0
0
0
0
0
0
0
0
0
0
0
0
0
0
0
0
0
0
0
0
0
0
0
0
0
0
0
0
0
0
0
0
0
0
0
0
0
0
0
0
0
0
0
0
0
0
0
0
0
0
0
0
0
0
0
0
0
0
0
0
0
0
0
0
0
0
0
0
0
0
0
0
0
0
0
0
0
0
0
0
0
0
0
0
0
0
0
0
0
0
0
0
0
0
0
0
0
0
0
0
0
0
0
0
0
0
0
0
0
0
0
0
0
0
0
0
0
0
0
0
0
0
0
0
0
0
0
0
0
0
0
0
0
0
0
0
0
0
0
0
0
0
0
0
0
0
0
0
0
0
0
0
0
0
0
0
0
0
0
0
0
0
0
0
0
0
0
0
0
0
0
0
0
0
0
0
0
0
0
0
0
0
0
0
0
0
0
0
0
0
0
0
0
0
0
0
0
0
0
0
0
0
0
0
0
0
0
0
0
0
0
0
0
0
0
0
0
0
0
0
0
0
0
0
0
0
0
0
0
0
0
0
0
0
0
0
0
0
0
0
0
0
0
0
0
0
0
0
0
0
0
0
0
0
0
0
0
0
0
0
0
0
0
0
0
0
0
0
0
0
0
0
0
0
0
0
0
0
0
0
0
0
0
0
0
0
0
0
0
0
0
0
0
0
0
0
0
0
0
0
0
0
0
0
0
0
0
0
0
0
0
0
0
0
0
0
0
0
0
0
0
0
0
0
0
0
0
0
0
0
0
0
0
0
0
0
0
0
0
0
0
0
0
0
0
0
0
0
0
0
0
0
0
0
0
0
0
0
0
0
0
0
0
0
0
0
0
0
0
0
0
0
0
0
0
0
0
0
0
0
0
0
0
0
0
0
0
0
0
0
0
0
0
0
0
0
0
0
0
0
0
0
0
0
0
0
0
0
0
0
0
0
0
0
0
0
0
0
0
0
0
0
0
0
0
0
0
0
0
0
0
0
0
0
0
0
0
0
0
0
0
0
0
0
0
0
0
0
0
0
0
0
0
0
0
0
0
0
0
0
0
0
0
0
0
0
0
0
0
0
0
0
0
0
0
0
0
0
0
0
0
0
0
0
0
0
0
0
0
0
0
0
0
0
0
0
0
0
0
0
0
0
0
0
0
0
0
0
0
0
0
0
0
0
0
0
0
0
0
0
0
0
0
0
0
0
0
0
0
0
0
0
0
0
0
0
0
0
0
0
0
0
0
0
0
0
0
0
0
0
0
0
0
0
0
0
0
0
0
0
0
0
0
0
0
0
0
0
0
0
0
0
0
0
0
0
0
0
0
0
0
0
0
0
0
0
0
0
0
0
0
0
0
0
0
0
0
0
0
0
0
0
0
0
0
0
0
0
0
0
0
0
0
0
0
0
0
0
0
0
0
0
0
0
0
0
0
0
0
0
0
0
0
0
0
0
0
0
0
0
0
0
0
0
0
0
0
0
0
0
0
0
0
0
0
0
0
0
0
0
0
0
0
0
0
0
0
0
0
0
0
0
0
0
0
0
0
0
0
0
0
0
0
0
0
0
0
0
0
0
0
0
0
0
0
0
0
0
0
0
0
0
0
0
0
0
0
0
0
0
0
0
0
0
0
0
0
0
0
0
0
0
0
0
0
0
0
0
0
0
0
0
0
0
0
0
0
0
0
0
0
0
0
0
0
0
0
0
0
0
0
0
0
0
0
0
0
0
0
0
0
0
0
0
0
0
0
0
0
0
0
0
0
0
0
0
0
0
0
0
0
0
0
0
0
0
0
0
0
0
0
0
0
0
0
0
0
0
0
0
0
0
0
0
0
0
0
0
0
0
0
0
0
0
0
0
0
0
0
0
0
0
0
0
0
0
0
0
0
0
0
0
0
0
0
0
0
0
0
0
0
0
0
0
0
0
0
0
0
0
0
0
0
0
0
0
0
0
0
0
0
0
0
0
0
0
0
0
0
0
0
0
0
0
0
0
0
0
0
0
0
0
0
0
0
0
0
0
0
0
0
0
0
0
0
0
0
0
0
0
0
0
0
0
0
0
0
0
0
0
0
0
0
0
0
0
0
0
0
0
0
0
0
0
0
0
0
0
0
0
0
0
0
0
0
0
0
0
0
0
0
0
0
0
0
0
0
0
0
0
0
0
0
0
0
0
0
0
0
0
0
0
0
0
0
0
0
0
0
0
0
0
0
0
0
0
0
0
0
0
0
0
0
0
0
0
0
0
0
0
0
0
0
0
0
0
0
0
0
0
0
0
0
0
0
0
0
0
0
0
0
0
0
0
0
0
0
0
0
0
0
0
0
0
0
0
0
0
0
0
0
0
0
0
0
0
0
0
0
0
0
0
0
0
0
0
0
0
0
0
0
0
0
0
0
0
0
0
0
0
0
0
0
0
0
0
0
0
0
0
0
0
0
0
0
0
0
0
0
0
0
0
0
0
0
0
0
0
0
0
0
0
0
0
0
0
0
0
0
0
0
0
0
0
0
0
0
0
0
0
0
0
0
0
0
0
0
0
0
0
0
0
0
0
0
0
0
0
0
0
0
0
0
0
0
0
0
0
0
0
0
0
0
0
0
0
0
0
0
0
0
0
0
0
0
0
0
0
0
0
0
0
0
0
0
0
0
0
0
0
0
0
0
0
0
0
0
0
0
0
0
0
0
0
0
0
0
0
0
0
0
0
0
0
0
0
0
0
0
0
0
0
0
0
0
0
0
0
0
0
0
0
0
0
0
0
0
0
0
0
0
0
0
0
0
0
0
0
0
0
0
0
0
0
0
0
0
0
0
0
0
0
0
0
0
0
0
0
0
0
0
0
0
0
0
0
0
0
0
0
0
0
0
0
0
0
0
0
0
0
0
0
0
0
0
0
0
0
0
0
0
0
0
0
0
0
0
0
0
0
0
0
0
0
0
0
0
0
0
0
0
0
0
0
0
0
0
0
0
0
0
0
0
0
0
0
0
0
0
0
0
0
0
0
0
0
0
0
0
0
0
0
0
0
0
0
0
0
0
0
0
0
0
0
0
0
0
0
0
0
0
0
0
0
0
0
0
0
0
0
0
0
0
0
0
0
0
0
0
0
0
0
0
0
0
0
0
0
0
0
0
0
0
0
0
0
0
0
0
0
0
0
0
0
0
0
0
0
0
0
0
0
0
0
0
0
0
0
0
0
0
0
0
0
0
0
0
0
0
0
0
0
0
0
0
0
0
0
0
0
0
0
0
0
0
0
0
0
0
0
0
0
0
0
0
0
0
0
0
0
0
0
0
0
0
0
0
0
0
0
0
0
0
0
0
0
0
0
0
0
0
0
0
0
0
0
0
0
0
0
0
0
0
0
0
0
0
0
0
0
0
0
0
0
0
0
0
0
0
0
0
0
0
0
0
0
0
0
0
0
0
0
0
0
0
0
0
0
0
0
0
0
0
0
0
0
0
0
0
0
0
0
0
0
0
0
0
0
0
0
0
0
0
0
0
0
0
0
0
0
0
0
0
0
0
0
0
0
0
0
0
0
0
0
0
0
0
0
0
0
0
0
0
0
0
0
0
0
0
0
0
0
0
0
0
0
0
0
0
0
0
0
0
0
0
0
0
0
0
0
0
0
0
0
0
0
0
0
0
0
0
0
0
0
0
0
0
0
0
0
0
0
0
0
0
0
0
0
0
0
0
0
0
0
0
1
1
1
1
1
1
1
1
1
1
1
1
1
1
1
1
1
1
1
1
1
1
1
1
1
1
1
1
1
1
2
2
2
2
2
2
2
2
2
2
2
2
2
2
2
2
2
2
2
2
2
2
2
2
2
2
2
2
2
2
3
3
3
3
3
3
3
3
3
3
3
3
3
3
3
3
3
3
3
3
3
3
3
3
3
3
3
3
3
3
4
4
4
4
4
4
4
4
4
4
4
4
4
4
4
4
4
4
4
4
4
4
4
4
4
4
4
4
4
4

LOOKUP_TABLE FreeFempp_table 5
1.00000000 0.00000000 0.00000000 1.00000000
1.00000000 1.00000000 0.00000000 1.00000000
1.00000000 0.00000000 1.00000000 1.00000000
0.00000000 1.00000000 0.00000000 1.00000000
0.00000000 1.00000000 1.00000000 1.00000000

POINT_DATA 961
FIELD FieldData 1
Density 1 961 float
4.93856579e-01 4.77092147e-01 4.79553103e-01 4.80509013e-01 4.80635583e-01 4.80373353e-01 4.79890734e-01 4.35004026e-01 1.72428116e-02 2.21277755e-02 2.46968076e-01 4.71067876e-01 4.88706946e-01 5.32851994e-01 6.03469729e-01 6.18870497e-01 5.81297636e-01 5.93297958e-01 5.84001660e-01 5.77757835e-01 5.69976628e-01 5.62841833e-01 5.56340396e-01 5.48930824e-01 5.42371631e-01 5.38202524e-01 5.35993934e-01 5.35133362e-01 5.34389377e-01 5.32664955e-01 5.36002576e-01 4.94630355e-03 4.12063569e-01 4.28545713e-01 4.28958207e-01 4.28853989e-01 4.28667098e-01 4.28019941e-01 4.10487622e-01 1.86367501e-02 1.24308635e-02 9.41391736e-02 4.17655408e-01 4.33637410e-01 4.76145685e-01 6.40123546e-01 6.72390640e-01 6.07964158e-01 6.44603610e-01 6.31328881e-01 6.11305535e-01 5.96721530e-01 5.87666452e-01 5.81252456e-01 5.74318051e-01 5.66673458e-01 5.43464780e-01 5.32745063e-01 5.27442932e-01 5.24685502e-01 5.21243274e-01 5.30777514e-01 3.26983910e-03 2.65903305e-03 4.59653232e-03 4.53068083e-03 4.56742942e-03 4.60306508e-03 4.63658199e-03 4.67513734e-03 4.65331553e-03 4.46754089e-03 3.63226398e-03 4.24542129e-01 4.33399290e-01 4.41146225e-01 5.29291749e-01 7.29184389e-01 1.21929131e-01 5.12944572e-02 4.32481579e-02 4.15054411e-01 4.96495515e-01 5.16854525e-01 5.29254198e-01 5.40796638e-01 5.65449595e-01 5.57238638e-01 5.25921345e-01 5.11232078e-01 5.05299449e-01 5.00743032e-01 5.22558272e-01 4.71918464e-01 4.31834022e-03 4.77572996e-03 4.46841074e-03 4.54755453e-03 4.57632355e-03 4.61028656e-03 4.63817781e-03 4.64954507e-03 5.05080307e-03 2.44521652e-03 2.40522227e-03 4.08177869e-03 4.34813043e-03 3.97709478e-03 8.41664374e-01 6.04655981e-01 8.26865733e-02 2.56255977e-02 1.94013566e-02 1.66164767e-02 1.26226963e-02 1.00754164e-02 8.34707171e-03 8.29933956e-03 8.30340665e-03 4.92148370e-01 4.80764985e-01 4.78554159e-01 4.74372655e-01 5.09571671e-01 4.81971353e-01 4.25798774e-01 4.23295140e-01 4.25072849e-01 4.25663173e-01 4.28022027e-01 4.30453956e-01 4.32575732e-01 4.34065878e-01 4.34721529e-01 4.29708153e-01 3.77461431e-03 4.25238349e-03 4.09279112e-03 2.53111986e-03 2.70258635e-03 4.68852557e-03 9.41323936e-01 7.57935286e-01 3.24660689e-02 2.18308158e-02 1.55707728e-02 1.19574312e-02 9.68744420e-03 8.08276888e-03 4.96271951e-03 4.40342631e-03 4.59766597e-01 4.53204751e-01 4.53802943e-01 4.97564048e-01 4.87518817e-01 4.35781717e-01 4.35830146e-01 4.36992466e-01 4.36206013e-01 4.37482178e-01 4.39109087e-01 4.40489352e-01 4.41492438e-01 4.42206979e-01 4.42476720e-01 4.41938877e-01 4.40056980e-01 4.37109590e-01 4.22275394e-01 4.21399157e-03 3.02047003e-03 3.13720969e-03 5.70612960e-03 8.68697584e-01 7.64289379e-01 7.61503220e-01 7.19836652e-01 6.53320670e-01 5.35861194e-01 8.04283619e-02 4.03037807e-03 3.76673904e-03 4.46723521e-01 4.43008244e-01 4.90854025e-01 4.94971901e-01 4.49193507e-01 4.51859802e-01 4.53146309e-01 4.51930702e-01 4.51604635e-01 4.52054620e-01 4.52565074e-01 4.52982605e-01 4.53298718e-01 4.53421235e-01 4.52952117e-01 4.52360421e-01 4.50950623e-01 4.49190557e-01 4.46268857e-01 4.34916854e-01 4.97894594e-03 3.81404441e-03 3.79116507e-03 5.42701125e-01 5.99127412e-01 6.44362152e-01 7.03387499e-01 7.52194524e-01 8.18993986e-01 2.81929493e-01 3.70392133e-03 3.44015611e-03 4.36759591e-01 4.87669319e-01 5.01836896e-01 4.62720633e-01 4.65312541e-01 4.66335297e-01 4.65936333e-01 4.65501964e-01 4.65689033e-01 4.66052741e-01 4.66389656e-01 4.66567189e-01 4.66444671e-01 4.66001213e-01 4.65501755e-01 4.64820325e-01 4.63345140e-01 4.61178124e-01 4.58494455e-01 4.53318447e-01 4.35243607e-01 4.27546911e-03 4.59441124e-03 3.02617580e-01 3.20672601e-01 2.73384929e-01 1.96408853e-01 1.72476634e-01 5.59303403e-01 3.85549814e-01 3.47774173e-03 5.21006994e-03 4.81835932e-01 5.07471263e-01 4.74638522e-01 4.77220297e-01 4.77703899e-01 4.78098154e-01 4.78494585e-01 4.79123354e-01 4.79787737e-01 4.80328560e-01 4.80625391e-01 4.80622679e-01 4.80483174e-01 4.80501145e-01 4.80555087e-01 4.80107218e-01 4.79101807e-01 4.77675319e-01 4.75344896e-01 4.70214844e-01 4.59339321e-01 4.93840361e-03 5.63035347e-03 2.16655005e-02 3.62892635e-02 5.20461798e-02 7.18694404e-02 1.36944175e-01 9.34136629e-01 6.15388621e-03 6.05544681e-03 4.75606441e-01 5.12078285e-01 4.84817266e-01 4.87555236e-01 4.88167942e-01 4.89089161e-01 4.90200579e-01 4.91414905e-01 4.92530346e-01 4.93421584e-01 4.94031847e-01 4.94411618e-01 4.94800389e-01 4.95472372e-01 4.96386826e-01 4.97298867e-01 4.98270214e-01 4.99502152e-01 5.00944257e-01 5.01889229e-01 5.02170682e-01 4.93941993e-01 8.00215360e-03 1.09675853e-02 1.87408160e-02 3.14265601e-02 5.61761409e-02 1.22853801e-01 8.63156319e-01 5.63334068e-03 3.59632680e-03 4.70702648e-01 5.16218722e-01 4.93792653e-01 4.96359915e-01 4.97227997e-01 4.98506010e-01 4.99999017e-01 5.01549482e-01 5.02952635e-01 5.04092932e-01 5.04955828e-01 5.05654156e-01 5.06442845e-01 5.07576644e-01 5.09125113e-01 5.11100054e-01 5.13726413e-01 5.17355561e-01 5.22334576e-01 5.29003501e-01 5.38127065e-01 5.53740978e-01 5.82609057e-01 4.62368540e-02 3.80307212e-02 4.10601981e-02 6.99712783e-02 1.63820863e-01 5.46617866e-01 9.03853774e-01 3.61507898e-03 5.21571049e-03 5.19485593e-01 5.00669658e-01 5.02808690e-01 5.03795624e-01 5.05152345e-01 5.06692946e-01 5.08242667e-01 5.09615898e-01 5.10705948e-01 5.11511981e-01 5.12158811e-01 5.12875795e-01 5.13886392e-01 5.15315890e-01 5.17284870e-01 5.20043015e-01 5.23922980e-01 5.29309332e-01 5.36762297e-01 5.47416985e-01 5.64332008e-01 5.98375559e-01 6.48397565e-01 7.07319379e-01 6.92755401e-01 6.92937076e-01 6.54611886e-01 5.85557222e-01 8.54395807e-01 1.23707587e-02 7.21007399e-03 5.20609617e-01 5.03606319e-01 5.05391777e-01 5.06293178e-01 5.07558525e-01 5.08970380e-01 5.10320127e-01 5.11410117e-01 5.12139916e-01 5.12512445e-01 5.12637317e-01 5.12695491e-01 5.12857020e-01 5.13229132e-01 5.13905644e-01 5.15018165e-01 5.16693354e-01 5.19020140e-01 5.22093296e-01 5.26144326e-01 5.31739295e-01 5.40225267e-01 5.52142322e-01 5.76017499e-01 5.71528614e-01 5.40393710e-01 5.05688310e-01 5.98459303e-01 8.41524303e-01 1.28293792e-02 1.16763525e-02 5.18753886e-01 5.01124144e-01 5.03150225e-01 5.03875792e-01 5.04959047e-01 5.06230056e-01 5.07390261e-01 5.08146644e-01 5.08378267e-01 5.08091152e-01 5.07380962e-01 5.06385684e-01 5.05221903e-01 5.03952920e-01 5.02610087e-01 5.01210928e-01 4.99734074e-01 4.98111486e-01 4.96278673e-01 4.94282514e-01 4.92365122e-01 4.90943313e-01 4.89993662e-01 4.88607556e-01 4.88899708e-01 4.91853565e-01 5.23680568e-01 6.52907133e-01 8.04491401e-01 1.45673789e-02 1.32233491e-02 5.13627410e-01 4.92106616e-01 4.94778425e-01 4.95885283e-01 4.97227490e-01 4.98735040e-01 5.00037968e-01 5.00700831e-01 5.00570595e-01 4.99676198e-01 4.98128027e-01 4.96052712e-01 4.93543595e-01 4.90643740e-01 4.87363756e-01 4.83702362e-01 4.79658663e-01 4.75273103e-01 4.70720768e-01 4.66434658e-01 4.63158131e-01 4.61785644e-01 4.62817758e-01 4.66111749e-01 4.73330259e-01 4.93779302e-01 5.48977911e-01 6.65271640e-01 7.45343149e-01 1.62423830e-02 1.48778008e-02 5.04935920e-01 4.76130277e-01 4.79443014e-01 4.81759459e-01 4.84412342e-01 4.87201571e-01 4.89456564e-01 4.90608662e-01 4.90534574e-01 4.89352763e-01 4.87249345e-01 4.84391659e-01 4.80893105e-01 4.76815194e-01 4.72196996e-01 4.67093199e-01 4.61620361e-01 4.56031412e-01 4.50820684e-01 4.46813285e-01 4.45129812e-01 4.46934998e-01 4.53062475e-01 4.64274645e-01 4.83308762e-01 5.18105328e-01 5.85212290e-01 6.68467700e-01 6.66430712e-01 1.79369841e-02 1.65293198e-02 4.92185146e-01 4.53423440e-01 4.57088143e-01 4.61750597e-01 4.67217326e-01 4.72803205e-01 4.77153212e-01 4.79580432e-01 4.80117261e-01 4.79086518e-01 4.76836652e-01 4.73635554e-01 4.69655931e-01 4.65004712e-01 4.59772438e-01 4.54090238e-01 4.48198020e-01 4.42533433e-01 4.37830716e-01 4.35172766e-01 4.35899138e-01 4.41341192e-01 4.52614278e-01 4.71136957e-01 5.00577927e-01 5.47335684e-01 6.12655163e-01 6.56700909e-01 5.68826377e-01 2.00280566e-02 1.82891022e-02 4.75694567e-01 4.24764872e-01 4.28520590e-01 4.37040538e-01 4.47331637e-01 4.57395434e-01 4.64899153e-01 4.69218135e-01 4.70759779e-01 4.70204979e-01 4.68148947e-01 4.65001345e-01 4.61012155e-01 4.56339478e-01 4.51123357e-01 4.45559055e-01 4.39976484e-01 4.34934914e-01 4.31320190e-01 4.30389017e-01 4.33679223e-01 4.42789197e-01 4.59231347e-01 4.84788805e-01 5.22679090e-01 5.75755715e-01 6.29737794e-01 6.32570148e-01 4.36643720e-01 2.32699960e-02 2.06906572e-02 4.54335690e-01 3.88110280e-01 3.93749028e-01 4.09156382e-01 4.27094698e-01 4.43295002e-01 4.54538107e-01 4.60795015e-01 4.63277191e-01 4.63219166e-01 4.61506397e-01 4.58677262e-01 4.55037326e-01 4.50777709e-01 4.46072668e-01 4.41161931e-01 4.36433047e-01 4.32516456e-01 4.30386633e-01 4.31420654e-01 4.37354773e-01 4.50150967e-01 4.71783251e-01 5.04075825e-01 5.48862636e-01 6.02350354e-01 6.35384202e-01 5.71885347e-01 2.39732787e-01 2.87646465e-02 2.45531797e-02 4.26208556e-01 3.43784094e-01 3.52467418e-01 3.79619092e-01 4.09090221e-01 4.32799369e-01 4.47514594e-01 4.54942524e-01 4.57751274e-01 4.57895607e-01 4.56500113e-01 4.54141617e-01 4.51114565e-01 4.47606057e-01 4.43806648e-01 4.39990491e-01 4.36591119e-01 4.34290379e-01 4.34121162e-01 4.37535763e-01 4.46423888e-01 4.63118911e-01 4.89993811e-01 5.28309584e-01 5.77459455e-01 6.22158110e-01 6.14249527e-01 4.15520608e-01 1.24547772e-01 3.85349505e-02 3.21502313e-02 3.87136996e-01 2.94782251e-01 3.07910204e-01 3.51468265e-01 3.96352828e-01 4.27757412e-01 4.44335073e-01 4.51373905e-01 4.53562260e-01 4.53499198e-01 4.52349931e-01 4.50578213e-01 4.48379755e-01 4.45896566e-01 4.43323791e-01 4.40977246e-01 4.39355284e-01 4.39213276e-01 4.41644907e-01 4.48137969e-01 4.60658371e-01 4.81893241e-01 5.14292359e-01 5.57484090e-01 6.04222119e-01 6.23154581e-01 5.20720124e-01 2.26591140e-01 8.54975730e-02 5.31035848e-02 4.91607897e-02 3.29566449e-01 2.44875610e-01 2.66070098e-01 3.29735339e-01 3.92179072e-01 4.28896815e-01 4.44177419e-01 4.48915541e-01 4.49657768e-01 4.49144065e-01 4.48264629e-01 4.47222441e-01 4.46051389e-01 4.44822580e-01 4.43731755e-01 4.43153083e-01 4.43691850e-01 4.46241617e-01 4.52003360e-01 4.62447941e-01 4.79482710e-01 5.06201446e-01 5.44309497e-01 5.88053167e-01 6.18395448e-01 5.76192558e-01 3.48025590e-01 1.50320575e-01 8.08413252e-02 7.10260570e-02 9.04536843e-02 2.58423805e-01 1.99472710e-01 2.32469469e-01 3.20034981e-01 3.98697287e-01 4.34837580e-01 4.44978595e-01 4.45997804e-01 4.45009828e-01 4.44122076e-01 4.43669617e-01 4.43527877e-01 4.43562329e-01 4.43769038e-01 4.44330454e-01 4.45663303e-01 4.48474020e-01 4.53809708e-01 4.63052779e-01 4.77746546e-01 4.99467552e-01 5.31499088e-01 5.73697269e-01 6.09629989e-01 6.05968058e-01 4.71946508e-01 2.49914050e-01 1.33998588e-01 9.93113667e-02 1.05779588e-01 1.86331347e-01 1.90058574e-01 1.61414623e-01 2.10715115e-01 3.27273339e-01 4.14552063e-01 4.41928774e-01 4.44286406e-01 4.41381305e-01 4.39009756e-01 4.38066691e-01 4.38247919e-01 4.39147949e-01 4.40514714e-01 4.42282110e-01 4.44586754e-01 4.47824240e-01 4.52737898e-01 4.60512131e-01 4.72840279e-01 4.91673440e-01 5.18244684e-01 5.53824246e-01 5.94466746e-01 6.15949869e-01 5.70663214e-01 4.12453204e-01 2.37953618e-01 1.61143050e-01 1.48303717e-01 1.84227899e-01 3.38025630e-01 1.36228666e-01 1.30240098e-01 2.04359129e-01 3.53299886e-01 4.33516324e-01 4.45951223e-01 4.40460205e-01 4.34623688e-01 4.31579798e-01 4.30927575e-01 4.31864709e-01 4.33844954e-01 4.36592311e-01 4.40012366e-01 4.44167256e-01 4.49354321e-01 4.56264287e-01 4.66158062e-01 4.80973601e-01 5.02988279e-01 5.32831371e-01 5.67736506e-01 6.00140274e-01 6.00387812e-01 5.45333624e-01 4.12806541e-01 2.88882971e-01 2.44919464e-01 2.55644143e-01 3.06997031e-01 4.33171213e-01 9.90566239e-02 1.04145013e-01 2.18088537e-01 3.92484337e-01 4.47531909e-01 4.44316655e-01 4.33252901e-01 4.26046699e-01 4.23033953e-01 4.22849298e-01 4.24476027e-01 4.27417815e-01 4.31492239e-01 4.36633378e-01 4.42823380e-01 4.50181931e-01 4.59183693e-01 4.70898271e-01 4.87029374e-01 5.09331048e-01 5.37587643e-01 5.66904426e-01 5.89827776e-01 5.86366951e-01 5.37296712e-01 4.51433957e-01 3.86655331e-01 3.69960546e-01 3.84377271e-01 4.09049928e-01 4.75292981e-01 7.55654424e-02 8.29750746e-02 2.56756783e-01 4.30084854e-01 4.51855510e-01 4.36897933e-01 4.23545867e-01 4.16464269e-01 4.13895547e-01 4.14061964e-01 4.16068405e-01 4.19661909e-01 4.24865007e-01 4.31708068e-01 4.40119952e-01 4.49990481e-01 4.61379349e-01 4.74775225e-01 4.91159141e-01 5.11443853e-01 5.34946263e-01 5.57240248e-01 5.70273459e-01 5.66693544e-01 5.40928841e-01 4.97786403e-01 4.66872871e-01 4.57250088e-01 4.58397299e-01 4.65989172e-01 4.99879450e-01 6.11667000e-02 6.74961433e-02 3.18051964e-01 4.52286392e-01 4.45907444e-01 4.25582349e-01 4.13029701e-01 4.07026589e-01 4.04800236e-01 4.04816240e-01 4.06623751e-01 4.10350263e-01 4.16285872e-01 4.24610227e-01 4.35259521e-01 4.47930604e-01 4.62204903e-01 4.77751106e-01 4.94487971e-01 5.12437522e-01 5.30951023e-01 5.47461629e-01 5.57136893e-01 5.55238903e-01 5.41623950e-01 5.21893561e-01 5.05887628e-01 4.97870833e-01 4.95955050e-01 4.99382734e-01 5.16753614e-01 5.17456159e-02 5.69112748e-02 3.79235774e-01 4.55190450e-01 4.33162391e-01 4.14401591e-01 4.04553235e-01 3.99413943e-01 3.96623135e-01 3.95499647e-01 3.96215767e-01 3.99276555e-01 4.05205786e-01 4.14343476e-01 4.26724046e-01 4.42029089e-01 4.59601521e-01 4.78516757e-01 4.97726530e-01 5.16244233e-01 5.33171117e-01 5.47316849e-01 5.56723595e-01 5.59123397e-01 5.53913772e-01 5.43715477e-01 5.32531619e-01 5.23594439e-01 5.18913567e-01 5.19286990e-01 5.27731299e-01 4.27190214e-02 4.93216217e-02 4.22428876e-01 4.49556023e-01 4.23775941e-01 4.08690453e-01 3.99137020e-01 3.91746849e-01 3.85855854e-01 3.81804287e-01 3.80240023e-01 3.81874740e-01 3.87358397e-01 3.97169977e-01 4.11522537e-01 4.30289477e-01 4.52931732e-01 4.78406459e-01 5.05105078e-01 5.30938029e-01 5.53632081e-01 5.71091592e-01 5.81625640e-01 5.84266305e-01 5.79181850e-01 5.67900658e-01 5.53244054e-01 5.38938284e-01 5.28349042e-01 5.24526179e-01 5.32754898e-01 7.68266767e-02 5.49222194e-02 5.42809784e-01 5.01037359e-01 4.85201716e-01 4.74349022e-01 4.65574741e-01 4.57928389e-01 4.51506227e-01 4.46693152e-01 4.43979859e-01 4.43883747e-01 4.46855843e-01 4.53166783e-01 4.62815464e-01 4.75502282e-01 4.90662396e-01 5.07510126e-01 5.25052607e-01 5.42078793e-01 5.57168245e-01 5.68773627e-01 5.75429320e-01 5.76286316e-01 5.71675062e-01 5.63005447e-01 5.52304327e-01 5.41837454e-01 5.33561647e-01 5.28707147e-01 5.32521725e-01 
