# vtk DataFile Version 2.0
results/3_density.vtk, Created by Freefem++ 
ASCII
DATASET UNSTRUCTURED_GRID
POINTS 961 float
0 0 0
0.033333333 0 0
0.066666667 0 0
0.1 0 0
0.13333333 0 0
0.16666667 0 0
0.2 0 0
0.23333333 0 0
0.26666667 0 0
0.3 0 0
0.33333333 0 0
0.36666667 0 0
0.4 0 0
0.43333333 0 0
0.46666667 0 0
0.5 0 0
0.53333333 0 0
0.56666667 0 0
0.6 0 0
0.63333333 0 0
0.66666667 0 0
0.7 0 0
0.73333333 0 0
0.76666667 0 0
0.8 0 0
0.83333333 0 0
0.86666667 0 0
0.9 0 0
0.93333333 0 0
0.96666667 0 0
1 0 0
0 0.033333333 0
0.033333333 0.033333333 0
0.066666667 0.033333333 0
0.1 0.033333333 0
0.13333333 0.033333333 0
0.16666667 0.033333333 0
0.2 0.033333333 0
0.23333333 0.033333333 0
0.26666667 0.033333333 0
0.3 0.033333333 0
0.33333333 0.033333333 0
0.36666667 0.033333333 0
0.4 0.033333333 0
0.43333333 0.033333333 0
0.46666667 0.033333333 0
0.5 0.033333333 0
0.53333333 0.033333333 0
0.56666667 0.033333333 0
0.6 0.033333333 0
0.63333333 0.033333333 0
0.66666667 0.033333333 0
0.7 0.033333333 0
0.73333333 0.033333333 0
0.76666667 0.033333333 0
0.8 0.033333333 0
0.83333333 0.033333333 0
0.86666667 0.033333333 0
0.9 0.033333333 0
0.93333333 0.033333333 0
0.96666667 0.033333333 0
1 0.033333333 0
0 0.066666667 0
0.033333333 0.066666667 0
0.066666667 0.066666667 0
0.1 0.066666667 0
0.13333333 0.066666667 0
0.16666667 0.066666667 0
0.2 0.066666667 0
0.23333333 0.066666667 0
0.26666667 0.066666667 0
0.3 0.066666667 0
0.33333333 0.066666667 0
0.36666667 0.066666667 0
0.4 0.066666667 0
0.43333333 0.066666667 0
0.46666667 0.066666667 0
0.5 0.066666667 0
0.53333333 0.066666667 0
0.56666667 0.066666667 0
0.6 0.066666667 0
0.63333333 0.066666667 0
0.66666667 0.066666667 0
0.7 0.066666667 0
0.73333333 0.066666667 0
0.76666667 0.066666667 0
0.8 0.066666667 0
0.83333333 0.066666667 0
0.86666667 0.066666667 0
0.9 0.066666667 0
0.93333333 0.066666667 0
0.96666667 0.066666667 0
1 0.066666667 0
0 0.1 0
0.033333333 0.1 0
0.066666667 0.1 0
0.1 0.1 0
0.13333333 0.1 0
0.16666667 0.1 0
0.2 0.1 0
0.23333333 0.1 0
0.26666667 0.1 0
0.3 0.1 0
0.33333333 0.1 0
0.36666667 0.1 0
0.4 0.1 0
0.43333333 0.1 0
0.46666667 0.1 0
0.5 0.1 0
0.53333333 0.1 0
0.56666667 0.1 0
0.6 0.1 0
0.63333333 0.1 0
0.66666667 0.1 0
0.7 0.1 0
0.73333333 0.1 0
0.76666667 0.1 0
0.8 0.1 0
0.83333333 0.1 0
0.86666667 0.1 0
0.9 0.1 0
0.93333333 0.1 0
0.96666667 0.1 0
1 0.1 0
0 0.13333333 0
0.033333333 0.13333333 0
0.066666667 0.13333333 0
0.1 0.13333333 0
0.13333333 0.13333333 0
0.16666667 0.13333333 0
0.2 0.13333333 0
0.23333333 0.13333333 0
0.26666667 0.13333333 0
0.3 0.13333333 0
0.33333333 0.13333333 0
0.36666667 0.13333333 0
0.4 0.13333333 0
0.43333333 0.13333333 0
0.46666667 0.13333333 0
0.5 0.13333333 0
0.53333333 0.13333333 0
0.56666667 0.13333333 0
0.6 0.13333333 0
0.63333333 0.13333333 0
0.66666667 0.13333333 0
0.7 0.13333333 0
0.73333333 0.13333333 0
0.76666667 0.13333333 0
0.8 0.13333333 0
0.83333333 0.13333333 0
0.86666667 0.13333333 0
0.9 0.13333333 0
0.93333333 0.13333333 0
0.96666667 0.13333333 0
1 0.13333333 0
0 0.16666667 0
0.033333333 0.16666667 0
0.066666667 0.16666667 0
0.1 0.16666667 0
0.13333333 0.16666667 0
0.16666667 0.16666667 0
0.2 0.16666667 0
0.23333333 0.16666667 0
0.26666667 0.16666667 0
0.3 0.16666667 0
0.33333333 0.16666667 0
0.36666667 0.16666667 0
0.4 0.16666667 0
0.43333333 0.16666667 0
0.46666667 0.16666667 0
0.5 0.16666667 0
0.53333333 0.16666667 0
0.56666667 0.16666667 0
0.6 0.16666667 0
0.63333333 0.16666667 0
0.66666667 0.16666667 0
0.7 0.16666667 0
0.73333333 0.16666667 0
0.76666667 0.16666667 0
0.8 0.16666667 0
0.83333333 0.16666667 0
0.86666667 0.16666667 0
0.9 0.16666667 0
0.93333333 0.16666667 0
0.96666667 0.16666667 0
1 0.16666667 0
0 0.2 0
0.033333333 0.2 0
0.066666667 0.2 0
0.1 0.2 0
0.13333333 0.2 0
0.16666667 0.2 0
0.2 0.2 0
0.23333333 0.2 0
0.26666667 0.2 0
0.3 0.2 0
0.33333333 0.2 0
0.36666667 0.2 0
0.4 0.2 0
0.43333333 0.2 0
0.46666667 0.2 0
0.5 0.2 0
0.53333333 0.2 0
0.56666667 0.2 0
0.6 0.2 0
0.63333333 0.2 0
0.66666667 0.2 0
0.7 0.2 0
0.73333333 0.2 0
0.76666667 0.2 0
0.8 0.2 0
0.83333333 0.2 0
0.86666667 0.2 0
0.9 0.2 0
0.93333333 0.2 0
0.96666667 0.2 0
1 0.2 0
0 0.23333333 0
0.033333333 0.23333333 0
0.066666667 0.23333333 0
0.1 0.23333333 0
0.13333333 0.23333333 0
0.16666667 0.23333333 0
0.2 0.23333333 0
0.23333333 0.23333333 0
0.26666667 0.23333333 0
0.3 0.23333333 0
0.33333333 0.23333333 0
0.36666667 0.23333333 0
0.4 0.23333333 0
0.43333333 0.23333333 0
0.46666667 0.23333333 0
0.5 0.23333333 0
0.53333333 0.23333333 0
0.56666667 0.23333333 0
0.6 0.23333333 0
0.63333333 0.23333333 0
0.66666667 0.23333333 0
0.7 0.23333333 0
0.73333333 0.23333333 0
0.76666667 0.23333333 0
0.8 0.23333333 0
0.83333333 0.23333333 0
0.86666667 0.23333333 0
0.9 0.23333333 0
0.93333333 0.23333333 0
0.96666667 0.23333333 0
1 0.23333333 0
0 0.26666667 0
0.033333333 0.26666667 0
0.066666667 0.26666667 0
0.1 0.26666667 0
0.13333333 0.26666667 0
0.16666667 0.26666667 0
0.2 0.26666667 0
0.23333333 0.26666667 0
0.26666667 0.26666667 0
0.3 0.26666667 0
0.33333333 0.26666667 0
0.36666667 0.26666667 0
0.4 0.26666667 0
0.43333333 0.26666667 0
0.46666667 0.26666667 0
0.5 0.26666667 0
0.53333333 0.26666667 0
0.56666667 0.26666667 0
0.6 0.26666667 0
0.63333333 0.26666667 0
0.66666667 0.26666667 0
0.7 0.26666667 0
0.73333333 0.26666667 0
0.76666667 0.26666667 0
0.8 0.26666667 0
0.83333333 0.26666667 0
0.86666667 0.26666667 0
0.9 0.26666667 0
0.93333333 0.26666667 0
0.96666667 0.26666667 0
1 0.26666667 0
0 0.3 0
0.033333333 0.3 0
0.066666667 0.3 0
0.1 0.3 0
0.13333333 0.3 0
0.16666667 0.3 0
0.2 0.3 0
0.23333333 0.3 0
0.26666667 0.3 0
0.3 0.3 0
0.33333333 0.3 0
0.36666667 0.3 0
0.4 0.3 0
0.43333333 0.3 0
0.46666667 0.3 0
0.5 0.3 0
0.53333333 0.3 0
0.56666667 0.3 0
0.6 0.3 0
0.63333333 0.3 0
0.66666667 0.3 0
0.7 0.3 0
0.73333333 0.3 0
0.76666667 0.3 0
0.8 0.3 0
0.83333333 0.3 0
0.86666667 0.3 0
0.9 0.3 0
0.93333333 0.3 0
0.96666667 0.3 0
1 0.3 0
0 0.33333333 0
0.033333333 0.33333333 0
0.066666667 0.33333333 0
0.1 0.33333333 0
0.13333333 0.33333333 0
0.16666667 0.33333333 0
0.2 0.33333333 0
0.23333333 0.33333333 0
0.26666667 0.33333333 0
0.3 0.33333333 0
0.33333333 0.33333333 0
0.36666667 0.33333333 0
0.4 0.33333333 0
0.43333333 0.33333333 0
0.46666667 0.33333333 0
0.5 0.33333333 0
0.53333333 0.33333333 0
0.56666667 0.33333333 0
0.6 0.33333333 0
0.63333333 0.33333333 0
0.66666667 0.33333333 0
0.7 0.33333333 0
0.73333333 0.33333333 0
0.76666667 0.33333333 0
0.8 0.33333333 0
0.83333333 0.33333333 0
0.86666667 0.33333333 0
0.9 0.33333333 0
0.93333333 0.33333333 0
0.96666667 0.33333333 0
1 0.33333333 0
0 0.36666667 0
0.033333333 0.36666667 0
0.066666667 0.36666667 0
0.1 0.36666667 0
0.13333333 0.36666667 0
0.16666667 0.36666667 0
0.2 0.36666667 0
0.23333333 0.36666667 0
0.26666667 0.36666667 0
0.3 0.36666667 0
0.33333333 0.36666667 0
0.36666667 0.36666667 0
0.4 0.36666667 0
0.43333333 0.36666667 0
0.46666667 0.36666667 0
0.5 0.36666667 0
0.53333333 0.36666667 0
0.56666667 0.36666667 0
0.6 0.36666667 0
0.63333333 0.36666667 0
0.66666667 0.36666667 0
0.7 0.36666667 0
0.73333333 0.36666667 0
0.76666667 0.36666667 0
0.8 0.36666667 0
0.83333333 0.36666667 0
0.86666667 0.36666667 0
0.9 0.36666667 0
0.93333333 0.36666667 0
0.96666667 0.36666667 0
1 0.36666667 0
0 0.4 0
0.033333333 0.4 0
0.066666667 0.4 0
0.1 0.4 0
0.13333333 0.4 0
0.16666667 0.4 0
0.2 0.4 0
0.23333333 0.4 0
0.26666667 0.4 0
0.3 0.4 0
0.33333333 0.4 0
0.36666667 0.4 0
0.4 0.4 0
0.43333333 0.4 0
0.46666667 0.4 0
0.5 0.4 0
0.53333333 0.4 0
0.56666667 0.4 0
0.6 0.4 0
0.63333333 0.4 0
0.66666667 0.4 0
0.7 0.4 0
0.73333333 0.4 0
0.76666667 0.4 0
0.8 0.4 0
0.83333333 0.4 0
0.86666667 0.4 0
0.9 0.4 0
0.93333333 0.4 0
0.96666667 0.4 0
1 0.4 0
0 0.43333333 0
0.033333333 0.43333333 0
0.066666667 0.43333333 0
0.1 0.43333333 0
0.13333333 0.43333333 0
0.16666667 0.43333333 0
0.2 0.43333333 0
0.23333333 0.43333333 0
0.26666667 0.43333333 0
0.3 0.43333333 0
0.33333333 0.43333333 0
0.36666667 0.43333333 0
0.4 0.43333333 0
0.43333333 0.43333333 0
0.46666667 0.43333333 0
0.5 0.43333333 0
0.53333333 0.43333333 0
0.56666667 0.43333333 0
0.6 0.43333333 0
0.63333333 0.43333333 0
0.66666667 0.43333333 0
0.7 0.43333333 0
0.73333333 0.43333333 0
0.76666667 0.43333333 0
0.8 0.43333333 0
0.83333333 0.43333333 0
0.86666667 0.43333333 0
0.9 0.43333333 0
0.93333333 0.43333333 0
0.96666667 0.43333333 0
1 0.43333333 0
0 0.46666667 0
0.033333333 0.46666667 0
0.066666667 0.46666667 0
0.1 0.46666667 0
0.13333333 0.46666667 0
0.16666667 0.46666667 0
0.2 0.46666667 0
0.23333333 0.46666667 0
0.26666667 0.46666667 0
0.3 0.46666667 0
0.33333333 0.46666667 0
0.36666667 0.46666667 0
0.4 0.46666667 0
0.43333333 0.46666667 0
0.46666667 0.46666667 0
0.5 0.46666667 0
0.53333333 0.46666667 0
0.56666667 0.46666667 0
0.6 0.46666667 0
0.63333333 0.46666667 0
0.66666667 0.46666667 0
0.7 0.46666667 0
0.73333333 0.46666667 0
0.76666667 0.46666667 0
0.8 0.46666667 0
0.83333333 0.46666667 0
0.86666667 0.46666667 0
0.9 0.46666667 0
0.93333333 0.46666667 0
0.96666667 0.46666667 0
1 0.46666667 0
0 0.5 0
0.033333333 0.5 0
0.066666667 0.5 0
0.1 0.5 0
0.13333333 0.5 0
0.16666667 0.5 0
0.2 0.5 0
0.23333333 0.5 0
0.26666667 0.5 0
0.3 0.5 0
0.33333333 0.5 0
0.36666667 0.5 0
0.4 0.5 0
0.43333333 0.5 0
0.46666667 0.5 0
0.5 0.5 0
0.53333333 0.5 0
0.56666667 0.5 0
0.6 0.5 0
0.63333333 0.5 0
0.66666667 0.5 0
0.7 0.5 0
0.73333333 0.5 0
0.76666667 0.5 0
0.8 0.5 0
0.83333333 0.5 0
0.86666667 0.5 0
0.9 0.5 0
0.93333333 0.5 0
0.96666667 0.5 0
1 0.5 0
0 0.53333333 0
0.033333333 0.53333333 0
0.066666667 0.53333333 0
0.1 0.53333333 0
0.13333333 0.53333333 0
0.16666667 0.53333333 0
0.2 0.53333333 0
0.23333333 0.53333333 0
0.26666667 0.53333333 0
0.3 0.53333333 0
0.33333333 0.53333333 0
0.36666667 0.53333333 0
0.4 0.53333333 0
0.43333333 0.53333333 0
0.46666667 0.53333333 0
0.5 0.53333333 0
0.53333333 0.53333333 0
0.56666667 0.53333333 0
0.6 0.53333333 0
0.63333333 0.53333333 0
0.66666667 0.53333333 0
0.7 0.53333333 0
0.73333333 0.53333333 0
0.76666667 0.53333333 0
0.8 0.53333333 0
[...]
CELL_DATA 1920
Scalars  Label int 1
LOOKUP_TABLE FreeFempp_table
0
0
0
0
0
0
0
0
0
0
0
0
0
0
0
0
0
0
0
0
0
0
0
0
0
0
0
0
0
0
0
0
0
0
0
0
0
0
0
0
0
0
0
0
0
0
0
0
0
0
0
0
0
0
0
0
0
0
0
0
0
0
0
0
0
0
0
0
0
0
0
0
0
0
0
0
0
0
0
0
0
0
0
0
0
0
0
0
0
0
0
0
0
0
0
0
0
0
0
0
0
0
0
0
0
0
0
0
0
0
0
0
0
0
0
0
0
0
0
0
0
0
0
0
0
0
0
0
0
0
0
0
0
0
0
0
0
0
0
0
0
0
0
0
0
0
0
0
0
0
0
0
0
0
0
0
0
0
0
0
0
0
0
0
0
0
0
0
0
0
0
0
0
0
0
0
0
0
0
0
0
0
0
0
0
0
0
0
0
0
0
0
0
0
0
0
0
0
0
0
0
0
0
0
0
0
0
0
0
0
0
0
0
0
0
0
0
0
0
0
0
0
0
0
0
0
0
0
0
0
0
0
0
0
0
0
0
0
0
0
0
0
0
0
0
0
0
0
0
0
0
0
0
0
0
0
0
0
0
0
0
0
0
0
0
0
0
0
0
0
0
0
0
0
0
0
0
0
0
0
0
0
0
0
0
0
0
0
0
0
0
0
0
0
0
0
0
0
0
0
0
0
0
0
0
0
0
0
0
0
0
0
0
0
0
0
0
0
0
0
0
0
0
0
0
0
0
0
0
0
0
0
0
0
0
0
0
0
0
0
0
0
0
0
0
0
0
0
0
0
0
0
0
0
0
0
0
0
0
0
0
0
0
0
0
0
0
0
0
0
0
0
0
0
0
0
0
0
0
0
0
0
0
0
0
0
0
0
0
0
0
0
0
0
0
0
0
0
0
0
0
0
0
0
0
0
0
0
0
0
0
0
0
0
0
0
0
0
0
0
0
0
0
0
0
0
0
0
0
0
0
0
0
0
0
0
0
0
0
0
0
0
0
0
0
0
0
0
0
0
0
0
0
0
0
0
0
0
0
0
0
0
0
0
0
0
0
0
0
0
0
0
0
0
0
0
0
0
0
0
0
0
0
0
0
0
0
0
0
0
0
0
0
0
0
0
0
0
0
0
0
0
0
0
0
0
0
0
0
0
0
0
0
0
0
0
0
0
0
0
0
0
0
0
0
0
0
0
0
0
0
0
0
0
0
0
0
0
0
0
0
0
0
0
0
0
0
0
0
0
0
0
0
0
0
0
0
0
0
0
0
0
0
0
0
0
0
0
0
0
0
0
0
0
0
0
0
0
0
0
0
0
0
0
0
0
0
0
0
0
0
0
0
0
0
0
0
0
0
0
0
0
0
0
0
0
0
0
0
0
0
0
0
0
0
0
0
0
0
0
0
0
0
0
0
0
0
0
0
0
0
0
0
0
0
0
0
0
0
0
0
0
0
0
0
0
0
0
0
0
0
0
0
0
0
0
0
0
0
0
0
0
0
0
0
0
0
0
0
0
0
0
0
0
0
0
0
0
0
0
0
0
0
0
0
0
0
0
0
0
0
0
0
0
0
0
0
0
0
0
0
0
0
0
0
0
0
0
0
0
0
0
0
0
0
0
0
0
0
0
0
0
0
0
0
0
0
0
0
0
0
0
0
0
0
0
0
0
0
0
0
0
0
0
0
0
0
0
0
0
0
0
0
0
0
0
0
0
0
0
0
0
0
0
0
0
0
0
0
0
0
0
0
0
0
0
0
0
0
0
0
0
0
0
0
0
0
0
0
0
0
0
0
0
0
0
0
0
0
0
0
0
0
0
0
0
0
0
0
0
0
0
0
0
0
0
0
0
0
0
0
0
0
0
0
0
0
0
0
0
0
0
0
0
0
0
0
0
0
0
0
0
0
0
0
0
0
0
0
0
0
0
0
0
0
0
0
0
0
0
0
0
0
0
0
0
0
0
0
0
0
0
0
0
0
0
0
0
0
0
0
0
0
0
0
0
0
0
0
0
0
0
0
0
0
0
0
0
0
0
0
0
0
0
0
0
0
0
0
0
0
0
0
0
0
0
0
0
0
0
0
0
0
0
0
0
0
0
0
0
0
0
0
0
0
0
0
0
0
0
0
0
0
0
0
0
0
0
0
0
0
0
0
0
0
0
0
0
0
0
0
0
0
0
0
0
0
0
0
0
0
0
0
0
0
0
0
0
0
0
0
0
0
0
0
0
0
0
0
0
0
0
0
0
0
0
0
0
0
0
0
0
0
0
0
0
0
0
0
0
0
0
0
0
0
0
0
0
0
0
0
0
0
0
0
0
0
0
0
0
0
0
0
0
0
0
0
0
0
0
0
0
0
0
0
0
0
0
0
0
0
0
0
0
0
0
0
0
0
0
0
0
0
0
0
0
0
0
0
0
0
0
0
0
0
0
0
0
0
0
0
0
0
0
0
0
0
0
0
0
0
0
0
0
0
0
0
0
0
0
0
0
0
0
0
0
0
0
0
0
0
0
0
0
0
0
0
0
0
0
0
0
0
0
0
0
0
0
0
0
0
0
0
0
0
0
0
0
0
0
0
0
0
0
0
0
0
0
0
0
0
0
0
0
0
0
0
0
0
0
0
0
0
0
0
0
0
0
0
0
0
0
0
0
0
0
0
0
0
0
0
0
0
0
0
0
0
0
0
0
0
0
0
0
0
0
0
0
0
0
0
0
0
0
0
0
0
0
0
0
0
0
0
0
0
0
0
0
0
0
0
0
0
0
0
0
0
0
0
0
0
0
0
0
0
0
0
0
0
0
0
0
0
0
0
0
0
0
0
0
0
0
0
0
0
0
0
0
0
0
0
0
0
0
0
0
0
0
0
0
0
0
0
0
0
0
0
0
0
0
0
0
0
0
0
0
0
0
0
0
0
0
0
0
0
0
0
0
0
0
0
0
0
0
0
0
0
0
0
0
0
0
0
0
0
0
0
0
0
0
0
0
0
0
0
0
0
0
0
0
0
0
0
0
0
0
0
0
0
0
0
0
0
0
0
0
0
0
0
0
0
0
0
0
0
0
0
0
0
0
0
0
0
0
0
0
0
0
0
0
0
0
0
0
0
0
0
0
0
0
0
0
0
0
0
0
0
0
0
0
0
0
0
0
0
0
0
0
0
0
0
0
0
0
0
0
0
0
0
0
0
0
0
0
0
0
0
0
0
0
0
0
0
0
0
0
0
0
0
0
0
0
0
0
0
0
0
0
0
0
0
0
0
0
0
0
0
0
0
0
0
0
0
0
0
0
0
0
0
0
0
0
0
0
0
0
0
0
0
0
0
0
0
0
0
0
0
0
0
0
0
0
0
0
0
0
0
0
0
0
0
0
0
0
0
0
0
0
0
0
0
0
0
0
0
0
0
0
0
0
0
0
0
0
0
0
0
0
0
0
0
0
0
0
0
0
0
0
0
0
0
0
0
0
0
0
0
0
0
0
0
0
0
0
0
0
0
0
0
0
0
0
0
0
0
0
0
0
0
0
0
0
0
0
0
0
0
0
0
0
0
0
0
0
0
0
0
0
0
0
0
0
0
0
0
0
0
0
0
0
0
0
0
0
0
0
0
0
0
0
0
0
0
0
0
0
0
0
0
0
0
0
0
0
0
0
0
0
0
0
0
0
0
0
0
0
0
0
0
0
0
0
0
0
0
0
0
0
0
0
0
0
0
0
0
0
0
0
0
0
0
0
0
0
0
0
0
0
0
0
0
0
0
0
0
0
0
0
0
0
0
0
0
0
0
0
0
0
0
0
0
0
0
0
0
0
0
0
0
0
0
0
0
0
0
0
0
0
0
0
0
0
0
0
0
0
0
0
0
0
0
0
0
0
0
0
0
0
0
0
0
0
0
0
0
0
0
0
0
0
0
0
0
0
0
0
0
0
0
0
0
0
0
0
0
0
0
0
0
0
0
0
0
0
0
0
0
0
0
0
0
0
0
0
0
0
0
0
0
0
0
0
0
0
0
0
0
0
0
0
0
0
0
0
0
0
0
0
0
0
0
0
0
0
0
0
0
0
0
0
1
1
1
1
1
1
1
1
1
1
1
1
1
1
1
1
1
1
1
1
1
1
1
1
1
1
1
1
1
1
2
2
2
2
2
2
2
2
2
2
2
2
2
2
2
2
2
2
2
2
2
2
2
2
2
2
2
2
2
2
3
3
3
3
3
3
3
3
3
3
3
3
3
3
3
3
3
3
3
3
3
3
3
3
3
3
3
3
3
3
4
4
4
4
4
4
4
4
4
4
4
4
4
4
4
4
4
4
4
4
4
4
4
4
4
4
4
4
4
4

LOOKUP_TABLE FreeFempp_table 5
1.00000000 0.00000000 0.00000000 1.00000000
1.00000000 1.00000000 0.00000000 1.00000000
1.00000000 0.00000000 1.00000000 1.00000000
0.00000000 1.00000000 0.00000000 1.00000000
0.00000000 1.00000000 1.00000000 1.00000000

POINT_DATA 961
FIELD FieldData 1
Density 1 961 float
4.05056804e-01 4.42860782e-01 4.51086700e-01 4.52550530e-01 4.52772439e-01 4.52975094e-01 4.49195683e-01 3.50115389e-01 7.48495236e-02 4.16255444e-02 2.01846838e-01 4.06012565e-01 4.57892448e-01 5.13357937e-01 5.95163703e-01 6.12248540e-01 5.81269741e-01 5.90074003e-01 5.79088748e-01 5.70955217e-01 5.62534094e-01 5.55106938e-01 5.48305154e-01 5.41694224e-01 5.34249365e-01 5.25403023e-01 5.20677924e-01 5.18306077e-01 5.16062438e-01 5.17048240e-01 5.22931933e-01 1.53033316e-01 3.07949245e-01 3.51134032e-01 3.54424566e-01 3.54509801e-01 3.54151219e-01 3.49686980e-01 2.94790119e-01 7.17767775e-02 2.14945525e-02 1.30776301e-01 3.66845131e-01 4.25981998e-01 4.71793622e-01 5.86686432e-01 5.98651826e-01 5.00037789e-01 5.13027191e-01 5.29396057e-01 5.56947052e-01 5.58423102e-01 5.54484069e-01 5.50834060e-01 5.47730565e-01 5.40496469e-01 5.22371590e-01 5.12000501e-01 5.06122351e-01 5.02422631e-01 5.03350258e-01 5.14159799e-01 5.05456664e-02 4.53114547e-02 6.51650503e-02 6.39788210e-02 6.36000559e-02 6.34600073e-02 6.27889931e-02 5.67404293e-02 1.78806782e-02 5.50445030e-03 6.12582229e-02 2.89961815e-01 3.48561972e-01 3.61337036e-01 4.78810310e-01 5.77398121e-01 2.30391875e-01 1.31977543e-01 1.61097914e-01 3.38992894e-01 4.12416905e-01 4.30534631e-01 4.38727111e-01 4.46863174e-01 4.55883086e-01 4.70214367e-01 4.94210333e-01 4.87415493e-01 4.81632978e-01 4.83517706e-01 5.00258029e-01 2.97461808e-01 1.13267854e-01 6.68587238e-02 6.29736558e-02 6.29969388e-02 6.33858144e-02 6.37014061e-02 6.36636019e-02 6.28767312e-02 6.76828548e-02 5.17314747e-02 5.20689636e-02 6.83707818e-02 7.19076321e-02 1.60033435e-01 5.11777937e-01 3.90271902e-01 2.06133455e-01 1.02835596e-01 6.34519756e-02 8.03608447e-02 8.14019889e-02 8.23188424e-02 8.63002315e-02 9.30602103e-02 1.35431617e-01 3.73536050e-01 4.51904982e-01 4.55123633e-01 4.60488677e-01 4.84197408e-01 4.36130315e-01 3.72336924e-01 3.37593347e-01 3.40284199e-01 3.41718972e-01 3.43722641e-01 3.45882863e-01 3.47773641e-01 3.49153787e-01 3.48333031e-01 3.06504339e-01 1.11581981e-01 6.91186413e-02 6.73677921e-02 5.34377359e-02 9.35596749e-02 1.88068584e-01 5.63167334e-01 4.94990438e-01 2.03304157e-01 1.26370460e-01 1.20407827e-01 1.11453637e-01 9.99675393e-02 6.68995678e-02 2.57309694e-02 1.00624874e-01 3.48684669e-01 4.25187498e-01 4.40439343e-01 4.69599009e-01 4.54864293e-01 4.20469403e-01 4.10750061e-01 4.13583487e-01 4.13817137e-01 4.15063858e-01 4.16836917e-01 4.18443263e-01 4.19682086e-01 4.20249075e-01 4.16030705e-01 3.74596596e-01 3.52447957e-01 3.50343347e-01 3.05036098e-01 1.16152540e-01 5.74743748e-02 1.10643528e-01 2.09443927e-01 5.21435320e-01 5.61801076e-01 5.94116747e-01 5.84873021e-01 5.44467390e-01 4.45962250e-01 1.99583873e-01 6.95801377e-02 1.02014519e-01 3.35947990e-01 4.22627538e-01 4.59821641e-01 4.65062529e-01 4.34791893e-01 4.26951855e-01 4.28258568e-01 4.27697480e-01 4.27678704e-01 4.28331554e-01 4.29063410e-01 4.29670930e-01 4.30073559e-01 4.29847568e-01 4.27547872e-01 4.28733528e-01 4.28863078e-01 4.21799421e-01 3.76627207e-01 3.10132504e-01 1.18845455e-01 6.10258095e-02 1.42402887e-01 4.30749506e-01 5.42452693e-01 5.85350513e-01 6.03941858e-01 6.01733148e-01 5.77396333e-01 3.58298421e-01 1.14870422e-01 9.76053849e-02 3.39782834e-01 4.43595946e-01 4.74440128e-01 4.47946191e-01 4.41503108e-01 4.42857802e-01 4.42722291e-01 4.42539722e-01 4.42817569e-01 4.43265468e-01 4.43666995e-01 4.43890929e-01 4.43797469e-01 4.43317235e-01 4.42982852e-01 4.42042500e-01 4.40054983e-01 4.35771823e-01 4.30021256e-01 3.83842140e-01 3.14084738e-01 1.05430394e-01 9.49026644e-02 2.37650558e-01 2.84715176e-01 2.67301857e-01 2.27555081e-01 2.55575597e-01 4.88450795e-01 4.20102715e-01 6.98100924e-02 1.23284176e-01 3.61623734e-01 4.82571840e-01 4.59707946e-01 4.54424381e-01 4.55589533e-01 4.55967963e-01 4.56366926e-01 4.56971496e-01 4.57630336e-01 4.58171546e-01 4.58478153e-01 4.58503872e-01 4.58367556e-01 4.58293796e-01 4.58131820e-01 4.57558990e-01 4.56421107e-01 4.54771161e-01 4.49860305e-01 4.40034539e-01 3.52998704e-01 1.04812860e-01 4.41361107e-02 5.70947453e-02 6.14443198e-02 6.04990348e-02 7.10160583e-02 2.50247627e-01 6.02378845e-01 1.30851910e-01 8.49784687e-02 3.16971272e-01 4.89489883e-01 4.69846129e-01 4.65683728e-01 4.66938198e-01 4.67756301e-01 4.68765229e-01 4.69872683e-01 4.70909625e-01 4.71740752e-01 4.72304881e-01 4.72648501e-01 4.72972125e-01 4.73500818e-01 4.74220335e-01 4.74966735e-01 4.75759566e-01 4.76743728e-01 4.77682263e-01 4.77795154e-01 4.69018131e-01 3.81990880e-01 1.15704499e-01 2.21280679e-02 1.93923265e-02 2.97259018e-02 4.89496812e-02 1.59605801e-01 5.64956903e-01 2.20285684e-01 6.17048666e-02 2.68122822e-01 4.95418817e-01 4.78450805e-01 4.75099534e-01 4.76494104e-01 4.77620572e-01 4.78979439e-01 4.80389118e-01 4.81668919e-01 4.82699811e-01 4.83461738e-01 4.84058142e-01 4.84716058e-01 4.85665143e-01 4.86991346e-01 4.88725573e-01 4.91051584e-01 4.94272977e-01 4.98670787e-01 5.04496515e-01 5.11923850e-01 5.16652405e-01 4.41766918e-01 1.83716163e-01 1.38369814e-01 1.38393253e-01 1.47522584e-01 1.97150365e-01 4.89620179e-01 5.83958685e-01 9.87394229e-02 5.64782843e-02 4.99728352e-01 4.84688282e-01 4.81771410e-01 4.83157158e-01 4.84370649e-01 4.85788226e-01 4.87204522e-01 4.88445342e-01 4.89403546e-01 4.90076452e-01 4.90581155e-01 4.91129786e-01 4.91933584e-01 4.93124217e-01 4.94820654e-01 4.97239649e-01 5.00675797e-01 5.05467534e-01 5.12104928e-01 5.21626353e-01 5.36633015e-01 5.57741225e-01 5.45410514e-01 5.52826047e-01 5.49507260e-01 5.34445643e-01 5.08271933e-01 5.74462414e-01 6.48053825e-01 1.41466543e-01 1.08086774e-02 5.01135349e-01 4.87008661e-01 4.84259367e-01 4.85499024e-01 4.86642480e-01 4.87952799e-01 4.89193290e-01 4.90170956e-01 4.90780532e-01 4.91023570e-01 4.91006017e-01 4.90901470e-01 4.90877241e-01 4.91046727e-01 4.91504878e-01 4.92373407e-01 4.93775696e-01 4.95812774e-01 4.98621136e-01 5.02543926e-01 5.08474648e-01 5.18177211e-01 5.31602263e-01 5.53324699e-01 5.52559435e-01 5.32334387e-01 5.25705099e-01 6.12705827e-01 6.50922954e-01 1.36366621e-01 4.74049617e-03 4.98606235e-01 4.84042287e-01 4.81390983e-01 4.82566208e-01 4.83650386e-01 4.84896421e-01 4.86004204e-01 4.86703485e-01 4.86865759e-01 4.86494333e-01 4.85684961e-01 4.84576315e-01 4.83290792e-01 4.81902689e-01 4.80454057e-01 4.78972793e-01 4.77459520e-01 4.75888103e-01 4.74263847e-01 4.72732991e-01 4.71677065e-01 4.71657813e-01 4.72794116e-01 4.75624919e-01 4.77102965e-01 4.82221782e-01 5.18870234e-01 6.29245937e-01 6.34052157e-01 1.32574096e-01 5.86727820e-03 4.91548061e-01 4.74786609e-01 4.72059280e-01 4.73700941e-01 4.75222111e-01 4.76865560e-01 4.78235602e-01 4.78948325e-01 4.78845805e-01 4.77953374e-01 4.76385474e-01 4.74276811e-01 4.71733183e-01 4.68813509e-01 4.65544909e-01 4.61944312e-01 4.58036125e-01 4.53894615e-01 4.49731022e-01 4.45996195e-01 4.43401396e-01 4.42732692e-01 4.44419861e-01 4.48725104e-01 4.57957715e-01 4.81903434e-01 5.39982378e-01 6.38159811e-01 6.00386441e-01 1.25185177e-01 6.73671486e-03 4.79619384e-01 4.58774745e-01 4.55565095e-01 4.58505988e-01 4.61542398e-01 4.64642256e-01 4.67129230e-01 4.68486100e-01 4.68576461e-01 4.67513502e-01 4.65491682e-01 4.62693363e-01 4.59249914e-01 4.55241948e-01 4.50726897e-01 4.45777774e-01 4.40531015e-01 4.35258567e-01 4.30463374e-01 4.26947802e-01 4.25758749e-01 4.27952409e-01 4.34344143e-01 4.45992231e-01 4.66312349e-01 5.03888607e-01 5.68343878e-01 6.34022415e-01 5.47701120e-01 1.14368133e-01 7.89742917e-03 4.62674618e-01 4.36051756e-01 4.31894928e-01 4.37280923e-01 4.43416566e-01 4.49499607e-01 4.54276919e-01 4.57092315e-01 4.57948774e-01 4.57164556e-01 4.55101788e-01 4.52049881e-01 4.48204517e-01 4.43693757e-01 4.38626587e-01 4.33150560e-01 4.27520514e-01 4.22184914e-01 4.17875409e-01 4.15641785e-01 4.16752607e-01 4.22471136e-01 4.33963150e-01 4.52963501e-01 4.83405083e-01 5.30781925e-01 5.91659665e-01 6.15205169e-01 4.76921290e-01 1.00554228e-01 9.41886939e-03 4.40604150e-01 4.06776637e-01 4.01564032e-01 4.11092430e-01 4.22472119e-01 4.33302701e-01 4.41499740e-01 4.46418285e-01 4.48436886e-01 4.48247612e-01 4.46471989e-01 4.43549573e-01 4.39757854e-01 4.35277581e-01 4.30266708e-01 4.24935073e-01 4.19624984e-01 4.14904416e-01 4.11655009e-01 4.11100030e-01 4.14711475e-01 4.24034059e-01 4.40627426e-01 4.66569990e-01 5.05220890e-01 5.57618499e-01 6.04663491e-01 5.74392974e-01 3.76918465e-01 8.17408785e-02 1.10602956e-02 4.12236363e-01 3.69844645e-01 3.64561498e-01 3.81300986e-01 4.00915295e-01 4.18318599e-01 4.30636048e-01 4.37751353e-01 4.40868735e-01 4.41274941e-01 4.39911485e-01 4.37362045e-01 4.33965236e-01 4.29935783e-01 4.25465137e-01 4.20806646e-01 4.16360408e-01 4.12768513e-01 4.11007911e-01 4.12430942e-01 4.18717653e-01 4.31766152e-01 4.53529209e-01 4.86088574e-01 5.31119227e-01 5.81822813e-01 5.97445488e-01 4.98489738e-01 2.43824035e-01 5.59897907e-02 1.35007929e-02 3.76207143e-01 3.25241387e-01 3.21282297e-01 3.49606574e-01 3.81299645e-01 4.06824082e-01 4.23130989e-01 4.31735456e-01 4.35333550e-01 4.36008751e-01 4.34997171e-01 4.32946354e-01 4.30190504e-01 4.26939934e-01 4.23401058e-01 4.19862092e-01 4.16772455e-01 4.14833754e-01 4.15093571e-01 4.18997198e-01 4.28406358e-01 4.45574284e-01 4.72714573e-01 5.11217475e-01 5.58906555e-01 5.93618929e-01 5.53432047e-01 3.75772834e-01 1.44187659e-01 4.00303714e-02 2.15988532e-02 3.30266982e-01 2.74810225e-01 2.74894238e-01 3.19309771e-01 3.66703480e-01 4.00711983e-01 4.19571519e-01 4.28136498e-01 4.31223452e-01 4.31702763e-01 4.30930525e-01 4.29468602e-01 4.27556008e-01 4.25354421e-01 4.23072577e-01 4.21041667e-01 4.19782102e-01 4.20078397e-01 4.23053384e-01 4.30213273e-01 4.43560213e-01 4.65649515e-01 4.98418808e-01 5.40678620e-01 5.80786765e-01 5.75476587e-01 4.59397852e-01 2.36798793e-01 8.66945609e-02 4.23655882e-02 3.99558246e-02 2.71919042e-01 2.21491277e-01 2.31014490e-01 2.95610964e-01 3.60435069e-01 4.00872141e-01 4.19325083e-01 4.25852656e-01 4.27476257e-01 4.27436948e-01 4.26889360e-01 4.26143438e-01 4.25268531e-01 4.24347103e-01 4.23583180e-01 4.23364639e-01 4.24317837e-01 4.27361101e-01 4.33731556e-01 4.44970608e-01 4.63139743e-01 4.90918279e-01 5.28606951e-01 5.68340182e-01 5.82953751e-01 5.16056716e-01 3.30931902e-01 1.48455411e-01 6.44527897e-02 5.89530766e-02 7.62977302e-02 2.05541745e-01 1.70424804e-01 1.95876583e-01 2.84156978e-01 3.64620328e-01 4.06348020e-01 4.20527101e-01 4.23303574e-01 4.22994971e-01 4.22441989e-01 4.22258466e-01 4.22400683e-01 4.22748357e-01 4.23296392e-01 4.24229115e-01 4.25974935e-01 4.29263622e-01 4.35177505e-01 4.45151269e-01 4.60824519e-01 4.84045208e-01 5.16929805e-01 5.56494415e-01 5.84493220e-01 5.61082840e-01 4.33489621e-01 2.40201473e-01 1.13493860e-01 7.54036680e-02 9.98622999e-02 1.51824161e-01 1.41625345e-01 1.27373144e-01 1.74673587e-01 2.89013356e-01 3.78373623e-01 4.14070487e-01 4.20698017e-01 4.19088125e-01 4.17057425e-01 4.16290253e-01 4.16689396e-01 4.17877942e-01 4.19591457e-01 4.21751112e-01 4.24492270e-01 4.28226203e-01 4.33732480e-01 4.42252517e-01 4.55510616e-01 4.75374460e-01 5.03060937e-01 5.38510084e-01 5.74416101e-01 5.85823417e-01 5.31112790e-01 3.84236693e-01 2.19465524e-01 1.34995714e-01 1.26377344e-01 1.79286212e-01 2.67149270e-01 8.93192664e-02 9.58251357e-02 1.71078905e-01 3.10561180e-01 3.97015512e-01 4.19898838e-01 4.17832851e-01 4.12540853e-01 4.09498870e-01 4.08903599e-01 4.10038352e-01 4.12332773e-01 4.15477693e-01 4.19357896e-01 4.24032360e-01 4.29814756e-01 4.37430561e-01 4.48175520e-01 4.63930815e-01 4.86610830e-01 5.16471028e-01 5.50422847e-01 5.78231514e-01 5.74557602e-01 5.12910724e-01 3.87363434e-01 2.67466724e-01 2.18625605e-01 2.29590863e-01 2.87546873e-01 3.68575871e-01 5.36142588e-02 7.67940357e-02 1.87050700e-01 3.43631476e-01 4.13772464e-01 4.20509309e-01 4.11239505e-01 4.03868675e-01 4.00626332e-01 4.00440097e-01 4.02269930e-01 4.05561477e-01 4.10088897e-01 4.15761054e-01 4.22551513e-01 4.30587739e-01 4.40359980e-01 4.52930421e-01 4.69900310e-01 4.92707789e-01 5.20757854e-01 5.49362302e-01 5.69087982e-01 5.61689436e-01 5.11497438e-01 4.27634537e-01 3.58683676e-01 3.36458087e-01 3.49446207e-01 3.84876668e-01 4.35758412e-01 3.40454094e-02 7.03591332e-02 2.22123921e-01 3.78045171e-01 4.22867596e-01 4.14858282e-01 4.01642382e-01 3.93935710e-01 3.91023844e-01 3.91167969e-01 3.93385768e-01 3.97354126e-01 4.03052539e-01 4.10484165e-01 4.19560343e-01 4.30163294e-01 4.42351162e-01 4.56591219e-01 4.73771185e-01 4.94602889e-01 5.18140793e-01 5.40016949e-01 5.52622378e-01 5.47127426e-01 5.17877996e-01 4.72645521e-01 4.37905431e-01 4.26471710e-01 4.30527687e-01 4.46363151e-01 4.74390447e-01 2.49030013e-02 7.32008591e-02 2.69709885e-01 4.03870463e-01 4.21813577e-01 4.04573351e-01 3.90984952e-01 3.84114116e-01 3.81486624e-01 3.81447047e-01 3.83430213e-01 3.87497872e-01 3.93905401e-01 4.02807295e-01 4.14116204e-01 4.27511364e-01 4.42572117e-01 4.58976805e-01 4.76627767e-01 4.95441020e-01 5.14560103e-01 5.31253815e-01 5.40773988e-01 5.38496435e-01 5.23604989e-01 5.01644731e-01 4.83609259e-01 4.75071073e-01 4.73897159e-01 4.80846435e-01 4.96997029e-01 1.89811680e-02 7.77536035e-02 3.13838571e-01 4.16011125e-01 4.12766546e-01 3.93218219e-01 3.81401658e-01 3.75100464e-01 3.71743739e-01 3.70436668e-01 3.71240824e-01 3.74621898e-01 3.81092340e-01 3.90979707e-01 4.04294401e-01 4.20686930e-01 4.39475745e-01 4.59731996e-01 4.80409414e-01 5.00456154e-01 5.18739641e-01 5.33683002e-01 5.43016672e-01 5.44484615e-01 5.37705839e-01 5.25506318e-01 5.12703240e-01 5.02936244e-01 4.97812420e-01 5.00312865e-01 5.10890841e-01 1.76235884e-02 8.75948370e-02 3.57694745e-01 4.31209773e-01 4.16568696e-01 3.98880541e-01 3.88142437e-01 3.80562782e-01 3.74829143e-01 3.71015280e-01 3.69680971e-01 3.71515900e-01 3.77147704e-01 3.87000024e-01 4.01190192e-01 4.19471473e-01 4.41199869e-01 4.65304345e-01 4.90285635e-01 5.14307737e-01 5.35398304e-01 5.51658094e-01 5.61437547e-01 5.63688040e-01 5.58512211e-01 5.47537565e-01 5.33682585e-01 5.20358384e-01 5.10657907e-01 5.08790195e-01 5.17086565e-01 3.27167362e-02 9.25881267e-02 4.13102686e-01 4.76310909e-01 4.53980267e-01 4.38537270e-01 4.28904027e-01 4.20993745e-01 4.14408654e-01 4.09572929e-01 4.07094896e-01 4.07604396e-01 4.11638945e-01 4.19528216e-01 4.31304544e-01 4.46668893e-01 4.65001255e-01 4.85374302e-01 5.06552160e-01 5.27006269e-01 5.45002639e-01 5.58776259e-01 5.66802621e-01 5.68249226e-01 5.63409328e-01 5.53718507e-01 5.41434705e-01 5.29236615e-01 5.19684315e-01 5.15665531e-01 5.20776570e-01 
