# vtk DataFile Version 2.0
results/8_density.vtk, Created by Freefem++ 
ASCII
DATASET UNSTRUCTURED_GRID
POINTS 961 float
0 0 0
0.033333333 0 0
0.066666667 0 0
0.1 0 0
0.13333333 0 0
0.16666667 0 0
0.2 0 0
0.23333333 0 0
0.26666667 0 0
0.3 0 0
0.33333333 0 0
0.36666667 0 0
0.4 0 0
0.43333333 0 0
0.46666667 0 0
0.5 0 0
0.53333333 0 0
0.56666667 0 0
0.6 0 0
0.63333333 0 0
0.66666667 0 0
0.7 0 0
0.73333333 0 0
0.76666667 0 0
0.8 0 0
0.83333333 0 0
0.86666667 0 0
0.9 0 0
0.93333333 0 0
0.96666667 0 0
1 0 0
0 0.033333333 0
0.033333333 0.033333333 0
0.066666667 0.033333333 0
0.1 0.033333333 0
0.13333333 0.033333333 0
0.16666667 0.033333333 0
0.2 0.033333333 0
0.23333333 0.033333333 0
0.26666667 0.033333333 0
0.3 0.033333333 0
0.33333333 0.033333333 0
0.36666667 0.033333333 0
0.4 0.033333333 0
0.43333333 0.033333333 0
0.46666667 0.033333333 0
0.5 0.033333333 0
0.53333333 0.033333333 0
0.56666667 0.033333333 0
0.6 0.033333333 0
0.63333333 0.033333333 0
0.66666667 0.033333333 0
0.7 0.033333333 0
0.73333333 0.033333333 0
0.76666667 0.033333333 0
0.8 0.033333333 0
0.83333333 0.033333333 0
0.86666667 0.033333333 0
0.9 0.033333333 0
0.93333333 0.033333333 0
0.96666667 0.033333333 0
1 0.033333333 0
0 0.066666667 0
0.033333333 0.066666667 0
0.066666667 0.066666667 0
0.1 0.066666667 0
0.13333333 0.066666667 0
0.16666667 0.066666667 0
0.2 0.066666667 0
0.23333333 0.066666667 0
0.26666667 0.066666667 0
0.3 0.066666667 0
0.33333333 0.066666667 0
0.36666667 0.066666667 0
0.4 0.066666667 0
0.43333333 0.066666667 0
0.46666667 0.066666667 0
0.5 0.066666667 0
0.53333333 0.066666667 0
0.56666667 0.066666667 0
0.6 0.066666667 0
0.63333333 0.066666667 0
0.66666667 0.066666667 0
0.7 0.066666667 0
0.73333333 0.066666667 0
0.76666667 0.066666667 0
0.8 0.066666667 0
0.83333333 0.066666667 0
0.86666667 0.066666667 0
0.9 0.066666667 0
0.93333333 0.066666667 0
0.96666667 0.066666667 0
1 0.066666667 0
0 0.1 0
0.033333333 0.1 0
0.066666667 0.1 0
0.1 0.1 0
0.13333333 0.1 0
0.16666667 0.1 0
0.2 0.1 0
0.23333333 0.1 0
0.26666667 0.1 0
0.3 0.1 0
0.33333333 0.1 0
0.36666667 0.1 0
0.4 0.1 0
0.43333333 0.1 0
0.46666667 0.1 0
0.5 0.1 0
0.53333333 0.1 0
0.56666667 0.1 0
0.6 0.1 0
0.63333333 0.1 0
0.66666667 0.1 0
0.7 0.1 0
0.73333333 0.1 0
0.76666667 0.1 0
0.8 0.1 0
0.83333333 0.1 0
0.86666667 0.1 0
0.9 0.1 0
0.93333333 0.1 0
0.96666667 0.1 0
1 0.1 0
0 0.13333333 0
0.033333333 0.13333333 0
0.066666667 0.13333333 0
0.1 0.13333333 0
0.13333333 0.13333333 0
0.16666667 0.13333333 0
0.2 0.13333333 0
0.23333333 0.13333333 0
0.26666667 0.13333333 0
0.3 0.13333333 0
0.33333333 0.13333333 0
0.36666667 0.13333333 0
0.4 0.13333333 0
0.43333333 0.13333333 0
0.46666667 0.13333333 0
0.5 0.13333333 0
0.53333333 0.13333333 0
0.56666667 0.13333333 0
0.6 0.13333333 0
0.63333333 0.13333333 0
0.66666667 0.13333333 0
0.7 0.13333333 0
0.73333333 0.13333333 0
0.76666667 0.13333333 0
0.8 0.13333333 0
0.83333333 0.13333333 0
0.86666667 0.13333333 0
0.9 0.13333333 0
0.93333333 0.13333333 0
0.96666667 0.13333333 0
1 0.13333333 0
0 0.16666667 0
0.033333333 0.16666667 0
0.066666667 0.16666667 0
0.1 0.16666667 0
0.13333333 0.16666667 0
0.16666667 0.16666667 0
0.2 0.16666667 0
0.23333333 0.16666667 0
0.26666667 0.16666667 0
0.3 0.16666667 0
0.33333333 0.16666667 0
0.36666667 0.16666667 0
0.4 0.16666667 0
0.43333333 0.16666667 0
0.46666667 0.16666667 0
0.5 0.16666667 0
0.53333333 0.16666667 0
0.56666667 0.16666667 0
0.6 0.16666667 0
0.63333333 0.16666667 0
0.66666667 0.16666667 0
0.7 0.16666667 0
0.73333333 0.16666667 0
0.76666667 0.16666667 0
0.8 0.16666667 0
0.83333333 0.16666667 0
0.86666667 0.16666667 0
0.9 0.16666667 0
0.93333333 0.16666667 0
0.96666667 0.16666667 0
1 0.16666667 0
0 0.2 0
0.033333333 0.2 0
0.066666667 0.2 0
0.1 0.2 0
0.13333333 0.2 0
0.16666667 0.2 0
0.2 0.2 0
0.23333333 0.2 0
0.26666667 0.2 0
0.3 0.2 0
0.33333333 0.2 0
0.36666667 0.2 0
0.4 0.2 0
0.43333333 0.2 0
0.46666667 0.2 0
0.5 0.2 0
0.53333333 0.2 0
0.56666667 0.2 0
0.6 0.2 0
0.63333333 0.2 0
0.66666667 0.2 0
0.7 0.2 0
0.73333333 0.2 0
0.76666667 0.2 0
0.8 0.2 0
0.83333333 0.2 0
0.86666667 0.2 0
0.9 0.2 0
0.93333333 0.2 0
0.96666667 0.2 0
1 0.2 0
0 0.23333333 0
0.033333333 0.23333333 0
0.066666667 0.23333333 0
0.1 0.23333333 0
0.13333333 0.23333333 0
0.16666667 0.23333333 0
0.2 0.23333333 0
0.23333333 0.23333333 0
0.26666667 0.23333333 0
0.3 0.23333333 0
0.33333333 0.23333333 0
0.36666667 0.23333333 0
0.4 0.23333333 0
0.43333333 0.23333333 0
0.46666667 0.23333333 0
0.5 0.23333333 0
0.53333333 0.23333333 0
0.56666667 0.23333333 0
0.6 0.23333333 0
0.63333333 0.23333333 0
0.66666667 0.23333333 0
0.7 0.23333333 0
0.73333333 0.23333333 0
0.76666667 0.23333333 0
0.8 0.23333333 0
0.83333333 0.23333333 0
0.86666667 0.23333333 0
0.9 0.23333333 0
0.93333333 0.23333333 0
0.96666667 0.23333333 0
1 0.23333333 0
0 0.26666667 0
0.033333333 0.26666667 0
0.066666667 0.26666667 0
0.1 0.26666667 0
0.13333333 0.26666667 0
0.16666667 0.26666667 0
0.2 0.26666667 0
0.23333333 0.26666667 0
0.26666667 0.26666667 0
0.3 0.26666667 0
0.33333333 0.26666667 0
0.36666667 0.26666667 0
0.4 0.26666667 0
0.43333333 0.26666667 0
0.46666667 0.26666667 0
0.5 0.26666667 0
0.53333333 0.26666667 0
0.56666667 0.26666667 0
0.6 0.26666667 0
0.63333333 0.26666667 0
0.66666667 0.26666667 0
0.7 0.26666667 0
0.73333333 0.26666667 0
0.76666667 0.26666667 0
0.8 0.26666667 0
0.83333333 0.26666667 0
0.86666667 0.26666667 0
0.9 0.26666667 0
0.93333333 0.26666667 0
0.96666667 0.26666667 0
1 0.26666667 0
0 0.3 0
0.033333333 0.3 0
0.066666667 0.3 0
0.1 0.3 0
0.13333333 0.3 0
0.16666667 0.3 0
0.2 0.3 0
0.23333333 0.3 0
0.26666667 0.3 0
0.3 0.3 0
0.33333333 0.3 0
0.36666667 0.3 0
0.4 0.3 0
0.43333333 0.3 0
0.46666667 0.3 0
0.5 0.3 0
0.53333333 0.3 0
0.56666667 0.3 0
0.6 0.3 0
0.63333333 0.3 0
0.66666667 0.3 0
0.7 0.3 0
0.73333333 0.3 0
0.76666667 0.3 0
0.8 0.3 0
0.83333333 0.3 0
0.86666667 0.3 0
0.9 0.3 0
0.93333333 0.3 0
0.96666667 0.3 0
1 0.3 0
0 0.33333333 0
0.033333333 0.33333333 0
0.066666667 0.33333333 0
0.1 0.33333333 0
0.13333333 0.33333333 0
0.16666667 0.33333333 0
0.2 0.33333333 0
0.23333333 0.33333333 0
0.26666667 0.33333333 0
0.3 0.33333333 0
0.33333333 0.33333333 0
0.36666667 0.33333333 0
0.4 0.33333333 0
0.43333333 0.33333333 0
0.46666667 0.33333333 0
0.5 0.33333333 0
0.53333333 0.33333333 0
0.56666667 0.33333333 0
0.6 0.33333333 0
0.63333333 0.33333333 0
0.66666667 0.33333333 0
0.7 0.33333333 0
0.73333333 0.33333333 0
0.76666667 0.33333333 0
0.8 0.33333333 0
0.83333333 0.33333333 0
0.86666667 0.33333333 0
0.9 0.33333333 0
0.93333333 0.33333333 0
0.96666667 0.33333333 0
1 0.33333333 0
0 0.36666667 0
0.033333333 0.36666667 0
0.066666667 0.36666667 0
0.1 0.36666667 0
0.13333333 0.36666667 0
0.16666667 0.36666667 0
0.2 0.36666667 0
0.23333333 0.36666667 0
0.26666667 0.36666667 0
0.3 0.36666667 0
0.33333333 0.36666667 0
0.36666667 0.36666667 0
0.4 0.36666667 0
0.43333333 0.36666667 0
0.46666667 0.36666667 0
0.5 0.36666667 0
0.53333333 0.36666667 0
0.56666667 0.36666667 0
0.6 0.36666667 0
0.63333333 0.36666667 0
0.66666667 0.36666667 0
0.7 0.36666667 0
0.73333333 0.36666667 0
0.76666667 0.36666667 0
0.8 0.36666667 0
0.83333333 0.36666667 0
0.86666667 0.36666667 0
0.9 0.36666667 0
0.93333333 0.36666667 0
0.96666667 0.36666667 0
1 0.36666667 0
0 0.4 0
0.033333333 0.4 0
0.066666667 0.4 0
0.1 0.4 0
0.13333333 0.4 0
0.16666667 0.4 0
0.2 0.4 0
0.23333333 0.4 0
0.26666667 0.4 0
0.3 0.4 0
0.33333333 0.4 0
0.36666667 0.4 0
0.4 0.4 0
0.43333333 0.4 0
0.46666667 0.4 0
0.5 0.4 0
0.53333333 0.4 0
0.56666667 0.4 0
0.6 0.4 0
0.63333333 0.4 0
0.66666667 0.4 0
0.7 0.4 0
0.73333333 0.4 0
0.76666667 0.4 0
0.8 0.4 0
0.83333333 0.4 0
0.86666667 0.4 0
0.9 0.4 0
0.93333333 0.4 0
0.96666667 0.4 0
1 0.4 0
0 0.43333333 0
0.033333333 0.43333333 0
0.066666667 0.43333333 0
0.1 0.43333333 0
0.13333333 0.43333333 0
0.16666667 0.43333333 0
0.2 0.43333333 0
0.23333333 0.43333333 0
0.26666667 0.43333333 0
0.3 0.43333333 0
0.33333333 0.43333333 0
0.36666667 0.43333333 0
0.4 0.43333333 0
0.43333333 0.43333333 0
0.46666667 0.43333333 0
0.5 0.43333333 0
0.53333333 0.43333333 0
0.56666667 0.43333333 0
0.6 0.43333333 0
0.63333333 0.43333333 0
0.66666667 0.43333333 0
0.7 0.43333333 0
0.73333333 0.43333333 0
0.76666667 0.43333333 0
0.8 0.43333333 0
0.83333333 0.43333333 0
0.86666667 0.43333333 0
0.9 0.43333333 0
0.93333333 0.43333333 0
0.96666667 0.43333333 0
1 0.43333333 0
0 0.46666667 0
0.033333333 0.46666667 0
0.066666667 0.46666667 0
0.1 0.46666667 0
0.13333333 0.46666667 0
0.16666667 0.46666667 0
0.2 0.46666667 0
0.23333333 0.46666667 0
0.26666667 0.46666667 0
0.3 0.46666667 0
0.33333333 0.46666667 0
0.36666667 0.46666667 0
0.4 0.46666667 0
0.43333333 0.46666667 0
0.46666667 0.46666667 0
0.5 0.46666667 0
0.53333333 0.46666667 0
0.56666667 0.46666667 0
0.6 0.46666667 0
0.63333333 0.46666667 0
0.66666667 0.46666667 0
0.7 0.46666667 0
0.73333333 0.46666667 0
0.76666667 0.46666667 0
0.8 0.46666667 0
0.83333333 0.46666667 0
0.86666667 0.46666667 0
0.9 0.46666667 0
0.93333333 0.46666667 0
0.96666667 0.46666667 0
1 0.46666667 0
0 0.5 0
0.033333333 0.5 0
0.066666667 0.5 0
0.1 0.5 0
0.13333333 0.5 0
0.16666667 0.5 0
0.2 0.5 0
0.23333333 0.5 0
0.26666667 0.5 0
0.3 0.5 0
0.33333333 0.5 0
0.36666667 0.5 0
0.4 0.5 0
0.43333333 0.5 0
0.46666667 0.5 0
0.5 0.5 0
0.53333333 0.5 0
0.56666667 0.5 0
0.6 0.5 0
0.63333333 0.5 0
0.66666667 0.5 0
0.7 0.5 0
0.73333333 0.5 0
0.76666667 0.5 0
0.8 0.5 0
0.83333333 0.5 0
0.86666667 0.5 0
0.9 0.5 0
0.93333333 0.5 0
0.96666667 0.5 0
1 0.5 0
0 0.53333333 0
0.033333333 0.53333333 0
0.066666667 0.53333333 0
0.1 0.53333333 0
0.13333333 0.53333333 0
0.16666667 0.53333333 0
0.2 0.53333333 0
0.23333333 0.53333333 0
0.26666667 0.53333333 0
0.3 0.53333333 0
0.33333333 0.53333333 0
0.36666667 0.53333333 0
0.4 0.53333333 0
0.43333333 0.53333333 0
0.46666667 0.53333333 0
0.5 0.53333333 0
0.53333333 0.53333333 0
0.56666667 0.53333333 0
0.6 0.53333333 0
0.63333333 0.53333333 0
0.66666667 0.53333333 0
0.7 0.53333333 0
0.73333333 0.53333333 0
0.76666667 0.53333333 0
0.8 0.53333333 0
[...]
CELL_DATA 1920
Scalars  Label int 1
LOOKUP_TABLE FreeFempp_table
0
0
0
0
0
0
0
0
0
0
0
0
0
0
0
0
0
0
0
0
0
0
0
0
0
0
0
0
0
0
0
0
0
0
0
0
0
0
0
0
0
0
0
0
0
0
0
0
0
0
0
0
0
0
0
0
0
0
0
0
0
0
0
0
0
0
0
0
0
0
0
0
0
0
0
0
0
0
0
0
0
0
0
0
0
0
0
0
0
0
0
0
0
0
0
0
0
0
0
0
0
0
0
0
0
0
0
0
0
0
0
0
0
0
0
0
0
0
0
0
0
0
0
0
0
0
0
0
0
0
0
0
0
0
0
0
0
0
0
0
0
0
0
0
0
0
0
0
0
0
0
0
0
0
0
0
0
0
0
0
0
0
0
0
0
0
0
0
0
0
0
0
0
0
0
0
0
0
0
0
0
0
0
0
0
0
0
0
0
0
0
0
0
0
0
0
0
0
0
0
0
0
0
0
0
0
0
0
0
0
0
0
0
0
0
0
0
0
0
0
0
0
0
0
0
0
0
0
0
0
0
0
0
0
0
0
0
0
0
0
0
0
0
0
0
0
0
0
0
0
0
0
0
0
0
0
0
0
0
0
0
0
0
0
0
0
0
0
0
0
0
0
0
0
0
0
0
0
0
0
0
0
0
0
0
0
0
0
0
0
0
0
0
0
0
0
0
0
0
0
0
0
0
0
0
0
0
0
0
0
0
0
0
0
0
0
0
0
0
0
0
0
0
0
0
0
0
0
0
0
0
0
0
0
0
0
0
0
0
0
0
0
0
0
0
0
0
0
0
0
0
0
0
0
0
0
0
0
0
0
0
0
0
0
0
0
0
0
0
0
0
0
0
0
0
0
0
0
0
0
0
0
0
0
0
0
0
0
0
0
0
0
0
0
0
0
0
0
0
0
0
0
0
0
0
0
0
0
0
0
0
0
0
0
0
0
0
0
0
0
0
0
0
0
0
0
0
0
0
0
0
0
0
0
0
0
0
0
0
0
0
0
0
0
0
0
0
0
0
0
0
0
0
0
0
0
0
0
0
0
0
0
0
0
0
0
0
0
0
0
0
0
0
0
0
0
0
0
0
0
0
0
0
0
0
0
0
0
0
0
0
0
0
0
0
0
0
0
0
0
0
0
0
0
0
0
0
0
0
0
0
0
0
0
0
0
0
0
0
0
0
0
0
0
0
0
0
0
0
0
0
0
0
0
0
0
0
0
0
0
0
0
0
0
0
0
0
0
0
0
0
0
0
0
0
0
0
0
0
0
0
0
0
0
0
0
0
0
0
0
0
0
0
0
0
0
0
0
0
0
0
0
0
0
0
0
0
0
0
0
0
0
0
0
0
0
0
0
0
0
0
0
0
0
0
0
0
0
0
0
0
0
0
0
0
0
0
0
0
0
0
0
0
0
0
0
0
0
0
0
0
0
0
0
0
0
0
0
0
0
0
0
0
0
0
0
0
0
0
0
0
0
0
0
0
0
0
0
0
0
0
0
0
0
0
0
0
0
0
0
0
0
0
0
0
0
0
0
0
0
0
0
0
0
0
0
0
0
0
0
0
0
0
0
0
0
0
0
0
0
0
0
0
0
0
0
0
0
0
0
0
0
0
0
0
0
0
0
0
0
0
0
0
0
0
0
0
0
0
0
0
0
0
0
0
0
0
0
0
0
0
0
0
0
0
0
0
0
0
0
0
0
0
0
0
0
0
0
0
0
0
0
0
0
0
0
0
0
0
0
0
0
0
0
0
0
0
0
0
0
0
0
0
0
0
0
0
0
0
0
0
0
0
0
0
0
0
0
0
0
0
0
0
0
0
0
0
0
0
0
0
0
0
0
0
0
0
0
0
0
0
0
0
0
0
0
0
0
0
0
0
0
0
0
0
0
0
0
0
0
0
0
0
0
0
0
0
0
0
0
0
0
0
0
0
0
0
0
0
0
0
0
0
0
0
0
0
0
0
0
0
0
0
0
0
0
0
0
0
0
0
0
0
0
0
0
0
0
0
0
0
0
0
0
0
0
0
0
0
0
0
0
0
0
0
0
0
0
0
0
0
0
0
0
0
0
0
0
0
0
0
0
0
0
0
0
0
0
0
0
0
0
0
0
0
0
0
0
0
0
0
0
0
0
0
0
0
0
0
0
0
0
0
0
0
0
0
0
0
0
0
0
0
0
0
0
0
0
0
0
0
0
0
0
0
0
0
0
0
0
0
0
0
0
0
0
0
0
0
0
0
0
0
0
0
0
0
0
0
0
0
0
0
0
0
0
0
0
0
0
0
0
0
0
0
0
0
0
0
0
0
0
0
0
0
0
0
0
0
0
0
0
0
0
0
0
0
0
0
0
0
0
0
0
0
0
0
0
0
0
0
0
0
0
0
0
0
0
0
0
0
0
0
0
0
0
0
0
0
0
0
0
0
0
0
0
0
0
0
0
0
0
0
0
0
0
0
0
0
0
0
0
0
0
0
0
0
0
0
0
0
0
0
0
0
0
0
0
0
0
0
0
0
0
0
0
0
0
0
0
0
0
0
0
0
0
0
0
0
0
0
0
0
0
0
0
0
0
0
0
0
0
0
0
0
0
0
0
0
0
0
0
0
0
0
0
0
0
0
0
0
0
0
0
0
0
0
0
0
0
0
0
0
0
0
0
0
0
0
0
0
0
0
0
0
0
0
0
0
0
0
0
0
0
0
0
0
0
0
0
0
0
0
0
0
0
0
0
0
0
0
0
0
0
0
0
0
0
0
0
0
0
0
0
0
0
0
0
0
0
0
0
0
0
0
0
0
0
0
0
0
0
0
0
0
0
0
0
0
0
0
0
0
0
0
0
0
0
0
0
0
0
0
0
0
0
0
0
0
0
0
0
0
0
0
0
0
0
0
0
0
0
0
0
0
0
0
0
0
0
0
0
0
0
0
0
0
0
0
0
0
0
0
0
0
0
0
0
0
0
0
0
0
0
0
0
0
0
0
0
0
0
0
0
0
0
0
0
0
0
0
0
0
0
0
0
0
0
0
0
0
0
0
0
0
0
0
0
0
0
0
0
0
0
0
0
0
0
0
0
0
0
0
0
0
0
0
0
0
0
0
0
0
0
0
0
0
0
0
0
0
0
0
0
0
0
0
0
0
0
0
0
0
0
0
0
0
0
0
0
0
0
0
0
0
0
0
0
0
0
0
0
0
0
0
0
0
0
0
0
0
0
0
0
0
0
0
0
0
0
0
0
0
0
0
0
0
0
0
0
0
0
0
0
0
0
0
0
0
0
0
0
0
0
0
0
0
0
0
0
0
0
0
0
0
0
0
0
0
0
0
0
0
0
0
0
0
0
0
0
0
0
0
0
0
0
0
0
0
0
0
0
0
0
0
0
0
0
0
0
0
0
0
0
0
0
0
0
0
0
0
0
0
0
0
0
0
0
0
0
0
0
0
0
0
0
0
0
0
0
0
0
0
0
0
0
0
0
0
0
0
0
0
0
0
0
0
0
0
0
0
0
0
0
0
0
0
0
0
0
0
0
0
0
0
0
0
0
0
0
0
0
0
0
0
0
0
0
0
0
0
0
0
0
0
0
0
0
0
0
0
0
0
0
0
0
0
0
0
0
0
0
0
0
0
0
0
0
0
0
0
0
0
0
0
0
0
0
0
0
0
0
0
0
0
0
0
0
0
0
0
0
0
0
0
0
0
0
0
0
0
0
0
0
0
0
0
0
0
0
0
0
0
0
0
0
0
0
0
0
0
0
0
0
0
0
0
0
0
0
0
0
0
0
0
0
0
0
0
0
0
0
0
0
0
0
0
0
0
0
0
0
0
0
0
0
0
0
0
0
0
0
0
0
0
0
0
0
0
0
0
0
0
0
0
0
0
0
0
0
0
0
0
0
0
0
0
0
0
0
0
0
0
0
0
0
0
0
0
0
0
0
0
0
0
0
0
0
0
0
0
0
0
0
0
0
0
0
0
0
0
0
0
0
0
0
0
0
0
0
0
0
0
0
0
0
0
0
0
0
0
0
0
0
0
0
0
0
0
0
0
0
0
0
0
0
0
0
0
0
1
1
1
1
1
1
1
1
1
1
1
1
1
1
1
1
1
1
1
1
1
1
1
1
1
1
1
1
1
1
2
2
2
2
2
2
2
2
2
2
2
2
2
2
2
2
2
2
2
2
2
2
2
2
2
2
2
2
2
2
3
3
3
3
3
3
3
3
3
3
3
3
3
3
3
3
3
3
3
3
3
3
3
3
3
3
3
3
3
3
4
4
4
4
4
4
4
4
4
4
4
4
4
4
4
4
4
4
4
4
4
4
4
4
4
4
4
4
4
4

LOOKUP_TABLE FreeFempp_table 5
1.00000000 0.00000000 0.00000000 1.00000000
1.00000000 1.00000000 0.00000000 1.00000000
1.00000000 0.00000000 1.00000000 1.00000000
0.00000000 1.00000000 0.00000000 1.00000000
0.00000000 1.00000000 1.00000000 1.00000000

POINT_DATA 961
FIELD FieldData 1
Density 1 961 float
5.00877559e-01 4.80853736e-01 4.79897588e-01 4.79887396e-01 4.80158895e-01 4.80419993e-01 4.79842454e-01 4.55879033e-01 1.11071259e-01 1.03605306e-02 1.57265998e-02 4.16188359e-01 5.25219023e-01 7.39704370e-01 6.22628152e-01 8.12099040e-01 8.59172225e-01 7.84205198e-01 6.94995642e-01 6.47441268e-01 6.14575922e-01 5.94713867e-01 5.79716921e-01 5.69072068e-01 5.61719716e-01 5.56717813e-01 5.53210139e-01 5.50973356e-01 5.49474597e-01 5.51180780e-01 5.42723835e-01 4.74358529e-01 4.29417104e-01 4.30534005e-01 4.29781318e-01 4.27781224e-01 4.26398695e-01 4.22590107e-01 3.90575379e-01 1.13537297e-01 9.17838793e-03 7.09826220e-03 2.81737298e-01 4.05376345e-01 7.55291760e-01 3.83779436e-01 3.41597721e-02 4.43390459e-02 3.49163622e-01 7.16951787e-01 6.98106408e-01 6.75437331e-01 6.49047792e-01 6.32397532e-01 6.12048984e-01 5.94547868e-01 5.79920352e-01 5.70133209e-01 5.63894689e-01 5.60051918e-01 5.60039401e-01 5.51372051e-01 3.23614222e-03 2.93385959e-03 2.73761153e-03 2.76091509e-03 2.99042347e-03 2.95367301e-03 2.87149544e-03 2.78986245e-03 3.07898037e-03 3.27305379e-03 3.18276789e-03 2.71491962e-03 3.26586157e-01 4.55361664e-01 9.01493490e-01 3.28321159e-02 1.61251463e-02 1.20987250e-02 1.54634984e-02 1.31708877e-02 2.42692530e-01 5.07167161e-01 5.51886976e-01 5.72721422e-01 5.73220730e-01 5.68170905e-01 5.51373661e-01 5.41959763e-01 5.37219942e-01 5.33815503e-01 5.40800214e-01 4.67185257e-03 2.64821807e-03 2.87553458e-03 2.71489355e-03 2.86493963e-03 2.96871108e-03 2.92489235e-03 2.76687206e-03 2.90212967e-03 3.20107420e-03 3.59542132e-03 1.82701659e-03 1.81254791e-03 2.88100867e-03 3.01596168e-02 9.68602419e-01 8.54196131e-01 3.00187301e-02 1.90128908e-02 8.52376781e-03 6.61731185e-03 6.92054164e-03 3.46822105e-03 5.70159182e-02 4.07265037e-01 4.90033031e-01 5.17391980e-01 5.06278276e-01 4.99982804e-01 4.96130913e-01 5.22219956e-01 4.65441376e-01 3.92000824e-01 3.93861324e-01 3.99608821e-01 4.04098749e-01 4.08696890e-01 4.14217293e-01 4.19063479e-01 4.23735917e-01 4.24960762e-01 4.07560796e-01 5.39411791e-02 2.87741772e-03 2.00044713e-03 2.13993876e-03 3.18191154e-03 7.96834350e-01 9.28837538e-01 5.95487654e-01 7.92582929e-01 1.38441166e-02 8.95591918e-03 4.38025314e-03 4.11808677e-03 5.09128999e-03 5.42371860e-03 4.95243957e-03 4.63149279e-01 4.63147551e-01 4.62360233e-01 5.03782570e-01 4.90320325e-01 4.25473422e-01 4.22579646e-01 4.25371736e-01 4.29306328e-01 4.33988184e-01 4.39076453e-01 4.44070667e-01 4.48714793e-01 4.52416569e-01 4.54509199e-01 4.53007549e-01 4.36037570e-01 4.10665393e-01 3.82642751e-03 2.12553260e-03 2.11332389e-03 3.74135491e-03 8.61465573e-01 8.21114957e-01 9.28947151e-01 9.50052202e-01 8.66428852e-01 6.69952296e-03 6.00237539e-03 5.25271893e-03 3.21039441e-03 3.02876229e-03 4.33557659e-01 4.41611916e-01 4.91136819e-01 5.14311790e-01 4.74940598e-01 4.73328859e-01 4.72691119e-01 4.73224044e-01 4.74464506e-01 4.76112515e-01 4.78072315e-01 4.80271101e-01 4.82380301e-01 4.83867407e-01 4.84913677e-01 4.86328334e-01 4.83458310e-01 4.74090278e-01 4.37025398e-01 3.05727567e-03 2.56650755e-03 2.60935654e-03 1.27926040e-02 3.76143754e-02 2.87048697e-01 8.26028168e-01 9.37120497e-01 8.97433460e-01 3.73398572e-01 1.26351491e-01 2.99953343e-03 2.72392272e-03 4.26139295e-01 4.84784365e-01 5.34462512e-01 5.17847717e-01 5.17387390e-01 5.15089273e-01 5.13352454e-01 5.12198567e-01 5.11571705e-01 5.11484921e-01 5.11780381e-01 5.12035191e-01 5.11801779e-01 5.11103332e-01 5.10765493e-01 5.10640502e-01 5.09793282e-01 5.06876886e-01 4.88181353e-01 4.26646829e-01 3.94312153e-03 4.67095571e-03 7.49519002e-03 1.53563507e-02 4.43576276e-02 8.42474997e-02 6.03992641e-01 8.03445637e-01 3.99662912e-01 3.08968633e-01 2.90708034e-03 4.26169345e-03 4.75771129e-01 5.47624230e-01 5.48728764e-01 5.48448145e-01 5.45930862e-01 5.43457687e-01 5.41117907e-01 5.39161026e-01 5.37752867e-01 5.36751151e-01 5.35745442e-01 5.34441173e-01 5.33051431e-01 5.32094657e-01 5.31833112e-01 5.32777846e-01 5.35330713e-01 5.36896288e-01 5.29269397e-01 4.16307122e-01 1.46839041e-02 9.62419529e-03 9.46195610e-03 1.31893000e-02 3.33595388e-02 3.78481522e-02 6.69021666e-01 6.79079771e-01 3.94623637e-01 4.37820237e-03 2.89253029e-03 4.39015180e-01 5.51070571e-01 5.61919570e-01 5.62227428e-01 5.60440421e-01 5.58501661e-01 5.56283116e-01 5.54184139e-01 5.52557409e-01 5.51352203e-01 5.50194383e-01 5.48870206e-01 5.47661066e-01 5.47093153e-01 5.47558606e-01 5.49806595e-01 5.54958522e-01 5.63357651e-01 5.74557245e-01 5.73090255e-01 4.68798816e-01 7.64871165e-02 3.40976045e-02 2.14470793e-02 1.97307020e-02 3.83765697e-02 1.45582020e-01 7.33120978e-01 5.31960011e-01 3.73762786e-01 2.74410052e-03 4.01268201e-03 5.44185638e-01 5.54789901e-01 5.56672633e-01 5.56439459e-01 5.56136429e-01 5.55402637e-01 5.54659069e-01 5.54347932e-01 5.54353893e-01 5.54163933e-01 5.53519309e-01 5.52721024e-01 5.52353621e-01 5.52994668e-01 5.55427253e-01 5.60717881e-01 5.69927216e-01 5.82757890e-01 6.08186483e-01 6.41384423e-01 6.72453523e-01 5.31242073e-01 2.90938199e-01 9.11320001e-02 5.57677746e-02 1.01825260e-01 6.50349200e-01 6.41454101e-01 4.59875226e-01 7.86123704e-03 5.47204539e-03 5.28763592e-01 5.28237700e-01 5.31307757e-01 5.33110380e-01 5.35550117e-01 5.37992299e-01 5.40721774e-01 5.43921828e-01 5.46935201e-01 5.48837364e-01 5.49337864e-01 5.48910022e-01 5.48330426e-01 5.48327267e-01 5.49613476e-01 5.52920938e-01 5.59012890e-01 5.68458498e-01 5.85660040e-01 6.32344365e-01 7.26077020e-01 7.75337636e-01 6.34664595e-01 3.42917532e-01 2.78817654e-01 4.28438365e-01 6.75748408e-01 6.89537883e-01 5.23924708e-01 7.78009882e-03 7.43988622e-03 5.08310020e-01 4.86222237e-01 4.86453980e-01 4.89845365e-01 4.96376812e-01 5.04629672e-01 5.14232159e-01 5.24134576e-01 5.32299519e-01 5.37284672e-01 5.39136410e-01 5.38895845e-01 5.37760615e-01 5.36657691e-01 5.36230326e-01 5.36886752e-01 5.38866282e-01 5.42395890e-01 5.48851669e-01 5.67044497e-01 6.12006426e-01 6.58378065e-01 6.36343658e-01 5.57430625e-01 5.49965858e-01 6.07962549e-01 7.06117988e-01 6.98342919e-01 5.56969523e-01 8.32848996e-03 7.91881513e-03 4.86610621e-01 4.34415370e-01 4.23460424e-01 4.26653117e-01 4.39446986e-01 4.57962722e-01 4.79538649e-01 4.99941647e-01 5.15011132e-01 5.23358881e-01 5.26212573e-01 5.25696337e-01 5.23607194e-01 5.21102846e-01 5.18839002e-01 5.17136455e-01 5.16113222e-01 5.15852749e-01 5.16778648e-01 5.20834029e-01 5.31036675e-01 5.43651998e-01 5.43951094e-01 5.38815141e-01 5.64176738e-01 6.29140079e-01 7.05265284e-01 7.01845467e-01 5.32240272e-01 9.00314935e-03 8.44424032e-03 4.66116995e-01 3.77330244e-01 3.45781356e-01 3.47160727e-01 3.69593203e-01 4.04834896e-01 4.44328219e-01 4.77923036e-01 4.99906868e-01 5.10583580e-01 5.13466895e-01 5.12067318e-01 5.08714736e-01 5.04708111e-01 5.00757277e-01 4.97303963e-01 4.94699210e-01 4.93294060e-01 4.93436038e-01 4.95386630e-01 4.99223083e-01 5.04975379e-01 5.12748659e-01 5.29867172e-01 5.71873665e-01 6.44784987e-01 7.12037325e-01 6.96553051e-01 3.98920417e-01 9.99016780e-03 9.18879919e-03 4.47220892e-01 3.15755665e-01 2.62008876e-01 2.63634294e-01 2.97986865e-01 3.56230438e-01 4.17928100e-01 4.64152992e-01 4.90397513e-01 5.01104772e-01 5.02812624e-01 5.00143826e-01 4.95594293e-01 4.90414798e-01 4.85346884e-01 4.81021315e-01 4.78096157e-01 4.77209061e-01 4.78789419e-01 4.82895494e-01 4.89527196e-01 4.99442101e-01 5.14623463e-01 5.42477131e-01 5.96284091e-01 6.73657596e-01 7.25645542e-01 6.41519129e-01 1.49008632e-01 1.15902508e-02 1.02301873e-02 4.28631306e-01 2.47824192e-01 1.87083319e-01 1.92829654e-01 2.38369823e-01 3.23395014e-01 4.07277703e-01 4.61371958e-01 4.87051666e-01 4.95207250e-01 4.94935691e-01 4.91097569e-01 4.85873342e-01 4.80289400e-01 4.75067109e-01 4.70971555e-01 4.68839765e-01 4.69398618e-01 4.73020047e-01 4.79708582e-01 4.89648163e-01 5.04020512e-01 5.26136160e-01 5.65450430e-01 6.32076859e-01 7.04826653e-01 7.21392155e-01 4.56705809e-01 5.66014349e-02 1.48086986e-02 1.23436647e-02 4.07389343e-01 1.77019879e-01 1.29956707e-01 1.41764686e-01 1.98666662e-01 3.13868076e-01 4.14130181e-01 4.67673451e-01 4.87797797e-01 4.91854846e-01 4.89615172e-01 4.85184193e-01 4.80105042e-01 4.75108892e-01 4.70852673e-01 4.68125522e-01 4.67744380e-01 4.70264256e-01 4.75718230e-01 4.83809739e-01 4.95002180e-01 5.12131870e-01 5.41744113e-01 5.95574200e-01 6.71680510e-01 7.22216129e-01 6.42869174e-01 1.57020658e-01 3.25208604e-02 1.99565236e-02 1.76276080e-02 3.75814945e-01 1.18594423e-01 9.01699588e-02 1.08691745e-01 1.81472629e-01 3.30107242e-01 4.34415966e-01 4.77892935e-01 4.89719957e-01 4.89747107e-01 4.86280471e-01 4.82086033e-01 4.78021711e-01 4.74552780e-01 4.72245991e-01 4.71802205e-01 4.73829508e-01 4.78482872e-01 4.85254347e-01 4.93538558e-01 5.04690409e-01 5.24617076e-01 5.63942671e-01 6.33486509e-01 7.05284655e-01 6.99677587e-01 3.86896163e-01 6.15695789e-02 2.60021109e-02 2.37563271e-02 3.15147974e-02 3.12159956e-01 7.91381150e-02 6.54587075e-02 8.94605741e-02 1.90578595e-01 3.68119299e-01 4.59461987e-01 4.86981302e-01 4.90753561e-01 4.87999111e-01 4.84358788e-01 4.81213599e-01 4.78864104e-01 4.77576584e-01 4.77811784e-01 4.80103165e-01 4.84753817e-01 4.91505772e-01 4.99552906e-01 5.08648217e-01 5.21902323e-01 5.48346281e-01 6.00310028e-01 6.75704241e-01 7.11840570e-01 5.35029233e-01 1.07599370e-01 3.85279544e-02 2.79041063e-02 3.01062278e-02 6.99706823e-02 1.89164832e-01 5.48259877e-02 5.11789955e-02 8.27107131e-02 2.33875021e-01 4.16760653e-01 4.80445325e-01 4.92217362e-01 4.90094990e-01 4.86185193e-01 4.83343363e-01 4.81848001e-01 4.81606156e-01 4.82741833e-01 4.85609680e-01 4.90579903e-01 4.97756362e-01 5.06827891e-01 5.17437637e-01 5.30626178e-01 5.51220536e-01 5.88105738e-01 6.43148065e-01 6.88914776e-01 5.83876908e-01 1.75365761e-01 5.43862693e-02 3.50480005e-02 3.49320360e-02 5.32983877e-02 2.20369026e-01 8.72447416e-02 4.13147658e-02 4.29933965e-02 9.11363065e-02 3.09501797e-01 4.60635662e-01 4.93087262e-01 4.93023008e-01 4.87763286e-01 4.84118193e-01 4.82761204e-01 4.83215392e-01 4.85132277e-01 4.88534868e-01 4.93702233e-01 5.00947595e-01 5.10453403e-01 5.22363782e-01 5.37368238e-01 5.57783842e-01 5.87884486e-01 6.28629744e-01 6.59082592e-01 5.99237025e-01 2.65423834e-01 7.12506175e-02 4.46799695e-02 4.21327911e-02 5.51114716e-02 1.26193404e-01 3.94492447e-01 4.41918038e-02 3.45201939e-02 4.03928459e-02 1.23194680e-01 3.93592179e-01 4.88987744e-01 4.97315437e-01 4.90109861e-01 4.84106779e-01 4.81701881e-01 4.82170492e-01 4.84579712e-01 4.88429695e-01 4.93674725e-01 5.00567496e-01 5.09495556e-01 5.20945728e-01 5.35715461e-01 5.55336297e-01 5.82118392e-01 6.16753697e-01 6.48809731e-01 6.36592448e-01 4.64218765e-01 1.79132283e-01 6.56257793e-02 5.47163896e-02 6.89173713e-02 1.49840117e-01 3.11765701e-01 4.62050915e-01 2.57593952e-02 2.83776484e-02 4.63307165e-02 2.13102520e-01 4.59181339e-01 5.00900805e-01 4.94617343e-01 4.84623879e-01 4.79518294e-01 4.78870362e-01 4.81194437e-01 4.85348791e-01 4.90758121e-01 4.97326404e-01 5.05303562e-01 5.15198469e-01 5.27801394e-01 5.44314682e-01 5.66341937e-01 5.94909132e-01 6.26741529e-01 6.45508885e-01 6.07196152e-01 4.37829077e-01 2.11567923e-01 1.24475032e-01 1.43022418e-01 2.54843324e-01 3.80596548e-01 4.46684211e-01 5.00709713e-01 1.76924337e-02 2.11976618e-02 6.77866638e-02 3.48292053e-01 4.94467854e-01 5.00724852e-01 4.87185359e-01 4.77626264e-01 4.74346370e-01 4.75575715e-01 4.79557931e-01 4.85139012e-01 4.91725475e-01 4.99165118e-01 5.07668734e-01 5.17791390e-01 5.30447841e-01 5.46861112e-01 5.68147540e-01 5.93917727e-01 6.19027019e-01 6.28213942e-01 5.91067910e-01 4.76072550e-01 3.46188098e-01 3.22654456e-01 3.87110919e-01 4.63930398e-01 4.91973013e-01 5.10597467e-01 5.28696597e-01 1.41813802e-02 1.61497928e-02 1.27989992e-01 4.45649624e-01 5.03675938e-01 4.92633194e-01 4.77519870e-01 4.70058143e-01 4.68893766e-01 4.71789390e-01 4.77082282e-01 4.83751446e-01 4.91231859e-01 4.99291658e-01 5.08011162e-01 5.17830253e-01 5.29568017e-01 5.44250906e-01 5.62512696e-01 5.83292007e-01 6.01710618e-01 6.06734276e-01 5.81643283e-01 5.19620359e-01 4.62916881e-01 4.60072488e-01 4.87733811e-01 5.05523026e-01 5.13204813e-01 5.32237530e-01 5.43005228e-01 1.26310103e-02 1.37177575e-02 2.86025882e-01 4.89991665e-01 4.97699261e-01 4.79965329e-01 4.67234999e-01 4.62549210e-01 4.63332713e-01 4.67457801e-01 4.73622143e-01 4.81061488e-01 4.89296407e-01 4.98008698e-01 5.07053256e-01 5.16561091e-01 5.27023911e-01 5.39175332e-01 5.53462923e-01 5.69027603e-01 5.82420707e-01 5.86765647e-01 5.73346496e-01 5.40912747e-01 5.08960307e-01 4.97539401e-01 5.00772119e-01 5.06303132e-01 5.13818681e-01 5.34681559e-01 5.46285570e-01 1.14951339e-02 1.23557495e-02 4.07285154e-01 4.98192072e-01 4.83948112e-01 4.66129541e-01 4.57518280e-01 4.55637813e-01 4.57829773e-01 4.62547272e-01 4.69037950e-01 4.76901710e-01 4.85825390e-01 4.95460182e-01 5.05423963e-01 5.15409768e-01 5.25343835e-01 5.35460770e-01 5.46103299e-01 5.57106435e-01 5.66890538e-01 5.71801841e-01 5.66871941e-01 5.50120354e-01 5.28449297e-01 5.12643099e-01 5.06429374e-01 5.06624520e-01 5.10122001e-01 5.25613427e-01 5.41935980e-01 1.03016188e-02 1.13337850e-02 4.63783592e-01 4.86789644e-01 4.66008425e-01 4.53896403e-01 4.49987590e-01 4.50207382e-01 4.52759653e-01 4.57079202e-01 4.63084698e-01 4.70806777e-01 4.80195999e-01 4.91020441e-01 5.02830565e-01 5.15000880e-01 5.26853085e-01 5.37834108e-01 5.47656119e-01 5.56224227e-01 5.63185751e-01 5.67186594e-01 5.65536261e-01 5.55708706e-01 5.38855851e-01 5.20838201e-01 5.07651627e-01 5.00411630e-01 4.96781290e-01 5.04918158e-01 5.31108260e-01 8.80491640e-03 1.02040581e-02 5.05242705e-01 4.73736227e-01 4.55375761e-01 4.49914068e-01 4.48141903e-01 4.47649419e-01 4.48377937e-01 4.50770229e-01 4.55302417e-01 4.62365836e-01 4.72194344e-01 4.84791338e-01 4.99859124e-01 5.16740382e-01 5.34388423e-01 5.51397920e-01 5.66133320e-01 5.76961875e-01 5.82522094e-01 5.81908524e-01 5.74725449e-01 5.61185598e-01 5.42497933e-01 5.21227598e-01 5.00759661e-01 4.83956635e-01 4.73036617e-01 4.75886315e-01 5.16187191e-01 1.58095583e-02 1.14375120e-02 6.36955261e-01 5.11863887e-01 5.03249705e-01 4.98645753e-01 4.95431870e-01 4.93117362e-01 4.91835564e-01 4.91808563e-01 4.93287534e-01 4.96506572e-01 5.01625478e-01 5.08678675e-01 5.17537832e-01 5.27881384e-01 5.39158642e-01 5.50544322e-01 5.60905039e-01 5.68837345e-01 5.72868645e-01 5.71891904e-01 5.65762997e-01 5.55666149e-01 5.43607652e-01 5.31095445e-01 5.18526316e-01 5.06437600e-01 4.97500479e-01 4.95468825e-01 5.14300048e-01 
