# vtk DataFile Version 2.0
results/9_density.vtk, Created by Freefem++ 
ASCII
DATASET UNSTRUCTURED_GRID
POINTS 961 float
0 0 0
0.033333333 0 0
0.066666667 0 0
0.1 0 0
0.13333333 0 0
0.16666667 0 0
0.2 0 0
0.23333333 0 0
0.26666667 0 0
0.3 0 0
0.33333333 0 0
0.36666667 0 0
0.4 0 0
0.43333333 0 0
0.46666667 0 0
0.5 0 0
0.53333333 0 0
0.56666667 0 0
0.6 0 0
0.63333333 0 0
0.66666667 0 0
0.7 0 0
0.73333333 0 0
0.76666667 0 0
0.8 0 0
0.83333333 0 0
0.86666667 0 0
0.9 0 0
0.93333333 0 0
0.96666667 0 0
1 0 0
0 0.033333333 0
0.033333333 0.033333333 0
0.066666667 0.033333333 0
0.1 0.033333333 0
0.13333333 0.033333333 0
0.16666667 0.033333333 0
0.2 0.033333333 0
0.23333333 0.033333333 0
0.26666667 0.033333333 0
0.3 0.033333333 0
0.33333333 0.033333333 0
0.36666667 0.033333333 0
0.4 0.033333333 0
0.43333333 0.033333333 0
0.46666667 0.033333333 0
0.5 0.033333333 0
0.53333333 0.033333333 0
0.56666667 0.033333333 0
0.6 0.033333333 0
0.63333333 0.033333333 0
0.66666667 0.033333333 0
0.7 0.033333333 0
0.73333333 0.033333333 0
0.76666667 0.033333333 0
0.8 0.033333333 0
0.83333333 0.033333333 0
0.86666667 0.033333333 0
0.9 0.033333333 0
0.93333333 0.033333333 0
0.96666667 0.033333333 0
1 0.033333333 0
0 0.066666667 0
0.033333333 0.066666667 0
0.066666667 0.066666667 0
0.1 0.066666667 0
0.13333333 0.066666667 0
0.16666667 0.066666667 0
0.2 0.066666667 0
0.23333333 0.066666667 0
0.26666667 0.066666667 0
0.3 0.066666667 0
0.33333333 0.066666667 0
0.36666667 0.066666667 0
0.4 0.066666667 0
0.43333333 0.066666667 0
0.46666667 0.066666667 0
0.5 0.066666667 0
0.53333333 0.066666667 0
0.56666667 0.066666667 0
0.6 0.066666667 0
0.63333333 0.066666667 0
0.66666667 0.066666667 0
0.7 0.066666667 0
0.73333333 0.066666667 0
0.76666667 0.066666667 0
0.8 0.066666667 0
0.83333333 0.066666667 0
0.86666667 0.066666667 0
0.9 0.066666667 0
0.93333333 0.066666667 0
0.96666667 0.066666667 0
1 0.066666667 0
0 0.1 0
0.033333333 0.1 0
0.066666667 0.1 0
0.1 0.1 0
0.13333333 0.1 0
0.16666667 0.1 0
0.2 0.1 0
0.23333333 0.1 0
0.26666667 0.1 0
0.3 0.1 0
0.33333333 0.1 0
0.36666667 0.1 0
0.4 0.1 0
0.43333333 0.1 0
0.46666667 0.1 0
0.5 0.1 0
0.53333333 0.1 0
0.56666667 0.1 0
0.6 0.1 0
0.63333333 0.1 0
0.66666667 0.1 0
0.7 0.1 0
0.73333333 0.1 0
0.76666667 0.1 0
0.8 0.1 0
0.83333333 0.1 0
0.86666667 0.1 0
0.9 0.1 0
0.93333333 0.1 0
0.96666667 0.1 0
1 0.1 0
0 0.13333333 0
0.033333333 0.13333333 0
0.066666667 0.13333333 0
0.1 0.13333333 0
0.13333333 0.13333333 0
0.16666667 0.13333333 0
0.2 0.13333333 0
0.23333333 0.13333333 0
0.26666667 0.13333333 0
0.3 0.13333333 0
0.33333333 0.13333333 0
0.36666667 0.13333333 0
0.4 0.13333333 0
0.43333333 0.13333333 0
0.46666667 0.13333333 0
0.5 0.13333333 0
0.53333333 0.13333333 0
0.56666667 0.13333333 0
0.6 0.13333333 0
0.63333333 0.13333333 0
0.66666667 0.13333333 0
0.7 0.13333333 0
0.73333333 0.13333333 0
0.76666667 0.13333333 0
0.8 0.13333333 0
0.83333333 0.13333333 0
0.86666667 0.13333333 0
0.9 0.13333333 0
0.93333333 0.13333333 0
0.96666667 0.13333333 0
1 0.13333333 0
0 0.16666667 0
0.033333333 0.16666667 0
0.066666667 0.16666667 0
0.1 0.16666667 0
0.13333333 0.16666667 0
0.16666667 0.16666667 0
0.2 0.16666667 0
0.23333333 0.16666667 0
0.26666667 0.16666667 0
0.3 0.16666667 0
0.33333333 0.16666667 0
0.36666667 0.16666667 0
0.4 0.16666667 0
0.43333333 0.16666667 0
0.46666667 0.16666667 0
0.5 0.16666667 0
0.53333333 0.16666667 0
0.56666667 0.16666667 0
0.6 0.16666667 0
0.63333333 0.16666667 0
0.66666667 0.16666667 0
0.7 0.16666667 0
0.73333333 0.16666667 0
0.76666667 0.16666667 0
0.8 0.16666667 0
0.83333333 0.16666667 0
0.86666667 0.16666667 0
0.9 0.16666667 0
0.93333333 0.16666667 0
0.96666667 0.16666667 0
1 0.16666667 0
0 0.2 0
0.033333333 0.2 0
0.066666667 0.2 0
0.1 0.2 0
0.13333333 0.2 0
0.16666667 0.2 0
0.2 0.2 0
0.23333333 0.2 0
0.26666667 0.2 0
0.3 0.2 0
0.33333333 0.2 0
0.36666667 0.2 0
0.4 0.2 0
0.43333333 0.2 0
0.46666667 0.2 0
0.5 0.2 0
0.53333333 0.2 0
0.56666667 0.2 0
0.6 0.2 0
0.63333333 0.2 0
0.66666667 0.2 0
0.7 0.2 0
0.73333333 0.2 0
0.76666667 0.2 0
0.8 0.2 0
0.83333333 0.2 0
0.86666667 0.2 0
0.9 0.2 0
0.93333333 0.2 0
0.96666667 0.2 0
1 0.2 0
0 0.23333333 0
0.033333333 0.23333333 0
0.066666667 0.23333333 0
0.1 0.23333333 0
0.13333333 0.23333333 0
0.16666667 0.23333333 0
0.2 0.23333333 0
0.23333333 0.23333333 0
0.26666667 0.23333333 0
0.3 0.23333333 0
0.33333333 0.23333333 0
0.36666667 0.23333333 0
0.4 0.23333333 0
0.43333333 0.23333333 0
0.46666667 0.23333333 0
0.5 0.23333333 0
0.53333333 0.23333333 0
0.56666667 0.23333333 0
0.6 0.23333333 0
0.63333333 0.23333333 0
0.66666667 0.23333333 0
0.7 0.23333333 0
0.73333333 0.23333333 0
0.76666667 0.23333333 0
0.8 0.23333333 0
0.83333333 0.23333333 0
0.86666667 0.23333333 0
0.9 0.23333333 0
0.93333333 0.23333333 0
0.96666667 0.23333333 0
1 0.23333333 0
0 0.26666667 0
0.033333333 0.26666667 0
0.066666667 0.26666667 0
0.1 0.26666667 0
0.13333333 0.26666667 0
0.16666667 0.26666667 0
0.2 0.26666667 0
0.23333333 0.26666667 0
0.26666667 0.26666667 0
0.3 0.26666667 0
0.33333333 0.26666667 0
0.36666667 0.26666667 0
0.4 0.26666667 0
0.43333333 0.26666667 0
0.46666667 0.26666667 0
0.5 0.26666667 0
0.53333333 0.26666667 0
0.56666667 0.26666667 0
0.6 0.26666667 0
0.63333333 0.26666667 0
0.66666667 0.26666667 0
0.7 0.26666667 0
0.73333333 0.26666667 0
0.76666667 0.26666667 0
0.8 0.26666667 0
0.83333333 0.26666667 0
0.86666667 0.26666667 0
0.9 0.26666667 0
0.93333333 0.26666667 0
0.96666667 0.26666667 0
1 0.26666667 0
0 0.3 0
0.033333333 0.3 0
0.066666667 0.3 0
0.1 0.3 0
0.13333333 0.3 0
0.16666667 0.3 0
0.2 0.3 0
0.23333333 0.3 0
0.26666667 0.3 0
0.3 0.3 0
0.33333333 0.3 0
0.36666667 0.3 0
0.4 0.3 0
0.43333333 0.3 0
0.46666667 0.3 0
0.5 0.3 0
0.53333333 0.3 0
0.56666667 0.3 0
0.6 0.3 0
0.63333333 0.3 0
0.66666667 0.3 0
0.7 0.3 0
0.73333333 0.3 0
0.76666667 0.3 0
0.8 0.3 0
0.83333333 0.3 0
0.86666667 0.3 0
0.9 0.3 0
0.93333333 0.3 0
0.96666667 0.3 0
1 0.3 0
0 0.33333333 0
0.033333333 0.33333333 0
0.066666667 0.33333333 0
0.1 0.33333333 0
0.13333333 0.33333333 0
0.16666667 0.33333333 0
0.2 0.33333333 0
0.23333333 0.33333333 0
0.26666667 0.33333333 0
0.3 0.33333333 0
0.33333333 0.33333333 0
0.36666667 0.33333333 0
0.4 0.33333333 0
0.43333333 0.33333333 0
0.46666667 0.33333333 0
0.5 0.33333333 0
0.53333333 0.33333333 0
0.56666667 0.33333333 0
0.6 0.33333333 0
0.63333333 0.33333333 0
0.66666667 0.33333333 0
0.7 0.33333333 0
0.73333333 0.33333333 0
0.76666667 0.33333333 0
0.8 0.33333333 0
0.83333333 0.33333333 0
0.86666667 0.33333333 0
0.9 0.33333333 0
0.93333333 0.33333333 0
0.96666667 0.33333333 0
1 0.33333333 0
0 0.36666667 0
0.033333333 0.36666667 0
0.066666667 0.36666667 0
0.1 0.36666667 0
0.13333333 0.36666667 0
0.16666667 0.36666667 0
0.2 0.36666667 0
0.23333333 0.36666667 0
0.26666667 0.36666667 0
0.3 0.36666667 0
0.33333333 0.36666667 0
0.36666667 0.36666667 0
0.4 0.36666667 0
0.43333333 0.36666667 0
0.46666667 0.36666667 0
0.5 0.36666667 0
0.53333333 0.36666667 0
0.56666667 0.36666667 0
0.6 0.36666667 0
0.63333333 0.36666667 0
0.66666667 0.36666667 0
0.7 0.36666667 0
0.73333333 0.36666667 0
0.76666667 0.36666667 0
0.8 0.36666667 0
0.83333333 0.36666667 0
0.86666667 0.36666667 0
0.9 0.36666667 0
0.93333333 0.36666667 0
0.96666667 0.36666667 0
1 0.36666667 0
0 0.4 0
0.033333333 0.4 0
0.066666667 0.4 0
0.1 0.4 0
0.13333333 0.4 0
0.16666667 0.4 0
0.2 0.4 0
0.23333333 0.4 0
0.26666667 0.4 0
0.3 0.4 0
0.33333333 0.4 0
0.36666667 0.4 0
0.4 0.4 0
0.43333333 0.4 0
0.46666667 0.4 0
0.5 0.4 0
0.53333333 0.4 0
0.56666667 0.4 0
0.6 0.4 0
0.63333333 0.4 0
0.66666667 0.4 0
0.7 0.4 0
0.73333333 0.4 0
0.76666667 0.4 0
0.8 0.4 0
0.83333333 0.4 0
0.86666667 0.4 0
0.9 0.4 0
0.93333333 0.4 0
0.96666667 0.4 0
1 0.4 0
0 0.43333333 0
0.033333333 0.43333333 0
0.066666667 0.43333333 0
0.1 0.43333333 0
0.13333333 0.43333333 0
0.16666667 0.43333333 0
0.2 0.43333333 0
0.23333333 0.43333333 0
0.26666667 0.43333333 0
0.3 0.43333333 0
0.33333333 0.43333333 0
0.36666667 0.43333333 0
0.4 0.43333333 0
0.43333333 0.43333333 0
0.46666667 0.43333333 0
0.5 0.43333333 0
0.53333333 0.43333333 0
0.56666667 0.43333333 0
0.6 0.43333333 0
0.63333333 0.43333333 0
0.66666667 0.43333333 0
0.7 0.43333333 0
0.73333333 0.43333333 0
0.76666667 0.43333333 0
0.8 0.43333333 0
0.83333333 0.43333333 0
0.86666667 0.43333333 0
0.9 0.43333333 0
0.93333333 0.43333333 0
0.96666667 0.43333333 0
1 0.43333333 0
0 0.46666667 0
0.033333333 0.46666667 0
0.066666667 0.46666667 0
0.1 0.46666667 0
0.13333333 0.46666667 0
0.16666667 0.46666667 0
0.2 0.46666667 0
0.23333333 0.46666667 0
0.26666667 0.46666667 0
0.3 0.46666667 0
0.33333333 0.46666667 0
0.36666667 0.46666667 0
0.4 0.46666667 0
0.43333333 0.46666667 0
0.46666667 0.46666667 0
0.5 0.46666667 0
0.53333333 0.46666667 0
0.56666667 0.46666667 0
0.6 0.46666667 0
0.63333333 0.46666667 0
0.66666667 0.46666667 0
0.7 0.46666667 0
0.73333333 0.46666667 0
0.76666667 0.46666667 0
0.8 0.46666667 0
0.83333333 0.46666667 0
0.86666667 0.46666667 0
0.9 0.46666667 0
0.93333333 0.46666667 0
0.96666667 0.46666667 0
1 0.46666667 0
0 0.5 0
0.033333333 0.5 0
0.066666667 0.5 0
0.1 0.5 0
0.13333333 0.5 0
0.16666667 0.5 0
0.2 0.5 0
0.23333333 0.5 0
0.26666667 0.5 0
0.3 0.5 0
0.33333333 0.5 0
0.36666667 0.5 0
0.4 0.5 0
0.43333333 0.5 0
0.46666667 0.5 0
0.5 0.5 0
0.53333333 0.5 0
0.56666667 0.5 0
0.6 0.5 0
0.63333333 0.5 0
0.66666667 0.5 0
0.7 0.5 0
0.73333333 0.5 0
0.76666667 0.5 0
0.8 0.5 0
0.83333333 0.5 0
0.86666667 0.5 0
0.9 0.5 0
0.93333333 0.5 0
0.96666667 0.5 0
1 0.5 0
0 0.53333333 0
0.033333333 0.53333333 0
0.066666667 0.53333333 0
0.1 0.53333333 0
0.13333333 0.53333333 0
0.16666667 0.53333333 0
0.2 0.53333333 0
0.23333333 0.53333333 0
0.26666667 0.53333333 0
0.3 0.53333333 0
0.33333333 0.53333333 0
0.36666667 0.53333333 0
0.4 0.53333333 0
0.43333333 0.53333333 0
0.46666667 0.53333333 0
0.5 0.53333333 0
0.53333333 0.53333333 0
0.56666667 0.53333333 0
0.6 0.53333333 0
0.63333333 0.53333333 0
0.66666667 0.53333333 0
0.7 0.53333333 0
0.73333333 0.53333333 0
0.76666667 0.53333333 0
0.8 0.53333333 0
[...]
CELL_DATA 1920
Scalars  Label int 1
LOOKUP_TABLE FreeFempp_table
0
0
0
0
0
0
0
0
0
0
0
0
0
0
0
0
0
0
0
0
0
0
0
0
0
0
0
0
0
0
0
0
0
0
0
0
0
0
0
0
0
0
0
0
0
0
0
0
0
0
0
0
0
0
0
0
0
0
0
0
0
0
0
0
0
0
0
0
0
0
0
0
0
0
0
0
0
0
0
0
0
0
0
0
0
0
0
0
0
0
0
0
0
0
0
0
0
0
0
0
0
0
0
0
0
0
0
0
0
0
0
0
0
0
0
0
0
0
0
0
0
0
0
0
0
0
0
0
0
0
0
0
0
0
0
0
0
0
0
0
0
0
0
0
0
0
0
0
0
0
0
0
0
0
0
0
0
0
0
0
0
0
0
0
0
0
0
0
0
0
0
0
0
0
0
0
0
0
0
0
0
0
0
0
0
0
0
0
0
0
0
0
0
0
0
0
0
0
0
0
0
0
0
0
0
0
0
0
0
0
0
0
0
0
0
0
0
0
0
0
0
0
0
0
0
0
0
0
0
0
0
0
0
0
0
0
0
0
0
0
0
0
0
0
0
0
0
0
0
0
0
0
0
0
0
0
0
0
0
0
0
0
0
0
0
0
0
0
0
0
0
0
0
0
0
0
0
0
0
0
0
0
0
0
0
0
0
0
0
0
0
0
0
0
0
0
0
0
0
0
0
0
0
0
0
0
0
0
0
0
0
0
0
0
0
0
0
0
0
0
0
0
0
0
0
0
0
0
0
0
0
0
0
0
0
0
0
0
0
0
0
0
0
0
0
0
0
0
0
0
0
0
0
0
0
0
0
0
0
0
0
0
0
0
0
0
0
0
0
0
0
0
0
0
0
0
0
0
0
0
0
0
0
0
0
0
0
0
0
0
0
0
0
0
0
0
0
0
0
0
0
0
0
0
0
0
0
0
0
0
0
0
0
0
0
0
0
0
0
0
0
0
0
0
0
0
0
0
0
0
0
0
0
0
0
0
0
0
0
0
0
0
0
0
0
0
0
0
0
0
0
0
0
0
0
0
0
0
0
0
0
0
0
0
0
0
0
0
0
0
0
0
0
0
0
0
0
0
0
0
0
0
0
0
0
0
0
0
0
0
0
0
0
0
0
0
0
0
0
0
0
0
0
0
0
0
0
0
0
0
0
0
0
0
0
0
0
0
0
0
0
0
0
0
0
0
0
0
0
0
0
0
0
0
0
0
0
0
0
0
0
0
0
0
0
0
0
0
0
0
0
0
0
0
0
0
0
0
0
0
0
0
0
0
0
0
0
0
0
0
0
0
0
0
0
0
0
0
0
0
0
0
0
0
0
0
0
0
0
0
0
0
0
0
0
0
0
0
0
0
0
0
0
0
0
0
0
0
0
0
0
0
0
0
0
0
0
0
0
0
0
0
0
0
0
0
0
0
0
0
0
0
0
0
0
0
0
0
0
0
0
0
0
0
0
0
0
0
0
0
0
0
0
0
0
0
0
0
0
0
0
0
0
0
0
0
0
0
0
0
0
0
0
0
0
0
0
0
0
0
0
0
0
0
0
0
0
0
0
0
0
0
0
0
0
0
0
0
0
0
0
0
0
0
0
0
0
0
0
0
0
0
0
0
0
0
0
0
0
0
0
0
0
0
0
0
0
0
0
0
0
0
0
0
0
0
0
0
0
0
0
0
0
0
0
0
0
0
0
0
0
0
0
0
0
0
0
0
0
0
0
0
0
0
0
0
0
0
0
0
0
0
0
0
0
0
0
0
0
0
0
0
0
0
0
0
0
0
0
0
0
0
0
0
0
0
0
0
0
0
0
0
0
0
0
0
0
0
0
0
0
0
0
0
0
0
0
0
0
0
0
0
0
0
0
0
0
0
0
0
0
0
0
0
0
0
0
0
0
0
0
0
0
0
0
0
0
0
0
0
0
0
0
0
0
0
0
0
0
0
0
0
0
0
0
0
0
0
0
0
0
0
0
0
0
0
0
0
0
0
0
0
0
0
0
0
0
0
0
0
0
0
0
0
0
0
0
0
0
0
0
0
0
0
0
0
0
0
0
0
0
0
0
0
0
0
0
0
0
0
0
0
0
0
0
0
0
0
0
0
0
0
0
0
0
0
0
0
0
0
0
0
0
0
0
0
0
0
0
0
0
0
0
0
0
0
0
0
0
0
0
0
0
0
0
0
0
0
0
0
0
0
0
0
0
0
0
0
0
0
0
0
0
0
0
0
0
0
0
0
0
0
0
0
0
0
0
0
0
0
0
0
0
0
0
0
0
0
0
0
0
0
0
0
0
0
0
0
0
0
0
0
0
0
0
0
0
0
0
0
0
0
0
0
0
0
0
0
0
0
0
0
0
0
0
0
0
0
0
0
0
0
0
0
0
0
0
0
0
0
0
0
0
0
0
0
0
0
0
0
0
0
0
0
0
0
0
0
0
0
0
0
0
0
0
0
0
0
0
0
0
0
0
0
0
0
0
0
0
0
0
0
0
0
0
0
0
0
0
0
0
0
0
0
0
0
0
0
0
0
0
0
0
0
0
0
0
0
0
0
0
0
0
0
0
0
0
0
0
0
0
0
0
0
0
0
0
0
0
0
0
0
0
0
0
0
0
0
0
0
0
0
0
0
0
0
0
0
0
0
0
0
0
0
0
0
0
0
0
0
0
0
0
0
0
0
0
0
0
0
0
0
0
0
0
0
0
0
0
0
0
0
0
0
0
0
0
0
0
0
0
0
0
0
0
0
0
0
0
0
0
0
0
0
0
0
0
0
0
0
0
0
0
0
0
0
0
0
0
0
0
0
0
0
0
0
0
0
0
0
0
0
0
0
0
0
0
0
0
0
0
0
0
0
0
0
0
0
0
0
0
0
0
0
0
0
0
0
0
0
0
0
0
0
0
0
0
0
0
0
0
0
0
0
0
0
0
0
0
0
0
0
0
0
0
0
0
0
0
0
0
0
0
0
0
0
0
0
0
0
0
0
0
0
0
0
0
0
0
0
0
0
0
0
0
0
0
0
0
0
0
0
0
0
0
0
0
0
0
0
0
0
0
0
0
0
0
0
0
0
0
0
0
0
0
0
0
0
0
0
0
0
0
0
0
0
0
0
0
0
0
0
0
0
0
0
0
0
0
0
0
0
0
0
0
0
0
0
0
0
0
0
0
0
0
0
0
0
0
0
0
0
0
0
0
0
0
0
0
0
0
0
0
0
0
0
0
0
0
0
0
0
0
0
0
0
0
0
0
0
0
0
0
0
0
0
0
0
0
0
0
0
0
0
0
0
0
0
0
0
0
0
0
0
0
0
0
0
0
0
0
0
0
0
0
0
0
0
0
0
0
0
0
0
0
0
0
0
0
0
0
0
0
0
0
0
0
0
0
0
0
0
0
0
0
0
0
0
0
0
0
0
0
0
0
0
0
0
0
0
0
0
0
0
0
0
0
0
0
0
0
0
0
0
0
0
0
0
0
0
0
0
0
0
0
0
0
0
0
0
0
0
0
0
0
0
0
0
0
0
0
0
0
0
0
0
0
0
0
0
0
0
0
0
0
0
0
0
0
0
0
0
0
0
0
0
0
0
0
0
0
0
0
0
0
0
0
0
0
0
0
0
0
0
0
0
0
0
0
0
0
0
0
0
0
0
0
0
0
0
0
0
0
0
0
0
0
0
0
0
0
0
0
0
0
0
0
0
0
0
0
0
0
0
0
0
0
0
0
0
0
0
0
0
0
0
0
0
0
0
0
0
0
0
0
0
0
0
0
0
0
0
0
0
0
0
0
0
0
0
0
0
0
0
0
0
0
0
0
0
0
0
0
0
0
0
0
0
0
0
0
0
0
0
0
0
0
0
0
0
0
0
0
0
0
0
0
0
0
0
0
0
0
0
0
0
0
0
0
0
0
0
0
0
0
0
0
0
0
0
0
0
0
0
0
0
0
0
0
0
0
0
0
0
0
0
0
0
0
0
0
0
0
0
0
0
0
0
0
0
0
0
0
0
0
0
0
0
0
0
0
0
0
0
0
0
0
0
0
0
0
0
0
0
0
0
0
0
0
0
1
1
1
1
1
1
1
1
1
1
1
1
1
1
1
1
1
1
1
1
1
1
1
1
1
1
1
1
1
1
2
2
2
2
2
2
2
2
2
2
2
2
2
2
2
2
2
2
2
2
2
2
2
2
2
2
2
2
2
2
3
3
3
3
3
3
3
3
3
3
3
3
3
3
3
3
3
3
3
3
3
3
3
3
3
3
3
3
3
3
4
4
4
4
4
4
4
4
4
4
4
4
4
4
4
4
4
4
4
4
4
4
4
4
4
4
4
4
4
4

LOOKUP_TABLE FreeFempp_table 5
1.00000000 0.00000000 0.00000000 1.00000000
1.00000000 1.00000000 0.00000000 1.00000000
1.00000000 0.00000000 1.00000000 1.00000000
0.00000000 1.00000000 0.00000000 1.00000000
0.00000000 1.00000000 1.00000000 1.00000000

POINT_DATA 961
FIELD FieldData 1
Density 1 961 float
4.62019384e-01 4.52205509e-01 4.53337610e-01 4.51182187e-01 4.46248919e-01 4.41178769e-01 4.35227096e-01 4.11469311e-01 3.42856437e-01 2.75488436e-01 3.05763870e-01 4.02464896e-01 4.15077269e-01 3.92422736e-01 3.42877150e-01 2.87685812e-01 2.66629547e-01 2.70610154e-01 2.44834334e-01 2.37187058e-01 2.82335162e-01 3.74847651e-01 5.16891420e-01 6.60889924e-01 6.80542707e-01 5.66608429e-01 3.85430783e-01 2.44484127e-01 2.44183153e-01 3.31611961e-01 4.22953725e-01 3.47588748e-01 3.55203867e-01 3.62610698e-01 3.65022123e-01 3.62575591e-01 3.59029353e-01 3.53030145e-01 3.36249352e-01 2.90768504e-01 2.48154461e-01 2.67417401e-01 3.62708896e-01 3.75645697e-01 3.35188985e-01 2.66783834e-01 2.00911179e-01 1.73984632e-01 1.82653487e-01 1.89668819e-01 2.01283783e-01 2.50546813e-01 3.44433844e-01 4.97093081e-01 6.81545496e-01 7.23535597e-01 5.83207488e-01 3.28687757e-01 1.59605727e-01 1.72338471e-01 2.70845175e-01 4.01539117e-01 5.54281026e-02 6.45235330e-02 6.49604276e-02 6.68717697e-02 6.71640858e-02 6.87827915e-02 7.12344870e-02 7.85445347e-02 1.22675046e-01 1.72740161e-01 2.13733688e-01 2.82079250e-01 2.94858843e-01 2.50488490e-01 1.94711298e-01 1.42402723e-01 1.13703579e-01 1.08670190e-01 1.18071988e-01 1.54454812e-01 2.29989931e-01 3.32610071e-01 4.76969123e-01 6.65942729e-01 7.23878086e-01 5.82312584e-01 2.90103674e-01 9.40849558e-02 1.05665810e-01 2.35839963e-01 3.84042710e-01 7.92177469e-02 6.68101534e-02 6.40225261e-02 6.58097118e-02 6.85312524e-02 7.18583539e-02 5.19903228e-02 1.31851081e-02 2.05119122e-02 5.29524982e-02 9.26170498e-02 1.22192986e-01 1.26452044e-01 1.12918720e-01 9.65359733e-02 8.73471722e-02 8.76418054e-02 9.17138979e-02 8.63931105e-02 1.04733452e-01 1.70480654e-01 2.87979007e-01 4.38918203e-01 6.37639403e-01 7.26032197e-01 6.28864288e-01 3.48122090e-01 8.46946090e-02 7.85913318e-02 2.28235245e-01 3.87048960e-01 3.79247606e-01 3.55700374e-01 3.52243811e-01 3.55254769e-01 3.61486882e-01 3.65255415e-01 3.20723027e-01 9.79464948e-02 1.82464272e-02 1.31681105e-02 2.19344292e-02 3.07561588e-02 3.31139229e-02 3.42755765e-02 3.58866230e-02 3.94723937e-02 4.83482890e-02 6.68266192e-02 7.20907673e-02 8.28222111e-02 1.22876398e-01 2.16911361e-01 3.65068972e-01 5.79206824e-01 7.24780619e-01 6.88445985e-01 4.62423176e-01 1.01569831e-01 6.18786924e-02 2.16564536e-01 3.81544292e-01 4.54234511e-01 4.37754512e-01 4.29465920e-01 4.27822977e-01 4.27188665e-01 4.27670538e-01 4.14063841e-01 2.96338707e-01 8.28288198e-02 2.16419641e-02 1.42293517e-02 1.45038227e-02 1.50008881e-02 1.67428348e-02 1.84390768e-02 1.89015716e-02 2.12876108e-02 2.74273586e-02 4.14512195e-02 6.18892387e-02 9.48728696e-02 1.60288066e-01 2.76381999e-01 4.80711937e-01 6.99299693e-01 7.33355403e-01 5.52546144e-01 1.23591766e-01 4.10630181e-02 1.77033514e-01 3.65213037e-01 4.82861251e-01 4.67747062e-01 4.52853382e-01 4.41147238e-01 4.30462301e-01 4.23954725e-01 4.14059103e-01 3.56730521e-01 2.02345356e-01 7.55260959e-02 3.82822193e-02 2.92005967e-02 2.55950335e-02 2.66531873e-02 2.77955886e-02 2.76453961e-02 2.79968716e-02 2.30239090e-02 2.25371905e-02 3.75257693e-02 6.78442195e-02 1.19756401e-01 2.01144382e-01 3.66925538e-01 6.34347856e-01 7.56631196e-01 6.49954736e-01 1.90407947e-01 2.87258495e-02 1.16961077e-01 3.35062295e-01 5.27308404e-01 5.25155127e-01 5.09277999e-01 4.85025436e-01 4.58974391e-01 4.37943459e-01 4.17685419e-01 3.71634632e-01 2.72005230e-01 1.64391726e-01 1.01227976e-01 7.95649514e-02 6.92976266e-02 6.88829720e-02 7.89374262e-02 9.36637223e-02 9.64155570e-02 6.69757873e-02 2.87078712e-02 2.46748235e-02 4.43930589e-02 8.89194980e-02 1.49852455e-01 2.63629198e-01 5.15240014e-01 7.38379180e-01 7.40264118e-01 4.40940738e-01 7.35538453e-02 9.06576067e-02 3.04900527e-01 5.88670850e-01 6.11860275e-01 6.07554376e-01 5.77330768e-01 5.35768270e-01 4.93189931e-01 4.47149456e-01 3.91193092e-01 3.20194721e-01 2.41315424e-01 1.82611451e-01 1.59479573e-01 1.44307122e-01 1.37000173e-01 1.53606683e-01 1.85318783e-01 1.96498916e-01 1.52396172e-01 6.84252605e-02 2.93974504e-02 3.26724723e-02 7.00440779e-02 1.25924662e-01 1.95629507e-01 3.77837420e-01 6.68918788e-01 7.71087766e-01 6.01409256e-01 1.34874701e-01 5.75773790e-02 2.26358920e-01 6.32000387e-01 6.82225645e-01 7.00303137e-01 6.79228961e-01 6.38115108e-01 5.89954555e-01 5.27511895e-01 4.49836850e-01 3.85875523e-01 3.20909560e-01 2.71341175e-01 2.41455212e-01 2.25421384e-01 2.09822387e-01 2.15711132e-01 2.37026155e-01 2.48454228e-01 2.36830905e-01 1.43653989e-01 5.27900793e-02 3.21701542e-02 5.68797514e-02 1.14714168e-01 1.68768674e-01 2.81156957e-01 5.65019429e-01 7.55955875e-01 6.87672734e-01 2.55623728e-01 3.64598297e-02 5.10210246e-02 6.14498556e-01 6.74770713e-01 7.11460650e-01 7.01656520e-01 6.76592946e-01 6.55802250e-01 6.23333037e-01 5.61789274e-01 4.98248398e-01 4.34455216e-01 3.88474673e-01 3.36446732e-01 3.05800974e-01 2.78311104e-01 2.65164077e-01 2.66010731e-01 2.75425851e-01 2.89390624e-01 2.23621845e-01 9.44184288e-02 4.08027135e-02 4.63559851e-02 8.98642689e-02 1.47158086e-01 2.21886232e-01 4.63407218e-01 7.18287170e-01 7.46439219e-01 4.38871473e-01 7.43142739e-02 2.04308331e-02 5.32765985e-01 5.57495296e-01 5.92682838e-01 5.79814017e-01 5.73510528e-01 6.08232498e-01 6.42576754e-01 6.51294649e-01 6.39087141e-01 5.87823629e-01 5.29193401e-01 4.44040716e-01 3.88590783e-01 3.44990522e-01 3.12574893e-01 2.98689604e-01 3.11612487e-01 3.32248658e-01 2.86592424e-01 1.52615353e-01 6.52813017e-02 4.51265536e-02 5.80626652e-02 1.01832233e-01 1.57708257e-01 3.68751884e-01 6.73299611e-01 7.72862375e-01 5.32616198e-01 1.00431666e-01 1.51397064e-02 4.38461661e-01 3.76984030e-01 3.65005165e-01 3.38959873e-01 3.57453197e-01 4.57182348e-01 5.72788477e-01 6.47260606e-01 7.10063994e-01 7.19153404e-01 6.66136920e-01 5.52173913e-01 4.68714148e-01 4.08424437e-01 3.66150588e-01 3.54496300e-01 3.69766563e-01 3.78284872e-01 3.35859060e-01 2.25375831e-01 1.18332013e-01 6.49235100e-02 3.30338255e-02 5.85638955e-02 9.80019569e-02 2.90482134e-01 6.33983493e-01 7.89025426e-01 5.82783580e-01 1.10613756e-01 1.14526870e-02 3.82366002e-01 2.37696096e-01 1.77516222e-01 1.58774257e-01 2.06336796e-01 3.46260816e-01 4.95440990e-01 5.92976451e-01 6.81995869e-01 7.55584061e-01 7.48303413e-01 6.53385699e-01 5.59392273e-01 4.91718709e-01 4.50262219e-01 4.39966828e-01 4.43270117e-01 4.28345084e-01 3.80167276e-01 2.96163201e-01 2.01256752e-01 1.17959112e-01 4.30794992e-02 5.32293878e-02 7.21917152e-02 2.57959604e-01 6.18787467e-01 8.03303421e-01 6.15822196e-01 1.17558807e-01 1.01675838e-02 3.58982265e-01 1.67156324e-01 9.62852314e-02 1.03840634e-01 1.84759840e-01 3.51562142e-01 4.78756785e-01 5.42309999e-01 6.15176916e-01 7.04430521e-01 7.40049720e-01 7.03769565e-01 6.42149389e-01 5.87677956e-01 5.50143778e-01 5.31554222e-01 5.14590263e-01 4.79657710e-01 4.26724821e-01 3.57737899e-01 2.77744234e-01 1.90926924e-01 1.14133172e-01 6.96907490e-02 8.17874297e-02 2.91186154e-01 6.43618524e-01 8.20555508e-01 6.30586088e-01 1.20942280e-01 9.17510968e-03 3.41080517e-01 1.28831208e-01 6.22328259e-02 1.05092242e-01 2.54032046e-01 4.46562588e-01 5.11369705e-01 5.17692924e-01 5.50299168e-01 6.20830178e-01 6.73701584e-01 6.82627559e-01 6.68147862e-01 6.45130038e-01 6.21320009e-01 5.99691093e-01 5.71609259e-01 5.29197514e-01 4.75615829e-01 4.12682265e-01 3.41987938e-01 2.65513539e-01 1.80930555e-01 1.15993090e-01 1.48861587e-01 3.80704522e-01 7.03981876e-01 8.41929913e-01 6.21777296e-01 1.20304711e-01 8.82200990e-03 3.27374279e-01 1.07258230e-01 4.61106896e-02 1.25987977e-01 3.60554308e-01 5.36724746e-01 5.43079078e-01 5.05447865e-01 5.06835759e-01 5.49640417e-01 5.99700570e-01 6.31792307e-01 6.49032891e-01 6.54958129e-01 6.50422812e-01 6.36654258e-01 6.11367822e-01 5.72536170e-01 5.21036625e-01 4.60479110e-01 4.00594950e-01 3.44427377e-01 2.76560992e-01 2.24481702e-01 2.79740423e-01 4.99966323e-01 7.73481011e-01 8.44347954e-01 5.49383700e-01 1.09407492e-01 9.23371594e-03 3.21384400e-01 9.62116644e-02 3.91889848e-02 1.47840947e-01 4.41588074e-01 5.62975347e-01 5.38965881e-01 4.90083158e-01 4.80215967e-01 5.05470455e-01 5.46565294e-01 5.85416257e-01 6.17343307e-01 6.40308797e-01 6.51469409e-01 6.49880588e-01 6.35165334e-01 6.05795801e-01 5.59447825e-01 5.03075123e-01 4.55697179e-01 4.21442121e-01 3.82799745e-01 3.59705597e-01 4.27318960e-01 6.19553626e-01 8.26027989e-01 8.09857845e-01 3.59417140e-01 7.11388737e-02 9.53780208e-03 3.17856818e-01 8.90580937e-02 3.86002138e-02 1.75924852e-01 4.83115286e-01 5.48828125e-01 5.05651712e-01 4.68150377e-01 4.60785270e-01 4.78738725e-01 5.12154400e-01 5.50067246e-01 5.86457253e-01 6.17271423e-01 6.38568699e-01 6.48418963e-01 6.46084130e-01 6.28425777e-01 5.91455102e-01 5.44418573e-01 5.09860098e-01 4.91858959e-01 4.74906862e-01 4.74383146e-01 5.49589813e-01 7.18257368e-01 8.61256182e-01 7.66082227e-01 2.27133065e-01 3.85863222e-02 1.63247827e-02 3.26878995e-01 8.53138044e-02 4.58853692e-02 2.24204600e-01 5.07028639e-01 5.29874980e-01 4.74928856e-01 4.48873371e-01 4.46432829e-01 4.60557193e-01 4.87493306e-01 5.21562397e-01 5.57669222e-01 5.91430902e-01 6.19053841e-01 6.38422251e-01 6.47741258e-01 6.42453551e-01 6.18697882e-01 5.85724175e-01 5.63350081e-01 5.55059195e-01 5.50287724e-01 5.63588142e-01 6.43127382e-01 7.91669488e-01 8.72464478e-01 7.00565994e-01 1.76701874e-01 3.33170965e-02 2.98424698e-02 3.83074373e-01 9.39608663e-02 6.48051724e-02 3.06479365e-01 5.31181514e-01 5.15492976e-01 4.54686433e-01 4.35521483e-01 4.36316758e-01 4.47342992e-01 4.68251348e-01 4.97100145e-01 5.30367076e-01 5.64281166e-01 5.95760286e-01 6.22765064e-01 6.42487109e-01 6.49717212e-01 6.41308188e-01 6.24452114e-01 6.12995446e-01 6.10950649e-01 6.15236998e-01 6.39957547e-01 7.17199624e-01 8.35447133e-01 8.44244659e-01 5.51332116e-01 1.37336344e-01 4.00529653e-02 5.12076803e-02 3.88802469e-01 1.02876768e-01 8.44960213e-02 4.05921996e-01 5.50884008e-01 5.03449142e-01 4.41983372e-01 4.25959826e-01 4.28415149e-01 4.37358737e-01 4.53191310e-01 4.76325095e-01 5.05051851e-01 5.36962867e-01 5.70092976e-01 6.02652133e-01 6.31218076e-01 6.50419712e-01 6.57292962e-01 6.55943453e-01 6.54705465e-01 6.59008443e-01 6.72246575e-01 7.03262448e-01 7.60317028e-01 8.14764977e-01 7.43402481e-01 3.80517781e-01 1.03115998e-01 5.46405539e-02 8.89156759e-02 9.77782458e-02 4.34722900e-02 8.83648619e-02 4.52321678e-01 5.51827133e-01 4.90781724e-01 4.34734613e-01 4.19113338e-01 4.21395421e-01 4.29109901e-01 4.41340327e-01 4.59298611e-01 4.82849568e-01 5.11260331e-01 5.43933094e-01 5.79598129e-01 6.14738524e-01 6.44020140e-01 6.63959622e-01 6.75688148e-01 6.83997333e-01 6.95268095e-01 7.14822888e-01 7.43105829e-01 7.61924088e-01 7.15438306e-01 5.27710378e-01 2.33617976e-01 9.75665674e-02 8.89255479e-02 1.44592807e-01 1.72635652e-02 1.05362525e-02 1.01860389e-01 4.65696514e-01 5.41368246e-01 4.79219884e-01 4.30011213e-01 4.13254827e-01 4.13955063e-01 4.20916796e-01 4.31148946e-01 4.45369661e-01 4.64377254e-01 4.88856286e-01 5.19492567e-01 5.55757105e-01 5.94476402e-01 6.30460560e-01 6.59498274e-01 6.80621684e-01 6.96700513e-01 7.13880658e-01 7.36544728e-01 7.58634746e-01 7.48229325e-01 6.34532273e-01 3.74105453e-01 1.58002764e-01 1.05699763e-01 1.41839981e-01 2.05375299e-01 5.12157055e-03 3.56410742e-02 1.65249303e-01 4.78169084e-01 5.28634965e-01 4.68416512e-01 4.25306529e-01 4.07172203e-01 4.05449837e-01 4.11709040e-01 4.21285778e-01 4.33553129e-01 4.49442655e-01 4.70462024e-01 4.98203754e-01 5.32896996e-01 5.71964145e-01 6.10472620e-01 6.43722177e-01 6.69731498e-01 6.90530360e-01 7.11318910e-01 7.35209703e-01 7.54706204e-01 7.40638971e-01 6.36217117e-01 4.08086926e-01 2.19115436e-01 2.11946979e-01 2.61959255e-01 3.18480432e-01 7.31180515e-03 7.70851374e-02 3.62261593e-01 5.10252476e-01 5.13577461e-01 4.58485663e-01 4.21474963e-01 4.02163684e-01 3.97293746e-01 4.02289122e-01 4.11863267e-01 4.23598826e-01 4.37748730e-01 4.55997914e-01 4.80397403e-01 5.11786461e-01 5.48298657e-01 5.85464180e-01 6.18454635e-01 6.44940376e-01 6.66675925e-01 6.88080549e-01 7.11715341e-01 7.32465029e-01 7.31881380e-01 6.80028915e-01 5.63866794e-01 4.64250922e-01 4.73608643e-01 5.26641846e-01 5.16763151e-01 6.59127207e-03 8.24477375e-02 4.10459340e-01 5.13297200e-01 4.91998792e-01 4.50717151e-01 4.20233339e-01 4.00225699e-01 3.92173976e-01 3.95304590e-01 4.04802382e-01 4.16595280e-01 4.29699689e-01 4.45459843e-01 4.66022611e-01 4.92649436e-01 5.24268925e-01 5.57267189e-01 5.87146223e-01 6.11262441e-01 6.30770326e-01 6.49537563e-01 6.70508265e-01 6.91984713e-01 7.05191612e-01 6.98193133e-01 6.68873191e-01 6.46698773e-01 6.64794445e-01 6.94600105e-01 6.55782342e-01 4.59277956e-03 8.13867599e-02 4.11154211e-01 4.96334761e-01 4.73937780e-01 4.45398837e-01 4.21325743e-01 4.02340442e-01 3.92695606e-01 3.94205987e-01 4.03173178e-01 4.14641768e-01 4.26443905e-01 4.39340383e-01 4.55314159e-01 4.75854009e-01 5.00720441e-01 5.27635515e-01 5.53160787e-01 5.74424148e-01 5.90952039e-01 6.05082929e-01 6.20089591e-01 6.37210190e-01 6.53582275e-01 6.64157271e-01 6.67278171e-01 6.69739544e-01 6.79411411e-01 6.90180182e-01 6.58702612e-01 1.11853192e-03 8.06819424e-02 4.11513716e-01 4.83846694e-01 4.61648941e-01 4.41515744e-01 4.24359828e-01 4.09540266e-01 4.01403934e-01 4.02474582e-01 4.10160482e-01 4.19818640e-01 4.28949326e-01 4.37886864e-01 4.48266238e-01 4.61570233e-01 4.78281736e-01 4.97663170e-01 5.18026352e-01 5.37102044e-01 5.52662969e-01 5.63797832e-01 5.71752489e-01 5.78501165e-01 5.84243953e-01 5.86985767e-01 5.85033476e-01 5.80220282e-01 5.77141225e-01 5.84794462e-01 5.82252383e-01 3.03636305e-03 8.80815312e-02 4.30564493e-01 4.86989796e-01 4.63136882e-01 4.47370410e-01 4.36100066e-01 4.27873701e-01 4.24486816e-01 4.26465869e-01 4.31708187e-01 4.37269270e-01 4.41721886e-01 4.45404977e-01 4.49422598e-01 4.54938084e-01 4.62863863e-01 4.73694921e-01 4.87391442e-01 5.03050983e-01 5.18376648e-01 5.29989481e-01 5.35176098e-01 5.32939792e-01 5.22951245e-01 5.05127847e-01 4.81081635e-01 4.56025094e-01 4.38242972e-01 4.45873618e-01 4.80521917e-01 1.58487465e-02 8.79386812e-02 4.65075850e-01 5.10778010e-01 4.79661852e-01 4.66442049e-01 4.57947522e-01 4.53590602e-01 4.53695536e-01 4.56713736e-01 4.60270643e-01 4.62776512e-01 4.64022756e-01 4.64587629e-01 4.65150177e-01 4.66373146e-01 4.68998522e-01 4.73765731e-01 4.81156826e-01 4.91045266e-01 5.02209425e-01 5.12052000e-01 5.17252684e-01 5.14983952e-01 5.03507316e-01 4.82671082e-01 4.55194890e-01 4.27546084e-01 4.07620221e-01 4.06239271e-01 4.34484065e-01 
