# vtk DataFile Version 2.0
results_case1_non_linear/5_density.vtk, Created by Freefem++ 
ASCII
DATASET UNSTRUCTURED_GRID
POINTS 961 float
0 0 0
0.033333333 0 0
0.066666667 0 0
0.1 0 0
0.13333333 0 0
0.16666667 0 0
0.2 0 0
0.23333333 0 0
0.26666667 0 0
0.3 0 0
0.33333333 0 0
0.36666667 0 0
0.4 0 0
0.43333333 0 0
0.46666667 0 0
0.5 0 0
0.53333333 0 0
0.56666667 0 0
0.6 0 0
0.63333333 0 0
0.66666667 0 0
0.7 0 0
0.73333333 0 0
0.76666667 0 0
0.8 0 0
0.83333333 0 0
0.86666667 0 0
0.9 0 0
0.93333333 0 0
0.96666667 0 0
1 0 0
0 0.033333333 0
0.033333333 0.033333333 0
0.066666667 0.033333333 0
0.1 0.033333333 0
0.13333333 0.033333333 0
0.16666667 0.033333333 0
0.2 0.033333333 0
0.23333333 0.033333333 0
0.26666667 0.033333333 0
0.3 0.033333333 0
0.33333333 0.033333333 0
0.36666667 0.033333333 0
0.4 0.033333333 0
0.43333333 0.033333333 0
0.46666667 0.033333333 0
0.5 0.033333333 0
0.53333333 0.033333333 0
0.56666667 0.033333333 0
0.6 0.033333333 0
0.63333333 0.033333333 0
0.66666667 0.033333333 0
0.7 0.033333333 0
0.73333333 0.033333333 0
0.76666667 0.033333333 0
0.8 0.033333333 0
0.83333333 0.033333333 0
0.86666667 0.033333333 0
0.9 0.033333333 0
0.93333333 0.033333333 0
0.96666667 0.033333333 0
1 0.033333333 0
0 0.066666667 0
0.033333333 0.066666667 0
0.066666667 0.066666667 0
0.1 0.066666667 0
0.13333333 0.066666667 0
0.16666667 0.066666667 0
0.2 0.066666667 0
0.23333333 0.066666667 0
0.26666667 0.066666667 0
0.3 0.066666667 0
0.33333333 0.066666667 0
0.36666667 0.066666667 0
0.4 0.066666667 0
0.43333333 0.066666667 0
0.46666667 0.066666667 0
0.5 0.066666667 0
0.53333333 0.066666667 0
0.56666667 0.066666667 0
0.6 0.066666667 0
0.63333333 0.066666667 0
0.66666667 0.066666667 0
0.7 0.066666667 0
0.73333333 0.066666667 0
0.76666667 0.066666667 0
0.8 0.066666667 0
0.83333333 0.066666667 0
0.86666667 0.066666667 0
0.9 0.066666667 0
0.93333333 0.066666667 0
0.96666667 0.066666667 0
1 0.066666667 0
0 0.1 0
0.033333333 0.1 0
0.066666667 0.1 0
0.1 0.1 0
0.13333333 0.1 0
0.16666667 0.1 0
0.2 0.1 0
0.23333333 0.1 0
0.26666667 0.1 0
0.3 0.1 0
0.33333333 0.1 0
0.36666667 0.1 0
0.4 0.1 0
0.43333333 0.1 0
0.46666667 0.1 0
0.5 0.1 0
0.53333333 0.1 0
0.56666667 0.1 0
0.6 0.1 0
0.63333333 0.1 0
0.66666667 0.1 0
0.7 0.1 0
0.73333333 0.1 0
0.76666667 0.1 0
0.8 0.1 0
0.83333333 0.1 0
0.86666667 0.1 0
0.9 0.1 0
0.93333333 0.1 0
0.96666667 0.1 0
1 0.1 0
0 0.13333333 0
0.033333333 0.13333333 0
0.066666667 0.13333333 0
0.1 0.13333333 0
0.13333333 0.13333333 0
0.16666667 0.13333333 0
0.2 0.13333333 0
0.23333333 0.13333333 0
0.26666667 0.13333333 0
0.3 0.13333333 0
0.33333333 0.13333333 0
0.36666667 0.13333333 0
0.4 0.13333333 0
0.43333333 0.13333333 0
0.46666667 0.13333333 0
0.5 0.13333333 0
0.53333333 0.13333333 0
0.56666667 0.13333333 0
0.6 0.13333333 0
0.63333333 0.13333333 0
0.66666667 0.13333333 0
0.7 0.13333333 0
0.73333333 0.13333333 0
0.76666667 0.13333333 0
0.8 0.13333333 0
0.83333333 0.13333333 0
0.86666667 0.13333333 0
0.9 0.13333333 0
0.93333333 0.13333333 0
0.96666667 0.13333333 0
1 0.13333333 0
0 0.16666667 0
0.033333333 0.16666667 0
0.066666667 0.16666667 0
0.1 0.16666667 0
0.13333333 0.16666667 0
0.16666667 0.16666667 0
0.2 0.16666667 0
0.23333333 0.16666667 0
0.26666667 0.16666667 0
0.3 0.16666667 0
0.33333333 0.16666667 0
0.36666667 0.16666667 0
0.4 0.16666667 0
0.43333333 0.16666667 0
0.46666667 0.16666667 0
0.5 0.16666667 0
0.53333333 0.16666667 0
0.56666667 0.16666667 0
0.6 0.16666667 0
0.63333333 0.16666667 0
0.66666667 0.16666667 0
0.7 0.16666667 0
0.73333333 0.16666667 0
0.76666667 0.16666667 0
0.8 0.16666667 0
0.83333333 0.16666667 0
0.86666667 0.16666667 0
0.9 0.16666667 0
0.93333333 0.16666667 0
0.96666667 0.16666667 0
1 0.16666667 0
0 0.2 0
0.033333333 0.2 0
0.066666667 0.2 0
0.1 0.2 0
0.13333333 0.2 0
0.16666667 0.2 0
0.2 0.2 0
0.23333333 0.2 0
0.26666667 0.2 0
0.3 0.2 0
0.33333333 0.2 0
0.36666667 0.2 0
0.4 0.2 0
0.43333333 0.2 0
0.46666667 0.2 0
0.5 0.2 0
0.53333333 0.2 0
0.56666667 0.2 0
0.6 0.2 0
0.63333333 0.2 0
0.66666667 0.2 0
0.7 0.2 0
0.73333333 0.2 0
0.76666667 0.2 0
0.8 0.2 0
0.83333333 0.2 0
0.86666667 0.2 0
0.9 0.2 0
0.93333333 0.2 0
0.96666667 0.2 0
1 0.2 0
0 0.23333333 0
0.033333333 0.23333333 0
0.066666667 0.23333333 0
0.1 0.23333333 0
0.13333333 0.23333333 0
0.16666667 0.23333333 0
0.2 0.23333333 0
0.23333333 0.23333333 0
0.26666667 0.23333333 0
0.3 0.23333333 0
0.33333333 0.23333333 0
0.36666667 0.23333333 0
0.4 0.23333333 0
0.43333333 0.23333333 0
0.46666667 0.23333333 0
0.5 0.23333333 0
0.53333333 0.23333333 0
0.56666667 0.23333333 0
0.6 0.23333333 0
0.63333333 0.23333333 0
0.66666667 0.23333333 0
0.7 0.23333333 0
0.73333333 0.23333333 0
0.76666667 0.23333333 0
0.8 0.23333333 0
0.83333333 0.23333333 0
0.86666667 0.23333333 0
0.9 0.23333333 0
0.93333333 0.23333333 0
0.96666667 0.23333333 0
1 0.23333333 0
0 0.26666667 0
0.033333333 0.26666667 0
0.066666667 0.26666667 0
0.1 0.26666667 0
0.13333333 0.26666667 0
0.16666667 0.26666667 0
0.2 0.26666667 0
0.23333333 0.26666667 0
0.26666667 0.26666667 0
0.3 0.26666667 0
0.33333333 0.26666667 0
0.36666667 0.26666667 0
0.4 0.26666667 0
0.43333333 0.26666667 0
0.46666667 0.26666667 0
0.5 0.26666667 0
0.53333333 0.26666667 0
0.56666667 0.26666667 0
0.6 0.26666667 0
0.63333333 0.26666667 0
0.66666667 0.26666667 0
0.7 0.26666667 0
0.73333333 0.26666667 0
0.76666667 0.26666667 0
0.8 0.26666667 0
0.83333333 0.26666667 0
0.86666667 0.26666667 0
0.9 0.26666667 0
0.93333333 0.26666667 0
0.96666667 0.26666667 0
1 0.26666667 0
0 0.3 0
0.033333333 0.3 0
0.066666667 0.3 0
0.1 0.3 0
0.13333333 0.3 0
0.16666667 0.3 0
0.2 0.3 0
0.23333333 0.3 0
0.26666667 0.3 0
0.3 0.3 0
0.33333333 0.3 0
0.36666667 0.3 0
0.4 0.3 0
0.43333333 0.3 0
0.46666667 0.3 0
0.5 0.3 0
0.53333333 0.3 0
0.56666667 0.3 0
0.6 0.3 0
0.63333333 0.3 0
0.66666667 0.3 0
0.7 0.3 0
0.73333333 0.3 0
0.76666667 0.3 0
0.8 0.3 0
0.83333333 0.3 0
0.86666667 0.3 0
0.9 0.3 0
0.93333333 0.3 0
0.96666667 0.3 0
1 0.3 0
0 0.33333333 0
0.033333333 0.33333333 0
0.066666667 0.33333333 0
0.1 0.33333333 0
0.13333333 0.33333333 0
0.16666667 0.33333333 0
0.2 0.33333333 0
0.23333333 0.33333333 0
0.26666667 0.33333333 0
0.3 0.33333333 0
0.33333333 0.33333333 0
0.36666667 0.33333333 0
0.4 0.33333333 0
0.43333333 0.33333333 0
0.46666667 0.33333333 0
0.5 0.33333333 0
0.53333333 0.33333333 0
0.56666667 0.33333333 0
0.6 0.33333333 0
0.63333333 0.33333333 0
0.66666667 0.33333333 0
0.7 0.33333333 0
0.73333333 0.33333333 0
0.76666667 0.33333333 0
0.8 0.33333333 0
0.83333333 0.33333333 0
0.86666667 0.33333333 0
0.9 0.33333333 0
0.93333333 0.33333333 0
0.96666667 0.33333333 0
1 0.33333333 0
0 0.36666667 0
0.033333333 0.36666667 0
0.066666667 0.36666667 0
0.1 0.36666667 0
0.13333333 0.36666667 0
0.16666667 0.36666667 0
0.2 0.36666667 0
0.23333333 0.36666667 0
0.26666667 0.36666667 0
0.3 0.36666667 0
0.33333333 0.36666667 0
0.36666667 0.36666667 0
0.4 0.36666667 0
0.43333333 0.36666667 0
0.46666667 0.36666667 0
0.5 0.36666667 0
0.53333333 0.36666667 0
0.56666667 0.36666667 0
0.6 0.36666667 0
0.63333333 0.36666667 0
0.66666667 0.36666667 0
0.7 0.36666667 0
0.73333333 0.36666667 0
0.76666667 0.36666667 0
0.8 0.36666667 0
0.83333333 0.36666667 0
0.86666667 0.36666667 0
0.9 0.36666667 0
0.93333333 0.36666667 0
0.96666667 0.36666667 0
1 0.36666667 0
0 0.4 0
0.033333333 0.4 0
0.066666667 0.4 0
0.1 0.4 0
0.13333333 0.4 0
0.16666667 0.4 0
0.2 0.4 0
0.23333333 0.4 0
0.26666667 0.4 0
0.3 0.4 0
0.33333333 0.4 0
0.36666667 0.4 0
0.4 0.4 0
0.43333333 0.4 0
0.46666667 0.4 0
0.5 0.4 0
0.53333333 0.4 0
0.56666667 0.4 0
0.6 0.4 0
0.63333333 0.4 0
0.66666667 0.4 0
0.7 0.4 0
0.73333333 0.4 0
0.76666667 0.4 0
0.8 0.4 0
0.83333333 0.4 0
0.86666667 0.4 0
0.9 0.4 0
0.93333333 0.4 0
0.96666667 0.4 0
1 0.4 0
0 0.43333333 0
0.033333333 0.43333333 0
0.066666667 0.43333333 0
0.1 0.43333333 0
0.13333333 0.43333333 0
0.16666667 0.43333333 0
0.2 0.43333333 0
0.23333333 0.43333333 0
0.26666667 0.43333333 0
0.3 0.43333333 0
0.33333333 0.43333333 0
0.36666667 0.43333333 0
0.4 0.43333333 0
0.43333333 0.43333333 0
0.46666667 0.43333333 0
0.5 0.43333333 0
0.53333333 0.43333333 0
0.56666667 0.43333333 0
0.6 0.43333333 0
0.63333333 0.43333333 0
0.66666667 0.43333333 0
0.7 0.43333333 0
0.73333333 0.43333333 0
0.76666667 0.43333333 0
0.8 0.43333333 0
0.83333333 0.43333333 0
0.86666667 0.43333333 0
0.9 0.43333333 0
0.93333333 0.43333333 0
0.96666667 0.43333333 0
1 0.43333333 0
0 0.46666667 0
0.033333333 0.46666667 0
0.066666667 0.46666667 0
0.1 0.46666667 0
0.13333333 0.46666667 0
0.16666667 0.46666667 0
0.2 0.46666667 0
0.23333333 0.46666667 0
0.26666667 0.46666667 0
0.3 0.46666667 0
0.33333333 0.46666667 0
0.36666667 0.46666667 0
0.4 0.46666667 0
0.43333333 0.46666667 0
0.46666667 0.46666667 0
0.5 0.46666667 0
0.53333333 0.46666667 0
0.56666667 0.46666667 0
0.6 0.46666667 0
0.63333333 0.46666667 0
0.66666667 0.46666667 0
0.7 0.46666667 0
0.73333333 0.46666667 0
0.76666667 0.46666667 0
0.8 0.46666667 0
0.83333333 0.46666667 0
0.86666667 0.46666667 0
0.9 0.46666667 0
0.93333333 0.46666667 0
0.96666667 0.46666667 0
1 0.46666667 0
0 0.5 0
0.033333333 0.5 0
0.066666667 0.5 0
0.1 0.5 0
0.13333333 0.5 0
0.16666667 0.5 0
0.2 0.5 0
0.23333333 0.5 0
0.26666667 0.5 0
0.3 0.5 0
0.33333333 0.5 0
0.36666667 0.5 0
0.4 0.5 0
0.43333333 0.5 0
0.46666667 0.5 0
0.5 0.5 0
0.53333333 0.5 0
0.56666667 0.5 0
0.6 0.5 0
0.63333333 0.5 0
0.66666667 0.5 0
0.7 0.5 0
0.73333333 0.5 0
0.76666667 0.5 0
0.8 0.5 0
0.83333333 0.5 0
0.86666667 0.5 0
0.9 0.5 0
0.93333333 0.5 0
0.96666667 0.5 0
1 0.5 0
0 0.53333333 0
0.033333333 0.53333333 0
0.066666667 0.53333333 0
0.1 0.53333333 0
0.13333333 0.53333333 0
0.16666667 0.53333333 0
0.2 0.53333333 0
0.23333333 0.53333333 0
0.26666667 0.53333333 0
0.3 0.53333333 0
0.33333333 0.53333333 0
0.36666667 0.53333333 0
0.4 0.53333333 0
0.43333333 0.53333333 0
0.46666667 0.53333333 0
0.5 0.53333333 0
0.53333333 0.53333333 0
0.56666667 0.53333333 0
0.6 0.53333333 0
0.63333333 0.53333333 0
0.66666667 0.53333333 0
0.7 0.53333333 0
0.73333333 0.53333333 0
0.76666667 0.53333333 0
[...]
CELL_DATA 1920
Scalars  Label int 1
LOOKUP_TABLE FreeFempp_table
0
0
0
0
0
0
0
0
0
0
0
0
0
0
0
0
0
0
0
0
0
0
0
0
0
0
0
0
0
0
0
0
0
0
0
0
0
0
0
0
0
0
0
0
0
0
0
0
0
0
0
0
0
0
0
0
0
0
0
0
0
0
0
0
0
0
0
0
0
0
0
0
0
0
0
0
0
0
0
0
0
0
0
0
0
0
0
0
0
0
0
0
0
0
0
0
0
0
0
0
0
0
0
0
0
0
0
0
0
0
0
0
0
0
0
0
0
0
0
0
0
0
0
0
0
0
0
0
0
0
0
0
0
0
0
0
0
0
0
0
0
0
0
0
0
0
0
0
0
0
0
0
0
0
0
0
0
0
0
0
0
0
0
0
0
0
0
0
0
0
0
0
0
0
0
0
0
0
0
0
0
0
0
0
0
0
0
0
0
0
0
0
0
0
0
0
0
0
0
0
0
0
0
0
0
0
0
0
0
0
0
0
0
0
0
0
0
0
0
0
0
0
0
0
0
0
0
0
0
0
0
0
0
0
0
0
0
0
0
0
0
0
0
0
0
0
0
0
0
0
0
0
0
0
0
0
0
0
0
0
0
0
0
0
0
0
0
0
0
0
0
0
0
0
0
0
0
0
0
0
0
0
0
0
0
0
0
0
0
0
0
0
0
0
0
0
0
0
0
0
0
0
0
0
0
0
0
0
0
0
0
0
0
0
0
0
0
0
0
0
0
0
0
0
0
0
0
0
0
0
0
0
0
0
0
0
0
0
0
0
0
0
0
0
0
0
0
0
0
0
0
0
0
0
0
0
0
0
0
0
0
0
0
0
0
0
0
0
0
0
0
0
0
0
0
0
0
0
0
0
0
0
0
0
0
0
0
0
0
0
0
0
0
0
0
0
0
0
0
0
0
0
0
0
0
0
0
0
0
0
0
0
0
0
0
0
0
0
0
0
0
0
0
0
0
0
0
0
0
0
0
0
0
0
0
0
0
0
0
0
0
0
0
0
0
0
0
0
0
0
0
0
0
0
0
0
0
0
0
0
0
0
0
0
0
0
0
0
0
0
0
0
0
0
0
0
0
0
0
0
0
0
0
0
0
0
0
0
0
0
0
0
0
0
0
0
0
0
0
0
0
0
0
0
0
0
0
0
0
0
0
0
0
0
0
0
0
0
0
0
0
0
0
0
0
0
0
0
0
0
0
0
0
0
0
0
0
0
0
0
0
0
0
0
0
0
0
0
0
0
0
0
0
0
0
0
0
0
0
0
0
0
0
0
0
0
0
0
0
0
0
0
0
0
0
0
0
0
0
0
0
0
0
0
0
0
0
0
0
0
0
0
0
0
0
0
0
0
0
0
0
0
0
0
0
0
0
0
0
0
0
0
0
0
0
0
0
0
0
0
0
0
0
0
0
0
0
0
0
0
0
0
0
0
0
0
0
0
0
0
0
0
0
0
0
0
0
0
0
0
0
0
0
0
0
0
0
0
0
0
0
0
0
0
0
0
0
0
0
0
0
0
0
0
0
0
0
0
0
0
0
0
0
0
0
0
0
0
0
0
0
0
0
0
0
0
0
0
0
0
0
0
0
0
0
0
0
0
0
0
0
0
0
0
0
0
0
0
0
0
0
0
0
0
0
0
0
0
0
0
0
0
0
0
0
0
0
0
0
0
0
0
0
0
0
0
0
0
0
0
0
0
0
0
0
0
0
0
0
0
0
0
0
0
0
0
0
0
0
0
0
0
0
0
0
0
0
0
0
0
0
0
0
0
0
0
0
0
0
0
0
0
0
0
0
0
0
0
0
0
0
0
0
0
0
0
0
0
0
0
0
0
0
0
0
0
0
0
0
0
0
0
0
0
0
0
0
0
0
0
0
0
0
0
0
0
0
0
0
0
0
0
0
0
0
0
0
0
0
0
0
0
0
0
0
0
0
0
0
0
0
0
0
0
0
0
0
0
0
0
0
0
0
0
0
0
0
0
0
0
0
0
0
0
0
0
0
0
0
0
0
0
0
0
0
0
0
0
0
0
0
0
0
0
0
0
0
0
0
0
0
0
0
0
0
0
0
0
0
0
0
0
0
0
0
0
0
0
0
0
0
0
0
0
0
0
0
0
0
0
0
0
0
0
0
0
0
0
0
0
0
0
0
0
0
0
0
0
0
0
0
0
0
0
0
0
0
0
0
0
0
0
0
0
0
0
0
0
0
0
0
0
0
0
0
0
0
0
0
0
0
0
0
0
0
0
0
0
0
0
0
0
0
0
0
0
0
0
0
0
0
0
0
0
0
0
0
0
0
0
0
0
0
0
0
0
0
0
0
0
0
0
0
0
0
0
0
0
0
0
0
0
0
0
0
0
0
0
0
0
0
0
0
0
0
0
0
0
0
0
0
0
0
0
0
0
0
0
0
0
0
0
0
0
0
0
0
0
0
0
0
0
0
0
0
0
0
0
0
0
0
0
0
0
0
0
0
0
0
0
0
0
0
0
0
0
0
0
0
0
0
0
0
0
0
0
0
0
0
0
0
0
0
0
0
0
0
0
0
0
0
0
0
0
0
0
0
0
0
0
0
0
0
0
0
0
0
0
0
0
0
0
0
0
0
0
0
0
0
0
0
0
0
0
0
0
0
0
0
0
0
0
0
0
0
0
0
0
0
0
0
0
0
0
0
0
0
0
0
0
0
0
0
0
0
0
0
0
0
0
0
0
0
0
0
0
0
0
0
0
0
0
0
0
0
0
0
0
0
0
0
0
0
0
0
0
0
0
0
0
0
0
0
0
0
0
0
0
0
0
0
0
0
0
0
0
0
0
0
0
0
0
0
0
0
0
0
0
0
0
0
0
0
0
0
0
0
0
0
0
0
0
0
0
0
0
0
0
0
0
0
0
0
0
0
0
0
0
0
0
0
0
0
0
0
0
0
0
0
0
0
0
0
0
0
0
0
0
0
0
0
0
0
0
0
0
0
0
0
0
0
0
0
0
0
0
0
0
0
0
0
0
0
0
0
0
0
0
0
0
0
0
0
0
0
0
0
0
0
0
0
0
0
0
0
0
0
0
0
0
0
0
0
0
0
0
0
0
0
0
0
0
0
0
0
0
0
0
0
0
0
0
0
0
0
0
0
0
0
0
0
0
0
0
0
0
0
0
0
0
0
0
0
0
0
0
0
0
0
0
0
0
0
0
0
0
0
0
0
0
0
0
0
0
0
0
0
0
0
0
0
0
0
0
0
0
0
0
0
0
0
0
0
0
0
0
0
0
0
0
0
0
0
0
0
0
0
0
0
0
0
0
0
0
0
0
0
0
0
0
0
0
0
0
0
0
0
0
0
0
0
0
0
0
0
0
0
0
0
0
0
0
0
0
0
0
0
0
0
0
0
0
0
0
0
0
0
0
0
0
0
0
0
0
0
0
0
0
0
0
0
0
0
0
0
0
0
0
0
0
0
0
0
0
0
0
0
0
0
0
0
0
0
0
0
0
0
0
0
0
0
0
0
0
0
0
0
0
0
0
0
0
0
0
0
0
0
0
0
0
0
0
0
0
0
0
0
0
0
0
0
0
0
0
0
0
0
0
0
0
0
0
0
0
0
0
0
0
0
0
0
0
0
0
0
0
0
0
0
0
0
0
0
0
0
0
0
0
0
0
0
0
0
0
0
0
0
0
0
0
0
0
0
0
0
0
0
0
0
0
0
0
0
0
0
0
0
0
0
0
0
0
0
0
0
0
0
0
0
0
0
0
0
0
0
0
0
0
0
0
0
0
0
0
0
0
0
0
0
0
0
0
0
0
0
0
0
0
0
0
0
0
0
0
0
0
0
0
0
0
0
0
0
0
0
0
0
0
0
0
0
0
0
0
0
0
0
0
0
0
0
0
0
0
0
0
0
0
0
0
0
0
0
0
0
0
0
0
0
0
0
0
0
0
0
0
0
0
0
0
0
0
0
0
0
0
0
0
0
0
0
0
0
0
0
0
0
0
0
0
0
0
0
0
0
0
0
0
0
0
0
0
0
0
0
0
0
0
0
0
0
0
0
0
0
0
0
0
0
0
1
1
1
1
1
1
1
1
1
1
1
1
1
1
1
1
1
1
1
1
1
1
1
1
1
1
1
1
1
1
2
2
2
2
2
2
2
2
2
2
2
2
2
2
2
2
2
2
2
2
2
2
2
2
2
2
2
2
2
2
3
3
3
3
3
3
3
3
3
3
3
3
3
3
3
3
3
3
3
3
3
3
3
3
3
3
3
3
3
3
4
4
4
4
4
4
4
4
4
4
4
4
4
4
4
4
4
4
4
4
4
4
4
4
4
4
4
4
4
4

LOOKUP_TABLE FreeFempp_table 5
1.00000000 0.00000000 0.00000000 1.00000000
1.00000000 1.00000000 0.00000000 1.00000000
1.00000000 0.00000000 1.00000000 1.00000000
0.00000000 1.00000000 0.00000000 1.00000000
0.00000000 1.00000000 1.00000000 1.00000000

POINT_DATA 961
FIELD FieldData 1
Density 1 961 float
1.03196099e-01 1.03457756e-01 1.01134658e-01 9.98094156e-02 1.01624198e-01 1.06609792e-01 1.13542423e-01 1.21052235e-01 1.27333686e-01 1.30233809e-01 1.29340559e-01 1.25621572e-01 1.20604366e-01 1.16386473e-01 1.15191542e-01 1.17570445e-01 1.20744810e-01 1.21343844e-01 1.17893584e-01 1.10428803e-01 1.06024198e-01 1.20717101e-01 1.62743196e-01 2.29358390e-01 3.01522613e-01 3.70366901e-01 4.30880934e-01 4.79477137e-01 5.14160514e-01 5.33981860e-01 5.39140105e-01 1.22709580e-01 1.19498141e-01 1.14724994e-01 1.11583605e-01 1.11644648e-01 1.14654563e-01 1.19466163e-01 1.24815248e-01 1.29225805e-01 1.31212637e-01 1.30026221e-01 1.25987560e-01 1.20194323e-01 1.14754237e-01 1.12221532e-01 1.13835283e-01 1.16912484e-01 1.17620833e-01 1.14900053e-01 1.09671451e-01 1.06799997e-01 1.20479703e-01 1.60192013e-01 2.26103529e-01 2.98864186e-01 3.68170112e-01 4.29314286e-01 4.78580952e-01 5.13856530e-01 5.34250021e-01 5.40225148e-01 1.83596060e-01 1.75569385e-01 1.64579198e-01 1.56784147e-01 1.54082716e-01 1.55092329e-01 1.58113286e-01 1.61705479e-01 1.64536595e-01 1.65233284e-01 1.62786290e-01 1.56384945e-01 1.45954743e-01 1.34539858e-01 1.26552120e-01 1.22728340e-01 1.20948322e-01 1.18591815e-01 1.14811182e-01 1.10859863e-01 1.10603862e-01 1.23411566e-01 1.59299895e-01 2.21479490e-01 2.93269873e-01 3.62945884e-01 4.25146341e-01 4.75625843e-01 5.11935234e-01 5.33084750e-01 5.39516151e-01 2.68513113e-01 2.64087051e-01 2.55443156e-01 2.48240918e-01 2.45043337e-01 2.45531276e-01 2.48193070e-01 2.51470178e-01 2.53836721e-01 2.53776789e-01 2.49834105e-01 2.40080163e-01 2.21863568e-01 1.97732449e-01 1.79087073e-01 1.67335108e-01 1.58851698e-01 1.50898606e-01 1.42557219e-01 1.34540081e-01 1.29240617e-01 1.33904815e-01 1.60298407e-01 2.14675292e-01 2.85013109e-01 3.55461895e-01 4.19169962e-01 4.71228123e-01 5.08802414e-01 5.30765235e-01 5.37512302e-01 3.45435172e-01 3.45201522e-01 3.42592895e-01 3.40519756e-01 3.40821087e-01 3.43710780e-01 3.48314643e-01 3.53300840e-01 3.57157439e-01 3.58303338e-01 3.55203509e-01 3.46361101e-01 3.30339968e-01 3.07878345e-01 2.85040200e-01 2.65630633e-01 2.48627797e-01 2.31835037e-01 2.14207217e-01 1.95835397e-01 1.77280337e-01 1.61917478e-01 1.67577699e-01 2.05516890e-01 2.72698879e-01 3.45506787e-01 4.11735237e-01 4.65955079e-01 5.05097926e-01 5.27978718e-01 5.35025775e-01 3.88910651e-01 3.91248405e-01 3.92860353e-01 3.95497054e-01 4.00585204e-01 4.08231199e-01 4.17631716e-01 4.27453369e-01 4.36153561e-01 4.42133456e-01 4.43906099e-01 4.40331429e-01 4.30925250e-01 4.16325301e-01 3.98338407e-01 3.78235996e-01 3.56355339e-01 3.32260609e-01 3.05543751e-01 2.76394516e-01 2.45353833e-01 2.13058934e-01 1.89686611e-01 2.01932013e-01 2.56350964e-01 3.32641780e-01 4.03096676e-01 4.60265994e-01 5.01350820e-01 5.25281906e-01 5.32625616e-01 3.90588343e-01 3.93571138e-01 3.97189051e-01 4.02951002e-01 4.12418395e-01 4.25778747e-01 4.42117691e-01 4.59713995e-01 4.76556987e-01 4.90721315e-01 5.00653505e-01 5.05429983e-01 5.04838228e-01 4.99265999e-01 4.89180297e-01 4.74421680e-01 4.54467654e-01 4.28850591e-01 3.97314548e-01 3.60104233e-01 3.18043768e-01 2.72077441e-01 2.26637006e-01 2.10688621e-01 2.42366865e-01 3.17890197e-01 3.93553257e-01 4.54434842e-01 4.97880995e-01 5.23029625e-01 5.30676425e-01 3.57312679e-01 3.58916163e-01 3.61964613e-01 3.68669301e-01 3.81168962e-01 4.00163829e-01 4.24785703e-01 4.52512950e-01 4.80058134e-01 5.04616201e-01 5.24434566e-01 5.38870335e-01 5.48018575e-01 5.52214622e-01 5.51502168e-01 5.45223951e-01 5.32152295e-01 5.10954440e-01 4.80564713e-01 4.40526575e-01 3.91440332e-01 3.35215718e-01 2.75273353e-01 2.31453329e-01 2.39880890e-01 3.03663075e-01 3.83001864e-01 4.48336184e-01 4.94706988e-01 5.21317422e-01 5.29294491e-01 3.04100543e-01 3.03204298e-01 3.03778976e-01 3.09883833e-01 3.24338287e-01 3.48433048e-01 3.81425202e-01 4.19864625e-01 4.58705097e-01 4.93767053e-01 5.23070753e-01 5.46460390e-01 5.64530194e-01 5.77806294e-01 5.86283445e-01 5.89203775e-01 5.85099280e-01 5.72042227e-01 5.47979176e-01 5.11154532e-01 4.60807115e-01 3.98038208e-01 3.25975448e-01 2.59751350e-01 2.44082659e-01 2.87247926e-01 3.69820803e-01 4.41489100e-01 4.91611958e-01 5.20012856e-01 5.28365314e-01 2.46291906e-01 2.43229777e-01 2.41593838e-01 2.47700542e-01 2.64562696e-01 2.93510169e-01 3.33704263e-01 3.80847692e-01 4.28429425e-01 4.71287370e-01 5.07426858e-01 5.37249327e-01 5.61870933e-01 5.82095742e-01 5.98037601e-01 6.09022260e-01 6.13616288e-01 6.09733641e-01 5.94790459e-01 5.65942824e-01 5.20653486e-01 4.57993835e-01 3.80292356e-01 2.98889875e-01 2.57737607e-01 2.79960722e-01 3.57669741e-01 4.34121877e-01 4.88264471e-01 5.18760502e-01 5.27547121e-01 1.94419354e-01 1.90312684e-01 1.88592285e-01 1.96572915e-01 2.16794342e-01 2.50338584e-01 2.96006650e-01 3.48642528e-01 4.00876552e-01 4.47331071e-01 4.86565083e-01 5.19530058e-01 5.47651768e-01 5.71913481e-01 5.92595518e-01 6.09212279e-01 6.20513797e-01 6.24547243e-01 6.18753135e-01 6.00000203e-01 5.64614832e-01 5.09217262e-01 4.33623761e-01 3.45794678e-01 2.79101163e-01 2.80027539e-01 3.46429557e-01 4.24996257e-01 4.83639985e-01 5.16839147e-01 5.26215076e-01 1.53381884e-01 1.49321496e-01 1.49584860e-01 1.60746783e-01 1.84980974e-01 2.23030418e-01 2.72693098e-01 3.27722043e-01 3.80610526e-01 4.26850975e-01 4.65868592e-01 4.98992920e-01 5.27722180e-01 5.53080499e-01 5.75477660e-01 5.94629824e-01 6.09494448e-01 6.18349075e-01 6.19079173e-01 6.09344602e-01 5.85861146e-01 5.43416977e-01 4.76822168e-01 3.87447506e-01 3.02429438e-01 2.81078398e-01 3.29200625e-01 4.11162853e-01 4.76432413e-01 5.13388932e-01 5.23612797e-01 1.23558208e-01 1.20474525e-01 1.23595923e-01 1.38559252e-01 1.67390421e-01 2.10081562e-01 2.62434602e-01 3.17120135e-01 3.67719531e-01 4.11272705e-01 4.47893023e-01 4.78992581e-01 5.05991459e-01 5.29892623e-01 5.51185012e-01 5.69706738e-01 5.84456265e-01 5.93659997e-01 5.95604181e-01 5.90039372e-01 5.77002943e-01 5.51644146e-01 5.03515303e-01 4.24845636e-01 3.30872238e-01 2.86390036e-01 3.12118530e-01 3.93304408e-01 4.66154009e-01 5.07730067e-01 5.19030154e-01 1.02791153e-01 1.01515502e-01 1.07835628e-01 1.27060011e-01 1.61163479e-01 2.08315596e-01 2.61694372e-01 3.14049631e-01 3.60863864e-01 4.00579721e-01 4.33666080e-01 4.61399674e-01 4.85048592e-01 5.05562961e-01 5.23454726e-01 5.38565457e-01 5.49649477e-01 5.54183483e-01 5.49773812e-01 5.38808048e-01 5.29858887e-01 5.23376048e-01 5.03424227e-01 4.51713741e-01 3.67134660e-01 2.99480438e-01 3.03749382e-01 3.74542356e-01 4.52067167e-01 4.98841733e-01 5.11521339e-01 8.88790265e-02 8.99160579e-02 9.97588411e-02 1.23847298e-01 1.63760573e-01 2.14249164e-01 2.66998500e-01 3.16072553e-01 3.58722180e-01 3.94331753e-01 4.23483253e-01 4.47256684e-01 4.66736227e-01 4.82772768e-01 4.95827496e-01 5.05635321e-01 5.10490835e-01 5.06459475e-01 4.88783509e-01 4.60751057e-01 4.43206370e-01 4.51210767e-01 4.64910358e-01 4.52606052e-01 3.92774701e-01 3.13990861e-01 2.97117561e-01 3.51598620e-01 4.32052583e-01 4.85176593e-01 4.99843061e-01 8.08327422e-02 8.39979202e-02 9.76346284e-02 1.27247527e-01 1.72622696e-01 2.24863350e-01 2.75919914e-01 3.21548700e-01 3.60267967e-01 3.91974956e-01 4.17290956e-01 4.37130570e-01 4.52397734e-01 4.63808328e-01 4.71719682e-01 4.75734800e-01 4.73784298e-01 4.60755229e-01 4.29262370e-01 3.81727427e-01 3.45950186e-01 3.51810217e-01 3.88870776e-01 4.19592112e-01 4.02139783e-01 3.31481546e-01 2.93551534e-01 3.23221147e-01 4.04372990e-01 4.65649784e-01 4.83142555e-01 7.78422505e-02 8.26302990e-02 1.00162610e-01 1.35929078e-01 1.85336515e-01 2.38011941e-01 2.86935747e-01 3.29385608e-01 3.64634246e-01 3.92887115e-01 4.14803386e-01 4.31193292e-01 4.42819566e-01 4.50270772e-01 4.53806579e-01 4.52981025e-01 4.45754588e-01 4.27039385e-01 3.88804823e-01 3.31010073e-01 2.82667398e-01 2.72381902e-01 3.03041130e-01 3.58349651e-01 3.88109595e-01 3.56417209e-01 3.00558239e-01 3.04275155e-01 3.71881783e-01 4.40784276e-01 4.61664677e-01 7.86566436e-02 8.48011672e-02 1.06156968e-01 1.47970408e-01 2.00131327e-01 2.52314240e-01 2.99082696e-01 3.38728070e-01 3.71011078e-01 3.96365434e-01 4.15503412e-01 4.29186136e-01 4.38087821e-01 4.42708582e-01 4.43248749e-01 4.39297676e-01 4.29122984e-01 4.08507645e-01 3.70522499e-01 3.12176436e-01 2.52992719e-01 2.25889429e-01 2.37050489e-01 2.85948575e-01 3.43339622e-01 3.55983973e-01 3.11994106e-01 2.93923825e-01 3.35526198e-01 4.10524368e-01 4.36351866e-01 8.21094662e-02 8.97087455e-02 1.15005709e-01 1.61667272e-01 2.15711668e-01 2.66954750e-01 3.11659783e-01 3.48833859e-01 3.78620446e-01 4.01641190e-01 4.18668181e-01 4.30447072e-01 4.37603772e-01 4.40583408e-01 4.39548194e-01 4.34127152e-01 4.22873735e-01 4.02405769e-01 3.67067784e-01 3.12641054e-01 2.48807132e-01 2.04624966e-01 1.95515484e-01 2.21668333e-01 2.78171182e-01 3.26231658e-01 3.26735556e-01 2.98939288e-01 3.14754844e-01 3.78097892e-01 4.07998234e-01 8.76089260e-02 9.69384909e-02 1.26910910e-01 1.76852599e-01 2.31547236e-01 2.81450719e-01 3.24094921e-01 3.59044313e-01 3.86736870e-01 4.07936811e-01 4.23464209e-01 4.34059024e-01 4.40315276e-01 4.42632973e-01 4.41128194e-01 4.35421109e-01 4.24209833e-01 4.04632717e-01 3.71961862e-01 3.21806699e-01 2.58213401e-01 2.01737002e-01 1.74276024e-01 1.77373365e-01 2.10669830e-01 2.62926936e-01 3.02714258e-01 3.08351994e-01 3.09795290e-01 3.44594777e-01 3.73522729e-01 9.47830454e-02 1.06097296e-01 1.41696692e-01 1.93466738e-01 2.47331366e-01 2.95362473e-01 3.35873783e-01 3.68790120e-01 3.94731104e-01 4.14545953e-01 4.29078013e-01 4.39054281e-01 4.45033848e-01 4.47364420e-01 4.46096331e-01 4.40795392e-01 4.30199355e-01 4.11750823e-01 3.81416976e-01 3.35192740e-01 2.74503946e-01 2.12775230e-01 1.69793844e-01 1.53663009e-01 1.61803648e-01 1.92556217e-01 2.36762762e-01 2.79551864e-01 3.07585031e-01 3.33247960e-01 3.47842306e-01 1.02691315e-01 1.15929306e-01 1.57227933e-01 2.10033819e-01 2.62198001e-01 3.08100581e-01 3.46523404e-01 3.77618819e-01 4.02114868e-01 4.20903325e-01 4.34827149e-01 4.44585621e-01 4.50691164e-01 4.53428060e-01 4.52770352e-01 4.48218316e-01 4.38525081e-01 4.21369791e-01 3.93308043e-01 3.50927293e-01 2.94495136e-01 2.32578099e-01 1.80184394e-01 1.48058280e-01 1.37380078e-01 1.44735232e-01 1.68014601e-01 2.03003943e-01 2.43121475e-01 2.76524037e-01 2.90456235e-01 1.10178657e-01 1.24864027e-01 1.70494407e-01 2.24335119e-01 2.75014579e-01 3.19057226e-01 3.55658770e-01 3.85212243e-01 4.08557236e-01 4.26617116e-01 4.40219223e-01 4.50020462e-01 4.56474662e-01 4.59796786e-01 4.59889829e-01 4.56208616e-01 4.47552413e-01 4.31849122e-01 4.06189084e-01 3.67723852e-01 3.16173553e-01 2.57005990e-01 2.00968400e-01 1.58299863e-01 1.32968947e-01 1.23940617e-01 1.27774060e-01 1.41804427e-01 1.63144901e-01 1.84480220e-01 1.97534591e-01 1.16569102e-01 1.32160023e-01 1.80378139e-01 2.35314041e-01 2.85175294e-01 3.27859491e-01 3.63037169e-01 3.91383976e-01 4.13875133e-01 4.31466877e-01 4.44961786e-01 4.54963744e-01 4.61861372e-01 4.65802312e-01 4.66634840e-01 4.63802427e-01 4.56195384e-01 4.42016482e-01 4.18848306e-01 3.84323984e-01 3.37853611e-01 2.82915205e-01 2.27277473e-01 1.79625839e-01 1.45116687e-01 1.24051444e-01 1.15083545e-01 1.15295112e-01 1.21577784e-01 1.29491240e-01 1.34271294e-01 1.21785372e-01 1.37954786e-01 1.87653199e-01 2.43407413e-01 2.92806029e-01 3.34489822e-01 3.68612885e-01 3.96097839e-01 4.18032765e-01 4.35392857e-01 4.48946208e-01 4.59238142e-01 4.66592163e-01 4.71097499e-01 4.72567946e-01 4.70467687e-01 4.63812500e-01 4.51090515e-01 4.30330276e-01 3.99578214e-01 3.58085245e-01 3.08003634e-01 2.55074620e-01 2.06633851e-01 1.68089420e-01 1.40671387e-01 1.23231016e-01 1.15009740e-01 1.14174455e-01 1.16743997e-01 1.17953099e-01 1.26011655e-01 1.42618462e-01 1.93390861e-01 2.49476716e-01 2.98372835e-01 3.39222044e-01 3.72570664e-01 3.99502128e-01 4.21153337e-01 4.38485652e-01 4.52220529e-01 4.62843716e-01 4.70619440e-01 4.75589931e-01 4.77552414e-01 4.76013482e-01 4.70130324e-01 4.58668381e-01 4.40055430e-01 4.12705123e-01 3.75832558e-01 3.30719382e-01 2.81585664e-01 2.34631941e-01 1.95209190e-01 1.65527984e-01 1.45232990e-01 1.33689925e-01 1.30213723e-01 1.32179499e-01 1.33496687e-01 1.29406154e-01 1.46333903e-01 1.97906807e-01 2.54039079e-01 3.02350223e-01 3.42495173e-01 3.75298351e-01 4.01927918e-01 4.23510641e-01 4.40963268e-01 4.54952508e-01 4.65908527e-01 4.74045068e-01 4.79367852e-01 4.81667519e-01 4.80499804e-01 4.75159764e-01 4.64666784e-01 4.47805703e-01 4.23333824e-01 3.90530676e-01 3.50136846e-01 3.05191845e-01 2.60711133e-01 2.21716955e-01 1.91202894e-01 1.70092478e-01 1.57909825e-01 1.54553130e-01 1.57966092e-01 1.60648450e-01 1.32122353e-01 1.49288952e-01 2.01360941e-01 2.57477582e-01 3.05260658e-01 3.44866753e-01 3.77326667e-01 4.03837234e-01 4.25483108e-01 4.43125367e-01 4.57379878e-01 4.68631625e-01 4.77054477e-01 4.82624322e-01 4.85125393e-01 4.84152317e-01 4.79113549e-01 4.69242901e-01 4.53639627e-01 4.31397021e-01 4.01947677e-01 3.65725458e-01 3.24902177e-01 2.83435464e-01 2.45864108e-01 2.15693012e-01 1.94657892e-01 1.82157725e-01 1.77968636e-01 1.81346342e-01 1.84729397e-01 1.34327590e-01 1.51782259e-01 2.04406053e-01 2.60457873e-01 3.07778388e-01 3.46988797e-01 3.79252821e-01 4.05738175e-01 4.27477986e-01 4.45288330e-01 4.59750444e-01 4.71220165e-01 4.79843646e-01 4.85572219e-01 4.88177180e-01 4.87269074e-01 4.82326150e-01 4.72736448e-01 4.57858384e-01 4.37119067e-01 4.10212517e-01 3.77492547e-01 3.40526164e-01 3.02390128e-01 2.67086208e-01 2.38170028e-01 2.17330858e-01 2.03482941e-01 1.95571586e-01 1.96502909e-01 1.99811995e-01 1.36497632e-01 1.53928310e-01 2.07631871e-01 2.63593107e-01 3.10541004e-01 3.49481732e-01 3.81622821e-01 4.08080250e-01 4.29848820e-01 4.47721958e-01 4.62266415e-01 4.73825932e-01 4.82533723e-01 4.88326758e-01 4.90963936e-01 4.90054071e-01 4.85100478e-01 4.75569844e-01 4.60986793e-01 4.41051930e-01 4.15783137e-01 3.85703027e-01 3.52100432e-01 3.17270041e-01 2.84333855e-01 2.56215513e-01 2.34119862e-01 2.17107192e-01 2.04586700e-01 2.02073574e-01 2.05150709e-01 1.39500931e-01 1.54371902e-01 2.09121406e-01 2.66043335e-01 3.12806994e-01 3.51601005e-01 3.83646131e-01 4.10040468e-01 4.31760758e-01 4.49591935e-01 4.64097470e-01 4.75619882e-01 4.84291673e-01 4.90049213e-01 4.92651671e-01 4.91710275e-01 4.86736745e-01 4.77219254e-01 4.62730408e-01 4.43062395e-01 4.18373495e-01 3.89327079e-01 3.57214183e-01 3.24027061e-01 2.92302758e-01 2.64419615e-01 2.41425306e-01 2.22823009e-01 2.08837345e-01 2.03380495e-01 2.05577418e-01 
