# vtk DataFile Version 2.0
results/10_density.vtk, Created by Freefem++ 
ASCII
DATASET UNSTRUCTURED_GRID
POINTS 961 float
0 0 0
0.033333333 0 0
0.066666667 0 0
0.1 0 0
0.13333333 0 0
0.16666667 0 0
0.2 0 0
0.23333333 0 0
0.26666667 0 0
0.3 0 0
0.33333333 0 0
0.36666667 0 0
0.4 0 0
0.43333333 0 0
0.46666667 0 0
0.5 0 0
0.53333333 0 0
0.56666667 0 0
0.6 0 0
0.63333333 0 0
0.66666667 0 0
0.7 0 0
0.73333333 0 0
0.76666667 0 0
0.8 0 0
0.83333333 0 0
0.86666667 0 0
0.9 0 0
0.93333333 0 0
0.96666667 0 0
1 0 0
0 0.033333333 0
0.033333333 0.033333333 0
0.066666667 0.033333333 0
0.1 0.033333333 0
0.13333333 0.033333333 0
0.16666667 0.033333333 0
0.2 0.033333333 0
0.23333333 0.033333333 0
0.26666667 0.033333333 0
0.3 0.033333333 0
0.33333333 0.033333333 0
0.36666667 0.033333333 0
0.4 0.033333333 0
0.43333333 0.033333333 0
0.46666667 0.033333333 0
0.5 0.033333333 0
0.53333333 0.033333333 0
0.56666667 0.033333333 0
0.6 0.033333333 0
0.63333333 0.033333333 0
0.66666667 0.033333333 0
0.7 0.033333333 0
0.73333333 0.033333333 0
0.76666667 0.033333333 0
0.8 0.033333333 0
0.83333333 0.033333333 0
0.86666667 0.033333333 0
0.9 0.033333333 0
0.93333333 0.033333333 0
0.96666667 0.033333333 0
1 0.033333333 0
0 0.066666667 0
0.033333333 0.066666667 0
0.066666667 0.066666667 0
0.1 0.066666667 0
0.13333333 0.066666667 0
0.16666667 0.066666667 0
0.2 0.066666667 0
0.23333333 0.066666667 0
0.26666667 0.066666667 0
0.3 0.066666667 0
0.33333333 0.066666667 0
0.36666667 0.066666667 0
0.4 0.066666667 0
0.43333333 0.066666667 0
0.46666667 0.066666667 0
0.5 0.066666667 0
0.53333333 0.066666667 0
0.56666667 0.066666667 0
0.6 0.066666667 0
0.63333333 0.066666667 0
0.66666667 0.066666667 0
0.7 0.066666667 0
0.73333333 0.066666667 0
0.76666667 0.066666667 0
0.8 0.066666667 0
0.83333333 0.066666667 0
0.86666667 0.066666667 0
0.9 0.066666667 0
0.93333333 0.066666667 0
0.96666667 0.066666667 0
1 0.066666667 0
0 0.1 0
0.033333333 0.1 0
0.066666667 0.1 0
0.1 0.1 0
0.13333333 0.1 0
0.16666667 0.1 0
0.2 0.1 0
0.23333333 0.1 0
0.26666667 0.1 0
0.3 0.1 0
0.33333333 0.1 0
0.36666667 0.1 0
0.4 0.1 0
0.43333333 0.1 0
0.46666667 0.1 0
0.5 0.1 0
0.53333333 0.1 0
0.56666667 0.1 0
0.6 0.1 0
0.63333333 0.1 0
0.66666667 0.1 0
0.7 0.1 0
0.73333333 0.1 0
0.76666667 0.1 0
0.8 0.1 0
0.83333333 0.1 0
0.86666667 0.1 0
0.9 0.1 0
0.93333333 0.1 0
0.96666667 0.1 0
1 0.1 0
0 0.13333333 0
0.033333333 0.13333333 0
0.066666667 0.13333333 0
0.1 0.13333333 0
0.13333333 0.13333333 0
0.16666667 0.13333333 0
0.2 0.13333333 0
0.23333333 0.13333333 0
0.26666667 0.13333333 0
0.3 0.13333333 0
0.33333333 0.13333333 0
0.36666667 0.13333333 0
0.4 0.13333333 0
0.43333333 0.13333333 0
0.46666667 0.13333333 0
0.5 0.13333333 0
0.53333333 0.13333333 0
0.56666667 0.13333333 0
0.6 0.13333333 0
0.63333333 0.13333333 0
0.66666667 0.13333333 0
0.7 0.13333333 0
0.73333333 0.13333333 0
0.76666667 0.13333333 0
0.8 0.13333333 0
0.83333333 0.13333333 0
0.86666667 0.13333333 0
0.9 0.13333333 0
0.93333333 0.13333333 0
0.96666667 0.13333333 0
1 0.13333333 0
0 0.16666667 0
0.033333333 0.16666667 0
0.066666667 0.16666667 0
0.1 0.16666667 0
0.13333333 0.16666667 0
0.16666667 0.16666667 0
0.2 0.16666667 0
0.23333333 0.16666667 0
0.26666667 0.16666667 0
0.3 0.16666667 0
0.33333333 0.16666667 0
0.36666667 0.16666667 0
0.4 0.16666667 0
0.43333333 0.16666667 0
0.46666667 0.16666667 0
0.5 0.16666667 0
0.53333333 0.16666667 0
0.56666667 0.16666667 0
0.6 0.16666667 0
0.63333333 0.16666667 0
0.66666667 0.16666667 0
0.7 0.16666667 0
0.73333333 0.16666667 0
0.76666667 0.16666667 0
0.8 0.16666667 0
0.83333333 0.16666667 0
0.86666667 0.16666667 0
0.9 0.16666667 0
0.93333333 0.16666667 0
0.96666667 0.16666667 0
1 0.16666667 0
0 0.2 0
0.033333333 0.2 0
0.066666667 0.2 0
0.1 0.2 0
0.13333333 0.2 0
0.16666667 0.2 0
0.2 0.2 0
0.23333333 0.2 0
0.26666667 0.2 0
0.3 0.2 0
0.33333333 0.2 0
0.36666667 0.2 0
0.4 0.2 0
0.43333333 0.2 0
0.46666667 0.2 0
0.5 0.2 0
0.53333333 0.2 0
0.56666667 0.2 0
0.6 0.2 0
0.63333333 0.2 0
0.66666667 0.2 0
0.7 0.2 0
0.73333333 0.2 0
0.76666667 0.2 0
0.8 0.2 0
0.83333333 0.2 0
0.86666667 0.2 0
0.9 0.2 0
0.93333333 0.2 0
0.96666667 0.2 0
1 0.2 0
0 0.23333333 0
0.033333333 0.23333333 0
0.066666667 0.23333333 0
0.1 0.23333333 0
0.13333333 0.23333333 0
0.16666667 0.23333333 0
0.2 0.23333333 0
0.23333333 0.23333333 0
0.26666667 0.23333333 0
0.3 0.23333333 0
0.33333333 0.23333333 0
0.36666667 0.23333333 0
0.4 0.23333333 0
0.43333333 0.23333333 0
0.46666667 0.23333333 0
0.5 0.23333333 0
0.53333333 0.23333333 0
0.56666667 0.23333333 0
0.6 0.23333333 0
0.63333333 0.23333333 0
0.66666667 0.23333333 0
0.7 0.23333333 0
0.73333333 0.23333333 0
0.76666667 0.23333333 0
0.8 0.23333333 0
0.83333333 0.23333333 0
0.86666667 0.23333333 0
0.9 0.23333333 0
0.93333333 0.23333333 0
0.96666667 0.23333333 0
1 0.23333333 0
0 0.26666667 0
0.033333333 0.26666667 0
0.066666667 0.26666667 0
0.1 0.26666667 0
0.13333333 0.26666667 0
0.16666667 0.26666667 0
0.2 0.26666667 0
0.23333333 0.26666667 0
0.26666667 0.26666667 0
0.3 0.26666667 0
0.33333333 0.26666667 0
0.36666667 0.26666667 0
0.4 0.26666667 0
0.43333333 0.26666667 0
0.46666667 0.26666667 0
0.5 0.26666667 0
0.53333333 0.26666667 0
0.56666667 0.26666667 0
0.6 0.26666667 0
0.63333333 0.26666667 0
0.66666667 0.26666667 0
0.7 0.26666667 0
0.73333333 0.26666667 0
0.76666667 0.26666667 0
0.8 0.26666667 0
0.83333333 0.26666667 0
0.86666667 0.26666667 0
0.9 0.26666667 0
0.93333333 0.26666667 0
0.96666667 0.26666667 0
1 0.26666667 0
0 0.3 0
0.033333333 0.3 0
0.066666667 0.3 0
0.1 0.3 0
0.13333333 0.3 0
0.16666667 0.3 0
0.2 0.3 0
0.23333333 0.3 0
0.26666667 0.3 0
0.3 0.3 0
0.33333333 0.3 0
0.36666667 0.3 0
0.4 0.3 0
0.43333333 0.3 0
0.46666667 0.3 0
0.5 0.3 0
0.53333333 0.3 0
0.56666667 0.3 0
0.6 0.3 0
0.63333333 0.3 0
0.66666667 0.3 0
0.7 0.3 0
0.73333333 0.3 0
0.76666667 0.3 0
0.8 0.3 0
0.83333333 0.3 0
0.86666667 0.3 0
0.9 0.3 0
0.93333333 0.3 0
0.96666667 0.3 0
1 0.3 0
0 0.33333333 0
0.033333333 0.33333333 0
0.066666667 0.33333333 0
0.1 0.33333333 0
0.13333333 0.33333333 0
0.16666667 0.33333333 0
0.2 0.33333333 0
0.23333333 0.33333333 0
0.26666667 0.33333333 0
0.3 0.33333333 0
0.33333333 0.33333333 0
0.36666667 0.33333333 0
0.4 0.33333333 0
0.43333333 0.33333333 0
0.46666667 0.33333333 0
0.5 0.33333333 0
0.53333333 0.33333333 0
0.56666667 0.33333333 0
0.6 0.33333333 0
0.63333333 0.33333333 0
0.66666667 0.33333333 0
0.7 0.33333333 0
0.73333333 0.33333333 0
0.76666667 0.33333333 0
0.8 0.33333333 0
0.83333333 0.33333333 0
0.86666667 0.33333333 0
0.9 0.33333333 0
0.93333333 0.33333333 0
0.96666667 0.33333333 0
1 0.33333333 0
0 0.36666667 0
0.033333333 0.36666667 0
0.066666667 0.36666667 0
0.1 0.36666667 0
0.13333333 0.36666667 0
0.16666667 0.36666667 0
0.2 0.36666667 0
0.23333333 0.36666667 0
0.26666667 0.36666667 0
0.3 0.36666667 0
0.33333333 0.36666667 0
0.36666667 0.36666667 0
0.4 0.36666667 0
0.43333333 0.36666667 0
0.46666667 0.36666667 0
0.5 0.36666667 0
0.53333333 0.36666667 0
0.56666667 0.36666667 0
0.6 0.36666667 0
0.63333333 0.36666667 0
0.66666667 0.36666667 0
0.7 0.36666667 0
0.73333333 0.36666667 0
0.76666667 0.36666667 0
0.8 0.36666667 0
0.83333333 0.36666667 0
0.86666667 0.36666667 0
0.9 0.36666667 0
0.93333333 0.36666667 0
0.96666667 0.36666667 0
1 0.36666667 0
0 0.4 0
0.033333333 0.4 0
0.066666667 0.4 0
0.1 0.4 0
0.13333333 0.4 0
0.16666667 0.4 0
0.2 0.4 0
0.23333333 0.4 0
0.26666667 0.4 0
0.3 0.4 0
0.33333333 0.4 0
0.36666667 0.4 0
0.4 0.4 0
0.43333333 0.4 0
0.46666667 0.4 0
0.5 0.4 0
0.53333333 0.4 0
0.56666667 0.4 0
0.6 0.4 0
0.63333333 0.4 0
0.66666667 0.4 0
0.7 0.4 0
0.73333333 0.4 0
0.76666667 0.4 0
0.8 0.4 0
0.83333333 0.4 0
0.86666667 0.4 0
0.9 0.4 0
0.93333333 0.4 0
0.96666667 0.4 0
1 0.4 0
0 0.43333333 0
0.033333333 0.43333333 0
0.066666667 0.43333333 0
0.1 0.43333333 0
0.13333333 0.43333333 0
0.16666667 0.43333333 0
0.2 0.43333333 0
0.23333333 0.43333333 0
0.26666667 0.43333333 0
0.3 0.43333333 0
0.33333333 0.43333333 0
0.36666667 0.43333333 0
0.4 0.43333333 0
0.43333333 0.43333333 0
0.46666667 0.43333333 0
0.5 0.43333333 0
0.53333333 0.43333333 0
0.56666667 0.43333333 0
0.6 0.43333333 0
0.63333333 0.43333333 0
0.66666667 0.43333333 0
0.7 0.43333333 0
0.73333333 0.43333333 0
0.76666667 0.43333333 0
0.8 0.43333333 0
0.83333333 0.43333333 0
0.86666667 0.43333333 0
0.9 0.43333333 0
0.93333333 0.43333333 0
0.96666667 0.43333333 0
1 0.43333333 0
0 0.46666667 0
0.033333333 0.46666667 0
0.066666667 0.46666667 0
0.1 0.46666667 0
0.13333333 0.46666667 0
0.16666667 0.46666667 0
0.2 0.46666667 0
0.23333333 0.46666667 0
0.26666667 0.46666667 0
0.3 0.46666667 0
0.33333333 0.46666667 0
0.36666667 0.46666667 0
0.4 0.46666667 0
0.43333333 0.46666667 0
0.46666667 0.46666667 0
0.5 0.46666667 0
0.53333333 0.46666667 0
0.56666667 0.46666667 0
0.6 0.46666667 0
0.63333333 0.46666667 0
0.66666667 0.46666667 0
0.7 0.46666667 0
0.73333333 0.46666667 0
0.76666667 0.46666667 0
0.8 0.46666667 0
0.83333333 0.46666667 0
0.86666667 0.46666667 0
0.9 0.46666667 0
0.93333333 0.46666667 0
0.96666667 0.46666667 0
1 0.46666667 0
0 0.5 0
0.033333333 0.5 0
0.066666667 0.5 0
0.1 0.5 0
0.13333333 0.5 0
0.16666667 0.5 0
0.2 0.5 0
0.23333333 0.5 0
0.26666667 0.5 0
0.3 0.5 0
0.33333333 0.5 0
0.36666667 0.5 0
0.4 0.5 0
0.43333333 0.5 0
0.46666667 0.5 0
0.5 0.5 0
0.53333333 0.5 0
0.56666667 0.5 0
0.6 0.5 0
0.63333333 0.5 0
0.66666667 0.5 0
0.7 0.5 0
0.73333333 0.5 0
0.76666667 0.5 0
0.8 0.5 0
0.83333333 0.5 0
0.86666667 0.5 0
0.9 0.5 0
0.93333333 0.5 0
0.96666667 0.5 0
1 0.5 0
0 0.53333333 0
0.033333333 0.53333333 0
0.066666667 0.53333333 0
0.1 0.53333333 0
0.13333333 0.53333333 0
0.16666667 0.53333333 0
0.2 0.53333333 0
0.23333333 0.53333333 0
0.26666667 0.53333333 0
0.3 0.53333333 0
0.33333333 0.53333333 0
0.36666667 0.53333333 0
0.4 0.53333333 0
0.43333333 0.53333333 0
0.46666667 0.53333333 0
0.5 0.53333333 0
0.53333333 0.53333333 0
0.56666667 0.53333333 0
0.6 0.53333333 0
0.63333333 0.53333333 0
0.66666667 0.53333333 0
0.7 0.53333333 0
0.73333333 0.53333333 0
0.76666667 0.53333333 0
0.8 0.53333333 0
[...]
CELL_DATA 1920
Scalars  Label int 1
LOOKUP_TABLE FreeFempp_table
0
0
0
0
0
0
0
0
0
0
0
0
0
0
0
0
0
0
0
0
0
0
0
0
0
0
0
0
0
0
0
0
0
0
0
0
0
0
0
0
0
0
0
0
0
0
0
0
0
0
0
0
0
0
0
0
0
0
0
0
0
0
0
0
0
0
0
0
0
0
0
0
0
0
0
0
0
0
0
0
0
0
0
0
0
0
0
0
0
0
0
0
0
0
0
0
0
0
0
0
0
0
0
0
0
0
0
0
0
0
0
0
0
0
0
0
0
0
0
0
0
0
0
0
0
0
0
0
0
0
0
0
0
0
0
0
0
0
0
0
0
0
0
0
0
0
0
0
0
0
0
0
0
0
0
0
0
0
0
0
0
0
0
0
0
0
0
0
0
0
0
0
0
0
0
0
0
0
0
0
0
0
0
0
0
0
0
0
0
0
0
0
0
0
0
0
0
0
0
0
0
0
0
0
0
0
0
0
0
0
0
0
0
0
0
0
0
0
0
0
0
0
0
0
0
0
0
0
0
0
0
0
0
0
0
0
0
0
0
0
0
0
0
0
0
0
0
0
0
0
0
0
0
0
0
0
0
0
0
0
0
0
0
0
0
0
0
0
0
0
0
0
0
0
0
0
0
0
0
0
0
0
0
0
0
0
0
0
0
0
0
0
0
0
0
0
0
0
0
0
0
0
0
0
0
0
0
0
0
0
0
0
0
0
0
0
0
0
0
0
0
0
0
0
0
0
0
0
0
0
0
0
0
0
0
0
0
0
0
0
0
0
0
0
0
0
0
0
0
0
0
0
0
0
0
0
0
0
0
0
0
0
0
0
0
0
0
0
0
0
0
0
0
0
0
0
0
0
0
0
0
0
0
0
0
0
0
0
0
0
0
0
0
0
0
0
0
0
0
0
0
0
0
0
0
0
0
0
0
0
0
0
0
0
0
0
0
0
0
0
0
0
0
0
0
0
0
0
0
0
0
0
0
0
0
0
0
0
0
0
0
0
0
0
0
0
0
0
0
0
0
0
0
0
0
0
0
0
0
0
0
0
0
0
0
0
0
0
0
0
0
0
0
0
0
0
0
0
0
0
0
0
0
0
0
0
0
0
0
0
0
0
0
0
0
0
0
0
0
0
0
0
0
0
0
0
0
0
0
0
0
0
0
0
0
0
0
0
0
0
0
0
0
0
0
0
0
0
0
0
0
0
0
0
0
0
0
0
0
0
0
0
0
0
0
0
0
0
0
0
0
0
0
0
0
0
0
0
0
0
0
0
0
0
0
0
0
0
0
0
0
0
0
0
0
0
0
0
0
0
0
0
0
0
0
0
0
0
0
0
0
0
0
0
0
0
0
0
0
0
0
0
0
0
0
0
0
0
0
0
0
0
0
0
0
0
0
0
0
0
0
0
0
0
0
0
0
0
0
0
0
0
0
0
0
0
0
0
0
0
0
0
0
0
0
0
0
0
0
0
0
0
0
0
0
0
0
0
0
0
0
0
0
0
0
0
0
0
0
0
0
0
0
0
0
0
0
0
0
0
0
0
0
0
0
0
0
0
0
0
0
0
0
0
0
0
0
0
0
0
0
0
0
0
0
0
0
0
0
0
0
0
0
0
0
0
0
0
0
0
0
0
0
0
0
0
0
0
0
0
0
0
0
0
0
0
0
0
0
0
0
0
0
0
0
0
0
0
0
0
0
0
0
0
0
0
0
0
0
0
0
0
0
0
0
0
0
0
0
0
0
0
0
0
0
0
0
0
0
0
0
0
0
0
0
0
0
0
0
0
0
0
0
0
0
0
0
0
0
0
0
0
0
0
0
0
0
0
0
0
0
0
0
0
0
0
0
0
0
0
0
0
0
0
0
0
0
0
0
0
0
0
0
0
0
0
0
0
0
0
0
0
0
0
0
0
0
0
0
0
0
0
0
0
0
0
0
0
0
0
0
0
0
0
0
0
0
0
0
0
0
0
0
0
0
0
0
0
0
0
0
0
0
0
0
0
0
0
0
0
0
0
0
0
0
0
0
0
0
0
0
0
0
0
0
0
0
0
0
0
0
0
0
0
0
0
0
0
0
0
0
0
0
0
0
0
0
0
0
0
0
0
0
0
0
0
0
0
0
0
0
0
0
0
0
0
0
0
0
0
0
0
0
0
0
0
0
0
0
0
0
0
0
0
0
0
0
0
0
0
0
0
0
0
0
0
0
0
0
0
0
0
0
0
0
0
0
0
0
0
0
0
0
0
0
0
0
0
0
0
0
0
0
0
0
0
0
0
0
0
0
0
0
0
0
0
0
0
0
0
0
0
0
0
0
0
0
0
0
0
0
0
0
0
0
0
0
0
0
0
0
0
0
0
0
0
0
0
0
0
0
0
0
0
0
0
0
0
0
0
0
0
0
0
0
0
0
0
0
0
0
0
0
0
0
0
0
0
0
0
0
0
0
0
0
0
0
0
0
0
0
0
0
0
0
0
0
0
0
0
0
0
0
0
0
0
0
0
0
0
0
0
0
0
0
0
0
0
0
0
0
0
0
0
0
0
0
0
0
0
0
0
0
0
0
0
0
0
0
0
0
0
0
0
0
0
0
0
0
0
0
0
0
0
0
0
0
0
0
0
0
0
0
0
0
0
0
0
0
0
0
0
0
0
0
0
0
0
0
0
0
0
0
0
0
0
0
0
0
0
0
0
0
0
0
0
0
0
0
0
0
0
0
0
0
0
0
0
0
0
0
0
0
0
0
0
0
0
0
0
0
0
0
0
0
0
0
0
0
0
0
0
0
0
0
0
0
0
0
0
0
0
0
0
0
0
0
0
0
0
0
0
0
0
0
0
0
0
0
0
0
0
0
0
0
0
0
0
0
0
0
0
0
0
0
0
0
0
0
0
0
0
0
0
0
0
0
0
0
0
0
0
0
0
0
0
0
0
0
0
0
0
0
0
0
0
0
0
0
0
0
0
0
0
0
0
0
0
0
0
0
0
0
0
0
0
0
0
0
0
0
0
0
0
0
0
0
0
0
0
0
0
0
0
0
0
0
0
0
0
0
0
0
0
0
0
0
0
0
0
0
0
0
0
0
0
0
0
0
0
0
0
0
0
0
0
0
0
0
0
0
0
0
0
0
0
0
0
0
0
0
0
0
0
0
0
0
0
0
0
0
0
0
0
0
0
0
0
0
0
0
0
0
0
0
0
0
0
0
0
0
0
0
0
0
0
0
0
0
0
0
0
0
0
0
0
0
0
0
0
0
0
0
0
0
0
0
0
0
0
0
0
0
0
0
0
0
0
0
0
0
0
0
0
0
0
0
0
0
0
0
0
0
0
0
0
0
0
0
0
0
0
0
0
0
0
0
0
0
0
0
0
0
0
0
0
0
0
0
0
0
0
0
0
0
0
0
0
0
0
0
0
0
0
0
0
0
0
0
0
0
0
0
0
0
0
0
0
0
0
0
0
0
0
0
0
0
0
0
0
0
0
0
0
0
0
0
0
0
0
0
0
0
0
0
0
0
0
0
0
0
0
0
0
0
0
0
0
0
0
0
0
0
0
0
0
0
0
0
0
0
0
0
0
0
0
0
0
0
0
0
0
0
0
0
0
0
0
0
0
0
0
0
0
0
0
0
0
0
0
0
0
0
0
0
0
0
0
0
0
0
0
0
0
0
0
0
0
0
0
0
0
0
0
0
0
0
0
0
0
0
0
0
0
0
0
0
0
0
0
0
0
0
0
0
0
0
0
0
0
0
0
0
0
0
0
0
0
0
0
0
0
0
0
0
0
0
0
0
0
0
0
0
0
0
0
0
0
0
0
0
0
0
0
0
0
0
0
0
0
0
0
0
0
0
0
0
0
0
0
0
0
0
0
0
0
0
0
0
0
0
0
0
0
0
0
0
0
0
0
0
0
0
0
0
0
0
0
0
0
0
0
0
0
0
0
0
0
0
0
0
0
0
0
0
0
0
0
0
0
0
0
0
0
0
0
0
0
0
0
0
0
0
0
0
0
0
0
0
0
0
0
0
0
0
0
0
0
0
0
0
0
0
0
0
0
0
0
0
0
1
1
1
1
1
1
1
1
1
1
1
1
1
1
1
1
1
1
1
1
1
1
1
1
1
1
1
1
1
1
2
2
2
2
2
2
2
2
2
2
2
2
2
2
2
2
2
2
2
2
2
2
2
2
2
2
2
2
2
2
3
3
3
3
3
3
3
3
3
3
3
3
3
3
3
3
3
3
3
3
3
3
3
3
3
3
3
3
3
3
4
4
4
4
4
4
4
4
4
4
4
4
4
4
4
4
4
4
4
4
4
4
4
4
4
4
4
4
4
4

LOOKUP_TABLE FreeFempp_table 5
1.00000000 0.00000000 0.00000000 1.00000000
1.00000000 1.00000000 0.00000000 1.00000000
1.00000000 0.00000000 1.00000000 1.00000000
0.00000000 1.00000000 0.00000000 1.00000000
0.00000000 1.00000000 1.00000000 1.00000000

POINT_DATA 961
FIELD FieldData 1
Density 1 961 float
8.75163525e-02 7.92746842e-02 8.08903053e-02 8.16374645e-02 8.22901726e-02 8.29706937e-02 8.37298334e-02 8.46097693e-02 8.56508836e-02 8.68786499e-02 8.82537141e-02 8.94870982e-02 8.99419412e-02 9.41617563e-02 1.28440782e-01 8.88913333e-01 8.32368851e-01 8.89006257e-01 8.76098275e-01 7.97311366e-01 7.75787055e-01 7.56078064e-01 7.36817241e-01 7.12488294e-01 6.77024245e-01 6.32277369e-01 5.55233955e-01 5.06443381e-01 4.77993608e-01 4.76704001e-01 2.87160128e-01 7.19774887e-02 5.00266515e-02 5.21071739e-02 5.33125997e-02 5.43120876e-02 5.52964397e-02 5.63414618e-02 5.75066842e-02 5.88481724e-02 6.04026020e-02 6.21530376e-02 6.39472976e-02 6.52639866e-02 6.82876408e-02 9.89999250e-02 9.03686404e-01 8.83709908e-01 1.18356593e-01 2.96261460e-01 8.46260607e-01 8.58626842e-01 8.64231110e-01 8.63524854e-01 8.60817671e-01 8.55334282e-01 8.47587168e-01 8.12099636e-01 7.53552437e-01 7.22760499e-01 7.15443850e-01 4.74543363e-01 6.90216124e-02 4.60161753e-02 4.73039150e-02 4.79169823e-02 4.87991534e-02 4.96983118e-02 5.05932085e-02 5.15037477e-02 5.24384752e-02 5.33456616e-02 5.40084913e-02 5.37292026e-02 5.04238270e-02 4.28885445e-02 6.14899248e-02 8.99324059e-01 8.94102871e-01 1.12830415e-01 1.01770639e-01 8.71086866e-02 7.99528509e-02 8.02223384e-02 7.91324079e-02 8.25246871e-02 9.22262594e-02 1.62920341e-01 3.99080485e-01 5.20237148e-01 5.17592609e-01 5.24783254e-01 3.91571760e-01 6.69959411e-02 4.46072966e-02 4.64196876e-02 4.70525064e-02 4.77301516e-02 4.83018644e-02 4.87192944e-02 4.89620678e-02 4.89899069e-02 4.86912429e-02 4.78023589e-02 4.56992052e-02 4.08802666e-02 3.15910131e-02 2.80497503e-02 6.59935772e-02 9.28989768e-01 1.15808077e-01 1.00532226e-01 7.42229149e-02 5.77656552e-02 5.38881011e-02 4.61623222e-02 4.02860194e-02 3.66446301e-02 4.31601964e-02 6.28789365e-02 8.10024366e-02 9.16962549e-02 9.93615091e-02 1.38432935e-01 6.44440129e-02 4.30068150e-02 4.58358265e-02 4.68713865e-02 4.74873707e-02 4.76771556e-02 4.74866070e-02 4.69258688e-02 4.59488742e-02 4.44400348e-02 4.21914570e-02 3.88273410e-02 3.36263999e-02 2.57313102e-02 1.80287138e-02 2.27972362e-02 7.13366717e-02 9.44195271e-01 1.20121911e-01 1.03435934e-01 7.95533583e-02 6.43356964e-02 4.72731031e-02 3.18685509e-02 2.29473989e-02 2.19449997e-02 2.96046771e-02 4.41380441e-02 5.96727282e-02 7.02308714e-02 9.39663425e-02 6.11703284e-02 4.11224365e-02 4.56067808e-02 4.72547300e-02 4.77937497e-02 4.75294106e-02 4.66909520e-02 4.53629829e-02 4.35174927e-02 4.10404727e-02 3.77487652e-02 3.33952345e-02 2.76844893e-02 2.06160061e-02 1.36875203e-02 1.10944640e-02 1.77633371e-02 5.85812666e-02 9.23922122e-01 9.14556324e-01 6.64515555e-01 1.29555270e-01 8.92793983e-02 6.49009049e-02 3.55916172e-02 2.13195439e-02 2.38334984e-02 3.31638232e-02 4.61631119e-02 5.94249144e-02 8.54492411e-02 6.15928210e-02 4.10463922e-02 4.72732596e-02 4.92603816e-02 4.93955985e-02 4.85446304e-02 4.71296906e-02 4.52638716e-02 4.29111086e-02 3.99530642e-02 3.62050980e-02 3.14266495e-02 2.54832804e-02 1.89274214e-02 1.32332984e-02 9.99299064e-03 9.94521007e-03 1.10864155e-02 3.10020559e-02 8.92326772e-01 9.11012053e-01 9.18243885e-01 9.09073114e-01 8.97910357e-01 2.47454867e-01 5.25753833e-02 2.63619777e-02 2.68600341e-02 3.39777023e-02 4.90826741e-02 8.22159499e-02 8.55031461e-02 5.68130165e-02 5.82659990e-02 5.73042519e-02 5.56366704e-02 5.39850555e-02 5.23440838e-02 5.05006909e-02 4.82558757e-02 4.54677567e-02 4.20567282e-02 3.80088612e-02 3.34172063e-02 2.85451617e-02 2.36633029e-02 1.84342507e-02 1.22975232e-02 9.88002121e-03 9.86995175e-03 1.14452001e-02 4.47582416e-02 1.84711620e-01 8.95919085e-01 8.95690739e-01 9.10174787e-01 9.14793074e-01 6.92959055e-02 2.40935590e-02 2.02901755e-02 3.23906057e-02 7.36808628e-02 2.22366840e-01 1.41149253e-01 9.99495685e-02 8.90922397e-02 8.40544105e-02 8.15171674e-02 8.01692978e-02 7.91575611e-02 7.79681802e-02 7.63323829e-02 7.41811544e-02 7.15462863e-02 6.83395118e-02 6.41050935e-02 5.81306964e-02 5.02319820e-02 3.93622220e-02 2.26289164e-02 9.94827691e-03 9.86810401e-03 9.89880972e-03 9.97424033e-03 2.04405487e-02 4.58862036e-02 8.32961574e-02 1.30266219e-01 9.58915293e-01 6.01615086e-02 1.47264786e-02 1.45968916e-02 5.46318740e-02 4.38793957e-01 5.73925614e-01 6.05258048e-01 5.93541920e-01 5.68373084e-01 5.40600777e-01 5.15577614e-01 4.93131042e-01 4.71477002e-01 4.48700100e-01 4.22823042e-01 3.92143995e-01 3.56103390e-01 3.16342533e-01 2.74399370e-01 2.32919097e-01 1.96054921e-01 1.50331348e-01 5.96743897e-02 2.61755437e-02 9.99950245e-03 9.95476637e-03 9.98547673e-03 1.44225908e-02 3.69026512e-02 9.25355852e-02 1.28455028e-01 9.16267276e-01 2.43436657e-02 9.87493340e-03 2.37293858e-02 7.09442675e-01 8.31692398e-01 8.23297501e-01 8.09682131e-01 7.90361941e-01 7.67275333e-01 7.41371334e-01 7.13168919e-01 6.83224320e-01 6.52069449e-01 6.19500399e-01 5.84444106e-01 5.45660734e-01 5.02968490e-01 4.58441257e-01 4.12821352e-01 3.72560084e-01 3.38409901e-01 3.03657711e-01 2.70154029e-01 2.12546319e-01 1.20658793e-01 4.31386866e-02 2.48683281e-02 2.60543376e-02 8.13111290e-02 1.06800854e-01 8.83210778e-01 9.00068104e-01 9.85740032e-03 9.92559548e-03 8.34687650e-01 8.83321106e-01 8.70752633e-01 8.64381731e-01 8.53468835e-01 8.30064178e-01 8.04428637e-01 7.76072860e-01 7.46383250e-01 7.17200875e-01 6.89883173e-01 6.64157987e-01 6.38536155e-01 6.12575293e-01 5.87651491e-01 5.65972328e-01 5.47886550e-01 5.35006404e-01 5.25056183e-01 5.16711712e-01 5.05700707e-01 4.66881752e-01 4.49412942e-01 8.28337073e-01 1.18180662e-01 1.08335339e-01 1.17063515e-01 1.26137882e-01 9.18735802e-01 9.94330551e-03 9.92485043e-03 7.30157614e-01 8.77920806e-01 8.55480611e-01 8.52907360e-01 8.60592425e-01 8.46632719e-01 8.15586925e-01 7.78868556e-01 7.42839754e-01 7.12475777e-01 6.89194739e-01 6.72768474e-01 6.60427213e-01 6.49259627e-01 6.40304565e-01 6.33471549e-01 6.36235416e-01 6.45729840e-01 6.69749856e-01 6.93127930e-01 7.17263877e-01 7.33497977e-01 7.45119095e-01 7.51720786e-01 6.20792449e-01 1.27072349e-01 1.31476551e-01 5.06680131e-01 9.45657015e-01 9.97144915e-03 9.94848181e-03 1.75453618e-01 3.03297132e-01 3.36073995e-01 3.98616552e-01 5.38884223e-01 6.49873674e-01 6.98100686e-01 6.81832612e-01 6.54768646e-01 6.18330896e-01 5.97924888e-01 5.87980270e-01 5.90764999e-01 6.06776893e-01 6.17909253e-01 6.21255159e-01 6.25090420e-01 6.35280192e-01 6.65247083e-01 7.07669139e-01 7.40913093e-01 7.82810211e-01 8.38657081e-01 8.42812061e-01 8.21995676e-01 6.54270053e-01 2.74875253e-01 9.01362717e-01 9.26326275e-01 1.16083855e-02 1.05209760e-02 1.10384740e-01 9.69383493e-02 9.63698402e-02 9.61802080e-02 1.00762293e-01 1.15717806e-01 1.91552535e-01 3.32907468e-01 4.11178499e-01 4.24099803e-01 4.16389465e-01 4.16295648e-01 4.23909694e-01 4.59435552e-01 5.03125966e-01 5.18656015e-01 5.27703822e-01 5.44182837e-01 5.63654840e-01 5.71777105e-01 5.14935911e-01 4.68858123e-01 4.75750744e-01 5.78130722e-01 7.92533755e-01 7.50574708e-01 7.20871925e-01 8.94361019e-01 9.09036577e-01 1.23232612e-02 1.17863780e-02 1.00685671e-01 8.95701200e-02 8.60937089e-02 8.65390003e-02 8.96160230e-02 9.10068527e-02 9.65100378e-02 1.06101058e-01 1.40680239e-01 2.24664211e-01 2.51814783e-01 2.65090972e-01 2.71718532e-01 2.89453685e-01 3.08785707e-01 2.51224637e-01 2.28347942e-01 2.67865807e-01 3.69837552e-01 5.35199702e-01 6.11439645e-01 5.29654205e-01 4.04392183e-01 2.11891696e-01 2.90014327e-01 6.90764844e-01 8.60172808e-01 8.91788900e-01 8.99044156e-01 1.27278427e-02 1.23150945e-02 8.74725208e-02 6.77976981e-02 7.71177337e-02 8.66017416e-02 9.83163491e-02 9.90488380e-02 9.56925005e-02 9.72159505e-02 1.01204284e-01 1.06939584e-01 1.39680266e-01 2.07688555e-01 2.07134381e-01 1.65240750e-01 1.36907056e-01 1.31290868e-01 1.28063858e-01 1.33503005e-01 1.65812597e-01 2.75160253e-01 4.83500361e-01 6.02547705e-01 6.12121642e-01 5.84929049e-01 4.75750715e-01 8.06103408e-01 8.82124841e-01 8.90954256e-01 8.89648795e-01 1.31804002e-02 1.28443455e-02 1.33937851e-01 8.49040970e-02 8.29306990e-02 8.30834731e-02 8.74393508e-02 9.99657065e-02 1.01110250e-01 1.02177083e-01 1.01785332e-01 1.02227889e-01 1.04134418e-01 1.04704276e-01 1.07031852e-01 1.07155204e-01 1.07391827e-01 1.08226590e-01 1.10824473e-01 1.18091710e-01 1.33401036e-01 1.73630312e-01 2.29355931e-01 3.47893745e-01 5.47537744e-01 6.97869301e-01 8.34643185e-01 8.82016003e-01 8.88361990e-01 8.87383580e-01 7.52647519e-01 1.30257588e-02 1.29821422e-02 2.91067719e-01 2.97623545e-01 2.57277876e-01 1.75081789e-01 1.00148194e-01 9.46414396e-02 1.02431163e-01 1.04042262e-01 1.03892162e-01 1.03945009e-01 1.02742419e-01 1.01132669e-01 9.95699838e-02 1.00555167e-01 1.03368320e-01 1.06225476e-01 1.09834455e-01 1.18884809e-01 1.41213313e-01 1.73223302e-01 2.24640846e-01 3.76400709e-01 6.66936994e-01 8.48042905e-01 8.71245027e-01 8.81553650e-01 8.79523039e-01 8.05164456e-01 9.54246446e-02 1.53638255e-02 1.23340506e-02 3.67456198e-01 5.65854132e-01 5.75854301e-01 4.74803865e-01 2.19466239e-01 1.13016583e-01 1.07698329e-01 1.07723035e-01 1.06519096e-01 1.05653517e-01 1.04436517e-01 1.04203627e-01 1.05407692e-01 1.07897826e-01 1.11271344e-01 1.17703319e-01 1.34427086e-01 1.62470177e-01 2.07109407e-01 3.03398520e-01 4.45820183e-01 6.96326196e-01 8.55557680e-01 8.70665789e-01 8.76847327e-01 8.75739872e-01 8.27490568e-01 1.80465788e-01 7.91975185e-02 3.80514860e-02 1.71343219e-02 2.88955152e-01 5.32572925e-01 5.82014084e-01 3.40802372e-01 1.22806914e-01 1.26432344e-01 1.22213580e-01 1.15157634e-01 1.11014448e-01 1.08332910e-01 1.06684573e-01 1.06937572e-01 1.34173781e-01 1.64979592e-01 1.89277217e-01 1.99972317e-01 2.23863706e-01 3.01082045e-01 4.31829214e-01 6.46799326e-01 7.90820301e-01 8.60863090e-01 8.66725385e-01 8.69167447e-01 8.62265348e-01 8.21405053e-01 3.01079512e-01 1.03864275e-01 7.95493573e-02 6.09237030e-02 6.67228475e-02 1.73818842e-01 3.38393778e-01 5.00186503e-01 1.51271343e-01 1.23641320e-01 1.28062740e-01 1.26922071e-01 1.21861145e-01 1.17699221e-01 1.13290243e-01 1.10939495e-01 1.13298953e-01 1.37730062e-01 1.53303206e-01 1.62723243e-01 1.79412603e-01 2.29159296e-01 3.43756735e-01 5.35966635e-01 7.14704692e-01 8.43896508e-01 8.52301776e-01 8.50800157e-01 8.39455128e-01 7.83899963e-01 3.06698829e-01 1.07347734e-01 9.39280018e-02 8.51667747e-02 7.97470808e-02 8.94403160e-02 1.22162066e-01 1.76816538e-01 5.03630519e-01 1.24132253e-01 1.22800156e-01 1.27828643e-01 1.26767024e-01 1.24063246e-01 1.21810399e-01 1.18615180e-01 1.16130784e-01 1.49142131e-01 1.96334600e-01 2.11156070e-01 2.31621176e-01 2.63761789e-01 3.24565172e-01 4.35325354e-01 5.91735363e-01 7.23930776e-01 7.80314982e-01 8.11280131e-01 8.01083803e-01 7.14685619e-01 1.73955500e-01 1.05266437e-01 9.48016271e-02 8.82646963e-02 8.62223133e-02 8.94996822e-02 9.92658511e-02 1.12505510e-01 1.20972157e-01 5.95386565e-01 1.24514259e-01 1.18493311e-01 1.21432647e-01 1.25972837e-01 1.27642229e-01 1.22794189e-01 1.17813952e-01 1.69256374e-01 3.74612272e-01 4.10956770e-01 3.19008082e-01 3.27495873e-01 3.81671220e-01 4.66815054e-01 5.87264717e-01 7.14725733e-01 7.94600725e-01 8.05160940e-01 7.46159613e-01 5.15394747e-01 1.10182434e-01 1.02364585e-01 9.80756804e-02 8.77787247e-02 8.33465233e-02 8.89204890e-02 9.31688398e-02 1.03234738e-01 1.12060279e-01 1.12656467e-01 6.65851951e-01 1.41979441e-01 1.10179141e-01 1.13803476e-01 1.17608316e-01 1.22908264e-01 1.24489367e-01 1.28190324e-01 3.44369024e-01 6.06485784e-01 5.97023606e-01 4.67419267e-01 4.07241821e-01 4.59189594e-01 5.52201748e-01 6.66778922e-01 7.68362939e-01 8.20690155e-01 7.91700304e-01 3.38095188e-01 1.06201768e-01 9.80267674e-02 9.30845141e-02 9.28037092e-02 9.55894962e-02 9.56551358e-02 9.93409157e-02 1.03458688e-01 1.13382936e-01 1.14628054e-01 1.14346094e-01 6.44443810e-01 1.66723564e-01 9.28320289e-02 9.91389304e-02 1.13405749e-01 1.16252206e-01 1.18556216e-01 2.49324918e-01 5.13875306e-01 5.71662009e-01 6.34493887e-01 5.75550556e-01 4.85847265e-01 5.18989503e-01 6.03982985e-01 6.98514104e-01 7.75859654e-01 8.14553499e-01 7.78367639e-01 3.60253364e-01 1.06501035e-01 1.01163201e-01 9.83998105e-02 1.03081800e-01 1.05995551e-01 1.11080870e-01 3.29952449e-01 4.88461047e-01 2.72549301e-01 1.15689494e-01 1.16691075e-01 5.22224724e-01 1.72440767e-01 7.18467906e-02 7.05965161e-02 9.32897925e-02 1.17300518e-01 1.38789132e-01 3.71119320e-01 4.84377176e-01 4.63232011e-01 4.86316144e-01 5.70248067e-01 5.83444059e-01 5.78663766e-01 6.39391840e-01 7.06044078e-01 7.60527551e-01 7.93827116e-01 7.80830681e-01 6.05202913e-01 1.79457933e-01 1.22945219e-01 2.25790754e-01 6.98129952e-01 8.47493827e-01 8.69604707e-01 8.52175176e-01 8.27702582e-01 5.09930074e-01 1.15967110e-01 1.17640048e-01 3.82502377e-01 2.31549233e-01 5.75692207e-02 4.65712100e-02 7.10744783e-02 1.11466862e-01 2.46317163e-01 3.23036522e-01 3.16158533e-01 3.34208667e-01 3.86925340e-01 5.34052372e-01 6.48964882e-01 6.26880288e-01 6.56486571e-01 7.08511293e-01 7.46250510e-01 7.80190051e-01 7.99647033e-01 7.88105607e-01 7.52792716e-01 7.90096581e-01 8.61486912e-01 8.72411728e-01 8.63056540e-01 8.47914219e-01 8.31405938e-01 8.26564074e-01 5.80779195e-01 1.18364736e-01 1.18023284e-01 3.31740260e-01 2.57725388e-01 4.49655019e-02 2.45296881e-02 5.31585552e-02 1.59565449e-01 3.17923069e-01 2.81126142e-01 2.81656206e-01 3.54557067e-01 4.96093243e-01 6.48661613e-01 7.21101403e-01 7.12675571e-01 6.51324153e-01 6.93114340e-01 7.41749406e-01 7.78753340e-01 8.09077501e-01 8.26152325e-01 8.29773664e-01 8.28615367e-01 8.24423552e-01 8.04438293e-01 7.64254689e-01 7.26302147e-01 6.94963038e-01 7.01063573e-01 4.98149812e-01 1.18691072e-01 1.24150380e-01 3.32690150e-01 3.58891934e-01 3.02251577e-02 1.05627552e-02 3.04361135e-02 4.10159171e-01 3.40042800e-01 2.93069363e-01 3.20092469e-01 4.13991302e-01 5.75859189e-01 7.58317649e-01 7.72647679e-01 7.79317319e-01 7.70510435e-01 7.34579444e-01 7.72897661e-01 7.97652841e-01 8.02671671e-01 7.93594539e-01 7.70269632e-01 7.30305374e-01 6.72483563e-01 6.02534890e-01 5.30578852e-01 4.78440553e-01 4.46713418e-01 4.29381490e-01 3.54455978e-01 1.17727943e-01 1.23182632e-01 3.83995920e-01 2.88092077e-01 7.24417865e-02 2.02366803e-02 3.06833517e-02 7.54632056e-01 3.34082037e-01 2.95536697e-01 2.97801197e-01 3.22022676e-01 3.76446813e-01 4.86940235e-01 5.60077906e-01 5.89455485e-01 6.29363716e-01 5.89585304e-01 5.62823355e-01 5.75552166e-01 5.52606106e-01 4.95642424e-01 4.22639519e-01 3.62210631e-01 3.24500591e-01 2.99764961e-01 2.81392753e-01 2.61703461e-01 2.50556409e-01 2.37335742e-01 2.39120156e-01 
