# vtk DataFile Version 2.0
results/11_density.vtk, Created by Freefem++ 
ASCII
DATASET UNSTRUCTURED_GRID
POINTS 961 float
0 0 0
0.033333333 0 0
0.066666667 0 0
0.1 0 0
0.13333333 0 0
0.16666667 0 0
0.2 0 0
0.23333333 0 0
0.26666667 0 0
0.3 0 0
0.33333333 0 0
0.36666667 0 0
0.4 0 0
0.43333333 0 0
0.46666667 0 0
0.5 0 0
0.53333333 0 0
0.56666667 0 0
0.6 0 0
0.63333333 0 0
0.66666667 0 0
0.7 0 0
0.73333333 0 0
0.76666667 0 0
0.8 0 0
0.83333333 0 0
0.86666667 0 0
0.9 0 0
0.93333333 0 0
0.96666667 0 0
1 0 0
0 0.033333333 0
0.033333333 0.033333333 0
0.066666667 0.033333333 0
0.1 0.033333333 0
0.13333333 0.033333333 0
0.16666667 0.033333333 0
0.2 0.033333333 0
0.23333333 0.033333333 0
0.26666667 0.033333333 0
0.3 0.033333333 0
0.33333333 0.033333333 0
0.36666667 0.033333333 0
0.4 0.033333333 0
0.43333333 0.033333333 0
0.46666667 0.033333333 0
0.5 0.033333333 0
0.53333333 0.033333333 0
0.56666667 0.033333333 0
0.6 0.033333333 0
0.63333333 0.033333333 0
0.66666667 0.033333333 0
0.7 0.033333333 0
0.73333333 0.033333333 0
0.76666667 0.033333333 0
0.8 0.033333333 0
0.83333333 0.033333333 0
0.86666667 0.033333333 0
0.9 0.033333333 0
0.93333333 0.033333333 0
0.96666667 0.033333333 0
1 0.033333333 0
0 0.066666667 0
0.033333333 0.066666667 0
0.066666667 0.066666667 0
0.1 0.066666667 0
0.13333333 0.066666667 0
0.16666667 0.066666667 0
0.2 0.066666667 0
0.23333333 0.066666667 0
0.26666667 0.066666667 0
0.3 0.066666667 0
0.33333333 0.066666667 0
0.36666667 0.066666667 0
0.4 0.066666667 0
0.43333333 0.066666667 0
0.46666667 0.066666667 0
0.5 0.066666667 0
0.53333333 0.066666667 0
0.56666667 0.066666667 0
0.6 0.066666667 0
0.63333333 0.066666667 0
0.66666667 0.066666667 0
0.7 0.066666667 0
0.73333333 0.066666667 0
0.76666667 0.066666667 0
0.8 0.066666667 0
0.83333333 0.066666667 0
0.86666667 0.066666667 0
0.9 0.066666667 0
0.93333333 0.066666667 0
0.96666667 0.066666667 0
1 0.066666667 0
0 0.1 0
0.033333333 0.1 0
0.066666667 0.1 0
0.1 0.1 0
0.13333333 0.1 0
0.16666667 0.1 0
0.2 0.1 0
0.23333333 0.1 0
0.26666667 0.1 0
0.3 0.1 0
0.33333333 0.1 0
0.36666667 0.1 0
0.4 0.1 0
0.43333333 0.1 0
0.46666667 0.1 0
0.5 0.1 0
0.53333333 0.1 0
0.56666667 0.1 0
0.6 0.1 0
0.63333333 0.1 0
0.66666667 0.1 0
0.7 0.1 0
0.73333333 0.1 0
0.76666667 0.1 0
0.8 0.1 0
0.83333333 0.1 0
0.86666667 0.1 0
0.9 0.1 0
0.93333333 0.1 0
0.96666667 0.1 0
1 0.1 0
0 0.13333333 0
0.033333333 0.13333333 0
0.066666667 0.13333333 0
0.1 0.13333333 0
0.13333333 0.13333333 0
0.16666667 0.13333333 0
0.2 0.13333333 0
0.23333333 0.13333333 0
0.26666667 0.13333333 0
0.3 0.13333333 0
0.33333333 0.13333333 0
0.36666667 0.13333333 0
0.4 0.13333333 0
0.43333333 0.13333333 0
0.46666667 0.13333333 0
0.5 0.13333333 0
0.53333333 0.13333333 0
0.56666667 0.13333333 0
0.6 0.13333333 0
0.63333333 0.13333333 0
0.66666667 0.13333333 0
0.7 0.13333333 0
0.73333333 0.13333333 0
0.76666667 0.13333333 0
0.8 0.13333333 0
0.83333333 0.13333333 0
0.86666667 0.13333333 0
0.9 0.13333333 0
0.93333333 0.13333333 0
0.96666667 0.13333333 0
1 0.13333333 0
0 0.16666667 0
0.033333333 0.16666667 0
0.066666667 0.16666667 0
0.1 0.16666667 0
0.13333333 0.16666667 0
0.16666667 0.16666667 0
0.2 0.16666667 0
0.23333333 0.16666667 0
0.26666667 0.16666667 0
0.3 0.16666667 0
0.33333333 0.16666667 0
0.36666667 0.16666667 0
0.4 0.16666667 0
0.43333333 0.16666667 0
0.46666667 0.16666667 0
0.5 0.16666667 0
0.53333333 0.16666667 0
0.56666667 0.16666667 0
0.6 0.16666667 0
0.63333333 0.16666667 0
0.66666667 0.16666667 0
0.7 0.16666667 0
0.73333333 0.16666667 0
0.76666667 0.16666667 0
0.8 0.16666667 0
0.83333333 0.16666667 0
0.86666667 0.16666667 0
0.9 0.16666667 0
0.93333333 0.16666667 0
0.96666667 0.16666667 0
1 0.16666667 0
0 0.2 0
0.033333333 0.2 0
0.066666667 0.2 0
0.1 0.2 0
0.13333333 0.2 0
0.16666667 0.2 0
0.2 0.2 0
0.23333333 0.2 0
0.26666667 0.2 0
0.3 0.2 0
0.33333333 0.2 0
0.36666667 0.2 0
0.4 0.2 0
0.43333333 0.2 0
0.46666667 0.2 0
0.5 0.2 0
0.53333333 0.2 0
0.56666667 0.2 0
0.6 0.2 0
0.63333333 0.2 0
0.66666667 0.2 0
0.7 0.2 0
0.73333333 0.2 0
0.76666667 0.2 0
0.8 0.2 0
0.83333333 0.2 0
0.86666667 0.2 0
0.9 0.2 0
0.93333333 0.2 0
0.96666667 0.2 0
1 0.2 0
0 0.23333333 0
0.033333333 0.23333333 0
0.066666667 0.23333333 0
0.1 0.23333333 0
0.13333333 0.23333333 0
0.16666667 0.23333333 0
0.2 0.23333333 0
0.23333333 0.23333333 0
0.26666667 0.23333333 0
0.3 0.23333333 0
0.33333333 0.23333333 0
0.36666667 0.23333333 0
0.4 0.23333333 0
0.43333333 0.23333333 0
0.46666667 0.23333333 0
0.5 0.23333333 0
0.53333333 0.23333333 0
0.56666667 0.23333333 0
0.6 0.23333333 0
0.63333333 0.23333333 0
0.66666667 0.23333333 0
0.7 0.23333333 0
0.73333333 0.23333333 0
0.76666667 0.23333333 0
0.8 0.23333333 0
0.83333333 0.23333333 0
0.86666667 0.23333333 0
0.9 0.23333333 0
0.93333333 0.23333333 0
0.96666667 0.23333333 0
1 0.23333333 0
0 0.26666667 0
0.033333333 0.26666667 0
0.066666667 0.26666667 0
0.1 0.26666667 0
0.13333333 0.26666667 0
0.16666667 0.26666667 0
0.2 0.26666667 0
0.23333333 0.26666667 0
0.26666667 0.26666667 0
0.3 0.26666667 0
0.33333333 0.26666667 0
0.36666667 0.26666667 0
0.4 0.26666667 0
0.43333333 0.26666667 0
0.46666667 0.26666667 0
0.5 0.26666667 0
0.53333333 0.26666667 0
0.56666667 0.26666667 0
0.6 0.26666667 0
0.63333333 0.26666667 0
0.66666667 0.26666667 0
0.7 0.26666667 0
0.73333333 0.26666667 0
0.76666667 0.26666667 0
0.8 0.26666667 0
0.83333333 0.26666667 0
0.86666667 0.26666667 0
0.9 0.26666667 0
0.93333333 0.26666667 0
0.96666667 0.26666667 0
1 0.26666667 0
0 0.3 0
0.033333333 0.3 0
0.066666667 0.3 0
0.1 0.3 0
0.13333333 0.3 0
0.16666667 0.3 0
0.2 0.3 0
0.23333333 0.3 0
0.26666667 0.3 0
0.3 0.3 0
0.33333333 0.3 0
0.36666667 0.3 0
0.4 0.3 0
0.43333333 0.3 0
0.46666667 0.3 0
0.5 0.3 0
0.53333333 0.3 0
0.56666667 0.3 0
0.6 0.3 0
0.63333333 0.3 0
0.66666667 0.3 0
0.7 0.3 0
0.73333333 0.3 0
0.76666667 0.3 0
0.8 0.3 0
0.83333333 0.3 0
0.86666667 0.3 0
0.9 0.3 0
0.93333333 0.3 0
0.96666667 0.3 0
1 0.3 0
0 0.33333333 0
0.033333333 0.33333333 0
0.066666667 0.33333333 0
0.1 0.33333333 0
0.13333333 0.33333333 0
0.16666667 0.33333333 0
0.2 0.33333333 0
0.23333333 0.33333333 0
0.26666667 0.33333333 0
0.3 0.33333333 0
0.33333333 0.33333333 0
0.36666667 0.33333333 0
0.4 0.33333333 0
0.43333333 0.33333333 0
0.46666667 0.33333333 0
0.5 0.33333333 0
0.53333333 0.33333333 0
0.56666667 0.33333333 0
0.6 0.33333333 0
0.63333333 0.33333333 0
0.66666667 0.33333333 0
0.7 0.33333333 0
0.73333333 0.33333333 0
0.76666667 0.33333333 0
0.8 0.33333333 0
0.83333333 0.33333333 0
0.86666667 0.33333333 0
0.9 0.33333333 0
0.93333333 0.33333333 0
0.96666667 0.33333333 0
1 0.33333333 0
0 0.36666667 0
0.033333333 0.36666667 0
0.066666667 0.36666667 0
0.1 0.36666667 0
0.13333333 0.36666667 0
0.16666667 0.36666667 0
0.2 0.36666667 0
0.23333333 0.36666667 0
0.26666667 0.36666667 0
0.3 0.36666667 0
0.33333333 0.36666667 0
0.36666667 0.36666667 0
0.4 0.36666667 0
0.43333333 0.36666667 0
0.46666667 0.36666667 0
0.5 0.36666667 0
0.53333333 0.36666667 0
0.56666667 0.36666667 0
0.6 0.36666667 0
0.63333333 0.36666667 0
0.66666667 0.36666667 0
0.7 0.36666667 0
0.73333333 0.36666667 0
0.76666667 0.36666667 0
0.8 0.36666667 0
0.83333333 0.36666667 0
0.86666667 0.36666667 0
0.9 0.36666667 0
0.93333333 0.36666667 0
0.96666667 0.36666667 0
1 0.36666667 0
0 0.4 0
0.033333333 0.4 0
0.066666667 0.4 0
0.1 0.4 0
0.13333333 0.4 0
0.16666667 0.4 0
0.2 0.4 0
0.23333333 0.4 0
0.26666667 0.4 0
0.3 0.4 0
0.33333333 0.4 0
0.36666667 0.4 0
0.4 0.4 0
0.43333333 0.4 0
0.46666667 0.4 0
0.5 0.4 0
0.53333333 0.4 0
0.56666667 0.4 0
0.6 0.4 0
0.63333333 0.4 0
0.66666667 0.4 0
0.7 0.4 0
0.73333333 0.4 0
0.76666667 0.4 0
0.8 0.4 0
0.83333333 0.4 0
0.86666667 0.4 0
0.9 0.4 0
0.93333333 0.4 0
0.96666667 0.4 0
1 0.4 0
0 0.43333333 0
0.033333333 0.43333333 0
0.066666667 0.43333333 0
0.1 0.43333333 0
0.13333333 0.43333333 0
0.16666667 0.43333333 0
0.2 0.43333333 0
0.23333333 0.43333333 0
0.26666667 0.43333333 0
0.3 0.43333333 0
0.33333333 0.43333333 0
0.36666667 0.43333333 0
0.4 0.43333333 0
0.43333333 0.43333333 0
0.46666667 0.43333333 0
0.5 0.43333333 0
0.53333333 0.43333333 0
0.56666667 0.43333333 0
0.6 0.43333333 0
0.63333333 0.43333333 0
0.66666667 0.43333333 0
0.7 0.43333333 0
0.73333333 0.43333333 0
0.76666667 0.43333333 0
0.8 0.43333333 0
0.83333333 0.43333333 0
0.86666667 0.43333333 0
0.9 0.43333333 0
0.93333333 0.43333333 0
0.96666667 0.43333333 0
1 0.43333333 0
0 0.46666667 0
0.033333333 0.46666667 0
0.066666667 0.46666667 0
0.1 0.46666667 0
0.13333333 0.46666667 0
0.16666667 0.46666667 0
0.2 0.46666667 0
0.23333333 0.46666667 0
0.26666667 0.46666667 0
0.3 0.46666667 0
0.33333333 0.46666667 0
0.36666667 0.46666667 0
0.4 0.46666667 0
0.43333333 0.46666667 0
0.46666667 0.46666667 0
0.5 0.46666667 0
0.53333333 0.46666667 0
0.56666667 0.46666667 0
0.6 0.46666667 0
0.63333333 0.46666667 0
0.66666667 0.46666667 0
0.7 0.46666667 0
0.73333333 0.46666667 0
0.76666667 0.46666667 0
0.8 0.46666667 0
0.83333333 0.46666667 0
0.86666667 0.46666667 0
0.9 0.46666667 0
0.93333333 0.46666667 0
0.96666667 0.46666667 0
1 0.46666667 0
0 0.5 0
0.033333333 0.5 0
0.066666667 0.5 0
0.1 0.5 0
0.13333333 0.5 0
0.16666667 0.5 0
0.2 0.5 0
0.23333333 0.5 0
0.26666667 0.5 0
0.3 0.5 0
0.33333333 0.5 0
0.36666667 0.5 0
0.4 0.5 0
0.43333333 0.5 0
0.46666667 0.5 0
0.5 0.5 0
0.53333333 0.5 0
0.56666667 0.5 0
0.6 0.5 0
0.63333333 0.5 0
0.66666667 0.5 0
0.7 0.5 0
0.73333333 0.5 0
0.76666667 0.5 0
0.8 0.5 0
0.83333333 0.5 0
0.86666667 0.5 0
0.9 0.5 0
0.93333333 0.5 0
0.96666667 0.5 0
1 0.5 0
0 0.53333333 0
0.033333333 0.53333333 0
0.066666667 0.53333333 0
0.1 0.53333333 0
0.13333333 0.53333333 0
0.16666667 0.53333333 0
0.2 0.53333333 0
0.23333333 0.53333333 0
0.26666667 0.53333333 0
0.3 0.53333333 0
0.33333333 0.53333333 0
0.36666667 0.53333333 0
0.4 0.53333333 0
0.43333333 0.53333333 0
0.46666667 0.53333333 0
0.5 0.53333333 0
0.53333333 0.53333333 0
0.56666667 0.53333333 0
0.6 0.53333333 0
0.63333333 0.53333333 0
0.66666667 0.53333333 0
0.7 0.53333333 0
0.73333333 0.53333333 0
0.76666667 0.53333333 0
0.8 0.53333333 0
[...]
CELL_DATA 1920
Scalars  Label int 1
LOOKUP_TABLE FreeFempp_table
0
0
0
0
0
0
0
0
0
0
0
0
0
0
0
0
0
0
0
0
0
0
0
0
0
0
0
0
0
0
0
0
0
0
0
0
0
0
0
0
0
0
0
0
0
0
0
0
0
0
0
0
0
0
0
0
0
0
0
0
0
0
0
0
0
0
0
0
0
0
0
0
0
0
0
0
0
0
0
0
0
0
0
0
0
0
0
0
0
0
0
0
0
0
0
0
0
0
0
0
0
0
0
0
0
0
0
0
0
0
0
0
0
0
0
0
0
0
0
0
0
0
0
0
0
0
0
0
0
0
0
0
0
0
0
0
0
0
0
0
0
0
0
0
0
0
0
0
0
0
0
0
0
0
0
0
0
0
0
0
0
0
0
0
0
0
0
0
0
0
0
0
0
0
0
0
0
0
0
0
0
0
0
0
0
0
0
0
0
0
0
0
0
0
0
0
0
0
0
0
0
0
0
0
0
0
0
0
0
0
0
0
0
0
0
0
0
0
0
0
0
0
0
0
0
0
0
0
0
0
0
0
0
0
0
0
0
0
0
0
0
0
0
0
0
0
0
0
0
0
0
0
0
0
0
0
0
0
0
0
0
0
0
0
0
0
0
0
0
0
0
0
0
0
0
0
0
0
0
0
0
0
0
0
0
0
0
0
0
0
0
0
0
0
0
0
0
0
0
0
0
0
0
0
0
0
0
0
0
0
0
0
0
0
0
0
0
0
0
0
0
0
0
0
0
0
0
0
0
0
0
0
0
0
0
0
0
0
0
0
0
0
0
0
0
0
0
0
0
0
0
0
0
0
0
0
0
0
0
0
0
0
0
0
0
0
0
0
0
0
0
0
0
0
0
0
0
0
0
0
0
0
0
0
0
0
0
0
0
0
0
0
0
0
0
0
0
0
0
0
0
0
0
0
0
0
0
0
0
0
0
0
0
0
0
0
0
0
0
0
0
0
0
0
0
0
0
0
0
0
0
0
0
0
0
0
0
0
0
0
0
0
0
0
0
0
0
0
0
0
0
0
0
0
0
0
0
0
0
0
0
0
0
0
0
0
0
0
0
0
0
0
0
0
0
0
0
0
0
0
0
0
0
0
0
0
0
0
0
0
0
0
0
0
0
0
0
0
0
0
0
0
0
0
0
0
0
0
0
0
0
0
0
0
0
0
0
0
0
0
0
0
0
0
0
0
0
0
0
0
0
0
0
0
0
0
0
0
0
0
0
0
0
0
0
0
0
0
0
0
0
0
0
0
0
0
0
0
0
0
0
0
0
0
0
0
0
0
0
0
0
0
0
0
0
0
0
0
0
0
0
0
0
0
0
0
0
0
0
0
0
0
0
0
0
0
0
0
0
0
0
0
0
0
0
0
0
0
0
0
0
0
0
0
0
0
0
0
0
0
0
0
0
0
0
0
0
0
0
0
0
0
0
0
0
0
0
0
0
0
0
0
0
0
0
0
0
0
0
0
0
0
0
0
0
0
0
0
0
0
0
0
0
0
0
0
0
0
0
0
0
0
0
0
0
0
0
0
0
0
0
0
0
0
0
0
0
0
0
0
0
0
0
0
0
0
0
0
0
0
0
0
0
0
0
0
0
0
0
0
0
0
0
0
0
0
0
0
0
0
0
0
0
0
0
0
0
0
0
0
0
0
0
0
0
0
0
0
0
0
0
0
0
0
0
0
0
0
0
0
0
0
0
0
0
0
0
0
0
0
0
0
0
0
0
0
0
0
0
0
0
0
0
0
0
0
0
0
0
0
0
0
0
0
0
0
0
0
0
0
0
0
0
0
0
0
0
0
0
0
0
0
0
0
0
0
0
0
0
0
0
0
0
0
0
0
0
0
0
0
0
0
0
0
0
0
0
0
0
0
0
0
0
0
0
0
0
0
0
0
0
0
0
0
0
0
0
0
0
0
0
0
0
0
0
0
0
0
0
0
0
0
0
0
0
0
0
0
0
0
0
0
0
0
0
0
0
0
0
0
0
0
0
0
0
0
0
0
0
0
0
0
0
0
0
0
0
0
0
0
0
0
0
0
0
0
0
0
0
0
0
0
0
0
0
0
0
0
0
0
0
0
0
0
0
0
0
0
0
0
0
0
0
0
0
0
0
0
0
0
0
0
0
0
0
0
0
0
0
0
0
0
0
0
0
0
0
0
0
0
0
0
0
0
0
0
0
0
0
0
0
0
0
0
0
0
0
0
0
0
0
0
0
0
0
0
0
0
0
0
0
0
0
0
0
0
0
0
0
0
0
0
0
0
0
0
0
0
0
0
0
0
0
0
0
0
0
0
0
0
0
0
0
0
0
0
0
0
0
0
0
0
0
0
0
0
0
0
0
0
0
0
0
0
0
0
0
0
0
0
0
0
0
0
0
0
0
0
0
0
0
0
0
0
0
0
0
0
0
0
0
0
0
0
0
0
0
0
0
0
0
0
0
0
0
0
0
0
0
0
0
0
0
0
0
0
0
0
0
0
0
0
0
0
0
0
0
0
0
0
0
0
0
0
0
0
0
0
0
0
0
0
0
0
0
0
0
0
0
0
0
0
0
0
0
0
0
0
0
0
0
0
0
0
0
0
0
0
0
0
0
0
0
0
0
0
0
0
0
0
0
0
0
0
0
0
0
0
0
0
0
0
0
0
0
0
0
0
0
0
0
0
0
0
0
0
0
0
0
0
0
0
0
0
0
0
0
0
0
0
0
0
0
0
0
0
0
0
0
0
0
0
0
0
0
0
0
0
0
0
0
0
0
0
0
0
0
0
0
0
0
0
0
0
0
0
0
0
0
0
0
0
0
0
0
0
0
0
0
0
0
0
0
0
0
0
0
0
0
0
0
0
0
0
0
0
0
0
0
0
0
0
0
0
0
0
0
0
0
0
0
0
0
0
0
0
0
0
0
0
0
0
0
0
0
0
0
0
0
0
0
0
0
0
0
0
0
0
0
0
0
0
0
0
0
0
0
0
0
0
0
0
0
0
0
0
0
0
0
0
0
0
0
0
0
0
0
0
0
0
0
0
0
0
0
0
0
0
0
0
0
0
0
0
0
0
0
0
0
0
0
0
0
0
0
0
0
0
0
0
0
0
0
0
0
0
0
0
0
0
0
0
0
0
0
0
0
0
0
0
0
0
0
0
0
0
0
0
0
0
0
0
0
0
0
0
0
0
0
0
0
0
0
0
0
0
0
0
0
0
0
0
0
0
0
0
0
0
0
0
0
0
0
0
0
0
0
0
0
0
0
0
0
0
0
0
0
0
0
0
0
0
0
0
0
0
0
0
0
0
0
0
0
0
0
0
0
0
0
0
0
0
0
0
0
0
0
0
0
0
0
0
0
0
0
0
0
0
0
0
0
0
0
0
0
0
0
0
0
0
0
0
0
0
0
0
0
0
0
0
0
0
0
0
0
0
0
0
0
0
0
0
0
0
0
0
0
0
0
0
0
0
0
0
0
0
0
0
0
0
0
0
0
0
0
0
0
0
0
0
0
0
0
0
0
0
0
0
0
0
0
0
0
0
0
0
0
0
0
0
0
0
0
0
0
0
0
0
0
0
0
0
0
0
0
0
0
0
0
0
0
0
0
0
0
0
0
0
0
0
0
0
0
0
0
0
0
0
0
0
0
0
0
0
0
0
0
0
0
0
0
0
0
0
0
0
0
0
0
0
0
0
0
0
0
0
0
0
0
0
0
0
0
0
0
0
0
0
0
0
0
0
0
0
0
0
0
0
0
0
0
0
0
0
0
0
0
0
0
0
0
0
0
0
0
0
0
0
0
0
0
0
0
0
0
0
0
0
0
0
0
0
0
0
0
0
0
0
0
0
0
0
0
0
0
0
0
0
0
0
0
0
0
0
0
0
0
0
0
0
0
0
0
0
0
0
0
0
0
0
0
0
0
0
0
0
0
0
0
0
0
0
0
0
0
0
0
0
0
0
0
0
0
0
0
0
0
0
0
0
0
0
0
0
0
0
0
0
0
0
0
0
0
0
0
0
0
0
0
0
0
0
0
0
0
0
0
0
0
0
0
0
0
0
0
0
0
0
0
0
1
1
1
1
1
1
1
1
1
1
1
1
1
1
1
1
1
1
1
1
1
1
1
1
1
1
1
1
1
1
2
2
2
2
2
2
2
2
2
2
2
2
2
2
2
2
2
2
2
2
2
2
2
2
2
2
2
2
2
2
3
3
3
3
3
3
3
3
3
3
3
3
3
3
3
3
3
3
3
3
3
3
3
3
3
3
3
3
3
3
4
4
4
4
4
4
4
4
4
4
4
4
4
4
4
4
4
4
4
4
4
4
4
4
4
4
4
4
4
4

LOOKUP_TABLE FreeFempp_table 5
1.00000000 0.00000000 0.00000000 1.00000000
1.00000000 1.00000000 0.00000000 1.00000000
1.00000000 0.00000000 1.00000000 1.00000000
0.00000000 1.00000000 0.00000000 1.00000000
0.00000000 1.00000000 1.00000000 1.00000000

POINT_DATA 961
FIELD FieldData 1
Density 1 961 float
8.75059813e-02 7.92628750e-02 8.08799118e-02 8.16274583e-02 8.22804794e-02 8.29613805e-02 8.37209821e-02 8.46014321e-02 8.56430233e-02 8.68711472e-02 8.82462934e-02 8.94791856e-02 8.99329931e-02 9.41546932e-02 1.28439203e-01 8.88915420e-01 8.32370162e-01 8.89008522e-01 8.76099527e-01 7.97312021e-01 7.75787532e-01 7.56078541e-01 7.36817718e-01 7.12488830e-01 6.77024722e-01 6.32277787e-01 5.55234373e-01 5.06443799e-01 4.77994055e-01 4.76704836e-01 2.87160397e-01 7.19561428e-02 4.99977469e-02 5.20806760e-02 5.32870963e-02 5.42874001e-02 5.52727170e-02 5.63189127e-02 5.74854687e-02 5.88283427e-02 6.03840537e-02 6.21354543e-02 6.39300868e-02 6.52463511e-02 6.82727620e-02 9.89946127e-02 9.03690338e-01 8.83710861e-01 1.18356846e-01 2.96262264e-01 8.46261501e-01 8.58627558e-01 8.64231884e-01 8.63525689e-01 8.60818565e-01 8.55335236e-01 8.47588241e-01 8.12100708e-01 7.53553629e-01 7.22761750e-01 7.15445697e-01 4.74544406e-01 6.89954087e-02 4.59785722e-02 4.72674072e-02 4.78802808e-02 4.87631746e-02 4.96634990e-02 5.05598634e-02 5.14720790e-02 5.24085872e-02 5.33175543e-02 5.39820045e-02 5.37039302e-02 5.03990501e-02 4.28675376e-02 6.14803471e-02 8.99327338e-01 8.94100726e-01 1.12825267e-01 1.01757348e-01 8.70838538e-02 7.99240395e-02 8.01967531e-02 7.91114196e-02 8.25109184e-02 9.22198072e-02 1.62918806e-01 3.99080724e-01 5.20237625e-01 5.17593324e-01 5.24784148e-01 3.91572446e-01 6.69667721e-02 4.45665494e-02 4.63802740e-02 4.70122434e-02 4.76899594e-02 4.82622683e-02 4.86805588e-02 4.89242934e-02 4.89531346e-02 4.86555174e-02 4.77678217e-02 4.56661284e-02 4.08487022e-02 3.15617956e-02 2.80314423e-02 6.59907311e-02 9.29001272e-01 1.15803488e-01 1.00517884e-01 7.41861314e-02 5.77134341e-02 5.38301729e-02 4.60982174e-02 4.02258188e-02 3.66012901e-02 4.31353413e-02 6.28666356e-02 8.09961781e-02 9.16925222e-02 9.93587896e-02 1.38431981e-01 6.44116625e-02 4.29634079e-02 4.57948521e-02 4.68297675e-02 4.74455506e-02 4.76352498e-02 4.74445745e-02 4.68835682e-02 4.59061898e-02 4.43970077e-02 4.21485007e-02 3.87854986e-02 3.35870534e-02 2.56943274e-02 1.79981254e-02 2.27804407e-02 7.13411942e-02 9.44218516e-01 1.20116770e-01 1.03419892e-01 7.95208663e-02 6.42919019e-02 4.72147800e-02 3.17965336e-02 2.28722487e-02 2.18780749e-02 2.95594670e-02 4.41130400e-02 5.96593395e-02 7.02225417e-02 9.39625278e-02 6.11354895e-02 4.10770141e-02 4.55652922e-02 4.72130999e-02 4.77518737e-02 4.74868976e-02 4.66473885e-02 4.53180112e-02 4.34708670e-02 4.09921966e-02 3.76993380e-02 3.33460197e-02 2.76377052e-02 2.05723979e-02 1.36430562e-02 1.10519556e-02 1.77316479e-02 5.85819297e-02 9.23936188e-01 9.14557695e-01 6.64516270e-01 1.29547596e-01 8.92604813e-02 6.48688599e-02 3.55408974e-02 2.12470554e-02 2.37422679e-02 3.30981985e-02 4.61309031e-02 5.94101995e-02 8.54429752e-02 6.15647398e-02 4.10057604e-02 4.72361147e-02 4.92229052e-02 4.93576229e-02 4.85056564e-02 4.70892899e-02 4.52217571e-02 4.28672247e-02 3.99077497e-02 3.61593440e-02 3.13823856e-02 2.54431125e-02 1.88922156e-02 1.31962337e-02 1.00413579e-02 1.00154560e-02 1.10169780e-02 3.09767406e-02 8.92331004e-01 9.11018729e-01 9.18249965e-01 9.09076273e-01 8.97912860e-01 2.47454211e-01 5.25496937e-02 2.62863114e-02 2.67460253e-02 3.39096151e-02 4.90588434e-02 8.22080970e-02 8.54905546e-02 5.67891262e-02 5.82427420e-02 5.72796576e-02 5.56110181e-02 5.39583638e-02 5.23163714e-02 5.04720323e-02 4.82264906e-02 4.54381332e-02 4.20277268e-02 3.79817151e-02 3.33932117e-02 2.85247266e-02 2.36436687e-02 1.84040889e-02 1.22331800e-02 9.98010579e-03 9.97441821e-03 1.13745183e-02 4.47448790e-02 1.84712723e-01 8.95923257e-01 8.95694971e-01 9.10182059e-01 9.14803028e-01 6.92756101e-02 2.40050517e-02 2.01687310e-02 3.23465019e-02 7.36706182e-02 2.22364977e-01 1.41144633e-01 9.99435857e-02 8.90842676e-02 8.40450078e-02 8.15068558e-02 8.01584050e-02 7.91463405e-02 7.79568702e-02 7.63212964e-02 7.41707534e-02 7.15371743e-02 6.83322549e-02 6.40998110e-02 5.81265688e-02 5.02267070e-02 3.93495634e-02 2.25891005e-02 1.00170365e-02 9.97296907e-03 9.98910796e-03 1.00302398e-02 2.04025544e-02 4.58709039e-02 8.32845643e-02 1.30261078e-01 9.58932102e-01 6.01425208e-02 1.46321496e-02 1.45077026e-02 5.46138659e-02 4.38794136e-01 5.73925853e-01 6.05258286e-01 5.93542159e-01 5.68373382e-01 5.40601075e-01 5.15577912e-01 4.93131369e-01 4.71477270e-01 4.48700368e-01 4.22823250e-01 3.92144173e-01 3.56103510e-01 3.16342622e-01 2.74399370e-01 2.32918933e-01 1.96054414e-01 1.50329962e-01 5.96668310e-02 2.61442866e-02 1.00443773e-02 1.00195743e-02 1.00362282e-02 1.43826865e-02 3.68761718e-02 9.25209373e-02 1.28450826e-01 9.16290104e-01 2.42979694e-02 9.97910928e-03 2.36812197e-02 7.09443331e-01 8.31693411e-01 8.23298335e-01 8.09683025e-01 7.90362835e-01 7.67276227e-01 7.41372287e-01 7.13169932e-01 6.83225393e-01 6.52070522e-01 6.19501531e-01 5.84445238e-01 5.45661747e-01 5.02969444e-01 4.58442003e-01 4.12821829e-01 3.72560203e-01 3.38409662e-01 3.03657234e-01 2.70153463e-01 2.12545514e-01 1.20656297e-01 4.31260206e-02 2.48430874e-02 2.60269754e-02 8.12847018e-02 1.06788307e-01 8.83204818e-01 9.00076509e-01 9.96951666e-03 1.00061772e-02 8.34688723e-01 8.83322895e-01 8.70754123e-01 8.64383161e-01 8.53470147e-01 8.30065489e-01 8.04430008e-01 7.76074290e-01 7.46384859e-01 7.17202663e-01 6.89885080e-01 6.64160013e-01 6.38538241e-01 6.12577379e-01 5.87653458e-01 5.65974116e-01 5.47887921e-01 5.35007119e-01 5.25056362e-01 5.16711533e-01 5.05700290e-01 4.66881335e-01 4.49412674e-01 8.28336954e-01 1.18173510e-01 1.08327605e-01 1.17053226e-01 1.26130030e-01 9.18747067e-01 1.00149261e-02 1.00054974e-02 7.30158627e-01 8.77922773e-01 8.55482340e-01 8.52908969e-01 8.60593915e-01 8.46634150e-01 8.15588355e-01 7.78870106e-01 7.42841482e-01 7.12477803e-01 6.89197004e-01 6.72770977e-01 6.60429895e-01 6.49262428e-01 6.40307486e-01 6.33474469e-01 6.36238158e-01 6.45732045e-01 6.69751406e-01 6.93129003e-01 7.17264593e-01 7.33498394e-01 7.45119333e-01 7.51720965e-01 6.20792627e-01 1.27072245e-01 1.31475493e-01 5.06674111e-01 9.45670724e-01 1.00300852e-02 1.00178048e-02 1.75453350e-01 3.03297400e-01 3.36074412e-01 3.98617148e-01 5.38884997e-01 6.49874568e-01 6.98101699e-01 6.81833744e-01 6.54769957e-01 6.18332505e-01 5.97926795e-01 5.87982416e-01 5.90767324e-01 6.06779397e-01 6.17911935e-01 6.21258080e-01 6.25093460e-01 6.35283053e-01 6.65249348e-01 7.07670927e-01 7.40914583e-01 7.82811522e-01 8.38658273e-01 8.42812896e-01 8.21996331e-01 6.54270947e-01 2.74875730e-01 9.01362419e-01 9.26338196e-01 1.15409335e-02 1.04475571e-02 1.10381730e-01 9.69341621e-02 9.63660106e-02 9.61765647e-02 1.00759171e-01 1.15715705e-01 1.91551641e-01 3.32907587e-01 4.11179006e-01 4.24100518e-01 4.16390359e-01 4.16296691e-01 4.23910886e-01 4.59436864e-01 5.03127396e-01 5.18657744e-01 5.27705908e-01 5.44185162e-01 5.63657105e-01 5.71778834e-01 5.14937043e-01 4.68858898e-01 4.75751370e-01 5.78131437e-01 7.92534411e-01 7.50575125e-01 7.20872402e-01 8.94362926e-01 9.09043908e-01 1.22616338e-02 1.17162447e-02 1.00679725e-01 8.95612314e-02 8.60858858e-02 8.65315124e-02 8.96088630e-02 9.10003111e-02 9.65048373e-02 1.06097929e-01 1.40678823e-01 2.24663898e-01 2.51814902e-01 2.65091211e-01 2.71718830e-01 2.89454043e-01 3.08786094e-01 2.51225054e-01 2.28348508e-01 2.67866701e-01 3.69838923e-01 5.35201371e-01 6.11441195e-01 5.29655278e-01 4.04392630e-01 2.11891800e-01 2.90014416e-01 6.90765083e-01 8.60173643e-01 8.91791344e-01 8.99048448e-01 1.26762548e-02 1.22552970e-02 8.74662846e-02 6.77871630e-02 7.71078840e-02 8.65925550e-02 9.83080491e-02 9.90412012e-02 9.56850946e-02 9.72094908e-02 1.01199679e-01 1.06937051e-01 1.39679208e-01 2.07688212e-01 2.07134232e-01 1.65240631e-01 1.36906922e-01 1.31290779e-01 1.28063813e-01 1.33503050e-01 1.65812761e-01 2.75160640e-01 4.83501136e-01 6.02548718e-01 6.12122595e-01 5.84929645e-01 4.75750864e-01 8.06103885e-01 8.82126212e-01 8.90956581e-01 8.89651000e-01 1.31389610e-02 1.27953952e-02 1.33935437e-01 8.48982409e-02 8.29242095e-02 8.30758214e-02 8.74308199e-02 9.99579504e-02 1.01103224e-01 1.02170616e-01 1.01779856e-01 1.02223612e-01 1.04131594e-01 1.04702659e-01 1.07030898e-01 1.07154548e-01 1.07391328e-01 1.08226217e-01 1.10824205e-01 1.18091464e-01 1.33400694e-01 1.73629791e-01 2.29355395e-01 3.47893536e-01 5.47538042e-01 6.97869956e-01 8.34644020e-01 8.82017255e-01 8.88364017e-01 8.87385786e-01 7.52648592e-01 1.29949646e-02 1.29447998e-02 2.91067630e-01 2.97623336e-01 2.57277638e-01 1.75080776e-01 1.00144513e-01 9.46353823e-02 1.02424987e-01 1.04036562e-01 1.03887059e-01 1.03940643e-01 1.02738917e-01 1.01129971e-01 9.95680317e-02 1.00553863e-01 1.03367530e-01 1.06225029e-01 1.09834179e-01 1.18884571e-01 1.41213030e-01 1.73222855e-01 2.24640176e-01 3.76400054e-01 6.66936934e-01 8.48043680e-01 8.71246397e-01 8.81555796e-01 8.79525542e-01 8.05166125e-01 9.54137817e-02 1.53322909e-02 1.23047326e-02 3.67456108e-01 5.65854371e-01 5.75854838e-01 4.74805266e-01 2.19468847e-01 1.13016911e-01 1.07696049e-01 1.07719496e-01 1.06515162e-01 1.05649672e-01 1.04433097e-01 1.04200877e-01 1.05405703e-01 1.07896581e-01 1.11270688e-01 1.17703065e-01 1.34427041e-01 1.62470162e-01 2.07109377e-01 3.03398490e-01 4.45820242e-01 6.96326435e-01 8.55558276e-01 8.70667040e-01 8.76849353e-01 8.75742376e-01 8.27492654e-01 1.80460989e-01 7.91750103e-02 3.80067900e-02 1.71039104e-02 2.88954347e-01 5.32572567e-01 5.82014918e-01 3.40803921e-01 1.22810088e-01 1.26437321e-01 1.22216746e-01 1.15158021e-01 1.11012958e-01 1.08330444e-01 1.06681906e-01 1.06935360e-01 1.34172276e-01 1.64978921e-01 1.89277202e-01 1.99972704e-01 2.23864257e-01 3.01082522e-01 4.31829631e-01 6.46799803e-01 7.90820897e-01 8.60863864e-01 8.66726577e-01 8.69169176e-01 8.62267613e-01 8.21407139e-01 3.01077873e-01 1.03855617e-01 7.95224905e-02 6.08845353e-02 6.66863695e-02 1.73817500e-01 3.38392556e-01 5.00188112e-01 1.51272893e-01 1.23644769e-01 1.28068015e-01 1.26926899e-01 1.21864267e-01 1.17700413e-01 1.13289922e-01 1.10938445e-01 1.13297984e-01 1.37729645e-01 1.53303534e-01 1.62724227e-01 1.79414034e-01 2.29160964e-01 3.43758255e-01 5.35967946e-01 7.14705825e-01 8.43897641e-01 8.52302849e-01 8.50801528e-01 8.39456856e-01 7.83901632e-01 3.06697488e-01 1.07342139e-01 9.39128622e-02 8.51442441e-02 7.97216520e-02 8.94218981e-02 1.22160599e-01 1.76815182e-01 5.03631949e-01 1.24132961e-01 1.22801490e-01 1.27831623e-01 1.26770467e-01 1.24066390e-01 1.21812753e-01 1.18616402e-01 1.16131075e-01 1.49142236e-01 1.96334973e-01 2.11157024e-01 2.31622890e-01 2.63764262e-01 3.24568182e-01 4.35328364e-01 5.91737986e-01 7.23932922e-01 7.80316532e-01 8.11281145e-01 8.01084876e-01 7.14686513e-01 1.73953220e-01 1.05259433e-01 9.47881788e-02 8.82462859e-02 8.62025246e-02 8.94827396e-02 9.92559120e-02 1.12504035e-01 1.20971143e-01 5.95387936e-01 1.24512643e-01 1.18490309e-01 1.21430889e-01 1.25973061e-01 1.27643585e-01 1.22795820e-01 1.17815122e-01 1.69257030e-01 3.74612778e-01 4.10957187e-01 3.19008797e-01 3.27497512e-01 3.81673813e-01 4.66818243e-01 5.87267995e-01 7.14728594e-01 7.94602811e-01 8.05161297e-01 7.46158600e-01 5.15393972e-01 1.10179104e-01 1.02356024e-01 9.80638936e-02 8.77611190e-02 8.33265111e-02 8.89036208e-02 9.31556597e-02 1.03228062e-01 1.12058811e-01 1.12655684e-01 6.65853441e-01 1.41974643e-01 1.10168606e-01 1.13795295e-01 1.17603615e-01 1.22906208e-01 1.24489531e-01 1.28190875e-01 3.44369680e-01 6.06486201e-01 5.97023845e-01 4.67419505e-01 4.07242835e-01 4.59191650e-01 5.52204311e-01 6.66781366e-01 7.68364847e-01 8.20690989e-01 7.91697800e-01 3.38090330e-01 1.06197171e-01 9.80171487e-02 9.30703506e-02 9.27890018e-02 9.55767334e-02 9.56430659e-02 9.93312821e-02 1.03451937e-01 1.13378949e-01 1.14626221e-01 1.14345416e-01 6.44445837e-01 1.66716278e-01 9.28101614e-02 9.91199166e-02 1.13394290e-01 1.16246589e-01 1.18554890e-01 2.49325693e-01 5.13876319e-01 5.71662545e-01 6.34494305e-01 5.75550914e-01 4.85847890e-01 5.18990874e-01 6.03984714e-01 6.98515594e-01 7.75860727e-01 8.14553797e-01 7.78365552e-01 3.60248387e-01 1.06496900e-01 1.01155661e-01 9.83899459e-02 1.03073992e-01 1.05989665e-01 1.11078128e-01 3.29951286e-01 4.88461941e-01 2.72549391e-01 1.15686685e-01 1.16690077e-01 5.22228301e-01 1.72434121e-01 7.18104765e-02 7.05617815e-02 9.32706147e-02 1.17292739e-01 1.38788402e-01 3.71121883e-01 4.84379321e-01 4.63233203e-01 4.86317039e-01 5.70248961e-01 5.83445072e-01 5.78664958e-01 6.39393032e-01 7.06044912e-01 7.60528088e-01 7.93827236e-01 7.80829787e-01 6.05199575e-01 1.79455385e-01 1.22944169e-01 2.25790605e-01 6.98131323e-01 8.47495317e-01 8.69606495e-01 8.52177203e-01 8.27705503e-01 5.09931624e-01 1.15963288e-01 1.17637731e-01 3.82507443e-01 2.31546119e-01 5.75217381e-02 4.65141758e-02 7.10449442e-02 1.11460544e-01 2.46319294e-01 3.23041439e-01 3.16161603e-01 3.34210426e-01 3.86926591e-01 5.34053504e-01 6.48965955e-01 6.26881361e-01 6.56487525e-01 7.08511949e-01 7.46250987e-01 7.80190468e-01 7.99647272e-01 7.88105309e-01 7.52792656e-01 7.90098071e-01 8.61489832e-01 8.72414172e-01 8.63058209e-01 8.47915649e-01 8.31407309e-01 8.26565862e-01 5.80780566e-01 1.18360929e-01 1.18019357e-01 3.31743628e-01 2.57726014e-01 4.49213237e-02 2.44658254e-02 5.31186536e-02 1.59561485e-01 3.17926794e-01 2.81130642e-01 2.81659335e-01 3.54559004e-01 4.96094525e-01 6.48662508e-01 7.21102238e-01 7.12676525e-01 6.51325166e-01 6.93115294e-01 7.41750181e-01 7.78753996e-01 8.09078157e-01 8.26152980e-01 8.29774380e-01 8.28616381e-01 8.24424684e-01 8.04439306e-01 7.64255464e-01 7.26302743e-01 6.94963515e-01 7.01063991e-01 4.98150229e-01 1.18688121e-01 1.24147758e-01 3.32691550e-01 3.58895093e-01 3.01992055e-02 1.04969796e-02 3.03957816e-02 4.10159320e-01 3.40045035e-01 2.93072253e-01 3.20095479e-01 4.13993716e-01 5.75860679e-01 7.58318603e-01 7.72648692e-01 7.79318511e-01 7.70511925e-01 7.34580994e-01 7.72898853e-01 7.97653496e-01 8.02671731e-01 7.93594241e-01 7.70269215e-01 7.30305076e-01 6.72483563e-01 6.02535009e-01 5.30579031e-01 4.78440672e-01 4.46713477e-01 4.29381490e-01 3.54456007e-01 1.17727011e-01 1.23181477e-01 3.83998007e-01 2.88093299e-01 7.24362731e-02 2.01888122e-02 3.06256898e-02 7.54632354e-01 3.34082514e-01 2.95537859e-01 2.97802925e-01 3.22024375e-01 3.76447976e-01 4.86940920e-01 5.60078442e-01 5.89456201e-01 6.29364491e-01 5.89586198e-01 5.62824070e-01 5.75552404e-01 5.52605927e-01 4.95641917e-01 4.22638923e-01 3.62210214e-01 3.24500442e-01 2.99764961e-01 2.81392813e-01 2.61703521e-01 2.50556439e-01 2.37335742e-01 2.39120156e-01 
