# vtk DataFile Version 2.0
results/7_density.vtk, Created by Freefem++ 
ASCII
DATASET UNSTRUCTURED_GRID
POINTS 961 float
0 0 0
0.033333333 0 0
0.066666667 0 0
0.1 0 0
0.13333333 0 0
0.16666667 0 0
0.2 0 0
0.23333333 0 0
0.26666667 0 0
0.3 0 0
0.33333333 0 0
0.36666667 0 0
0.4 0 0
0.43333333 0 0
0.46666667 0 0
0.5 0 0
0.53333333 0 0
0.56666667 0 0
0.6 0 0
0.63333333 0 0
0.66666667 0 0
0.7 0 0
0.73333333 0 0
0.76666667 0 0
0.8 0 0
0.83333333 0 0
0.86666667 0 0
0.9 0 0
0.93333333 0 0
0.96666667 0 0
1 0 0
0 0.033333333 0
0.033333333 0.033333333 0
0.066666667 0.033333333 0
0.1 0.033333333 0
0.13333333 0.033333333 0
0.16666667 0.033333333 0
0.2 0.033333333 0
0.23333333 0.033333333 0
0.26666667 0.033333333 0
0.3 0.033333333 0
0.33333333 0.033333333 0
0.36666667 0.033333333 0
0.4 0.033333333 0
0.43333333 0.033333333 0
0.46666667 0.033333333 0
0.5 0.033333333 0
0.53333333 0.033333333 0
0.56666667 0.033333333 0
0.6 0.033333333 0
0.63333333 0.033333333 0
0.66666667 0.033333333 0
0.7 0.033333333 0
0.73333333 0.033333333 0
0.76666667 0.033333333 0
0.8 0.033333333 0
0.83333333 0.033333333 0
0.86666667 0.033333333 0
0.9 0.033333333 0
0.93333333 0.033333333 0
0.96666667 0.033333333 0
1 0.033333333 0
0 0.066666667 0
0.033333333 0.066666667 0
0.066666667 0.066666667 0
0.1 0.066666667 0
0.13333333 0.066666667 0
0.16666667 0.066666667 0
0.2 0.066666667 0
0.23333333 0.066666667 0
0.26666667 0.066666667 0
0.3 0.066666667 0
0.33333333 0.066666667 0
0.36666667 0.066666667 0
0.4 0.066666667 0
0.43333333 0.066666667 0
0.46666667 0.066666667 0
0.5 0.066666667 0
0.53333333 0.066666667 0
0.56666667 0.066666667 0
0.6 0.066666667 0
0.63333333 0.066666667 0
0.66666667 0.066666667 0
0.7 0.066666667 0
0.73333333 0.066666667 0
0.76666667 0.066666667 0
0.8 0.066666667 0
0.83333333 0.066666667 0
0.86666667 0.066666667 0
0.9 0.066666667 0
0.93333333 0.066666667 0
0.96666667 0.066666667 0
1 0.066666667 0
0 0.1 0
0.033333333 0.1 0
0.066666667 0.1 0
0.1 0.1 0
0.13333333 0.1 0
0.16666667 0.1 0
0.2 0.1 0
0.23333333 0.1 0
0.26666667 0.1 0
0.3 0.1 0
0.33333333 0.1 0
0.36666667 0.1 0
0.4 0.1 0
0.43333333 0.1 0
0.46666667 0.1 0
0.5 0.1 0
0.53333333 0.1 0
0.56666667 0.1 0
0.6 0.1 0
0.63333333 0.1 0
0.66666667 0.1 0
0.7 0.1 0
0.73333333 0.1 0
0.76666667 0.1 0
0.8 0.1 0
0.83333333 0.1 0
0.86666667 0.1 0
0.9 0.1 0
0.93333333 0.1 0
0.96666667 0.1 0
1 0.1 0
0 0.13333333 0
0.033333333 0.13333333 0
0.066666667 0.13333333 0
0.1 0.13333333 0
0.13333333 0.13333333 0
0.16666667 0.13333333 0
0.2 0.13333333 0
0.23333333 0.13333333 0
0.26666667 0.13333333 0
0.3 0.13333333 0
0.33333333 0.13333333 0
0.36666667 0.13333333 0
0.4 0.13333333 0
0.43333333 0.13333333 0
0.46666667 0.13333333 0
0.5 0.13333333 0
0.53333333 0.13333333 0
0.56666667 0.13333333 0
0.6 0.13333333 0
0.63333333 0.13333333 0
0.66666667 0.13333333 0
0.7 0.13333333 0
0.73333333 0.13333333 0
0.76666667 0.13333333 0
0.8 0.13333333 0
0.83333333 0.13333333 0
0.86666667 0.13333333 0
0.9 0.13333333 0
0.93333333 0.13333333 0
0.96666667 0.13333333 0
1 0.13333333 0
0 0.16666667 0
0.033333333 0.16666667 0
0.066666667 0.16666667 0
0.1 0.16666667 0
0.13333333 0.16666667 0
0.16666667 0.16666667 0
0.2 0.16666667 0
0.23333333 0.16666667 0
0.26666667 0.16666667 0
0.3 0.16666667 0
0.33333333 0.16666667 0
0.36666667 0.16666667 0
0.4 0.16666667 0
0.43333333 0.16666667 0
0.46666667 0.16666667 0
0.5 0.16666667 0
0.53333333 0.16666667 0
0.56666667 0.16666667 0
0.6 0.16666667 0
0.63333333 0.16666667 0
0.66666667 0.16666667 0
0.7 0.16666667 0
0.73333333 0.16666667 0
0.76666667 0.16666667 0
0.8 0.16666667 0
0.83333333 0.16666667 0
0.86666667 0.16666667 0
0.9 0.16666667 0
0.93333333 0.16666667 0
0.96666667 0.16666667 0
1 0.16666667 0
0 0.2 0
0.033333333 0.2 0
0.066666667 0.2 0
0.1 0.2 0
0.13333333 0.2 0
0.16666667 0.2 0
0.2 0.2 0
0.23333333 0.2 0
0.26666667 0.2 0
0.3 0.2 0
0.33333333 0.2 0
0.36666667 0.2 0
0.4 0.2 0
0.43333333 0.2 0
0.46666667 0.2 0
0.5 0.2 0
0.53333333 0.2 0
0.56666667 0.2 0
0.6 0.2 0
0.63333333 0.2 0
0.66666667 0.2 0
0.7 0.2 0
0.73333333 0.2 0
0.76666667 0.2 0
0.8 0.2 0
0.83333333 0.2 0
0.86666667 0.2 0
0.9 0.2 0
0.93333333 0.2 0
0.96666667 0.2 0
1 0.2 0
0 0.23333333 0
0.033333333 0.23333333 0
0.066666667 0.23333333 0
0.1 0.23333333 0
0.13333333 0.23333333 0
0.16666667 0.23333333 0
0.2 0.23333333 0
0.23333333 0.23333333 0
0.26666667 0.23333333 0
0.3 0.23333333 0
0.33333333 0.23333333 0
0.36666667 0.23333333 0
0.4 0.23333333 0
0.43333333 0.23333333 0
0.46666667 0.23333333 0
0.5 0.23333333 0
0.53333333 0.23333333 0
0.56666667 0.23333333 0
0.6 0.23333333 0
0.63333333 0.23333333 0
0.66666667 0.23333333 0
0.7 0.23333333 0
0.73333333 0.23333333 0
0.76666667 0.23333333 0
0.8 0.23333333 0
0.83333333 0.23333333 0
0.86666667 0.23333333 0
0.9 0.23333333 0
0.93333333 0.23333333 0
0.96666667 0.23333333 0
1 0.23333333 0
0 0.26666667 0
0.033333333 0.26666667 0
0.066666667 0.26666667 0
0.1 0.26666667 0
0.13333333 0.26666667 0
0.16666667 0.26666667 0
0.2 0.26666667 0
0.23333333 0.26666667 0
0.26666667 0.26666667 0
0.3 0.26666667 0
0.33333333 0.26666667 0
0.36666667 0.26666667 0
0.4 0.26666667 0
0.43333333 0.26666667 0
0.46666667 0.26666667 0
0.5 0.26666667 0
0.53333333 0.26666667 0
0.56666667 0.26666667 0
0.6 0.26666667 0
0.63333333 0.26666667 0
0.66666667 0.26666667 0
0.7 0.26666667 0
0.73333333 0.26666667 0
0.76666667 0.26666667 0
0.8 0.26666667 0
0.83333333 0.26666667 0
0.86666667 0.26666667 0
0.9 0.26666667 0
0.93333333 0.26666667 0
0.96666667 0.26666667 0
1 0.26666667 0
0 0.3 0
0.033333333 0.3 0
0.066666667 0.3 0
0.1 0.3 0
0.13333333 0.3 0
0.16666667 0.3 0
0.2 0.3 0
0.23333333 0.3 0
0.26666667 0.3 0
0.3 0.3 0
0.33333333 0.3 0
0.36666667 0.3 0
0.4 0.3 0
0.43333333 0.3 0
0.46666667 0.3 0
0.5 0.3 0
0.53333333 0.3 0
0.56666667 0.3 0
0.6 0.3 0
0.63333333 0.3 0
0.66666667 0.3 0
0.7 0.3 0
0.73333333 0.3 0
0.76666667 0.3 0
0.8 0.3 0
0.83333333 0.3 0
0.86666667 0.3 0
0.9 0.3 0
0.93333333 0.3 0
0.96666667 0.3 0
1 0.3 0
0 0.33333333 0
0.033333333 0.33333333 0
0.066666667 0.33333333 0
0.1 0.33333333 0
0.13333333 0.33333333 0
0.16666667 0.33333333 0
0.2 0.33333333 0
0.23333333 0.33333333 0
0.26666667 0.33333333 0
0.3 0.33333333 0
0.33333333 0.33333333 0
0.36666667 0.33333333 0
0.4 0.33333333 0
0.43333333 0.33333333 0
0.46666667 0.33333333 0
0.5 0.33333333 0
0.53333333 0.33333333 0
0.56666667 0.33333333 0
0.6 0.33333333 0
0.63333333 0.33333333 0
0.66666667 0.33333333 0
0.7 0.33333333 0
0.73333333 0.33333333 0
0.76666667 0.33333333 0
0.8 0.33333333 0
0.83333333 0.33333333 0
0.86666667 0.33333333 0
0.9 0.33333333 0
0.93333333 0.33333333 0
0.96666667 0.33333333 0
1 0.33333333 0
0 0.36666667 0
0.033333333 0.36666667 0
0.066666667 0.36666667 0
0.1 0.36666667 0
0.13333333 0.36666667 0
0.16666667 0.36666667 0
0.2 0.36666667 0
0.23333333 0.36666667 0
0.26666667 0.36666667 0
0.3 0.36666667 0
0.33333333 0.36666667 0
0.36666667 0.36666667 0
0.4 0.36666667 0
0.43333333 0.36666667 0
0.46666667 0.36666667 0
0.5 0.36666667 0
0.53333333 0.36666667 0
0.56666667 0.36666667 0
0.6 0.36666667 0
0.63333333 0.36666667 0
0.66666667 0.36666667 0
0.7 0.36666667 0
0.73333333 0.36666667 0
0.76666667 0.36666667 0
0.8 0.36666667 0
0.83333333 0.36666667 0
0.86666667 0.36666667 0
0.9 0.36666667 0
0.93333333 0.36666667 0
0.96666667 0.36666667 0
1 0.36666667 0
0 0.4 0
0.033333333 0.4 0
0.066666667 0.4 0
0.1 0.4 0
0.13333333 0.4 0
0.16666667 0.4 0
0.2 0.4 0
0.23333333 0.4 0
0.26666667 0.4 0
0.3 0.4 0
0.33333333 0.4 0
0.36666667 0.4 0
0.4 0.4 0
0.43333333 0.4 0
0.46666667 0.4 0
0.5 0.4 0
0.53333333 0.4 0
0.56666667 0.4 0
0.6 0.4 0
0.63333333 0.4 0
0.66666667 0.4 0
0.7 0.4 0
0.73333333 0.4 0
0.76666667 0.4 0
0.8 0.4 0
0.83333333 0.4 0
0.86666667 0.4 0
0.9 0.4 0
0.93333333 0.4 0
0.96666667 0.4 0
1 0.4 0
0 0.43333333 0
0.033333333 0.43333333 0
0.066666667 0.43333333 0
0.1 0.43333333 0
0.13333333 0.43333333 0
0.16666667 0.43333333 0
0.2 0.43333333 0
0.23333333 0.43333333 0
0.26666667 0.43333333 0
0.3 0.43333333 0
0.33333333 0.43333333 0
0.36666667 0.43333333 0
0.4 0.43333333 0
0.43333333 0.43333333 0
0.46666667 0.43333333 0
0.5 0.43333333 0
0.53333333 0.43333333 0
0.56666667 0.43333333 0
0.6 0.43333333 0
0.63333333 0.43333333 0
0.66666667 0.43333333 0
0.7 0.43333333 0
0.73333333 0.43333333 0
0.76666667 0.43333333 0
0.8 0.43333333 0
0.83333333 0.43333333 0
0.86666667 0.43333333 0
0.9 0.43333333 0
0.93333333 0.43333333 0
0.96666667 0.43333333 0
1 0.43333333 0
0 0.46666667 0
0.033333333 0.46666667 0
0.066666667 0.46666667 0
0.1 0.46666667 0
0.13333333 0.46666667 0
0.16666667 0.46666667 0
0.2 0.46666667 0
0.23333333 0.46666667 0
0.26666667 0.46666667 0
0.3 0.46666667 0
0.33333333 0.46666667 0
0.36666667 0.46666667 0
0.4 0.46666667 0
0.43333333 0.46666667 0
0.46666667 0.46666667 0
0.5 0.46666667 0
0.53333333 0.46666667 0
0.56666667 0.46666667 0
0.6 0.46666667 0
0.63333333 0.46666667 0
0.66666667 0.46666667 0
0.7 0.46666667 0
0.73333333 0.46666667 0
0.76666667 0.46666667 0
0.8 0.46666667 0
0.83333333 0.46666667 0
0.86666667 0.46666667 0
0.9 0.46666667 0
0.93333333 0.46666667 0
0.96666667 0.46666667 0
1 0.46666667 0
0 0.5 0
0.033333333 0.5 0
0.066666667 0.5 0
0.1 0.5 0
0.13333333 0.5 0
0.16666667 0.5 0
0.2 0.5 0
0.23333333 0.5 0
0.26666667 0.5 0
0.3 0.5 0
0.33333333 0.5 0
0.36666667 0.5 0
0.4 0.5 0
0.43333333 0.5 0
0.46666667 0.5 0
0.5 0.5 0
0.53333333 0.5 0
0.56666667 0.5 0
0.6 0.5 0
0.63333333 0.5 0
0.66666667 0.5 0
0.7 0.5 0
0.73333333 0.5 0
0.76666667 0.5 0
0.8 0.5 0
0.83333333 0.5 0
0.86666667 0.5 0
0.9 0.5 0
0.93333333 0.5 0
0.96666667 0.5 0
1 0.5 0
0 0.53333333 0
0.033333333 0.53333333 0
0.066666667 0.53333333 0
0.1 0.53333333 0
0.13333333 0.53333333 0
0.16666667 0.53333333 0
0.2 0.53333333 0
0.23333333 0.53333333 0
0.26666667 0.53333333 0
0.3 0.53333333 0
0.33333333 0.53333333 0
0.36666667 0.53333333 0
0.4 0.53333333 0
0.43333333 0.53333333 0
0.46666667 0.53333333 0
0.5 0.53333333 0
0.53333333 0.53333333 0
0.56666667 0.53333333 0
0.6 0.53333333 0
0.63333333 0.53333333 0
0.66666667 0.53333333 0
0.7 0.53333333 0
0.73333333 0.53333333 0
0.76666667 0.53333333 0
0.8 0.53333333 0
[...]
CELL_DATA 1920
Scalars  Label int 1
LOOKUP_TABLE FreeFempp_table
0
0
0
0
0
0
0
0
0
0
0
0
0
0
0
0
0
0
0
0
0
0
0
0
0
0
0
0
0
0
0
0
0
0
0
0
0
0
0
0
0
0
0
0
0
0
0
0
0
0
0
0
0
0
0
0
0
0
0
0
0
0
0
0
0
0
0
0
0
0
0
0
0
0
0
0
0
0
0
0
0
0
0
0
0
0
0
0
0
0
0
0
0
0
0
0
0
0
0
0
0
0
0
0
0
0
0
0
0
0
0
0
0
0
0
0
0
0
0
0
0
0
0
0
0
0
0
0
0
0
0
0
0
0
0
0
0
0
0
0
0
0
0
0
0
0
0
0
0
0
0
0
0
0
0
0
0
0
0
0
0
0
0
0
0
0
0
0
0
0
0
0
0
0
0
0
0
0
0
0
0
0
0
0
0
0
0
0
0
0
0
0
0
0
0
0
0
0
0
0
0
0
0
0
0
0
0
0
0
0
0
0
0
0
0
0
0
0
0
0
0
0
0
0
0
0
0
0
0
0
0
0
0
0
0
0
0
0
0
0
0
0
0
0
0
0
0
0
0
0
0
0
0
0
0
0
0
0
0
0
0
0
0
0
0
0
0
0
0
0
0
0
0
0
0
0
0
0
0
0
0
0
0
0
0
0
0
0
0
0
0
0
0
0
0
0
0
0
0
0
0
0
0
0
0
0
0
0
0
0
0
0
0
0
0
0
0
0
0
0
0
0
0
0
0
0
0
0
0
0
0
0
0
0
0
0
0
0
0
0
0
0
0
0
0
0
0
0
0
0
0
0
0
0
0
0
0
0
0
0
0
0
0
0
0
0
0
0
0
0
0
0
0
0
0
0
0
0
0
0
0
0
0
0
0
0
0
0
0
0
0
0
0
0
0
0
0
0
0
0
0
0
0
0
0
0
0
0
0
0
0
0
0
0
0
0
0
0
0
0
0
0
0
0
0
0
0
0
0
0
0
0
0
0
0
0
0
0
0
0
0
0
0
0
0
0
0
0
0
0
0
0
0
0
0
0
0
0
0
0
0
0
0
0
0
0
0
0
0
0
0
0
0
0
0
0
0
0
0
0
0
0
0
0
0
0
0
0
0
0
0
0
0
0
0
0
0
0
0
0
0
0
0
0
0
0
0
0
0
0
0
0
0
0
0
0
0
0
0
0
0
0
0
0
0
0
0
0
0
0
0
0
0
0
0
0
0
0
0
0
0
0
0
0
0
0
0
0
0
0
0
0
0
0
0
0
0
0
0
0
0
0
0
0
0
0
0
0
0
0
0
0
0
0
0
0
0
0
0
0
0
0
0
0
0
0
0
0
0
0
0
0
0
0
0
0
0
0
0
0
0
0
0
0
0
0
0
0
0
0
0
0
0
0
0
0
0
0
0
0
0
0
0
0
0
0
0
0
0
0
0
0
0
0
0
0
0
0
0
0
0
0
0
0
0
0
0
0
0
0
0
0
0
0
0
0
0
0
0
0
0
0
0
0
0
0
0
0
0
0
0
0
0
0
0
0
0
0
0
0
0
0
0
0
0
0
0
0
0
0
0
0
0
0
0
0
0
0
0
0
0
0
0
0
0
0
0
0
0
0
0
0
0
0
0
0
0
0
0
0
0
0
0
0
0
0
0
0
0
0
0
0
0
0
0
0
0
0
0
0
0
0
0
0
0
0
0
0
0
0
0
0
0
0
0
0
0
0
0
0
0
0
0
0
0
0
0
0
0
0
0
0
0
0
0
0
0
0
0
0
0
0
0
0
0
0
0
0
0
0
0
0
0
0
0
0
0
0
0
0
0
0
0
0
0
0
0
0
0
0
0
0
0
0
0
0
0
0
0
0
0
0
0
0
0
0
0
0
0
0
0
0
0
0
0
0
0
0
0
0
0
0
0
0
0
0
0
0
0
0
0
0
0
0
0
0
0
0
0
0
0
0
0
0
0
0
0
0
0
0
0
0
0
0
0
0
0
0
0
0
0
0
0
0
0
0
0
0
0
0
0
0
0
0
0
0
0
0
0
0
0
0
0
0
0
0
0
0
0
0
0
0
0
0
0
0
0
0
0
0
0
0
0
0
0
0
0
0
0
0
0
0
0
0
0
0
0
0
0
0
0
0
0
0
0
0
0
0
0
0
0
0
0
0
0
0
0
0
0
0
0
0
0
0
0
0
0
0
0
0
0
0
0
0
0
0
0
0
0
0
0
0
0
0
0
0
0
0
0
0
0
0
0
0
0
0
0
0
0
0
0
0
0
0
0
0
0
0
0
0
0
0
0
0
0
0
0
0
0
0
0
0
0
0
0
0
0
0
0
0
0
0
0
0
0
0
0
0
0
0
0
0
0
0
0
0
0
0
0
0
0
0
0
0
0
0
0
0
0
0
0
0
0
0
0
0
0
0
0
0
0
0
0
0
0
0
0
0
0
0
0
0
0
0
0
0
0
0
0
0
0
0
0
0
0
0
0
0
0
0
0
0
0
0
0
0
0
0
0
0
0
0
0
0
0
0
0
0
0
0
0
0
0
0
0
0
0
0
0
0
0
0
0
0
0
0
0
0
0
0
0
0
0
0
0
0
0
0
0
0
0
0
0
0
0
0
0
0
0
0
0
0
0
0
0
0
0
0
0
0
0
0
0
0
0
0
0
0
0
0
0
0
0
0
0
0
0
0
0
0
0
0
0
0
0
0
0
0
0
0
0
0
0
0
0
0
0
0
0
0
0
0
0
0
0
0
0
0
0
0
0
0
0
0
0
0
0
0
0
0
0
0
0
0
0
0
0
0
0
0
0
0
0
0
0
0
0
0
0
0
0
0
0
0
0
0
0
0
0
0
0
0
0
0
0
0
0
0
0
0
0
0
0
0
0
0
0
0
0
0
0
0
0
0
0
0
0
0
0
0
0
0
0
0
0
0
0
0
0
0
0
0
0
0
0
0
0
0
0
0
0
0
0
0
0
0
0
0
0
0
0
0
0
0
0
0
0
0
0
0
0
0
0
0
0
0
0
0
0
0
0
0
0
0
0
0
0
0
0
0
0
0
0
0
0
0
0
0
0
0
0
0
0
0
0
0
0
0
0
0
0
0
0
0
0
0
0
0
0
0
0
0
0
0
0
0
0
0
0
0
0
0
0
0
0
0
0
0
0
0
0
0
0
0
0
0
0
0
0
0
0
0
0
0
0
0
0
0
0
0
0
0
0
0
0
0
0
0
0
0
0
0
0
0
0
0
0
0
0
0
0
0
0
0
0
0
0
0
0
0
0
0
0
0
0
0
0
0
0
0
0
0
0
0
0
0
0
0
0
0
0
0
0
0
0
0
0
0
0
0
0
0
0
0
0
0
0
0
0
0
0
0
0
0
0
0
0
0
0
0
0
0
0
0
0
0
0
0
0
0
0
0
0
0
0
0
0
0
0
0
0
0
0
0
0
0
0
0
0
0
0
0
0
0
0
0
0
0
0
0
0
0
0
0
0
0
0
0
0
0
0
0
0
0
0
0
0
0
0
0
0
0
0
0
0
0
0
0
0
0
0
0
0
0
0
0
0
0
0
0
0
0
0
0
0
0
0
0
0
0
0
0
0
0
0
0
0
0
0
0
0
0
0
0
0
0
0
0
0
0
0
0
0
0
0
0
0
0
0
0
0
0
0
0
0
0
0
0
0
0
0
0
0
0
0
0
0
0
0
0
0
0
0
0
0
0
0
0
0
0
0
0
0
0
0
0
0
0
0
0
0
0
0
0
0
0
0
0
0
0
0
0
0
0
0
0
0
0
0
0
0
0
0
0
0
0
0
0
0
0
0
0
0
0
0
0
0
0
0
0
0
0
0
0
0
0
0
0
0
0
0
0
0
0
0
0
0
0
0
0
0
0
0
0
0
0
0
0
0
0
0
0
0
0
0
0
0
0
0
0
0
0
0
0
0
0
0
0
0
0
0
0
0
0
0
0
0
0
0
0
0
0
0
0
0
0
0
0
0
0
0
0
0
0
0
0
0
0
0
0
0
0
0
0
0
0
0
0
0
0
0
0
0
0
0
0
0
0
0
0
1
1
1
1
1
1
1
1
1
1
1
1
1
1
1
1
1
1
1
1
1
1
1
1
1
1
1
1
1
1
2
2
2
2
2
2
2
2
2
2
2
2
2
2
2
2
2
2
2
2
2
2
2
2
2
2
2
2
2
2
3
3
3
3
3
3
3
3
3
3
3
3
3
3
3
3
3
3
3
3
3
3
3
3
3
3
3
3
3
3
4
4
4
4
4
4
4
4
4
4
4
4
4
4
4
4
4
4
4
4
4
4
4
4
4
4
4
4
4
4

LOOKUP_TABLE FreeFempp_table 5
1.00000000 0.00000000 0.00000000 1.00000000
1.00000000 1.00000000 0.00000000 1.00000000
1.00000000 0.00000000 1.00000000 1.00000000
0.00000000 1.00000000 0.00000000 1.00000000
0.00000000 1.00000000 1.00000000 1.00000000

POINT_DATA 961
FIELD FieldData 1
Density 1 961 float
9.31460969e-03 5.20099699e-03 6.35379413e-03 6.60508312e-03 6.22614427e-03 5.60623361e-03 4.81709279e-03 3.88092850e-03 2.85085407e-03 1.80632935e-03 8.90625815e-04 3.81767459e-04 2.60469445e-04 4.94837470e-04 7.26601332e-02 9.54580188e-01 8.63150775e-01 9.51648355e-01 9.32984650e-01 8.21730077e-01 7.96551526e-01 7.73970306e-01 7.52191246e-01 7.25089610e-01 6.86330974e-01 6.38246000e-01 5.56279123e-01 5.04548848e-01 4.74444181e-01 4.71138686e-01 2.70943016e-01 2.69121490e-04 2.07533565e-04 2.26314427e-04 2.45479547e-04 2.62821821e-04 2.79704807e-04 2.96521262e-04 3.11286130e-04 3.19004612e-04 3.10953677e-04 2.76775827e-04 2.20383168e-04 1.81914744e-04 2.15479813e-04 3.98386596e-03 9.93136883e-01 9.26233530e-01 1.34144453e-02 2.75044799e-01 8.84068727e-01 9.03864563e-01 9.12981868e-01 9.11465883e-01 9.06440794e-01 8.97031426e-01 8.85073423e-01 8.37425768e-01 7.67417252e-01 7.32214928e-01 7.20909655e-01 4.67750996e-01 1.34451082e-04 1.22781290e-04 1.24206272e-04 1.25295788e-04 1.26822895e-04 1.28828295e-04 1.31292181e-04 1.34181959e-04 1.37448020e-04 1.41032462e-04 1.44800491e-04 1.48039180e-04 1.50604363e-04 1.71206440e-04 6.14428252e-04 9.70873892e-01 9.84497786e-01 2.46237731e-04 1.70626066e-04 1.36307150e-04 1.41722499e-04 1.82728851e-04 5.22158283e-04 3.20832967e-03 2.13331897e-02 1.40429661e-01 3.92597526e-01 5.19028425e-01 5.15253365e-01 5.21624148e-01 3.81700814e-01 1.16117481e-04 1.11066714e-04 1.11528272e-04 1.11490022e-04 1.11599911e-04 1.11854082e-04 1.12224887e-04 1.12652422e-04 1.13072128e-04 1.13437258e-04 1.13775408e-04 1.14285678e-04 1.15418028e-04 1.18816926e-04 1.39188051e-04 2.57618306e-03 9.94966745e-01 5.63886715e-04 2.08947386e-04 1.36384973e-04 1.16765717e-04 1.11848363e-04 1.10527777e-04 1.13834474e-04 1.26862302e-04 2.03638439e-04 7.64181837e-04 5.69278002e-03 2.40223277e-02 3.15570012e-02 9.74491835e-02 1.12230264e-04 1.08116736e-04 1.08633365e-04 1.08524473e-04 1.08437227e-04 1.08358232e-04 1.08302571e-04 1.08251574e-04 1.08168402e-04 1.08003282e-04 1.07698419e-04 1.07204200e-04 1.06566767e-04 1.06157429e-04 1.06910200e-04 1.13171765e-04 2.00138669e-02 9.98244524e-01 8.29480065e-04 1.80455245e-04 1.77444497e-04 1.22415586e-04 1.10847483e-04 1.07291846e-04 1.06120417e-04 1.07759231e-04 1.18234988e-04 1.90619656e-04 5.65916533e-04 1.10309571e-03 4.75235097e-03 1.15816416e-04 1.09248504e-04 1.10076828e-04 1.10004417e-04 1.09919907e-04 1.09737506e-04 1.09503279e-04 1.09245826e-04 1.08972301e-04 1.08659267e-04 1.08246735e-04 1.07629872e-04 1.06656706e-04 1.05225765e-04 1.03784980e-04 1.03391401e-04 1.04715553e-04 6.43539883e-04 9.98922527e-01 9.87306893e-01 6.23676240e-01 6.00910485e-02 6.08106726e-04 1.34919581e-04 1.08879853e-04 1.05365893e-04 1.05116298e-04 1.09970395e-04 1.51980988e-04 2.87865405e-04 7.83320167e-04 1.42901932e-04 1.18905322e-04 1.20483346e-04 1.20375444e-04 1.20335651e-04 1.19964396e-04 1.19355347e-04 1.18643555e-04 1.17947537e-04 1.17314623e-04 1.16696057e-04 1.15906092e-04 1.14536153e-04 1.11877969e-04 1.07709828e-04 1.03870319e-04 1.02395155e-04 1.02431448e-04 1.07568056e-04 9.60443854e-01 9.95881379e-01 9.92055655e-01 9.86747861e-01 9.82623637e-01 2.31930256e-01 1.28339903e-04 1.06081337e-04 1.04548184e-04 1.09942077e-04 1.66910730e-04 4.73302556e-04 9.16898658e-04 2.70877383e-04 2.58180691e-04 2.45660864e-04 2.38062494e-04 2.29598765e-04 2.21183014e-04 2.13971784e-04 2.08846177e-04 2.06395867e-04 2.06969853e-04 2.10488128e-04 2.15390348e-04 2.14444764e-04 1.88338905e-04 1.36931485e-04 1.08201202e-04 1.02307742e-04 1.02245845e-04 1.02928832e-04 1.04851788e-04 2.21897379e-01 9.77281511e-01 9.75538313e-01 9.85680640e-01 9.94566560e-01 1.77456837e-04 1.05574058e-04 1.04331310e-04 1.17915821e-04 3.89435445e-04 2.05140576e-01 1.17522590e-01 5.02006300e-02 2.70877760e-02 1.84764080e-02 1.45934448e-02 1.26049286e-02 1.15898894e-02 1.12327281e-02 1.14534050e-02 1.22779924e-02 1.37657085e-02 1.59361679e-02 1.86565090e-02 2.12173257e-02 2.05187816e-02 9.70152020e-03 2.95859703e-04 1.05604471e-04 1.03437524e-04 1.02613696e-04 1.02921549e-04 1.06858330e-04 1.31951194e-04 2.38702007e-04 3.71454487e-04 9.97933209e-01 1.26047598e-04 1.04252118e-04 1.05824976e-04 2.15835054e-04 4.34617072e-01 5.77223301e-01 6.10535026e-01 5.98058820e-01 5.71341753e-01 5.41948378e-01 5.15532911e-01 4.91897851e-01 4.69155490e-01 4.45280641e-01 4.18171346e-01 3.86002094e-01 3.48150045e-01 3.06377411e-01 2.62507647e-01 2.20254019e-01 1.88096970e-01 1.66793585e-01 1.43627688e-01 1.13275982e-02 2.29400219e-04 1.04165498e-04 1.02959173e-04 1.08361091e-04 1.27991560e-04 1.52685170e-04 1.16291805e-03 9.99203205e-01 1.06112588e-04 1.03181199e-04 1.18872333e-04 7.22072542e-01 8.64963770e-01 8.54416013e-01 8.37194383e-01 8.13580394e-01 7.86327183e-01 7.56638408e-01 7.25060105e-01 6.92142129e-01 6.58393204e-01 6.23522401e-01 5.86313486e-01 5.45390666e-01 5.00546157e-01 4.54004228e-01 4.06687558e-01 3.65829736e-01 3.33305776e-01 3.01587135e-01 2.70260513e-01 2.27376521e-01 1.78282574e-01 1.14789735e-04 1.35189213e-04 1.24657978e-04 1.41017226e-04 2.04627271e-04 9.88431275e-01 9.88781214e-01 1.03069389e-04 1.04186125e-04 8.69040310e-01 9.51036513e-01 9.23460841e-01 9.12497818e-01 8.95226240e-01 8.62095475e-01 8.29163015e-01 7.94838965e-01 7.60239959e-01 7.27095902e-01 6.96628451e-01 6.68364286e-01 6.40569925e-01 6.12658978e-01 5.86117744e-01 5.63471437e-01 5.45294166e-01 5.33360839e-01 5.24793386e-01 5.17448902e-01 5.07518232e-01 4.67872798e-01 4.48404551e-01 8.65612805e-01 8.92597809e-02 4.72031999e-04 2.78140273e-04 1.16747600e-04 9.98272002e-01 1.04314327e-04 1.04586485e-04 7.43974745e-01 9.36279774e-01 8.96914124e-01 8.93113017e-01 9.05630291e-01 8.84439707e-01 8.42561007e-01 7.97521651e-01 7.55396843e-01 7.20567882e-01 6.93999827e-01 6.75206602e-01 6.61229312e-01 6.48756623e-01 6.38645053e-01 6.31014228e-01 6.34216487e-01 6.45520270e-01 6.73002720e-01 6.99690521e-01 7.27290094e-01 7.46683121e-01 7.61044264e-01 7.69405544e-01 6.25310838e-01 4.10158001e-02 6.90698274e-04 4.29154336e-01 9.98781800e-01 1.05454041e-04 1.04504143e-04 1.44729912e-01 2.90765762e-01 3.24874461e-01 3.91027421e-01 5.38800180e-01 6.56400442e-01 7.08091021e-01 6.89713359e-01 6.59667850e-01 6.19586706e-01 5.96603215e-01 5.84781468e-01 5.86812794e-01 6.03286862e-01 6.14405155e-01 6.17144644e-01 6.21084571e-01 6.33110464e-01 6.67317927e-01 7.14604974e-01 7.51100302e-01 7.98556149e-01 8.68867159e-01 8.76447320e-01 8.47293437e-01 6.36312366e-01 2.12433577e-01 9.24678266e-01 9.98540938e-01 1.06328131e-04 1.05640233e-04 1.38202729e-02 7.12154573e-03 9.09010787e-03 1.39729232e-02 2.57679522e-02 6.31814972e-02 1.66005775e-01 3.21286082e-01 4.03787732e-01 4.16653633e-01 4.07640874e-01 4.06603575e-01 4.13843632e-01 4.50988054e-01 4.96515363e-01 5.11888266e-01 5.20991087e-01 5.39497674e-01 5.62828839e-01 5.74002087e-01 5.14345706e-01 4.64507878e-01 4.70076650e-01 5.77428997e-01 8.13638270e-01 7.63338029e-01 7.15554774e-01 9.76523161e-01 9.97568488e-01 1.06497173e-04 1.06015708e-04 9.70084686e-03 2.41487217e-03 1.79690192e-03 1.50190608e-03 1.54002593e-03 2.38279789e-03 6.66585937e-03 2.93612592e-02 9.76244211e-02 2.01855376e-01 2.31860682e-01 2.46358112e-01 2.53290355e-01 2.72702605e-01 2.93996841e-01 2.30237678e-01 2.04188094e-01 2.50036210e-01 3.62816155e-01 5.40608048e-01 6.22706115e-01 5.34220934e-01 3.99040818e-01 1.85045451e-01 2.73928344e-01 7.01793551e-01 9.05452251e-01 9.75503504e-01 9.92604673e-01 1.07027648e-04 1.06468578e-04 2.51227021e-02 5.43565582e-03 2.85711163e-03 1.40424271e-03 7.56391790e-04 5.68214629e-04 6.53081224e-04 1.35862664e-03 5.22928033e-03 2.17251703e-02 9.45687070e-02 1.83348343e-01 1.82345375e-01 1.29559174e-01 8.79834667e-02 7.99033940e-02 7.53633976e-02 8.66671428e-02 1.36786476e-01 2.69003987e-01 4.94668573e-01 6.17946684e-01 6.21680260e-01 5.89356303e-01 4.73484099e-01 8.34160984e-01 9.50580835e-01 9.73406255e-01 9.64291215e-01 1.07671971e-04 1.07060805e-04 1.04624346e-01 3.99255455e-02 2.20658761e-02 8.79616570e-03 2.39383010e-03 7.90047168e-04 4.50351596e-04 4.29670123e-04 6.24943117e-04 1.08159077e-03 2.83879368e-03 1.32421497e-02 3.08799837e-02 2.75229234e-02 2.35686284e-02 2.67179646e-02 4.05195579e-02 6.35454208e-02 9.57670212e-02 1.56726196e-01 2.24092215e-01 3.51122350e-01 5.55950999e-01 7.11837232e-01 8.71183395e-01 9.52281237e-01 9.67293859e-01 9.56973195e-01 7.69527555e-01 1.08592925e-04 1.07803578e-04 2.77449787e-01 2.86022693e-01 2.42302313e-01 1.52006462e-01 4.35520336e-02 6.51204679e-03 1.23250030e-03 5.67400537e-04 5.06344368e-04 6.16645673e-04 9.93181719e-04 3.69813712e-03 1.17222834e-02 1.60286967e-02 1.45573104e-02 1.89259388e-02 3.28623988e-02 6.12668879e-02 1.03651658e-01 1.51415378e-01 2.16604382e-01 3.82735044e-01 6.84847414e-01 8.92210662e-01 9.26713109e-01 9.44474578e-01 9.35483277e-01 8.27179015e-01 1.50447036e-03 1.10159286e-04 1.08702217e-04 3.59913707e-01 5.69907069e-01 5.79934716e-01 4.71851140e-01 1.90813333e-01 2.97947302e-02 3.56332515e-03 1.05775381e-03 7.97885819e-04 9.71600646e-04 1.60119915e-03 6.08040532e-03 2.84092873e-02 3.44973914e-02 3.87959369e-02 5.23254275e-02 8.48684236e-02 1.26819253e-01 1.83619544e-01 2.93478042e-01 4.46672052e-01 7.13684618e-01 9.05256033e-01 9.26422477e-01 9.33600962e-01 9.27639782e-01 8.53968859e-01 1.55359507e-01 2.13104489e-04 1.14341790e-04 1.11121997e-04 2.76815832e-01 5.35950422e-01 5.85435808e-01 3.28294843e-01 3.65290642e-02 4.44437563e-03 1.18440983e-03 6.77761564e-04 7.33655645e-04 1.41491648e-03 4.08568187e-03 2.06112731e-02 9.03378427e-02 1.31402731e-01 1.59752503e-01 1.71218112e-01 1.99338943e-01 2.86731631e-01 4.27538276e-01 6.56017661e-01 8.17569911e-01 9.12417412e-01 9.19504821e-01 9.19144452e-01 9.04313684e-01 8.46626401e-01 2.88110644e-01 5.41801448e-04 1.38460891e-04 1.21064098e-04 1.18356780e-04 1.43917546e-01 3.33366334e-01 4.96199965e-01 1.00285403e-01 1.87185721e-03 6.77536940e-04 5.04215306e-04 4.73490189e-04 6.55572803e-04 1.84995681e-03 8.61729123e-03 3.56711745e-02 8.93569589e-02 1.09907739e-01 1.20646983e-01 1.41667321e-01 2.02270180e-01 3.30456883e-01 5.35513341e-01 7.28071153e-01 8.84200454e-01 8.95608425e-01 8.90211165e-01 8.71354938e-01 8.01555395e-01 2.94158727e-01 9.72088834e-04 1.73460590e-04 1.28800239e-04 1.26908373e-04 1.44702077e-04 6.13333918e-02 1.49499029e-01 5.01135826e-01 4.38059121e-02 5.27713855e-04 3.21205269e-04 3.09555646e-04 3.90789268e-04 7.73070729e-04 3.74035654e-03 3.06100231e-02 1.04702368e-01 1.66375369e-01 1.81711242e-01 2.03439102e-01 2.38389879e-01 3.04773748e-01 4.24159259e-01 5.91093719e-01 7.35511959e-01 8.01126957e-01 8.38095784e-01 8.23311448e-01 7.24492908e-01 1.41997322e-01 8.49980570e-04 1.93442582e-04 1.40887772e-04 1.34579357e-04 1.46964914e-04 2.92776909e-04 2.60997135e-02 5.79609349e-02 6.00301802e-01 4.92189117e-02 2.65506504e-04 1.93808330e-04 2.16140630e-04 3.39827646e-04 1.14893424e-03 1.25947855e-02 1.29987150e-01 3.65861416e-01 4.04026330e-01 3.02994311e-01 3.08897793e-01 3.65362644e-01 4.55361038e-01 5.83567381e-01 7.22347677e-01 8.16345155e-01 8.33702743e-01 7.65611649e-01 5.14544010e-01 2.10371017e-02 5.24601026e-04 1.95781511e-04 1.51837288e-04 1.46038539e-04 1.66097656e-04 3.12700606e-04 2.70134164e-03 1.17215654e-02 2.23875921e-02 6.75509989e-01 9.20528099e-02 1.73987035e-04 1.49110958e-04 1.76352609e-04 3.50278220e-04 2.58950773e-03 5.89220189e-02 3.32498819e-01 6.11481190e-01 6.01606131e-01 4.63132441e-01 3.96134436e-01 4.48925167e-01 5.47298014e-01 6.70730233e-01 7.85205066e-01 8.52095366e-01 8.26544404e-01 3.40669572e-01 1.65773777e-03 3.49688082e-04 2.31704034e-04 1.88177743e-04 1.70761370e-04 2.11738690e-04 6.49637484e-04 8.37275293e-03 4.86627519e-02 6.58639241e-03 9.56110843e-03 6.51546180e-01 1.35749280e-01 1.37548181e-04 1.30565604e-04 1.57649964e-04 4.95433458e-04 1.15165664e-02 2.23774686e-01 5.11121035e-01 5.73982418e-01 6.41457736e-01 5.78459382e-01 4.82045412e-01 5.15134335e-01 6.05168402e-01 7.08152413e-01 7.96698570e-01 8.46188843e-01 8.10243607e-01 3.67668271e-01 6.83568092e-03 5.95489983e-04 2.83146772e-04 3.07277805e-04 9.02595115e-04 2.35280730e-02 3.20183277e-01 4.84239846e-01 2.54950374e-01 6.24642242e-03 6.42269291e-03 5.19109428e-01 1.45637244e-01 1.23331803e-04 1.21735000e-04 1.49362560e-04 1.24906318e-03 7.18291178e-02 3.50771993e-01 4.77118731e-01 4.58139986e-01 4.83416110e-01 5.72227478e-01 5.85966408e-01 5.80274880e-01 6.45330191e-01 7.18673170e-01 7.80709267e-01 8.20925653e-01 8.09400260e-01 6.24470413e-01 1.56400725e-01 6.02972545e-02 2.02390030e-01 7.07543790e-01 8.86223257e-01 9.20855999e-01 8.91404271e-01 8.54375660e-01 5.05981147e-01 8.63896869e-03 7.79711688e-03 3.66199821e-01 2.14866146e-01 1.17061485e-04 1.16553412e-04 1.51563305e-04 8.95404723e-03 2.03733474e-01 2.88286000e-01 2.94971317e-01 3.19645762e-01 3.77537251e-01 5.33698320e-01 6.56086028e-01 6.32529855e-01 6.64772451e-01 7.22245693e-01 7.64823258e-01 8.04046512e-01 8.28000665e-01 8.16687286e-01 7.76079416e-01 8.15163493e-01 9.04704690e-01 9.25200820e-01 9.10975397e-01 8.88167679e-01 8.65101218e-01 8.57813537e-01 5.82250178e-01 9.62198433e-03 1.00170644e-02 3.10869962e-01 2.40211010e-01 1.14151560e-04 1.12497350e-04 1.56469439e-04 1.20490365e-01 2.84040779e-01 2.46095777e-01 2.56653339e-01 3.41188699e-01 4.93190438e-01 6.56055629e-01 7.35278785e-01 7.25917399e-01 6.59113944e-01 7.04710603e-01 7.59089768e-01 8.01803827e-01 8.38488221e-01 8.60576689e-01 8.65636468e-01 8.63564372e-01 8.57342660e-01 8.32004011e-01 7.84764946e-01 7.42327988e-01 7.08159924e-01 7.15305865e-01 4.97735411e-01 1.13268727e-02 1.46886213e-02 3.13012064e-01 3.46023828e-01 1.13071495e-04 1.09333603e-04 1.43681333e-04 4.01041389e-01 3.17173779e-01 2.63611704e-01 2.95572370e-01 4.00803417e-01 5.76009274e-01 7.76244462e-01 7.92965114e-01 8.00446391e-01 7.89678514e-01 7.48884320e-01 7.93982983e-01 8.25315952e-01 8.33191335e-01 8.23249161e-01 7.95563996e-01 7.48977125e-01 6.84260309e-01 6.08525515e-01 5.32133579e-01 4.77347136e-01 4.44200188e-01 4.26208645e-01 3.45938206e-01 3.60338502e-02 2.79099382e-02 3.63049537e-01 2.70615369e-01 1.47194616e-04 1.14001421e-04 1.34666989e-04 7.72992551e-01 3.19466174e-01 2.72352487e-01 2.72892326e-01 3.01881552e-01 3.64420086e-01 4.83983457e-01 5.61927915e-01 5.92978060e-01 6.35339737e-01 5.92967510e-01 5.65335751e-01 5.80158412e-01 5.57116210e-01 4.97730613e-01 4.20477182e-01 3.55244696e-01 3.13593030e-01 2.86014259e-01 2.65618175e-01 2.43747532e-01 2.31312409e-01 2.16300890e-01 2.18342543e-01 
