# vtk DataFile Version 2.0
results/8_density.vtk, Created by Freefem++ 
ASCII
DATASET UNSTRUCTURED_GRID
POINTS 961 float
0 0 0
0.033333333 0 0
0.066666667 0 0
0.1 0 0
0.13333333 0 0
0.16666667 0 0
0.2 0 0
0.23333333 0 0
0.26666667 0 0
0.3 0 0
0.33333333 0 0
0.36666667 0 0
0.4 0 0
0.43333333 0 0
0.46666667 0 0
0.5 0 0
0.53333333 0 0
0.56666667 0 0
0.6 0 0
0.63333333 0 0
0.66666667 0 0
0.7 0 0
0.73333333 0 0
0.76666667 0 0
0.8 0 0
0.83333333 0 0
0.86666667 0 0
0.9 0 0
0.93333333 0 0
0.96666667 0 0
1 0 0
0 0.033333333 0
0.033333333 0.033333333 0
0.066666667 0.033333333 0
0.1 0.033333333 0
0.13333333 0.033333333 0
0.16666667 0.033333333 0
0.2 0.033333333 0
0.23333333 0.033333333 0
0.26666667 0.033333333 0
0.3 0.033333333 0
0.33333333 0.033333333 0
0.36666667 0.033333333 0
0.4 0.033333333 0
0.43333333 0.033333333 0
0.46666667 0.033333333 0
0.5 0.033333333 0
0.53333333 0.033333333 0
0.56666667 0.033333333 0
0.6 0.033333333 0
0.63333333 0.033333333 0
0.66666667 0.033333333 0
0.7 0.033333333 0
0.73333333 0.033333333 0
0.76666667 0.033333333 0
0.8 0.033333333 0
0.83333333 0.033333333 0
0.86666667 0.033333333 0
0.9 0.033333333 0
0.93333333 0.033333333 0
0.96666667 0.033333333 0
1 0.033333333 0
0 0.066666667 0
0.033333333 0.066666667 0
0.066666667 0.066666667 0
0.1 0.066666667 0
0.13333333 0.066666667 0
0.16666667 0.066666667 0
0.2 0.066666667 0
0.23333333 0.066666667 0
0.26666667 0.066666667 0
0.3 0.066666667 0
0.33333333 0.066666667 0
0.36666667 0.066666667 0
0.4 0.066666667 0
0.43333333 0.066666667 0
0.46666667 0.066666667 0
0.5 0.066666667 0
0.53333333 0.066666667 0
0.56666667 0.066666667 0
0.6 0.066666667 0
0.63333333 0.066666667 0
0.66666667 0.066666667 0
0.7 0.066666667 0
0.73333333 0.066666667 0
0.76666667 0.066666667 0
0.8 0.066666667 0
0.83333333 0.066666667 0
0.86666667 0.066666667 0
0.9 0.066666667 0
0.93333333 0.066666667 0
0.96666667 0.066666667 0
1 0.066666667 0
0 0.1 0
0.033333333 0.1 0
0.066666667 0.1 0
0.1 0.1 0
0.13333333 0.1 0
0.16666667 0.1 0
0.2 0.1 0
0.23333333 0.1 0
0.26666667 0.1 0
0.3 0.1 0
0.33333333 0.1 0
0.36666667 0.1 0
0.4 0.1 0
0.43333333 0.1 0
0.46666667 0.1 0
0.5 0.1 0
0.53333333 0.1 0
0.56666667 0.1 0
0.6 0.1 0
0.63333333 0.1 0
0.66666667 0.1 0
0.7 0.1 0
0.73333333 0.1 0
0.76666667 0.1 0
0.8 0.1 0
0.83333333 0.1 0
0.86666667 0.1 0
0.9 0.1 0
0.93333333 0.1 0
0.96666667 0.1 0
1 0.1 0
0 0.13333333 0
0.033333333 0.13333333 0
0.066666667 0.13333333 0
0.1 0.13333333 0
0.13333333 0.13333333 0
0.16666667 0.13333333 0
0.2 0.13333333 0
0.23333333 0.13333333 0
0.26666667 0.13333333 0
0.3 0.13333333 0
0.33333333 0.13333333 0
0.36666667 0.13333333 0
0.4 0.13333333 0
0.43333333 0.13333333 0
0.46666667 0.13333333 0
0.5 0.13333333 0
0.53333333 0.13333333 0
0.56666667 0.13333333 0
0.6 0.13333333 0
0.63333333 0.13333333 0
0.66666667 0.13333333 0
0.7 0.13333333 0
0.73333333 0.13333333 0
0.76666667 0.13333333 0
0.8 0.13333333 0
0.83333333 0.13333333 0
0.86666667 0.13333333 0
0.9 0.13333333 0
0.93333333 0.13333333 0
0.96666667 0.13333333 0
1 0.13333333 0
0 0.16666667 0
0.033333333 0.16666667 0
0.066666667 0.16666667 0
0.1 0.16666667 0
0.13333333 0.16666667 0
0.16666667 0.16666667 0
0.2 0.16666667 0
0.23333333 0.16666667 0
0.26666667 0.16666667 0
0.3 0.16666667 0
0.33333333 0.16666667 0
0.36666667 0.16666667 0
0.4 0.16666667 0
0.43333333 0.16666667 0
0.46666667 0.16666667 0
0.5 0.16666667 0
0.53333333 0.16666667 0
0.56666667 0.16666667 0
0.6 0.16666667 0
0.63333333 0.16666667 0
0.66666667 0.16666667 0
0.7 0.16666667 0
0.73333333 0.16666667 0
0.76666667 0.16666667 0
0.8 0.16666667 0
0.83333333 0.16666667 0
0.86666667 0.16666667 0
0.9 0.16666667 0
0.93333333 0.16666667 0
0.96666667 0.16666667 0
1 0.16666667 0
0 0.2 0
0.033333333 0.2 0
0.066666667 0.2 0
0.1 0.2 0
0.13333333 0.2 0
0.16666667 0.2 0
0.2 0.2 0
0.23333333 0.2 0
0.26666667 0.2 0
0.3 0.2 0
0.33333333 0.2 0
0.36666667 0.2 0
0.4 0.2 0
0.43333333 0.2 0
0.46666667 0.2 0
0.5 0.2 0
0.53333333 0.2 0
0.56666667 0.2 0
0.6 0.2 0
0.63333333 0.2 0
0.66666667 0.2 0
0.7 0.2 0
0.73333333 0.2 0
0.76666667 0.2 0
0.8 0.2 0
0.83333333 0.2 0
0.86666667 0.2 0
0.9 0.2 0
0.93333333 0.2 0
0.96666667 0.2 0
1 0.2 0
0 0.23333333 0
0.033333333 0.23333333 0
0.066666667 0.23333333 0
0.1 0.23333333 0
0.13333333 0.23333333 0
0.16666667 0.23333333 0
0.2 0.23333333 0
0.23333333 0.23333333 0
0.26666667 0.23333333 0
0.3 0.23333333 0
0.33333333 0.23333333 0
0.36666667 0.23333333 0
0.4 0.23333333 0
0.43333333 0.23333333 0
0.46666667 0.23333333 0
0.5 0.23333333 0
0.53333333 0.23333333 0
0.56666667 0.23333333 0
0.6 0.23333333 0
0.63333333 0.23333333 0
0.66666667 0.23333333 0
0.7 0.23333333 0
0.73333333 0.23333333 0
0.76666667 0.23333333 0
0.8 0.23333333 0
0.83333333 0.23333333 0
0.86666667 0.23333333 0
0.9 0.23333333 0
0.93333333 0.23333333 0
0.96666667 0.23333333 0
1 0.23333333 0
0 0.26666667 0
0.033333333 0.26666667 0
0.066666667 0.26666667 0
0.1 0.26666667 0
0.13333333 0.26666667 0
0.16666667 0.26666667 0
0.2 0.26666667 0
0.23333333 0.26666667 0
0.26666667 0.26666667 0
0.3 0.26666667 0
0.33333333 0.26666667 0
0.36666667 0.26666667 0
0.4 0.26666667 0
0.43333333 0.26666667 0
0.46666667 0.26666667 0
0.5 0.26666667 0
0.53333333 0.26666667 0
0.56666667 0.26666667 0
0.6 0.26666667 0
0.63333333 0.26666667 0
0.66666667 0.26666667 0
0.7 0.26666667 0
0.73333333 0.26666667 0
0.76666667 0.26666667 0
0.8 0.26666667 0
0.83333333 0.26666667 0
0.86666667 0.26666667 0
0.9 0.26666667 0
0.93333333 0.26666667 0
0.96666667 0.26666667 0
1 0.26666667 0
0 0.3 0
0.033333333 0.3 0
0.066666667 0.3 0
0.1 0.3 0
0.13333333 0.3 0
0.16666667 0.3 0
0.2 0.3 0
0.23333333 0.3 0
0.26666667 0.3 0
0.3 0.3 0
0.33333333 0.3 0
0.36666667 0.3 0
0.4 0.3 0
0.43333333 0.3 0
0.46666667 0.3 0
0.5 0.3 0
0.53333333 0.3 0
0.56666667 0.3 0
0.6 0.3 0
0.63333333 0.3 0
0.66666667 0.3 0
0.7 0.3 0
0.73333333 0.3 0
0.76666667 0.3 0
0.8 0.3 0
0.83333333 0.3 0
0.86666667 0.3 0
0.9 0.3 0
0.93333333 0.3 0
0.96666667 0.3 0
1 0.3 0
0 0.33333333 0
0.033333333 0.33333333 0
0.066666667 0.33333333 0
0.1 0.33333333 0
0.13333333 0.33333333 0
0.16666667 0.33333333 0
0.2 0.33333333 0
0.23333333 0.33333333 0
0.26666667 0.33333333 0
0.3 0.33333333 0
0.33333333 0.33333333 0
0.36666667 0.33333333 0
0.4 0.33333333 0
0.43333333 0.33333333 0
0.46666667 0.33333333 0
0.5 0.33333333 0
0.53333333 0.33333333 0
0.56666667 0.33333333 0
0.6 0.33333333 0
0.63333333 0.33333333 0
0.66666667 0.33333333 0
0.7 0.33333333 0
0.73333333 0.33333333 0
0.76666667 0.33333333 0
0.8 0.33333333 0
0.83333333 0.33333333 0
0.86666667 0.33333333 0
0.9 0.33333333 0
0.93333333 0.33333333 0
0.96666667 0.33333333 0
1 0.33333333 0
0 0.36666667 0
0.033333333 0.36666667 0
0.066666667 0.36666667 0
0.1 0.36666667 0
0.13333333 0.36666667 0
0.16666667 0.36666667 0
0.2 0.36666667 0
0.23333333 0.36666667 0
0.26666667 0.36666667 0
0.3 0.36666667 0
0.33333333 0.36666667 0
0.36666667 0.36666667 0
0.4 0.36666667 0
0.43333333 0.36666667 0
0.46666667 0.36666667 0
0.5 0.36666667 0
0.53333333 0.36666667 0
0.56666667 0.36666667 0
0.6 0.36666667 0
0.63333333 0.36666667 0
0.66666667 0.36666667 0
0.7 0.36666667 0
0.73333333 0.36666667 0
0.76666667 0.36666667 0
0.8 0.36666667 0
0.83333333 0.36666667 0
0.86666667 0.36666667 0
0.9 0.36666667 0
0.93333333 0.36666667 0
0.96666667 0.36666667 0
1 0.36666667 0
0 0.4 0
0.033333333 0.4 0
0.066666667 0.4 0
0.1 0.4 0
0.13333333 0.4 0
0.16666667 0.4 0
0.2 0.4 0
0.23333333 0.4 0
0.26666667 0.4 0
0.3 0.4 0
0.33333333 0.4 0
0.36666667 0.4 0
0.4 0.4 0
0.43333333 0.4 0
0.46666667 0.4 0
0.5 0.4 0
0.53333333 0.4 0
0.56666667 0.4 0
0.6 0.4 0
0.63333333 0.4 0
0.66666667 0.4 0
0.7 0.4 0
0.73333333 0.4 0
0.76666667 0.4 0
0.8 0.4 0
0.83333333 0.4 0
0.86666667 0.4 0
0.9 0.4 0
0.93333333 0.4 0
0.96666667 0.4 0
1 0.4 0
0 0.43333333 0
0.033333333 0.43333333 0
0.066666667 0.43333333 0
0.1 0.43333333 0
0.13333333 0.43333333 0
0.16666667 0.43333333 0
0.2 0.43333333 0
0.23333333 0.43333333 0
0.26666667 0.43333333 0
0.3 0.43333333 0
0.33333333 0.43333333 0
0.36666667 0.43333333 0
0.4 0.43333333 0
0.43333333 0.43333333 0
0.46666667 0.43333333 0
0.5 0.43333333 0
0.53333333 0.43333333 0
0.56666667 0.43333333 0
0.6 0.43333333 0
0.63333333 0.43333333 0
0.66666667 0.43333333 0
0.7 0.43333333 0
0.73333333 0.43333333 0
0.76666667 0.43333333 0
0.8 0.43333333 0
0.83333333 0.43333333 0
0.86666667 0.43333333 0
0.9 0.43333333 0
0.93333333 0.43333333 0
0.96666667 0.43333333 0
1 0.43333333 0
0 0.46666667 0
0.033333333 0.46666667 0
0.066666667 0.46666667 0
0.1 0.46666667 0
0.13333333 0.46666667 0
0.16666667 0.46666667 0
0.2 0.46666667 0
0.23333333 0.46666667 0
0.26666667 0.46666667 0
0.3 0.46666667 0
0.33333333 0.46666667 0
0.36666667 0.46666667 0
0.4 0.46666667 0
0.43333333 0.46666667 0
0.46666667 0.46666667 0
0.5 0.46666667 0
0.53333333 0.46666667 0
0.56666667 0.46666667 0
0.6 0.46666667 0
0.63333333 0.46666667 0
0.66666667 0.46666667 0
0.7 0.46666667 0
0.73333333 0.46666667 0
0.76666667 0.46666667 0
0.8 0.46666667 0
0.83333333 0.46666667 0
0.86666667 0.46666667 0
0.9 0.46666667 0
0.93333333 0.46666667 0
0.96666667 0.46666667 0
1 0.46666667 0
0 0.5 0
0.033333333 0.5 0
0.066666667 0.5 0
0.1 0.5 0
0.13333333 0.5 0
0.16666667 0.5 0
0.2 0.5 0
0.23333333 0.5 0
0.26666667 0.5 0
0.3 0.5 0
0.33333333 0.5 0
0.36666667 0.5 0
0.4 0.5 0
0.43333333 0.5 0
0.46666667 0.5 0
0.5 0.5 0
0.53333333 0.5 0
0.56666667 0.5 0
0.6 0.5 0
0.63333333 0.5 0
0.66666667 0.5 0
0.7 0.5 0
0.73333333 0.5 0
0.76666667 0.5 0
0.8 0.5 0
0.83333333 0.5 0
0.86666667 0.5 0
0.9 0.5 0
0.93333333 0.5 0
0.96666667 0.5 0
1 0.5 0
0 0.53333333 0
0.033333333 0.53333333 0
0.066666667 0.53333333 0
0.1 0.53333333 0
0.13333333 0.53333333 0
0.16666667 0.53333333 0
0.2 0.53333333 0
0.23333333 0.53333333 0
0.26666667 0.53333333 0
0.3 0.53333333 0
0.33333333 0.53333333 0
0.36666667 0.53333333 0
0.4 0.53333333 0
0.43333333 0.53333333 0
0.46666667 0.53333333 0
0.5 0.53333333 0
0.53333333 0.53333333 0
0.56666667 0.53333333 0
0.6 0.53333333 0
0.63333333 0.53333333 0
0.66666667 0.53333333 0
0.7 0.53333333 0
0.73333333 0.53333333 0
0.76666667 0.53333333 0
0.8 0.53333333 0
[...]
CELL_DATA 1920
Scalars  Label int 1
LOOKUP_TABLE FreeFempp_table
0
0
0
0
0
0
0
0
0
0
0
0
0
0
0
0
0
0
0
0
0
0
0
0
0
0
0
0
0
0
0
0
0
0
0
0
0
0
0
0
0
0
0
0
0
0
0
0
0
0
0
0
0
0
0
0
0
0
0
0
0
0
0
0
0
0
0
0
0
0
0
0
0
0
0
0
0
0
0
0
0
0
0
0
0
0
0
0
0
0
0
0
0
0
0
0
0
0
0
0
0
0
0
0
0
0
0
0
0
0
0
0
0
0
0
0
0
0
0
0
0
0
0
0
0
0
0
0
0
0
0
0
0
0
0
0
0
0
0
0
0
0
0
0
0
0
0
0
0
0
0
0
0
0
0
0
0
0
0
0
0
0
0
0
0
0
0
0
0
0
0
0
0
0
0
0
0
0
0
0
0
0
0
0
0
0
0
0
0
0
0
0
0
0
0
0
0
0
0
0
0
0
0
0
0
0
0
0
0
0
0
0
0
0
0
0
0
0
0
0
0
0
0
0
0
0
0
0
0
0
0
0
0
0
0
0
0
0
0
0
0
0
0
0
0
0
0
0
0
0
0
0
0
0
0
0
0
0
0
0
0
0
0
0
0
0
0
0
0
0
0
0
0
0
0
0
0
0
0
0
0
0
0
0
0
0
0
0
0
0
0
0
0
0
0
0
0
0
0
0
0
0
0
0
0
0
0
0
0
0
0
0
0
0
0
0
0
0
0
0
0
0
0
0
0
0
0
0
0
0
0
0
0
0
0
0
0
0
0
0
0
0
0
0
0
0
0
0
0
0
0
0
0
0
0
0
0
0
0
0
0
0
0
0
0
0
0
0
0
0
0
0
0
0
0
0
0
0
0
0
0
0
0
0
0
0
0
0
0
0
0
0
0
0
0
0
0
0
0
0
0
0
0
0
0
0
0
0
0
0
0
0
0
0
0
0
0
0
0
0
0
0
0
0
0
0
0
0
0
0
0
0
0
0
0
0
0
0
0
0
0
0
0
0
0
0
0
0
0
0
0
0
0
0
0
0
0
0
0
0
0
0
0
0
0
0
0
0
0
0
0
0
0
0
0
0
0
0
0
0
0
0
0
0
0
0
0
0
0
0
0
0
0
0
0
0
0
0
0
0
0
0
0
0
0
0
0
0
0
0
0
0
0
0
0
0
0
0
0
0
0
0
0
0
0
0
0
0
0
0
0
0
0
0
0
0
0
0
0
0
0
0
0
0
0
0
0
0
0
0
0
0
0
0
0
0
0
0
0
0
0
0
0
0
0
0
0
0
0
0
0
0
0
0
0
0
0
0
0
0
0
0
0
0
0
0
0
0
0
0
0
0
0
0
0
0
0
0
0
0
0
0
0
0
0
0
0
0
0
0
0
0
0
0
0
0
0
0
0
0
0
0
0
0
0
0
0
0
0
0
0
0
0
0
0
0
0
0
0
0
0
0
0
0
0
0
0
0
0
0
0
0
0
0
0
0
0
0
0
0
0
0
0
0
0
0
0
0
0
0
0
0
0
0
0
0
0
0
0
0
0
0
0
0
0
0
0
0
0
0
0
0
0
0
0
0
0
0
0
0
0
0
0
0
0
0
0
0
0
0
0
0
0
0
0
0
0
0
0
0
0
0
0
0
0
0
0
0
0
0
0
0
0
0
0
0
0
0
0
0
0
0
0
0
0
0
0
0
0
0
0
0
0
0
0
0
0
0
0
0
0
0
0
0
0
0
0
0
0
0
0
0
0
0
0
0
0
0
0
0
0
0
0
0
0
0
0
0
0
0
0
0
0
0
0
0
0
0
0
0
0
0
0
0
0
0
0
0
0
0
0
0
0
0
0
0
0
0
0
0
0
0
0
0
0
0
0
0
0
0
0
0
0
0
0
0
0
0
0
0
0
0
0
0
0
0
0
0
0
0
0
0
0
0
0
0
0
0
0
0
0
0
0
0
0
0
0
0
0
0
0
0
0
0
0
0
0
0
0
0
0
0
0
0
0
0
0
0
0
0
0
0
0
0
0
0
0
0
0
0
0
0
0
0
0
0
0
0
0
0
0
0
0
0
0
0
0
0
0
0
0
0
0
0
0
0
0
0
0
0
0
0
0
0
0
0
0
0
0
0
0
0
0
0
0
0
0
0
0
0
0
0
0
0
0
0
0
0
0
0
0
0
0
0
0
0
0
0
0
0
0
0
0
0
0
0
0
0
0
0
0
0
0
0
0
0
0
0
0
0
0
0
0
0
0
0
0
0
0
0
0
0
0
0
0
0
0
0
0
0
0
0
0
0
0
0
0
0
0
0
0
0
0
0
0
0
0
0
0
0
0
0
0
0
0
0
0
0
0
0
0
0
0
0
0
0
0
0
0
0
0
0
0
0
0
0
0
0
0
0
0
0
0
0
0
0
0
0
0
0
0
0
0
0
0
0
0
0
0
0
0
0
0
0
0
0
0
0
0
0
0
0
0
0
0
0
0
0
0
0
0
0
0
0
0
0
0
0
0
0
0
0
0
0
0
0
0
0
0
0
0
0
0
0
0
0
0
0
0
0
0
0
0
0
0
0
0
0
0
0
0
0
0
0
0
0
0
0
0
0
0
0
0
0
0
0
0
0
0
0
0
0
0
0
0
0
0
0
0
0
0
0
0
0
0
0
0
0
0
0
0
0
0
0
0
0
0
0
0
0
0
0
0
0
0
0
0
0
0
0
0
0
0
0
0
0
0
0
0
0
0
0
0
0
0
0
0
0
0
0
0
0
0
0
0
0
0
0
0
0
0
0
0
0
0
0
0
0
0
0
0
0
0
0
0
0
0
0
0
0
0
0
0
0
0
0
0
0
0
0
0
0
0
0
0
0
0
0
0
0
0
0
0
0
0
0
0
0
0
0
0
0
0
0
0
0
0
0
0
0
0
0
0
0
0
0
0
0
0
0
0
0
0
0
0
0
0
0
0
0
0
0
0
0
0
0
0
0
0
0
0
0
0
0
0
0
0
0
0
0
0
0
0
0
0
0
0
0
0
0
0
0
0
0
0
0
0
0
0
0
0
0
0
0
0
0
0
0
0
0
0
0
0
0
0
0
0
0
0
0
0
0
0
0
0
0
0
0
0
0
0
0
0
0
0
0
0
0
0
0
0
0
0
0
0
0
0
0
0
0
0
0
0
0
0
0
0
0
0
0
0
0
0
0
0
0
0
0
0
0
0
0
0
0
0
0
0
0
0
0
0
0
0
0
0
0
0
0
0
0
0
0
0
0
0
0
0
0
0
0
0
0
0
0
0
0
0
0
0
0
0
0
0
0
0
0
0
0
0
0
0
0
0
0
0
0
0
0
0
0
0
0
0
0
0
0
0
0
0
0
0
0
0
0
0
0
0
0
0
0
0
0
0
0
0
0
0
0
0
0
0
0
0
0
0
0
0
0
0
0
0
0
0
0
0
0
0
0
0
0
0
0
0
0
0
0
0
0
0
0
0
0
0
0
0
0
0
0
0
0
0
0
0
0
0
0
0
0
0
0
0
0
0
0
0
0
0
0
0
0
0
0
0
0
0
0
0
0
0
0
0
0
0
0
0
0
0
0
0
0
0
0
0
0
0
0
0
0
0
0
0
0
0
0
0
0
0
0
0
0
0
0
0
0
0
0
0
0
0
0
0
0
0
0
0
0
0
0
0
0
0
0
0
0
0
0
0
0
0
0
0
0
0
0
0
0
0
0
0
0
0
0
0
0
0
0
0
0
0
0
0
0
0
0
0
0
0
0
0
0
0
0
0
0
0
0
0
0
0
0
0
0
0
0
0
0
0
0
0
0
0
0
0
0
0
0
0
0
0
0
0
0
0
0
0
0
0
0
0
0
0
0
0
0
0
0
0
0
0
0
0
0
0
0
0
0
0
0
0
0
0
0
0
0
0
0
0
0
0
0
0
0
0
0
0
0
0
0
0
0
0
0
0
0
0
0
0
0
0
0
0
0
0
0
0
0
0
0
0
0
0
0
0
0
0
0
0
0
0
0
0
0
0
0
0
0
0
0
0
0
0
0
0
0
0
0
0
0
0
0
1
1
1
1
1
1
1
1
1
1
1
1
1
1
1
1
1
1
1
1
1
1
1
1
1
1
1
1
1
1
2
2
2
2
2
2
2
2
2
2
2
2
2
2
2
2
2
2
2
2
2
2
2
2
2
2
2
2
2
2
3
3
3
3
3
3
3
3
3
3
3
3
3
3
3
3
3
3
3
3
3
3
3
3
3
3
3
3
3
3
4
4
4
4
4
4
4
4
4
4
4
4
4
4
4
4
4
4
4
4
4
4
4
4
4
4
4
4
4
4

LOOKUP_TABLE FreeFempp_table 5
1.00000000 0.00000000 0.00000000 1.00000000
1.00000000 1.00000000 0.00000000 1.00000000
1.00000000 0.00000000 1.00000000 1.00000000
0.00000000 1.00000000 0.00000000 1.00000000
0.00000000 1.00000000 1.00000000 1.00000000

POINT_DATA 961
FIELD FieldData 1
Density 1 961 float
8.75725970e-02 7.93388113e-02 8.09468329e-02 8.16919059e-02 8.23429376e-02 8.30213949e-02 8.37780163e-02 8.46552029e-02 8.56937096e-02 8.69195387e-02 8.82941857e-02 8.95302370e-02 8.99906904e-02 9.42002088e-02 1.28449276e-01 8.88902128e-01 8.32361877e-01 8.88993561e-01 8.76091421e-01 7.97307849e-01 7.75784075e-01 7.56075323e-01 7.36814559e-01 7.12485611e-01 6.77021623e-01 6.32274866e-01 5.55231512e-01 5.06440818e-01 4.77991045e-01 4.76699442e-01 2.87158787e-01 7.20929801e-02 5.01833595e-02 5.22509329e-02 5.34509942e-02 5.44461049e-02 5.54252677e-02 5.64639643e-02 5.76220155e-02 5.89560531e-02 6.05035909e-02 6.22488223e-02 6.40411153e-02 6.53601289e-02 6.83688447e-02 9.90287066e-02 9.03664589e-01 8.83703768e-01 1.18354544e-01 2.96256721e-01 8.46255839e-01 8.58622789e-01 8.64226818e-01 8.63520265e-01 8.60812664e-01 8.55328679e-01 8.47581327e-01 8.12093735e-01 7.53546000e-01 7.22753525e-01 7.15433657e-01 4.74537641e-01 6.91632405e-02 4.62197736e-02 4.75016534e-02 4.81157638e-02 4.89940569e-02 4.98869680e-02 5.07740043e-02 5.16755618e-02 5.26007265e-02 5.34983948e-02 5.41525483e-02 5.38668036e-02 5.05589433e-02 4.30034138e-02 6.15424141e-02 8.99305940e-01 8.94113362e-01 1.12857416e-01 1.01842836e-01 8.72456729e-02 8.01134184e-02 8.03660825e-02 7.92513117e-02 8.26034099e-02 9.22635719e-02 1.62929386e-01 3.99079353e-01 5.20234406e-01 5.17588913e-01 5.24778247e-01 3.91568094e-01 6.71534911e-02 4.48277630e-02 4.66329679e-02 4.72703278e-02 4.79475893e-02 4.85161170e-02 4.89289686e-02 4.91666310e-02 4.91891727e-02 4.88849953e-02 4.79898639e-02 4.58790138e-02 4.10521738e-02 3.17506902e-02 2.81503275e-02 6.60094395e-02 9.28928494e-01 1.15834206e-01 1.00610293e-01 7.44258836e-02 5.80565482e-02 5.42125888e-02 4.65235300e-02 4.06275056e-02 3.68926227e-02 4.33041491e-02 6.29508644e-02 8.10390636e-02 9.17181000e-02 9.93772969e-02 1.38438538e-01 6.46185949e-02 4.32415456e-02 4.60574478e-02 4.70964462e-02 4.77134921e-02 4.79037352e-02 4.77139391e-02 4.71546948e-02 4.61798459e-02 4.46729921e-02 4.24242094e-02 3.90543044e-02 3.38402055e-02 2.59328727e-02 1.81965753e-02 2.28898618e-02 7.13164732e-02 9.44084108e-01 1.20151684e-01 1.03524119e-01 7.97343105e-02 6.45810664e-02 4.76019569e-02 3.22771892e-02 2.33764909e-02 2.23286357e-02 2.98657957e-02 4.42836471e-02 5.97509369e-02 7.02792481e-02 9.39883515e-02 6.13583699e-02 4.13680635e-02 4.58311811e-02 4.74798605e-02 4.80201840e-02 4.77592759e-02 4.69264984e-02 4.56061885e-02 4.37696800e-02 4.13016677e-02 3.80163603e-02 3.36619206e-02 2.79384311e-02 2.08536405e-02 1.39314989e-02 1.13287494e-02 1.79378558e-02 5.85832633e-02 9.23848748e-01 9.14548934e-01 6.64511621e-01 1.29598573e-01 8.93862620e-02 6.50829524e-02 3.58812027e-02 2.17345953e-02 2.43568216e-02 3.35416310e-02 4.63509485e-02 5.95107339e-02 8.54854211e-02 6.17446750e-02 4.12663519e-02 4.74743396e-02 4.94632386e-02 4.96011563e-02 4.87555936e-02 4.73484062e-02 4.54918966e-02 4.31487709e-02 4.01985943e-02 3.64531912e-02 3.16669233e-02 2.57017463e-02 1.91195160e-02 1.34364320e-02 9.61039681e-03 8.90258793e-03 1.14737619e-02 3.11400443e-02 8.92304301e-01 9.10975635e-01 9.18210804e-01 9.09056127e-01 8.97896945e-01 2.47460008e-01 5.27248718e-02 2.67958622e-02 2.75136735e-02 3.43716368e-02 4.92223650e-02 8.22615847e-02 8.55713263e-02 5.69425710e-02 5.83921671e-02 5.74376285e-02 5.57758100e-02 5.41298091e-02 5.24944030e-02 5.06561920e-02 4.84153628e-02 4.56286147e-02 4.22143117e-02 3.81565094e-02 3.35479565e-02 2.86568850e-02 2.37711240e-02 1.86002012e-02 1.26553411e-02 8.65588617e-03 7.71330064e-03 1.18343430e-02 4.48297486e-02 1.84705466e-01 8.95895779e-01 8.95666718e-01 9.10133779e-01 9.14741993e-01 6.94216192e-02 2.46000346e-02 2.09899675e-02 3.26480381e-02 7.37408772e-02 2.22377002e-01 1.41174391e-01 9.99821275e-02 8.91355798e-02 8.41054842e-02 8.15732032e-02 8.02284926e-02 7.92185739e-02 7.80297220e-02 7.63927549e-02 7.42378756e-02 7.15960786e-02 6.83792681e-02 6.41341805e-02 5.81535771e-02 5.02613373e-02 3.94324362e-02 2.28484143e-02 9.93360206e-03 7.38520874e-03 7.89488945e-03 8.79265647e-03 2.06407364e-02 4.59658653e-02 8.33554417e-02 1.30293563e-01 9.58841920e-01 6.02815300e-02 1.52711459e-02 1.51106650e-02 5.47368154e-02 4.38792974e-01 5.73924363e-01 6.05256617e-01 5.93540430e-01 5.68371534e-01 5.40599167e-01 5.15575886e-01 4.93129373e-01 4.71475393e-01 4.48698670e-01 4.22821790e-01 3.92142981e-01 3.56102586e-01 3.16341996e-01 2.74399310e-01 2.32919991e-01 1.96057722e-01 1.50338992e-01 5.97155876e-02 2.63472795e-02 9.97038931e-03 5.61990403e-03 7.79961585e-04 1.46281971e-02 3.70345116e-02 9.26068351e-02 1.28477857e-01 9.16143775e-01 2.46089604e-02 7.95998331e-03 2.40030773e-02 7.09439218e-01 8.31686854e-01 8.23292673e-01 8.09677482e-01 7.90357172e-01 7.67270327e-01 7.41366029e-01 7.13163316e-01 6.83218420e-01 6.52063370e-01 6.19494319e-01 5.84438205e-01 5.45655072e-01 5.02963364e-01 4.58437026e-01 4.12818640e-01 3.72559339e-01 3.38411123e-01 3.03660274e-01 2.70157278e-01 2.12550670e-01 1.20671891e-01 4.32051793e-02 2.49939747e-02 2.61835121e-02 8.14286098e-02 1.06856428e-01 8.83238614e-01 9.00020242e-01 6.43666368e-03 8.10113363e-03 8.34681571e-01 8.83311391e-01 8.70744169e-01 8.64373982e-01 8.53461623e-01 8.30057025e-01 8.04421127e-01 7.76064754e-01 7.46374369e-01 7.17191100e-01 6.89872622e-01 6.64146960e-01 6.38524771e-01 6.12563848e-01 5.87640345e-01 5.65962434e-01 5.47879040e-01 5.35002172e-01 5.25055110e-01 5.16712785e-01 5.05702734e-01 4.66884017e-01 4.49414432e-01 8.28337729e-01 1.18207045e-01 1.08359821e-01 1.17103711e-01 1.26171619e-01 9.18667555e-01 8.74034874e-03 7.75372144e-03 7.30151951e-01 8.77909839e-01 8.55471075e-01 8.52898180e-01 8.60584080e-01 8.46624851e-01 8.15578938e-01 7.78859973e-01 7.42830038e-01 7.12464690e-01 6.89182162e-01 6.72754586e-01 6.60412431e-01 6.49244189e-01 6.40288591e-01 6.33455455e-01 6.36220455e-01 6.45717502e-01 6.69741035e-01 6.93122029e-01 7.17259943e-01 7.33495533e-01 7.45117664e-01 7.51719952e-01 6.20791435e-01 1.27067283e-01 1.31476000e-01 5.06703258e-01 9.45569992e-01 1.03493258e-02 9.27151833e-03 1.75455049e-01 3.03295612e-01 3.36071610e-01 3.98613155e-01 5.38879991e-01 6.49868846e-01 6.98095143e-01 6.81826234e-01 6.54761255e-01 6.18322253e-01 5.97914696e-01 5.87968528e-01 5.90752125e-01 6.06763303e-01 6.17894590e-01 6.21239245e-01 6.25073850e-01 6.35264754e-01 6.65234506e-01 7.07659483e-01 7.40905106e-01 7.82802999e-01 8.38650584e-01 8.42807233e-01 8.21991980e-01 6.54264152e-01 2.74869263e-01 9.01360452e-01 9.26256716e-01 1.19952708e-02 1.09442696e-02 1.10400885e-01 9.69608575e-02 9.63903889e-02 9.61997733e-02 1.00778997e-01 1.15729064e-01 1.91557348e-01 3.32906753e-01 4.11175698e-01 4.24095869e-01 4.16384608e-01 4.16289836e-01 4.23903048e-01 4.59428400e-01 5.03118038e-01 5.18646657e-01 5.27692616e-01 5.44170260e-01 5.63642979e-01 5.71767926e-01 5.14929712e-01 4.68853951e-01 4.75747228e-01 5.78126848e-01 7.92529941e-01 7.50572383e-01 7.20868647e-01 8.94350052e-01 9.08994377e-01 1.26736118e-02 1.21889282e-02 1.00717589e-01 8.96178335e-02 8.61357078e-02 8.65792036e-02 8.96544531e-02 9.10419077e-02 9.65379030e-02 1.06117837e-01 1.40687779e-01 2.24665970e-01 2.51814187e-01 2.65089661e-01 2.71716833e-01 2.89451838e-01 3.08783829e-01 2.51222551e-01 2.28345081e-01 2.67861277e-01 3.69830668e-01 5.35191119e-01 6.11431837e-01 5.29648960e-01 4.04389799e-01 2.11891145e-01 2.90013939e-01 6.90763474e-01 8.60167921e-01 8.91775489e-01 8.99019837e-01 1.30177308e-02 1.26538360e-02 8.75060037e-02 6.78542629e-02 7.71705806e-02 8.66510198e-02 9.83608216e-02 9.90897566e-02 9.57321376e-02 9.72505435e-02 1.01228938e-01 1.06953211e-01 1.39685974e-01 2.07690492e-01 2.07135230e-01 1.65241554e-01 1.36907905e-01 1.31291538e-01 1.28064185e-01 1.33502945e-01 1.65811926e-01 2.75158405e-01 4.83496726e-01 6.02542818e-01 6.12116814e-01 5.84926188e-01 4.75749820e-01 8.06101024e-01 8.82117510e-01 8.90941381e-01 8.89636695e-01 1.34107294e-02 1.31182652e-02 1.33950755e-01 8.49355385e-02 8.29655305e-02 8.31245109e-02 8.74850452e-02 1.00007199e-01 1.01147808e-01 1.02211662e-01 1.01814620e-01 1.02250792e-01 1.04149580e-01 1.04713023e-01 1.07037112e-01 1.07158899e-01 1.07394680e-01 1.08228751e-01 1.10826068e-01 1.18093155e-01 1.33402914e-01 1.73633069e-01 2.29358822e-01 3.47894907e-01 5.47536194e-01 6.97866023e-01 8.34638774e-01 8.82009149e-01 8.88350904e-01 8.87371242e-01 7.52641201e-01 1.31953405e-02 1.31889163e-02 2.91068166e-01 2.97624588e-01 2.57279128e-01 1.75087273e-01 1.00167930e-01 9.46738422e-02 1.02464177e-01 1.04072757e-01 1.03919476e-01 1.03968374e-01 1.02761202e-01 1.01147152e-01 9.95805785e-02 1.00562327e-01 1.03372738e-01 1.06228061e-01 1.09836094e-01 1.18886180e-01 1.41214892e-01 1.73225626e-01 2.24644318e-01 3.76404166e-01 6.66937351e-01 8.48038912e-01 8.71237397e-01 8.81542087e-01 8.79509330e-01 8.05155337e-01 9.54833254e-02 1.55361621e-02 1.24950847e-02 3.67456764e-01 5.65852821e-01 5.75851262e-01 4.74796414e-01 2.19452411e-01 1.13014854e-01 1.07710518e-01 1.07741974e-01 1.06540166e-01 1.05674095e-01 1.04454860e-01 1.04218401e-01 1.05418392e-01 1.07904620e-01 1.11274973e-01 1.17704779e-01 1.34427428e-01 1.62470251e-01 2.07109585e-01 3.03398669e-01 4.45819885e-01 6.96325004e-01 8.55554283e-01 8.70658755e-01 8.76836121e-01 8.75726044e-01 8.27478647e-01 1.80491388e-01 7.93185756e-02 3.82930264e-02 1.72996391e-02 2.88959444e-01 5.32574832e-01 5.82009673e-01 3.40794116e-01 1.22790024e-01 1.26405850e-01 1.22196771e-01 1.15155645e-01 1.11022487e-01 1.08346127e-01 1.06698886e-01 1.06949449e-01 1.34181917e-01 1.64983258e-01 1.89277366e-01 1.99970260e-01 2.23860845e-01 3.01079392e-01 4.31827039e-01 6.46797061e-01 7.90817201e-01 8.60858619e-01 8.66719007e-01 8.69157791e-01 8.62253249e-01 8.21393609e-01 3.01088005e-01 1.03910536e-01 7.96935484e-02 6.11341260e-02 6.69189021e-02 1.73826084e-01 3.38400424e-01 5.00177979e-01 1.51263148e-01 1.23622984e-01 1.28034711e-01 1.26896411e-01 1.21844590e-01 1.17692970e-01 1.13292061e-01 1.10945173e-01 1.13304190e-01 1.37732327e-01 1.53301477e-01 1.62718087e-01 1.79404944e-01 2.29150444e-01 3.43748510e-01 5.35959721e-01 7.14698374e-01 8.43890548e-01 8.52295637e-01 8.50792468e-01 8.39445591e-01 7.83890903e-01 3.06705922e-01 1.07377633e-01 9.40090641e-02 8.52873847e-02 7.98832849e-02 8.95389542e-02 1.22169971e-01 1.76823840e-01 5.03622830e-01 1.24128513e-01 1.22793123e-01 1.27812892e-01 1.26748756e-01 1.24046572e-01 1.21797986e-01 1.18608750e-01 1.16129301e-01 1.49141595e-01 1.96332604e-01 2.11150974e-01 2.31612012e-01 2.63748556e-01 3.24549019e-01 4.35309291e-01 5.91721356e-01 7.23919153e-01 7.80306578e-01 8.11274469e-01 8.01077783e-01 7.14680791e-01 1.73967525e-01 1.05303824e-01 9.48735401e-02 8.83633047e-02 8.63283426e-02 8.95905048e-02 9.93191302e-02 1.12513497e-01 1.20977663e-01 5.95379412e-01 1.24522962e-01 1.18509419e-01 1.21442162e-01 1.25971839e-01 1.27635106e-01 1.22785643e-01 1.17807806e-01 1.69252992e-01 3.74609590e-01 4.10954505e-01 3.19004238e-01 3.27487022e-01 3.81657273e-01 4.66797888e-01 5.87247252e-01 7.14710176e-01 7.94589579e-01 8.05158734e-01 7.46164620e-01 5.15398443e-01 1.10200115e-01 1.02410182e-01 9.81385335e-02 8.78728107e-02 8.34536925e-02 8.90110284e-02 9.32396948e-02 1.03270613e-01 1.12068251e-01 1.12660766e-01 6.65843904e-01 1.42005086e-01 1.10235423e-01 1.13847263e-01 1.17633604e-01 1.22919455e-01 1.24488614e-01 1.28187433e-01 3.44365597e-01 6.06483459e-01 5.97022474e-01 4.67417896e-01 4.07236427e-01 4.59178537e-01 5.52188158e-01 6.66765988e-01 7.68352568e-01 8.20685387e-01 7.91713417e-01 3.38121146e-01 1.06226228e-01 9.80778039e-02 9.31599215e-02 9.28821489e-02 9.56576541e-02 9.57196653e-02 9.93925929e-02 1.03495024e-01 1.13404408e-01 1.14637986e-01 1.14349864e-01 6.44432783e-01 1.66762486e-01 9.29488093e-02 9.92406085e-02 1.13467127e-01 1.16282396e-01 1.18563406e-01 2.49320790e-01 5.13869643e-01 5.71658969e-01 6.34491742e-01 5.75548649e-01 4.85843778e-01 5.18982112e-01 6.03973866e-01 6.98506176e-01 7.75854051e-01 8.14551950e-01 7.78378606e-01 3.60279590e-01 1.06522955e-01 1.01203136e-01 9.84521806e-02 1.03123419e-01 1.06027007e-01 1.11095525e-01 3.29958677e-01 4.88456130e-01 2.72548854e-01 1.15704663e-01 1.16696566e-01 5.22205532e-01 1.72476307e-01 7.20406696e-02 7.07821921e-02 9.33924168e-02 1.17342219e-01 1.38793126e-01 3.71105641e-01 4.84365702e-01 4.63225603e-01 4.86311287e-01 5.70243061e-01 5.83438814e-01 5.78657329e-01 6.39385521e-01 7.06039488e-01 7.60524750e-01 7.93826163e-01 7.80835509e-01 6.05220318e-01 1.79471105e-01 1.22950539e-01 2.25791365e-01 6.98122382e-01 8.47485840e-01 8.69595110e-01 8.52164328e-01 8.27686906e-01 5.09921670e-01 1.15987711e-01 1.17652610e-01 3.82475168e-01 2.31565922e-01 5.78232408e-02 4.68766876e-02 7.12325349e-02 1.11500762e-01 2.46305734e-01 3.23010057e-01 3.16142142e-01 3.34199280e-01 3.86918724e-01 5.34046412e-01 6.48958921e-01 6.26874387e-01 6.56481266e-01 7.08507776e-01 7.46248066e-01 7.80187905e-01 7.99645603e-01 7.88106859e-01 7.52792537e-01 7.90088058e-01 8.61470878e-01 8.72398674e-01 8.63047361e-01 8.47906470e-01 8.31398189e-01 8.26554179e-01 5.80771983e-01 1.18385270e-01 1.18044458e-01 3.31722319e-01 2.57722080e-01 4.52028550e-02 2.48730425e-02 5.33723906e-02 1.59586683e-01 3.17903221e-01 2.81102061e-01 2.81639367e-01 3.54546696e-01 4.96086299e-01 6.48656666e-01 7.21096873e-01 7.12670684e-01 6.51318789e-01 6.93109393e-01 7.41745353e-01 7.78749585e-01 8.09073746e-01 8.26148570e-01 8.29769671e-01 8.28609884e-01 8.24417412e-01 8.04432690e-01 7.64250457e-01 7.26298869e-01 6.94960356e-01 7.01060951e-01 4.98147458e-01 1.18707046e-01 1.24164559e-01 3.32682550e-01 3.58875066e-01 3.03657167e-02 1.09180361e-02 3.06525379e-02 4.10158306e-01 3.40030730e-01 2.93053985e-01 3.20076376e-01 4.13978457e-01 5.75851321e-01 7.58312404e-01 7.72642553e-01 7.79311061e-01 7.70502508e-01 7.34570861e-01 7.72891164e-01 7.97649503e-01 8.02671134e-01 7.93596268e-01 7.70272017e-01 7.30306745e-01 6.72483623e-01 6.02534056e-01 5.30577779e-01 4.78439748e-01 4.46713060e-01 4.29381430e-01 3.54455888e-01 1.17733024e-01 1.23188913e-01 3.83984715e-01 2.88085461e-01 7.24728331e-02 2.04938464e-02 3.09915785e-02 7.54630804e-01 3.34079444e-01 2.95530379e-01 2.97791928e-01 3.22013557e-01 3.76440614e-01 4.86936510e-01 5.60074806e-01 5.89451969e-01 6.29359365e-01 5.89580476e-01 5.62819600e-01 5.75550735e-01 5.52607119e-01 4.95645136e-01 4.22642618e-01 3.62212807e-01 3.24501455e-01 2.99764931e-01 2.81392455e-01 2.61703223e-01 2.50556320e-01 2.37335742e-01 2.39120170e-01 
