# vtk DataFile Version 2.0
results/iter1.vtk, Created by Freefem++ 
ASCII
DATASET UNSTRUCTURED_GRID
POINTS 961 float
0 0 0
0.033333333 0 0
0.066666667 0 0
0.1 0 0
0.13333333 0 0
0.16666667 0 0
0.2 0 0
0.23333333 0 0
0.26666667 0 0
0.3 0 0
0.33333333 0 0
0.36666667 0 0
0.4 0 0
0.43333333 0 0
0.46666667 0 0
0.5 0 0
0.53333333 0 0
0.56666667 0 0
0.6 0 0
0.63333333 0 0
0.66666667 0 0
0.7 0 0
0.73333333 0 0
0.76666667 0 0
0.8 0 0
0.83333333 0 0
0.86666667 0 0
0.9 0 0
0.93333333 0 0
0.96666667 0 0
1 0 0
0 0.033333333 0
0.033333333 0.033333333 0
0.066666667 0.033333333 0
0.1 0.033333333 0
0.13333333 0.033333333 0
0.16666667 0.033333333 0
0.2 0.033333333 0
0.23333333 0.033333333 0
0.26666667 0.033333333 0
0.3 0.033333333 0
0.33333333 0.033333333 0
0.36666667 0.033333333 0
0.4 0.033333333 0
0.43333333 0.033333333 0
0.46666667 0.033333333 0
0.5 0.033333333 0
0.53333333 0.033333333 0
0.56666667 0.033333333 0
0.6 0.033333333 0
0.63333333 0.033333333 0
0.66666667 0.033333333 0
0.7 0.033333333 0
0.73333333 0.033333333 0
0.76666667 0.033333333 0
0.8 0.033333333 0
0.83333333 0.033333333 0
0.86666667 0.033333333 0
0.9 0.033333333 0
0.93333333 0.033333333 0
0.96666667 0.033333333 0
1 0.033333333 0
0 0.066666667 0
0.033333333 0.066666667 0
0.066666667 0.066666667 0
0.1 0.066666667 0
0.13333333 0.066666667 0
0.16666667 0.066666667 0
0.2 0.066666667 0
0.23333333 0.066666667 0
0.26666667 0.066666667 0
0.3 0.066666667 0
0.33333333 0.066666667 0
0.36666667 0.066666667 0
0.4 0.066666667 0
0.43333333 0.066666667 0
0.46666667 0.066666667 0
0.5 0.066666667 0
0.53333333 0.066666667 0
0.56666667 0.066666667 0
0.6 0.066666667 0
0.63333333 0.066666667 0
0.66666667 0.066666667 0
0.7 0.066666667 0
0.73333333 0.066666667 0
0.76666667 0.066666667 0
0.8 0.066666667 0
0.83333333 0.066666667 0
0.86666667 0.066666667 0
0.9 0.066666667 0
0.93333333 0.066666667 0
0.96666667 0.066666667 0
1 0.066666667 0
0 0.1 0
0.033333333 0.1 0
0.066666667 0.1 0
0.1 0.1 0
0.13333333 0.1 0
0.16666667 0.1 0
0.2 0.1 0
0.23333333 0.1 0
0.26666667 0.1 0
0.3 0.1 0
0.33333333 0.1 0
0.36666667 0.1 0
0.4 0.1 0
0.43333333 0.1 0
0.46666667 0.1 0
0.5 0.1 0
0.53333333 0.1 0
0.56666667 0.1 0
0.6 0.1 0
0.63333333 0.1 0
0.66666667 0.1 0
0.7 0.1 0
0.73333333 0.1 0
0.76666667 0.1 0
0.8 0.1 0
0.83333333 0.1 0
0.86666667 0.1 0
0.9 0.1 0
0.93333333 0.1 0
0.96666667 0.1 0
1 0.1 0
0 0.13333333 0
0.033333333 0.13333333 0
0.066666667 0.13333333 0
0.1 0.13333333 0
0.13333333 0.13333333 0
0.16666667 0.13333333 0
0.2 0.13333333 0
0.23333333 0.13333333 0
0.26666667 0.13333333 0
0.3 0.13333333 0
0.33333333 0.13333333 0
0.36666667 0.13333333 0
0.4 0.13333333 0
0.43333333 0.13333333 0
0.46666667 0.13333333 0
0.5 0.13333333 0
0.53333333 0.13333333 0
0.56666667 0.13333333 0
0.6 0.13333333 0
0.63333333 0.13333333 0
0.66666667 0.13333333 0
0.7 0.13333333 0
0.73333333 0.13333333 0
0.76666667 0.13333333 0
0.8 0.13333333 0
0.83333333 0.13333333 0
0.86666667 0.13333333 0
0.9 0.13333333 0
0.93333333 0.13333333 0
0.96666667 0.13333333 0
1 0.13333333 0
0 0.16666667 0
0.033333333 0.16666667 0
0.066666667 0.16666667 0
0.1 0.16666667 0
0.13333333 0.16666667 0
0.16666667 0.16666667 0
0.2 0.16666667 0
0.23333333 0.16666667 0
0.26666667 0.16666667 0
0.3 0.16666667 0
0.33333333 0.16666667 0
0.36666667 0.16666667 0
0.4 0.16666667 0
0.43333333 0.16666667 0
0.46666667 0.16666667 0
0.5 0.16666667 0
0.53333333 0.16666667 0
0.56666667 0.16666667 0
0.6 0.16666667 0
0.63333333 0.16666667 0
0.66666667 0.16666667 0
0.7 0.16666667 0
0.73333333 0.16666667 0
0.76666667 0.16666667 0
0.8 0.16666667 0
0.83333333 0.16666667 0
0.86666667 0.16666667 0
0.9 0.16666667 0
0.93333333 0.16666667 0
0.96666667 0.16666667 0
1 0.16666667 0
0 0.2 0
0.033333333 0.2 0
0.066666667 0.2 0
0.1 0.2 0
0.13333333 0.2 0
0.16666667 0.2 0
0.2 0.2 0
0.23333333 0.2 0
0.26666667 0.2 0
0.3 0.2 0
0.33333333 0.2 0
0.36666667 0.2 0
0.4 0.2 0
0.43333333 0.2 0
0.46666667 0.2 0
0.5 0.2 0
0.53333333 0.2 0
0.56666667 0.2 0
0.6 0.2 0
0.63333333 0.2 0
0.66666667 0.2 0
0.7 0.2 0
0.73333333 0.2 0
0.76666667 0.2 0
0.8 0.2 0
0.83333333 0.2 0
0.86666667 0.2 0
0.9 0.2 0
0.93333333 0.2 0
0.96666667 0.2 0
1 0.2 0
0 0.23333333 0
0.033333333 0.23333333 0
0.066666667 0.23333333 0
0.1 0.23333333 0
0.13333333 0.23333333 0
0.16666667 0.23333333 0
0.2 0.23333333 0
0.23333333 0.23333333 0
0.26666667 0.23333333 0
0.3 0.23333333 0
0.33333333 0.23333333 0
0.36666667 0.23333333 0
0.4 0.23333333 0
0.43333333 0.23333333 0
0.46666667 0.23333333 0
0.5 0.23333333 0
0.53333333 0.23333333 0
0.56666667 0.23333333 0
0.6 0.23333333 0
0.63333333 0.23333333 0
0.66666667 0.23333333 0
0.7 0.23333333 0
0.73333333 0.23333333 0
0.76666667 0.23333333 0
0.8 0.23333333 0
0.83333333 0.23333333 0
0.86666667 0.23333333 0
0.9 0.23333333 0
0.93333333 0.23333333 0
0.96666667 0.23333333 0
1 0.23333333 0
0 0.26666667 0
0.033333333 0.26666667 0
0.066666667 0.26666667 0
0.1 0.26666667 0
0.13333333 0.26666667 0
0.16666667 0.26666667 0
0.2 0.26666667 0
0.23333333 0.26666667 0
0.26666667 0.26666667 0
0.3 0.26666667 0
0.33333333 0.26666667 0
0.36666667 0.26666667 0
0.4 0.26666667 0
0.43333333 0.26666667 0
0.46666667 0.26666667 0
0.5 0.26666667 0
0.53333333 0.26666667 0
0.56666667 0.26666667 0
0.6 0.26666667 0
0.63333333 0.26666667 0
0.66666667 0.26666667 0
0.7 0.26666667 0
0.73333333 0.26666667 0
0.76666667 0.26666667 0
0.8 0.26666667 0
0.83333333 0.26666667 0
0.86666667 0.26666667 0
0.9 0.26666667 0
0.93333333 0.26666667 0
0.96666667 0.26666667 0
1 0.26666667 0
0 0.3 0
0.033333333 0.3 0
0.066666667 0.3 0
0.1 0.3 0
0.13333333 0.3 0
0.16666667 0.3 0
0.2 0.3 0
0.23333333 0.3 0
0.26666667 0.3 0
0.3 0.3 0
0.33333333 0.3 0
0.36666667 0.3 0
0.4 0.3 0
0.43333333 0.3 0
0.46666667 0.3 0
0.5 0.3 0
0.53333333 0.3 0
0.56666667 0.3 0
0.6 0.3 0
0.63333333 0.3 0
0.66666667 0.3 0
0.7 0.3 0
0.73333333 0.3 0
0.76666667 0.3 0
0.8 0.3 0
0.83333333 0.3 0
0.86666667 0.3 0
0.9 0.3 0
0.93333333 0.3 0
0.96666667 0.3 0
1 0.3 0
0 0.33333333 0
0.033333333 0.33333333 0
0.066666667 0.33333333 0
0.1 0.33333333 0
0.13333333 0.33333333 0
0.16666667 0.33333333 0
0.2 0.33333333 0
0.23333333 0.33333333 0
0.26666667 0.33333333 0
0.3 0.33333333 0
0.33333333 0.33333333 0
0.36666667 0.33333333 0
0.4 0.33333333 0
0.43333333 0.33333333 0
0.46666667 0.33333333 0
0.5 0.33333333 0
0.53333333 0.33333333 0
0.56666667 0.33333333 0
0.6 0.33333333 0
0.63333333 0.33333333 0
0.66666667 0.33333333 0
0.7 0.33333333 0
0.73333333 0.33333333 0
0.76666667 0.33333333 0
0.8 0.33333333 0
0.83333333 0.33333333 0
0.86666667 0.33333333 0
0.9 0.33333333 0
0.93333333 0.33333333 0
0.96666667 0.33333333 0
1 0.33333333 0
0 0.36666667 0
0.033333333 0.36666667 0
0.066666667 0.36666667 0
0.1 0.36666667 0
0.13333333 0.36666667 0
0.16666667 0.36666667 0
0.2 0.36666667 0
0.23333333 0.36666667 0
0.26666667 0.36666667 0
0.3 0.36666667 0
0.33333333 0.36666667 0
0.36666667 0.36666667 0
0.4 0.36666667 0
0.43333333 0.36666667 0
0.46666667 0.36666667 0
0.5 0.36666667 0
0.53333333 0.36666667 0
0.56666667 0.36666667 0
0.6 0.36666667 0
0.63333333 0.36666667 0
0.66666667 0.36666667 0
0.7 0.36666667 0
0.73333333 0.36666667 0
0.76666667 0.36666667 0
0.8 0.36666667 0
0.83333333 0.36666667 0
0.86666667 0.36666667 0
0.9 0.36666667 0
0.93333333 0.36666667 0
0.96666667 0.36666667 0
1 0.36666667 0
0 0.4 0
0.033333333 0.4 0
0.066666667 0.4 0
0.1 0.4 0
0.13333333 0.4 0
0.16666667 0.4 0
0.2 0.4 0
0.23333333 0.4 0
0.26666667 0.4 0
0.3 0.4 0
0.33333333 0.4 0
0.36666667 0.4 0
0.4 0.4 0
0.43333333 0.4 0
0.46666667 0.4 0
0.5 0.4 0
0.53333333 0.4 0
0.56666667 0.4 0
0.6 0.4 0
0.63333333 0.4 0
0.66666667 0.4 0
0.7 0.4 0
0.73333333 0.4 0
0.76666667 0.4 0
0.8 0.4 0
0.83333333 0.4 0
0.86666667 0.4 0
0.9 0.4 0
0.93333333 0.4 0
0.96666667 0.4 0
1 0.4 0
0 0.43333333 0
0.033333333 0.43333333 0
0.066666667 0.43333333 0
0.1 0.43333333 0
0.13333333 0.43333333 0
0.16666667 0.43333333 0
0.2 0.43333333 0
0.23333333 0.43333333 0
0.26666667 0.43333333 0
0.3 0.43333333 0
0.33333333 0.43333333 0
0.36666667 0.43333333 0
0.4 0.43333333 0
0.43333333 0.43333333 0
0.46666667 0.43333333 0
0.5 0.43333333 0
0.53333333 0.43333333 0
0.56666667 0.43333333 0
0.6 0.43333333 0
0.63333333 0.43333333 0
0.66666667 0.43333333 0
0.7 0.43333333 0
0.73333333 0.43333333 0
0.76666667 0.43333333 0
0.8 0.43333333 0
0.83333333 0.43333333 0
0.86666667 0.43333333 0
0.9 0.43333333 0
0.93333333 0.43333333 0
0.96666667 0.43333333 0
1 0.43333333 0
0 0.46666667 0
0.033333333 0.46666667 0
0.066666667 0.46666667 0
0.1 0.46666667 0
0.13333333 0.46666667 0
0.16666667 0.46666667 0
0.2 0.46666667 0
0.23333333 0.46666667 0
0.26666667 0.46666667 0
0.3 0.46666667 0
0.33333333 0.46666667 0
0.36666667 0.46666667 0
0.4 0.46666667 0
0.43333333 0.46666667 0
0.46666667 0.46666667 0
0.5 0.46666667 0
0.53333333 0.46666667 0
0.56666667 0.46666667 0
0.6 0.46666667 0
0.63333333 0.46666667 0
0.66666667 0.46666667 0
0.7 0.46666667 0
0.73333333 0.46666667 0
0.76666667 0.46666667 0
0.8 0.46666667 0
0.83333333 0.46666667 0
0.86666667 0.46666667 0
0.9 0.46666667 0
0.93333333 0.46666667 0
0.96666667 0.46666667 0
1 0.46666667 0
0 0.5 0
0.033333333 0.5 0
0.066666667 0.5 0
0.1 0.5 0
0.13333333 0.5 0
0.16666667 0.5 0
0.2 0.5 0
0.23333333 0.5 0
0.26666667 0.5 0
0.3 0.5 0
0.33333333 0.5 0
0.36666667 0.5 0
0.4 0.5 0
0.43333333 0.5 0
0.46666667 0.5 0
0.5 0.5 0
0.53333333 0.5 0
0.56666667 0.5 0
0.6 0.5 0
0.63333333 0.5 0
0.66666667 0.5 0
0.7 0.5 0
0.73333333 0.5 0
0.76666667 0.5 0
0.8 0.5 0
0.83333333 0.5 0
0.86666667 0.5 0
0.9 0.5 0
0.93333333 0.5 0
0.96666667 0.5 0
1 0.5 0
0 0.53333333 0
0.033333333 0.53333333 0
0.066666667 0.53333333 0
0.1 0.53333333 0
0.13333333 0.53333333 0
0.16666667 0.53333333 0
0.2 0.53333333 0
0.23333333 0.53333333 0
0.26666667 0.53333333 0
0.3 0.53333333 0
0.33333333 0.53333333 0
0.36666667 0.53333333 0
0.4 0.53333333 0
0.43333333 0.53333333 0
0.46666667 0.53333333 0
0.5 0.53333333 0
0.53333333 0.53333333 0
0.56666667 0.53333333 0
0.6 0.53333333 0
0.63333333 0.53333333 0
0.66666667 0.53333333 0
0.7 0.53333333 0
0.73333333 0.53333333 0
0.76666667 0.53333333 0
0.8 0.53333333 0
[...]
CELL_DATA 1920
Scalars  Label int 1
LOOKUP_TABLE FreeFempp_table
0
0
0
0
0
0
0
0
0
0
0
0
0
0
0
0
0
0
0
0
0
0
0
0
0
0
0
0
0
0
0
0
0
0
0
0
0
0
0
0
0
0
0
0
0
0
0
0
0
0
0
0
0
0
0
0
0
0
0
0
0
0
0
0
0
0
0
0
0
0
0
0
0
0
0
0
0
0
0
0
0
0
0
0
0
0
0
0
0
0
0
0
0
0
0
0
0
0
0
0
0
0
0
0
0
0
0
0
0
0
0
0
0
0
0
0
0
0
0
0
0
0
0
0
0
0
0
0
0
0
0
0
0
0
0
0
0
0
0
0
0
0
0
0
0
0
0
0
0
0
0
0
0
0
0
0
0
0
0
0
0
0
0
0
0
0
0
0
0
0
0
0
0
0
0
0
0
0
0
0
0
0
0
0
0
0
0
0
0
0
0
0
0
0
0
0
0
0
0
0
0
0
0
0
0
0
0
0
0
0
0
0
0
0
0
0
0
0
0
0
0
0
0
0
0
0
0
0
0
0
0
0
0
0
0
0
0
0
0
0
0
0
0
0
0
0
0
0
0
0
0
0
0
0
0
0
0
0
0
0
0
0
0
0
0
0
0
0
0
0
0
0
0
0
0
0
0
0
0
0
0
0
0
0
0
0
0
0
0
0
0
0
0
0
0
0
0
0
0
0
0
0
0
0
0
0
0
0
0
0
0
0
0
0
0
0
0
0
0
0
0
0
0
0
0
0
0
0
0
0
0
0
0
0
0
0
0
0
0
0
0
0
0
0
0
0
0
0
0
0
0
0
0
0
0
0
0
0
0
0
0
0
0
0
0
0
0
0
0
0
0
0
0
0
0
0
0
0
0
0
0
0
0
0
0
0
0
0
0
0
0
0
0
0
0
0
0
0
0
0
0
0
0
0
0
0
0
0
0
0
0
0
0
0
0
0
0
0
0
0
0
0
0
0
0
0
0
0
0
0
0
0
0
0
0
0
0
0
0
0
0
0
0
0
0
0
0
0
0
0
0
0
0
0
0
0
0
0
0
0
0
0
0
0
0
0
0
0
0
0
0
0
0
0
0
0
0
0
0
0
0
0
0
0
0
0
0
0
0
0
0
0
0
0
0
0
0
0
0
0
0
0
0
0
0
0
0
0
0
0
0
0
0
0
0
0
0
0
0
0
0
0
0
0
0
0
0
0
0
0
0
0
0
0
0
0
0
0
0
0
0
0
0
0
0
0
0
0
0
0
0
0
0
0
0
0
0
0
0
0
0
0
0
0
0
0
0
0
0
0
0
0
0
0
0
0
0
0
0
0
0
0
0
0
0
0
0
0
0
0
0
0
0
0
0
0
0
0
0
0
0
0
0
0
0
0
0
0
0
0
0
0
0
0
0
0
0
0
0
0
0
0
0
0
0
0
0
0
0
0
0
0
0
0
0
0
0
0
0
0
0
0
0
0
0
0
0
0
0
0
0
0
0
0
0
0
0
0
0
0
0
0
0
0
0
0
0
0
0
0
0
0
0
0
0
0
0
0
0
0
0
0
0
0
0
0
0
0
0
0
0
0
0
0
0
0
0
0
0
0
0
0
0
0
0
0
0
0
0
0
0
0
0
0
0
0
0
0
0
0
0
0
0
0
0
0
0
0
0
0
0
0
0
0
0
0
0
0
0
0
0
0
0
0
0
0
0
0
0
0
0
0
0
0
0
0
0
0
0
0
0
0
0
0
0
0
0
0
0
0
0
0
0
0
0
0
0
0
0
0
0
0
0
0
0
0
0
0
0
0
0
0
0
0
0
0
0
0
0
0
0
0
0
0
0
0
0
0
0
0
0
0
0
0
0
0
0
0
0
0
0
0
0
0
0
0
0
0
0
0
0
0
0
0
0
0
0
0
0
0
0
0
0
0
0
0
0
0
0
0
0
0
0
0
0
0
0
0
0
0
0
0
0
0
0
0
0
0
0
0
0
0
0
0
0
0
0
0
0
0
0
0
0
0
0
0
0
0
0
0
0
0
0
0
0
0
0
0
0
0
0
0
0
0
0
0
0
0
0
0
0
0
0
0
0
0
0
0
0
0
0
0
0
0
0
0
0
0
0
0
0
0
0
0
0
0
0
0
0
0
0
0
0
0
0
0
0
0
0
0
0
0
0
0
0
0
0
0
0
0
0
0
0
0
0
0
0
0
0
0
0
0
0
0
0
0
0
0
0
0
0
0
0
0
0
0
0
0
0
0
0
0
0
0
0
0
0
0
0
0
0
0
0
0
0
0
0
0
0
0
0
0
0
0
0
0
0
0
0
0
0
0
0
0
0
0
0
0
0
0
0
0
0
0
0
0
0
0
0
0
0
0
0
0
0
0
0
0
0
0
0
0
0
0
0
0
0
0
0
0
0
0
0
0
0
0
0
0
0
0
0
0
0
0
0
0
0
0
0
0
0
0
0
0
0
0
0
0
0
0
0
0
0
0
0
0
0
0
0
0
0
0
0
0
0
0
0
0
0
0
0
0
0
0
0
0
0
0
0
0
0
0
0
0
0
0
0
0
0
0
0
0
0
0
0
0
0
0
0
0
0
0
0
0
0
0
0
0
0
0
0
0
0
0
0
0
0
0
0
0
0
0
0
0
0
0
0
0
0
0
0
0
0
0
0
0
0
0
0
0
0
0
0
0
0
0
0
0
0
0
0
0
0
0
0
0
0
0
0
0
0
0
0
0
0
0
0
0
0
0
0
0
0
0
0
0
0
0
0
0
0
0
0
0
0
0
0
0
0
0
0
0
0
0
0
0
0
0
0
0
0
0
0
0
0
0
0
0
0
0
0
0
0
0
0
0
0
0
0
0
0
0
0
0
0
0
0
0
0
0
0
0
0
0
0
0
0
0
0
0
0
0
0
0
0
0
0
0
0
0
0
0
0
0
0
0
0
0
0
0
0
0
0
0
0
0
0
0
0
0
0
0
0
0
0
0
0
0
0
0
0
0
0
0
0
0
0
0
0
0
0
0
0
0
0
0
0
0
0
0
0
0
0
0
0
0
0
0
0
0
0
0
0
0
0
0
0
0
0
0
0
0
0
0
0
0
0
0
0
0
0
0
0
0
0
0
0
0
0
0
0
0
0
0
0
0
0
0
0
0
0
0
0
0
0
0
0
0
0
0
0
0
0
0
0
0
0
0
0
0
0
0
0
0
0
0
0
0
0
0
0
0
0
0
0
0
0
0
0
0
0
0
0
0
0
0
0
0
0
0
0
0
0
0
0
0
0
0
0
0
0
0
0
0
0
0
0
0
0
0
0
0
0
0
0
0
0
0
0
0
0
0
0
0
0
0
0
0
0
0
0
0
0
0
0
0
0
0
0
0
0
0
0
0
0
0
0
0
0
0
0
0
0
0
0
0
0
0
0
0
0
0
0
0
0
0
0
0
0
0
0
0
0
0
0
0
0
0
0
0
0
0
0
0
0
0
0
0
0
0
0
0
0
0
0
0
0
0
0
0
0
0
0
0
0
0
0
0
0
0
0
0
0
0
0
0
0
0
0
0
0
0
0
0
0
0
0
0
0
0
0
0
0
0
0
0
0
0
0
0
0
0
0
0
0
0
0
0
0
0
0
0
0
0
0
0
0
0
0
0
0
0
0
0
0
0
0
0
0
0
0
0
0
0
0
0
0
0
0
0
0
0
0
0
0
0
0
0
0
0
0
0
0
0
0
0
0
0
0
0
0
0
0
0
0
0
0
0
0
0
0
0
0
0
0
0
0
0
0
0
0
0
0
0
0
0
0
0
0
0
0
0
0
0
0
0
0
0
0
0
0
0
0
0
0
0
0
0
0
0
0
0
0
0
0
0
0
0
0
0
0
0
0
0
0
0
0
0
0
0
0
0
0
0
0
0
0
0
0
0
0
0
0
0
0
0
0
0
0
0
0
0
0
0
0
0
0
0
0
0
0
0
0
0
0
0
0
0
0
0
0
0
0
0
0
0
0
0
0
0
0
0
0
0
0
0
0
0
0
0
0
0
0
0
0
0
0
0
0
0
0
0
0
0
0
0
0
0
0
0
1
1
1
1
1
1
1
1
1
1
1
1
1
1
1
1
1
1
1
1
1
1
1
1
1
1
1
1
1
1
2
2
2
2
2
2
2
2
2
2
2
2
2
2
2
2
2
2
2
2
2
2
2
2
2
2
2
2
2
2
3
3
3
3
3
3
3
3
3
3
3
3
3
3
3
3
3
3
3
3
3
3
3
3
3
3
3
3
3
3
4
4
4
4
4
4
4
4
4
4
4
4
4
4
4
4
4
4
4
4
4
4
4
4
4
4
4
4
4
4

LOOKUP_TABLE FreeFempp_table 5
1.00000000 0.00000000 0.00000000 1.00000000
1.00000000 1.00000000 0.00000000 1.00000000
1.00000000 0.00000000 1.00000000 1.00000000
0.00000000 1.00000000 0.00000000 1.00000000
0.00000000 1.00000000 1.00000000 1.00000000

POINT_DATA 961
FIELD FieldData 1
Density 1 961 float
1.53476773e-02 1.53674623e-02 8.78177676e-03 5.59358299e-03 5.18209534e-03 5.37195615e-03 5.41987736e-03 5.23284404e-03 5.16735669e-03 7.18281511e-03 1.43357003e-02 5.46200313e-02 3.74967068e-01 7.54837751e-01 7.95741618e-01 7.09665000e-01 4.67431575e-01 1.86600089e-01 7.16639906e-02 4.40198183e-02 3.69613171e-02 4.88204248e-02 1.02035023e-01 3.77212971e-01 5.90903163e-01 2.82269895e-01 1.49860010e-01 8.71236026e-02 1.03158597e-02 1.07294936e-02 6.02055266e-02 9.47239622e-03 6.08539954e-03 6.32272894e-03 6.34079613e-03 6.17190218e-03 5.93683543e-03 5.89711405e-03 5.69734396e-03 5.31199342e-03 4.75136330e-03 5.23937307e-03 7.16783386e-03 1.12893404e-02 7.21795708e-02 8.20218861e-01 8.61145616e-01 7.35019028e-01 2.43319854e-01 4.69038151e-02 2.63880864e-02 2.20396593e-02 2.26162001e-02 2.75852829e-02 1.95165798e-01 7.63613265e-03 8.63094926e-01 2.61557341e-01 1.08258188e-01 1.38648776e-02 5.10223396e-03 1.73418876e-02 1.81657933e-02 8.57829396e-03 8.45185481e-03 1.20445350e-02 2.84152590e-02 4.95562367e-02 6.41892999e-02 7.55587071e-02 7.66653493e-02 5.00697158e-02 1.52278934e-02 8.70835036e-03 6.81600859e-03 7.62186525e-03 1.05718095e-02 1.20120319e-02 1.54392123e-02 1.66957304e-02 1.85173023e-02 2.38301791e-02 3.36119793e-02 4.29366715e-02 5.83424903e-02 2.27035031e-01 7.50663519e-01 7.33173966e-01 4.43912953e-01 2.64684945e-01 8.00956413e-02 5.97426482e-03 8.07407591e-03 3.37965041e-02 2.40341965e-02 3.60760130e-02 6.62214905e-02 1.03541829e-01 1.34716615e-01 1.58853039e-01 1.76269785e-01 1.84390292e-01 1.76422775e-01 1.41513124e-01 8.09605271e-02 3.18721607e-02 1.08926715e-02 9.63701308e-03 9.51719936e-03 1.00930631e-02 1.20416414e-02 1.44148208e-02 2.13026386e-02 7.11496398e-02 3.74636412e-01 5.46443164e-01 6.51225924e-01 7.46612072e-01 6.98332429e-01 4.96876150e-01 2.96979249e-01 1.79188743e-01 7.35553820e-03 7.05435453e-03 4.88753021e-02 3.29212360e-02 5.71706668e-02 1.07874751e-01 1.50594920e-01 1.81545079e-01 2.01951906e-01 2.13947773e-01 2.17361480e-01 2.10531756e-01 1.91767335e-01 1.61174804e-01 1.21531725e-01 8.07826966e-02 5.40414043e-02 3.45244929e-02 2.38133501e-02 2.24590916e-02 2.90682521e-02 4.98363078e-02 1.83461741e-01 4.78742927e-01 6.03326738e-01 6.46625221e-01 6.63397908e-01 6.16234243e-01 4.87378418e-01 3.26990992e-01 2.15174019e-01 7.39455456e-03 7.17544788e-03 9.73306000e-02 5.00578359e-02 9.59132537e-02 1.67343691e-01 2.13709518e-01 2.42864177e-01 2.58355230e-01 2.65248448e-01 2.65804559e-01 2.60185152e-01 2.47959867e-01 2.29318842e-01 2.04708353e-01 1.74539715e-01 1.42770097e-01 1.13150984e-01 9.39442590e-02 8.19959417e-02 7.88908377e-02 1.11199260e-01 2.50188768e-01 4.48829055e-01 5.63269436e-01 6.11551106e-01 6.24833524e-01 5.94174445e-01 5.03661931e-01 3.65319729e-01 2.22178981e-01 7.54992152e-03 7.29410723e-03 2.91693240e-01 1.07847162e-01 2.27410302e-01 2.93773949e-01 3.30172628e-01 3.44725013e-01 3.47286731e-01 3.44454259e-01 3.38861942e-01 3.30707133e-01 3.19472730e-01 3.05038124e-01 2.87594706e-01 2.66959608e-01 2.42799312e-01 2.14600384e-01 1.88161448e-01 1.66887119e-01 1.59012765e-01 1.94115475e-01 2.95971811e-01 4.25789118e-01 5.20977318e-01 5.72041750e-01 5.88578403e-01 5.70425987e-01 5.11125386e-01 3.99784744e-01 2.20953822e-01 7.88597483e-03 7.52182212e-03 6.40946388e-01 3.64170492e-01 5.87551177e-01 5.00390410e-01 4.99714941e-01 4.79924202e-01 4.59409058e-01 4.40249234e-01 4.22882229e-01 4.06351894e-01 3.89583021e-01 3.72068524e-01 3.53726536e-01 3.34323555e-01 3.13208729e-01 2.89814413e-01 2.66699553e-01 2.48424768e-01 2.45601729e-01 2.76843011e-01 3.47180724e-01 4.32052851e-01 5.00889659e-01 5.42836130e-01 5.58262169e-01 5.48628569e-01 5.12828946e-01 4.27528799e-01 2.21450195e-01 8.45604204e-03 7.93488417e-03 6.95198119e-01 7.30777383e-01 8.35912704e-01 6.69055045e-01 6.39998615e-01 5.92766285e-01 5.54271758e-01 5.21406770e-01 4.93031651e-01 4.67670798e-01 4.44215894e-01 4.22159910e-01 4.01311606e-01 3.81374985e-01 3.61929983e-01 3.43155771e-01 3.27250570e-01 3.18476290e-01 3.24237019e-01 3.52384001e-01 4.00135934e-01 4.53037679e-01 4.96604800e-01 5.24214268e-01 5.34463048e-01 5.28629422e-01 5.07356763e-01 4.43049580e-01 2.25714803e-01 9.29358695e-03 8.60091113e-03 2.99703777e-01 5.35252512e-01 8.34298253e-01 7.03670919e-01 6.78114831e-01 6.34604514e-01 5.97155511e-01 5.63292444e-01 5.32701194e-01 5.04886866e-01 4.79608953e-01 4.56900895e-01 4.36756134e-01 4.18939471e-01 4.03324455e-01 3.90722871e-01 3.83346438e-01 3.84035498e-01 3.95421028e-01 4.17961568e-01 4.47094262e-01 4.75736558e-01 4.98414189e-01 5.12386441e-01 5.16570807e-01 5.11171520e-01 4.95575905e-01 4.43198949e-01 2.31280208e-01 1.03770047e-02 9.52061731e-03 1.46571174e-01 1.50474951e-01 6.38280213e-01 6.18414998e-01 6.19625866e-01 6.05148971e-01 5.85625768e-01 5.63426197e-01 5.40688038e-01 5.18719137e-01 4.98493373e-01 4.80731606e-01 4.65708554e-01 4.53357518e-01 4.43917006e-01 4.38650846e-01 4.39465731e-01 4.47061181e-01 4.59752887e-01 4.74126458e-01 4.86734271e-01 4.95919764e-01 5.01545370e-01 5.03725410e-01 5.02130985e-01 4.95619088e-01 4.80273604e-01 4.29665893e-01 2.29096711e-01 1.16683599e-02 1.06495293e-02 1.14865445e-01 1.04756624e-01 3.19546700e-01 4.40407604e-01 5.00020087e-01 5.28675497e-01 5.36036074e-01 5.32440305e-01 5.23906052e-01 5.13809502e-01 5.04162788e-01 4.96062815e-01 4.89807785e-01 4.85432893e-01 4.83487070e-01 4.85629261e-01 4.93343681e-01 5.05116642e-01 5.16365826e-01 5.22461593e-01 5.21619201e-01 5.15333951e-01 5.06414413e-01 4.97182071e-01 4.88720357e-01 4.79647338e-01 4.62551892e-01 4.05096531e-01 2.02262029e-01 1.31867994e-02 1.19569469e-02 7.20333084e-02 7.95003027e-02 1.34928286e-01 2.70637572e-01 3.77533019e-01 4.40095276e-01 4.70899522e-01 4.85102296e-01 4.91617411e-01 4.95260119e-01 4.98578280e-01 5.02515912e-01 5.06890535e-01 5.11453092e-01 5.17211556e-01 5.25494099e-01 5.38498819e-01 5.53183734e-01 5.63204288e-01 5.64117253e-01 5.55170476e-01 5.38662136e-01 5.18055141e-01 4.96827960e-01 4.77941185e-01 4.61714029e-01 4.38462734e-01 3.64339054e-01 1.49527207e-01 1.51411090e-02 1.35353385e-02 4.81355302e-02 5.53488545e-02 8.67750123e-02 1.93620861e-01 3.02641600e-01 3.71375740e-01 4.11330998e-01 4.35958743e-01 4.53433186e-01 4.68498200e-01 4.83596385e-01 4.99037683e-01 5.13606071e-01 5.26391506e-01 5.39122283e-01 5.52751482e-01 5.69108129e-01 5.86971104e-01 5.98438323e-01 5.99343538e-01 5.89438379e-01 5.70251286e-01 5.43825984e-01 5.12614489e-01 4.79757637e-01 4.46937978e-01 4.04010326e-01 3.01356018e-01 1.01930790e-01 1.78650115e-02 1.57948658e-02 3.31011936e-02 3.76006179e-02 7.39080235e-02 1.76909015e-01 2.74796665e-01 3.32651913e-01 3.68941456e-01 3.95338833e-01 4.17570710e-01 4.39299047e-01 4.62502450e-01 4.86826807e-01 5.09672105e-01 5.29096067e-01 5.48535705e-01 5.63138902e-01 5.86118340e-01 6.05699778e-01 6.21420979e-01 6.27184927e-01 6.23106897e-01 6.09741151e-01 5.87084115e-01 5.54719865e-01 5.12108743e-01 4.56726044e-01 3.77361685e-01 2.42959127e-01 7.77360946e-02 2.13555302e-02 1.92218758e-02 2.40266472e-02 2.72178203e-02 7.91175365e-02 1.86517701e-01 2.67655134e-01 3.13605219e-01 3.42972726e-01 3.66365671e-01 3.88494402e-01 4.12247866e-01 4.39239115e-01 4.68859404e-01 4.97755051e-01 5.22543073e-01 5.41768014e-01 5.59153318e-01 5.85510671e-01 6.10899031e-01 6.31212533e-01 6.44749045e-01 6.50740743e-01 6.49457932e-01 6.39982820e-01 6.20165884e-01 5.85511565e-01 5.25314152e-01 4.17728692e-01 2.50935107e-01 8.04677457e-02 2.63763834e-02 2.43073180e-02 1.85820498e-02 2.13204287e-02 1.01841629e-01 2.03411818e-01 2.66244590e-01 3.03087294e-01 3.26867580e-01 3.46346825e-01 3.66198540e-01 3.89060229e-01 4.16347772e-01 4.47525740e-01 4.79494631e-01 5.07991016e-01 5.33663750e-01 5.53847790e-01 5.81126988e-01 6.03420138e-01 6.27045631e-01 6.47882938e-01 6.64826274e-01 6.77587032e-01 6.85366511e-01 6.86562836e-01 6.77285790e-01 6.47109449e-01 5.71554065e-01 4.18346554e-01 1.77861497e-01 3.73439789e-02 3.43777612e-02 1.50571782e-02 1.70982722e-02 1.28080547e-01 2.16394067e-01 2.65939474e-01 2.95781255e-01 3.14895689e-01 3.30860078e-01 3.48091245e-01 3.68895561e-01 3.94443810e-01 4.24378961e-01 4.56235319e-01 4.86190349e-01 5.12134433e-01 5.36306739e-01 5.59767008e-01 5.83016276e-01 6.07855201e-01 6.33526921e-01 6.59319103e-01 6.84434295e-01 7.08056867e-01 7.29219317e-01 7.45664179e-01 7.51698554e-01 7.36608624e-01 6.86885655e-01 6.51179731e-01 9.05338377e-02 7.54546821e-02 1.30909225e-02 1.43787200e-02 1.39200926e-01 2.29854509e-01 2.68492490e-01 2.89995462e-01 3.03773463e-01 3.16447318e-01 3.31331462e-01 3.49902689e-01 3.72843921e-01 3.99860978e-01 4.29177225e-01 4.57864463e-01 4.83497113e-01 5.06152391e-01 5.27835071e-01 5.49487114e-01 5.73503911e-01 6.00917399e-01 6.31705344e-01 6.65194452e-01 7.00537324e-01 7.36735404e-01 7.71455824e-01 7.99929142e-01 8.17293942e-01 8.15940738e-01 8.82097006e-01 4.55221087e-01 3.19562018e-01 1.20648770e-02 1.28758699e-02 1.42039984e-01 2.49429747e-01 2.75561333e-01 2.84960419e-01 2.91965544e-01 3.01248670e-01 3.14097345e-01 3.30662698e-01 3.50896358e-01 3.74365300e-01 3.99793446e-01 4.25101727e-01 4.48309094e-01 4.68788534e-01 4.87597674e-01 5.06575823e-01 5.28021216e-01 5.53754449e-01 5.84456503e-01 6.20080590e-01 6.60381496e-01 7.04756141e-01 7.50532329e-01 7.91662991e-01 8.23439479e-01 8.34161758e-01 9.28866506e-01 8.28464568e-01 6.53994501e-01 1.13092158e-02 1.19925132e-02 1.47048920e-01 2.74715662e-01 2.85669535e-01 2.79692948e-01 2.78786540e-01 2.84619957e-01 2.95732498e-01 3.10677350e-01 3.28586519e-01 3.48772705e-01 3.70247155e-01 3.91597241e-01 4.11420405e-01 4.29076135e-01 4.45095450e-01 4.60924685e-01 4.78505582e-01 4.99500453e-01 5.24842799e-01 5.54984808e-01 5.90415835e-01 6.31540120e-01 6.76350474e-01 7.16998875e-01 7.43764699e-01 7.43073821e-01 8.80052030e-01 5.92745662e-01 8.37648809e-01 1.02708442e-02 1.10987928e-02 1.58156261e-01 3.02399457e-01 2.95227319e-01 2.72530645e-01 2.63701409e-01 2.66517878e-01 2.76331574e-01 2.90101081e-01 3.06251466e-01 3.23875517e-01 3.42142254e-01 3.60080808e-01 3.76748949e-01 3.91633242e-01 4.04932618e-01 4.17490900e-01 4.30503279e-01 4.45027828e-01 4.61652458e-01 4.80620742e-01 5.02279997e-01 5.27196229e-01 5.53705335e-01 5.70912540e-01 5.54885209e-01 4.87490505e-01 4.41359013e-01 1.45074204e-01 5.03525555e-01 8.64285044e-03 9.75027587e-03 1.77527905e-01 3.26833159e-01 2.99295604e-01 2.61191517e-01 2.46228203e-01 2.47231290e-01 2.56381005e-01 2.69375354e-01 2.84226209e-01 2.99955010e-01 3.15857410e-01 3.31225485e-01 3.45381677e-01 3.57876927e-01 3.68651092e-01 3.78011942e-01 3.86452675e-01 3.94356132e-01 4.01757926e-01 4.08358932e-01 4.13862795e-01 4.18387085e-01 4.20855194e-01 4.11278069e-01 3.63819152e-01 2.68257082e-01 1.51798069e-01 6.41321018e-02 1.19502567e-01 6.40788116e-03 7.76631758e-03 2.04403132e-01 3.38093996e-01 2.91731477e-01 2.43756592e-01 2.26525843e-01 2.27541625e-01 2.36691400e-01 2.49118224e-01 2.62833416e-01 2.76977867e-01 2.90995836e-01 3.04343462e-01 3.16472381e-01 3.26933324e-01 3.35466713e-01 3.41993362e-01 3.46505344e-01 3.48897785e-01 3.48837018e-01 3.45779538e-01 3.39294255e-01 3.29809636e-01 3.18414927e-01 3.01541239e-01 2.63548434e-01 1.95764184e-01 1.04136854e-01 4.41465303e-02 6.59568012e-02 4.26215166e-03 5.43122459e-03 2.28992537e-01 3.24410617e-01 2.68046349e-01 2.20647529e-01 2.06222877e-01 2.09023431e-01 2.18511060e-01 2.30212986e-01 2.42568582e-01 2.55004883e-01 2.67143250e-01 2.78562427e-01 2.88791507e-01 2.97380537e-01 3.03957552e-01 3.08222622e-01 3.09883505e-01 3.08578432e-01 3.03866208e-01 2.95352221e-01 2.83032149e-01 2.68065929e-01 2.53311187e-01 2.40218714e-01 2.21484989e-01 1.84376925e-01 1.05430506e-01 3.17516960e-02 4.76086438e-02 4.07988438e-03 4.12093755e-03 2.32862815e-01 2.81935275e-01 2.31435016e-01 1.96208537e-01 1.88658223e-01 1.94082588e-01 2.03540564e-01 2.13824496e-01 2.24158406e-01 2.34361261e-01 2.44234815e-01 2.53455967e-01 2.61620939e-01 2.68313676e-01 2.73147017e-01 2.75755733e-01 2.75754005e-01 2.72706568e-01 2.66199052e-01 2.56074905e-01 2.42804557e-01 2.27984548e-01 2.14878559e-01 2.06899151e-01 2.02752948e-01 1.91037729e-01 1.26826912e-01 2.39526965e-02 3.23943384e-02 4.59993631e-03 5.68595203e-03 2.36709550e-01 2.34485760e-01 1.96208403e-01 1.77647829e-01 1.78086177e-01 1.85462683e-01 1.93507075e-01 2.01013952e-01 2.08256111e-01 2.15447441e-01 2.22502768e-01 2.29139850e-01 2.34997407e-01 2.39710554e-01 2.42941812e-01 2.44372576e-01 2.43670255e-01 2.40468413e-01 2.34436467e-01 2.25533336e-01 2.14421719e-01 2.02773243e-01 1.93403229e-01 1.90105915e-01 1.95837319e-01 2.09634036e-01 1.90469056e-01 1.97931621e-02 2.06362642e-02 6.98802620e-03 6.11482607e-03 3.95828366e-01 2.45137662e-01 1.83138192e-01 1.72499731e-01 1.78164855e-01 1.84742883e-01 1.88779607e-01 1.91701055e-01 1.94793120e-01 1.98405966e-01 2.02357933e-01 2.06285655e-01 2.09809825e-01 2.12595582e-01 2.14364633e-01 2.14883581e-01 2.13941559e-01 2.11335495e-01 2.06906646e-01 2.00714350e-01 1.93423301e-01 1.86679244e-01 1.82848170e-01 1.84742898e-01 2.02101976e-01 2.75828540e-01 4.90973473e-01 1.64737999e-02 1.12280361e-02 7.03412853e-03 5.20350737e-03 7.04221547e-01 4.31392431e-01 2.12780759e-01 1.84177712e-01 1.86923563e-01 1.88018814e-01 1.85729489e-01 1.83488950e-01 1.82682887e-01 1.83236867e-01 1.84635475e-01 1.86351940e-01 1.87960207e-01 1.89138934e-01 1.89650729e-01 1.89322442e-01 1.88035622e-01 1.85733885e-01 1.82461679e-01 1.78482085e-01 1.74609050e-01 1.72923058e-01 1.77527115e-01 1.94689721e-01 2.61355907e-01 5.93530118e-01 6.66002035e-01 1.44049386e-02 9.98615753e-03 3.83330742e-03 7.39511894e-03 9.08850670e-01 7.49540567e-01 2.80329138e-01 1.89701483e-01 1.84257910e-01 1.81636110e-01 1.76852211e-01 1.73227981e-01 1.71547234e-01 1.71314985e-01 1.71848342e-01 1.72599614e-01 1.73183903e-01 1.73332855e-01 1.72846273e-01 1.71563059e-01 1.69358864e-01 1.66174158e-01 1.62072524e-01 1.57330647e-01 1.52651235e-01 1.50077641e-01 1.57254234e-01 2.08210230e-01 4.74265158e-01 7.67093718e-01 8.60509157e-01 1.34084588e-02 1.11747636e-02 9.13459435e-03 4.55502234e-03 9.26304162e-01 1.76333591e-01 2.44496942e-01 2.16511101e-01 2.20095530e-01 2.24160671e-01 2.24349767e-01 2.23633856e-01 2.23409146e-01 2.23768339e-01 2.24407345e-01 2.25017786e-01 2.25377098e-01 2.25329235e-01 2.24744156e-01 2.23488167e-01 2.21418083e-01 2.18408689e-01 2.14420781e-01 2.09602892e-01 2.04406381e-01 1.99839637e-01 1.98880047e-01 2.12180212e-01 2.72621542e-01 4.91025746e-01 8.80770206e-01 4.68533784e-02 1.95045974e-02 
