# vtk DataFile Version 2.0
results/iter0.vtk, Created by Freefem++ 
ASCII
DATASET UNSTRUCTURED_GRID
POINTS 961 float
0 0 0
0.033333333 0 0
0.066666667 0 0
0.1 0 0
0.13333333 0 0
0.16666667 0 0
0.2 0 0
0.23333333 0 0
0.26666667 0 0
0.3 0 0
0.33333333 0 0
0.36666667 0 0
0.4 0 0
0.43333333 0 0
0.46666667 0 0
0.5 0 0
0.53333333 0 0
0.56666667 0 0
0.6 0 0
0.63333333 0 0
0.66666667 0 0
0.7 0 0
0.73333333 0 0
0.76666667 0 0
0.8 0 0
0.83333333 0 0
0.86666667 0 0
0.9 0 0
0.93333333 0 0
0.96666667 0 0
1 0 0
0 0.033333333 0
0.033333333 0.033333333 0
0.066666667 0.033333333 0
0.1 0.033333333 0
0.13333333 0.033333333 0
0.16666667 0.033333333 0
0.2 0.033333333 0
0.23333333 0.033333333 0
0.26666667 0.033333333 0
0.3 0.033333333 0
0.33333333 0.033333333 0
0.36666667 0.033333333 0
0.4 0.033333333 0
0.43333333 0.033333333 0
0.46666667 0.033333333 0
0.5 0.033333333 0
0.53333333 0.033333333 0
0.56666667 0.033333333 0
0.6 0.033333333 0
0.63333333 0.033333333 0
0.66666667 0.033333333 0
0.7 0.033333333 0
0.73333333 0.033333333 0
0.76666667 0.033333333 0
0.8 0.033333333 0
0.83333333 0.033333333 0
0.86666667 0.033333333 0
0.9 0.033333333 0
0.93333333 0.033333333 0
0.96666667 0.033333333 0
1 0.033333333 0
0 0.066666667 0
0.033333333 0.066666667 0
0.066666667 0.066666667 0
0.1 0.066666667 0
0.13333333 0.066666667 0
0.16666667 0.066666667 0
0.2 0.066666667 0
0.23333333 0.066666667 0
0.26666667 0.066666667 0
0.3 0.066666667 0
0.33333333 0.066666667 0
0.36666667 0.066666667 0
0.4 0.066666667 0
0.43333333 0.066666667 0
0.46666667 0.066666667 0
0.5 0.066666667 0
0.53333333 0.066666667 0
0.56666667 0.066666667 0
0.6 0.066666667 0
0.63333333 0.066666667 0
0.66666667 0.066666667 0
0.7 0.066666667 0
0.73333333 0.066666667 0
0.76666667 0.066666667 0
0.8 0.066666667 0
0.83333333 0.066666667 0
0.86666667 0.066666667 0
0.9 0.066666667 0
0.93333333 0.066666667 0
0.96666667 0.066666667 0
1 0.066666667 0
0 0.1 0
0.033333333 0.1 0
0.066666667 0.1 0
0.1 0.1 0
0.13333333 0.1 0
0.16666667 0.1 0
0.2 0.1 0
0.23333333 0.1 0
0.26666667 0.1 0
0.3 0.1 0
0.33333333 0.1 0
0.36666667 0.1 0
0.4 0.1 0
0.43333333 0.1 0
0.46666667 0.1 0
0.5 0.1 0
0.53333333 0.1 0
0.56666667 0.1 0
0.6 0.1 0
0.63333333 0.1 0
0.66666667 0.1 0
0.7 0.1 0
0.73333333 0.1 0
0.76666667 0.1 0
0.8 0.1 0
0.83333333 0.1 0
0.86666667 0.1 0
0.9 0.1 0
0.93333333 0.1 0
0.96666667 0.1 0
1 0.1 0
0 0.13333333 0
0.033333333 0.13333333 0
0.066666667 0.13333333 0
0.1 0.13333333 0
0.13333333 0.13333333 0
0.16666667 0.13333333 0
0.2 0.13333333 0
0.23333333 0.13333333 0
0.26666667 0.13333333 0
0.3 0.13333333 0
0.33333333 0.13333333 0
0.36666667 0.13333333 0
0.4 0.13333333 0
0.43333333 0.13333333 0
0.46666667 0.13333333 0
0.5 0.13333333 0
0.53333333 0.13333333 0
0.56666667 0.13333333 0
0.6 0.13333333 0
0.63333333 0.13333333 0
0.66666667 0.13333333 0
0.7 0.13333333 0
0.73333333 0.13333333 0
0.76666667 0.13333333 0
0.8 0.13333333 0
0.83333333 0.13333333 0
0.86666667 0.13333333 0
0.9 0.13333333 0
0.93333333 0.13333333 0
0.96666667 0.13333333 0
1 0.13333333 0
0 0.16666667 0
0.033333333 0.16666667 0
0.066666667 0.16666667 0
0.1 0.16666667 0
0.13333333 0.16666667 0
0.16666667 0.16666667 0
0.2 0.16666667 0
0.23333333 0.16666667 0
0.26666667 0.16666667 0
0.3 0.16666667 0
0.33333333 0.16666667 0
0.36666667 0.16666667 0
0.4 0.16666667 0
0.43333333 0.16666667 0
0.46666667 0.16666667 0
0.5 0.16666667 0
0.53333333 0.16666667 0
0.56666667 0.16666667 0
0.6 0.16666667 0
0.63333333 0.16666667 0
0.66666667 0.16666667 0
0.7 0.16666667 0
0.73333333 0.16666667 0
0.76666667 0.16666667 0
0.8 0.16666667 0
0.83333333 0.16666667 0
0.86666667 0.16666667 0
0.9 0.16666667 0
0.93333333 0.16666667 0
0.96666667 0.16666667 0
1 0.16666667 0
0 0.2 0
0.033333333 0.2 0
0.066666667 0.2 0
0.1 0.2 0
0.13333333 0.2 0
0.16666667 0.2 0
0.2 0.2 0
0.23333333 0.2 0
0.26666667 0.2 0
0.3 0.2 0
0.33333333 0.2 0
0.36666667 0.2 0
0.4 0.2 0
0.43333333 0.2 0
0.46666667 0.2 0
0.5 0.2 0
0.53333333 0.2 0
0.56666667 0.2 0
0.6 0.2 0
0.63333333 0.2 0
0.66666667 0.2 0
0.7 0.2 0
0.73333333 0.2 0
0.76666667 0.2 0
0.8 0.2 0
0.83333333 0.2 0
0.86666667 0.2 0
0.9 0.2 0
0.93333333 0.2 0
0.96666667 0.2 0
1 0.2 0
0 0.23333333 0
0.033333333 0.23333333 0
0.066666667 0.23333333 0
0.1 0.23333333 0
0.13333333 0.23333333 0
0.16666667 0.23333333 0
0.2 0.23333333 0
0.23333333 0.23333333 0
0.26666667 0.23333333 0
0.3 0.23333333 0
0.33333333 0.23333333 0
0.36666667 0.23333333 0
0.4 0.23333333 0
0.43333333 0.23333333 0
0.46666667 0.23333333 0
0.5 0.23333333 0
0.53333333 0.23333333 0
0.56666667 0.23333333 0
0.6 0.23333333 0
0.63333333 0.23333333 0
0.66666667 0.23333333 0
0.7 0.23333333 0
0.73333333 0.23333333 0
0.76666667 0.23333333 0
0.8 0.23333333 0
0.83333333 0.23333333 0
0.86666667 0.23333333 0
0.9 0.23333333 0
0.93333333 0.23333333 0
0.96666667 0.23333333 0
1 0.23333333 0
0 0.26666667 0
0.033333333 0.26666667 0
0.066666667 0.26666667 0
0.1 0.26666667 0
0.13333333 0.26666667 0
0.16666667 0.26666667 0
0.2 0.26666667 0
0.23333333 0.26666667 0
0.26666667 0.26666667 0
0.3 0.26666667 0
0.33333333 0.26666667 0
0.36666667 0.26666667 0
0.4 0.26666667 0
0.43333333 0.26666667 0
0.46666667 0.26666667 0
0.5 0.26666667 0
0.53333333 0.26666667 0
0.56666667 0.26666667 0
0.6 0.26666667 0
0.63333333 0.26666667 0
0.66666667 0.26666667 0
0.7 0.26666667 0
0.73333333 0.26666667 0
0.76666667 0.26666667 0
0.8 0.26666667 0
0.83333333 0.26666667 0
0.86666667 0.26666667 0
0.9 0.26666667 0
0.93333333 0.26666667 0
0.96666667 0.26666667 0
1 0.26666667 0
0 0.3 0
0.033333333 0.3 0
0.066666667 0.3 0
0.1 0.3 0
0.13333333 0.3 0
0.16666667 0.3 0
0.2 0.3 0
0.23333333 0.3 0
0.26666667 0.3 0
0.3 0.3 0
0.33333333 0.3 0
0.36666667 0.3 0
0.4 0.3 0
0.43333333 0.3 0
0.46666667 0.3 0
0.5 0.3 0
0.53333333 0.3 0
0.56666667 0.3 0
0.6 0.3 0
0.63333333 0.3 0
0.66666667 0.3 0
0.7 0.3 0
0.73333333 0.3 0
0.76666667 0.3 0
0.8 0.3 0
0.83333333 0.3 0
0.86666667 0.3 0
0.9 0.3 0
0.93333333 0.3 0
0.96666667 0.3 0
1 0.3 0
0 0.33333333 0
0.033333333 0.33333333 0
0.066666667 0.33333333 0
0.1 0.33333333 0
0.13333333 0.33333333 0
0.16666667 0.33333333 0
0.2 0.33333333 0
0.23333333 0.33333333 0
0.26666667 0.33333333 0
0.3 0.33333333 0
0.33333333 0.33333333 0
0.36666667 0.33333333 0
0.4 0.33333333 0
0.43333333 0.33333333 0
0.46666667 0.33333333 0
0.5 0.33333333 0
0.53333333 0.33333333 0
0.56666667 0.33333333 0
0.6 0.33333333 0
0.63333333 0.33333333 0
0.66666667 0.33333333 0
0.7 0.33333333 0
0.73333333 0.33333333 0
0.76666667 0.33333333 0
0.8 0.33333333 0
0.83333333 0.33333333 0
0.86666667 0.33333333 0
0.9 0.33333333 0
0.93333333 0.33333333 0
0.96666667 0.33333333 0
1 0.33333333 0
0 0.36666667 0
0.033333333 0.36666667 0
0.066666667 0.36666667 0
0.1 0.36666667 0
0.13333333 0.36666667 0
0.16666667 0.36666667 0
0.2 0.36666667 0
0.23333333 0.36666667 0
0.26666667 0.36666667 0
0.3 0.36666667 0
0.33333333 0.36666667 0
0.36666667 0.36666667 0
0.4 0.36666667 0
0.43333333 0.36666667 0
0.46666667 0.36666667 0
0.5 0.36666667 0
0.53333333 0.36666667 0
0.56666667 0.36666667 0
0.6 0.36666667 0
0.63333333 0.36666667 0
0.66666667 0.36666667 0
0.7 0.36666667 0
0.73333333 0.36666667 0
0.76666667 0.36666667 0
0.8 0.36666667 0
0.83333333 0.36666667 0
0.86666667 0.36666667 0
0.9 0.36666667 0
0.93333333 0.36666667 0
0.96666667 0.36666667 0
1 0.36666667 0
0 0.4 0
0.033333333 0.4 0
0.066666667 0.4 0
0.1 0.4 0
0.13333333 0.4 0
0.16666667 0.4 0
0.2 0.4 0
0.23333333 0.4 0
0.26666667 0.4 0
0.3 0.4 0
0.33333333 0.4 0
0.36666667 0.4 0
0.4 0.4 0
0.43333333 0.4 0
0.46666667 0.4 0
0.5 0.4 0
0.53333333 0.4 0
0.56666667 0.4 0
0.6 0.4 0
0.63333333 0.4 0
0.66666667 0.4 0
0.7 0.4 0
0.73333333 0.4 0
0.76666667 0.4 0
0.8 0.4 0
0.83333333 0.4 0
0.86666667 0.4 0
0.9 0.4 0
0.93333333 0.4 0
0.96666667 0.4 0
1 0.4 0
0 0.43333333 0
0.033333333 0.43333333 0
0.066666667 0.43333333 0
0.1 0.43333333 0
0.13333333 0.43333333 0
0.16666667 0.43333333 0
0.2 0.43333333 0
0.23333333 0.43333333 0
0.26666667 0.43333333 0
0.3 0.43333333 0
0.33333333 0.43333333 0
0.36666667 0.43333333 0
0.4 0.43333333 0
0.43333333 0.43333333 0
0.46666667 0.43333333 0
0.5 0.43333333 0
0.53333333 0.43333333 0
0.56666667 0.43333333 0
0.6 0.43333333 0
0.63333333 0.43333333 0
0.66666667 0.43333333 0
0.7 0.43333333 0
0.73333333 0.43333333 0
0.76666667 0.43333333 0
0.8 0.43333333 0
0.83333333 0.43333333 0
0.86666667 0.43333333 0
0.9 0.43333333 0
0.93333333 0.43333333 0
0.96666667 0.43333333 0
1 0.43333333 0
0 0.46666667 0
0.033333333 0.46666667 0
0.066666667 0.46666667 0
0.1 0.46666667 0
0.13333333 0.46666667 0
0.16666667 0.46666667 0
0.2 0.46666667 0
0.23333333 0.46666667 0
0.26666667 0.46666667 0
0.3 0.46666667 0
0.33333333 0.46666667 0
0.36666667 0.46666667 0
0.4 0.46666667 0
0.43333333 0.46666667 0
0.46666667 0.46666667 0
0.5 0.46666667 0
0.53333333 0.46666667 0
0.56666667 0.46666667 0
0.6 0.46666667 0
0.63333333 0.46666667 0
0.66666667 0.46666667 0
0.7 0.46666667 0
0.73333333 0.46666667 0
0.76666667 0.46666667 0
0.8 0.46666667 0
0.83333333 0.46666667 0
0.86666667 0.46666667 0
0.9 0.46666667 0
0.93333333 0.46666667 0
0.96666667 0.46666667 0
1 0.46666667 0
0 0.5 0
0.033333333 0.5 0
0.066666667 0.5 0
0.1 0.5 0
0.13333333 0.5 0
0.16666667 0.5 0
0.2 0.5 0
0.23333333 0.5 0
0.26666667 0.5 0
0.3 0.5 0
0.33333333 0.5 0
0.36666667 0.5 0
0.4 0.5 0
0.43333333 0.5 0
0.46666667 0.5 0
0.5 0.5 0
0.53333333 0.5 0
0.56666667 0.5 0
0.6 0.5 0
0.63333333 0.5 0
0.66666667 0.5 0
0.7 0.5 0
0.73333333 0.5 0
0.76666667 0.5 0
0.8 0.5 0
0.83333333 0.5 0
0.86666667 0.5 0
0.9 0.5 0
0.93333333 0.5 0
0.96666667 0.5 0
1 0.5 0
0 0.53333333 0
0.033333333 0.53333333 0
0.066666667 0.53333333 0
0.1 0.53333333 0
0.13333333 0.53333333 0
0.16666667 0.53333333 0
0.2 0.53333333 0
0.23333333 0.53333333 0
0.26666667 0.53333333 0
0.3 0.53333333 0
0.33333333 0.53333333 0
0.36666667 0.53333333 0
0.4 0.53333333 0
0.43333333 0.53333333 0
0.46666667 0.53333333 0
0.5 0.53333333 0
0.53333333 0.53333333 0
0.56666667 0.53333333 0
0.6 0.53333333 0
0.63333333 0.53333333 0
0.66666667 0.53333333 0
0.7 0.53333333 0
0.73333333 0.53333333 0
0.76666667 0.53333333 0
0.8 0.53333333 0
[...]
CELL_DATA 1920
Scalars  Label int 1
LOOKUP_TABLE FreeFempp_table
0
0
0
0
0
0
0
0
0
0
0
0
0
0
0
0
0
0
0
0
0
0
0
0
0
0
0
0
0
0
0
0
0
0
0
0
0
0
0
0
0
0
0
0
0
0
0
0
0
0
0
0
0
0
0
0
0
0
0
0
0
0
0
0
0
0
0
0
0
0
0
0
0
0
0
0
0
0
0
0
0
0
0
0
0
0
0
0
0
0
0
0
0
0
0
0
0
0
0
0
0
0
0
0
0
0
0
0
0
0
0
0
0
0
0
0
0
0
0
0
0
0
0
0
0
0
0
0
0
0
0
0
0
0
0
0
0
0
0
0
0
0
0
0
0
0
0
0
0
0
0
0
0
0
0
0
0
0
0
0
0
0
0
0
0
0
0
0
0
0
0
0
0
0
0
0
0
0
0
0
0
0
0
0
0
0
0
0
0
0
0
0
0
0
0
0
0
0
0
0
0
0
0
0
0
0
0
0
0
0
0
0
0
0
0
0
0
0
0
0
0
0
0
0
0
0
0
0
0
0
0
0
0
0
0
0
0
0
0
0
0
0
0
0
0
0
0
0
0
0
0
0
0
0
0
0
0
0
0
0
0
0
0
0
0
0
0
0
0
0
0
0
0
0
0
0
0
0
0
0
0
0
0
0
0
0
0
0
0
0
0
0
0
0
0
0
0
0
0
0
0
0
0
0
0
0
0
0
0
0
0
0
0
0
0
0
0
0
0
0
0
0
0
0
0
0
0
0
0
0
0
0
0
0
0
0
0
0
0
0
0
0
0
0
0
0
0
0
0
0
0
0
0
0
0
0
0
0
0
0
0
0
0
0
0
0
0
0
0
0
0
0
0
0
0
0
0
0
0
0
0
0
0
0
0
0
0
0
0
0
0
0
0
0
0
0
0
0
0
0
0
0
0
0
0
0
0
0
0
0
0
0
0
0
0
0
0
0
0
0
0
0
0
0
0
0
0
0
0
0
0
0
0
0
0
0
0
0
0
0
0
0
0
0
0
0
0
0
0
0
0
0
0
0
0
0
0
0
0
0
0
0
0
0
0
0
0
0
0
0
0
0
0
0
0
0
0
0
0
0
0
0
0
0
0
0
0
0
0
0
0
0
0
0
0
0
0
0
0
0
0
0
0
0
0
0
0
0
0
0
0
0
0
0
0
0
0
0
0
0
0
0
0
0
0
0
0
0
0
0
0
0
0
0
0
0
0
0
0
0
0
0
0
0
0
0
0
0
0
0
0
0
0
0
0
0
0
0
0
0
0
0
0
0
0
0
0
0
0
0
0
0
0
0
0
0
0
0
0
0
0
0
0
0
0
0
0
0
0
0
0
0
0
0
0
0
0
0
0
0
0
0
0
0
0
0
0
0
0
0
0
0
0
0
0
0
0
0
0
0
0
0
0
0
0
0
0
0
0
0
0
0
0
0
0
0
0
0
0
0
0
0
0
0
0
0
0
0
0
0
0
0
0
0
0
0
0
0
0
0
0
0
0
0
0
0
0
0
0
0
0
0
0
0
0
0
0
0
0
0
0
0
0
0
0
0
0
0
0
0
0
0
0
0
0
0
0
0
0
0
0
0
0
0
0
0
0
0
0
0
0
0
0
0
0
0
0
0
0
0
0
0
0
0
0
0
0
0
0
0
0
0
0
0
0
0
0
0
0
0
0
0
0
0
0
0
0
0
0
0
0
0
0
0
0
0
0
0
0
0
0
0
0
0
0
0
0
0
0
0
0
0
0
0
0
0
0
0
0
0
0
0
0
0
0
0
0
0
0
0
0
0
0
0
0
0
0
0
0
0
0
0
0
0
0
0
0
0
0
0
0
0
0
0
0
0
0
0
0
0
0
0
0
0
0
0
0
0
0
0
0
0
0
0
0
0
0
0
0
0
0
0
0
0
0
0
0
0
0
0
0
0
0
0
0
0
0
0
0
0
0
0
0
0
0
0
0
0
0
0
0
0
0
0
0
0
0
0
0
0
0
0
0
0
0
0
0
0
0
0
0
0
0
0
0
0
0
0
0
0
0
0
0
0
0
0
0
0
0
0
0
0
0
0
0
0
0
0
0
0
0
0
0
0
0
0
0
0
0
0
0
0
0
0
0
0
0
0
0
0
0
0
0
0
0
0
0
0
0
0
0
0
0
0
0
0
0
0
0
0
0
0
0
0
0
0
0
0
0
0
0
0
0
0
0
0
0
0
0
0
0
0
0
0
0
0
0
0
0
0
0
0
0
0
0
0
0
0
0
0
0
0
0
0
0
0
0
0
0
0
0
0
0
0
0
0
0
0
0
0
0
0
0
0
0
0
0
0
0
0
0
0
0
0
0
0
0
0
0
0
0
0
0
0
0
0
0
0
0
0
0
0
0
0
0
0
0
0
0
0
0
0
0
0
0
0
0
0
0
0
0
0
0
0
0
0
0
0
0
0
0
0
0
0
0
0
0
0
0
0
0
0
0
0
0
0
0
0
0
0
0
0
0
0
0
0
0
0
0
0
0
0
0
0
0
0
0
0
0
0
0
0
0
0
0
0
0
0
0
0
0
0
0
0
0
0
0
0
0
0
0
0
0
0
0
0
0
0
0
0
0
0
0
0
0
0
0
0
0
0
0
0
0
0
0
0
0
0
0
0
0
0
0
0
0
0
0
0
0
0
0
0
0
0
0
0
0
0
0
0
0
0
0
0
0
0
0
0
0
0
0
0
0
0
0
0
0
0
0
0
0
0
0
0
0
0
0
0
0
0
0
0
0
0
0
0
0
0
0
0
0
0
0
0
0
0
0
0
0
0
0
0
0
0
0
0
0
0
0
0
0
0
0
0
0
0
0
0
0
0
0
0
0
0
0
0
0
0
0
0
0
0
0
0
0
0
0
0
0
0
0
0
0
0
0
0
0
0
0
0
0
0
0
0
0
0
0
0
0
0
0
0
0
0
0
0
0
0
0
0
0
0
0
0
0
0
0
0
0
0
0
0
0
0
0
0
0
0
0
0
0
0
0
0
0
0
0
0
0
0
0
0
0
0
0
0
0
0
0
0
0
0
0
0
0
0
0
0
0
0
0
0
0
0
0
0
0
0
0
0
0
0
0
0
0
0
0
0
0
0
0
0
0
0
0
0
0
0
0
0
0
0
0
0
0
0
0
0
0
0
0
0
0
0
0
0
0
0
0
0
0
0
0
0
0
0
0
0
0
0
0
0
0
0
0
0
0
0
0
0
0
0
0
0
0
0
0
0
0
0
0
0
0
0
0
0
0
0
0
0
0
0
0
0
0
0
0
0
0
0
0
0
0
0
0
0
0
0
0
0
0
0
0
0
0
0
0
0
0
0
0
0
0
0
0
0
0
0
0
0
0
0
0
0
0
0
0
0
0
0
0
0
0
0
0
0
0
0
0
0
0
0
0
0
0
0
0
0
0
0
0
0
0
0
0
0
0
0
0
0
0
0
0
0
0
0
0
0
0
0
0
0
0
0
0
0
0
0
0
0
0
0
0
0
0
0
0
0
0
0
0
0
0
0
0
0
0
0
0
0
0
0
0
0
0
0
0
0
0
0
0
0
0
0
0
0
0
0
0
0
0
0
0
0
0
0
0
0
0
0
0
0
0
0
0
0
0
0
0
0
0
0
0
0
0
0
0
0
0
0
0
0
0
0
0
0
0
0
0
0
0
0
0
0
0
0
0
0
0
0
0
0
0
0
0
0
0
0
0
0
0
0
0
0
0
0
0
0
0
0
0
0
0
0
0
0
0
0
0
0
0
0
0
0
0
0
0
0
0
0
0
0
0
0
0
0
0
0
0
0
0
0
0
0
0
0
0
0
0
0
0
0
0
0
0
0
0
0
0
0
0
0
0
0
0
0
0
0
0
0
0
0
0
0
0
0
0
0
0
0
0
0
0
0
0
0
0
0
0
0
0
0
0
0
0
0
0
0
0
0
0
0
0
0
0
0
0
0
0
0
0
0
0
0
0
0
0
0
0
0
0
0
0
0
0
0
0
0
0
0
0
0
0
0
0
0
0
0
0
0
0
0
0
0
0
0
0
0
0
0
1
1
1
1
1
1
1
1
1
1
1
1
1
1
1
1
1
1
1
1
1
1
1
1
1
1
1
1
1
1
2
2
2
2
2
2
2
2
2
2
2
2
2
2
2
2
2
2
2
2
2
2
2
2
2
2
2
2
2
2
3
3
3
3
3
3
3
3
3
3
3
3
3
3
3
3
3
3
3
3
3
3
3
3
3
3
3
3
3
3
4
4
4
4
4
4
4
4
4
4
4
4
4
4
4
4
4
4
4
4
4
4
4
4
4
4
4
4
4
4

LOOKUP_TABLE FreeFempp_table 5
1.00000000 0.00000000 0.00000000 1.00000000
1.00000000 1.00000000 0.00000000 1.00000000
1.00000000 0.00000000 1.00000000 1.00000000
0.00000000 1.00000000 0.00000000 1.00000000
0.00000000 1.00000000 1.00000000 1.00000000

POINT_DATA 961
FIELD FieldData 1
Density 1 961 float
3.06762103e-03 2.62971455e-03 2.73239263e-03 2.83966213e-03 2.94682942e-03 3.04787280e-03 3.14830546e-03 3.26847169e-03 3.39756859e-03 3.68949329e-03 4.73655295e-03 9.53952521e-02 4.28088903e-01 6.65927708e-01 7.01432168e-01 6.31527543e-01 4.82251823e-01 2.87174404e-01 1.19447529e-01 5.05481884e-02 3.65848094e-02 5.04235588e-02 9.46998224e-02 1.78524405e-01 2.84801483e-01 3.52356970e-01 3.17339867e-01 1.60539493e-01 5.12246741e-03 5.42801991e-03 1.15714155e-01 4.59286617e-03 2.23390060e-03 2.64036283e-03 2.74991035e-03 2.88351905e-03 3.00773466e-03 3.11200996e-03 3.19842645e-03 3.26182577e-03 3.19674890e-03 2.43399455e-03 2.63732113e-03 4.15657461e-03 1.43436357e-01 7.26983786e-01 7.75295615e-01 6.51839972e-01 3.43574077e-01 5.09785637e-02 1.51972435e-02 1.27553558e-02 1.43494839e-02 2.82047261e-02 9.77713391e-02 2.98493743e-01 4.73400980e-01 4.35770631e-01 2.25289822e-01 6.99051982e-03 2.64836242e-03 1.00924037e-02 2.71159448e-02 2.48844735e-02 6.31147474e-02 1.26080483e-01 1.55227646e-01 1.68739125e-01 1.76835030e-01 1.81727573e-01 1.77879930e-01 1.30510956e-01 2.92085391e-02 4.38734423e-03 3.01150931e-03 3.27334739e-03 5.27101383e-03 5.34897158e-03 5.86325582e-03 8.09128769e-03 1.07052512e-02 1.90324634e-02 5.04063815e-02 1.05206236e-01 1.79632872e-01 2.99149960e-01 4.52138782e-01 5.24538040e-01 4.81178075e-01 3.77596080e-01 1.82556927e-01 3.08429892e-03 4.35240008e-03 3.19255479e-02 2.58425307e-02 1.16584331e-01 2.03597352e-01 2.35127509e-01 2.53179461e-01 2.67703235e-01 2.78990328e-01 2.83884466e-01 2.74865627e-01 2.36775964e-01 1.54634684e-01 4.43895347e-02 4.40239627e-03 4.51304391e-03 4.38844692e-03 4.64032125e-03 4.12087841e-03 6.87952898e-03 1.69601068e-02 1.62802309e-01 4.44886386e-01 5.47964931e-01 5.88095605e-01 6.03592932e-01 5.76924324e-01 4.95472252e-01 3.87459874e-01 2.94244498e-01 3.81473801e-03 3.71244829e-03 4.79425713e-02 3.23574878e-02 1.44959867e-01 2.34933853e-01 2.67155707e-01 2.85040170e-01 2.96859533e-01 3.04096252e-01 3.05579960e-01 2.98637122e-01 2.79807895e-01 2.46505663e-01 1.96318537e-01 1.31343454e-01 7.60678276e-02 3.74958590e-02 1.63807757e-02 1.19705610e-02 3.01390961e-02 7.86072463e-02 3.04948002e-01 5.02858102e-01 5.67598283e-01 5.77226281e-01 5.64991534e-01 5.34018338e-01 4.78694379e-01 3.99340302e-01 3.20741504e-01 4.24881000e-03 3.90886515e-03 9.13541690e-02 4.66596000e-02 1.94111720e-01 2.75438458e-01 3.06521714e-01 3.22796375e-01 3.31498951e-01 3.35713863e-01 3.36039931e-01 3.31651717e-01 3.21253240e-01 3.04103523e-01 2.79965371e-01 2.48749778e-01 2.12171599e-01 1.70396745e-01 1.36866942e-01 1.17206536e-01 1.24086097e-01 2.04834446e-01 3.59126955e-01 4.82578218e-01 5.38106918e-01 5.52065909e-01 5.44949710e-01 5.22837877e-01 4.82526571e-01 4.16712999e-01 3.21836233e-01 4.71061049e-03 4.26644087e-03 1.75290614e-01 8.00339580e-02 3.05994391e-01 3.44892621e-01 3.66279453e-01 3.75133425e-01 3.78052622e-01 3.78163636e-01 3.76441836e-01 3.72519284e-01 3.65591258e-01 3.55211049e-01 3.41485858e-01 3.24708790e-01 3.04959178e-01 2.81379580e-01 2.58548141e-01 2.42341176e-01 2.47115284e-01 2.99978375e-01 3.87229234e-01 4.63305354e-01 5.08035779e-01 5.25984228e-01 5.25923371e-01 5.12688100e-01 4.85444784e-01 4.32151437e-01 3.15903217e-01 5.13763772e-03 4.64021461e-03 2.91602790e-01 1.58018321e-01 4.80350196e-01 4.40757036e-01 4.43748385e-01 4.38622355e-01 4.32184488e-01 4.25727189e-01 4.19449598e-01 4.12734300e-01 4.04790014e-01 3.95173997e-01 3.83913219e-01 3.71243060e-01 3.57271582e-01 3.42081487e-01 3.28056514e-01 3.19919497e-01 3.27398986e-01 3.61362219e-01 4.12275285e-01 4.59144652e-01 4.90928233e-01 5.06784260e-01 5.09662569e-01 5.02733827e-01 4.86267567e-01 4.44713086e-01 3.12473089e-01 5.57187293e-03 5.01753902e-03 4.02933270e-01 2.98578560e-01 6.33988142e-01 5.35663843e-01 5.19238234e-01 4.99186248e-01 4.82787341e-01 4.69001532e-01 4.57092285e-01 4.46169138e-01 4.35485989e-01 4.24667805e-01 4.13686812e-01 4.02684689e-01 3.91897619e-01 3.81983578e-01 3.74904424e-01 3.73976409e-01 3.83956224e-01 4.07397866e-01 4.37662929e-01 4.65052128e-01 4.84441966e-01 4.94756341e-01 4.96909350e-01 4.92855191e-01 4.83139127e-01 4.51197982e-01 3.13499957e-01 6.04966423e-03 5.41181304e-03 4.50785547e-01 4.21514720e-01 6.97583199e-01 5.92554331e-01 5.66448033e-01 5.39339244e-01 5.17687678e-01 4.99551713e-01 4.84033704e-01 4.70389366e-01 4.58124161e-01 4.47025448e-01 4.37045157e-01 4.28215504e-01 4.20800596e-01 4.15670961e-01 4.14412558e-01 4.18645412e-01 4.29222435e-01 4.44876462e-01 4.61372524e-01 4.74831641e-01 4.83737081e-01 4.87892956e-01 4.87613261e-01 4.83701020e-01 4.76047993e-01 4.49534416e-01 3.16662282e-01 6.57459022e-03 5.84016135e-03 3.81257325e-01 3.88313651e-01 6.46952927e-01 5.83168387e-01 5.67184329e-01 5.47352254e-01 5.29302478e-01 5.12846649e-01 4.98193145e-01 4.85356390e-01 4.74342704e-01 4.65173662e-01 4.57792699e-01 4.52130616e-01 4.48441952e-01 4.47618902e-01 4.50755060e-01 4.57886547e-01 4.67346758e-01 4.76415128e-01 4.82712001e-01 4.85608190e-01 4.85791951e-01 4.84022349e-01 4.80606854e-01 4.75292772e-01 4.66410100e-01 4.40065593e-01 3.14165443e-01 7.10315350e-03 6.31298451e-03 2.11451143e-01 2.06315547e-01 4.51323539e-01 4.93754148e-01 5.17672539e-01 5.21464705e-01 5.16645730e-01 5.08384526e-01 4.99487966e-01 4.91356671e-01 4.84712690e-01 4.79824752e-01 4.76583153e-01 4.74838227e-01 4.74846929e-01 4.77557689e-01 4.83710617e-01 4.92106050e-01 4.99685198e-01 5.03480852e-01 5.02393305e-01 4.97399539e-01 4.90263790e-01 4.82460767e-01 4.74781871e-01 4.66694683e-01 4.54891235e-01 4.23505485e-01 2.90521920e-01 7.58092012e-03 6.86083315e-03 8.40061679e-02 8.44766721e-02 2.18233779e-01 3.60545278e-01 4.37496990e-01 4.72392082e-01 4.85799760e-01 4.89480168e-01 4.89394516e-01 4.88552570e-01 4.88437444e-01 4.89483088e-01 4.91399020e-01 4.93865490e-01 4.97336864e-01 5.02543807e-01 5.10682166e-01 5.19832313e-01 5.26111722e-01 5.26836812e-01 5.21643341e-01 5.11896014e-01 4.99334097e-01 4.85475361e-01 4.71577704e-01 4.57709819e-01 4.39673722e-01 3.96349788e-01 2.36179143e-01 8.36361106e-03 7.63280271e-03 4.07021083e-02 4.68541682e-02 1.16160430e-01 2.67682999e-01 3.66964012e-01 4.20995057e-01 4.48587626e-01 4.63014275e-01 4.71574247e-01 4.78245288e-01 4.85024750e-01 4.92336094e-01 4.99509364e-01 5.05945385e-01 5.12546122e-01 5.19869328e-01 5.29031634e-01 5.39314389e-01 5.46009541e-01 5.46636522e-01 5.41226089e-01 5.30808687e-01 5.16289473e-01 4.98260409e-01 4.77293223e-01 4.53107685e-01 4.20528740e-01 3.54790986e-01 1.71679839e-01 1.04009416e-02 8.94015282e-03 2.33422723e-02 2.94258930e-02 9.85634401e-02 2.40123674e-01 3.30127239e-01 3.84169579e-01 4.16561931e-01 4.36883897e-01 4.51257110e-01 4.63559538e-01 4.75900203e-01 4.88586426e-01 5.00371695e-01 5.10220230e-01 5.20104527e-01 5.27254224e-01 5.39556921e-01 5.50230861e-01 5.59029698e-01 5.62316537e-01 5.60348153e-01 5.53690076e-01 5.42288184e-01 5.25355697e-01 5.01408815e-01 4.67063427e-01 4.13274556e-01 3.18190932e-01 1.32931277e-01 1.51256723e-02 1.16787460e-02 1.35003068e-02 1.74149629e-02 1.21554635e-01 2.51276225e-01 3.19996536e-01 3.64417046e-01 3.94643575e-01 4.16029394e-01 4.32773232e-01 4.48049784e-01 4.63773906e-01 4.80168551e-01 4.95660663e-01 5.08524001e-01 5.17994523e-01 5.26305854e-01 5.40003955e-01 5.53507924e-01 5.64503312e-01 5.72062016e-01 5.75879753e-01 5.76360166e-01 5.73026597e-01 5.64410508e-01 5.47467887e-01 5.15512049e-01 4.54246372e-01 3.42295229e-01 1.49825335e-01 2.36576647e-02 1.86469164e-02 9.70542897e-03 1.23290550e-02 1.68490618e-01 2.69464254e-01 3.19475889e-01 3.54915529e-01 3.81045043e-01 4.00967926e-01 4.17720348e-01 4.33803499e-01 4.50810730e-01 4.68909234e-01 4.86645460e-01 5.01833618e-01 5.15022755e-01 5.24772525e-01 5.38621366e-01 5.49678981e-01 5.61917126e-01 5.73178172e-01 5.83080232e-01 5.91765523e-01 5.98926544e-01 6.03520811e-01 6.02934182e-01 5.90848148e-01 5.53815544e-01 4.69390035e-01 2.98281252e-01 4.72965799e-02 4.17399928e-02 8.43932573e-03 1.12604862e-02 2.06794813e-01 2.82199204e-01 3.20478559e-01 3.49624246e-01 3.71930569e-01 3.89700621e-01 4.05421525e-01 4.21078563e-01 4.37913030e-01 4.56051081e-01 4.74303007e-01 4.90698397e-01 5.04209518e-01 5.16249597e-01 5.27572930e-01 5.38648546e-01 5.50783098e-01 5.63919544e-01 5.78110576e-01 5.93437254e-01 6.09929383e-01 6.27347112e-01 6.44325137e-01 6.56829596e-01 6.57557368e-01 6.34554982e-01 6.25932217e-01 1.86965212e-01 1.46985501e-01 7.74419401e-03 1.01027321e-02 2.19182178e-01 2.93916643e-01 3.23672950e-01 3.46426308e-01 3.64674479e-01 3.80071491e-01 3.94422948e-01 4.09117103e-01 4.24972504e-01 4.42031324e-01 4.59393859e-01 4.75518912e-01 4.89164084e-01 5.00481069e-01 5.10716200e-01 5.20544231e-01 5.31542778e-01 5.44650495e-01 5.60352027e-01 5.78943968e-01 6.00790620e-01 6.26259565e-01 6.54703617e-01 6.82962000e-01 7.06620097e-01 7.18186378e-01 8.21895659e-01 5.44349492e-01 4.39721048e-01 7.10140495e-03 8.72034486e-03 2.21008509e-01 3.09599221e-01 3.30780864e-01 3.45042646e-01 3.58131766e-01 3.70747924e-01 3.83562088e-01 3.97115201e-01 4.11679268e-01 4.27115738e-01 4.42732751e-01 4.57400173e-01 4.70075250e-01 4.80483472e-01 4.89299685e-01 4.97657061e-01 5.06986856e-01 5.18526316e-01 5.32987595e-01 5.50845265e-01 5.72716415e-01 5.99326253e-01 6.30242527e-01 6.61803842e-01 6.88656390e-01 7.03651190e-01 8.38363290e-01 5.61868668e-01 6.14156485e-01 6.44518342e-03 7.57657876e-03 2.26647019e-01 3.29411596e-01 3.41221780e-01 3.45045656e-01 3.51748198e-01 3.61081690e-01 3.72227311e-01 3.84647101e-01 3.97963911e-01 4.11776870e-01 4.25495297e-01 4.38325047e-01 4.49517757e-01 4.58771855e-01 4.66449201e-01 4.73432153e-01 4.80887324e-01 4.89839464e-01 5.00942886e-01 5.14647901e-01 5.31549037e-01 5.52400529e-01 5.76704383e-01 5.99608839e-01 6.11835241e-01 6.05611622e-01 7.09801257e-01 2.52321690e-01 5.09246349e-01 5.82977245e-03 6.59889309e-03 2.40281969e-01 3.51218015e-01 3.52643669e-01 3.45096767e-01 3.44811678e-01 3.50674778e-01 3.60179782e-01 3.71605039e-01 3.83910745e-01 3.96419555e-01 4.08565551e-01 4.19782460e-01 4.29574966e-01 4.37712729e-01 4.44369525e-01 4.50078517e-01 4.55562741e-01 4.61459786e-01 4.68146533e-01 4.75817621e-01 4.84754533e-01 4.95448560e-01 5.07371306e-01 5.15056729e-01 5.05214751e-01 4.66304600e-01 4.41382557e-01 9.93069336e-02 2.65762836e-01 5.28041087e-03 5.78095112e-03 2.62520373e-01 3.71443987e-01 3.61649364e-01 3.43038082e-01 3.36334258e-01 3.39220852e-01 3.47405404e-01 3.58061582e-01 3.69601756e-01 3.81141365e-01 3.92122358e-01 4.02115166e-01 4.10780996e-01 4.17937338e-01 4.23620701e-01 4.28063452e-01 4.31588173e-01 4.34443772e-01 4.36684072e-01 4.38189596e-01 4.38886404e-01 4.39073414e-01 4.38875735e-01 4.34783727e-01 4.15171117e-01 3.66167724e-01 2.70732880e-01 6.20326735e-02 1.12911031e-01 4.77287685e-03 5.14613371e-03 2.91080177e-01 3.84793967e-01 3.64064217e-01 3.36588889e-01 3.25559556e-01 3.26744348e-01 3.34186614e-01 3.44278127e-01 3.55139345e-01 3.65823269e-01 3.75819653e-01 3.84794325e-01 3.92493904e-01 3.98747265e-01 4.03485268e-01 4.06721979e-01 4.08489048e-01 4.08741474e-01 4.07288611e-01 4.03814763e-01 3.98094594e-01 3.90543133e-01 3.82561713e-01 3.74565184e-01 3.61048132e-01 3.28549653e-01 2.34460711e-01 4.55425084e-02 6.75647110e-02 4.20871982e-03 4.63751238e-03 3.20440710e-01 3.86134684e-01 3.56335729e-01 3.24695945e-01 3.12835723e-01 3.14051688e-01 3.21311057e-01 3.30812126e-01 3.40760529e-01 3.50345939e-01 3.59181345e-01 3.67027491e-01 3.73687923e-01 3.78993094e-01 3.82805288e-01 3.85002643e-01 3.85435104e-01 3.83872062e-01 3.79985183e-01 3.73411179e-01 3.63985419e-01 3.52384031e-01 3.41064662e-01 3.33796591e-01 3.31498712e-01 3.22168559e-01 2.44340673e-01 3.33392583e-02 5.01252376e-02 3.37161729e-03 4.00680350e-03 3.48167896e-01 3.74142587e-01 3.38309914e-01 3.09134752e-01 3.00363332e-01 3.03044826e-01 3.10164183e-01 3.18514466e-01 3.26836228e-01 3.34669590e-01 3.41822267e-01 3.48151356e-01 3.53500575e-01 3.57702076e-01 3.60586375e-01 3.61971378e-01 3.61628920e-01 3.59252065e-01 3.54468703e-01 3.46946567e-01 3.36631238e-01 3.24301690e-01 3.12668651e-01 3.06928545e-01 3.12341630e-01 3.21313679e-01 2.63594091e-01 2.33385134e-02 3.66827585e-02 2.74927542e-03 3.29508330e-03 3.90449971e-01 3.55736405e-01 3.16173345e-01 2.95326948e-01 2.92242438e-01 2.96472102e-01 3.02344769e-01 3.08152646e-01 3.13604653e-01 3.18719894e-01 3.23487520e-01 3.27807099e-01 3.31516325e-01 3.34431052e-01 3.36368412e-01 3.37143570e-01 3.36546183e-01 3.34316373e-01 3.30161542e-01 3.23857546e-01 3.15426975e-01 3.05397063e-01 2.95638293e-01 2.91110814e-01 2.99961150e-01 3.23649049e-01 3.15909743e-01 1.58580169e-02 2.59163156e-02 2.69751740e-03 9.69821028e-03 5.14985442e-01 3.60808492e-01 3.04839760e-01 2.91576087e-01 2.93061197e-01 2.96345174e-01 2.98301160e-01 2.99503177e-01 3.00728709e-01 3.02300066e-01 3.04193169e-01 3.06213975e-01 3.08116406e-01 3.09664220e-01 3.10655922e-01 3.10926288e-01 3.10337573e-01 3.08776081e-01 3.06180298e-01 3.02630812e-01 2.98454702e-01 2.94043928e-01 2.89426237e-01 2.87069976e-01 3.02325487e-01 3.67308140e-01 5.08158267e-01 1.14152953e-02 1.84901506e-02 2.14508316e-03 3.16960807e-03 6.70027971e-01 4.71116871e-01 3.28713268e-01 3.03975940e-01 3.02149028e-01 2.99570024e-01 2.94955462e-01 2.90536135e-01 2.87379265e-01 2.85585225e-01 2.84859419e-01 2.84815699e-01 2.85095870e-01 2.85405636e-01 2.85519183e-01 2.85276949e-01 2.84591407e-01 2.83474743e-01 2.82106876e-01 2.80971140e-01 2.81069994e-01 2.83991903e-01 2.90946364e-01 3.02745104e-01 3.53176087e-01 5.59597611e-01 6.08227491e-01 9.04889591e-03 1.50453020e-02 1.87250215e-03 2.33438448e-03 8.68364751e-01 6.67708218e-01 3.79748434e-01 3.11052084e-01 3.02212954e-01 2.95275837e-01 2.87038207e-01 2.79869854e-01 2.74592847e-01 2.71063417e-01 2.68852502e-01 2.67520159e-01 2.66693145e-01 2.66071677e-01 2.65416682e-01 2.64539987e-01 2.63311923e-01 2.61698753e-01 2.59841859e-01 2.58195639e-01 2.57820189e-01 2.61300355e-01 2.76091278e-01 3.27358395e-01 4.99337375e-01 6.81619704e-01 7.81248510e-01 7.01440452e-03 1.58757493e-02 7.75630586e-03 5.05887391e-03 8.99744451e-01 2.72198021e-01 3.39096546e-01 3.22645366e-01 3.27436328e-01 3.29249680e-01 3.27519506e-01 3.24604332e-01 3.21860433e-01 3.19716662e-01 3.18178654e-01 3.17109555e-01 3.16343963e-01 3.15723777e-01 3.15102786e-01 3.14343005e-01 3.13316315e-01 3.11924547e-01 3.10149133e-01 3.08135480e-01 3.06319714e-01 3.05735588e-01 3.09161425e-01 3.24148178e-01 3.69310051e-01 5.01320541e-01 8.08071494e-01 1.63247790e-02 1.18044093e-02 
