# vtk DataFile Version 2.0
results_case1_non_linear/iter6.vtk, Created by Freefem++ 
ASCII
DATASET UNSTRUCTURED_GRID
POINTS 961 float
0 0 0
0.033333333 0 0
0.066666667 0 0
0.1 0 0
0.13333333 0 0
0.16666667 0 0
0.2 0 0
0.23333333 0 0
0.26666667 0 0
0.3 0 0
0.33333333 0 0
0.36666667 0 0
0.4 0 0
0.43333333 0 0
0.46666667 0 0
0.5 0 0
0.53333333 0 0
0.56666667 0 0
0.6 0 0
0.63333333 0 0
0.66666667 0 0
0.7 0 0
0.73333333 0 0
0.76666667 0 0
0.8 0 0
0.83333333 0 0
0.86666667 0 0
0.9 0 0
0.93333333 0 0
0.96666667 0 0
1 0 0
0 0.033333333 0
0.033333333 0.033333333 0
0.066666667 0.033333333 0
0.1 0.033333333 0
0.13333333 0.033333333 0
0.16666667 0.033333333 0
0.2 0.033333333 0
0.23333333 0.033333333 0
0.26666667 0.033333333 0
0.3 0.033333333 0
0.33333333 0.033333333 0
0.36666667 0.033333333 0
0.4 0.033333333 0
0.43333333 0.033333333 0
0.46666667 0.033333333 0
0.5 0.033333333 0
0.53333333 0.033333333 0
0.56666667 0.033333333 0
0.6 0.033333333 0
0.63333333 0.033333333 0
0.66666667 0.033333333 0
0.7 0.033333333 0
0.73333333 0.033333333 0
0.76666667 0.033333333 0
0.8 0.033333333 0
0.83333333 0.033333333 0
0.86666667 0.033333333 0
0.9 0.033333333 0
0.93333333 0.033333333 0
0.96666667 0.033333333 0
1 0.033333333 0
0 0.066666667 0
0.033333333 0.066666667 0
0.066666667 0.066666667 0
0.1 0.066666667 0
0.13333333 0.066666667 0
0.16666667 0.066666667 0
0.2 0.066666667 0
0.23333333 0.066666667 0
0.26666667 0.066666667 0
0.3 0.066666667 0
0.33333333 0.066666667 0
0.36666667 0.066666667 0
0.4 0.066666667 0
0.43333333 0.066666667 0
0.46666667 0.066666667 0
0.5 0.066666667 0
0.53333333 0.066666667 0
0.56666667 0.066666667 0
0.6 0.066666667 0
0.63333333 0.066666667 0
0.66666667 0.066666667 0
0.7 0.066666667 0
0.73333333 0.066666667 0
0.76666667 0.066666667 0
0.8 0.066666667 0
0.83333333 0.066666667 0
0.86666667 0.066666667 0
0.9 0.066666667 0
0.93333333 0.066666667 0
0.96666667 0.066666667 0
1 0.066666667 0
0 0.1 0
0.033333333 0.1 0
0.066666667 0.1 0
0.1 0.1 0
0.13333333 0.1 0
0.16666667 0.1 0
0.2 0.1 0
0.23333333 0.1 0
0.26666667 0.1 0
0.3 0.1 0
0.33333333 0.1 0
0.36666667 0.1 0
0.4 0.1 0
0.43333333 0.1 0
0.46666667 0.1 0
0.5 0.1 0
0.53333333 0.1 0
0.56666667 0.1 0
0.6 0.1 0
0.63333333 0.1 0
0.66666667 0.1 0
0.7 0.1 0
0.73333333 0.1 0
0.76666667 0.1 0
0.8 0.1 0
0.83333333 0.1 0
0.86666667 0.1 0
0.9 0.1 0
0.93333333 0.1 0
0.96666667 0.1 0
1 0.1 0
0 0.13333333 0
0.033333333 0.13333333 0
0.066666667 0.13333333 0
0.1 0.13333333 0
0.13333333 0.13333333 0
0.16666667 0.13333333 0
0.2 0.13333333 0
0.23333333 0.13333333 0
0.26666667 0.13333333 0
0.3 0.13333333 0
0.33333333 0.13333333 0
0.36666667 0.13333333 0
0.4 0.13333333 0
0.43333333 0.13333333 0
0.46666667 0.13333333 0
0.5 0.13333333 0
0.53333333 0.13333333 0
0.56666667 0.13333333 0
0.6 0.13333333 0
0.63333333 0.13333333 0
0.66666667 0.13333333 0
0.7 0.13333333 0
0.73333333 0.13333333 0
0.76666667 0.13333333 0
0.8 0.13333333 0
0.83333333 0.13333333 0
0.86666667 0.13333333 0
0.9 0.13333333 0
0.93333333 0.13333333 0
0.96666667 0.13333333 0
1 0.13333333 0
0 0.16666667 0
0.033333333 0.16666667 0
0.066666667 0.16666667 0
0.1 0.16666667 0
0.13333333 0.16666667 0
0.16666667 0.16666667 0
0.2 0.16666667 0
0.23333333 0.16666667 0
0.26666667 0.16666667 0
0.3 0.16666667 0
0.33333333 0.16666667 0
0.36666667 0.16666667 0
0.4 0.16666667 0
0.43333333 0.16666667 0
0.46666667 0.16666667 0
0.5 0.16666667 0
0.53333333 0.16666667 0
0.56666667 0.16666667 0
0.6 0.16666667 0
0.63333333 0.16666667 0
0.66666667 0.16666667 0
0.7 0.16666667 0
0.73333333 0.16666667 0
0.76666667 0.16666667 0
0.8 0.16666667 0
0.83333333 0.16666667 0
0.86666667 0.16666667 0
0.9 0.16666667 0
0.93333333 0.16666667 0
0.96666667 0.16666667 0
1 0.16666667 0
0 0.2 0
0.033333333 0.2 0
0.066666667 0.2 0
0.1 0.2 0
0.13333333 0.2 0
0.16666667 0.2 0
0.2 0.2 0
0.23333333 0.2 0
0.26666667 0.2 0
0.3 0.2 0
0.33333333 0.2 0
0.36666667 0.2 0
0.4 0.2 0
0.43333333 0.2 0
0.46666667 0.2 0
0.5 0.2 0
0.53333333 0.2 0
0.56666667 0.2 0
0.6 0.2 0
0.63333333 0.2 0
0.66666667 0.2 0
0.7 0.2 0
0.73333333 0.2 0
0.76666667 0.2 0
0.8 0.2 0
0.83333333 0.2 0
0.86666667 0.2 0
0.9 0.2 0
0.93333333 0.2 0
0.96666667 0.2 0
1 0.2 0
0 0.23333333 0
0.033333333 0.23333333 0
0.066666667 0.23333333 0
0.1 0.23333333 0
0.13333333 0.23333333 0
0.16666667 0.23333333 0
0.2 0.23333333 0
0.23333333 0.23333333 0
0.26666667 0.23333333 0
0.3 0.23333333 0
0.33333333 0.23333333 0
0.36666667 0.23333333 0
0.4 0.23333333 0
0.43333333 0.23333333 0
0.46666667 0.23333333 0
0.5 0.23333333 0
0.53333333 0.23333333 0
0.56666667 0.23333333 0
0.6 0.23333333 0
0.63333333 0.23333333 0
0.66666667 0.23333333 0
0.7 0.23333333 0
0.73333333 0.23333333 0
0.76666667 0.23333333 0
0.8 0.23333333 0
0.83333333 0.23333333 0
0.86666667 0.23333333 0
0.9 0.23333333 0
0.93333333 0.23333333 0
0.96666667 0.23333333 0
1 0.23333333 0
0 0.26666667 0
0.033333333 0.26666667 0
0.066666667 0.26666667 0
0.1 0.26666667 0
0.13333333 0.26666667 0
0.16666667 0.26666667 0
0.2 0.26666667 0
0.23333333 0.26666667 0
0.26666667 0.26666667 0
0.3 0.26666667 0
0.33333333 0.26666667 0
0.36666667 0.26666667 0
0.4 0.26666667 0
0.43333333 0.26666667 0
0.46666667 0.26666667 0
0.5 0.26666667 0
0.53333333 0.26666667 0
0.56666667 0.26666667 0
0.6 0.26666667 0
0.63333333 0.26666667 0
0.66666667 0.26666667 0
0.7 0.26666667 0
0.73333333 0.26666667 0
0.76666667 0.26666667 0
0.8 0.26666667 0
0.83333333 0.26666667 0
0.86666667 0.26666667 0
0.9 0.26666667 0
0.93333333 0.26666667 0
0.96666667 0.26666667 0
1 0.26666667 0
0 0.3 0
0.033333333 0.3 0
0.066666667 0.3 0
0.1 0.3 0
0.13333333 0.3 0
0.16666667 0.3 0
0.2 0.3 0
0.23333333 0.3 0
0.26666667 0.3 0
0.3 0.3 0
0.33333333 0.3 0
0.36666667 0.3 0
0.4 0.3 0
0.43333333 0.3 0
0.46666667 0.3 0
0.5 0.3 0
0.53333333 0.3 0
0.56666667 0.3 0
0.6 0.3 0
0.63333333 0.3 0
0.66666667 0.3 0
0.7 0.3 0
0.73333333 0.3 0
0.76666667 0.3 0
0.8 0.3 0
0.83333333 0.3 0
0.86666667 0.3 0
0.9 0.3 0
0.93333333 0.3 0
0.96666667 0.3 0
1 0.3 0
0 0.33333333 0
0.033333333 0.33333333 0
0.066666667 0.33333333 0
0.1 0.33333333 0
0.13333333 0.33333333 0
0.16666667 0.33333333 0
0.2 0.33333333 0
0.23333333 0.33333333 0
0.26666667 0.33333333 0
0.3 0.33333333 0
0.33333333 0.33333333 0
0.36666667 0.33333333 0
0.4 0.33333333 0
0.43333333 0.33333333 0
0.46666667 0.33333333 0
0.5 0.33333333 0
0.53333333 0.33333333 0
0.56666667 0.33333333 0
0.6 0.33333333 0
0.63333333 0.33333333 0
0.66666667 0.33333333 0
0.7 0.33333333 0
0.73333333 0.33333333 0
0.76666667 0.33333333 0
0.8 0.33333333 0
0.83333333 0.33333333 0
0.86666667 0.33333333 0
0.9 0.33333333 0
0.93333333 0.33333333 0
0.96666667 0.33333333 0
1 0.33333333 0
0 0.36666667 0
0.033333333 0.36666667 0
0.066666667 0.36666667 0
0.1 0.36666667 0
0.13333333 0.36666667 0
0.16666667 0.36666667 0
0.2 0.36666667 0
0.23333333 0.36666667 0
0.26666667 0.36666667 0
0.3 0.36666667 0
0.33333333 0.36666667 0
0.36666667 0.36666667 0
0.4 0.36666667 0
0.43333333 0.36666667 0
0.46666667 0.36666667 0
0.5 0.36666667 0
0.53333333 0.36666667 0
0.56666667 0.36666667 0
0.6 0.36666667 0
0.63333333 0.36666667 0
0.66666667 0.36666667 0
0.7 0.36666667 0
0.73333333 0.36666667 0
0.76666667 0.36666667 0
0.8 0.36666667 0
0.83333333 0.36666667 0
0.86666667 0.36666667 0
0.9 0.36666667 0
0.93333333 0.36666667 0
0.96666667 0.36666667 0
1 0.36666667 0
0 0.4 0
0.033333333 0.4 0
0.066666667 0.4 0
0.1 0.4 0
0.13333333 0.4 0
0.16666667 0.4 0
0.2 0.4 0
0.23333333 0.4 0
0.26666667 0.4 0
0.3 0.4 0
0.33333333 0.4 0
0.36666667 0.4 0
0.4 0.4 0
0.43333333 0.4 0
0.46666667 0.4 0
0.5 0.4 0
0.53333333 0.4 0
0.56666667 0.4 0
0.6 0.4 0
0.63333333 0.4 0
0.66666667 0.4 0
0.7 0.4 0
0.73333333 0.4 0
0.76666667 0.4 0
0.8 0.4 0
0.83333333 0.4 0
0.86666667 0.4 0
0.9 0.4 0
0.93333333 0.4 0
0.96666667 0.4 0
1 0.4 0
0 0.43333333 0
0.033333333 0.43333333 0
0.066666667 0.43333333 0
0.1 0.43333333 0
0.13333333 0.43333333 0
0.16666667 0.43333333 0
0.2 0.43333333 0
0.23333333 0.43333333 0
0.26666667 0.43333333 0
0.3 0.43333333 0
0.33333333 0.43333333 0
0.36666667 0.43333333 0
0.4 0.43333333 0
0.43333333 0.43333333 0
0.46666667 0.43333333 0
0.5 0.43333333 0
0.53333333 0.43333333 0
0.56666667 0.43333333 0
0.6 0.43333333 0
0.63333333 0.43333333 0
0.66666667 0.43333333 0
0.7 0.43333333 0
0.73333333 0.43333333 0
0.76666667 0.43333333 0
0.8 0.43333333 0
0.83333333 0.43333333 0
0.86666667 0.43333333 0
0.9 0.43333333 0
0.93333333 0.43333333 0
0.96666667 0.43333333 0
1 0.43333333 0
0 0.46666667 0
0.033333333 0.46666667 0
0.066666667 0.46666667 0
0.1 0.46666667 0
0.13333333 0.46666667 0
0.16666667 0.46666667 0
0.2 0.46666667 0
0.23333333 0.46666667 0
0.26666667 0.46666667 0
0.3 0.46666667 0
0.33333333 0.46666667 0
0.36666667 0.46666667 0
0.4 0.46666667 0
0.43333333 0.46666667 0
0.46666667 0.46666667 0
0.5 0.46666667 0
0.53333333 0.46666667 0
0.56666667 0.46666667 0
0.6 0.46666667 0
0.63333333 0.46666667 0
0.66666667 0.46666667 0
0.7 0.46666667 0
0.73333333 0.46666667 0
0.76666667 0.46666667 0
0.8 0.46666667 0
0.83333333 0.46666667 0
0.86666667 0.46666667 0
0.9 0.46666667 0
0.93333333 0.46666667 0
0.96666667 0.46666667 0
1 0.46666667 0
0 0.5 0
0.033333333 0.5 0
0.066666667 0.5 0
0.1 0.5 0
0.13333333 0.5 0
0.16666667 0.5 0
0.2 0.5 0
0.23333333 0.5 0
0.26666667 0.5 0
0.3 0.5 0
0.33333333 0.5 0
0.36666667 0.5 0
0.4 0.5 0
0.43333333 0.5 0
0.46666667 0.5 0
0.5 0.5 0
0.53333333 0.5 0
0.56666667 0.5 0
0.6 0.5 0
0.63333333 0.5 0
0.66666667 0.5 0
0.7 0.5 0
0.73333333 0.5 0
0.76666667 0.5 0
0.8 0.5 0
0.83333333 0.5 0
0.86666667 0.5 0
0.9 0.5 0
0.93333333 0.5 0
0.96666667 0.5 0
1 0.5 0
0 0.53333333 0
0.033333333 0.53333333 0
0.066666667 0.53333333 0
0.1 0.53333333 0
0.13333333 0.53333333 0
0.16666667 0.53333333 0
0.2 0.53333333 0
0.23333333 0.53333333 0
0.26666667 0.53333333 0
0.3 0.53333333 0
0.33333333 0.53333333 0
0.36666667 0.53333333 0
0.4 0.53333333 0
0.43333333 0.53333333 0
0.46666667 0.53333333 0
0.5 0.53333333 0
0.53333333 0.53333333 0
0.56666667 0.53333333 0
0.6 0.53333333 0
0.63333333 0.53333333 0
0.66666667 0.53333333 0
0.7 0.53333333 0
0.73333333 0.53333333 0
0.76666667 0.53333333 0
[...]
CELL_DATA 1920
Scalars  Label int 1
LOOKUP_TABLE FreeFempp_table
0
0
0
0
0
0
0
0
0
0
0
0
0
0
0
0
0
0
0
0
0
0
0
0
0
0
0
0
0
0
0
0
0
0
0
0
0
0
0
0
0
0
0
0
0
0
0
0
0
0
0
0
0
0
0
0
0
0
0
0
0
0
0
0
0
0
0
0
0
0
0
0
0
0
0
0
0
0
0
0
0
0
0
0
0
0
0
0
0
0
0
0
0
0
0
0
0
0
0
0
0
0
0
0
0
0
0
0
0
0
0
0
0
0
0
0
0
0
0
0
0
0
0
0
0
0
0
0
0
0
0
0
0
0
0
0
0
0
0
0
0
0
0
0
0
0
0
0
0
0
0
0
0
0
0
0
0
0
0
0
0
0
0
0
0
0
0
0
0
0
0
0
0
0
0
0
0
0
0
0
0
0
0
0
0
0
0
0
0
0
0
0
0
0
0
0
0
0
0
0
0
0
0
0
0
0
0
0
0
0
0
0
0
0
0
0
0
0
0
0
0
0
0
0
0
0
0
0
0
0
0
0
0
0
0
0
0
0
0
0
0
0
0
0
0
0
0
0
0
0
0
0
0
0
0
0
0
0
0
0
0
0
0
0
0
0
0
0
0
0
0
0
0
0
0
0
0
0
0
0
0
0
0
0
0
0
0
0
0
0
0
0
0
0
0
0
0
0
0
0
0
0
0
0
0
0
0
0
0
0
0
0
0
0
0
0
0
0
0
0
0
0
0
0
0
0
0
0
0
0
0
0
0
0
0
0
0
0
0
0
0
0
0
0
0
0
0
0
0
0
0
0
0
0
0
0
0
0
0
0
0
0
0
0
0
0
0
0
0
0
0
0
0
0
0
0
0
0
0
0
0
0
0
0
0
0
0
0
0
0
0
0
0
0
0
0
0
0
0
0
0
0
0
0
0
0
0
0
0
0
0
0
0
0
0
0
0
0
0
0
0
0
0
0
0
0
0
0
0
0
0
0
0
0
0
0
0
0
0
0
0
0
0
0
0
0
0
0
0
0
0
0
0
0
0
0
0
0
0
0
0
0
0
0
0
0
0
0
0
0
0
0
0
0
0
0
0
0
0
0
0
0
0
0
0
0
0
0
0
0
0
0
0
0
0
0
0
0
0
0
0
0
0
0
0
0
0
0
0
0
0
0
0
0
0
0
0
0
0
0
0
0
0
0
0
0
0
0
0
0
0
0
0
0
0
0
0
0
0
0
0
0
0
0
0
0
0
0
0
0
0
0
0
0
0
0
0
0
0
0
0
0
0
0
0
0
0
0
0
0
0
0
0
0
0
0
0
0
0
0
0
0
0
0
0
0
0
0
0
0
0
0
0
0
0
0
0
0
0
0
0
0
0
0
0
0
0
0
0
0
0
0
0
0
0
0
0
0
0
0
0
0
0
0
0
0
0
0
0
0
0
0
0
0
0
0
0
0
0
0
0
0
0
0
0
0
0
0
0
0
0
0
0
0
0
0
0
0
0
0
0
0
0
0
0
0
0
0
0
0
0
0
0
0
0
0
0
0
0
0
0
0
0
0
0
0
0
0
0
0
0
0
0
0
0
0
0
0
0
0
0
0
0
0
0
0
0
0
0
0
0
0
0
0
0
0
0
0
0
0
0
0
0
0
0
0
0
0
0
0
0
0
0
0
0
0
0
0
0
0
0
0
0
0
0
0
0
0
0
0
0
0
0
0
0
0
0
0
0
0
0
0
0
0
0
0
0
0
0
0
0
0
0
0
0
0
0
0
0
0
0
0
0
0
0
0
0
0
0
0
0
0
0
0
0
0
0
0
0
0
0
0
0
0
0
0
0
0
0
0
0
0
0
0
0
0
0
0
0
0
0
0
0
0
0
0
0
0
0
0
0
0
0
0
0
0
0
0
0
0
0
0
0
0
0
0
0
0
0
0
0
0
0
0
0
0
0
0
0
0
0
0
0
0
0
0
0
0
0
0
0
0
0
0
0
0
0
0
0
0
0
0
0
0
0
0
0
0
0
0
0
0
0
0
0
0
0
0
0
0
0
0
0
0
0
0
0
0
0
0
0
0
0
0
0
0
0
0
0
0
0
0
0
0
0
0
0
0
0
0
0
0
0
0
0
0
0
0
0
0
0
0
0
0
0
0
0
0
0
0
0
0
0
0
0
0
0
0
0
0
0
0
0
0
0
0
0
0
0
0
0
0
0
0
0
0
0
0
0
0
0
0
0
0
0
0
0
0
0
0
0
0
0
0
0
0
0
0
0
0
0
0
0
0
0
0
0
0
0
0
0
0
0
0
0
0
0
0
0
0
0
0
0
0
0
0
0
0
0
0
0
0
0
0
0
0
0
0
0
0
0
0
0
0
0
0
0
0
0
0
0
0
0
0
0
0
0
0
0
0
0
0
0
0
0
0
0
0
0
0
0
0
0
0
0
0
0
0
0
0
0
0
0
0
0
0
0
0
0
0
0
0
0
0
0
0
0
0
0
0
0
0
0
0
0
0
0
0
0
0
0
0
0
0
0
0
0
0
0
0
0
0
0
0
0
0
0
0
0
0
0
0
0
0
0
0
0
0
0
0
0
0
0
0
0
0
0
0
0
0
0
0
0
0
0
0
0
0
0
0
0
0
0
0
0
0
0
0
0
0
0
0
0
0
0
0
0
0
0
0
0
0
0
0
0
0
0
0
0
0
0
0
0
0
0
0
0
0
0
0
0
0
0
0
0
0
0
0
0
0
0
0
0
0
0
0
0
0
0
0
0
0
0
0
0
0
0
0
0
0
0
0
0
0
0
0
0
0
0
0
0
0
0
0
0
0
0
0
0
0
0
0
0
0
0
0
0
0
0
0
0
0
0
0
0
0
0
0
0
0
0
0
0
0
0
0
0
0
0
0
0
0
0
0
0
0
0
0
0
0
0
0
0
0
0
0
0
0
0
0
0
0
0
0
0
0
0
0
0
0
0
0
0
0
0
0
0
0
0
0
0
0
0
0
0
0
0
0
0
0
0
0
0
0
0
0
0
0
0
0
0
0
0
0
0
0
0
0
0
0
0
0
0
0
0
0
0
0
0
0
0
0
0
0
0
0
0
0
0
0
0
0
0
0
0
0
0
0
0
0
0
0
0
0
0
0
0
0
0
0
0
0
0
0
0
0
0
0
0
0
0
0
0
0
0
0
0
0
0
0
0
0
0
0
0
0
0
0
0
0
0
0
0
0
0
0
0
0
0
0
0
0
0
0
0
0
0
0
0
0
0
0
0
0
0
0
0
0
0
0
0
0
0
0
0
0
0
0
0
0
0
0
0
0
0
0
0
0
0
0
0
0
0
0
0
0
0
0
0
0
0
0
0
0
0
0
0
0
0
0
0
0
0
0
0
0
0
0
0
0
0
0
0
0
0
0
0
0
0
0
0
0
0
0
0
0
0
0
0
0
0
0
0
0
0
0
0
0
0
0
0
0
0
0
0
0
0
0
0
0
0
0
0
0
0
0
0
0
0
0
0
0
0
0
0
0
0
0
0
0
0
0
0
0
0
0
0
0
0
0
0
0
0
0
0
0
0
0
0
0
0
0
0
0
0
0
0
0
0
0
0
0
0
0
0
0
0
0
0
0
0
0
0
0
0
0
0
0
0
0
0
0
0
0
0
0
0
0
0
0
0
0
0
0
0
0
0
0
0
0
0
0
0
0
0
0
0
0
0
0
0
0
0
0
0
0
0
0
0
0
0
0
0
0
0
0
0
0
0
0
0
0
0
0
0
0
0
0
0
0
0
0
0
0
0
0
0
0
0
0
0
0
0
0
0
0
0
0
0
0
0
0
0
0
0
0
0
0
0
0
0
0
0
0
0
0
0
0
0
0
0
0
0
0
0
0
0
0
0
0
0
0
0
0
0
0
0
0
0
0
0
0
0
0
0
0
0
0
0
0
0
0
0
0
0
0
0
0
0
0
0
0
0
0
0
0
0
0
0
0
0
0
0
0
0
0
0
0
0
0
0
0
0
0
0
0
0
0
0
0
0
0
0
0
0
0
0
0
0
0
0
0
0
0
0
0
0
0
0
0
1
1
1
1
1
1
1
1
1
1
1
1
1
1
1
1
1
1
1
1
1
1
1
1
1
1
1
1
1
1
2
2
2
2
2
2
2
2
2
2
2
2
2
2
2
2
2
2
2
2
2
2
2
2
2
2
2
2
2
2
3
3
3
3
3
3
3
3
3
3
3
3
3
3
3
3
3
3
3
3
3
3
3
3
3
3
3
3
3
3
4
4
4
4
4
4
4
4
4
4
4
4
4
4
4
4
4
4
4
4
4
4
4
4
4
4
4
4
4
4

LOOKUP_TABLE FreeFempp_table 5
1.00000000 0.00000000 0.00000000 1.00000000
1.00000000 1.00000000 0.00000000 1.00000000
1.00000000 0.00000000 1.00000000 1.00000000
0.00000000 1.00000000 0.00000000 1.00000000
0.00000000 1.00000000 1.00000000 1.00000000

POINT_DATA 961
FIELD FieldData 1
Density 1 961 float
5.55711150e-01 4.77976501e-01 5.21848142e-01 5.33683479e-01 5.36744714e-01 5.33798158e-01 5.29490113e-01 5.27258813e-01 5.29896617e-01 5.27887523e-01 4.93729204e-01 2.02302918e-01 2.82072055e-04 1.89978746e-04 3.81344144e-04 9.69218254e-01 9.81768250e-01 6.63590610e-01 8.06399822e-01 9.29825068e-01 8.83346677e-01 8.27029526e-01 7.62050807e-01 7.27227449e-01 7.05951273e-01 6.94831610e-01 6.88594282e-01 6.82612479e-01 6.78111196e-01 6.87754035e-01 6.75896645e-01 2.42625800e-04 3.78892495e-04 4.81585460e-03 3.35117787e-01 4.57941800e-01 4.64676231e-01 4.66927975e-01 4.53318328e-01 4.09563363e-01 3.42373759e-01 2.10419089e-01 2.88095735e-02 3.26789246e-04 1.62909622e-04 1.85211291e-04 7.63036013e-01 9.98419642e-01 1.02725420e-02 2.17757467e-03 9.57801998e-01 9.69236672e-01 9.36314881e-01 8.67551982e-01 8.11307430e-01 7.76161134e-01 7.43991375e-01 7.24010706e-01 7.06535161e-01 6.90204740e-01 6.97671533e-01 6.91431940e-01 1.05488311e-04 1.06989552e-04 1.10928857e-04 1.10965142e-04 1.10996814e-04 1.11054971e-04 1.10972607e-04 1.11587862e-04 1.12801979e-04 1.13601272e-04 1.14027345e-04 1.14384886e-04 1.14447001e-04 1.13978174e-04 1.11239598e-04 9.64314095e-04 9.99806523e-01 6.69683213e-04 3.44208849e-04 2.78903783e-04 3.05324502e-04 1.34512002e-03 7.91006267e-01 9.17555571e-01 7.15860963e-01 6.92925274e-01 6.71506047e-01 6.56322539e-01 6.40269637e-01 6.35194004e-01 6.68158710e-01 9.86993089e-02 1.00969737e-04 1.13896829e-04 1.11412206e-04 1.10983092e-04 1.11049667e-04 1.10919616e-04 1.11069450e-04 1.12054709e-04 1.13131704e-04 1.13647118e-04 1.13942086e-04 1.14148061e-04 1.14320334e-04 1.08288266e-04 1.08317647e-04 5.95457212e-04 9.99953866e-01 4.21810662e-04 3.21618805e-04 1.79029565e-04 1.48778287e-04 1.46436869e-04 1.63582183e-04 2.26563122e-02 6.05184197e-01 5.96615672e-01 5.91760159e-01 5.80411732e-01 5.72944283e-01 6.32016361e-01 4.12945986e-01 1.91360012e-01 1.75116375e-01 1.92852527e-01 2.21828222e-01 2.62200236e-01 3.11465293e-01 3.68505180e-01 4.45269644e-01 3.31607252e-01 2.59148628e-01 8.92097354e-02 2.08258871e-02 4.33542440e-03 2.82861787e-04 1.08806198e-04 1.09440763e-04 1.75793306e-04 9.99923050e-01 1.55493906e-02 1.15207920e-03 1.98750815e-04 1.45011349e-04 1.27155363e-04 1.23514561e-04 3.22475331e-04 2.60783702e-01 4.67156142e-01 4.96369243e-01 4.95424479e-01 6.02419853e-01 5.11352718e-01 3.15531284e-01 2.96888351e-01 2.95202821e-01 3.00159127e-01 3.16150039e-01 3.39335620e-01 3.64111036e-01 3.84259939e-01 3.99800986e-01 4.15903181e-01 4.09782410e-01 3.74970794e-01 3.35489690e-01 2.84352660e-01 1.66010723e-01 1.11357644e-04 1.12810536e-04 1.18725700e-04 9.99499381e-01 9.81629312e-01 9.75916862e-01 9.84506965e-01 3.30820883e-04 1.21137717e-04 1.20472578e-04 1.75500551e-04 8.89602974e-02 3.47324103e-01 3.86987805e-01 5.61976969e-01 6.30207062e-01 5.27342796e-01 5.12931824e-01 4.90965724e-01 4.73571986e-01 4.70477760e-01 4.82376933e-01 5.03455400e-01 5.25800526e-01 5.42336524e-01 5.55326939e-01 5.62069416e-01 5.48882008e-01 5.19111276e-01 4.77424681e-01 4.13595259e-01 3.23187768e-01 1.22016238e-04 1.13761656e-04 1.15024814e-04 9.84183967e-01 9.91522551e-01 9.89791393e-01 9.99465406e-01 9.89489675e-01 1.26207742e-04 1.24587968e-04 1.60393582e-04 3.89420278e-02 1.95999220e-01 4.34493989e-01 7.15638578e-01 7.25965202e-01 7.51856446e-01 7.54386127e-01 7.26952791e-01 6.92974091e-01 6.72912896e-01 6.71968460e-01 6.81714773e-01 6.91874444e-01 6.98975384e-01 7.03744411e-01 7.05929339e-01 7.01697469e-01 6.84562147e-01 6.43068254e-01 5.74513316e-01 4.62793916e-01 1.65365185e-04 1.12285954e-04 1.12534624e-04 1.98436173e-04 1.81855261e-01 1.46202268e-02 9.71866131e-01 9.99868393e-01 1.31119785e-04 1.21751866e-04 1.98295806e-04 3.00620664e-02 2.01334476e-01 7.49017179e-01 8.31177473e-01 8.81720722e-01 8.78857672e-01 8.66260469e-01 8.50696921e-01 8.30597639e-01 8.08591962e-01 7.92329848e-01 7.83170640e-01 7.80018747e-01 7.81855345e-01 7.87324369e-01 7.95048237e-01 8.01912189e-01 8.00961018e-01 7.81994462e-01 7.57283688e-01 7.43252993e-01 1.59870852e-02 1.16485986e-04 1.25134087e-04 1.32287867e-04 1.67964972e-04 5.64496790e-04 8.23834896e-01 9.99846995e-01 1.21475197e-04 1.17943469e-04 6.01035543e-04 7.27136880e-02 7.43358552e-01 8.60311508e-01 9.02363002e-01 8.88861775e-01 8.77943695e-01 8.68340552e-01 8.61017644e-01 8.52276385e-01 8.31806958e-01 8.07104886e-01 7.92874694e-01 7.89496303e-01 7.92961001e-01 8.01157415e-01 8.13387930e-01 8.27828646e-01 8.40251207e-01 8.43333483e-01 8.57466698e-01 8.81171525e-01 9.86750662e-01 1.94865148e-04 1.38079762e-04 1.45557322e-04 2.01232164e-04 2.23037088e-04 9.99757051e-01 5.57258842e-04 1.17003452e-04 1.28267478e-04 2.22643539e-02 7.08640516e-01 8.49869788e-01 8.84560704e-01 8.69318366e-01 8.53778303e-01 8.39309871e-01 8.35031092e-01 8.32801521e-01 8.15582156e-01 7.79894114e-01 7.59463131e-01 7.52286613e-01 7.50366271e-01 7.51651108e-01 7.56930232e-01 7.67605484e-01 7.85423458e-01 8.13875437e-01 8.36378574e-01 8.73389363e-01 9.47631419e-01 9.78822649e-01 9.73276973e-01 1.50515558e-02 3.95127601e-04 2.86321127e-04 1.06047984e-04 9.99761522e-01 1.24283411e-04 1.24751619e-04 7.70004932e-03 6.48044109e-01 7.99397647e-01 8.23883772e-01 8.00486505e-01 7.85843670e-01 7.74800837e-01 7.74357319e-01 7.81065762e-01 7.58525670e-01 7.13425875e-01 6.97773278e-01 6.92874014e-01 6.86924517e-01 6.80026770e-01 6.74579203e-01 6.73543513e-01 6.80839598e-01 7.04160392e-01 7.41413176e-01 7.69633830e-01 8.14378202e-01 9.57914948e-01 9.86120164e-01 9.88241971e-01 6.58055305e-01 3.22416076e-04 3.28114606e-03 9.99634147e-01 1.32944668e-04 1.23703066e-04 4.40661970e-04 5.77554882e-01 6.69513285e-01 6.65233612e-01 6.38042092e-01 6.40364110e-01 6.55338824e-01 6.80090785e-01 7.04306781e-01 6.69027209e-01 6.30609572e-01 6.29588544e-01 6.31965458e-01 6.26459479e-01 6.15877986e-01 6.04456127e-01 5.96704423e-01 5.97867072e-01 6.12253487e-01 6.33370996e-01 6.44551933e-01 6.08592629e-01 5.36278605e-01 5.82548857e-01 6.68081105e-01 7.22411931e-01 6.59552753e-01 9.92474973e-01 9.99425113e-01 1.51735527e-04 1.30682150e-04 2.51455756e-04 5.25012374e-01 4.72920209e-01 3.77578408e-01 3.54663312e-01 4.06489313e-01 4.78587210e-01 5.57247639e-01 5.91500521e-01 5.61595917e-01 5.59082687e-01 5.73845744e-01 5.82699895e-01 5.78703165e-01 5.65841198e-01 5.49666464e-01 5.36376834e-01 5.32938063e-01 5.42472184e-01 5.55307508e-01 5.42814612e-01 4.68286484e-01 3.88091952e-01 3.03426087e-01 2.73425043e-01 5.30912995e-01 9.53686655e-01 9.97711360e-01 9.98565197e-01 1.68231069e-04 1.46339138e-04 2.73970218e-04 5.20351052e-01 2.89248794e-01 1.16090037e-01 1.08069234e-01 1.73149273e-01 2.84459084e-01 4.16411132e-01 4.51371878e-01 4.74254310e-01 5.11000156e-01 5.37680328e-01 5.49337447e-01 5.44457018e-01 5.27435064e-01 5.04956782e-01 4.84809011e-01 4.74363327e-01 4.74581778e-01 4.72420275e-01 4.45663929e-01 4.05685246e-01 3.76121938e-01 3.46100360e-01 3.83917093e-01 7.76177049e-01 9.86998975e-01 9.98551488e-01 9.91882980e-01 1.73568056e-04 1.60416967e-04 3.85240972e-04 5.76846182e-01 1.74044043e-01 1.97820812e-02 1.93376131e-02 5.04135340e-02 1.39202327e-01 2.78757453e-01 3.47271174e-01 4.25127000e-01 4.86247927e-01 5.20564079e-01 5.31963110e-01 5.23918986e-01 5.01618683e-01 4.72668827e-01 4.45898682e-01 4.28637803e-01 4.21389550e-01 4.15343583e-01 4.07286942e-01 4.11410689e-01 4.33942676e-01 4.82994050e-01 6.34450078e-01 9.32504594e-01 9.94945765e-01 9.98313606e-01 5.73256671e-01 1.74978690e-04 1.67257793e-04 5.63253940e-04 6.76768124e-01 1.17713839e-01 2.85983761e-03 3.21085704e-03 1.25524830e-02 6.63206875e-02 1.83013782e-01 2.98585057e-01 4.09691185e-01 4.83109206e-01 5.20348489e-01 5.29893100e-01 5.18003404e-01 4.90947396e-01 4.57167476e-01 4.26355600e-01 4.06790048e-01 4.01772112e-01 4.10721540e-01 4.38628972e-01 4.91936594e-01 5.72620273e-01 6.79351747e-01 8.43800128e-01 9.75312471e-01 9.96661723e-01 9.91542935e-01 6.21964177e-03 1.79337017e-04 1.70940781e-04 1.01937226e-03 7.76175618e-01 9.56203118e-02 7.90169113e-04 9.54287418e-04 3.82293086e-03 3.70187871e-02 1.42127290e-01 2.93499857e-01 4.21678066e-01 4.98249769e-01 5.34397066e-01 5.41239142e-01 5.25747240e-01 4.95507479e-01 4.60172504e-01 4.30494189e-01 4.16691482e-01 4.26601678e-01 4.66101736e-01 5.38205624e-01 6.38737977e-01 7.52464771e-01 8.53579521e-01 9.39179838e-01 9.84574437e-01 9.93224025e-01 5.40301442e-01 8.86981608e-04 2.02120194e-04 1.85047640e-04 2.94627598e-03 8.43417704e-01 9.16720703e-02 4.17161471e-04 5.08540717e-04 1.86364318e-03 2.75255423e-02 1.42893106e-01 3.18884462e-01 4.51038927e-01 5.25017440e-01 5.58176339e-01 5.61829984e-01 5.43612242e-01 5.13117671e-01 4.81542677e-01 4.60583121e-01 4.62450773e-01 4.98741776e-01 5.75071037e-01 6.81210518e-01 7.93404222e-01 8.83789241e-01 9.38470900e-01 9.67965543e-01 9.78921115e-01 9.03074443e-01 1.18996650e-02 4.50293039e-04 2.55896215e-04 2.37743181e-04 1.74303222e-02 8.79602671e-01 9.72932205e-02 2.88250769e-04 3.50133982e-04 1.41492183e-03 2.99350098e-02 1.76754564e-01 3.63634855e-01 4.86911863e-01 5.55502057e-01 5.85417211e-01 5.86283207e-01 5.67582130e-01 5.41508377e-01 5.20482063e-01 5.16374469e-01 5.41748226e-01 6.06554985e-01 7.05208480e-01 8.10411692e-01 8.94302487e-01 9.44827974e-01 9.67164695e-01 9.69905078e-01 9.19019699e-01 1.34125352e-01 1.29395665e-03 3.75646312e-04 3.24983179e-04 4.54788620e-04 8.88884440e-02 8.96874011e-01 1.06744409e-01 2.36997337e-04 2.77716608e-04 1.55607041e-03 4.55635786e-02 2.40218699e-01 4.17731494e-01 5.22453308e-01 5.83086967e-01 6.09983563e-01 6.10130608e-01 5.95173478e-01 5.79254508e-01 5.74739873e-01 5.91993272e-01 6.39949441e-01 7.19224334e-01 8.11599553e-01 8.90105426e-01 9.41537380e-01 9.67519283e-01 9.74643946e-01 9.52783227e-01 5.92562079e-01 7.26843625e-03 6.47946727e-04 4.16527095e-04 4.46622784e-04 1.49325561e-03 2.00707912e-01 9.02482271e-01 1.18205562e-01 2.14051557e-04 2.36190739e-04 2.28922372e-03 8.19962695e-02 3.23342055e-01 4.71827418e-01 5.53093910e-01 6.03840411e-01 6.28028452e-01 6.30966604e-01 6.25258088e-01 6.24595642e-01 6.38956308e-01 6.74657226e-01 7.33462036e-01 8.06910574e-01 8.76739144e-01 9.28700686e-01 9.60159481e-01 9.74690855e-01 9.74025607e-01 9.18512344e-01 2.65550256e-01 3.01762857e-03 6.17643935e-04 5.62081696e-04 8.88706243e-04 9.16134007e-03 3.17437649e-01 8.99814427e-01 1.41583264e-01 2.05675256e-04 2.12126819e-04 3.71111394e-03 1.42025366e-01 4.04383689e-01 5.17968118e-01 5.75902402e-01 6.15515649e-01 6.37901902e-01 6.47809923e-01 6.56402767e-01 6.73571467e-01 7.04358220e-01 7.49483407e-01 8.05077136e-01 8.61922801e-01 9.10008132e-01 9.44584310e-01 9.65731978e-01 9.74911153e-01 9.69080925e-01 8.85563254e-01 2.18040854e-01 4.57518315e-03 1.16068288e-03 1.36645348e-03 4.77016438e-03 5.32322749e-02 4.43423599e-01 8.90210032e-01 1.85584068e-01 2.26478427e-04 1.99085422e-04 3.58980941e-03 2.08615288e-01 4.66967553e-01 5.51035941e-01 5.88864505e-01 6.16674244e-01 6.39057219e-01 6.60078645e-01 6.85995877e-01 7.20097601e-01 7.61532247e-01 8.06853533e-01 8.51635277e-01 8.91697943e-01 9.24373865e-01 9.48760867e-01 9.64545012e-01 9.70828950e-01 9.61050570e-01 8.70507240e-01 3.14793110e-01 2.13209353e-02 6.93362020e-03 1.08731603e-02 4.24986929e-02 2.14045614e-01 5.72120368e-01 8.69912624e-01 2.60276020e-01 3.16712831e-04 2.07856268e-04 7.40078918e-04 2.46031418e-01 5.16754985e-01 5.73813736e-01 5.90787232e-01 6.06816769e-01 6.31663382e-01 6.66896522e-01 7.10636079e-01 7.58365214e-01 8.04605663e-01 8.45012546e-01 8.78119826e-01 9.05164182e-01 9.27731276e-01 9.46064055e-01 9.58876789e-01 9.63501811e-01 9.51780081e-01 8.74649107e-01 5.08472204e-01 1.26647294e-01 6.32466674e-02 9.47793797e-02 2.21117809e-01 4.97049481e-01 6.76048696e-01 8.29207063e-01 3.88364941e-01 1.68273938e-04 2.79264554e-04 1.91212515e-04 2.34171033e-01 5.64476192e-01 5.89849830e-01 5.79872251e-01 5.84449947e-01 6.13898098e-01 6.64555728e-01 7.25388646e-01 7.84049988e-01 8.32174599e-01 8.66970956e-01 8.90671313e-01 9.08330262e-01 9.23981309e-01 9.38396454e-01 9.49506283e-01 9.53577459e-01 9.42895651e-01 8.88611019e-01 6.98450506e-01 4.05182302e-01 2.91854501e-01 3.52188587e-01 5.16869605e-01 7.23255992e-01 7.48777807e-01 7.75119007e-01 5.76911032e-01 3.70092690e-04 2.32157501e-04 2.30655278e-04 2.63053596e-01 6.12071335e-01 5.91604173e-01 5.48909843e-01 5.42941272e-01 5.77311516e-01 6.42893195e-01 7.21648455e-01 7.92777777e-01 8.44572067e-01 8.76448512e-01 8.94136846e-01 9.05272424e-01 9.15613830e-01 9.26799476e-01 9.36723232e-01 9.41329062e-01 9.34622467e-01 9.03124690e-01 8.19268584e-01 6.86404586e-01 6.07711196e-01 6.38450086e-01 7.32044637e-01 8.38169873e-01 7.95985401e-01 7.70264030e-01 7.29719281e-01 3.74457071e-04 1.68106053e-04 2.11465434e-04 3.09641033e-01 6.32695973e-01 5.58556616e-01 4.86320168e-01 4.71963614e-01 5.08063674e-01 5.85721910e-01 6.86529636e-01 7.78520107e-01 8.41176748e-01 8.75493348e-01 8.91591370e-01 8.99548650e-01 9.06249106e-01 9.14371192e-01 9.22947049e-01 9.28883433e-01 9.28099811e-01 9.15172994e-01 8.83465469e-01 8.35246086e-01 7.97194719e-01 7.96116710e-01 8.28927577e-01 8.80525947e-01 8.19740474e-01 7.64507890e-01 7.11705744e-01 1.17144058e-03 1.48762614e-04 1.67076258e-04 2.16328174e-01 6.28182650e-01 4.89172727e-01 4.00203884e-01 3.77647132e-01 4.03364092e-01 4.77887362e-01 5.97123206e-01 7.21641243e-01 8.09558868e-01 8.57412636e-01 8.81186485e-01 8.94684136e-01 9.05236244e-01 9.15101707e-01 9.23976302e-01 9.30647552e-01 9.33433414e-01 9.30150747e-01 9.18317795e-01 8.96869361e-01 8.70232761e-01 8.49051893e-01 8.45608115e-01 8.70906472e-01 8.15602362e-01 8.01436901e-01 7.15750396e-01 9.57809016e-03 1.33854599e-04 1.50626511e-04 5.48766889e-02 6.79325700e-01 4.51907307e-01 3.29065412e-01 2.79473662e-01 2.69410491e-01 3.08896422e-01 4.16982502e-01 5.78548074e-01 7.26673007e-01 8.21555018e-01 8.75653207e-01 9.09067869e-01 9.31783080e-01 9.46959555e-01 9.55865562e-01 9.59512472e-01 9.58409727e-01 9.52155411e-01 9.39163506e-01 9.16482747e-01 8.80554318e-01 8.32705021e-01 7.90975869e-01 7.93235302e-01 7.76593983e-01 7.90453136e-01 8.32188487e-01 5.24057627e-01 1.51848421e-04 1.43045283e-04 1.25982895e-01 9.18342292e-01 6.53314888e-01 5.17625988e-01 4.33546096e-01 3.82363945e-01 3.80905718e-01 4.43757236e-01 5.57826519e-01 6.73667967e-01 7.55386531e-01 8.06538045e-01 8.41686308e-01 8.68849933e-01 8.89489830e-01 9.02798116e-01 9.08086836e-01 9.04938638e-01 8.92814457e-01 8.71299028e-01 8.40304911e-01 7.99431622e-01 7.49986827e-01 7.05122590e-01 6.83996260e-01 6.95693195e-01 
