# vtk DataFile Version 2.0
results_case1_non_linear/iter10.vtk, Created by Freefem++ 
ASCII
DATASET UNSTRUCTURED_GRID
POINTS 961 float
0 0 0
0.033333333 0 0
0.066666667 0 0
0.1 0 0
0.13333333 0 0
0.16666667 0 0
0.2 0 0
0.23333333 0 0
0.26666667 0 0
0.3 0 0
0.33333333 0 0
0.36666667 0 0
0.4 0 0
0.43333333 0 0
0.46666667 0 0
0.5 0 0
0.53333333 0 0
0.56666667 0 0
0.6 0 0
0.63333333 0 0
0.66666667 0 0
0.7 0 0
0.73333333 0 0
0.76666667 0 0
0.8 0 0
0.83333333 0 0
0.86666667 0 0
0.9 0 0
0.93333333 0 0
0.96666667 0 0
1 0 0
0 0.033333333 0
0.033333333 0.033333333 0
0.066666667 0.033333333 0
0.1 0.033333333 0
0.13333333 0.033333333 0
0.16666667 0.033333333 0
0.2 0.033333333 0
0.23333333 0.033333333 0
0.26666667 0.033333333 0
0.3 0.033333333 0
0.33333333 0.033333333 0
0.36666667 0.033333333 0
0.4 0.033333333 0
0.43333333 0.033333333 0
0.46666667 0.033333333 0
0.5 0.033333333 0
0.53333333 0.033333333 0
0.56666667 0.033333333 0
0.6 0.033333333 0
0.63333333 0.033333333 0
0.66666667 0.033333333 0
0.7 0.033333333 0
0.73333333 0.033333333 0
0.76666667 0.033333333 0
0.8 0.033333333 0
0.83333333 0.033333333 0
0.86666667 0.033333333 0
0.9 0.033333333 0
0.93333333 0.033333333 0
0.96666667 0.033333333 0
1 0.033333333 0
0 0.066666667 0
0.033333333 0.066666667 0
0.066666667 0.066666667 0
0.1 0.066666667 0
0.13333333 0.066666667 0
0.16666667 0.066666667 0
0.2 0.066666667 0
0.23333333 0.066666667 0
0.26666667 0.066666667 0
0.3 0.066666667 0
0.33333333 0.066666667 0
0.36666667 0.066666667 0
0.4 0.066666667 0
0.43333333 0.066666667 0
0.46666667 0.066666667 0
0.5 0.066666667 0
0.53333333 0.066666667 0
0.56666667 0.066666667 0
0.6 0.066666667 0
0.63333333 0.066666667 0
0.66666667 0.066666667 0
0.7 0.066666667 0
0.73333333 0.066666667 0
0.76666667 0.066666667 0
0.8 0.066666667 0
0.83333333 0.066666667 0
0.86666667 0.066666667 0
0.9 0.066666667 0
0.93333333 0.066666667 0
0.96666667 0.066666667 0
1 0.066666667 0
0 0.1 0
0.033333333 0.1 0
0.066666667 0.1 0
0.1 0.1 0
0.13333333 0.1 0
0.16666667 0.1 0
0.2 0.1 0
0.23333333 0.1 0
0.26666667 0.1 0
0.3 0.1 0
0.33333333 0.1 0
0.36666667 0.1 0
0.4 0.1 0
0.43333333 0.1 0
0.46666667 0.1 0
0.5 0.1 0
0.53333333 0.1 0
0.56666667 0.1 0
0.6 0.1 0
0.63333333 0.1 0
0.66666667 0.1 0
0.7 0.1 0
0.73333333 0.1 0
0.76666667 0.1 0
0.8 0.1 0
0.83333333 0.1 0
0.86666667 0.1 0
0.9 0.1 0
0.93333333 0.1 0
0.96666667 0.1 0
1 0.1 0
0 0.13333333 0
0.033333333 0.13333333 0
0.066666667 0.13333333 0
0.1 0.13333333 0
0.13333333 0.13333333 0
0.16666667 0.13333333 0
0.2 0.13333333 0
0.23333333 0.13333333 0
0.26666667 0.13333333 0
0.3 0.13333333 0
0.33333333 0.13333333 0
0.36666667 0.13333333 0
0.4 0.13333333 0
0.43333333 0.13333333 0
0.46666667 0.13333333 0
0.5 0.13333333 0
0.53333333 0.13333333 0
0.56666667 0.13333333 0
0.6 0.13333333 0
0.63333333 0.13333333 0
0.66666667 0.13333333 0
0.7 0.13333333 0
0.73333333 0.13333333 0
0.76666667 0.13333333 0
0.8 0.13333333 0
0.83333333 0.13333333 0
0.86666667 0.13333333 0
0.9 0.13333333 0
0.93333333 0.13333333 0
0.96666667 0.13333333 0
1 0.13333333 0
0 0.16666667 0
0.033333333 0.16666667 0
0.066666667 0.16666667 0
0.1 0.16666667 0
0.13333333 0.16666667 0
0.16666667 0.16666667 0
0.2 0.16666667 0
0.23333333 0.16666667 0
0.26666667 0.16666667 0
0.3 0.16666667 0
0.33333333 0.16666667 0
0.36666667 0.16666667 0
0.4 0.16666667 0
0.43333333 0.16666667 0
0.46666667 0.16666667 0
0.5 0.16666667 0
0.53333333 0.16666667 0
0.56666667 0.16666667 0
0.6 0.16666667 0
0.63333333 0.16666667 0
0.66666667 0.16666667 0
0.7 0.16666667 0
0.73333333 0.16666667 0
0.76666667 0.16666667 0
0.8 0.16666667 0
0.83333333 0.16666667 0
0.86666667 0.16666667 0
0.9 0.16666667 0
0.93333333 0.16666667 0
0.96666667 0.16666667 0
1 0.16666667 0
0 0.2 0
0.033333333 0.2 0
0.066666667 0.2 0
0.1 0.2 0
0.13333333 0.2 0
0.16666667 0.2 0
0.2 0.2 0
0.23333333 0.2 0
0.26666667 0.2 0
0.3 0.2 0
0.33333333 0.2 0
0.36666667 0.2 0
0.4 0.2 0
0.43333333 0.2 0
0.46666667 0.2 0
0.5 0.2 0
0.53333333 0.2 0
0.56666667 0.2 0
0.6 0.2 0
0.63333333 0.2 0
0.66666667 0.2 0
0.7 0.2 0
0.73333333 0.2 0
0.76666667 0.2 0
0.8 0.2 0
0.83333333 0.2 0
0.86666667 0.2 0
0.9 0.2 0
0.93333333 0.2 0
0.96666667 0.2 0
1 0.2 0
0 0.23333333 0
0.033333333 0.23333333 0
0.066666667 0.23333333 0
0.1 0.23333333 0
0.13333333 0.23333333 0
0.16666667 0.23333333 0
0.2 0.23333333 0
0.23333333 0.23333333 0
0.26666667 0.23333333 0
0.3 0.23333333 0
0.33333333 0.23333333 0
0.36666667 0.23333333 0
0.4 0.23333333 0
0.43333333 0.23333333 0
0.46666667 0.23333333 0
0.5 0.23333333 0
0.53333333 0.23333333 0
0.56666667 0.23333333 0
0.6 0.23333333 0
0.63333333 0.23333333 0
0.66666667 0.23333333 0
0.7 0.23333333 0
0.73333333 0.23333333 0
0.76666667 0.23333333 0
0.8 0.23333333 0
0.83333333 0.23333333 0
0.86666667 0.23333333 0
0.9 0.23333333 0
0.93333333 0.23333333 0
0.96666667 0.23333333 0
1 0.23333333 0
0 0.26666667 0
0.033333333 0.26666667 0
0.066666667 0.26666667 0
0.1 0.26666667 0
0.13333333 0.26666667 0
0.16666667 0.26666667 0
0.2 0.26666667 0
0.23333333 0.26666667 0
0.26666667 0.26666667 0
0.3 0.26666667 0
0.33333333 0.26666667 0
0.36666667 0.26666667 0
0.4 0.26666667 0
0.43333333 0.26666667 0
0.46666667 0.26666667 0
0.5 0.26666667 0
0.53333333 0.26666667 0
0.56666667 0.26666667 0
0.6 0.26666667 0
0.63333333 0.26666667 0
0.66666667 0.26666667 0
0.7 0.26666667 0
0.73333333 0.26666667 0
0.76666667 0.26666667 0
0.8 0.26666667 0
0.83333333 0.26666667 0
0.86666667 0.26666667 0
0.9 0.26666667 0
0.93333333 0.26666667 0
0.96666667 0.26666667 0
1 0.26666667 0
0 0.3 0
0.033333333 0.3 0
0.066666667 0.3 0
0.1 0.3 0
0.13333333 0.3 0
0.16666667 0.3 0
0.2 0.3 0
0.23333333 0.3 0
0.26666667 0.3 0
0.3 0.3 0
0.33333333 0.3 0
0.36666667 0.3 0
0.4 0.3 0
0.43333333 0.3 0
0.46666667 0.3 0
0.5 0.3 0
0.53333333 0.3 0
0.56666667 0.3 0
0.6 0.3 0
0.63333333 0.3 0
0.66666667 0.3 0
0.7 0.3 0
0.73333333 0.3 0
0.76666667 0.3 0
0.8 0.3 0
0.83333333 0.3 0
0.86666667 0.3 0
0.9 0.3 0
0.93333333 0.3 0
0.96666667 0.3 0
1 0.3 0
0 0.33333333 0
0.033333333 0.33333333 0
0.066666667 0.33333333 0
0.1 0.33333333 0
0.13333333 0.33333333 0
0.16666667 0.33333333 0
0.2 0.33333333 0
0.23333333 0.33333333 0
0.26666667 0.33333333 0
0.3 0.33333333 0
0.33333333 0.33333333 0
0.36666667 0.33333333 0
0.4 0.33333333 0
0.43333333 0.33333333 0
0.46666667 0.33333333 0
0.5 0.33333333 0
0.53333333 0.33333333 0
0.56666667 0.33333333 0
0.6 0.33333333 0
0.63333333 0.33333333 0
0.66666667 0.33333333 0
0.7 0.33333333 0
0.73333333 0.33333333 0
0.76666667 0.33333333 0
0.8 0.33333333 0
0.83333333 0.33333333 0
0.86666667 0.33333333 0
0.9 0.33333333 0
0.93333333 0.33333333 0
0.96666667 0.33333333 0
1 0.33333333 0
0 0.36666667 0
0.033333333 0.36666667 0
0.066666667 0.36666667 0
0.1 0.36666667 0
0.13333333 0.36666667 0
0.16666667 0.36666667 0
0.2 0.36666667 0
0.23333333 0.36666667 0
0.26666667 0.36666667 0
0.3 0.36666667 0
0.33333333 0.36666667 0
0.36666667 0.36666667 0
0.4 0.36666667 0
0.43333333 0.36666667 0
0.46666667 0.36666667 0
0.5 0.36666667 0
0.53333333 0.36666667 0
0.56666667 0.36666667 0
0.6 0.36666667 0
0.63333333 0.36666667 0
0.66666667 0.36666667 0
0.7 0.36666667 0
0.73333333 0.36666667 0
0.76666667 0.36666667 0
0.8 0.36666667 0
0.83333333 0.36666667 0
0.86666667 0.36666667 0
0.9 0.36666667 0
0.93333333 0.36666667 0
0.96666667 0.36666667 0
1 0.36666667 0
0 0.4 0
0.033333333 0.4 0
0.066666667 0.4 0
0.1 0.4 0
0.13333333 0.4 0
0.16666667 0.4 0
0.2 0.4 0
0.23333333 0.4 0
0.26666667 0.4 0
0.3 0.4 0
0.33333333 0.4 0
0.36666667 0.4 0
0.4 0.4 0
0.43333333 0.4 0
0.46666667 0.4 0
0.5 0.4 0
0.53333333 0.4 0
0.56666667 0.4 0
0.6 0.4 0
0.63333333 0.4 0
0.66666667 0.4 0
0.7 0.4 0
0.73333333 0.4 0
0.76666667 0.4 0
0.8 0.4 0
0.83333333 0.4 0
0.86666667 0.4 0
0.9 0.4 0
0.93333333 0.4 0
0.96666667 0.4 0
1 0.4 0
0 0.43333333 0
0.033333333 0.43333333 0
0.066666667 0.43333333 0
0.1 0.43333333 0
0.13333333 0.43333333 0
0.16666667 0.43333333 0
0.2 0.43333333 0
0.23333333 0.43333333 0
0.26666667 0.43333333 0
0.3 0.43333333 0
0.33333333 0.43333333 0
0.36666667 0.43333333 0
0.4 0.43333333 0
0.43333333 0.43333333 0
0.46666667 0.43333333 0
0.5 0.43333333 0
0.53333333 0.43333333 0
0.56666667 0.43333333 0
0.6 0.43333333 0
0.63333333 0.43333333 0
0.66666667 0.43333333 0
0.7 0.43333333 0
0.73333333 0.43333333 0
0.76666667 0.43333333 0
0.8 0.43333333 0
0.83333333 0.43333333 0
0.86666667 0.43333333 0
0.9 0.43333333 0
0.93333333 0.43333333 0
0.96666667 0.43333333 0
1 0.43333333 0
0 0.46666667 0
0.033333333 0.46666667 0
0.066666667 0.46666667 0
0.1 0.46666667 0
0.13333333 0.46666667 0
0.16666667 0.46666667 0
0.2 0.46666667 0
0.23333333 0.46666667 0
0.26666667 0.46666667 0
0.3 0.46666667 0
0.33333333 0.46666667 0
0.36666667 0.46666667 0
0.4 0.46666667 0
0.43333333 0.46666667 0
0.46666667 0.46666667 0
0.5 0.46666667 0
0.53333333 0.46666667 0
0.56666667 0.46666667 0
0.6 0.46666667 0
0.63333333 0.46666667 0
0.66666667 0.46666667 0
0.7 0.46666667 0
0.73333333 0.46666667 0
0.76666667 0.46666667 0
0.8 0.46666667 0
0.83333333 0.46666667 0
0.86666667 0.46666667 0
0.9 0.46666667 0
0.93333333 0.46666667 0
0.96666667 0.46666667 0
1 0.46666667 0
0 0.5 0
0.033333333 0.5 0
0.066666667 0.5 0
0.1 0.5 0
0.13333333 0.5 0
0.16666667 0.5 0
0.2 0.5 0
0.23333333 0.5 0
0.26666667 0.5 0
0.3 0.5 0
0.33333333 0.5 0
0.36666667 0.5 0
0.4 0.5 0
0.43333333 0.5 0
0.46666667 0.5 0
0.5 0.5 0
0.53333333 0.5 0
0.56666667 0.5 0
0.6 0.5 0
0.63333333 0.5 0
0.66666667 0.5 0
0.7 0.5 0
0.73333333 0.5 0
0.76666667 0.5 0
0.8 0.5 0
0.83333333 0.5 0
0.86666667 0.5 0
0.9 0.5 0
0.93333333 0.5 0
0.96666667 0.5 0
1 0.5 0
0 0.53333333 0
0.033333333 0.53333333 0
0.066666667 0.53333333 0
0.1 0.53333333 0
0.13333333 0.53333333 0
0.16666667 0.53333333 0
0.2 0.53333333 0
0.23333333 0.53333333 0
0.26666667 0.53333333 0
0.3 0.53333333 0
0.33333333 0.53333333 0
0.36666667 0.53333333 0
0.4 0.53333333 0
0.43333333 0.53333333 0
0.46666667 0.53333333 0
0.5 0.53333333 0
0.53333333 0.53333333 0
0.56666667 0.53333333 0
0.6 0.53333333 0
0.63333333 0.53333333 0
0.66666667 0.53333333 0
0.7 0.53333333 0
0.73333333 0.53333333 0
0.76666667 0.53333333 0
[...]
CELL_DATA 1920
Scalars  Label int 1
LOOKUP_TABLE FreeFempp_table
0
0
0
0
0
0
0
0
0
0
0
0
0
0
0
0
0
0
0
0
0
0
0
0
0
0
0
0
0
0
0
0
0
0
0
0
0
0
0
0
0
0
0
0
0
0
0
0
0
0
0
0
0
0
0
0
0
0
0
0
0
0
0
0
0
0
0
0
0
0
0
0
0
0
0
0
0
0
0
0
0
0
0
0
0
0
0
0
0
0
0
0
0
0
0
0
0
0
0
0
0
0
0
0
0
0
0
0
0
0
0
0
0
0
0
0
0
0
0
0
0
0
0
0
0
0
0
0
0
0
0
0
0
0
0
0
0
0
0
0
0
0
0
0
0
0
0
0
0
0
0
0
0
0
0
0
0
0
0
0
0
0
0
0
0
0
0
0
0
0
0
0
0
0
0
0
0
0
0
0
0
0
0
0
0
0
0
0
0
0
0
0
0
0
0
0
0
0
0
0
0
0
0
0
0
0
0
0
0
0
0
0
0
0
0
0
0
0
0
0
0
0
0
0
0
0
0
0
0
0
0
0
0
0
0
0
0
0
0
0
0
0
0
0
0
0
0
0
0
0
0
0
0
0
0
0
0
0
0
0
0
0
0
0
0
0
0
0
0
0
0
0
0
0
0
0
0
0
0
0
0
0
0
0
0
0
0
0
0
0
0
0
0
0
0
0
0
0
0
0
0
0
0
0
0
0
0
0
0
0
0
0
0
0
0
0
0
0
0
0
0
0
0
0
0
0
0
0
0
0
0
0
0
0
0
0
0
0
0
0
0
0
0
0
0
0
0
0
0
0
0
0
0
0
0
0
0
0
0
0
0
0
0
0
0
0
0
0
0
0
0
0
0
0
0
0
0
0
0
0
0
0
0
0
0
0
0
0
0
0
0
0
0
0
0
0
0
0
0
0
0
0
0
0
0
0
0
0
0
0
0
0
0
0
0
0
0
0
0
0
0
0
0
0
0
0
0
0
0
0
0
0
0
0
0
0
0
0
0
0
0
0
0
0
0
0
0
0
0
0
0
0
0
0
0
0
0
0
0
0
0
0
0
0
0
0
0
0
0
0
0
0
0
0
0
0
0
0
0
0
0
0
0
0
0
0
0
0
0
0
0
0
0
0
0
0
0
0
0
0
0
0
0
0
0
0
0
0
0
0
0
0
0
0
0
0
0
0
0
0
0
0
0
0
0
0
0
0
0
0
0
0
0
0
0
0
0
0
0
0
0
0
0
0
0
0
0
0
0
0
0
0
0
0
0
0
0
0
0
0
0
0
0
0
0
0
0
0
0
0
0
0
0
0
0
0
0
0
0
0
0
0
0
0
0
0
0
0
0
0
0
0
0
0
0
0
0
0
0
0
0
0
0
0
0
0
0
0
0
0
0
0
0
0
0
0
0
0
0
0
0
0
0
0
0
0
0
0
0
0
0
0
0
0
0
0
0
0
0
0
0
0
0
0
0
0
0
0
0
0
0
0
0
0
0
0
0
0
0
0
0
0
0
0
0
0
0
0
0
0
0
0
0
0
0
0
0
0
0
0
0
0
0
0
0
0
0
0
0
0
0
0
0
0
0
0
0
0
0
0
0
0
0
0
0
0
0
0
0
0
0
0
0
0
0
0
0
0
0
0
0
0
0
0
0
0
0
0
0
0
0
0
0
0
0
0
0
0
0
0
0
0
0
0
0
0
0
0
0
0
0
0
0
0
0
0
0
0
0
0
0
0
0
0
0
0
0
0
0
0
0
0
0
0
0
0
0
0
0
0
0
0
0
0
0
0
0
0
0
0
0
0
0
0
0
0
0
0
0
0
0
0
0
0
0
0
0
0
0
0
0
0
0
0
0
0
0
0
0
0
0
0
0
0
0
0
0
0
0
0
0
0
0
0
0
0
0
0
0
0
0
0
0
0
0
0
0
0
0
0
0
0
0
0
0
0
0
0
0
0
0
0
0
0
0
0
0
0
0
0
0
0
0
0
0
0
0
0
0
0
0
0
0
0
0
0
0
0
0
0
0
0
0
0
0
0
0
0
0
0
0
0
0
0
0
0
0
0
0
0
0
0
0
0
0
0
0
0
0
0
0
0
0
0
0
0
0
0
0
0
0
0
0
0
0
0
0
0
0
0
0
0
0
0
0
0
0
0
0
0
0
0
0
0
0
0
0
0
0
0
0
0
0
0
0
0
0
0
0
0
0
0
0
0
0
0
0
0
0
0
0
0
0
0
0
0
0
0
0
0
0
0
0
0
0
0
0
0
0
0
0
0
0
0
0
0
0
0
0
0
0
0
0
0
0
0
0
0
0
0
0
0
0
0
0
0
0
0
0
0
0
0
0
0
0
0
0
0
0
0
0
0
0
0
0
0
0
0
0
0
0
0
0
0
0
0
0
0
0
0
0
0
0
0
0
0
0
0
0
0
0
0
0
0
0
0
0
0
0
0
0
0
0
0
0
0
0
0
0
0
0
0
0
0
0
0
0
0
0
0
0
0
0
0
0
0
0
0
0
0
0
0
0
0
0
0
0
0
0
0
0
0
0
0
0
0
0
0
0
0
0
0
0
0
0
0
0
0
0
0
0
0
0
0
0
0
0
0
0
0
0
0
0
0
0
0
0
0
0
0
0
0
0
0
0
0
0
0
0
0
0
0
0
0
0
0
0
0
0
0
0
0
0
0
0
0
0
0
0
0
0
0
0
0
0
0
0
0
0
0
0
0
0
0
0
0
0
0
0
0
0
0
0
0
0
0
0
0
0
0
0
0
0
0
0
0
0
0
0
0
0
0
0
0
0
0
0
0
0
0
0
0
0
0
0
0
0
0
0
0
0
0
0
0
0
0
0
0
0
0
0
0
0
0
0
0
0
0
0
0
0
0
0
0
0
0
0
0
0
0
0
0
0
0
0
0
0
0
0
0
0
0
0
0
0
0
0
0
0
0
0
0
0
0
0
0
0
0
0
0
0
0
0
0
0
0
0
0
0
0
0
0
0
0
0
0
0
0
0
0
0
0
0
0
0
0
0
0
0
0
0
0
0
0
0
0
0
0
0
0
0
0
0
0
0
0
0
0
0
0
0
0
0
0
0
0
0
0
0
0
0
0
0
0
0
0
0
0
0
0
0
0
0
0
0
0
0
0
0
0
0
0
0
0
0
0
0
0
0
0
0
0
0
0
0
0
0
0
0
0
0
0
0
0
0
0
0
0
0
0
0
0
0
0
0
0
0
0
0
0
0
0
0
0
0
0
0
0
0
0
0
0
0
0
0
0
0
0
0
0
0
0
0
0
0
0
0
0
0
0
0
0
0
0
0
0
0
0
0
0
0
0
0
0
0
0
0
0
0
0
0
0
0
0
0
0
0
0
0
0
0
0
0
0
0
0
0
0
0
0
0
0
0
0
0
0
0
0
0
0
0
0
0
0
0
0
0
0
0
0
0
0
0
0
0
0
0
0
0
0
0
0
0
0
0
0
0
0
0
0
0
0
0
0
0
0
0
0
0
0
0
0
0
0
0
0
0
0
0
0
0
0
0
0
0
0
0
0
0
0
0
0
0
0
0
0
0
0
0
0
0
0
0
0
0
0
0
0
0
0
0
0
0
0
0
0
0
0
0
0
0
0
0
0
0
0
0
0
0
0
0
0
0
0
0
0
0
0
0
0
0
0
0
0
0
0
0
0
0
0
0
0
0
0
0
0
0
0
0
0
0
0
0
0
0
0
0
0
0
0
0
0
0
0
0
0
0
0
0
0
0
0
0
0
0
0
0
0
0
0
0
0
0
0
0
0
0
0
0
0
0
0
0
0
0
0
0
0
0
0
0
0
0
0
0
0
0
0
0
0
0
0
0
0
0
0
0
0
0
0
0
0
0
0
0
0
0
0
0
0
0
0
0
0
0
0
0
0
0
0
0
0
0
0
0
0
0
0
0
0
0
0
0
0
0
0
0
0
0
0
0
0
0
0
0
0
0
0
0
0
0
0
0
0
0
0
0
0
0
0
0
0
0
0
0
0
0
0
0
0
0
0
0
0
0
0
0
0
0
0
0
0
0
0
0
0
0
0
0
0
1
1
1
1
1
1
1
1
1
1
1
1
1
1
1
1
1
1
1
1
1
1
1
1
1
1
1
1
1
1
2
2
2
2
2
2
2
2
2
2
2
2
2
2
2
2
2
2
2
2
2
2
2
2
2
2
2
2
2
2
3
3
3
3
3
3
3
3
3
3
3
3
3
3
3
3
3
3
3
3
3
3
3
3
3
3
3
3
3
3
4
4
4
4
4
4
4
4
4
4
4
4
4
4
4
4
4
4
4
4
4
4
4
4
4
4
4
4
4
4

LOOKUP_TABLE FreeFempp_table 5
1.00000000 0.00000000 0.00000000 1.00000000
1.00000000 1.00000000 0.00000000 1.00000000
1.00000000 0.00000000 1.00000000 1.00000000
0.00000000 1.00000000 0.00000000 1.00000000
0.00000000 1.00000000 1.00000000 1.00000000

POINT_DATA 961
FIELD FieldData 1
Density 1 961 float
5.81673682e-01 4.58892256e-01 4.39808160e-01 4.32916671e-01 4.24909055e-01 4.09667760e-01 3.85786235e-01 3.54493111e-01 3.18167925e-01 2.68971115e-01 1.23840228e-01 1.62994862e-03 1.46074686e-04 1.64887897e-04 3.48587288e-03 4.32398081e-01 8.62471402e-01 9.84496057e-01 9.82834518e-01 9.33743417e-01 9.69041705e-01 9.61750567e-01 9.39101100e-01 9.14113164e-01 8.99102628e-01 8.74414146e-01 8.61130536e-01 8.54877055e-01 8.50444019e-01 8.48809361e-01 8.19210052e-01 1.01774647e-04 1.01611004e-04 1.02029648e-04 1.03103928e-04 1.04792474e-04 1.06531814e-04 1.07986867e-04 1.09311062e-04 1.10922978e-04 1.13176269e-04 1.15851806e-04 1.16999996e-04 1.12574395e-04 1.12122063e-04 2.93366873e-04 1.47935316e-01 7.31591403e-01 9.95619833e-01 9.98702824e-01 8.63828480e-01 8.58018160e-01 9.96507585e-01 9.86379385e-01 9.78337288e-01 9.64098454e-01 9.34555888e-01 9.06320214e-01 8.88957024e-01 8.78816068e-01 8.70831072e-01 8.45494986e-01 1.02719714e-04 1.01356134e-04 1.01622340e-04 1.01929407e-04 1.02361955e-04 1.02587037e-04 1.02630591e-04 1.02617872e-04 1.02589162e-04 1.02557206e-04 1.02518010e-04 1.02466351e-04 1.02279235e-04 1.02099519e-04 1.02537218e-04 2.97513790e-04 5.64438939e-01 9.78425920e-01 9.98629928e-01 1.00091056e-04 1.37092225e-04 1.96489142e-04 2.97359366e-04 2.11787969e-02 8.59511375e-01 8.79510522e-01 8.40146780e-01 8.05948079e-01 7.91826129e-01 7.75020123e-01 8.06777418e-01 5.92291236e-01 2.22211331e-01 2.73866288e-04 1.15418348e-04 1.06669409e-04 1.04473846e-04 1.03702645e-04 1.03370148e-04 1.03182094e-04 1.03039485e-04 1.02908081e-04 1.02799473e-04 1.02756014e-04 1.02170728e-04 1.01328777e-04 1.01289173e-04 1.10020017e-04 6.25229657e-01 9.97620583e-01 9.81170654e-01 2.63845985e-04 1.23758800e-04 1.10130459e-04 1.07152853e-04 1.07524502e-04 8.49669217e-04 5.93586683e-01 6.15042627e-01 5.97677886e-01 5.82938790e-01 7.28141606e-01 6.69876397e-01 4.79277968e-01 4.91978943e-01 5.02343535e-01 4.98004436e-01 4.86596197e-01 4.69727010e-01 4.50459391e-01 4.28994715e-01 4.02749926e-01 3.67512703e-01 3.37122828e-01 2.42572516e-01 9.42629669e-03 1.14210801e-04 1.01297483e-04 1.01342433e-04 1.02300386e-04 4.14608210e-01 9.98528898e-01 8.61939132e-01 3.70153837e-04 1.28621934e-04 1.09247936e-04 1.03639359e-04 1.03016326e-04 1.22238940e-04 4.07646388e-01 4.18125093e-01 4.12755519e-01 6.43059373e-01 7.00470388e-01 5.51003456e-01 5.63224018e-01 5.73976576e-01 5.76560438e-01 5.76173425e-01 5.75146496e-01 5.73253512e-01 5.69259405e-01 5.62281311e-01 5.52374601e-01 5.40933609e-01 5.30227840e-01 5.09847701e-01 4.18853521e-01 1.83015063e-01 1.02576560e-04 1.01420548e-04 1.01292775e-04 1.01193199e-02 9.99428809e-01 9.99398649e-01 9.62428570e-01 8.57122004e-01 5.84568246e-04 1.02911916e-04 1.02731748e-04 1.10790046e-04 3.35988194e-01 3.33142370e-01 5.86845875e-01 7.30736673e-01 6.28749788e-01 6.30895972e-01 6.25905693e-01 6.24727607e-01 6.24110043e-01 6.23919129e-01 6.24128759e-01 6.24286234e-01 6.24201238e-01 6.23705685e-01 6.21976733e-01 6.19319856e-01 6.20529115e-01 6.18313432e-01 6.03859484e-01 5.16982853e-01 1.16755131e-04 1.01171412e-04 1.01279526e-04 1.06032167e-04 9.79328394e-01 9.99833703e-01 9.99757588e-01 9.99419212e-01 9.27792192e-01 1.03365703e-04 1.02780541e-04 1.14212933e-04 2.98688680e-01 5.52948892e-01 7.59956717e-01 6.92091882e-01 6.90121770e-01 6.80733263e-01 6.75419569e-01 6.73468471e-01 6.75069153e-01 6.79567277e-01 6.85436845e-01 6.91527307e-01 6.97599828e-01 7.03306675e-01 7.07923532e-01 7.12992668e-01 7.21669793e-01 7.32245624e-01 7.43219912e-01 7.51821518e-01 3.01981997e-02 1.01848273e-04 1.02097816e-04 1.02363236e-04 1.18268741e-04 2.57624802e-03 6.68802917e-01 9.98104274e-01 9.87755895e-01 1.02579266e-04 1.02092890e-04 1.74763001e-04 4.03594732e-01 7.82937109e-01 7.39572346e-01 7.38951862e-01 7.31583118e-01 7.25590110e-01 7.21521914e-01 7.22076178e-01 7.27792978e-01 7.36631811e-01 7.45897055e-01 7.54608035e-01 7.63066590e-01 7.71650016e-01 7.81149209e-01 7.93562710e-01 8.10683191e-01 8.33938658e-01 8.73462260e-01 8.98253977e-01 8.46638322e-01 1.19761680e-04 1.02764083e-04 1.03332597e-04 1.06725936e-04 1.28858563e-04 4.56880720e-04 9.40009058e-01 9.99990821e-01 1.02238366e-04 1.02146885e-04 4.28838190e-03 7.90418684e-01 7.66957641e-01 7.74944842e-01 7.71380484e-01 7.65366018e-01 7.60759532e-01 7.60080278e-01 7.64311552e-01 7.71916032e-01 7.80231297e-01 7.87884355e-01 7.94894874e-01 8.01942289e-01 8.09878707e-01 8.19577932e-01 8.32294166e-01 8.50424767e-01 8.79197240e-01 9.22454119e-01 9.58980441e-01 9.65776205e-01 8.88986051e-01 1.18171170e-04 1.09517867e-04 1.12528520e-04 1.37378476e-04 1.16493145e-03 9.99990582e-01 1.01077952e-03 1.02070793e-04 1.03102364e-04 7.80649424e-01 7.66919672e-01 7.65238047e-01 7.43701458e-01 7.32832611e-01 7.30995357e-01 7.36431062e-01 7.47364461e-01 7.60766149e-01 7.72870660e-01 7.82326877e-01 7.89488971e-01 7.94786811e-01 7.99712718e-01 8.06105256e-01 8.15615654e-01 8.30120802e-01 8.51674497e-01 8.80012393e-01 9.18077290e-01 9.64578748e-01 9.87000227e-01 9.94339168e-01 9.70403135e-01 2.69355508e-03 6.68729539e-04 2.54198763e-04 9.91660416e-01 9.99991536e-01 1.04104787e-04 1.03476246e-04 7.61831820e-01 7.39660561e-01 7.11654484e-01 7.06367731e-01 6.94188178e-01 6.77833378e-01 6.71046734e-01 6.80509925e-01 6.99092865e-01 7.17199206e-01 7.31891334e-01 7.42198944e-01 7.46378779e-01 7.46043801e-01 7.44599581e-01 7.44650424e-01 7.48127639e-01 7.58000016e-01 7.78700173e-01 8.12782705e-01 8.58317852e-01 9.08967197e-01 9.65552449e-01 9.93529856e-01 9.97155547e-01 9.93156612e-01 9.52365041e-01 9.96925771e-01 9.99947250e-01 1.04753060e-04 1.04045852e-04 7.37764001e-01 6.94494963e-01 6.67649269e-01 6.72612548e-01 6.53060973e-01 6.37453258e-01 6.26402140e-01 6.20095551e-01 6.23764753e-01 6.40838325e-01 6.60976529e-01 6.75647020e-01 6.78055048e-01 6.70380354e-01 6.58602715e-01 6.45598769e-01 6.31527841e-01 6.17174387e-01 6.05721176e-01 6.01097345e-01 6.05883718e-01 6.20966017e-01 6.50715292e-01 7.16480911e-01 8.19656253e-01 8.38730752e-01 9.23770666e-01 9.98453438e-01 9.99835432e-01 1.05769032e-04 1.04945131e-04 7.11430848e-01 6.33330405e-01 6.02496445e-01 5.65668046e-01 5.40700793e-01 5.33420920e-01 5.40698349e-01 5.49224198e-01 5.53393185e-01 5.59929430e-01 5.87746203e-01 6.09775424e-01 6.10767007e-01 5.96469223e-01 5.76750398e-01 5.54507554e-01 5.28180659e-01 4.97472912e-01 4.65625525e-01 4.36836213e-01 4.13415998e-01 3.95559222e-01 3.82496864e-01 3.78657997e-01 4.10681307e-01 5.39741874e-01 9.16967392e-01 9.98818755e-01 9.98643637e-01 1.06645239e-04 1.05853163e-04 6.93208992e-01 5.65397203e-01 4.89796549e-01 4.09027547e-01 3.79031003e-01 3.81508350e-01 4.06712562e-01 4.43704993e-01 4.70447153e-01 4.80092525e-01 5.20990372e-01 5.53298771e-01 5.54465413e-01 5.37976861e-01 5.15418172e-01 4.88868922e-01 4.56299394e-01 4.18156445e-01 3.79268795e-01 3.45348835e-01 3.20819944e-01 3.09366316e-01 3.16075444e-01 3.58663231e-01 4.84253198e-01 7.34851718e-01 9.84391630e-01 9.99296725e-01 9.56038892e-01 1.07737018e-04 1.06630658e-04 6.91568911e-01 5.08615673e-01 3.49461079e-01 2.35841706e-01 2.06759021e-01 2.21415058e-01 2.64288872e-01 3.26749384e-01 3.85466814e-01 4.11071956e-01 4.71059352e-01 5.11641622e-01 5.13894439e-01 4.99396563e-01 4.77874696e-01 4.50169265e-01 4.15141821e-01 3.74989599e-01 3.36093217e-01 3.05555642e-01 2.89048374e-01 2.93141812e-01 3.37210774e-01 4.57455486e-01 6.78655148e-01 9.46843445e-01 9.96559739e-01 9.96810019e-01 1.30023726e-03 1.10324516e-04 1.08033171e-04 7.06660569e-01 4.74586636e-01 2.15108678e-01 1.01047300e-01 8.35020989e-02 1.02113813e-01 1.50684595e-01 2.30154589e-01 3.17160428e-01 3.65790069e-01 4.47966129e-01 4.89006788e-01 4.90761161e-01 4.79057521e-01 4.59993124e-01 4.32829857e-01 3.97931844e-01 3.59891623e-01 3.27135056e-01 3.07439178e-01 3.06533396e-01 3.34312111e-01 4.04970199e-01 5.94508588e-01 8.91546309e-01 9.88394141e-01 9.97085571e-01 6.37781560e-01 2.14830681e-04 1.18726704e-04 1.13318187e-04 7.32322395e-01 4.65355515e-01 1.14057474e-01 3.27073298e-02 2.63121650e-02 4.02106084e-02 8.13898966e-02 1.67333752e-01 2.73855150e-01 3.53707403e-01 4.53071743e-01 4.84691858e-01 4.83429909e-01 4.73102540e-01 4.56067353e-01 4.30607349e-01 3.98917913e-01 3.68267298e-01 3.48410398e-01 3.46514285e-01 3.67384762e-01 4.11386073e-01 5.46895981e-01 8.16707611e-01 9.68805134e-01 9.94091690e-01 9.71853316e-01 2.96920142e-03 1.51932458e-04 1.32108064e-04 1.40135555e-04 7.60697484e-01 4.75842029e-01 5.42381145e-02 9.22716595e-03 7.60873780e-03 1.56120146e-02 4.69173789e-02 1.37115508e-01 2.56950766e-01 3.78148258e-01 4.76040691e-01 4.93165523e-01 4.86971974e-01 4.76133853e-01 4.60275531e-01 4.38315034e-01 4.14163291e-01 3.96637946e-01 3.95124972e-01 4.14485544e-01 4.52831358e-01 5.48525810e-01 7.51127303e-01 9.28171158e-01 9.81439173e-01 9.83750522e-01 1.89075261e-01 5.37432148e-04 1.62871467e-04 1.55169953e-04 4.43894649e-04 7.86364555e-01 4.97439802e-01 2.45898012e-02 2.77263462e-03 2.46712076e-03 6.85026636e-03 3.22251283e-02 1.34286687e-01 2.72098631e-01 4.29156274e-01 5.01663744e-01 5.06857216e-01 4.94667798e-01 4.82001096e-01 4.67651844e-01 4.51643407e-01 4.38696146e-01 4.37343925e-01 4.55208570e-01 4.93229866e-01 5.65548420e-01 7.08956659e-01 8.72617185e-01 9.56812561e-01 9.73903894e-01 8.59525740e-01 1.83128044e-02 4.20923257e-04 2.32804217e-04 3.01946391e-04 1.19456854e-02 8.07506561e-01 5.21410286e-01 1.10579571e-02 1.01989182e-03 1.00291229e-03 3.61505244e-03 2.83035487e-02 1.54044554e-01 3.29624593e-01 4.83539045e-01 5.22317410e-01 5.17242312e-01 5.00429511e-01 4.86310065e-01 4.74906683e-01 4.66468692e-01 4.65493739e-01 4.79261875e-01 5.13826728e-01 5.72630703e-01 6.75947785e-01 8.13397706e-01 9.16429162e-01 9.56969023e-01 9.39311087e-01 4.70209718e-01 9.79717076e-03 8.83328845e-04 6.28085691e-04 1.97815127e-03 1.40786588e-01 8.24360549e-01 5.41844606e-01 4.94321436e-03 4.79621725e-04 5.19190333e-04 2.31742999e-03 3.27445157e-02 1.94580242e-01 4.11907941e-01 5.24095535e-01 5.34509480e-01 5.18224299e-01 5.00077844e-01 4.87120360e-01 4.80089128e-01 4.79319960e-01 4.88744408e-01 5.14447033e-01 5.62229216e-01 6.39230609e-01 7.49339402e-01 8.59167993e-01 9.25383687e-01 9.42130923e-01 8.71101797e-01 3.10176849e-01 1.73776820e-02 5.04295900e-03 5.04307682e-03 1.99862495e-02 3.49463463e-01 8.36747527e-01 5.56709051e-01 2.20121187e-03 2.80870358e-04 3.28027818e-04 1.79207243e-03 4.86743711e-02 2.67038524e-01 4.86279160e-01 5.43993831e-01 5.33432245e-01 5.08687437e-01 4.92390931e-01 4.83913869e-01 4.82369810e-01 4.88703460e-01 5.06653786e-01 5.41397452e-01 5.98358810e-01 6.83466733e-01 7.85069585e-01 8.71168435e-01 9.16969657e-01 9.16771889e-01 8.08219135e-01 3.48014086e-01 7.19660297e-02 3.65179814e-02 4.65957634e-02 1.17383547e-01 5.13167381e-01 8.42509329e-01 5.67939043e-01 1.05901749e-03 1.94811670e-04 2.38085879e-04 1.67538505e-03 8.61411393e-02 3.77494514e-01 5.33978403e-01 5.42357922e-01 5.16291916e-01 4.91325855e-01 4.79536980e-01 4.77294981e-01 4.81961399e-01 4.95008767e-01 5.20295084e-01 5.62145054e-01 6.23952568e-01 7.07500994e-01 7.95739174e-01 8.65177870e-01 8.98051441e-01 8.86582553e-01 7.75392890e-01 4.61761296e-01 2.25988910e-01 1.67334542e-01 1.86024725e-01 2.83880800e-01 6.07592583e-01 8.38331938e-01 5.79982638e-01 6.48167217e-04 1.52373133e-04 1.87756843e-04 1.99138490e-03 1.56253889e-01 4.78462309e-01 5.54615140e-01 5.22236764e-01 4.86952603e-01 4.68738347e-01 4.64180410e-01 4.68482435e-01 4.79459286e-01 4.98911202e-01 5.30615151e-01 5.77799797e-01 6.41125023e-01 7.17514515e-01 7.92256415e-01 8.48952055e-01 8.73740733e-01 8.57257903e-01 7.61978567e-01 5.56093216e-01 3.82771254e-01 3.23979288e-01 3.34258407e-01 4.08246934e-01 6.56475425e-01 8.20715487e-01 5.94495952e-01 5.77659870e-04 1.29568289e-04 1.54209294e-04 3.39021231e-03 2.57249027e-01 5.45912921e-01 5.46074331e-01 4.88987863e-01 4.51262772e-01 4.42126453e-01 4.46735293e-01 4.58036512e-01 4.75253314e-01 5.00671506e-01 5.37544787e-01 5.87791443e-01 6.49933159e-01 7.18447626e-01 7.82274783e-01 8.29252422e-01 8.50371897e-01 8.33322823e-01 7.59411097e-01 6.25879884e-01 5.02017736e-01 4.46649104e-01 4.53807414e-01 5.06909072e-01 6.86936915e-01 7.83700347e-01 6.05120957e-01 8.76025879e-04 1.17261850e-04 1.30815708e-04 9.65307932e-03 3.98187190e-01 5.65653622e-01 5.07189095e-01 4.43666786e-01 4.14375991e-01 4.14090604e-01 4.27082092e-01 4.45490986e-01 4.69135076e-01 5.00437796e-01 5.41486323e-01 5.92499375e-01 6.50907993e-01 7.11483896e-01 7.66775966e-01 8.08107615e-01 8.27151239e-01 8.15322816e-01 7.65480578e-01 6.84994519e-01 6.07525706e-01 5.64410388e-01 5.65681517e-01 5.95022261e-01 7.16060162e-01 7.20305860e-01 5.98221242e-01 3.58021213e-03 1.11177105e-04 1.17235584e-04 4.50470001e-02 5.17176330e-01 5.34818113e-01 4.47219908e-01 3.96091044e-01 3.81478548e-01 3.88161302e-01 4.05801266e-01 4.29526359e-01 4.59458202e-01 4.97244567e-01 5.43114245e-01 5.94861507e-01 6.48705602e-01 7.00600564e-01 7.46540785e-01 7.81749427e-01 8.00730824e-01 7.98627555e-01 7.72870183e-01 7.31069565e-01 6.85367048e-01 6.51025712e-01 6.41261756e-01 6.55254185e-01 7.38909423e-01 6.54580772e-01 5.37530661e-01 6.09598942e-02 1.08501576e-04 1.10929512e-04 1.94535717e-01 5.37080586e-01 4.65398222e-01 3.91820222e-01 3.61881256e-01 3.57692063e-01 3.65619361e-01 3.82078379e-01 4.07056242e-01 4.41441715e-01 4.85909194e-01 5.38917959e-01 5.95933795e-01 6.51156187e-01 6.99988484e-01 7.39860773e-01 7.69047618e-01 7.85437584e-01 7.86873639e-01 7.72472560e-01 7.43236661e-01 7.03449309e-01 6.66880310e-01 6.48907781e-01 6.54277384e-01 7.43754625e-01 7.05551207e-01 5.05860865e-01 4.28999335e-01 1.06057152e-04 1.08301574e-04 3.86437058e-01 4.96348619e-01 4.13313448e-01 3.69118810e-01 3.48047048e-01 3.40193987e-01 3.41361016e-01 3.51580918e-01 3.73342246e-01 4.09607649e-01 4.62063521e-01 5.28482378e-01 6.01724923e-01 6.72825873e-01 7.33768106e-01 7.79908955e-01 8.08772326e-01 8.19432735e-01 8.11377943e-01 7.84860134e-01 7.42522597e-01 6.91345572e-01 6.43344045e-01 6.09373748e-01 6.04972482e-01 7.29985118e-01 8.04916143e-01 7.46220171e-01 6.74477994e-01 1.13283793e-04 1.08402826e-04 8.27685475e-01 6.74171746e-01 6.43033862e-01 6.19085908e-01 5.99493325e-01 5.84155977e-01 5.76158643e-01 5.76806486e-01 5.87676525e-01 6.08858705e-01 6.39126658e-01 6.76366925e-01 7.16375351e-01 7.54714429e-01 7.88085222e-01 8.14334512e-01 8.31756234e-01 8.38674545e-01 8.33754063e-01 8.16701293e-01 7.89417207e-01 7.56601453e-01 7.24669814e-01 7.00500488e-01 6.88819647e-01 7.40222394e-01 
