# vtk DataFile Version 2.0
results_case1_non_linear/1616585508/sol_toll1e-05_vf0.3iter0.vtk, Created by Freefem++ 
ASCII
DATASET UNSTRUCTURED_GRID
POINTS 961 float
0 0 0
0.033333333 0 0
0.066666667 0 0
0.1 0 0
0.13333333 0 0
0.16666667 0 0
0.2 0 0
0.23333333 0 0
0.26666667 0 0
0.3 0 0
0.33333333 0 0
0.36666667 0 0
0.4 0 0
0.43333333 0 0
0.46666667 0 0
0.5 0 0
0.53333333 0 0
0.56666667 0 0
0.6 0 0
0.63333333 0 0
0.66666667 0 0
0.7 0 0
0.73333333 0 0
0.76666667 0 0
0.8 0 0
0.83333333 0 0
0.86666667 0 0
0.9 0 0
0.93333333 0 0
0.96666667 0 0
1 0 0
0 0.033333333 0
0.033333333 0.033333333 0
0.066666667 0.033333333 0
0.1 0.033333333 0
0.13333333 0.033333333 0
0.16666667 0.033333333 0
0.2 0.033333333 0
0.23333333 0.033333333 0
0.26666667 0.033333333 0
0.3 0.033333333 0
0.33333333 0.033333333 0
0.36666667 0.033333333 0
0.4 0.033333333 0
0.43333333 0.033333333 0
0.46666667 0.033333333 0
0.5 0.033333333 0
0.53333333 0.033333333 0
0.56666667 0.033333333 0
0.6 0.033333333 0
0.63333333 0.033333333 0
0.66666667 0.033333333 0
0.7 0.033333333 0
0.73333333 0.033333333 0
0.76666667 0.033333333 0
0.8 0.033333333 0
0.83333333 0.033333333 0
0.86666667 0.033333333 0
0.9 0.033333333 0
0.93333333 0.033333333 0
0.96666667 0.033333333 0
1 0.033333333 0
0 0.066666667 0
0.033333333 0.066666667 0
0.066666667 0.066666667 0
0.1 0.066666667 0
0.13333333 0.066666667 0
0.16666667 0.066666667 0
0.2 0.066666667 0
0.23333333 0.066666667 0
0.26666667 0.066666667 0
0.3 0.066666667 0
0.33333333 0.066666667 0
0.36666667 0.066666667 0
0.4 0.066666667 0
0.43333333 0.066666667 0
0.46666667 0.066666667 0
0.5 0.066666667 0
0.53333333 0.066666667 0
0.56666667 0.066666667 0
0.6 0.066666667 0
0.63333333 0.066666667 0
0.66666667 0.066666667 0
0.7 0.066666667 0
0.73333333 0.066666667 0
0.76666667 0.066666667 0
0.8 0.066666667 0
0.83333333 0.066666667 0
0.86666667 0.066666667 0
0.9 0.066666667 0
0.93333333 0.066666667 0
0.96666667 0.066666667 0
1 0.066666667 0
0 0.1 0
0.033333333 0.1 0
0.066666667 0.1 0
0.1 0.1 0
0.13333333 0.1 0
0.16666667 0.1 0
0.2 0.1 0
0.23333333 0.1 0
0.26666667 0.1 0
0.3 0.1 0
0.33333333 0.1 0
0.36666667 0.1 0
0.4 0.1 0
0.43333333 0.1 0
0.46666667 0.1 0
0.5 0.1 0
0.53333333 0.1 0
0.56666667 0.1 0
0.6 0.1 0
0.63333333 0.1 0
0.66666667 0.1 0
0.7 0.1 0
0.73333333 0.1 0
0.76666667 0.1 0
0.8 0.1 0
0.83333333 0.1 0
0.86666667 0.1 0
0.9 0.1 0
0.93333333 0.1 0
0.96666667 0.1 0
1 0.1 0
0 0.13333333 0
0.033333333 0.13333333 0
0.066666667 0.13333333 0
0.1 0.13333333 0
0.13333333 0.13333333 0
0.16666667 0.13333333 0
0.2 0.13333333 0
0.23333333 0.13333333 0
0.26666667 0.13333333 0
0.3 0.13333333 0
0.33333333 0.13333333 0
0.36666667 0.13333333 0
0.4 0.13333333 0
0.43333333 0.13333333 0
0.46666667 0.13333333 0
0.5 0.13333333 0
0.53333333 0.13333333 0
0.56666667 0.13333333 0
0.6 0.13333333 0
0.63333333 0.13333333 0
0.66666667 0.13333333 0
0.7 0.13333333 0
0.73333333 0.13333333 0
0.76666667 0.13333333 0
0.8 0.13333333 0
0.83333333 0.13333333 0
0.86666667 0.13333333 0
0.9 0.13333333 0
0.93333333 0.13333333 0
0.96666667 0.13333333 0
1 0.13333333 0
0 0.16666667 0
0.033333333 0.16666667 0
0.066666667 0.16666667 0
0.1 0.16666667 0
0.13333333 0.16666667 0
0.16666667 0.16666667 0
0.2 0.16666667 0
0.23333333 0.16666667 0
0.26666667 0.16666667 0
0.3 0.16666667 0
0.33333333 0.16666667 0
0.36666667 0.16666667 0
0.4 0.16666667 0
0.43333333 0.16666667 0
0.46666667 0.16666667 0
0.5 0.16666667 0
0.53333333 0.16666667 0
0.56666667 0.16666667 0
0.6 0.16666667 0
0.63333333 0.16666667 0
0.66666667 0.16666667 0
0.7 0.16666667 0
0.73333333 0.16666667 0
0.76666667 0.16666667 0
0.8 0.16666667 0
0.83333333 0.16666667 0
0.86666667 0.16666667 0
0.9 0.16666667 0
0.93333333 0.16666667 0
0.96666667 0.16666667 0
1 0.16666667 0
0 0.2 0
0.033333333 0.2 0
0.066666667 0.2 0
0.1 0.2 0
0.13333333 0.2 0
0.16666667 0.2 0
0.2 0.2 0
0.23333333 0.2 0
0.26666667 0.2 0
0.3 0.2 0
0.33333333 0.2 0
0.36666667 0.2 0
0.4 0.2 0
0.43333333 0.2 0
0.46666667 0.2 0
0.5 0.2 0
0.53333333 0.2 0
0.56666667 0.2 0
0.6 0.2 0
0.63333333 0.2 0
0.66666667 0.2 0
0.7 0.2 0
0.73333333 0.2 0
0.76666667 0.2 0
0.8 0.2 0
0.83333333 0.2 0
0.86666667 0.2 0
0.9 0.2 0
0.93333333 0.2 0
0.96666667 0.2 0
1 0.2 0
0 0.23333333 0
0.033333333 0.23333333 0
0.066666667 0.23333333 0
0.1 0.23333333 0
0.13333333 0.23333333 0
0.16666667 0.23333333 0
0.2 0.23333333 0
0.23333333 0.23333333 0
0.26666667 0.23333333 0
0.3 0.23333333 0
0.33333333 0.23333333 0
0.36666667 0.23333333 0
0.4 0.23333333 0
0.43333333 0.23333333 0
0.46666667 0.23333333 0
0.5 0.23333333 0
0.53333333 0.23333333 0
0.56666667 0.23333333 0
0.6 0.23333333 0
0.63333333 0.23333333 0
0.66666667 0.23333333 0
0.7 0.23333333 0
0.73333333 0.23333333 0
0.76666667 0.23333333 0
0.8 0.23333333 0
0.83333333 0.23333333 0
0.86666667 0.23333333 0
0.9 0.23333333 0
0.93333333 0.23333333 0
0.96666667 0.23333333 0
1 0.23333333 0
0 0.26666667 0
0.033333333 0.26666667 0
0.066666667 0.26666667 0
0.1 0.26666667 0
0.13333333 0.26666667 0
0.16666667 0.26666667 0
0.2 0.26666667 0
0.23333333 0.26666667 0
0.26666667 0.26666667 0
0.3 0.26666667 0
0.33333333 0.26666667 0
0.36666667 0.26666667 0
0.4 0.26666667 0
0.43333333 0.26666667 0
0.46666667 0.26666667 0
0.5 0.26666667 0
0.53333333 0.26666667 0
0.56666667 0.26666667 0
0.6 0.26666667 0
0.63333333 0.26666667 0
0.66666667 0.26666667 0
0.7 0.26666667 0
0.73333333 0.26666667 0
0.76666667 0.26666667 0
0.8 0.26666667 0
0.83333333 0.26666667 0
0.86666667 0.26666667 0
0.9 0.26666667 0
0.93333333 0.26666667 0
0.96666667 0.26666667 0
1 0.26666667 0
0 0.3 0
0.033333333 0.3 0
0.066666667 0.3 0
0.1 0.3 0
0.13333333 0.3 0
0.16666667 0.3 0
0.2 0.3 0
0.23333333 0.3 0
0.26666667 0.3 0
0.3 0.3 0
0.33333333 0.3 0
0.36666667 0.3 0
0.4 0.3 0
0.43333333 0.3 0
0.46666667 0.3 0
0.5 0.3 0
0.53333333 0.3 0
0.56666667 0.3 0
0.6 0.3 0
0.63333333 0.3 0
0.66666667 0.3 0
0.7 0.3 0
0.73333333 0.3 0
0.76666667 0.3 0
0.8 0.3 0
0.83333333 0.3 0
0.86666667 0.3 0
0.9 0.3 0
0.93333333 0.3 0
0.96666667 0.3 0
1 0.3 0
0 0.33333333 0
0.033333333 0.33333333 0
0.066666667 0.33333333 0
0.1 0.33333333 0
0.13333333 0.33333333 0
0.16666667 0.33333333 0
0.2 0.33333333 0
0.23333333 0.33333333 0
0.26666667 0.33333333 0
0.3 0.33333333 0
0.33333333 0.33333333 0
0.36666667 0.33333333 0
0.4 0.33333333 0
0.43333333 0.33333333 0
0.46666667 0.33333333 0
0.5 0.33333333 0
0.53333333 0.33333333 0
0.56666667 0.33333333 0
0.6 0.33333333 0
0.63333333 0.33333333 0
0.66666667 0.33333333 0
0.7 0.33333333 0
0.73333333 0.33333333 0
0.76666667 0.33333333 0
0.8 0.33333333 0
0.83333333 0.33333333 0
0.86666667 0.33333333 0
0.9 0.33333333 0
0.93333333 0.33333333 0
0.96666667 0.33333333 0
1 0.33333333 0
0 0.36666667 0
0.033333333 0.36666667 0
0.066666667 0.36666667 0
0.1 0.36666667 0
0.13333333 0.36666667 0
0.16666667 0.36666667 0
0.2 0.36666667 0
0.23333333 0.36666667 0
0.26666667 0.36666667 0
0.3 0.36666667 0
0.33333333 0.36666667 0
0.36666667 0.36666667 0
0.4 0.36666667 0
0.43333333 0.36666667 0
0.46666667 0.36666667 0
0.5 0.36666667 0
0.53333333 0.36666667 0
0.56666667 0.36666667 0
0.6 0.36666667 0
0.63333333 0.36666667 0
0.66666667 0.36666667 0
0.7 0.36666667 0
0.73333333 0.36666667 0
0.76666667 0.36666667 0
0.8 0.36666667 0
0.83333333 0.36666667 0
0.86666667 0.36666667 0
0.9 0.36666667 0
0.93333333 0.36666667 0
0.96666667 0.36666667 0
1 0.36666667 0
0 0.4 0
0.033333333 0.4 0
0.066666667 0.4 0
0.1 0.4 0
0.13333333 0.4 0
0.16666667 0.4 0
0.2 0.4 0
0.23333333 0.4 0
0.26666667 0.4 0
0.3 0.4 0
0.33333333 0.4 0
0.36666667 0.4 0
0.4 0.4 0
0.43333333 0.4 0
0.46666667 0.4 0
0.5 0.4 0
0.53333333 0.4 0
0.56666667 0.4 0
0.6 0.4 0
0.63333333 0.4 0
0.66666667 0.4 0
0.7 0.4 0
0.73333333 0.4 0
0.76666667 0.4 0
0.8 0.4 0
0.83333333 0.4 0
0.86666667 0.4 0
0.9 0.4 0
0.93333333 0.4 0
0.96666667 0.4 0
1 0.4 0
0 0.43333333 0
0.033333333 0.43333333 0
0.066666667 0.43333333 0
0.1 0.43333333 0
0.13333333 0.43333333 0
0.16666667 0.43333333 0
0.2 0.43333333 0
0.23333333 0.43333333 0
0.26666667 0.43333333 0
0.3 0.43333333 0
0.33333333 0.43333333 0
0.36666667 0.43333333 0
0.4 0.43333333 0
0.43333333 0.43333333 0
0.46666667 0.43333333 0
0.5 0.43333333 0
0.53333333 0.43333333 0
0.56666667 0.43333333 0
0.6 0.43333333 0
0.63333333 0.43333333 0
0.66666667 0.43333333 0
0.7 0.43333333 0
0.73333333 0.43333333 0
0.76666667 0.43333333 0
0.8 0.43333333 0
0.83333333 0.43333333 0
0.86666667 0.43333333 0
0.9 0.43333333 0
0.93333333 0.43333333 0
0.96666667 0.43333333 0
1 0.43333333 0
0 0.46666667 0
0.033333333 0.46666667 0
0.066666667 0.46666667 0
0.1 0.46666667 0
0.13333333 0.46666667 0
0.16666667 0.46666667 0
0.2 0.46666667 0
0.23333333 0.46666667 0
0.26666667 0.46666667 0
0.3 0.46666667 0
0.33333333 0.46666667 0
0.36666667 0.46666667 0
0.4 0.46666667 0
0.43333333 0.46666667 0
0.46666667 0.46666667 0
0.5 0.46666667 0
0.53333333 0.46666667 0
0.56666667 0.46666667 0
0.6 0.46666667 0
0.63333333 0.46666667 0
0.66666667 0.46666667 0
0.7 0.46666667 0
0.73333333 0.46666667 0
0.76666667 0.46666667 0
0.8 0.46666667 0
0.83333333 0.46666667 0
0.86666667 0.46666667 0
0.9 0.46666667 0
0.93333333 0.46666667 0
0.96666667 0.46666667 0
1 0.46666667 0
0 0.5 0
0.033333333 0.5 0
0.066666667 0.5 0
0.1 0.5 0
0.13333333 0.5 0
0.16666667 0.5 0
0.2 0.5 0
0.23333333 0.5 0
0.26666667 0.5 0
0.3 0.5 0
0.33333333 0.5 0
0.36666667 0.5 0
0.4 0.5 0
0.43333333 0.5 0
0.46666667 0.5 0
0.5 0.5 0
0.53333333 0.5 0
0.56666667 0.5 0
0.6 0.5 0
0.63333333 0.5 0
0.66666667 0.5 0
0.7 0.5 0
0.73333333 0.5 0
0.76666667 0.5 0
0.8 0.5 0
0.83333333 0.5 0
0.86666667 0.5 0
0.9 0.5 0
0.93333333 0.5 0
0.96666667 0.5 0
1 0.5 0
0 0.53333333 0
0.033333333 0.53333333 0
0.066666667 0.53333333 0
0.1 0.53333333 0
0.13333333 0.53333333 0
0.16666667 0.53333333 0
0.2 0.53333333 0
0.23333333 0.53333333 0
0.26666667 0.53333333 0
0.3 0.53333333 0
0.33333333 0.53333333 0
0.36666667 0.53333333 0
0.4 0.53333333 0
0.43333333 0.53333333 0
0.46666667 0.53333333 0
0.5 0.53333333 0
0.53333333 0.53333333 0
0.56666667 0.53333333 0
0.6 0.53333333 0
0.63333333 0.53333333 0
0.66666667 0.53333333 0
0.7 0.53333333 0
0.73333333 0.53333333 0
[...]
CELL_DATA 1920
Scalars  Label int 1
LOOKUP_TABLE FreeFempp_table
0
0
0
0
0
0
0
0
0
0
0
0
0
0
0
0
0
0
0
0
0
0
0
0
0
0
0
0
0
0
0
0
0
0
0
0
0
0
0
0
0
0
0
0
0
0
0
0
0
0
0
0
0
0
0
0
0
0
0
0
0
0
0
0
0
0
0
0
0
0
0
0
0
0
0
0
0
0
0
0
0
0
0
0
0
0
0
0
0
0
0
0
0
0
0
0
0
0
0
0
0
0
0
0
0
0
0
0
0
0
0
0
0
0
0
0
0
0
0
0
0
0
0
0
0
0
0
0
0
0
0
0
0
0
0
0
0
0
0
0
0
0
0
0
0
0
0
0
0
0
0
0
0
0
0
0
0
0
0
0
0
0
0
0
0
0
0
0
0
0
0
0
0
0
0
0
0
0
0
0
0
0
0
0
0
0
0
0
0
0
0
0
0
0
0
0
0
0
0
0
0
0
0
0
0
0
0
0
0
0
0
0
0
0
0
0
0
0
0
0
0
0
0
0
0
0
0
0
0
0
0
0
0
0
0
0
0
0
0
0
0
0
0
0
0
0
0
0
0
0
0
0
0
0
0
0
0
0
0
0
0
0
0
0
0
0
0
0
0
0
0
0
0
0
0
0
0
0
0
0
0
0
0
0
0
0
0
0
0
0
0
0
0
0
0
0
0
0
0
0
0
0
0
0
0
0
0
0
0
0
0
0
0
0
0
0
0
0
0
0
0
0
0
0
0
0
0
0
0
0
0
0
0
0
0
0
0
0
0
0
0
0
0
0
0
0
0
0
0
0
0
0
0
0
0
0
0
0
0
0
0
0
0
0
0
0
0
0
0
0
0
0
0
0
0
0
0
0
0
0
0
0
0
0
0
0
0
0
0
0
0
0
0
0
0
0
0
0
0
0
0
0
0
0
0
0
0
0
0
0
0
0
0
0
0
0
0
0
0
0
0
0
0
0
0
0
0
0
0
0
0
0
0
0
0
0
0
0
0
0
0
0
0
0
0
0
0
0
0
0
0
0
0
0
0
0
0
0
0
0
0
0
0
0
0
0
0
0
0
0
0
0
0
0
0
0
0
0
0
0
0
0
0
0
0
0
0
0
0
0
0
0
0
0
0
0
0
0
0
0
0
0
0
0
0
0
0
0
0
0
0
0
0
0
0
0
0
0
0
0
0
0
0
0
0
0
0
0
0
0
0
0
0
0
0
0
0
0
0
0
0
0
0
0
0
0
0
0
0
0
0
0
0
0
0
0
0
0
0
0
0
0
0
0
0
0
0
0
0
0
0
0
0
0
0
0
0
0
0
0
0
0
0
0
0
0
0
0
0
0
0
0
0
0
0
0
0
0
0
0
0
0
0
0
0
0
0
0
0
0
0
0
0
0
0
0
0
0
0
0
0
0
0
0
0
0
0
0
0
0
0
0
0
0
0
0
0
0
0
0
0
0
0
0
0
0
0
0
0
0
0
0
0
0
0
0
0
0
0
0
0
0
0
0
0
0
0
0
0
0
0
0
0
0
0
0
0
0
0
0
0
0
0
0
0
0
0
0
0
0
0
0
0
0
0
0
0
0
0
0
0
0
0
0
0
0
0
0
0
0
0
0
0
0
0
0
0
0
0
0
0
0
0
0
0
0
0
0
0
0
0
0
0
0
0
0
0
0
0
0
0
0
0
0
0
0
0
0
0
0
0
0
0
0
0
0
0
0
0
0
0
0
0
0
0
0
0
0
0
0
0
0
0
0
0
0
0
0
0
0
0
0
0
0
0
0
0
0
0
0
0
0
0
0
0
0
0
0
0
0
0
0
0
0
0
0
0
0
0
0
0
0
0
0
0
0
0
0
0
0
0
0
0
0
0
0
0
0
0
0
0
0
0
0
0
0
0
0
0
0
0
0
0
0
0
0
0
0
0
0
0
0
0
0
0
0
0
0
0
0
0
0
0
0
0
0
0
0
0
0
0
0
0
0
0
0
0
0
0
0
0
0
0
0
0
0
0
0
0
0
0
0
0
0
0
0
0
0
0
0
0
0
0
0
0
0
0
0
0
0
0
0
0
0
0
0
0
0
0
0
0
0
0
0
0
0
0
0
0
0
0
0
0
0
0
0
0
0
0
0
0
0
0
0
0
0
0
0
0
0
0
0
0
0
0
0
0
0
0
0
0
0
0
0
0
0
0
0
0
0
0
0
0
0
0
0
0
0
0
0
0
0
0
0
0
0
0
0
0
0
0
0
0
0
0
0
0
0
0
0
0
0
0
0
0
0
0
0
0
0
0
0
0
0
0
0
0
0
0
0
0
0
0
0
0
0
0
0
0
0
0
0
0
0
0
0
0
0
0
0
0
0
0
0
0
0
0
0
0
0
0
0
0
0
0
0
0
0
0
0
0
0
0
0
0
0
0
0
0
0
0
0
0
0
0
0
0
0
0
0
0
0
0
0
0
0
0
0
0
0
0
0
0
0
0
0
0
0
0
0
0
0
0
0
0
0
0
0
0
0
0
0
0
0
0
0
0
0
0
0
0
0
0
0
0
0
0
0
0
0
0
0
0
0
0
0
0
0
0
0
0
0
0
0
0
0
0
0
0
0
0
0
0
0
0
0
0
0
0
0
0
0
0
0
0
0
0
0
0
0
0
0
0
0
0
0
0
0
0
0
0
0
0
0
0
0
0
0
0
0
0
0
0
0
0
0
0
0
0
0
0
0
0
0
0
0
0
0
0
0
0
0
0
0
0
0
0
0
0
0
0
0
0
0
0
0
0
0
0
0
0
0
0
0
0
0
0
0
0
0
0
0
0
0
0
0
0
0
0
0
0
0
0
0
0
0
0
0
0
0
0
0
0
0
0
0
0
0
0
0
0
0
0
0
0
0
0
0
0
0
0
0
0
0
0
0
0
0
0
0
0
0
0
0
0
0
0
0
0
0
0
0
0
0
0
0
0
0
0
0
0
0
0
0
0
0
0
0
0
0
0
0
0
0
0
0
0
0
0
0
0
0
0
0
0
0
0
0
0
0
0
0
0
0
0
0
0
0
0
0
0
0
0
0
0
0
0
0
0
0
0
0
0
0
0
0
0
0
0
0
0
0
0
0
0
0
0
0
0
0
0
0
0
0
0
0
0
0
0
0
0
0
0
0
0
0
0
0
0
0
0
0
0
0
0
0
0
0
0
0
0
0
0
0
0
0
0
0
0
0
0
0
0
0
0
0
0
0
0
0
0
0
0
0
0
0
0
0
0
0
0
0
0
0
0
0
0
0
0
0
0
0
0
0
0
0
0
0
0
0
0
0
0
0
0
0
0
0
0
0
0
0
0
0
0
0
0
0
0
0
0
0
0
0
0
0
0
0
0
0
0
0
0
0
0
0
0
0
0
0
0
0
0
0
0
0
0
0
0
0
0
0
0
0
0
0
0
0
0
0
0
0
0
0
0
0
0
0
0
0
0
0
0
0
0
0
0
0
0
0
0
0
0
0
0
0
0
0
0
0
0
0
0
0
0
0
0
0
0
0
0
0
0
0
0
0
0
0
0
0
0
0
0
0
0
0
0
0
0
0
0
0
0
0
0
0
0
0
0
0
0
0
0
0
0
0
0
0
0
0
0
0
0
0
0
0
0
0
0
0
0
0
0
0
0
0
0
0
0
0
0
0
0
0
0
0
0
0
0
0
0
0
0
0
0
0
0
0
0
0
0
0
0
0
0
0
0
0
0
0
0
0
0
0
0
0
0
0
0
0
0
0
0
0
0
0
0
0
0
0
0
0
0
0
0
0
0
0
0
0
0
0
0
0
0
0
0
0
0
0
0
0
0
0
0
0
0
0
0
0
0
0
0
0
0
0
0
0
0
0
0
0
0
0
0
0
0
0
0
0
0
0
0
0
0
0
0
0
0
0
0
0
0
0
0
0
0
0
0
0
0
0
0
0
0
0
0
0
0
0
0
0
0
0
0
0
0
0
0
0
0
0
0
0
0
0
0
0
0
0
0
0
0
0
0
0
0
0
0
0
0
0
0
0
0
0
0
0
0
0
0
0
0
0
0
0
0
0
0
0
1
1
1
1
1
1
1
1
1
1
1
1
1
1
1
1
1
1
1
1
1
1
1
1
1
1
1
1
1
1
2
2
2
2
2
2
2
2
2
2
2
2
2
2
2
2
2
2
2
2
2
2
2
2
2
2
2
2
2
2
3
3
3
3
3
3
3
3
3
3
3
3
3
3
3
3
3
3
3
3
3
3
3
3
3
3
3
3
3
3
4
4
4
4
4
4
4
4
4
4
4
4
4
4
4
4
4
4
4
4
4
4
4
4
4
4
4
4
4
4

LOOKUP_TABLE FreeFempp_table 5
1.00000000 0.00000000 0.00000000 1.00000000
1.00000000 1.00000000 0.00000000 1.00000000
1.00000000 0.00000000 1.00000000 1.00000000
0.00000000 1.00000000 0.00000000 1.00000000
0.00000000 1.00000000 1.00000000 1.00000000

POINT_DATA 961
FIELD FieldData 1
Density 1 961 float
1.80578902e-01 3.03779900e-01 1.47704318e-01 1.23408519e-01 1.29395917e-01 1.35561422e-01 1.40823990e-01 1.49576798e-01 1.57533243e-01 1.61468104e-01 1.61574304e-01 1.60082653e-01 1.58888146e-01 1.58719122e-01 1.59442574e-01 1.60610795e-01 1.61878020e-01 1.63141534e-01 1.64450169e-01 1.65863067e-01 1.67379096e-01 1.68939441e-01 1.70461103e-01 1.71867624e-01 1.73104241e-01 1.74139798e-01 1.74961254e-01 1.75565317e-01 1.75931618e-01 1.75391719e-01 1.80578902e-01 2.14746624e-01 1.58653378e-01 1.42181814e-01 1.02147177e-01 9.07836407e-02 9.00451988e-02 9.32731256e-02 9.86976027e-02 1.04844488e-01 1.11040980e-01 1.17085390e-01 1.22979991e-01 1.28792793e-01 1.34611711e-01 1.40545025e-01 1.46721214e-01 1.53268397e-01 1.60279706e-01 1.67780563e-01 1.75710738e-01 1.83925882e-01 1.92216739e-01 2.00339124e-01 2.08045959e-01 2.15112627e-01 2.21352294e-01 2.26621926e-01 2.30825886e-01 2.33958438e-01 2.37097844e-01 2.14746624e-01 2.90373474e-01 1.47042826e-01 9.56572816e-02 9.39254016e-02 1.02490604e-01 1.14430897e-01 1.26015753e-01 1.38682052e-01 1.51641265e-01 1.63730636e-01 1.74808562e-01 1.85331032e-01 1.95712626e-01 2.06097811e-01 2.16403544e-01 2.26418301e-01 2.35909641e-01 2.44722068e-01 2.52810538e-01 2.60195404e-01 2.66896904e-01 2.72906631e-01 2.78199792e-01 2.82759041e-01 2.86588639e-01 2.89714783e-01 2.92178631e-01 2.94032186e-01 2.95366615e-01 2.96579748e-01 2.90373474e-01 3.09248775e-01 1.11619204e-01 9.80159044e-02 1.08772919e-01 1.25354767e-01 1.51394680e-01 1.76292896e-01 1.96439669e-01 2.12867036e-01 2.26906464e-01 2.39047319e-01 2.49567837e-01 2.58713961e-01 2.66721129e-01 2.73800999e-01 2.80115068e-01 2.85761505e-01 2.90788680e-01 2.95220733e-01 2.99074918e-01 3.02368492e-01 3.05123150e-01 3.07370573e-01 3.09155613e-01 3.10534716e-01 3.11570704e-01 3.12325448e-01 3.12850058e-01 3.13165158e-01 3.13221514e-01 3.09248775e-01 3.04122269e-01 1.00953549e-01 1.08883932e-01 1.30815580e-01 1.61147609e-01 1.90306649e-01 2.14396790e-01 2.33981296e-01 2.50107616e-01 2.63332218e-01 2.73967892e-01 2.82332867e-01 2.88817376e-01 2.93848991e-01 2.97809988e-01 3.00965250e-01 3.03448707e-01 3.05309415e-01 3.06576610e-01 3.07301462e-01 3.07565451e-01 3.07468861e-01 3.07115823e-01 3.06603819e-01 3.06018144e-01 3.05429488e-01 3.04892689e-01 3.04442793e-01 3.04074138e-01 3.03659201e-01 3.04122269e-01 3.00633341e-01 9.95689705e-02 1.20725751e-01 1.54487103e-01 1.89170867e-01 2.18215391e-01 2.41521493e-01 2.60198414e-01 2.74747908e-01 2.85528809e-01 2.93003470e-01 2.97774404e-01 3.00529778e-01 3.01924169e-01 3.02456975e-01 3.02421451e-01 3.01947325e-01 3.01093876e-01 2.99927592e-01 2.98550457e-01 2.97087729e-01 2.95661092e-01 2.94367194e-01 2.93267429e-01 2.92388052e-01 2.91726679e-01 2.91261613e-01 2.90961444e-01 2.90789843e-01 2.90687829e-01 3.00633341e-01 3.23009878e-01 1.02778085e-01 1.30690977e-01 1.72503948e-01 2.09271759e-01 2.38655925e-01 2.61356920e-01 2.78293222e-01 2.90069312e-01 2.97322720e-01 3.00884008e-01 3.01738918e-01 3.00885946e-01 2.99170643e-01 2.97183245e-01 2.95260847e-01 2.93565273e-01 2.92174399e-01 2.91144133e-01 2.90531099e-01 2.90385872e-01 2.90730953e-01 2.91539907e-01 2.92731196e-01 2.94178843e-01 2.95733452e-01 2.97244340e-01 2.98578501e-01 2.99636900e-01 3.00388426e-01 3.23009878e-01 3.68945688e-01 1.08200416e-01 1.42703310e-01 1.86712682e-01 2.24755257e-01 2.54226059e-01 2.75719464e-01 2.90195525e-01 2.98612833e-01 3.02084863e-01 3.01924616e-01 2.99528062e-01 2.96177536e-01 2.92881429e-01 2.90320933e-01 2.88886070e-01 2.88744807e-01 2.89909840e-01 2.92296261e-01 2.95761406e-01 3.00118417e-01 3.05137128e-01 3.10553223e-01 3.16088080e-01 3.21468890e-01 3.26444805e-01 3.30798984e-01 3.34358066e-01 3.36999357e-01 3.38667482e-01 3.68945688e-01 4.16648120e-01 1.13255709e-01 1.56634450e-01 1.99118376e-01 2.37269178e-01 2.66272485e-01 2.86104232e-01 2.97869831e-01 3.02974790e-01 3.03081244e-01 3.00026506e-01 2.95612127e-01 2.91371495e-01 2.88446128e-01 2.87586570e-01 2.89188862e-01 2.93309987e-01 2.99701035e-01 3.07899296e-01 3.17347914e-01 3.27495694e-01 3.37851912e-01 3.47994030e-01 3.57555985e-01 3.66226256e-01 3.73760015e-01 3.79991949e-01 3.84837240e-01 3.88278782e-01 3.90343904e-01 4.16648120e-01 4.43574578e-01 1.16729155e-01 1.65649846e-01 2.08701149e-01 2.47232318e-01 2.75675833e-01 2.93848842e-01 3.03123504e-01 3.05389225e-01 3.02883863e-01 2.97984660e-01 2.92884588e-01 2.89329559e-01 2.88547546e-01 2.91280806e-01 2.97765940e-01 3.07691455e-01 3.20281088e-01 3.34523499e-01 3.49421620e-01 3.64128530e-01 3.77953917e-01 3.90336215e-01 4.00853604e-01 4.09266174e-01 4.15548116e-01 4.19881761e-01 4.22608674e-01 4.24148887e-01 4.24899161e-01 4.43574578e-01 4.23127651e-01 1.18535951e-01 1.66147530e-01 2.14950621e-01 2.54952908e-01 2.83148378e-01 2.99993873e-01 3.07257086e-01 3.07313204e-01 3.02985638e-01 2.97201604e-01 2.92522788e-01 2.90845990e-01 2.93376833e-01 3.00665736e-01 3.12551200e-01 3.28146219e-01 3.46044004e-01 3.64680409e-01 3.82609218e-01 3.98581654e-01 4.11559641e-01 4.20790523e-01 4.25939500e-01 4.27204490e-01 4.25332427e-01 4.21486259e-01 4.16979373e-01 4.12981778e-01 4.10311490e-01 4.23127651e-01 3.98160934e-01 1.18822277e-01 1.59690946e-01 2.18508691e-01 2.60901302e-01 2.89215684e-01 3.05137187e-01 3.10896695e-01 3.09332162e-01 3.03847343e-01 2.97908157e-01 2.94388324e-01 2.95220673e-01 3.01418751e-01 3.13158303e-01 3.29758644e-01 3.49719316e-01 3.70991200e-01 3.91360730e-01 4.08699572e-01 4.21103835e-01 4.27113712e-01 4.26109374e-01 4.18810368e-01 4.07585442e-01 3.96067828e-01 3.87782812e-01 3.84416819e-01 3.85083795e-01 3.87200862e-01 3.98160934e-01 5.29606700e-01 1.17812060e-01 1.49445817e-01 2.20164299e-01 2.65441447e-01 2.94118136e-01 3.09431821e-01 3.14100415e-01 3.11391681e-01 3.05252135e-01 2.99624950e-01 2.97595412e-01 3.00998896e-01 3.10523719e-01 3.25908899e-01 3.45982075e-01 3.68658751e-01 3.91169667e-01 4.10444170e-01 4.23453271e-01 4.27645206e-01 4.21834111e-01 4.07787323e-01 3.91927779e-01 3.84731442e-01 3.95148695e-01 4.23313618e-01 4.60098743e-01 4.94002521e-01 5.16861260e-01 5.29606700e-01 6.86757326e-01 1.15778796e-01 1.38164565e-01 2.20383331e-01 2.68694937e-01 2.97843039e-01 3.12755108e-01 3.16644311e-01 3.13164085e-01 3.06714892e-01 3.01604658e-01 3.01027477e-01 3.06645691e-01 3.18796724e-01 3.36831421e-01 3.59160811e-01 3.83138031e-01 4.05232340e-01 4.21478093e-01 4.28054929e-01 4.22440410e-01 4.06072259e-01 3.88608336e-01 3.89015108e-01 4.23807979e-01 4.88792777e-01 5.61597943e-01 6.21717691e-01 6.60622239e-01 6.79705918e-01 6.86757326e-01 6.69766605e-01 1.13005854e-01 1.27547756e-01 2.19351515e-01 2.70620048e-01 3.00276637e-01 3.14939946e-01 3.18308204e-01 3.14350098e-01 3.07783216e-01 3.03148001e-01 3.03692788e-01 3.10935825e-01 3.24937195e-01 3.44732016e-01 3.68374437e-01 3.92759979e-01 4.13790047e-01 4.26882416e-01 4.27849323e-01 4.15109694e-01 3.94820422e-01 3.87027055e-01 4.18798149e-01 4.95049566e-01 5.87055087e-01 6.60879552e-01 6.95825875e-01 6.78068519e-01 6.68565989e-01 6.69766605e-01 6.70047283e-01 1.09870337e-01 1.18497379e-01 2.17211798e-01 2.71175802e-01 3.01363319e-01 3.15941423e-01 3.19039345e-01 3.14836264e-01 3.08202982e-01 3.03789139e-01 3.04903805e-01 3.13043445e-01 3.28120261e-01 3.48907650e-01 3.73178333e-01 3.97625536e-01 4.18016791e-01 4.29645419e-01 4.28312153e-01 4.13090229e-01 3.92639071e-01 3.91458571e-01 4.37311918e-01 5.26392698e-01 6.21239662e-01 6.85329437e-01 6.87909007e-01 6.68670595e-01 6.68676138e-01 6.70047283e-01 6.69953346e-01 1.06623925e-01 1.11553535e-01 2.14217216e-01 2.70416319e-01 3.01166475e-01 3.15871686e-01 3.18974704e-01 3.14729035e-01 3.07988256e-01 3.03399146e-01 3.04364115e-01 3.12521011e-01 3.27800751e-01 3.48791987e-01 3.73095632e-01 3.97518396e-01 4.18199092e-01 4.30839390e-01 4.31419075e-01 4.18395400e-01 3.97860706e-01 3.89721930e-01 4.20939773e-01 4.96519923e-01 5.87950706e-01 6.61403596e-01 6.96156740e-01 6.78303599e-01 6.68794632e-01 6.69953346e-01 6.87474370e-01 1.03423283e-01 1.06418535e-01 2.10522309e-01 2.68413633e-01 2.99802303e-01 3.14919949e-01 3.18363845e-01 3.14312279e-01 3.07433248e-01 3.02250952e-01 3.02261084e-01 3.09379905e-01 3.23760778e-01 3.43969852e-01 3.67561728e-01 3.91671091e-01 4.13171798e-01 4.28616285e-01 4.34500992e-01 4.28398609e-01 4.11688834e-01 3.93864691e-01 3.93685788e-01 4.27593768e-01 4.91586566e-01 5.63570201e-01 6.23150647e-01 6.61751390e-01 6.80682957e-01 6.87474370e-01 5.32429993e-01 1.00324102e-01 1.02832742e-01 2.06207752e-01 2.65201896e-01 2.97346264e-01 3.13231438e-01 3.17443222e-01 3.13943952e-01 3.07054192e-01 3.01025331e-01 2.99364328e-01 3.04311007e-01 3.16444546e-01 3.34579468e-01 3.56378555e-01 3.79334122e-01 4.01130080e-01 4.19375896e-01 4.31477368e-01 4.35031116e-01 4.28831190e-01 4.14544314e-01 3.98450166e-01 3.90879661e-01 4.00723308e-01 4.28205252e-01 4.64366049e-01 4.97797936e-01 5.20400763e-01 5.32429993e-01 4.04560566e-01 9.73685831e-02 1.00400232e-01 2.01268137e-01 2.60748357e-01 2.93757230e-01 3.10790062e-01 3.16284359e-01 3.13877732e-01 3.07402402e-01 3.00659120e-01 2.96984464e-01 2.98843652e-01 3.07350636e-01 3.21884811e-01 3.40461820e-01 3.60866040e-01 3.81376445e-01 4.00545597e-01 4.16791975e-01 4.28407639e-01 4.33925360e-01 4.32652295e-01 4.25230652e-01 4.13962185e-01 4.02427793e-01 3.94122988e-01 3.90725285e-01 3.91347706e-01 3.93429548e-01 4.04560566e-01 4.31957483e-01 9.45273712e-02 9.90275368e-02 1.95690542e-01 2.54962683e-01 2.88837016e-01 3.07329327e-01 3.14645022e-01 3.14031273e-01 3.08734417e-01 3.01944703e-01 2.96590894e-01 2.95113772e-01 2.99067914e-01 3.08598429e-01 3.22407931e-01 3.38629574e-01 3.55821520e-01 3.73105884e-01 3.89710754e-01 4.04690921e-01 4.17024523e-01 4.25871044e-01 4.30808276e-01 4.31975543e-01 4.30084974e-01 4.26275730e-01 4.21836823e-01 4.17905122e-01 4.15271044e-01 4.31957483e-01 4.56374824e-01 9.15862992e-02 9.81115326e-02 1.89235762e-01 2.47650564e-01 2.82210559e-01 3.02294016e-01 3.11880231e-01 3.13798457e-01 3.10664624e-01 3.04974049e-01 2.99060851e-01 2.95033723e-01 2.94567823e-01 2.98470497e-01 3.06360513e-01 3.17003131e-01 3.29154134e-01 3.42087239e-01 3.55444491e-01 3.68855268e-01 3.81781608e-01 3.93607914e-01 4.03801858e-01 4.12032604e-01 4.18217480e-01 4.22506154e-01 4.25218701e-01 4.26756054e-01 4.27497417e-01 4.56374824e-01 4.39024776e-01 8.81570056e-02 9.64117199e-02 1.81356132e-01 2.38514617e-01 2.73363233e-01 2.94884056e-01 3.06965441e-01 3.12011361e-01 3.11998695e-01 3.08735430e-01 3.03910881e-01 2.99105287e-01 2.95741439e-01 2.94873089e-01 2.96874583e-01 3.01363677e-01 3.07567447e-01 3.14839154e-01 3.22868317e-01 3.31526637e-01 3.40638131e-01 3.49890560e-01 3.58883142e-01 3.67217213e-01 3.74565393e-01 3.80702645e-01 3.85505974e-01 3.88934582e-01 3.90994132e-01 4.39024776e-01 4.08816248e-01 8.39900970e-02 9.23145488e-02 1.71370119e-01 2.27276862e-01 2.61748523e-01 2.84171492e-01 2.98621714e-01 3.07056278e-01 3.10814202e-01 3.11088562e-01 3.09003502e-01 3.05607706e-01 3.01881403e-01 2.98698813e-01 2.96692908e-01 2.96108484e-01 2.96812624e-01 2.98502117e-01 3.00938427e-01 3.04025084e-01 3.07725847e-01 3.11954767e-01 3.16531509e-01 3.21202725e-01 3.25689137e-01 3.29727262e-01 3.33096236e-01 3.35631877e-01 3.37226659e-01 4.08816248e-01 3.76447856e-01 8.01045150e-02 8.54944214e-02 1.58937335e-01 2.13906914e-01 2.46923417e-01 2.69238114e-01 2.85476446e-01 2.97057837e-01 3.04684639e-01 3.09037000e-01 3.10813844e-01 3.10661584e-01 3.09156179e-01 3.06824952e-01 3.04145098e-01 3.01497281e-01 2.99116939e-01 2.97099173e-01 2.95462757e-01 2.94221163e-01 2.93407708e-01 2.93052018e-01 2.93143719e-01 2.93615609e-01 2.94352174e-01 2.95212179e-01 2.96053737e-01 2.96757966e-01 2.97235757e-01 3.76447856e-01 3.53008568e-01 7.85178393e-02 7.81372562e-02 1.43870041e-01 1.98554739e-01 2.28540584e-01 2.49256819e-01 2.66202420e-01 2.80060261e-01 2.90938407e-01 2.99121469e-01 3.05000931e-01 3.08958858e-01 3.11313421e-01 3.12318474e-01 3.12192440e-01 3.11144292e-01 3.09382915e-01 3.07114452e-01 3.04536104e-01 3.01828742e-01 2.99150258e-01 2.96629727e-01 2.94363290e-01 2.92411178e-01 2.90798813e-01 2.89522141e-01 2.88557053e-01 2.87874758e-01 2.87490040e-01 3.53008568e-01 3.46963406e-01 8.08469057e-02 6.94674477e-02 1.23185866e-01 1.78041905e-01 2.05675408e-01 2.23534942e-01 2.39594623e-01 2.54151702e-01 2.66884565e-01 2.77800679e-01 2.87029654e-01 2.94741839e-01 3.01096827e-01 3.06208074e-01 3.10145050e-01 3.12951237e-01 3.14667940e-01 3.15368295e-01 3.15182745e-01 3.14294398e-01 3.12910706e-01 3.11233252e-01 3.09438020e-01 3.07667345e-01 3.06028932e-01 3.04597974e-01 3.03418726e-01 3.02499145e-01 3.01886767e-01 3.46963406e-01 3.50831956e-01 9.30757001e-02 5.89802302e-02 9.65901464e-02 1.38210252e-01 1.67440668e-01 1.89895496e-01 2.04564780e-01 2.16823190e-01 2.28843704e-01 2.40493342e-01 2.51559615e-01 2.61903018e-01 2.71372348e-01 2.79835761e-01 2.87254751e-01 2.93654889e-01 2.99044967e-01 3.03414106e-01 3.06785077e-01 3.09239894e-01 3.10906976e-01 3.11937362e-01 3.12485397e-01 3.12694818e-01 3.12689990e-01 3.12570721e-01 3.12405080e-01 3.12207699e-01 3.11845541e-01 3.50831956e-01 3.09740901e-01 1.36870235e-01 5.06839976e-02 8.72358084e-02 1.09543614e-01 1.21233247e-01 1.42518356e-01 1.62316307e-01 1.73492521e-01 1.82487860e-01 1.97617143e-01 2.20217317e-01 2.43852019e-01 2.57895648e-01 2.60728240e-01 2.59683132e-01 2.59270817e-01 2.60234118e-01 2.62163013e-01 2.64653951e-01 2.67434746e-01 2.70268559e-01 2.72946596e-01 2.75324970e-01 2.77336270e-01 2.78971821e-01 2.80255437e-01 2.81219065e-01 2.81864792e-01 2.82144129e-01 3.09740901e-01 2.39610150e-01 1.76456466e-01 8.97032395e-02 8.93740579e-02 1.06840573e-01 1.01402268e-01 1.00989617e-01 1.07374631e-01 1.14622116e-01 1.20615870e-01 1.27240583e-01 1.36281535e-01 1.47265479e-01 1.57624274e-01 1.64691076e-01 1.68383017e-01 1.70467302e-01 1.72251314e-01 1.74180627e-01 1.76342726e-01 1.78708315e-01 1.81173980e-01 1.83602571e-01 1.85870945e-01 1.87894329e-01 1.89625710e-01 1.91044256e-01 1.92143336e-01 1.92919537e-01 1.93408653e-01 2.39610150e-01 1.80578902e-01 3.03779900e-01 1.47704318e-01 1.23408519e-01 1.29395917e-01 1.35561422e-01 1.40823990e-01 1.49576798e-01 1.57533243e-01 1.61468104e-01 1.61574304e-01 1.60082653e-01 1.58888146e-01 1.58719122e-01 1.59442574e-01 1.60610795e-01 1.61878020e-01 1.63141534e-01 1.64450169e-01 1.65863067e-01 1.67379096e-01 1.68939441e-01 1.70461103e-01 1.71867624e-01 1.73104241e-01 1.74139798e-01 1.74961254e-01 1.75565317e-01 1.75931618e-01 1.75391719e-01 1.80578902e-01 
