# vtk DataFile Version 2.0
results_case1_non_linear/1616511027/sol_toll1e-05_vf0.3iter0.vtk, Created by Freefem++ 
ASCII
DATASET UNSTRUCTURED_GRID
POINTS 961 float
0 0 0
0.033333333 0 0
0.066666667 0 0
0.1 0 0
0.13333333 0 0
0.16666667 0 0
0.2 0 0
0.23333333 0 0
0.26666667 0 0
0.3 0 0
0.33333333 0 0
0.36666667 0 0
0.4 0 0
0.43333333 0 0
0.46666667 0 0
0.5 0 0
0.53333333 0 0
0.56666667 0 0
0.6 0 0
0.63333333 0 0
0.66666667 0 0
0.7 0 0
0.73333333 0 0
0.76666667 0 0
0.8 0 0
0.83333333 0 0
0.86666667 0 0
0.9 0 0
0.93333333 0 0
0.96666667 0 0
1 0 0
0 0.033333333 0
0.033333333 0.033333333 0
0.066666667 0.033333333 0
0.1 0.033333333 0
0.13333333 0.033333333 0
0.16666667 0.033333333 0
0.2 0.033333333 0
0.23333333 0.033333333 0
0.26666667 0.033333333 0
0.3 0.033333333 0
0.33333333 0.033333333 0
0.36666667 0.033333333 0
0.4 0.033333333 0
0.43333333 0.033333333 0
0.46666667 0.033333333 0
0.5 0.033333333 0
0.53333333 0.033333333 0
0.56666667 0.033333333 0
0.6 0.033333333 0
0.63333333 0.033333333 0
0.66666667 0.033333333 0
0.7 0.033333333 0
0.73333333 0.033333333 0
0.76666667 0.033333333 0
0.8 0.033333333 0
0.83333333 0.033333333 0
0.86666667 0.033333333 0
0.9 0.033333333 0
0.93333333 0.033333333 0
0.96666667 0.033333333 0
1 0.033333333 0
0 0.066666667 0
0.033333333 0.066666667 0
0.066666667 0.066666667 0
0.1 0.066666667 0
0.13333333 0.066666667 0
0.16666667 0.066666667 0
0.2 0.066666667 0
0.23333333 0.066666667 0
0.26666667 0.066666667 0
0.3 0.066666667 0
0.33333333 0.066666667 0
0.36666667 0.066666667 0
0.4 0.066666667 0
0.43333333 0.066666667 0
0.46666667 0.066666667 0
0.5 0.066666667 0
0.53333333 0.066666667 0
0.56666667 0.066666667 0
0.6 0.066666667 0
0.63333333 0.066666667 0
0.66666667 0.066666667 0
0.7 0.066666667 0
0.73333333 0.066666667 0
0.76666667 0.066666667 0
0.8 0.066666667 0
0.83333333 0.066666667 0
0.86666667 0.066666667 0
0.9 0.066666667 0
0.93333333 0.066666667 0
0.96666667 0.066666667 0
1 0.066666667 0
0 0.1 0
0.033333333 0.1 0
0.066666667 0.1 0
0.1 0.1 0
0.13333333 0.1 0
0.16666667 0.1 0
0.2 0.1 0
0.23333333 0.1 0
0.26666667 0.1 0
0.3 0.1 0
0.33333333 0.1 0
0.36666667 0.1 0
0.4 0.1 0
0.43333333 0.1 0
0.46666667 0.1 0
0.5 0.1 0
0.53333333 0.1 0
0.56666667 0.1 0
0.6 0.1 0
0.63333333 0.1 0
0.66666667 0.1 0
0.7 0.1 0
0.73333333 0.1 0
0.76666667 0.1 0
0.8 0.1 0
0.83333333 0.1 0
0.86666667 0.1 0
0.9 0.1 0
0.93333333 0.1 0
0.96666667 0.1 0
1 0.1 0
0 0.13333333 0
0.033333333 0.13333333 0
0.066666667 0.13333333 0
0.1 0.13333333 0
0.13333333 0.13333333 0
0.16666667 0.13333333 0
0.2 0.13333333 0
0.23333333 0.13333333 0
0.26666667 0.13333333 0
0.3 0.13333333 0
0.33333333 0.13333333 0
0.36666667 0.13333333 0
0.4 0.13333333 0
0.43333333 0.13333333 0
0.46666667 0.13333333 0
0.5 0.13333333 0
0.53333333 0.13333333 0
0.56666667 0.13333333 0
0.6 0.13333333 0
0.63333333 0.13333333 0
0.66666667 0.13333333 0
0.7 0.13333333 0
0.73333333 0.13333333 0
0.76666667 0.13333333 0
0.8 0.13333333 0
0.83333333 0.13333333 0
0.86666667 0.13333333 0
0.9 0.13333333 0
0.93333333 0.13333333 0
0.96666667 0.13333333 0
1 0.13333333 0
0 0.16666667 0
0.033333333 0.16666667 0
0.066666667 0.16666667 0
0.1 0.16666667 0
0.13333333 0.16666667 0
0.16666667 0.16666667 0
0.2 0.16666667 0
0.23333333 0.16666667 0
0.26666667 0.16666667 0
0.3 0.16666667 0
0.33333333 0.16666667 0
0.36666667 0.16666667 0
0.4 0.16666667 0
0.43333333 0.16666667 0
0.46666667 0.16666667 0
0.5 0.16666667 0
0.53333333 0.16666667 0
0.56666667 0.16666667 0
0.6 0.16666667 0
0.63333333 0.16666667 0
0.66666667 0.16666667 0
0.7 0.16666667 0
0.73333333 0.16666667 0
0.76666667 0.16666667 0
0.8 0.16666667 0
0.83333333 0.16666667 0
0.86666667 0.16666667 0
0.9 0.16666667 0
0.93333333 0.16666667 0
0.96666667 0.16666667 0
1 0.16666667 0
0 0.2 0
0.033333333 0.2 0
0.066666667 0.2 0
0.1 0.2 0
0.13333333 0.2 0
0.16666667 0.2 0
0.2 0.2 0
0.23333333 0.2 0
0.26666667 0.2 0
0.3 0.2 0
0.33333333 0.2 0
0.36666667 0.2 0
0.4 0.2 0
0.43333333 0.2 0
0.46666667 0.2 0
0.5 0.2 0
0.53333333 0.2 0
0.56666667 0.2 0
0.6 0.2 0
0.63333333 0.2 0
0.66666667 0.2 0
0.7 0.2 0
0.73333333 0.2 0
0.76666667 0.2 0
0.8 0.2 0
0.83333333 0.2 0
0.86666667 0.2 0
0.9 0.2 0
0.93333333 0.2 0
0.96666667 0.2 0
1 0.2 0
0 0.23333333 0
0.033333333 0.23333333 0
0.066666667 0.23333333 0
0.1 0.23333333 0
0.13333333 0.23333333 0
0.16666667 0.23333333 0
0.2 0.23333333 0
0.23333333 0.23333333 0
0.26666667 0.23333333 0
0.3 0.23333333 0
0.33333333 0.23333333 0
0.36666667 0.23333333 0
0.4 0.23333333 0
0.43333333 0.23333333 0
0.46666667 0.23333333 0
0.5 0.23333333 0
0.53333333 0.23333333 0
0.56666667 0.23333333 0
0.6 0.23333333 0
0.63333333 0.23333333 0
0.66666667 0.23333333 0
0.7 0.23333333 0
0.73333333 0.23333333 0
0.76666667 0.23333333 0
0.8 0.23333333 0
0.83333333 0.23333333 0
0.86666667 0.23333333 0
0.9 0.23333333 0
0.93333333 0.23333333 0
0.96666667 0.23333333 0
1 0.23333333 0
0 0.26666667 0
0.033333333 0.26666667 0
0.066666667 0.26666667 0
0.1 0.26666667 0
0.13333333 0.26666667 0
0.16666667 0.26666667 0
0.2 0.26666667 0
0.23333333 0.26666667 0
0.26666667 0.26666667 0
0.3 0.26666667 0
0.33333333 0.26666667 0
0.36666667 0.26666667 0
0.4 0.26666667 0
0.43333333 0.26666667 0
0.46666667 0.26666667 0
0.5 0.26666667 0
0.53333333 0.26666667 0
0.56666667 0.26666667 0
0.6 0.26666667 0
0.63333333 0.26666667 0
0.66666667 0.26666667 0
0.7 0.26666667 0
0.73333333 0.26666667 0
0.76666667 0.26666667 0
0.8 0.26666667 0
0.83333333 0.26666667 0
0.86666667 0.26666667 0
0.9 0.26666667 0
0.93333333 0.26666667 0
0.96666667 0.26666667 0
1 0.26666667 0
0 0.3 0
0.033333333 0.3 0
0.066666667 0.3 0
0.1 0.3 0
0.13333333 0.3 0
0.16666667 0.3 0
0.2 0.3 0
0.23333333 0.3 0
0.26666667 0.3 0
0.3 0.3 0
0.33333333 0.3 0
0.36666667 0.3 0
0.4 0.3 0
0.43333333 0.3 0
0.46666667 0.3 0
0.5 0.3 0
0.53333333 0.3 0
0.56666667 0.3 0
0.6 0.3 0
0.63333333 0.3 0
0.66666667 0.3 0
0.7 0.3 0
0.73333333 0.3 0
0.76666667 0.3 0
0.8 0.3 0
0.83333333 0.3 0
0.86666667 0.3 0
0.9 0.3 0
0.93333333 0.3 0
0.96666667 0.3 0
1 0.3 0
0 0.33333333 0
0.033333333 0.33333333 0
0.066666667 0.33333333 0
0.1 0.33333333 0
0.13333333 0.33333333 0
0.16666667 0.33333333 0
0.2 0.33333333 0
0.23333333 0.33333333 0
0.26666667 0.33333333 0
0.3 0.33333333 0
0.33333333 0.33333333 0
0.36666667 0.33333333 0
0.4 0.33333333 0
0.43333333 0.33333333 0
0.46666667 0.33333333 0
0.5 0.33333333 0
0.53333333 0.33333333 0
0.56666667 0.33333333 0
0.6 0.33333333 0
0.63333333 0.33333333 0
0.66666667 0.33333333 0
0.7 0.33333333 0
0.73333333 0.33333333 0
0.76666667 0.33333333 0
0.8 0.33333333 0
0.83333333 0.33333333 0
0.86666667 0.33333333 0
0.9 0.33333333 0
0.93333333 0.33333333 0
0.96666667 0.33333333 0
1 0.33333333 0
0 0.36666667 0
0.033333333 0.36666667 0
0.066666667 0.36666667 0
0.1 0.36666667 0
0.13333333 0.36666667 0
0.16666667 0.36666667 0
0.2 0.36666667 0
0.23333333 0.36666667 0
0.26666667 0.36666667 0
0.3 0.36666667 0
0.33333333 0.36666667 0
0.36666667 0.36666667 0
0.4 0.36666667 0
0.43333333 0.36666667 0
0.46666667 0.36666667 0
0.5 0.36666667 0
0.53333333 0.36666667 0
0.56666667 0.36666667 0
0.6 0.36666667 0
0.63333333 0.36666667 0
0.66666667 0.36666667 0
0.7 0.36666667 0
0.73333333 0.36666667 0
0.76666667 0.36666667 0
0.8 0.36666667 0
0.83333333 0.36666667 0
0.86666667 0.36666667 0
0.9 0.36666667 0
0.93333333 0.36666667 0
0.96666667 0.36666667 0
1 0.36666667 0
0 0.4 0
0.033333333 0.4 0
0.066666667 0.4 0
0.1 0.4 0
0.13333333 0.4 0
0.16666667 0.4 0
0.2 0.4 0
0.23333333 0.4 0
0.26666667 0.4 0
0.3 0.4 0
0.33333333 0.4 0
0.36666667 0.4 0
0.4 0.4 0
0.43333333 0.4 0
0.46666667 0.4 0
0.5 0.4 0
0.53333333 0.4 0
0.56666667 0.4 0
0.6 0.4 0
0.63333333 0.4 0
0.66666667 0.4 0
0.7 0.4 0
0.73333333 0.4 0
0.76666667 0.4 0
0.8 0.4 0
0.83333333 0.4 0
0.86666667 0.4 0
0.9 0.4 0
0.93333333 0.4 0
0.96666667 0.4 0
1 0.4 0
0 0.43333333 0
0.033333333 0.43333333 0
0.066666667 0.43333333 0
0.1 0.43333333 0
0.13333333 0.43333333 0
0.16666667 0.43333333 0
0.2 0.43333333 0
0.23333333 0.43333333 0
0.26666667 0.43333333 0
0.3 0.43333333 0
0.33333333 0.43333333 0
0.36666667 0.43333333 0
0.4 0.43333333 0
0.43333333 0.43333333 0
0.46666667 0.43333333 0
0.5 0.43333333 0
0.53333333 0.43333333 0
0.56666667 0.43333333 0
0.6 0.43333333 0
0.63333333 0.43333333 0
0.66666667 0.43333333 0
0.7 0.43333333 0
0.73333333 0.43333333 0
0.76666667 0.43333333 0
0.8 0.43333333 0
0.83333333 0.43333333 0
0.86666667 0.43333333 0
0.9 0.43333333 0
0.93333333 0.43333333 0
0.96666667 0.43333333 0
1 0.43333333 0
0 0.46666667 0
0.033333333 0.46666667 0
0.066666667 0.46666667 0
0.1 0.46666667 0
0.13333333 0.46666667 0
0.16666667 0.46666667 0
0.2 0.46666667 0
0.23333333 0.46666667 0
0.26666667 0.46666667 0
0.3 0.46666667 0
0.33333333 0.46666667 0
0.36666667 0.46666667 0
0.4 0.46666667 0
0.43333333 0.46666667 0
0.46666667 0.46666667 0
0.5 0.46666667 0
0.53333333 0.46666667 0
0.56666667 0.46666667 0
0.6 0.46666667 0
0.63333333 0.46666667 0
0.66666667 0.46666667 0
0.7 0.46666667 0
0.73333333 0.46666667 0
0.76666667 0.46666667 0
0.8 0.46666667 0
0.83333333 0.46666667 0
0.86666667 0.46666667 0
0.9 0.46666667 0
0.93333333 0.46666667 0
0.96666667 0.46666667 0
1 0.46666667 0
0 0.5 0
0.033333333 0.5 0
0.066666667 0.5 0
0.1 0.5 0
0.13333333 0.5 0
0.16666667 0.5 0
0.2 0.5 0
0.23333333 0.5 0
0.26666667 0.5 0
0.3 0.5 0
0.33333333 0.5 0
0.36666667 0.5 0
0.4 0.5 0
0.43333333 0.5 0
0.46666667 0.5 0
0.5 0.5 0
0.53333333 0.5 0
0.56666667 0.5 0
0.6 0.5 0
0.63333333 0.5 0
0.66666667 0.5 0
0.7 0.5 0
0.73333333 0.5 0
0.76666667 0.5 0
0.8 0.5 0
0.83333333 0.5 0
0.86666667 0.5 0
0.9 0.5 0
0.93333333 0.5 0
0.96666667 0.5 0
1 0.5 0
0 0.53333333 0
0.033333333 0.53333333 0
0.066666667 0.53333333 0
0.1 0.53333333 0
0.13333333 0.53333333 0
0.16666667 0.53333333 0
0.2 0.53333333 0
0.23333333 0.53333333 0
0.26666667 0.53333333 0
0.3 0.53333333 0
0.33333333 0.53333333 0
0.36666667 0.53333333 0
0.4 0.53333333 0
0.43333333 0.53333333 0
0.46666667 0.53333333 0
0.5 0.53333333 0
0.53333333 0.53333333 0
0.56666667 0.53333333 0
0.6 0.53333333 0
0.63333333 0.53333333 0
0.66666667 0.53333333 0
0.7 0.53333333 0
0.73333333 0.53333333 0
[...]
CELL_DATA 1920
Scalars  Label int 1
LOOKUP_TABLE FreeFempp_table
0
0
0
0
0
0
0
0
0
0
0
0
0
0
0
0
0
0
0
0
0
0
0
0
0
0
0
0
0
0
0
0
0
0
0
0
0
0
0
0
0
0
0
0
0
0
0
0
0
0
0
0
0
0
0
0
0
0
0
0
0
0
0
0
0
0
0
0
0
0
0
0
0
0
0
0
0
0
0
0
0
0
0
0
0
0
0
0
0
0
0
0
0
0
0
0
0
0
0
0
0
0
0
0
0
0
0
0
0
0
0
0
0
0
0
0
0
0
0
0
0
0
0
0
0
0
0
0
0
0
0
0
0
0
0
0
0
0
0
0
0
0
0
0
0
0
0
0
0
0
0
0
0
0
0
0
0
0
0
0
0
0
0
0
0
0
0
0
0
0
0
0
0
0
0
0
0
0
0
0
0
0
0
0
0
0
0
0
0
0
0
0
0
0
0
0
0
0
0
0
0
0
0
0
0
0
0
0
0
0
0
0
0
0
0
0
0
0
0
0
0
0
0
0
0
0
0
0
0
0
0
0
0
0
0
0
0
0
0
0
0
0
0
0
0
0
0
0
0
0
0
0
0
0
0
0
0
0
0
0
0
0
0
0
0
0
0
0
0
0
0
0
0
0
0
0
0
0
0
0
0
0
0
0
0
0
0
0
0
0
0
0
0
0
0
0
0
0
0
0
0
0
0
0
0
0
0
0
0
0
0
0
0
0
0
0
0
0
0
0
0
0
0
0
0
0
0
0
0
0
0
0
0
0
0
0
0
0
0
0
0
0
0
0
0
0
0
0
0
0
0
0
0
0
0
0
0
0
0
0
0
0
0
0
0
0
0
0
0
0
0
0
0
0
0
0
0
0
0
0
0
0
0
0
0
0
0
0
0
0
0
0
0
0
0
0
0
0
0
0
0
0
0
0
0
0
0
0
0
0
0
0
0
0
0
0
0
0
0
0
0
0
0
0
0
0
0
0
0
0
0
0
0
0
0
0
0
0
0
0
0
0
0
0
0
0
0
0
0
0
0
0
0
0
0
0
0
0
0
0
0
0
0
0
0
0
0
0
0
0
0
0
0
0
0
0
0
0
0
0
0
0
0
0
0
0
0
0
0
0
0
0
0
0
0
0
0
0
0
0
0
0
0
0
0
0
0
0
0
0
0
0
0
0
0
0
0
0
0
0
0
0
0
0
0
0
0
0
0
0
0
0
0
0
0
0
0
0
0
0
0
0
0
0
0
0
0
0
0
0
0
0
0
0
0
0
0
0
0
0
0
0
0
0
0
0
0
0
0
0
0
0
0
0
0
0
0
0
0
0
0
0
0
0
0
0
0
0
0
0
0
0
0
0
0
0
0
0
0
0
0
0
0
0
0
0
0
0
0
0
0
0
0
0
0
0
0
0
0
0
0
0
0
0
0
0
0
0
0
0
0
0
0
0
0
0
0
0
0
0
0
0
0
0
0
0
0
0
0
0
0
0
0
0
0
0
0
0
0
0
0
0
0
0
0
0
0
0
0
0
0
0
0
0
0
0
0
0
0
0
0
0
0
0
0
0
0
0
0
0
0
0
0
0
0
0
0
0
0
0
0
0
0
0
0
0
0
0
0
0
0
0
0
0
0
0
0
0
0
0
0
0
0
0
0
0
0
0
0
0
0
0
0
0
0
0
0
0
0
0
0
0
0
0
0
0
0
0
0
0
0
0
0
0
0
0
0
0
0
0
0
0
0
0
0
0
0
0
0
0
0
0
0
0
0
0
0
0
0
0
0
0
0
0
0
0
0
0
0
0
0
0
0
0
0
0
0
0
0
0
0
0
0
0
0
0
0
0
0
0
0
0
0
0
0
0
0
0
0
0
0
0
0
0
0
0
0
0
0
0
0
0
0
0
0
0
0
0
0
0
0
0
0
0
0
0
0
0
0
0
0
0
0
0
0
0
0
0
0
0
0
0
0
0
0
0
0
0
0
0
0
0
0
0
0
0
0
0
0
0
0
0
0
0
0
0
0
0
0
0
0
0
0
0
0
0
0
0
0
0
0
0
0
0
0
0
0
0
0
0
0
0
0
0
0
0
0
0
0
0
0
0
0
0
0
0
0
0
0
0
0
0
0
0
0
0
0
0
0
0
0
0
0
0
0
0
0
0
0
0
0
0
0
0
0
0
0
0
0
0
0
0
0
0
0
0
0
0
0
0
0
0
0
0
0
0
0
0
0
0
0
0
0
0
0
0
0
0
0
0
0
0
0
0
0
0
0
0
0
0
0
0
0
0
0
0
0
0
0
0
0
0
0
0
0
0
0
0
0
0
0
0
0
0
0
0
0
0
0
0
0
0
0
0
0
0
0
0
0
0
0
0
0
0
0
0
0
0
0
0
0
0
0
0
0
0
0
0
0
0
0
0
0
0
0
0
0
0
0
0
0
0
0
0
0
0
0
0
0
0
0
0
0
0
0
0
0
0
0
0
0
0
0
0
0
0
0
0
0
0
0
0
0
0
0
0
0
0
0
0
0
0
0
0
0
0
0
0
0
0
0
0
0
0
0
0
0
0
0
0
0
0
0
0
0
0
0
0
0
0
0
0
0
0
0
0
0
0
0
0
0
0
0
0
0
0
0
0
0
0
0
0
0
0
0
0
0
0
0
0
0
0
0
0
0
0
0
0
0
0
0
0
0
0
0
0
0
0
0
0
0
0
0
0
0
0
0
0
0
0
0
0
0
0
0
0
0
0
0
0
0
0
0
0
0
0
0
0
0
0
0
0
0
0
0
0
0
0
0
0
0
0
0
0
0
0
0
0
0
0
0
0
0
0
0
0
0
0
0
0
0
0
0
0
0
0
0
0
0
0
0
0
0
0
0
0
0
0
0
0
0
0
0
0
0
0
0
0
0
0
0
0
0
0
0
0
0
0
0
0
0
0
0
0
0
0
0
0
0
0
0
0
0
0
0
0
0
0
0
0
0
0
0
0
0
0
0
0
0
0
0
0
0
0
0
0
0
0
0
0
0
0
0
0
0
0
0
0
0
0
0
0
0
0
0
0
0
0
0
0
0
0
0
0
0
0
0
0
0
0
0
0
0
0
0
0
0
0
0
0
0
0
0
0
0
0
0
0
0
0
0
0
0
0
0
0
0
0
0
0
0
0
0
0
0
0
0
0
0
0
0
0
0
0
0
0
0
0
0
0
0
0
0
0
0
0
0
0
0
0
0
0
0
0
0
0
0
0
0
0
0
0
0
0
0
0
0
0
0
0
0
0
0
0
0
0
0
0
0
0
0
0
0
0
0
0
0
0
0
0
0
0
0
0
0
0
0
0
0
0
0
0
0
0
0
0
0
0
0
0
0
0
0
0
0
0
0
0
0
0
0
0
0
0
0
0
0
0
0
0
0
0
0
0
0
0
0
0
0
0
0
0
0
0
0
0
0
0
0
0
0
0
0
0
0
0
0
0
0
0
0
0
0
0
0
0
0
0
0
0
0
0
0
0
0
0
0
0
0
0
0
0
0
0
0
0
0
0
0
0
0
0
0
0
0
0
0
0
0
0
0
0
0
0
0
0
0
0
0
0
0
0
0
0
0
0
0
0
0
0
0
0
0
0
0
0
0
0
0
0
0
0
0
0
0
0
0
0
0
0
0
0
0
0
0
0
0
0
0
0
0
0
0
0
0
0
0
0
0
0
0
0
0
0
0
0
0
0
0
0
0
0
0
0
0
0
0
0
0
0
0
0
0
0
0
0
0
0
0
0
0
0
0
0
0
0
0
0
0
0
0
0
0
0
0
0
0
0
0
0
0
0
0
0
0
0
0
0
0
0
0
0
0
0
0
0
0
0
0
0
0
0
0
0
0
0
0
0
0
0
0
0
0
0
0
0
0
0
0
0
0
0
0
0
0
0
0
0
0
0
0
0
0
0
0
0
0
0
0
0
0
0
0
0
0
0
0
0
0
0
0
0
0
0
0
0
0
0
0
0
0
0
0
0
0
0
0
0
0
0
0
0
0
0
0
0
0
0
0
0
0
0
0
0
0
0
0
0
0
0
0
0
0
0
0
0
0
0
0
0
1
1
1
1
1
1
1
1
1
1
1
1
1
1
1
1
1
1
1
1
1
1
1
1
1
1
1
1
1
1
2
2
2
2
2
2
2
2
2
2
2
2
2
2
2
2
2
2
2
2
2
2
2
2
2
2
2
2
2
2
3
3
3
3
3
3
3
3
3
3
3
3
3
3
3
3
3
3
3
3
3
3
3
3
3
3
3
3
3
3
4
4
4
4
4
4
4
4
4
4
4
4
4
4
4
4
4
4
4
4
4
4
4
4
4
4
4
4
4
4

LOOKUP_TABLE FreeFempp_table 5
1.00000000 0.00000000 0.00000000 1.00000000
1.00000000 1.00000000 0.00000000 1.00000000
1.00000000 0.00000000 1.00000000 1.00000000
0.00000000 1.00000000 0.00000000 1.00000000
0.00000000 1.00000000 1.00000000 1.00000000

POINT_DATA 961
FIELD FieldData 1
Density 1 961 float
1.43866971e-01 1.46044016e-01 1.42464682e-01 1.38119176e-01 1.37871549e-01 1.38148531e-01 1.38388723e-01 1.38760149e-01 1.39331266e-01 1.40056327e-01 1.40837610e-01 1.41584769e-01 1.42242819e-01 1.42789423e-01 1.43224865e-01 1.43571049e-01 1.43871263e-01 1.44168004e-01 1.44470707e-01 1.44759938e-01 1.45025164e-01 1.45272434e-01 1.45504817e-01 1.45716518e-01 1.45900026e-01 1.46051154e-01 1.46169230e-01 1.46254718e-01 1.46295711e-01 1.45829037e-01 1.43866971e-01 3.46750468e-01 1.39822140e-01 1.33980751e-01 1.44640535e-01 1.87129706e-01 2.45811865e-01 3.11293781e-01 3.74632239e-01 4.26854938e-01 4.61794645e-01 4.78351831e-01 4.79836494e-01 4.71406519e-01 4.57772106e-01 4.42188889e-01 4.26491141e-01 4.11539048e-01 3.97656918e-01 3.84923458e-01 3.73328000e-01 3.62843275e-01 3.53449792e-01 3.45133215e-01 3.37875187e-01 3.31651419e-01 3.26435626e-01 3.22203636e-01 3.18935633e-01 3.16621810e-01 3.15680087e-01 3.46750468e-01 1.75049365e-01 1.37772366e-01 1.85575664e-01 2.78482795e-01 3.61362249e-01 4.17269260e-01 4.39672202e-01 4.33523566e-01 4.10170764e-01 3.79826844e-01 3.48953128e-01 3.20675343e-01 2.96047390e-01 2.75081873e-01 2.57384598e-01 2.42504135e-01 2.30050281e-01 2.19679296e-01 2.11056575e-01 2.03850970e-01 1.97769001e-01 1.92600995e-01 1.88231677e-01 1.84601367e-01 1.81657031e-01 1.79331422e-01 1.77549049e-01 1.76239237e-01 1.75347999e-01 1.74893513e-01 1.75049365e-01 1.70518875e-01 1.43899113e-01 2.83299118e-01 3.92851859e-01 4.31905687e-01 4.15444702e-01 3.75827432e-01 3.30102026e-01 2.88570821e-01 2.54615307e-01 2.28177592e-01 2.08121672e-01 1.93153977e-01 1.82144359e-01 1.74201950e-01 1.68657169e-01 1.65002227e-01 1.62826926e-01 1.61784664e-01 1.61583886e-01 1.61984280e-01 1.62790716e-01 1.63846195e-01 1.65024683e-01 1.66224897e-01 1.67365313e-01 1.68380857e-01 1.69220775e-01 1.69847235e-01 1.70234904e-01 1.70518875e-01 2.16203809e-01 1.76498577e-01 3.71815264e-01 4.38748091e-01 4.09213662e-01 3.47705811e-01 2.89575338e-01 2.44427308e-01 2.12085605e-01 1.90088913e-01 1.75868273e-01 1.67341456e-01 1.62961185e-01 1.61604494e-01 1.62448108e-01 1.64873466e-01 1.68405876e-01 1.72675520e-01 1.77390620e-01 1.82318524e-01 1.87272340e-01 1.92101300e-01 1.96683437e-01 2.00920150e-01 2.04731733e-01 2.08054140e-01 2.10836485e-01 2.13039264e-01 2.14632973e-01 2.15597183e-01 2.16203809e-01 2.75529653e-01 2.16894552e-01 4.32489336e-01 4.30075735e-01 3.54658157e-01 2.81515688e-01 2.29243279e-01 1.95741042e-01 1.75913721e-01 1.65574118e-01 1.61770105e-01 1.62479222e-01 1.66306257e-01 1.72269210e-01 1.79658875e-01 1.87949672e-01 1.96743056e-01 2.05731139e-01 2.14672610e-01 2.23376155e-01 2.31688797e-01 2.39487648e-01 2.46673718e-01 2.53167391e-01 2.58904725e-01 2.63834924e-01 2.67917931e-01 2.71123171e-01 2.73427993e-01 2.74816811e-01 2.75529653e-01 3.36438656e-01 2.57557750e-01 4.61305976e-01 3.96567017e-01 3.01903486e-01 2.34057173e-01 1.93494231e-01 1.71977088e-01 1.62914664e-01 1.61961541e-01 1.66329265e-01 1.74202502e-01 1.84363946e-01 1.95968047e-01 2.08406582e-01 2.21228749e-01 2.34092250e-01 2.46732503e-01 2.58942395e-01 2.70558596e-01 2.81451792e-01 2.91519761e-01 3.00681949e-01 3.08875382e-01 3.16051424e-01 3.22173029e-01 3.27212542e-01 3.31149966e-01 3.33971292e-01 3.35667431e-01 3.36438656e-01 3.93098533e-01 2.94525713e-01 4.64981198e-01 3.57429594e-01 2.60655224e-01 2.03190938e-01 1.74139917e-01 1.62808612e-01 1.62429884e-01 1.68913200e-01 1.79733142e-01 1.93274021e-01 2.08460942e-01 2.24548981e-01 2.41001427e-01 2.57418841e-01 2.73496836e-01 2.89000005e-01 3.03745121e-01 3.17589641e-01 3.30423743e-01 3.42164129e-01 3.52749467e-01 3.62136185e-01 3.70295227e-01 3.77208710e-01 3.82867247e-01 3.87267172e-01 3.90408307e-01 3.92291993e-01 3.93098533e-01 4.42041487e-01 3.25834394e-01 4.53443646e-01 3.21912944e-01 2.30801582e-01 1.84105739e-01 1.64920792e-01 1.61871001e-01 1.68446362e-01 1.80872455e-01 1.96860626e-01 2.14954749e-01 2.34184623e-01 2.53874540e-01 2.73534477e-01 2.92797476e-01 3.11382920e-01 3.29074234e-01 3.45704913e-01 3.61149251e-01 3.75315845e-01 3.88142347e-01 3.99591297e-01 4.09645647e-01 4.18304801e-01 4.25579935e-01 4.31489766e-01 4.36056048e-01 4.39299911e-01 4.41238672e-01 4.42041487e-01 4.81510699e-01 3.50878239e-01 4.35054630e-01 2.92873681e-01 2.09960386e-01 1.72833055e-01 1.61732540e-01 1.65328950e-01 1.77470356e-01 1.94665253e-01 2.14812234e-01 2.36573085e-01 2.59050339e-01 2.81612873e-01 3.03798318e-01 3.25257242e-01 3.45721126e-01 3.64983708e-01 3.82889926e-01 3.99328917e-01 4.14229572e-01 4.27556545e-01 4.39306170e-01 4.49501008e-01 4.58183199e-01 4.65406358e-01 4.71227199e-01 4.75698084e-01 4.78861600e-01 4.80748028e-01 4.81510699e-01 5.12727499e-01 3.69921476e-01 4.15294111e-01 2.70390958e-01 1.95738375e-01 1.66565299e-01 1.61929548e-01 1.70801997e-01 1.87368825e-01 2.08366424e-01 2.31833518e-01 2.56515026e-01 2.81560898e-01 3.06365669e-01 3.30479413e-01 3.53558153e-01 3.75335902e-01 3.95610034e-01 4.14233893e-01 4.31113869e-01 4.46208239e-01 4.59525824e-01 4.71121669e-01 4.81087595e-01 4.89536762e-01 4.96582240e-01 5.02314985e-01 5.06787300e-01 5.10009229e-01 5.11961043e-01 5.12727499e-01 5.43492675e-01 3.83706182e-01 3.97232711e-01 2.53645062e-01 1.86236441e-01 1.63385078e-01 1.63787976e-01 1.76765785e-01 1.96784765e-01 2.20754445e-01 2.46814340e-01 2.73765236e-01 3.00785363e-01 3.27280462e-01 3.52801859e-01 3.77001733e-01 3.99609983e-01 4.20424461e-01 4.39310014e-01 4.56203520e-01 4.71121430e-01 4.84165668e-01 4.95520979e-01 5.05434990e-01 5.14173031e-01 5.21947920e-01 5.28839886e-01 5.34742236e-01 5.39371669e-01 5.42359471e-01 5.43492675e-01 5.89852214e-01 3.93146366e-01 3.82377923e-01 2.41682962e-01 1.80067599e-01 1.61996320e-01 1.66171029e-01 1.82223260e-01 2.04833061e-01 2.31034890e-01 2.59037495e-01 2.87677109e-01 3.16146553e-01 3.43853146e-01 3.70342195e-01 3.95256907e-01 4.18320388e-01 4.39333498e-01 4.58185136e-01 4.74873483e-01 4.89535213e-01 5.02474189e-01 5.14171958e-01 5.25248587e-01 5.36336720e-01 5.47850728e-01 5.59707224e-01 5.71151078e-01 5.80870330e-01 5.87421477e-01 5.89852214e-01 6.47318602e-01 3.99113327e-01 3.71351004e-01 2.33689457e-01 1.76267952e-01 1.61536917e-01 1.68332264e-01 1.86522171e-01 2.10935861e-01 2.38691524e-01 2.68042356e-01 2.97845393e-01 3.27299356e-01 3.55808228e-01 3.82908672e-01 4.08234000e-01 4.31502193e-01 4.52523410e-01 4.71227288e-01 4.87711698e-01 5.02312362e-01 5.15682042e-01 5.28837919e-01 5.43089151e-01 5.59706092e-01 5.79236090e-01 6.00643158e-01 6.20955288e-01 6.36362195e-01 6.44760907e-01 6.47318602e-01 6.27350092e-01 4.02308434e-01 3.64323229e-01 2.29069829e-01 1.74210310e-01 1.61460057e-01 1.69801325e-01 1.89252108e-01 2.14730218e-01 2.43402123e-01 2.73545772e-01 3.04028749e-01 3.34051460e-01 3.63013774e-01 3.90445232e-01 4.15971965e-01 4.39309806e-01 4.60281402e-01 4.78860497e-01 4.95251209e-01 5.10006130e-01 5.24168968e-01 5.39369285e-01 5.57677746e-01 5.80867946e-01 6.08710349e-01 6.36360168e-01 6.51738644e-01 6.35052383e-01 6.27147377e-01 6.27350092e-01 6.27357066e-01 4.03192312e-01 3.61388713e-01 2.27484003e-01 1.73546046e-01 1.61463886e-01 1.70318827e-01 1.90186709e-01 2.16016263e-01 2.44990259e-01 2.75394887e-01 3.06101054e-01 3.36309403e-01 3.65418047e-01 3.92953694e-01 4.18539792e-01 4.41891909e-01 4.62838441e-01 4.81373042e-01 4.97747391e-01 5.12612224e-01 5.27190626e-01 5.43393075e-01 5.63618422e-01 5.89730442e-01 6.20540023e-01 6.47137046e-01 6.43160582e-01 6.27145529e-01 6.27145708e-01 6.27357066e-01 6.27341211e-01 4.01930869e-01 3.62640411e-01 2.28833452e-01 1.74166188e-01 1.61452830e-01 1.69802293e-01 1.89253852e-01 2.14730293e-01 2.43399844e-01 2.73541451e-01 3.04023236e-01 3.34045708e-01 3.63008529e-01 3.90440881e-01 4.15968597e-01 4.39307362e-01 4.60279673e-01 4.78859305e-01 4.95250404e-01 5.10005653e-01 5.24168670e-01 5.39369047e-01 5.57677388e-01 5.80867290e-01 6.08709037e-01 6.36358142e-01 6.51736021e-01 6.35049522e-01 6.27144575e-01 6.27341211e-01 6.47303104e-01 3.98408592e-01 3.68100345e-01 2.33230621e-01 1.76182285e-01 1.61523432e-01 1.68334931e-01 1.86526313e-01 2.10936457e-01 2.38687158e-01 2.68033683e-01 2.97834188e-01 3.27287644e-01 3.55797529e-01 3.82899821e-01 4.08227175e-01 4.31497186e-01 4.52519864e-01 4.71224815e-01 4.87709969e-01 5.02311230e-01 5.15681267e-01 5.28837383e-01 5.43088734e-01 5.59705377e-01 5.79234719e-01 6.00641012e-01 6.20952249e-01 6.36358440e-01 6.44756794e-01 6.47303104e-01 5.89836240e-01 3.92210424e-01 3.77646565e-01 2.40997314e-01 1.79937333e-01 1.61975816e-01 1.66175902e-01 1.82230741e-01 2.04835027e-01 2.31028855e-01 2.59024471e-01 2.87660003e-01 3.16128552e-01 3.43836695e-01 3.70328605e-01 3.95246416e-01 4.18312699e-01 4.39327955e-01 4.58181143e-01 4.74870592e-01 4.89533097e-01 5.02472639e-01 5.14170825e-01 5.25247812e-01 5.36336005e-01 5.47849953e-01 5.59706211e-01 5.71149707e-01 5.80868542e-01 5.87419510e-01 5.89836240e-01 5.43475270e-01 3.82665396e-01 3.91014129e-01 2.52694786e-01 1.86048254e-01 1.63353279e-01 1.63794592e-01 1.76777646e-01 1.96789265e-01 2.20747456e-01 2.46797115e-01 2.73741961e-01 3.00760716e-01 3.27257901e-01 3.52783233e-01 3.76987427e-01 3.99599433e-01 4.20416832e-01 4.39304441e-01 4.56199318e-01 4.71118152e-01 4.84163016e-01 4.95518804e-01 5.05433261e-01 5.14171660e-01 5.21946847e-01 5.28838992e-01 5.34741580e-01 5.39371073e-01 5.42358935e-01 5.43475270e-01 5.12703896e-01 3.68918449e-01 4.07655984e-01 2.69125074e-01 1.95470631e-01 1.66514173e-01 1.61936343e-01 1.70819476e-01 1.87377661e-01 2.08359748e-01 2.31812611e-01 2.56485552e-01 2.81529307e-01 3.06336761e-01 3.30455631e-01 3.53539944e-01 3.75322551e-01 3.95600379e-01 4.14226770e-01 4.31108356e-01 4.46203738e-01 4.59522009e-01 4.71118301e-01 4.81084645e-01 4.89534140e-01 4.96579945e-01 5.02313018e-01 5.06785631e-01 5.10007799e-01 5.11959672e-01 5.12703896e-01 4.81479287e-01 3.50047857e-01 4.26214486e-01 2.91232854e-01 2.09580988e-01 1.72749415e-01 1.61736518e-01 1.65353775e-01 1.77486479e-01 1.94661275e-01 2.14788988e-01 2.36537963e-01 2.59011954e-01 2.81577647e-01 3.03769439e-01 3.25235307e-01 3.45705181e-01 3.64972293e-01 3.82881552e-01 3.99322420e-01 4.14224178e-01 4.27551836e-01 4.39301908e-01 4.49497074e-01 4.58179533e-01 4.65402931e-01 4.71224040e-01 4.75695133e-01 4.78858829e-01 4.80745316e-01 4.81479287e-01 4.42004204e-01 3.25273275e-01 4.43829358e-01 3.19834322e-01 2.30263337e-01 1.83967829e-01 1.64916113e-01 1.61905453e-01 1.68474674e-01 1.80875659e-01 1.96838155e-01 2.14915946e-01 2.34140724e-01 2.53833860e-01 2.73501188e-01 2.92772412e-01 3.11364949e-01 3.29061598e-01 3.45695794e-01 3.61142308e-01 3.75310093e-01 3.88137311e-01 3.99586678e-01 4.09641355e-01 4.18300748e-01 4.25576121e-01 4.31486100e-01 4.36052501e-01 4.39296454e-01 4.41235304e-01 4.42004204e-01 3.93061310e-01 2.94263840e-01 4.55284864e-01 3.54879886e-01 2.59893537e-01 2.02959180e-01 1.74111947e-01 1.62854329e-01 1.62478596e-01 1.68932483e-01 1.79718867e-01 1.93237156e-01 2.08415613e-01 2.24505782e-01 2.40965754e-01 2.57391989e-01 2.73477823e-01 2.88986951e-01 3.03736031e-01 3.17582905e-01 3.30418289e-01 3.42159450e-01 3.52745265e-01 3.62132341e-01 3.70291650e-01 3.77205312e-01 3.82863969e-01 3.87263924e-01 3.90405118e-01 3.92288864e-01 3.93061310e-01 3.36415917e-01 2.57539034e-01 4.52418685e-01 3.93647552e-01 3.00827682e-01 2.33646154e-01 1.93402588e-01 1.72030240e-01 1.62999094e-01 1.62018731e-01 1.66344702e-01 1.74185351e-01 1.84330195e-01 1.95931017e-01 2.08373964e-01 2.21203431e-01 2.34074250e-01 2.46720389e-01 2.58934230e-01 2.70552725e-01 2.81447202e-01 2.91515887e-01 3.00678611e-01 3.08872491e-01 3.16048861e-01 3.22170675e-01 3.27210277e-01 3.31147671e-01 3.33968937e-01 3.35665077e-01 3.36415917e-01 2.75567263e-01 2.16952011e-01 4.25123274e-01 4.27066267e-01 3.53142917e-01 2.80759066e-01 2.28953496e-01 1.95745334e-01 1.76062241e-01 1.65748239e-01 1.61902264e-01 1.62551969e-01 1.66331887e-01 1.72267601e-01 1.79645821e-01 1.87934697e-01 1.96730658e-01 2.05722272e-01 2.14666396e-01 2.23371416e-01 2.31684834e-01 2.39484236e-01 2.46670842e-01 2.53165007e-01 2.58902758e-01 2.63833225e-01 2.67916381e-01 2.71121532e-01 2.73426145e-01 2.74814725e-01 2.75567263e-01 2.16581464e-01 1.76490366e-01 3.65779489e-01 4.34911519e-01 4.07284439e-01 3.46201599e-01 2.88534760e-01 2.44006246e-01 2.12232113e-01 1.90559894e-01 1.76413894e-01 1.67796582e-01 1.63264304e-01 1.61770180e-01 1.62522271e-01 1.64899915e-01 1.68412194e-01 1.72674179e-01 1.77385926e-01 1.82311997e-01 1.87264919e-01 1.92093715e-01 1.96676224e-01 2.00913563e-01 2.04725817e-01 2.08048791e-01 2.10831568e-01 2.13034540e-01 2.14627996e-01 2.15591371e-01 2.16581464e-01 1.72371909e-01 1.44269243e-01 2.77223736e-01 3.87849420e-01 4.27924395e-01 4.12034750e-01 3.71670306e-01 3.27269375e-01 2.87555784e-01 2.54945546e-01 2.29262903e-01 2.09477484e-01 1.94431812e-01 1.83126032e-01 1.74811438e-01 1.68956980e-01 1.65113881e-01 1.62845433e-01 1.61761120e-01 1.61541209e-01 1.61932424e-01 1.62735179e-01 1.63790688e-01 1.64971530e-01 1.66175023e-01 1.67318687e-01 1.68337002e-01 1.69179112e-01 1.69806778e-01 1.70192108e-01 1.72371909e-01 1.75668359e-01 1.39848217e-01 1.82246879e-01 2.74024904e-01 3.52705121e-01 4.01083648e-01 4.19166714e-01 4.14929003e-01 3.97397101e-01 3.73484433e-01 3.47613841e-01 3.22342098e-01 2.99021840e-01 2.78219491e-01 2.59998709e-01 2.44234771e-01 2.30772167e-01 2.19373479e-01 2.09776297e-01 2.01802164e-01 1.95292562e-01 1.90038577e-01 1.85819641e-01 1.82447076e-01 1.79771870e-01 1.77678078e-01 1.76075742e-01 1.74895972e-01 1.74087852e-01 1.73621818e-01 1.75668359e-01 3.42420638e-01 1.47044376e-01 1.36270657e-01 1.45149887e-01 1.79693371e-01 2.21087322e-01 2.63851643e-01 3.04597199e-01 3.40831399e-01 3.70783865e-01 3.93683821e-01 4.09664035e-01 4.19434726e-01 4.23991561e-01 4.24403906e-01 4.21694845e-01 4.16791856e-01 4.10473198e-01 4.03332472e-01 3.95830959e-01 3.88350576e-01 3.81182998e-01 3.74524683e-01 3.68501246e-01 3.63192976e-01 3.58651221e-01 3.54908139e-01 3.51983279e-01 3.49887162e-01 3.48630190e-01 3.42420638e-01 1.43866971e-01 1.46044016e-01 1.42464682e-01 1.38119176e-01 1.37871549e-01 1.38148531e-01 1.38388723e-01 1.38760149e-01 1.39331266e-01 1.40056327e-01 1.40837610e-01 1.41584769e-01 1.42242819e-01 1.42789423e-01 1.43224865e-01 1.43571049e-01 1.43871263e-01 1.44168004e-01 1.44470707e-01 1.44759938e-01 1.45025164e-01 1.45272434e-01 1.45504817e-01 1.45716518e-01 1.45900026e-01 1.46051154e-01 1.46169230e-01 1.46254718e-01 1.46295711e-01 1.45829037e-01 1.43866971e-01 
