# vtk DataFile Version 2.0
results_case1_non_linear/3_density.vtk, Created by Freefem++ 
ASCII
DATASET UNSTRUCTURED_GRID
POINTS 813 float
0.072266184 0 0
0 0 0
0.13579831 0 0
0.20721059 0 0
0.26206945 0 0
0.56133071 0 0
0.52532597 0 0
0.48960981 0 0
0.43816862 0 0
0.10533296 0.025697017 0
0.051201245 0.023623779 0
0 0.023915006 0
0.59583791 0 0
0.57066025 0.032786326 0
0.16403016 0.027697033 0
0.21652703 0.019875591 0
0.13999456 0.048817834 0
0.39220776 0 0
0.29533586 0 0
0.27392877 0.029309488 0
0.32248432 0 0
0.35352129 0 0
0.54143335 0.041287186 0
0.50979719 0.039283643 0
0.46703768 0.031329004 0
0.41295969 0.027310484 0
0.065641453 0.04831834 0
0 0.04480192 0
0 0.060070053 0
0.62455346 0 0
0.57032139 0.061917414 0
0.60000816 0.033109074 0
0.22625449 0.044991288 0
0.1163218 0.067314505 0
0.19575919 0.061499249 0
0.28328685 0.051025735 0
0.37124202 0.03188622 0
0.31128761 0.040369445 0
0.33853122 0.038669399 0
0.53478794 0.068255149 0
0.44195199 0.048050995 0
0.48939737 0.062616035 0
0.39787277 0.052343584 0
0.059466248 0.06998312 0
0.12043433 0.082743148 0
0 0.074395876 0
0.045848961 0.082144291 0
1 0 0
0.96586451 0.0068090847 0
0.92752687 0 0
0.72010963 0 0
0.66103772 0 0
0.71131131 0.01658217 0
0.77011567 0.013840238 0
0.62973152 0.03029923 0
0.56526456 0.083619437 0
0.59788516 0.067401526 0
0.25642895 0.066290103 0
0.19378658 0.075897545 0
0.29981474 0.067482079 0
0.36270956 0.06270925 0
0.33550579 0.069858366 0
0.52831963 0.085932516 0
0.4371118 0.067169088 0
0.48038065 0.082483928 0
0.40224101 0.076631552 0
0.42982716 0.096875473 0
0.086576135 0.091084625 0
0.18400175 0.089283737 0
0.24057524 0.096478901 0
0.12536384 0.10094575 0
0 0.093632561 0
0.042234028 0.099439821 0
0.06965564 0.1009041 0
1 0.027152271 0
0.94621201 0.022043433 0
0.86842789 0 0
0.80089065 0 0
0.66875597 0.024867443 0
0.70779659 0.033031641 0
0.76415404 0.029427366 0
0.82709654 0.027550119 0
0.84070371 0.017254059 0
0.64109694 0.054890843 0
0.61617243 0.077924681 0
0.56536394 0.10639789 0
0.58432995 0.095948988 0
0.60205045 0.096737721 0
0.26923762 0.083660729 0
0.2941403 0.10227783 0
0.32426748 0.084722881 0
0.37725834 0.088585863 0
0.52912131 0.10642267 0
0.46947598 0.096869928 0
0.49537907 0.12107862 0
0.44714792 0.11495679 0
0.09033447 0.11460641 0
0.18677948 0.10666531 0
0.24980273 0.11524308 0
0.15124848 0.11745847 0
0.11989579 0.12252606 0
0.30050104 0.12412712 0
0.3354126 0.12306848 0
0.040025667 0.11735277 0
0 0.11591452 0
0.068683437 0.12590915 0
1 0.047755449 0
0.93599575 0.032694206 0
0.88883215 0.021630049 0
0.71731255 0.052293248 0
0.68113952 0.049758614 0
0.67402638 0.069725609 0
0.76204881 0.046175578 0
0.75550422 0.064628995 0
0.82266236 0.042631587 0
0.88072624 0.039127418 0
0.64982271 0.08157305 0
0.62973971 0.09850976 0
0.57688056 0.13277477 0
0.62138612 0.11602686 0
0.5984776 0.12075791 0
0.34271072 0.10456959 0
0.38948523 0.13106207 0
0.39781729 0.11013061 0
0.48249148 0.13584541 0
0.54234366 0.13194087 0
0.53033478 0.14504569 0
0.60090001 0.16479362 0
0.37822704 0.1494897 0
0.10078863 0.13811488 0
0.20518334 0.12784901 0
0.2641463 0.13507072 0
0.17267068 0.13972065 0
0.13878392 0.14625965 0
0.31825758 0.14717008 0
0.041182151 0.13893461 0
0 0.13993578 0
0.089990112 0.15551197 0
0.069906134 0.16280648 0
1 0.068249362 0
0.9340251 0.053462358 0
0.71807309 0.073136118 0
0.70023804 0.089824495 0
0.80980086 0.062544421 0
0.78952792 0.077937741 0
0.85525009 0.057423767 0
0.89349389 0.062898614 0
0.92755513 0.077264474 0
0.70212799 0.10710455 0
0.65606527 0.11832559 0
0.66777442 0.10244246 0
0.61402402 0.14750732 0
0.62713195 0.1694986 0
0.63189444 0.13750638 0
0.6563761 0.13877453 0
0.63969456 0.15664602 0
0.43575245 0.13574353 0
0.44267402 0.156625 0
0.49867952 0.15199628 0
0.55366117 0.16626124 0
0.66774021 0.21316576 0
0.58202912 0.16773075 0
0.63405296 0.20037996 0
0.43548645 0.17679442 0
0.48935943 0.18475647 0
0.38852854 0.17484286 0
0.12212762 0.16964419 0
0.15760272 0.16857603 0
0.23995995 0.14922132 0
0.19453061 0.16316675 0
0.31334575 0.16740285 0
0.032809468 0.16124161 0
0 0.17174247 0
0.056566095 0.18408461 0
0.1004765 0.19475871 0
0.076315121 0.20515828 0
1 0.092716582 0
0.96312829 0.079651252 0
0.73923615 0.11680378 0
0.96260344 0.10219956 0
0.75349875 0.10326852 0
0.76399868 0.090664281 0
0.82674298 0.092471136 0
0.85545771 0.079234015 0
0.93226428 0.10523289 0
0.89729463 0.08936065 0
0.69096004 0.13856524 0
0.70537928 0.12421577 0
0.69578437 0.16257992 0
0.68250971 0.20489355 0
0.74213208 0.25570884 0
0.67757586 0.17127604 0
0.69083485 0.19512174 0
0.509996 0.17322723 0
0.56439563 0.18743907 0
0.60225134 0.19715158 0
0.53868228 0.2037506 0
0.72698896 0.26058702 0
0.77772266 0.29812008 0
0.70106454 0.25683101 0
0.64535615 0.22121492 0
0.65512412 0.24206236 0
0.40768342 0.19526792 0
0.49692608 0.20880846 0
0.13129975 0.20482486 0
0.16061954 0.20022247 0
0.19281213 0.19487958 0
0.22571208 0.18933005 0
0.25824643 0.17289381 0
0.34695448 0.19784955 0
0.029436297 0.19354844 0
0 0.20658151 0
0.043823445 0.21647244 0
0.12658235 0.23094379 0
0.051015277 0.23782681 0
0.092167434 0.23460188 0
1 0.12180384 0
0.79775354 0.11818574 0
0.77263311 0.13164543 0
0.97161065 0.13053124 0
0.94237989 0.13167333 0
0.82683018 0.1101302 0
0.87132822 0.10398254 0
0.90684299 0.11779521 0
0.73163567 0.16000726 0
0.75492402 0.14811782 0
0.78375853 0.17300719 0
0.73898852 0.18519238 0
0.76067382 0.21661731 0
0.72354548 0.19810755 0
0.74672155 0.24344468 0
0.78540908 0.28286107 0
0.7436025 0.22696698 0
0.81062278 0.31183212 0
0.57803941 0.21281712 0
0.61995354 0.22756436 0
0.57214863 0.2350084 0
0.76373029 0.30541329 0
0.80453232 0.33228512 0
0.82850072 0.34133394 0
0.6605096 0.26919718 0
0.75325989 0.31076032 0
0.71363125 0.28562037 0
0.6860124 0.27725269 0
0.50291124 0.22761128 0
0.45980234 0.22788924 0
0.56155394 0.25020558 0
0.16738518 0.23784869 0
0.20076498 0.23387174 0
0.2429218 0.22630323 0
0.28561795 0.20784864 0
0.34873238 0.23379666 0
0.41615911 0.2344443 0
0 0.2354446 0
0.13006396 0.2626307 0
0.1630023 0.26381256 0
0 0.26007042 0
0.052432227 0.26372086 0
0.095865292 0.26762532 0
0.8129075 0.15004049 0
1 0.15449918 0
0.84247001 0.13603555 0
0.9697775 0.15847401 0
0.93074128 0.14850039 0
0.88492257 0.13231231 0
0.78168804 0.19483063 0
0.82150506 0.2021028 0
0.82884765 0.17789541 0
0.79284366 0.22604466 0
0.85166247 0.35703962 0
0.78854642 0.24850552 0
0.82072451 0.30096813 0
0.79591483 0.27232403 0
0.84587013 0.33070831 0
0.71490058 0.32371444 0
0.62119992 0.25421998 0
0.61589317 0.27675135 0
0.66726643 0.29378905 0
0.79965293 0.34578211 0
0.83268236 0.36483029 0
0.7404326 0.33167281 0
0.78705061 0.34971039 0
0.75829326 0.33554562 0
0.54617643 0.26565292 0
0.49353693 0.26628667 0
0.61302796 0.296849 0
0.61500571 0.31830404 0
0.24054479 0.26370443 0
0.20145072 0.27581315 0
0.30377014 0.25896724 0
0.4055812 0.27183709 0
0.12537128 0.29175925 0
0.16505159 0.29311616 0
0 0.28393617 0
0.07417338 0.29085069 0
0.86789565 0.3725573 0
0.8638276 0.16488891 0
0.86933068 0.19439244 0
0.97609689 0.18248662 0
1 0.18840911 0
0.89218783 0.16054031 0
0.95086933 0.17881639 0
0.92213887 0.16641506 0
0.82943227 0.23434887 0
0.85379925 0.22040476 0
0.82827638 0.26050879 0
0.87955611 0.35292416 0
0.82955448 0.28356837 0
0.85327735 0.28103579 0
0.84917457 0.30889346 0
0.87721173 0.33568693 0
0.78104213 0.37717797 0
0.73135125 0.35626446 0
0.68070398 0.34364112 0
0.67519718 0.31967528 0
0.78838882 0.40215472 0
0.82737631 0.37854281 0
0.88239702 0.3864323 0
0.85795841 0.38896686 0
0.81641352 0.38760963 0
0.49737209 0.30127701 0
0.56668959 0.30629197 0
0.73720491 0.40247097 0
0.68242852 0.36620972 0
0.64275352 0.36035881 0
0.24992724 0.29533106 0
0.19215066 0.31164363 0
0.31931946 0.30142953 0
0.40834867 0.30964248 0
0.12833353 0.31291267 0
0 0.3006177 0
0.067740732 0.31098166 0
0.89787459 0.36704049 0
0.88240577 0.22754395 0
0.89680536 0.19537931 0
1 0.23033528 0
0.97345813 0.21218819 0
0.92361743 0.1981471 0
0.94788969 0.21042665 0
0.86479581 0.26124031 0
0.90501293 0.34929857 0
0.8713643 0.30011495 0
0.88511235 0.32484633 0
0.90266341 0.39098557 0
0.8291886 0.41793798 0
0.75498215 0.39727845 0
0.81158069 0.43012416 0
0.85544404 0.40556529 0
0.88263314 0.41111521 0
0.85616493 0.42881344 0
0.77424963 0.43659416 0
0.47580399 0.33551882 0
0.57087857 0.34231812 0
0.71075796 0.40616546 0
0.64365795 0.38538864 0
0.74750519 0.43778744 0
0.24221064 0.32643676 0
0.15312034 0.33086341 0
0.33795508 0.33744585 0
0 0.31431496 0
0.082797761 0.3300401 0
0.91758274 0.37429684 0
0.89162863 0.26389091 0
0.9078993 0.24433636 0
0.92283565 0.22952267 0
1 0.27376853 0
0.9725309 0.25372093 0
0.95080211 0.25852424 0
0.92231171 0.35424026 0
0.89615986 0.29436379 0
0.90333072 0.32459286 0
0.91939987 0.41229029 0
0.90521926 0.42403287 0
0.84586067 0.45049002 0
0.81630755 0.45229863 0
0.87732464 0.43192921 0
0.89925243 0.45433119 0
0.86553856 0.46460869 0
0.87744115 0.45713379 0
0.80268719 0.4674254 0
0.83107194 0.4846656 0
0.77501643 0.46784605 0
0.43400155 0.36036217 0
0.55203839 0.36917271 0
0.69273236 0.4232445 0
0.61829547 0.4014348 0
0.73627579 0.46140758 0
0.23464047 0.34828821 0
0.15215481 0.34739403 0
0.34478426 0.37016941 0
0 0.32742839 0
0.085574859 0.34519627 0
1 0.31325193 0
0.93085513 0.39550675 0
0.92134428 0.29394674 0
0.93865586 0.29195381 0
0.94697397 0.28321651 0
0.97661875 0.2984623 0
0.9390534 0.37037925 0
0.92657428 0.32942846 0
0.94413636 0.40366529 0
0.9294557 0.44119528 0
0.91785135 0.47015732 0
0.85188835 0.48436845 0
0.88972118 0.47863398 0
0.90442973 0.50292011 0
0.87427606 0.49472805 0
0.90337023 0.53816888 0
0.80583434 0.49848071 0
0.83798713 0.51160655 0
0.76835353 0.49908234 0
0.51069662 0.39415579 0
0.69095481 0.4531473 0
0.62337153 0.42922522 0
0.72301055 0.49425929 0
0.24022942 0.36984901 0
0.17912178 0.36898252 0
0.33493977 0.39790209 0
0.4356344 0.40409202 0
0 0.34129594 0
0.068449107 0.35683971 0
0.13673538 0.3684438 0
1 0.34907314 0
0.94006756 0.44549983 0
0.95335682 0.34202438 0
0.96995442 0.32965651 0
0.95427877 0.42511633 0
[...]
CELL_DATA 1624
Scalars  Label int 1
LOOKUP_TABLE FreeFempp_table
0
0
0
0
0
0
0
0
0
0
0
0
0
0
0
0
0
0
0
0
0
0
0
0
0
0
0
0
0
0
0
0
0
0
0
0
0
0
0
0
0
0
0
0
0
0
0
0
0
0
0
0
0
0
0
0
0
0
0
0
0
0
0
0
0
0
0
0
0
0
0
0
0
0
0
0
0
0
0
0
0
0
0
0
0
0
0
0
0
0
0
0
0
0
0
0
0
0
0
0
0
0
0
0
0
0
0
0
0
0
0
0
0
0
0
0
0
0
0
0
0
0
0
0
0
0
0
0
0
0
0
0
0
0
0
0
0
0
0
0
0
0
0
0
0
0
0
0
0
0
0
0
0
0
0
0
0
0
0
0
0
0
0
0
0
0
0
0
0
0
0
0
0
0
0
0
0
0
0
0
0
0
0
0
0
0
0
0
0
0
0
0
0
0
0
0
0
0
0
0
0
0
0
0
0
0
0
0
0
0
0
0
0
0
0
0
0
0
0
0
0
0
0
0
0
0
0
0
0
0
0
0
0
0
0
0
0
0
0
0
0
0
0
0
0
0
0
0
0
0
0
0
0
0
0
0
0
0
0
0
0
0
0
0
0
0
0
0
0
0
0
0
0
0
0
0
0
0
0
0
0
0
0
0
0
0
0
0
0
0
0
0
0
0
0
0
0
0
0
0
0
0
0
0
0
0
0
0
0
0
0
0
0
0
0
0
0
0
0
0
0
0
0
0
0
0
0
0
0
0
0
0
0
0
0
0
0
0
0
0
0
0
0
0
0
0
0
0
0
0
0
0
0
0
0
0
0
0
0
0
0
0
0
0
0
0
0
0
0
0
0
0
0
0
0
0
0
0
0
0
0
0
0
0
0
0
0
0
0
0
0
0
0
0
0
0
0
0
0
0
0
0
0
0
0
0
0
0
0
0
0
0
0
0
0
0
0
0
0
0
0
0
0
0
0
0
0
0
0
0
0
0
0
0
0
0
0
0
0
0
0
0
0
0
0
0
0
0
0
0
0
0
0
0
0
0
0
0
0
0
0
0
0
0
0
0
0
0
0
0
0
0
0
0
0
0
0
0
0
0
0
0
0
0
0
0
0
0
0
0
0
0
0
0
0
0
0
0
0
0
0
0
0
0
0
0
0
0
0
0
0
0
0
0
0
0
0
0
0
0
0
0
0
0
0
0
0
0
0
0
0
0
0
0
0
0
0
0
0
0
0
0
0
0
0
0
0
0
0
0
0
0
0
0
0
0
0
0
0
0
0
0
0
0
0
0
0
0
0
0
0
0
0
0
0
0
0
0
0
0
0
0
0
0
0
0
0
0
0
0
0
0
0
0
0
0
0
0
0
0
0
0
0
0
0
0
0
0
0
0
0
0
0
0
0
0
0
0
0
0
0
0
0
0
0
0
0
0
0
0
0
0
0
0
0
0
0
0
0
0
0
0
0
0
0
0
0
0
0
0
0
0
0
0
0
0
0
0
0
0
0
0
0
0
0
0
0
0
0
0
0
0
0
0
0
0
0
0
0
0
0
0
0
0
0
0
0
0
0
0
0
0
0
0
0
0
0
0
0
0
0
0
0
0
0
0
0
0
0
0
0
0
0
0
0
0
0
0
0
0
0
0
0
0
0
0
0
0
0
0
0
0
0
0
0
0
0
0
0
0
0
0
0
0
0
0
0
0
0
0
0
0
0
0
0
0
0
0
0
0
0
0
0
0
0
0
0
0
0
0
0
0
0
0
0
0
0
0
0
0
0
0
0
0
0
0
0
0
0
0
0
0
0
0
0
0
0
0
0
0
0
0
0
0
0
0
0
0
0
0
0
0
0
0
0
0
0
0
0
0
0
0
0
0
0
0
0
0
0
0
0
0
0
0
0
0
0
0
0
0
0
0
0
0
0
0
0
0
0
0
0
0
0
0
0
0
0
0
0
0
0
0
0
0
0
0
0
0
0
0
0
0
0
0
0
0
0
0
0
0
0
0
0
0
0
0
0
0
0
0
0
0
0
0
0
0
0
0
0
0
0
0
0
0
0
0
0
0
0
0
0
0
0
0
0
0
0
0
0
0
0
0
0
0
0
0
0
0
0
0
0
0
0
0
0
0
0
0
0
0
0
0
0
0
0
0
0
0
0
0
0
0
0
0
0
0
0
0
0
0
0
0
0
0
0
0
0
0
0
0
0
0
0
0
0
0
0
0
0
0
0
0
0
0
0
0
0
0
0
0
0
0
0
0
0
0
0
0
0
0
0
0
0
0
0
0
0
0
0
0
0
0
0
0
0
0
0
0
0
0
0
0
0
0
0
0
0
0
0
0
0
0
0
0
0
0
0
0
0
0
0
0
0
0
0
0
0
0
0
0
0
0
0
0
0
0
0
0
0
0
0
0
0
0
0
0
0
0
0
0
0
0
0
0
0
0
0
0
0
0
0
0
0
0
0
0
0
0
0
0
0
0
0
0
0
0
0
0
0
0
0
0
0
0
0
0
0
0
0
0
0
0
0
0
0
0
0
0
0
0
0
0
0
0
0
0
0
0
0
0
0
0
0
0
0
0
0
0
0
0
0
0
0
0
0
0
0
0
0
0
0
0
0
0
0
0
0
0
0
0
0
0
0
0
0
0
0
0
0
0
0
0
0
0
0
0
0
0
0
0
0
0
0
0
0
0
0
0
0
0
0
0
0
0
0
0
0
0
0
0
0
0
0
0
0
0
0
0
0
0
0
0
0
0
0
0
0
0
0
0
0
0
0
0
0
0
0
0
0
0
0
0
0
0
0
0
0
0
0
0
0
0
0
0
0
0
0
0
0
0
0
0
0
0
0
0
0
0
0
0
0
0
0
0
0
0
0
0
0
0
0
0
0
0
0
0
0
0
0
0
0
0
0
0
0
0
0
0
0
0
0
0
0
0
0
0
0
0
0
0
0
0
0
0
0
0
0
0
0
0
0
0
0
0
0
0
0
0
0
0
0
0
0
0
0
0
0
0
0
0
0
0
0
0
0
0
0
0
0
0
0
0
0
0
0
0
0
0
0
0
0
0
0
0
0
0
0
0
0
0
0
0
0
0
0
0
0
0
0
0
0
0
0
0
0
0
0
0
0
0
0
0
0
0
0
0
0
0
0
0
0
0
0
0
0
0
0
0
0
0
0
0
0
0
0
0
0
0
0
0
0
0
0
0
0
0
0
0
0
0
0
0
0
0
0
0
0
0
0
0
0
0
0
0
0
0
0
0
0
0
0
0
0
0
0
0
0
0
0
0
0
0
0
0
0
0
0
0
0
0
0
0
0
0
0
0
0
0
0
0
0
0
0
0
0
0
0
0
0
0
0
0
0
0
0
0
0
0
0
0
0
0
0
0
0
0
0
0
0
0
0
0
0
0
0
0
0
0
0
0
0
0
0
0
0
0
0
0
0
0
1
1
1
1
1
1
1
1
1
1
1
1
1
1
1
1
1
1
1
1
2
2
2
2
2
2
2
2
2
2
2
2
2
2
2
2
2
2
2
2
2
2
2
2
2
2
2
2
2
2
2
2
2
2
3
3
3
3
3
3
3
3
3
3
3
3
3
3
3
3
3
3
3
3
3
3
4
4
4
4
4
4
4
4
4
4
4
4
4
4
4
4
4
4
4
4
4
4
4
4
4
4
4
4

LOOKUP_TABLE FreeFempp_table 5
1.00000000 0.00000000 0.00000000 1.00000000
1.00000000 1.00000000 0.00000000 1.00000000
1.00000000 0.00000000 1.00000000 1.00000000
0.00000000 1.00000000 0.00000000 1.00000000
0.00000000 1.00000000 1.00000000 1.00000000

POINT_DATA 813
FIELD FieldData 1
Density 1 813 float
2.38496587e-01 1.90155625e-01 2.47709557e-01 2.03525752e-01 1.54067010e-01 5.18053174e-01 4.35398549e-01 3.91229004e-01 3.53028059e-01 2.15290070e-01 1.89103186e-01 1.40612274e-01 6.04305983e-01 5.25313020e-01 1.95944399e-01 1.77467465e-01 1.31800354e-01 2.88417697e-01 1.31226137e-01 1.15548886e-01 1.44188032e-01 1.97390944e-01 4.43576366e-01 3.93973619e-01 3.60126257e-01 3.07799995e-01 1.22650981e-01 9.52039883e-02 8.67080614e-02 6.42984331e-01 4.84988809e-01 5.97114086e-01 1.12466022e-01 7.59590492e-02 8.08266327e-02 7.01496080e-02 2.13314265e-01 8.99339616e-02 1.23006448e-01 4.01894957e-01 3.20382297e-01 3.49740177e-01 2.50210255e-01 6.40154406e-02 6.09175488e-02 1.12720154e-01 6.76790476e-02 5.55271327e-01 5.65124393e-01 5.76788783e-01 5.86169481e-01 6.24346673e-01 5.59954584e-01 5.64813733e-01 6.16853654e-01 4.27380115e-01 5.13628960e-01 5.60862310e-02 6.25348240e-02 4.67709862e-02 1.30175322e-01 6.49471954e-02 3.53316724e-01 2.69694090e-01 2.74134815e-01 1.75866902e-01 1.27831176e-01 5.46797998e-02 7.74229914e-02 9.70360339e-02 9.64399129e-02 1.94527656e-01 1.14848629e-01 7.28425235e-02 5.50023913e-01 5.63500702e-01 5.82226932e-01 5.87218463e-01 5.77477157e-01 4.85422522e-01 4.96504903e-01 5.13199925e-01 5.59260786e-01 4.92039293e-01 4.48596239e-01 3.42214882e-01 4.24805552e-01 4.28109467e-01 5.93323559e-02 1.10057466e-01 5.29355742e-02 8.66818354e-02 2.62787282e-01 1.77367389e-01 1.18643209e-01 8.31466541e-02 1.05660237e-01 1.45794466e-01 1.97193339e-01 1.87859148e-01 1.70209467e-01 2.28512019e-01 1.66315645e-01 1.95321038e-01 3.02833885e-01 1.46490976e-01 5.36430478e-01 5.49950421e-01 5.56407571e-01 3.41544390e-01 4.13661599e-01 2.90137172e-01 3.76514167e-01 2.27058157e-01 4.15091932e-01 4.86078829e-01 3.11364621e-01 3.36411357e-01 2.31375471e-01 3.70757550e-01 3.64946157e-01 8.03586394e-02 1.21329501e-01 7.14028999e-02 7.89785460e-02 1.47068217e-01 8.82929787e-02 1.84182242e-01 2.34109700e-01 1.74779639e-01 2.71167785e-01 2.95968890e-01 3.07137966e-01 2.73837030e-01 3.13404828e-01 2.64653504e-01 3.66049111e-01 1.82921335e-01 2.04479530e-01 5.09392619e-01 4.95341152e-01 1.96842849e-01 1.41321555e-01 2.49515325e-01 1.42174378e-01 3.27079326e-01 3.63702834e-01 3.78615767e-01 1.09112866e-01 2.44169161e-01 1.70477197e-01 3.20701480e-01 2.86849380e-01 3.83629352e-01 3.28063577e-01 3.90786499e-01 9.47100595e-02 1.82250947e-01 8.60739946e-02 8.43226463e-02 2.30863631e-01 1.08520918e-01 1.57020926e-01 3.01295191e-01 2.46513620e-01 3.45696062e-01 2.51004219e-01 3.40856701e-01 3.55745018e-01 3.75654608e-01 3.77895296e-01 3.20492834e-01 3.84670228e-01 2.64442980e-01 2.12672904e-01 2.42381364e-01 4.63605493e-01 4.56572086e-01 5.96963540e-02 3.79583627e-01 7.26698712e-02 9.09653679e-02 9.53324735e-02 1.77359372e-01 2.47026101e-01 2.06295654e-01 1.78404123e-01 9.81165990e-02 3.03768843e-01 3.60567659e-01 3.96382898e-01 4.09607977e-01 4.34572041e-01 1.44837782e-01 1.20454237e-01 1.06100082e-01 2.62004018e-01 2.58686930e-01 3.35954636e-01 1.47660673e-01 1.28624946e-01 1.32931978e-01 3.93586397e-01 3.62227231e-01 2.81427115e-01 3.49329531e-01 3.91768277e-01 4.04158264e-01 3.97967607e-01 4.14342284e-01 3.41706932e-01 3.90609503e-01 3.30352992e-01 3.07585657e-01 3.58774781e-01 2.95215696e-01 3.98620665e-01 4.47475202e-02 6.00140132e-02 3.03954899e-01 1.73871070e-01 4.68936972e-02 7.91335627e-02 9.92033258e-02 1.63272440e-01 8.63990113e-02 1.46048561e-01 2.82886982e-01 4.17473108e-01 4.18799788e-01 4.83392239e-01 4.97521520e-01 4.93406802e-01 4.38700646e-01 2.11584464e-01 1.67428657e-01 3.48660320e-01 1.98627040e-01 2.46439517e-01 2.77451068e-01 1.94341823e-01 1.35254994e-01 1.08706266e-01 1.31509408e-01 4.11451489e-01 4.31180179e-01 4.17461187e-01 3.91160280e-01 4.23181564e-01 4.33846653e-01 4.25700486e-01 4.47066158e-01 4.44653928e-01 4.27031606e-01 4.07941133e-01 4.40073729e-01 4.80940044e-01 4.41308290e-01 4.24102426e-01 6.61434904e-02 3.17238748e-01 4.16826718e-02 2.05565542e-01 8.57209712e-02 4.37322110e-02 2.32260287e-01 2.20313549e-01 1.28403008e-01 3.82041276e-01 2.16592938e-01 5.11888504e-01 5.36161363e-01 5.60066938e-01 4.01961356e-01 2.13784456e-01 2.95552552e-01 4.03425306e-01 2.90217698e-01 1.46076024e-01 1.38349235e-01 1.51285410e-01 1.12314083e-01 1.16085604e-01 4.52509403e-01 4.63486105e-01 4.53286648e-01 4.78838652e-01 4.77244109e-01 4.90167648e-01 4.74379987e-01 4.79089409e-01 5.16134322e-01 5.23745060e-01 5.40283501e-01 5.29726684e-01 1.66709602e-01 7.17132166e-02 1.40585676e-01 1.84684142e-01 2.57094413e-01 4.34570462e-02 8.82399902e-02 4.50524241e-02 3.48588824e-01 2.46508598e-01 4.77701277e-01 3.04219991e-01 5.49905896e-01 4.84808654e-01 5.09253621e-01 4.05337363e-01 1.89516634e-01 3.16096544e-01 4.51906413e-01 3.80900562e-01 3.04212898e-01 9.97823030e-02 1.67354286e-01 9.70624834e-02 1.20561980e-01 4.90687340e-01 4.82969195e-01 4.92651016e-01 4.95063901e-01 5.08099198e-01 5.25865436e-01 5.63006759e-01 5.21963894e-01 5.13518989e-01 5.80180168e-01 5.76266766e-01 5.92662096e-01 2.93771744e-01 1.99277118e-01 8.84388685e-02 2.29596615e-01 1.50353551e-01 4.93749380e-02 6.22936524e-02 3.68290275e-01 3.74694616e-01 4.74217862e-01 4.42368120e-01 2.74125904e-01 2.12113142e-01 4.30426449e-01 3.68475378e-01 9.77124870e-02 1.46849081e-01 1.64104581e-01 5.04414320e-01 5.19989371e-01 5.08021533e-01 5.22973001e-01 5.21435618e-01 5.18535256e-01 5.70042729e-01 6.05174243e-01 5.51434219e-01 5.98419666e-01 6.17346108e-01 3.61742616e-01 2.61400163e-01 1.42160386e-01 7.86395371e-02 1.94553852e-01 1.32824451e-01 7.26874322e-02 3.49946171e-01 3.44233066e-01 3.82068276e-01 3.92923743e-01 2.97475517e-01 2.85250664e-01 4.26795691e-01 1.62384212e-01 2.84563363e-01 2.43470713e-01 2.14449987e-01 4.68676001e-01 3.94149452e-01 4.91505474e-01 5.43062508e-01 5.25467813e-01 5.26258349e-01 5.28111100e-01 5.10449409e-01 5.91104686e-01 6.16348922e-01 5.64429224e-01 5.97638071e-01 6.14034951e-01 1.17408641e-01 4.06633317e-01 1.80022985e-01 9.70292464e-02 7.57203326e-02 1.08424284e-01 3.13517839e-01 2.55292386e-01 3.73974413e-01 4.55122650e-01 4.28573906e-01 3.24466616e-01 2.84012377e-01 3.92563999e-01 2.94816554e-01 4.84802723e-01 4.25659776e-01 3.67456228e-01 4.73610640e-01 5.37679911e-01 5.19070745e-01 5.28254747e-01 5.04158854e-01 5.94112158e-01 6.04734600e-01 5.65750778e-01 5.48021972e-01 5.86478829e-01 5.92036843e-01 5.97659409e-01 5.40524535e-02 4.32422191e-01 1.36147514e-01 6.94721267e-02 3.15036803e-01 2.19767392e-01 5.06549776e-01 4.94732708e-01 3.52440536e-01 3.92880231e-01 5.47013402e-01 5.88499486e-01 4.36949462e-01 4.06445205e-01 4.87803012e-01 5.29471278e-01 5.15745759e-01 5.02841949e-01 5.74248314e-01 5.68808794e-01 5.16837358e-01 5.37930071e-01 5.55916667e-01 5.55572212e-01 5.27077138e-01 5.51506460e-01 4.50169183e-02 4.00973797e-01 2.44887769e-01 8.78077671e-02 1.71214491e-01 5.06395578e-01 5.73740304e-01 5.85529625e-01 4.50880200e-01 4.69774961e-01 5.44077754e-01 6.18045986e-01 6.30233765e-01 4.86433864e-01 5.02448976e-01 5.06363332e-01 4.97315228e-01 4.98902291e-01 5.19839346e-01 4.88740444e-01 5.43278337e-01 5.31369269e-01 5.08400142e-01 4.73342806e-01 4.88976210e-01 4.15841401e-01 4.34071064e-01 4.74055767e-01 4.65888411e-01 4.42556769e-01 5.86168729e-02 4.13817376e-01 2.78518975e-01 1.92310676e-01 1.34680778e-01 9.78477299e-02 5.08299589e-01 5.02676666e-01 6.04671299e-01 5.51188290e-01 5.29622018e-01 6.19230509e-01 6.48447335e-01 6.41288400e-01 5.10339260e-01 4.76394862e-01 4.73943651e-01 4.85556096e-01 5.11077881e-01 4.69298303e-01 4.85823452e-01 5.12927234e-01 5.02963006e-01 3.60107839e-01 3.49703401e-01 2.86311090e-01 4.83274639e-01 4.53763902e-01 4.28865612e-01 3.50826710e-01 3.54317218e-01 6.35279417e-02 3.09707373e-01 1.47510752e-01 9.29775089e-02 3.47622156e-01 3.51040572e-01 5.13467014e-01 6.03305817e-01 5.79710662e-01 5.26529789e-01 6.29284263e-01 6.42972112e-01 4.87815142e-01 4.52371418e-01 4.56878126e-01 4.54618722e-01 4.94578898e-01 4.73873794e-01 4.90897298e-01 5.00431538e-01 2.64879882e-01 2.08109036e-01 2.42328584e-01 2.10116699e-01 4.82366234e-01 4.67803299e-01 3.43256712e-01 4.40808952e-01 4.03278857e-01 2.39436403e-01 2.60766923e-01 5.65304831e-02 1.71503514e-01 7.90442377e-02 1.85282022e-01 3.01599294e-01 4.69452202e-01 5.41705072e-01 6.09960318e-01 6.26680970e-01 5.63782930e-01 5.07755280e-01 5.99200785e-01 6.30346239e-01 4.63104844e-01 4.67993885e-01 4.44219798e-01 4.96119618e-01 4.90242511e-01 4.98697609e-01 5.08408546e-01 1.87543333e-01 1.43893629e-01 1.52693927e-01 5.00062585e-01 4.88589466e-01 4.62408155e-01 2.74544448e-01 3.35222393e-01 3.86382937e-01 4.25830454e-01 1.62922218e-01 1.74713314e-01 8.78296420e-02 4.41834070e-02 7.81425014e-02 2.81010643e-02 2.73629390e-02 1.43040895e-01 3.93562078e-01 2.41441175e-01 5.26604414e-01 3.92348647e-01 5.82716882e-01 4.71590608e-01 4.89366204e-01 4.91958827e-01 5.87066472e-01 5.28846979e-01 5.76583266e-01 4.68736559e-01 4.67845082e-01 5.15152872e-01 5.12513697e-01 5.25760174e-01 1.22147672e-01 2.09751815e-01 4.43796128e-01 9.07513648e-02 1.06513277e-01 5.09908378e-01 4.84875441e-01 4.62631136e-01 3.00140113e-01 3.81280690e-01 4.21751708e-01 9.47604403e-02 1.16917603e-01 6.91654757e-02 4.31690440e-02 4.07979041e-02 3.78068723e-02 1.08404830e-01 2.14824170e-01 3.61391217e-01 2.32352659e-01 3.16824734e-01 5.49185932e-01 3.81588429e-01 5.17680824e-01 5.12704670e-01 5.10947227e-01 5.70183873e-01 5.30322373e-01 5.10611415e-01 5.25158286e-01 5.33566833e-01 5.34703732e-01 7.39863664e-02 1.98696613e-01 4.97089744e-01 4.54355568e-01 4.47111934e-01 4.43818159e-02 5.82957305e-02 5.15267253e-01 4.70854312e-01 4.59675074e-01 2.99601197e-01 3.73736173e-01 4.21791852e-01 6.00473285e-02 1.24879554e-01 6.73664138e-02 5.73224090e-02 5.28455414e-02 1.14736423e-01 1.41640663e-01 9.97198299e-02 2.03519136e-01 2.51543492e-01 5.94971299e-01 5.73042870e-01 4.02334571e-01 5.50047040e-01 5.77141821e-01 5.91019332e-01 5.23896813e-01 5.48358381e-01 5.68707049e-01 2.31189206e-01 4.86487836e-01 4.56149459e-01 4.43132311e-01 3.08318436e-02 4.53554869e-01 5.03762066e-01 4.61778253e-01 4.57265079e-02 5.04173219e-01 3.56566817e-01 4.09765512e-01 2.16802552e-01 9.23373029e-02 5.16629577e-01 8.68184865e-02 8.24060515e-02 1.78295299e-01 1.16343908e-01 1.17154419e-01 4.03469771e-01 1.76610902e-01 2.55700380e-01 6.41217232e-01 5.80883801e-01 6.15989625e-01 6.53080225e-01 5.42812586e-01 5.97558498e-01 4.75731760e-01 4.46878344e-01 4.53117579e-01 4.52584833e-01 4.31524068e-01 3.55372019e-02 4.45875019e-01 4.79729682e-01 4.57094401e-01 5.11254147e-02 7.30758831e-02 4.88767982e-01 3.38892162e-01 3.94327074e-01 2.39371002e-01 1.39710084e-01 5.03005385e-01 5.32135665e-01 1.53275475e-01 1.48767188e-01 2.62945294e-01 1.57032251e-01 1.90850958e-01 5.11901379e-01 3.72227401e-01 2.62728810e-01 6.30612493e-01 6.76520467e-01 6.69125021e-01 5.77769518e-01 6.42201781e-01 4.53507543e-01 4.39285368e-01 4.60826069e-01 4.66422826e-01 4.63119835e-01 4.52192947e-02 3.77783440e-02 4.50923264e-01 4.52212542e-01 4.62482005e-01 6.44523650e-02 6.17522560e-02 1.03599958e-01 4.84898955e-01 3.38514179e-01 4.04021472e-01 2.57294685e-01 1.70641080e-01 5.58798671e-01 4.97372925e-01 5.13317287e-01 2.51592219e-01 2.83154190e-01 3.74814570e-01 2.63925046e-01 3.46103668e-01 3.95301700e-01 5.66527963e-01 4.59407121e-01 6.51892185e-01 6.75877452e-01 6.27908826e-01 4.74592835e-01 1.14047632e-01 4.58732009e-01 8.26399624e-02 4.94471073e-01 3.46611679e-01 2.55914360e-01 1.67819887e-01 4.91689354e-01 5.76631427e-01 5.21893322e-01 4.82361048e-01 6.54980898e-01 4.44976181e-01 4.85452831e-01 5.20712614e-01 4.85930979e-01 5.74872255e-01 5.72991014e-01 6.03909552e-01 6.46584511e-01 6.28555000e-01 4.62961137e-01 5.47599196e-01 4.71939504e-01 4.33221877e-01 6.36808872e-01 6.28684521e-01 6.16125762e-01 6.37025356e-01 6.66668773e-01 6.74995601e-01 6.54667497e-01 5.95511794e-01 5.18647790e-01 4.39105898e-01 4.67853397e-01 4.43655103e-01 6.65580273e-01 6.44198477e-01 7.10730851e-01 6.88600779e-01 6.95364892e-01 6.00212216e-01 5.34108520e-01 4.62476969e-01 4.94521856e-01 4.75128323e-01 6.81062698e-01 6.68005407e-01 7.10296571e-01 5.92626929e-01 5.36923707e-01 4.88978148e-01 4.95714873e-01 4.92705435e-01 6.68827116e-01 6.48707867e-01 5.67929029e-01 5.26890934e-01 5.03978670e-01 6.26638234e-01 
