# vtk DataFile Version 2.0
results/3_density.vtk, Created by Freefem++ 
ASCII
DATASET UNSTRUCTURED_GRID
POINTS 961 float
0 0 0
0.033333333 0 0
0.066666667 0 0
0.1 0 0
0.13333333 0 0
0.16666667 0 0
0.2 0 0
0.23333333 0 0
0.26666667 0 0
0.3 0 0
0.33333333 0 0
0.36666667 0 0
0.4 0 0
0.43333333 0 0
0.46666667 0 0
0.5 0 0
0.53333333 0 0
0.56666667 0 0
0.6 0 0
0.63333333 0 0
0.66666667 0 0
0.7 0 0
0.73333333 0 0
0.76666667 0 0
0.8 0 0
0.83333333 0 0
0.86666667 0 0
0.9 0 0
0.93333333 0 0
0.96666667 0 0
1 0 0
0 0.033333333 0
0.033333333 0.033333333 0
0.066666667 0.033333333 0
0.1 0.033333333 0
0.13333333 0.033333333 0
0.16666667 0.033333333 0
0.2 0.033333333 0
0.23333333 0.033333333 0
0.26666667 0.033333333 0
0.3 0.033333333 0
0.33333333 0.033333333 0
0.36666667 0.033333333 0
0.4 0.033333333 0
0.43333333 0.033333333 0
0.46666667 0.033333333 0
0.5 0.033333333 0
0.53333333 0.033333333 0
0.56666667 0.033333333 0
0.6 0.033333333 0
0.63333333 0.033333333 0
0.66666667 0.033333333 0
0.7 0.033333333 0
0.73333333 0.033333333 0
0.76666667 0.033333333 0
0.8 0.033333333 0
0.83333333 0.033333333 0
0.86666667 0.033333333 0
0.9 0.033333333 0
0.93333333 0.033333333 0
0.96666667 0.033333333 0
1 0.033333333 0
0 0.066666667 0
0.033333333 0.066666667 0
0.066666667 0.066666667 0
0.1 0.066666667 0
0.13333333 0.066666667 0
0.16666667 0.066666667 0
0.2 0.066666667 0
0.23333333 0.066666667 0
0.26666667 0.066666667 0
0.3 0.066666667 0
0.33333333 0.066666667 0
0.36666667 0.066666667 0
0.4 0.066666667 0
0.43333333 0.066666667 0
0.46666667 0.066666667 0
0.5 0.066666667 0
0.53333333 0.066666667 0
0.56666667 0.066666667 0
0.6 0.066666667 0
0.63333333 0.066666667 0
0.66666667 0.066666667 0
0.7 0.066666667 0
0.73333333 0.066666667 0
0.76666667 0.066666667 0
0.8 0.066666667 0
0.83333333 0.066666667 0
0.86666667 0.066666667 0
0.9 0.066666667 0
0.93333333 0.066666667 0
0.96666667 0.066666667 0
1 0.066666667 0
0 0.1 0
0.033333333 0.1 0
0.066666667 0.1 0
0.1 0.1 0
0.13333333 0.1 0
0.16666667 0.1 0
0.2 0.1 0
0.23333333 0.1 0
0.26666667 0.1 0
0.3 0.1 0
0.33333333 0.1 0
0.36666667 0.1 0
0.4 0.1 0
0.43333333 0.1 0
0.46666667 0.1 0
0.5 0.1 0
0.53333333 0.1 0
0.56666667 0.1 0
0.6 0.1 0
0.63333333 0.1 0
0.66666667 0.1 0
0.7 0.1 0
0.73333333 0.1 0
0.76666667 0.1 0
0.8 0.1 0
0.83333333 0.1 0
0.86666667 0.1 0
0.9 0.1 0
0.93333333 0.1 0
0.96666667 0.1 0
1 0.1 0
0 0.13333333 0
0.033333333 0.13333333 0
0.066666667 0.13333333 0
0.1 0.13333333 0
0.13333333 0.13333333 0
0.16666667 0.13333333 0
0.2 0.13333333 0
0.23333333 0.13333333 0
0.26666667 0.13333333 0
0.3 0.13333333 0
0.33333333 0.13333333 0
0.36666667 0.13333333 0
0.4 0.13333333 0
0.43333333 0.13333333 0
0.46666667 0.13333333 0
0.5 0.13333333 0
0.53333333 0.13333333 0
0.56666667 0.13333333 0
0.6 0.13333333 0
0.63333333 0.13333333 0
0.66666667 0.13333333 0
0.7 0.13333333 0
0.73333333 0.13333333 0
0.76666667 0.13333333 0
0.8 0.13333333 0
0.83333333 0.13333333 0
0.86666667 0.13333333 0
0.9 0.13333333 0
0.93333333 0.13333333 0
0.96666667 0.13333333 0
1 0.13333333 0
0 0.16666667 0
0.033333333 0.16666667 0
0.066666667 0.16666667 0
0.1 0.16666667 0
0.13333333 0.16666667 0
0.16666667 0.16666667 0
0.2 0.16666667 0
0.23333333 0.16666667 0
0.26666667 0.16666667 0
0.3 0.16666667 0
0.33333333 0.16666667 0
0.36666667 0.16666667 0
0.4 0.16666667 0
0.43333333 0.16666667 0
0.46666667 0.16666667 0
0.5 0.16666667 0
0.53333333 0.16666667 0
0.56666667 0.16666667 0
0.6 0.16666667 0
0.63333333 0.16666667 0
0.66666667 0.16666667 0
0.7 0.16666667 0
0.73333333 0.16666667 0
0.76666667 0.16666667 0
0.8 0.16666667 0
0.83333333 0.16666667 0
0.86666667 0.16666667 0
0.9 0.16666667 0
0.93333333 0.16666667 0
0.96666667 0.16666667 0
1 0.16666667 0
0 0.2 0
0.033333333 0.2 0
0.066666667 0.2 0
0.1 0.2 0
0.13333333 0.2 0
0.16666667 0.2 0
0.2 0.2 0
0.23333333 0.2 0
0.26666667 0.2 0
0.3 0.2 0
0.33333333 0.2 0
0.36666667 0.2 0
0.4 0.2 0
0.43333333 0.2 0
0.46666667 0.2 0
0.5 0.2 0
0.53333333 0.2 0
0.56666667 0.2 0
0.6 0.2 0
0.63333333 0.2 0
0.66666667 0.2 0
0.7 0.2 0
0.73333333 0.2 0
0.76666667 0.2 0
0.8 0.2 0
0.83333333 0.2 0
0.86666667 0.2 0
0.9 0.2 0
0.93333333 0.2 0
0.96666667 0.2 0
1 0.2 0
0 0.23333333 0
0.033333333 0.23333333 0
0.066666667 0.23333333 0
0.1 0.23333333 0
0.13333333 0.23333333 0
0.16666667 0.23333333 0
0.2 0.23333333 0
0.23333333 0.23333333 0
0.26666667 0.23333333 0
0.3 0.23333333 0
0.33333333 0.23333333 0
0.36666667 0.23333333 0
0.4 0.23333333 0
0.43333333 0.23333333 0
0.46666667 0.23333333 0
0.5 0.23333333 0
0.53333333 0.23333333 0
0.56666667 0.23333333 0
0.6 0.23333333 0
0.63333333 0.23333333 0
0.66666667 0.23333333 0
0.7 0.23333333 0
0.73333333 0.23333333 0
0.76666667 0.23333333 0
0.8 0.23333333 0
0.83333333 0.23333333 0
0.86666667 0.23333333 0
0.9 0.23333333 0
0.93333333 0.23333333 0
0.96666667 0.23333333 0
1 0.23333333 0
0 0.26666667 0
0.033333333 0.26666667 0
0.066666667 0.26666667 0
0.1 0.26666667 0
0.13333333 0.26666667 0
0.16666667 0.26666667 0
0.2 0.26666667 0
0.23333333 0.26666667 0
0.26666667 0.26666667 0
0.3 0.26666667 0
0.33333333 0.26666667 0
0.36666667 0.26666667 0
0.4 0.26666667 0
0.43333333 0.26666667 0
0.46666667 0.26666667 0
0.5 0.26666667 0
0.53333333 0.26666667 0
0.56666667 0.26666667 0
0.6 0.26666667 0
0.63333333 0.26666667 0
0.66666667 0.26666667 0
0.7 0.26666667 0
0.73333333 0.26666667 0
0.76666667 0.26666667 0
0.8 0.26666667 0
0.83333333 0.26666667 0
0.86666667 0.26666667 0
0.9 0.26666667 0
0.93333333 0.26666667 0
0.96666667 0.26666667 0
1 0.26666667 0
0 0.3 0
0.033333333 0.3 0
0.066666667 0.3 0
0.1 0.3 0
0.13333333 0.3 0
0.16666667 0.3 0
0.2 0.3 0
0.23333333 0.3 0
0.26666667 0.3 0
0.3 0.3 0
0.33333333 0.3 0
0.36666667 0.3 0
0.4 0.3 0
0.43333333 0.3 0
0.46666667 0.3 0
0.5 0.3 0
0.53333333 0.3 0
0.56666667 0.3 0
0.6 0.3 0
0.63333333 0.3 0
0.66666667 0.3 0
0.7 0.3 0
0.73333333 0.3 0
0.76666667 0.3 0
0.8 0.3 0
0.83333333 0.3 0
0.86666667 0.3 0
0.9 0.3 0
0.93333333 0.3 0
0.96666667 0.3 0
1 0.3 0
0 0.33333333 0
0.033333333 0.33333333 0
0.066666667 0.33333333 0
0.1 0.33333333 0
0.13333333 0.33333333 0
0.16666667 0.33333333 0
0.2 0.33333333 0
0.23333333 0.33333333 0
0.26666667 0.33333333 0
0.3 0.33333333 0
0.33333333 0.33333333 0
0.36666667 0.33333333 0
0.4 0.33333333 0
0.43333333 0.33333333 0
0.46666667 0.33333333 0
0.5 0.33333333 0
0.53333333 0.33333333 0
0.56666667 0.33333333 0
0.6 0.33333333 0
0.63333333 0.33333333 0
0.66666667 0.33333333 0
0.7 0.33333333 0
0.73333333 0.33333333 0
0.76666667 0.33333333 0
0.8 0.33333333 0
0.83333333 0.33333333 0
0.86666667 0.33333333 0
0.9 0.33333333 0
0.93333333 0.33333333 0
0.96666667 0.33333333 0
1 0.33333333 0
0 0.36666667 0
0.033333333 0.36666667 0
0.066666667 0.36666667 0
0.1 0.36666667 0
0.13333333 0.36666667 0
0.16666667 0.36666667 0
0.2 0.36666667 0
0.23333333 0.36666667 0
0.26666667 0.36666667 0
0.3 0.36666667 0
0.33333333 0.36666667 0
0.36666667 0.36666667 0
0.4 0.36666667 0
0.43333333 0.36666667 0
0.46666667 0.36666667 0
0.5 0.36666667 0
0.53333333 0.36666667 0
0.56666667 0.36666667 0
0.6 0.36666667 0
0.63333333 0.36666667 0
0.66666667 0.36666667 0
0.7 0.36666667 0
0.73333333 0.36666667 0
0.76666667 0.36666667 0
0.8 0.36666667 0
0.83333333 0.36666667 0
0.86666667 0.36666667 0
0.9 0.36666667 0
0.93333333 0.36666667 0
0.96666667 0.36666667 0
1 0.36666667 0
0 0.4 0
0.033333333 0.4 0
0.066666667 0.4 0
0.1 0.4 0
0.13333333 0.4 0
0.16666667 0.4 0
0.2 0.4 0
0.23333333 0.4 0
0.26666667 0.4 0
0.3 0.4 0
0.33333333 0.4 0
0.36666667 0.4 0
0.4 0.4 0
0.43333333 0.4 0
0.46666667 0.4 0
0.5 0.4 0
0.53333333 0.4 0
0.56666667 0.4 0
0.6 0.4 0
0.63333333 0.4 0
0.66666667 0.4 0
0.7 0.4 0
0.73333333 0.4 0
0.76666667 0.4 0
0.8 0.4 0
0.83333333 0.4 0
0.86666667 0.4 0
0.9 0.4 0
0.93333333 0.4 0
0.96666667 0.4 0
1 0.4 0
0 0.43333333 0
0.033333333 0.43333333 0
0.066666667 0.43333333 0
0.1 0.43333333 0
0.13333333 0.43333333 0
0.16666667 0.43333333 0
0.2 0.43333333 0
0.23333333 0.43333333 0
0.26666667 0.43333333 0
0.3 0.43333333 0
0.33333333 0.43333333 0
0.36666667 0.43333333 0
0.4 0.43333333 0
0.43333333 0.43333333 0
0.46666667 0.43333333 0
0.5 0.43333333 0
0.53333333 0.43333333 0
0.56666667 0.43333333 0
0.6 0.43333333 0
0.63333333 0.43333333 0
0.66666667 0.43333333 0
0.7 0.43333333 0
0.73333333 0.43333333 0
0.76666667 0.43333333 0
0.8 0.43333333 0
0.83333333 0.43333333 0
0.86666667 0.43333333 0
0.9 0.43333333 0
0.93333333 0.43333333 0
0.96666667 0.43333333 0
1 0.43333333 0
0 0.46666667 0
0.033333333 0.46666667 0
0.066666667 0.46666667 0
0.1 0.46666667 0
0.13333333 0.46666667 0
0.16666667 0.46666667 0
0.2 0.46666667 0
0.23333333 0.46666667 0
0.26666667 0.46666667 0
0.3 0.46666667 0
0.33333333 0.46666667 0
0.36666667 0.46666667 0
0.4 0.46666667 0
0.43333333 0.46666667 0
0.46666667 0.46666667 0
0.5 0.46666667 0
0.53333333 0.46666667 0
0.56666667 0.46666667 0
0.6 0.46666667 0
0.63333333 0.46666667 0
0.66666667 0.46666667 0
0.7 0.46666667 0
0.73333333 0.46666667 0
0.76666667 0.46666667 0
0.8 0.46666667 0
0.83333333 0.46666667 0
0.86666667 0.46666667 0
0.9 0.46666667 0
0.93333333 0.46666667 0
0.96666667 0.46666667 0
1 0.46666667 0
0 0.5 0
0.033333333 0.5 0
0.066666667 0.5 0
0.1 0.5 0
0.13333333 0.5 0
0.16666667 0.5 0
0.2 0.5 0
0.23333333 0.5 0
0.26666667 0.5 0
0.3 0.5 0
0.33333333 0.5 0
0.36666667 0.5 0
0.4 0.5 0
0.43333333 0.5 0
0.46666667 0.5 0
0.5 0.5 0
0.53333333 0.5 0
0.56666667 0.5 0
0.6 0.5 0
0.63333333 0.5 0
0.66666667 0.5 0
0.7 0.5 0
0.73333333 0.5 0
0.76666667 0.5 0
0.8 0.5 0
0.83333333 0.5 0
0.86666667 0.5 0
0.9 0.5 0
0.93333333 0.5 0
0.96666667 0.5 0
1 0.5 0
0 0.53333333 0
0.033333333 0.53333333 0
0.066666667 0.53333333 0
0.1 0.53333333 0
0.13333333 0.53333333 0
0.16666667 0.53333333 0
0.2 0.53333333 0
0.23333333 0.53333333 0
0.26666667 0.53333333 0
0.3 0.53333333 0
0.33333333 0.53333333 0
0.36666667 0.53333333 0
0.4 0.53333333 0
0.43333333 0.53333333 0
0.46666667 0.53333333 0
0.5 0.53333333 0
0.53333333 0.53333333 0
0.56666667 0.53333333 0
0.6 0.53333333 0
0.63333333 0.53333333 0
0.66666667 0.53333333 0
0.7 0.53333333 0
0.73333333 0.53333333 0
0.76666667 0.53333333 0
0.8 0.53333333 0
[...]
CELL_DATA 1920
Scalars  Label int 1
LOOKUP_TABLE FreeFempp_table
0
0
0
0
0
0
0
0
0
0
0
0
0
0
0
0
0
0
0
0
0
0
0
0
0
0
0
0
0
0
0
0
0
0
0
0
0
0
0
0
0
0
0
0
0
0
0
0
0
0
0
0
0
0
0
0
0
0
0
0
0
0
0
0
0
0
0
0
0
0
0
0
0
0
0
0
0
0
0
0
0
0
0
0
0
0
0
0
0
0
0
0
0
0
0
0
0
0
0
0
0
0
0
0
0
0
0
0
0
0
0
0
0
0
0
0
0
0
0
0
0
0
0
0
0
0
0
0
0
0
0
0
0
0
0
0
0
0
0
0
0
0
0
0
0
0
0
0
0
0
0
0
0
0
0
0
0
0
0
0
0
0
0
0
0
0
0
0
0
0
0
0
0
0
0
0
0
0
0
0
0
0
0
0
0
0
0
0
0
0
0
0
0
0
0
0
0
0
0
0
0
0
0
0
0
0
0
0
0
0
0
0
0
0
0
0
0
0
0
0
0
0
0
0
0
0
0
0
0
0
0
0
0
0
0
0
0
0
0
0
0
0
0
0
0
0
0
0
0
0
0
0
0
0
0
0
0
0
0
0
0
0
0
0
0
0
0
0
0
0
0
0
0
0
0
0
0
0
0
0
0
0
0
0
0
0
0
0
0
0
0
0
0
0
0
0
0
0
0
0
0
0
0
0
0
0
0
0
0
0
0
0
0
0
0
0
0
0
0
0
0
0
0
0
0
0
0
0
0
0
0
0
0
0
0
0
0
0
0
0
0
0
0
0
0
0
0
0
0
0
0
0
0
0
0
0
0
0
0
0
0
0
0
0
0
0
0
0
0
0
0
0
0
0
0
0
0
0
0
0
0
0
0
0
0
0
0
0
0
0
0
0
0
0
0
0
0
0
0
0
0
0
0
0
0
0
0
0
0
0
0
0
0
0
0
0
0
0
0
0
0
0
0
0
0
0
0
0
0
0
0
0
0
0
0
0
0
0
0
0
0
0
0
0
0
0
0
0
0
0
0
0
0
0
0
0
0
0
0
0
0
0
0
0
0
0
0
0
0
0
0
0
0
0
0
0
0
0
0
0
0
0
0
0
0
0
0
0
0
0
0
0
0
0
0
0
0
0
0
0
0
0
0
0
0
0
0
0
0
0
0
0
0
0
0
0
0
0
0
0
0
0
0
0
0
0
0
0
0
0
0
0
0
0
0
0
0
0
0
0
0
0
0
0
0
0
0
0
0
0
0
0
0
0
0
0
0
0
0
0
0
0
0
0
0
0
0
0
0
0
0
0
0
0
0
0
0
0
0
0
0
0
0
0
0
0
0
0
0
0
0
0
0
0
0
0
0
0
0
0
0
0
0
0
0
0
0
0
0
0
0
0
0
0
0
0
0
0
0
0
0
0
0
0
0
0
0
0
0
0
0
0
0
0
0
0
0
0
0
0
0
0
0
0
0
0
0
0
0
0
0
0
0
0
0
0
0
0
0
0
0
0
0
0
0
0
0
0
0
0
0
0
0
0
0
0
0
0
0
0
0
0
0
0
0
0
0
0
0
0
0
0
0
0
0
0
0
0
0
0
0
0
0
0
0
0
0
0
0
0
0
0
0
0
0
0
0
0
0
0
0
0
0
0
0
0
0
0
0
0
0
0
0
0
0
0
0
0
0
0
0
0
0
0
0
0
0
0
0
0
0
0
0
0
0
0
0
0
0
0
0
0
0
0
0
0
0
0
0
0
0
0
0
0
0
0
0
0
0
0
0
0
0
0
0
0
0
0
0
0
0
0
0
0
0
0
0
0
0
0
0
0
0
0
0
0
0
0
0
0
0
0
0
0
0
0
0
0
0
0
0
0
0
0
0
0
0
0
0
0
0
0
0
0
0
0
0
0
0
0
0
0
0
0
0
0
0
0
0
0
0
0
0
0
0
0
0
0
0
0
0
0
0
0
0
0
0
0
0
0
0
0
0
0
0
0
0
0
0
0
0
0
0
0
0
0
0
0
0
0
0
0
0
0
0
0
0
0
0
0
0
0
0
0
0
0
0
0
0
0
0
0
0
0
0
0
0
0
0
0
0
0
0
0
0
0
0
0
0
0
0
0
0
0
0
0
0
0
0
0
0
0
0
0
0
0
0
0
0
0
0
0
0
0
0
0
0
0
0
0
0
0
0
0
0
0
0
0
0
0
0
0
0
0
0
0
0
0
0
0
0
0
0
0
0
0
0
0
0
0
0
0
0
0
0
0
0
0
0
0
0
0
0
0
0
0
0
0
0
0
0
0
0
0
0
0
0
0
0
0
0
0
0
0
0
0
0
0
0
0
0
0
0
0
0
0
0
0
0
0
0
0
0
0
0
0
0
0
0
0
0
0
0
0
0
0
0
0
0
0
0
0
0
0
0
0
0
0
0
0
0
0
0
0
0
0
0
0
0
0
0
0
0
0
0
0
0
0
0
0
0
0
0
0
0
0
0
0
0
0
0
0
0
0
0
0
0
0
0
0
0
0
0
0
0
0
0
0
0
0
0
0
0
0
0
0
0
0
0
0
0
0
0
0
0
0
0
0
0
0
0
0
0
0
0
0
0
0
0
0
0
0
0
0
0
0
0
0
0
0
0
0
0
0
0
0
0
0
0
0
0
0
0
0
0
0
0
0
0
0
0
0
0
0
0
0
0
0
0
0
0
0
0
0
0
0
0
0
0
0
0
0
0
0
0
0
0
0
0
0
0
0
0
0
0
0
0
0
0
0
0
0
0
0
0
0
0
0
0
0
0
0
0
0
0
0
0
0
0
0
0
0
0
0
0
0
0
0
0
0
0
0
0
0
0
0
0
0
0
0
0
0
0
0
0
0
0
0
0
0
0
0
0
0
0
0
0
0
0
0
0
0
0
0
0
0
0
0
0
0
0
0
0
0
0
0
0
0
0
0
0
0
0
0
0
0
0
0
0
0
0
0
0
0
0
0
0
0
0
0
0
0
0
0
0
0
0
0
0
0
0
0
0
0
0
0
0
0
0
0
0
0
0
0
0
0
0
0
0
0
0
0
0
0
0
0
0
0
0
0
0
0
0
0
0
0
0
0
0
0
0
0
0
0
0
0
0
0
0
0
0
0
0
0
0
0
0
0
0
0
0
0
0
0
0
0
0
0
0
0
0
0
0
0
0
0
0
0
0
0
0
0
0
0
0
0
0
0
0
0
0
0
0
0
0
0
0
0
0
0
0
0
0
0
0
0
0
0
0
0
0
0
0
0
0
0
0
0
0
0
0
0
0
0
0
0
0
0
0
0
0
0
0
0
0
0
0
0
0
0
0
0
0
0
0
0
0
0
0
0
0
0
0
0
0
0
0
0
0
0
0
0
0
0
0
0
0
0
0
0
0
0
0
0
0
0
0
0
0
0
0
0
0
0
0
0
0
0
0
0
0
0
0
0
0
0
0
0
0
0
0
0
0
0
0
0
0
0
0
0
0
0
0
0
0
0
0
0
0
0
0
0
0
0
0
0
0
0
0
0
0
0
0
0
0
0
0
0
0
0
0
0
0
0
0
0
0
0
0
0
0
0
0
0
0
0
0
0
0
0
0
0
0
0
0
0
0
0
0
0
0
0
0
0
0
0
0
0
0
0
0
0
0
0
0
0
0
0
0
0
0
0
0
0
0
0
0
0
0
0
0
0
0
0
0
0
0
0
0
0
0
0
0
0
0
0
0
0
0
0
0
0
0
0
0
0
0
0
0
0
0
0
0
0
0
0
0
0
0
0
0
0
0
0
0
0
0
0
0
0
0
0
0
0
0
0
0
0
0
0
0
0
0
0
0
0
0
0
0
0
0
0
0
0
0
0
0
0
0
0
0
0
0
0
0
0
0
0
0
0
0
0
0
0
0
0
0
0
0
0
0
0
0
0
0
0
0
0
0
0
0
0
0
0
0
0
0
0
0
0
0
0
0
0
0
0
0
0
0
0
0
0
0
0
0
0
0
0
0
0
0
0
0
0
0
0
0
0
0
0
0
0
0
0
0
0
0
0
0
0
0
0
0
0
0
0
0
0
0
0
1
1
1
1
1
1
1
1
1
1
1
1
1
1
1
1
1
1
1
1
1
1
1
1
1
1
1
1
1
1
2
2
2
2
2
2
2
2
2
2
2
2
2
2
2
2
2
2
2
2
2
2
2
2
2
2
2
2
2
2
3
3
3
3
3
3
3
3
3
3
3
3
3
3
3
3
3
3
3
3
3
3
3
3
3
3
3
3
3
3
4
4
4
4
4
4
4
4
4
4
4
4
4
4
4
4
4
4
4
4
4
4
4
4
4
4
4
4
4
4

LOOKUP_TABLE FreeFempp_table 5
1.00000000 0.00000000 0.00000000 1.00000000
1.00000000 1.00000000 0.00000000 1.00000000
1.00000000 0.00000000 1.00000000 1.00000000
0.00000000 1.00000000 0.00000000 1.00000000
0.00000000 1.00000000 1.00000000 1.00000000

POINT_DATA 961
FIELD FieldData 1
Density 1 961 float
4.76619899e-01 4.51325417e-01 4.51190829e-01 4.50517863e-01 4.50479776e-01 4.50597405e-01 4.50729758e-01 4.51782942e-01 4.52143848e-01 4.51671779e-01 4.50566471e-01 3.79981160e-01 8.85398476e-04 1.27903977e-03 5.21014750e-01 8.11663330e-01 6.47682130e-01 5.74645400e-01 7.28788197e-01 7.11844981e-01 6.85719013e-01 6.46043777e-01 6.03987098e-01 5.79760134e-01 5.65097928e-01 5.57611227e-01 5.51927328e-01 5.47566473e-01 5.45650899e-01 5.48618615e-01 5.34385443e-01 4.26085502e-01 3.81773710e-01 3.86892945e-01 3.78384113e-01 3.76065642e-01 3.75373155e-01 3.74407589e-01 3.72311890e-01 3.73445392e-01 3.71053338e-01 3.77815872e-01 3.53392005e-01 9.22598236e-04 7.52635184e-04 3.44085246e-01 9.33284223e-01 1.50841802e-01 1.92455631e-02 3.83943111e-01 6.59950256e-01 7.06696570e-01 7.00618565e-01 6.72324836e-01 6.25322402e-01 5.92376113e-01 5.68386137e-01 5.61017334e-01 5.55988848e-01 5.53960741e-01 5.54767549e-01 5.45742929e-01 2.10381710e-04 3.64594540e-04 2.94978119e-04 2.70658231e-04 2.68976059e-04 2.68616132e-04 2.57898064e-04 2.72749545e-04 3.40334664e-04 2.90546712e-04 3.12953256e-04 3.64439038e-04 3.29739647e-04 2.64511240e-04 1.44707605e-01 9.70355272e-01 7.46412901e-03 3.48339905e-03 2.22055544e-03 4.61204490e-03 9.90389660e-02 2.74261653e-01 3.69540006e-01 4.50161040e-01 5.10349989e-01 5.15754104e-01 4.92796898e-01 4.89556223e-01 4.91911769e-01 4.89438266e-01 5.16890824e-01 3.33074626e-04 2.40042311e-04 3.13245429e-04 2.75578524e-04 2.68365926e-04 2.68608332e-04 2.62395246e-04 2.26975506e-04 2.79058790e-04 2.76107545e-04 2.98615458e-04 3.33336444e-04 3.86951520e-04 2.14717191e-04 2.21612092e-04 5.24745963e-04 9.67787623e-01 3.23076919e-03 1.46561349e-03 1.09995599e-03 9.26394423e-04 1.17102172e-03 2.05436489e-03 1.68671794e-02 2.60504425e-01 3.89440179e-01 4.28810745e-01 4.09330398e-01 4.08894420e-01 4.02430981e-01 4.68952566e-01 8.92853558e-01 9.22076166e-01 7.79237866e-01 5.64429522e-01 4.87848192e-01 4.95021492e-01 4.99396235e-01 4.82262731e-01 5.01732647e-01 4.76735324e-01 4.58001226e-01 4.31662172e-01 4.07737046e-01 3.51717234e-01 2.70820427e-04 2.82166322e-04 2.79164262e-04 9.94569361e-01 9.35650826e-01 4.16587759e-03 1.19810447e-03 8.70380492e-04 6.76055497e-04 6.21256768e-04 5.65829105e-04 2.09245890e-01 3.48923534e-01 3.57495070e-01 3.38994712e-01 3.28096360e-01 4.11128819e-01 9.19550359e-01 9.75378275e-01 9.70713377e-01 9.42823172e-01 8.53180408e-01 7.66145110e-01 7.10872233e-01 6.68084502e-01 6.27000153e-01 5.90527594e-01 5.57626605e-01 5.28769493e-01 5.04688859e-01 4.83951807e-01 4.65208739e-01 9.30177514e-04 2.50874727e-04 2.58974702e-04 3.98397329e-04 9.90900278e-01 1.25791982e-01 1.24375829e-02 1.64366269e-03 7.81140290e-04 3.99810495e-04 3.63551779e-04 1.94628239e-01 3.13514769e-01 2.79312968e-01 2.70046920e-01 3.45887363e-01 8.63566816e-01 8.49867225e-01 2.20431462e-01 9.68645275e-01 9.49299097e-01 8.91030967e-01 8.22870672e-01 7.66632140e-01 7.19517827e-01 6.78720117e-01 6.43816471e-01 6.14982605e-01 5.92502058e-01 5.75236082e-01 5.71975410e-01 5.66411436e-01 4.73973632e-01 3.50535440e-04 3.00564890e-04 3.00753018e-04 9.49652731e-01 9.52544212e-01 9.62055326e-01 9.36725318e-01 2.42273416e-02 3.50328861e-04 3.37378384e-04 1.20110348e-01 1.69701412e-01 1.86958656e-01 2.56707191e-01 8.28935027e-01 4.55528259e-01 2.05278471e-02 1.05588742e-01 9.43053067e-01 9.24750388e-01 8.65149140e-01 8.10041428e-01 7.64462233e-01 7.25573361e-01 6.92969441e-01 6.67721212e-01 6.49038851e-01 6.35301888e-01 6.28196061e-01 6.33124471e-01 6.38674378e-01 5.88618934e-01 4.66652751e-01 3.35093442e-04 3.54991847e-04 6.34606421e-01 2.54140228e-01 3.01160943e-03 7.15227664e-01 5.05658947e-02 3.48147674e-04 4.27243853e-04 1.66219287e-03 3.11040296e-03 1.55059472e-02 7.66241968e-01 7.82190621e-01 1.17951231e-02 1.32504040e-02 5.60905576e-01 9.10789609e-01 8.68808627e-01 8.11920881e-01 7.68028617e-01 7.31764019e-01 7.01412916e-01 6.78208649e-01 6.62821233e-01 6.54972911e-01 6.54779196e-01 6.62970960e-01 6.78478122e-01 6.85758054e-01 6.62379622e-01 5.70245862e-01 3.74130410e-04 4.27819003e-04 2.37865467e-03 3.88936535e-03 4.40718140e-03 9.94007528e-01 7.87542900e-04 5.38137683e-04 8.53702542e-04 6.87963387e-04 1.08506728e-03 7.22297430e-01 7.91277766e-01 1.47787947e-02 4.94581554e-03 4.06704247e-02 7.88691759e-01 8.47583175e-01 7.90280402e-01 7.43338406e-01 7.07141519e-01 6.75998330e-01 6.50748134e-01 6.33690536e-01 6.26675546e-01 6.30972803e-01 6.47416055e-01 6.76321507e-01 7.13546097e-01 7.47063160e-01 7.66538322e-01 6.63442075e-01 5.65520604e-04 8.57414794e-04 2.04399275e-03 3.71349417e-03 9.18861628e-01 7.24217331e-04 7.06328836e-04 1.87958742e-03 1.12574385e-03 9.47620079e-04 6.87482953e-01 7.72994220e-01 5.41949868e-02 3.09251039e-03 6.21066755e-03 5.26674271e-01 7.89092720e-01 7.56315291e-01 7.05523908e-01 6.67411804e-01 6.33411348e-01 6.02313459e-01 5.76940119e-01 5.60302138e-01 5.55040419e-01 5.64133883e-01 5.92349291e-01 6.42907023e-01 7.09640384e-01 7.95052290e-01 8.60695362e-01 7.55626321e-01 2.34356825e-03 2.73741409e-03 3.29136243e-03 9.89160717e-01 7.54633977e-04 7.12781446e-04 5.19779138e-02 1.45595446e-01 1.47404566e-01 6.57328427e-01 7.41901696e-01 2.78382272e-01 2.61131534e-03 3.25193140e-03 2.22362995e-01 7.00358570e-01 7.07444429e-01 6.63822472e-01 6.26181602e-01 5.91735303e-01 5.56570590e-01 5.22354007e-01 4.91420418e-01 4.65485722e-01 4.47142392e-01 4.44068372e-01 4.66460317e-01 5.21342397e-01 6.12407446e-01 7.68866956e-01 8.93924773e-01 9.17468071e-01 1.88727856e-01 3.06280814e-02 9.89425540e-01 8.44821509e-04 7.56541383e-04 9.94981229e-02 2.40491435e-01 3.22599381e-01 6.29775167e-01 7.06952691e-01 4.29019690e-01 2.79097538e-03 2.32698000e-03 4.49598581e-02 5.97706258e-01 6.49805188e-01 6.20313346e-01 5.89741588e-01 5.60251713e-01 5.27836442e-01 4.92144167e-01 4.53820080e-01 4.12537813e-01 3.68884027e-01 3.30142647e-01 3.08112621e-01 3.09796959e-01 3.49750429e-01 4.62679416e-01 6.80960834e-01 8.66868258e-01 7.15787292e-01 7.89609924e-02 9.83257830e-01 9.05275287e-04 8.12551356e-04 8.02803934e-02 2.79476762e-01 3.69692028e-01 6.03554964e-01 6.71929538e-01 4.94253010e-01 4.11647698e-03 1.78053079e-03 7.35635031e-03 4.91868764e-01 5.93055189e-01 5.75880349e-01 5.58005214e-01 5.38640082e-01 5.16075194e-01 4.88296598e-01 4.53467667e-01 4.09132421e-01 3.54238540e-01 2.94689447e-01 2.44740322e-01 2.10993558e-01 1.99524432e-01 2.24399000e-01 3.19619745e-01 5.26815891e-01 7.43664265e-01 8.03372383e-01 9.78252113e-01 9.83642298e-04 8.79453728e-04 4.99842800e-02 3.03381562e-01 3.98534030e-01 5.80272913e-01 6.35479689e-01 5.32105088e-01 1.14361132e-02 1.35193323e-03 2.42597703e-03 4.02072936e-01 5.36554039e-01 5.32210708e-01 5.27826786e-01 5.21945000e-01 5.14140248e-01 5.01593053e-01 4.79599327e-01 4.43033487e-01 3.88340235e-01 3.18633050e-01 2.49412581e-01 1.96556136e-01 1.70332611e-01 1.81329295e-01 2.49053076e-01 4.46477890e-01 7.89076149e-01 9.29171801e-01 9.43900585e-01 1.11333246e-03 9.98176867e-04 3.53525467e-02 3.22001964e-01 4.22870815e-01 5.60721517e-01 5.99398375e-01 5.42155623e-01 1.06178761e-01 1.12479914e-03 1.42448721e-03 3.34669411e-01 4.81012940e-01 4.90632176e-01 4.97026592e-01 5.04940808e-01 5.14318585e-01 5.21283627e-01 5.18937945e-01 4.99966592e-01 4.57869589e-01 3.91751021e-01 3.17324549e-01 2.65796155e-01 2.62288600e-01 3.35256100e-01 5.21582365e-01 7.55250335e-01 9.01277304e-01 9.33905661e-01 3.46684575e-01 1.25611643e-03 1.13398768e-03 3.30310315e-02 3.40216190e-01 4.46397275e-01 5.44387698e-01 5.66947401e-01 5.35527527e-01 2.87970155e-01 1.03516958e-03 1.14336459e-03 2.68268287e-01 4.30889517e-01 4.50259328e-01 4.65821594e-01 4.85532045e-01 5.11475921e-01 5.38547695e-01 5.58798015e-01 5.65099657e-01 5.51763833e-01 5.18325210e-01 4.82471347e-01 4.93201762e-01 5.96261501e-01 7.31409609e-01 8.35711837e-01 8.95906866e-01 8.90576899e-01 4.68454361e-01 3.86849116e-03 1.26979919e-03 1.26072636e-03 4.20406386e-02 3.69963914e-01 4.72784579e-01 5.30097246e-01 5.38816571e-01 5.24089992e-01 4.04442340e-01 1.08270731e-03 9.88350133e-04 1.28005117e-01 3.82520795e-01 4.09614563e-01 4.34774816e-01 4.64637607e-01 5.03636897e-01 5.46811879e-01 5.86581945e-01 6.17984056e-01 6.39275372e-01 6.54112816e-01 6.77845418e-01 7.34512091e-01 8.00445378e-01 6.78457260e-01 2.79013589e-02 6.53967541e-03 2.54718517e-03 1.76642335e-03 1.65358954e-03 1.73371402e-03 1.74047786e-03 8.17660466e-02 4.08696741e-01 4.95689809e-01 5.17547548e-01 5.13515234e-01 5.11519730e-01 4.59091276e-01 1.43858616e-03 8.21809168e-04 7.47304084e-03 3.32895577e-01 3.68840039e-01 4.05107081e-01 4.43785548e-01 4.90507126e-01 5.41703999e-01 5.92196524e-01 6.40125275e-01 6.86658502e-01 7.34760165e-01 7.87672758e-01 8.41636598e-01 8.68629754e-01 7.39882886e-01 5.73040061e-02 7.97435641e-03 3.84731567e-03 2.16535130e-03 1.69319997e-03 2.26900214e-03 8.20107758e-03 3.03863674e-01 5.35503268e-01 5.38287938e-01 5.07565677e-01 4.91032213e-01 4.94750947e-01 4.75801617e-01 7.06339162e-03 7.36719230e-04 1.29098224e-03 2.97425210e-01 3.30877870e-01 3.77951711e-01 4.24097985e-01 4.72496927e-01 5.21607220e-01 5.71067154e-01 6.23426020e-01 6.82100892e-01 7.47640967e-01 8.13926995e-01 8.67871284e-01 8.92387509e-01 8.40287387e-01 3.57951850e-01 2.33138613e-02 3.12669128e-02 5.76118119e-02 1.81292608e-01 4.81066823e-01 7.01577365e-01 6.92404211e-01 8.15328181e-01 6.59706533e-01 5.00078261e-01 4.73190725e-01 4.74017501e-01 4.68977183e-01 1.75942883e-01 7.48362392e-04 8.69851327e-04 2.65481740e-01 3.05699557e-01 3.56719434e-01 4.07996416e-01 4.51362371e-01 4.88150835e-01 5.24629593e-01 5.68552434e-01 6.26032531e-01 6.98019087e-01 7.75732696e-01 8.41948330e-01 8.81826818e-01 8.84411037e-01 8.11001122e-01 6.35625005e-01 7.03115284e-01 8.94225180e-01 9.41477060e-01 9.37816203e-01 9.23650086e-01 9.10903215e-01 9.17001426e-01 7.83789575e-01 4.93951172e-01 4.59388405e-01 4.58845705e-01 4.56325024e-01 4.08360541e-01 7.45542289e-04 5.24778618e-04 1.45655483e-01 2.84066349e-01 3.43122423e-01 3.96972299e-01 4.28278923e-01 4.44724292e-01 4.59551811e-01 4.84255493e-01 5.26580513e-01 5.89698672e-01 6.68438256e-01 7.47343481e-01 8.08605134e-01 8.42978358e-01 8.49871576e-01 8.46786141e-01 8.73838902e-01 9.08874452e-01 9.11895454e-01 8.96220207e-01 8.81237924e-01 8.75174344e-01 8.90648067e-01 7.91879714e-01 4.88484204e-01 4.47832078e-01 4.46685523e-01 4.45843339e-01 4.31899011e-01 5.75537374e-03 5.08517493e-04 8.57338251e-04 2.68849283e-01 3.32523286e-01 3.86739254e-01 4.01387870e-01 3.94904613e-01 3.86305809e-01 3.87887985e-01 4.06728566e-01 4.46328193e-01 5.04988194e-01 5.73517382e-01 6.36507809e-01 6.80549741e-01 7.02236831e-01 7.08799481e-01 7.13724434e-01 7.21586645e-01 7.23555028e-01 7.20279872e-01 7.24519908e-01 7.43269086e-01 7.78644979e-01 7.08584487e-01 4.83293831e-01 4.37383562e-01 4.36509281e-01 4.39592928e-01 4.35005218e-01 3.33371609e-01 6.08763599e-04 7.10448367e-04 2.77080089e-01 3.30691338e-01 3.75443339e-01 3.71369749e-01 3.44993204e-01 3.17862898e-01 3.00407201e-01 2.97781199e-01 3.12218904e-01 3.42520982e-01 3.83326203e-01 4.24151897e-01 4.51262116e-01 4.57580954e-01 4.52039182e-01 4.50123370e-01 4.59735066e-01 4.80878502e-01 5.12664914e-01 5.51364899e-01 5.92709124e-01 6.33082807e-01 6.08558059e-01 4.78126347e-01 4.27338213e-01 4.27519739e-01 4.35762912e-01 4.39736784e-01 3.93562526e-01 6.01182983e-04 6.18119142e-04 2.96633482e-01 3.47426146e-01 3.68369043e-01 3.44651431e-01 3.03774983e-01 2.65556514e-01 2.36716405e-01 2.20347449e-01 2.17836738e-01 2.28340209e-01 2.49048144e-01 2.74922699e-01 2.97017157e-01 3.05532128e-01 3.02725583e-01 3.04994106e-01 3.24649334e-01 3.60420883e-01 4.05993909e-01 4.53879803e-01 4.97540712e-01 5.30481756e-01 5.43756127e-01 4.73328531e-01 4.18036610e-01 4.19004411e-01 4.31090295e-01 4.45247501e-01 4.20015305e-01 6.23227039e-04 5.98900486e-04 2.21617147e-01 3.67399395e-01 3.66956502e-01 3.25492561e-01 2.76536852e-01 2.34216020e-01 2.00890258e-01 1.77901492e-01 1.66451007e-01 1.66480556e-01 1.76931888e-01 1.96239993e-01 2.20563084e-01 2.40981817e-01 2.49802202e-01 2.53871411e-01 2.69622475e-01 3.05663913e-01 3.56555849e-01 4.08228159e-01 4.48845446e-01 4.74285305e-01 5.08944094e-01 4.69915032e-01 4.11057293e-01 4.11154062e-01 4.23194230e-01 4.47979867e-01 4.45227385e-01 6.94606511e-04 4.87757090e-04 2.32761391e-02 3.91276032e-01 3.69517028e-01 3.15986782e-01 2.65700996e-01 2.24270493e-01 1.90722704e-01 1.65295944e-01 1.49182245e-01 1.43053710e-01 1.46816105e-01 1.60266981e-01 1.82584599e-01 2.08918601e-01 2.29150310e-01 2.38241568e-01 2.45900542e-01 2.67784417e-01 3.11169684e-01 3.67982686e-01 4.16195810e-01 4.39163178e-01 4.87234265e-01 4.69699949e-01 4.09303844e-01 4.07068372e-01 4.13295716e-01 4.40848321e-01 4.78280425e-01 2.47100857e-03 4.62911790e-04 8.94948200e-04 4.10712451e-01 3.77046406e-01 3.20148706e-01 2.73770183e-01 2.35534474e-01 2.03318879e-01 1.77088141e-01 1.57888800e-01 1.46683902e-01 1.43729866e-01 1.48941845e-01 1.62469387e-01 1.83517843e-01 2.07122415e-01 2.25114703e-01 2.35068277e-01 2.44789585e-01 2.66583502e-01 3.09443593e-01 3.69119883e-01 4.06773716e-01 4.69910592e-01 4.76067573e-01 4.18425828e-01 4.15467888e-01 4.12628144e-01 4.23827082e-01 5.01423061e-01 1.53718367e-01 4.92390827e-04 5.88473456e-04 4.04724151e-01 3.84087354e-01 3.38918149e-01 3.01176161e-01 2.67485768e-01 2.36605048e-01 2.08978161e-01 1.85749337e-01 1.67982593e-01 1.55996397e-01 1.49638519e-01 1.49656668e-01 1.58292711e-01 1.76654294e-01 2.00712964e-01 2.22778454e-01 2.38214210e-01 2.48227254e-01 2.62896657e-01 3.02700907e-01 3.57774377e-01 4.52722698e-01 4.96349663e-01 4.50760633e-01 4.59669352e-01 4.61452723e-01 4.52828556e-01 4.79955554e-01 3.40168238e-01 4.81658150e-04 5.25078620e-04 4.02191103e-01 3.90957087e-01 3.66454720e-01 3.43589038e-01 3.19126546e-01 2.91308433e-01 2.59792477e-01 2.25865647e-01 1.92307666e-01 1.62373543e-01 1.39101446e-01 1.25594243e-01 1.24980748e-01 1.38893917e-01 1.65308744e-01 1.97713166e-01 2.27206990e-01 2.45715186e-01 2.49114975e-01 2.46517777e-01 2.60068655e-01 4.19974625e-01 5.24180472e-01 5.08636594e-01 5.17083704e-01 5.28403580e-01 5.30203938e-01 5.23028016e-01 5.79528987e-01 7.90967490e-04 5.90072770e-04 5.11958897e-01 4.65807885e-01 4.53821421e-01 4.45952654e-01 4.37861115e-01 4.26278859e-01 4.07884777e-01 3.80133957e-01 3.42815608e-01 2.99632013e-01 2.58311659e-01 2.28435129e-01 2.18056321e-01 2.30434954e-01 2.61438966e-01 3.00203651e-01 3.35432261e-01 3.59911025e-01 3.68984103e-01 3.50457042e-01 3.15656006e-01 3.81601989e-01 
