# vtk DataFile Version 2.0
results/6_density.vtk, Created by Freefem++ 
ASCII
DATASET UNSTRUCTURED_GRID
POINTS 961 float
0 0 0
0.033333333 0 0
0.066666667 0 0
0.1 0 0
0.13333333 0 0
0.16666667 0 0
0.2 0 0
0.23333333 0 0
0.26666667 0 0
0.3 0 0
0.33333333 0 0
0.36666667 0 0
0.4 0 0
0.43333333 0 0
0.46666667 0 0
0.5 0 0
0.53333333 0 0
0.56666667 0 0
0.6 0 0
0.63333333 0 0
0.66666667 0 0
0.7 0 0
0.73333333 0 0
0.76666667 0 0
0.8 0 0
0.83333333 0 0
0.86666667 0 0
0.9 0 0
0.93333333 0 0
0.96666667 0 0
1 0 0
0 0.033333333 0
0.033333333 0.033333333 0
0.066666667 0.033333333 0
0.1 0.033333333 0
0.13333333 0.033333333 0
0.16666667 0.033333333 0
0.2 0.033333333 0
0.23333333 0.033333333 0
0.26666667 0.033333333 0
0.3 0.033333333 0
0.33333333 0.033333333 0
0.36666667 0.033333333 0
0.4 0.033333333 0
0.43333333 0.033333333 0
0.46666667 0.033333333 0
0.5 0.033333333 0
0.53333333 0.033333333 0
0.56666667 0.033333333 0
0.6 0.033333333 0
0.63333333 0.033333333 0
0.66666667 0.033333333 0
0.7 0.033333333 0
0.73333333 0.033333333 0
0.76666667 0.033333333 0
0.8 0.033333333 0
0.83333333 0.033333333 0
0.86666667 0.033333333 0
0.9 0.033333333 0
0.93333333 0.033333333 0
0.96666667 0.033333333 0
1 0.033333333 0
0 0.066666667 0
0.033333333 0.066666667 0
0.066666667 0.066666667 0
0.1 0.066666667 0
0.13333333 0.066666667 0
0.16666667 0.066666667 0
0.2 0.066666667 0
0.23333333 0.066666667 0
0.26666667 0.066666667 0
0.3 0.066666667 0
0.33333333 0.066666667 0
0.36666667 0.066666667 0
0.4 0.066666667 0
0.43333333 0.066666667 0
0.46666667 0.066666667 0
0.5 0.066666667 0
0.53333333 0.066666667 0
0.56666667 0.066666667 0
0.6 0.066666667 0
0.63333333 0.066666667 0
0.66666667 0.066666667 0
0.7 0.066666667 0
0.73333333 0.066666667 0
0.76666667 0.066666667 0
0.8 0.066666667 0
0.83333333 0.066666667 0
0.86666667 0.066666667 0
0.9 0.066666667 0
0.93333333 0.066666667 0
0.96666667 0.066666667 0
1 0.066666667 0
0 0.1 0
0.033333333 0.1 0
0.066666667 0.1 0
0.1 0.1 0
0.13333333 0.1 0
0.16666667 0.1 0
0.2 0.1 0
0.23333333 0.1 0
0.26666667 0.1 0
0.3 0.1 0
0.33333333 0.1 0
0.36666667 0.1 0
0.4 0.1 0
0.43333333 0.1 0
0.46666667 0.1 0
0.5 0.1 0
0.53333333 0.1 0
0.56666667 0.1 0
0.6 0.1 0
0.63333333 0.1 0
0.66666667 0.1 0
0.7 0.1 0
0.73333333 0.1 0
0.76666667 0.1 0
0.8 0.1 0
0.83333333 0.1 0
0.86666667 0.1 0
0.9 0.1 0
0.93333333 0.1 0
0.96666667 0.1 0
1 0.1 0
0 0.13333333 0
0.033333333 0.13333333 0
0.066666667 0.13333333 0
0.1 0.13333333 0
0.13333333 0.13333333 0
0.16666667 0.13333333 0
0.2 0.13333333 0
0.23333333 0.13333333 0
0.26666667 0.13333333 0
0.3 0.13333333 0
0.33333333 0.13333333 0
0.36666667 0.13333333 0
0.4 0.13333333 0
0.43333333 0.13333333 0
0.46666667 0.13333333 0
0.5 0.13333333 0
0.53333333 0.13333333 0
0.56666667 0.13333333 0
0.6 0.13333333 0
0.63333333 0.13333333 0
0.66666667 0.13333333 0
0.7 0.13333333 0
0.73333333 0.13333333 0
0.76666667 0.13333333 0
0.8 0.13333333 0
0.83333333 0.13333333 0
0.86666667 0.13333333 0
0.9 0.13333333 0
0.93333333 0.13333333 0
0.96666667 0.13333333 0
1 0.13333333 0
0 0.16666667 0
0.033333333 0.16666667 0
0.066666667 0.16666667 0
0.1 0.16666667 0
0.13333333 0.16666667 0
0.16666667 0.16666667 0
0.2 0.16666667 0
0.23333333 0.16666667 0
0.26666667 0.16666667 0
0.3 0.16666667 0
0.33333333 0.16666667 0
0.36666667 0.16666667 0
0.4 0.16666667 0
0.43333333 0.16666667 0
0.46666667 0.16666667 0
0.5 0.16666667 0
0.53333333 0.16666667 0
0.56666667 0.16666667 0
0.6 0.16666667 0
0.63333333 0.16666667 0
0.66666667 0.16666667 0
0.7 0.16666667 0
0.73333333 0.16666667 0
0.76666667 0.16666667 0
0.8 0.16666667 0
0.83333333 0.16666667 0
0.86666667 0.16666667 0
0.9 0.16666667 0
0.93333333 0.16666667 0
0.96666667 0.16666667 0
1 0.16666667 0
0 0.2 0
0.033333333 0.2 0
0.066666667 0.2 0
0.1 0.2 0
0.13333333 0.2 0
0.16666667 0.2 0
0.2 0.2 0
0.23333333 0.2 0
0.26666667 0.2 0
0.3 0.2 0
0.33333333 0.2 0
0.36666667 0.2 0
0.4 0.2 0
0.43333333 0.2 0
0.46666667 0.2 0
0.5 0.2 0
0.53333333 0.2 0
0.56666667 0.2 0
0.6 0.2 0
0.63333333 0.2 0
0.66666667 0.2 0
0.7 0.2 0
0.73333333 0.2 0
0.76666667 0.2 0
0.8 0.2 0
0.83333333 0.2 0
0.86666667 0.2 0
0.9 0.2 0
0.93333333 0.2 0
0.96666667 0.2 0
1 0.2 0
0 0.23333333 0
0.033333333 0.23333333 0
0.066666667 0.23333333 0
0.1 0.23333333 0
0.13333333 0.23333333 0
0.16666667 0.23333333 0
0.2 0.23333333 0
0.23333333 0.23333333 0
0.26666667 0.23333333 0
0.3 0.23333333 0
0.33333333 0.23333333 0
0.36666667 0.23333333 0
0.4 0.23333333 0
0.43333333 0.23333333 0
0.46666667 0.23333333 0
0.5 0.23333333 0
0.53333333 0.23333333 0
0.56666667 0.23333333 0
0.6 0.23333333 0
0.63333333 0.23333333 0
0.66666667 0.23333333 0
0.7 0.23333333 0
0.73333333 0.23333333 0
0.76666667 0.23333333 0
0.8 0.23333333 0
0.83333333 0.23333333 0
0.86666667 0.23333333 0
0.9 0.23333333 0
0.93333333 0.23333333 0
0.96666667 0.23333333 0
1 0.23333333 0
0 0.26666667 0
0.033333333 0.26666667 0
0.066666667 0.26666667 0
0.1 0.26666667 0
0.13333333 0.26666667 0
0.16666667 0.26666667 0
0.2 0.26666667 0
0.23333333 0.26666667 0
0.26666667 0.26666667 0
0.3 0.26666667 0
0.33333333 0.26666667 0
0.36666667 0.26666667 0
0.4 0.26666667 0
0.43333333 0.26666667 0
0.46666667 0.26666667 0
0.5 0.26666667 0
0.53333333 0.26666667 0
0.56666667 0.26666667 0
0.6 0.26666667 0
0.63333333 0.26666667 0
0.66666667 0.26666667 0
0.7 0.26666667 0
0.73333333 0.26666667 0
0.76666667 0.26666667 0
0.8 0.26666667 0
0.83333333 0.26666667 0
0.86666667 0.26666667 0
0.9 0.26666667 0
0.93333333 0.26666667 0
0.96666667 0.26666667 0
1 0.26666667 0
0 0.3 0
0.033333333 0.3 0
0.066666667 0.3 0
0.1 0.3 0
0.13333333 0.3 0
0.16666667 0.3 0
0.2 0.3 0
0.23333333 0.3 0
0.26666667 0.3 0
0.3 0.3 0
0.33333333 0.3 0
0.36666667 0.3 0
0.4 0.3 0
0.43333333 0.3 0
0.46666667 0.3 0
0.5 0.3 0
0.53333333 0.3 0
0.56666667 0.3 0
0.6 0.3 0
0.63333333 0.3 0
0.66666667 0.3 0
0.7 0.3 0
0.73333333 0.3 0
0.76666667 0.3 0
0.8 0.3 0
0.83333333 0.3 0
0.86666667 0.3 0
0.9 0.3 0
0.93333333 0.3 0
0.96666667 0.3 0
1 0.3 0
0 0.33333333 0
0.033333333 0.33333333 0
0.066666667 0.33333333 0
0.1 0.33333333 0
0.13333333 0.33333333 0
0.16666667 0.33333333 0
0.2 0.33333333 0
0.23333333 0.33333333 0
0.26666667 0.33333333 0
0.3 0.33333333 0
0.33333333 0.33333333 0
0.36666667 0.33333333 0
0.4 0.33333333 0
0.43333333 0.33333333 0
0.46666667 0.33333333 0
0.5 0.33333333 0
0.53333333 0.33333333 0
0.56666667 0.33333333 0
0.6 0.33333333 0
0.63333333 0.33333333 0
0.66666667 0.33333333 0
0.7 0.33333333 0
0.73333333 0.33333333 0
0.76666667 0.33333333 0
0.8 0.33333333 0
0.83333333 0.33333333 0
0.86666667 0.33333333 0
0.9 0.33333333 0
0.93333333 0.33333333 0
0.96666667 0.33333333 0
1 0.33333333 0
0 0.36666667 0
0.033333333 0.36666667 0
0.066666667 0.36666667 0
0.1 0.36666667 0
0.13333333 0.36666667 0
0.16666667 0.36666667 0
0.2 0.36666667 0
0.23333333 0.36666667 0
0.26666667 0.36666667 0
0.3 0.36666667 0
0.33333333 0.36666667 0
0.36666667 0.36666667 0
0.4 0.36666667 0
0.43333333 0.36666667 0
0.46666667 0.36666667 0
0.5 0.36666667 0
0.53333333 0.36666667 0
0.56666667 0.36666667 0
0.6 0.36666667 0
0.63333333 0.36666667 0
0.66666667 0.36666667 0
0.7 0.36666667 0
0.73333333 0.36666667 0
0.76666667 0.36666667 0
0.8 0.36666667 0
0.83333333 0.36666667 0
0.86666667 0.36666667 0
0.9 0.36666667 0
0.93333333 0.36666667 0
0.96666667 0.36666667 0
1 0.36666667 0
0 0.4 0
0.033333333 0.4 0
0.066666667 0.4 0
0.1 0.4 0
0.13333333 0.4 0
0.16666667 0.4 0
0.2 0.4 0
0.23333333 0.4 0
0.26666667 0.4 0
0.3 0.4 0
0.33333333 0.4 0
0.36666667 0.4 0
0.4 0.4 0
0.43333333 0.4 0
0.46666667 0.4 0
0.5 0.4 0
0.53333333 0.4 0
0.56666667 0.4 0
0.6 0.4 0
0.63333333 0.4 0
0.66666667 0.4 0
0.7 0.4 0
0.73333333 0.4 0
0.76666667 0.4 0
0.8 0.4 0
0.83333333 0.4 0
0.86666667 0.4 0
0.9 0.4 0
0.93333333 0.4 0
0.96666667 0.4 0
1 0.4 0
0 0.43333333 0
0.033333333 0.43333333 0
0.066666667 0.43333333 0
0.1 0.43333333 0
0.13333333 0.43333333 0
0.16666667 0.43333333 0
0.2 0.43333333 0
0.23333333 0.43333333 0
0.26666667 0.43333333 0
0.3 0.43333333 0
0.33333333 0.43333333 0
0.36666667 0.43333333 0
0.4 0.43333333 0
0.43333333 0.43333333 0
0.46666667 0.43333333 0
0.5 0.43333333 0
0.53333333 0.43333333 0
0.56666667 0.43333333 0
0.6 0.43333333 0
0.63333333 0.43333333 0
0.66666667 0.43333333 0
0.7 0.43333333 0
0.73333333 0.43333333 0
0.76666667 0.43333333 0
0.8 0.43333333 0
0.83333333 0.43333333 0
0.86666667 0.43333333 0
0.9 0.43333333 0
0.93333333 0.43333333 0
0.96666667 0.43333333 0
1 0.43333333 0
0 0.46666667 0
0.033333333 0.46666667 0
0.066666667 0.46666667 0
0.1 0.46666667 0
0.13333333 0.46666667 0
0.16666667 0.46666667 0
0.2 0.46666667 0
0.23333333 0.46666667 0
0.26666667 0.46666667 0
0.3 0.46666667 0
0.33333333 0.46666667 0
0.36666667 0.46666667 0
0.4 0.46666667 0
0.43333333 0.46666667 0
0.46666667 0.46666667 0
0.5 0.46666667 0
0.53333333 0.46666667 0
0.56666667 0.46666667 0
0.6 0.46666667 0
0.63333333 0.46666667 0
0.66666667 0.46666667 0
0.7 0.46666667 0
0.73333333 0.46666667 0
0.76666667 0.46666667 0
0.8 0.46666667 0
0.83333333 0.46666667 0
0.86666667 0.46666667 0
0.9 0.46666667 0
0.93333333 0.46666667 0
0.96666667 0.46666667 0
1 0.46666667 0
0 0.5 0
0.033333333 0.5 0
0.066666667 0.5 0
0.1 0.5 0
0.13333333 0.5 0
0.16666667 0.5 0
0.2 0.5 0
0.23333333 0.5 0
0.26666667 0.5 0
0.3 0.5 0
0.33333333 0.5 0
0.36666667 0.5 0
0.4 0.5 0
0.43333333 0.5 0
0.46666667 0.5 0
0.5 0.5 0
0.53333333 0.5 0
0.56666667 0.5 0
0.6 0.5 0
0.63333333 0.5 0
0.66666667 0.5 0
0.7 0.5 0
0.73333333 0.5 0
0.76666667 0.5 0
0.8 0.5 0
0.83333333 0.5 0
0.86666667 0.5 0
0.9 0.5 0
0.93333333 0.5 0
0.96666667 0.5 0
1 0.5 0
0 0.53333333 0
0.033333333 0.53333333 0
0.066666667 0.53333333 0
0.1 0.53333333 0
0.13333333 0.53333333 0
0.16666667 0.53333333 0
0.2 0.53333333 0
0.23333333 0.53333333 0
0.26666667 0.53333333 0
0.3 0.53333333 0
0.33333333 0.53333333 0
0.36666667 0.53333333 0
0.4 0.53333333 0
0.43333333 0.53333333 0
0.46666667 0.53333333 0
0.5 0.53333333 0
0.53333333 0.53333333 0
0.56666667 0.53333333 0
0.6 0.53333333 0
0.63333333 0.53333333 0
0.66666667 0.53333333 0
0.7 0.53333333 0
0.73333333 0.53333333 0
0.76666667 0.53333333 0
0.8 0.53333333 0
[...]
CELL_DATA 1920
Scalars  Label int 1
LOOKUP_TABLE FreeFempp_table
0
0
0
0
0
0
0
0
0
0
0
0
0
0
0
0
0
0
0
0
0
0
0
0
0
0
0
0
0
0
0
0
0
0
0
0
0
0
0
0
0
0
0
0
0
0
0
0
0
0
0
0
0
0
0
0
0
0
0
0
0
0
0
0
0
0
0
0
0
0
0
0
0
0
0
0
0
0
0
0
0
0
0
0
0
0
0
0
0
0
0
0
0
0
0
0
0
0
0
0
0
0
0
0
0
0
0
0
0
0
0
0
0
0
0
0
0
0
0
0
0
0
0
0
0
0
0
0
0
0
0
0
0
0
0
0
0
0
0
0
0
0
0
0
0
0
0
0
0
0
0
0
0
0
0
0
0
0
0
0
0
0
0
0
0
0
0
0
0
0
0
0
0
0
0
0
0
0
0
0
0
0
0
0
0
0
0
0
0
0
0
0
0
0
0
0
0
0
0
0
0
0
0
0
0
0
0
0
0
0
0
0
0
0
0
0
0
0
0
0
0
0
0
0
0
0
0
0
0
0
0
0
0
0
0
0
0
0
0
0
0
0
0
0
0
0
0
0
0
0
0
0
0
0
0
0
0
0
0
0
0
0
0
0
0
0
0
0
0
0
0
0
0
0
0
0
0
0
0
0
0
0
0
0
0
0
0
0
0
0
0
0
0
0
0
0
0
0
0
0
0
0
0
0
0
0
0
0
0
0
0
0
0
0
0
0
0
0
0
0
0
0
0
0
0
0
0
0
0
0
0
0
0
0
0
0
0
0
0
0
0
0
0
0
0
0
0
0
0
0
0
0
0
0
0
0
0
0
0
0
0
0
0
0
0
0
0
0
0
0
0
0
0
0
0
0
0
0
0
0
0
0
0
0
0
0
0
0
0
0
0
0
0
0
0
0
0
0
0
0
0
0
0
0
0
0
0
0
0
0
0
0
0
0
0
0
0
0
0
0
0
0
0
0
0
0
0
0
0
0
0
0
0
0
0
0
0
0
0
0
0
0
0
0
0
0
0
0
0
0
0
0
0
0
0
0
0
0
0
0
0
0
0
0
0
0
0
0
0
0
0
0
0
0
0
0
0
0
0
0
0
0
0
0
0
0
0
0
0
0
0
0
0
0
0
0
0
0
0
0
0
0
0
0
0
0
0
0
0
0
0
0
0
0
0
0
0
0
0
0
0
0
0
0
0
0
0
0
0
0
0
0
0
0
0
0
0
0
0
0
0
0
0
0
0
0
0
0
0
0
0
0
0
0
0
0
0
0
0
0
0
0
0
0
0
0
0
0
0
0
0
0
0
0
0
0
0
0
0
0
0
0
0
0
0
0
0
0
0
0
0
0
0
0
0
0
0
0
0
0
0
0
0
0
0
0
0
0
0
0
0
0
0
0
0
0
0
0
0
0
0
0
0
0
0
0
0
0
0
0
0
0
0
0
0
0
0
0
0
0
0
0
0
0
0
0
0
0
0
0
0
0
0
0
0
0
0
0
0
0
0
0
0
0
0
0
0
0
0
0
0
0
0
0
0
0
0
0
0
0
0
0
0
0
0
0
0
0
0
0
0
0
0
0
0
0
0
0
0
0
0
0
0
0
0
0
0
0
0
0
0
0
0
0
0
0
0
0
0
0
0
0
0
0
0
0
0
0
0
0
0
0
0
0
0
0
0
0
0
0
0
0
0
0
0
0
0
0
0
0
0
0
0
0
0
0
0
0
0
0
0
0
0
0
0
0
0
0
0
0
0
0
0
0
0
0
0
0
0
0
0
0
0
0
0
0
0
0
0
0
0
0
0
0
0
0
0
0
0
0
0
0
0
0
0
0
0
0
0
0
0
0
0
0
0
0
0
0
0
0
0
0
0
0
0
0
0
0
0
0
0
0
0
0
0
0
0
0
0
0
0
0
0
0
0
0
0
0
0
0
0
0
0
0
0
0
0
0
0
0
0
0
0
0
0
0
0
0
0
0
0
0
0
0
0
0
0
0
0
0
0
0
0
0
0
0
0
0
0
0
0
0
0
0
0
0
0
0
0
0
0
0
0
0
0
0
0
0
0
0
0
0
0
0
0
0
0
0
0
0
0
0
0
0
0
0
0
0
0
0
0
0
0
0
0
0
0
0
0
0
0
0
0
0
0
0
0
0
0
0
0
0
0
0
0
0
0
0
0
0
0
0
0
0
0
0
0
0
0
0
0
0
0
0
0
0
0
0
0
0
0
0
0
0
0
0
0
0
0
0
0
0
0
0
0
0
0
0
0
0
0
0
0
0
0
0
0
0
0
0
0
0
0
0
0
0
0
0
0
0
0
0
0
0
0
0
0
0
0
0
0
0
0
0
0
0
0
0
0
0
0
0
0
0
0
0
0
0
0
0
0
0
0
0
0
0
0
0
0
0
0
0
0
0
0
0
0
0
0
0
0
0
0
0
0
0
0
0
0
0
0
0
0
0
0
0
0
0
0
0
0
0
0
0
0
0
0
0
0
0
0
0
0
0
0
0
0
0
0
0
0
0
0
0
0
0
0
0
0
0
0
0
0
0
0
0
0
0
0
0
0
0
0
0
0
0
0
0
0
0
0
0
0
0
0
0
0
0
0
0
0
0
0
0
0
0
0
0
0
0
0
0
0
0
0
0
0
0
0
0
0
0
0
0
0
0
0
0
0
0
0
0
0
0
0
0
0
0
0
0
0
0
0
0
0
0
0
0
0
0
0
0
0
0
0
0
0
0
0
0
0
0
0
0
0
0
0
0
0
0
0
0
0
0
0
0
0
0
0
0
0
0
0
0
0
0
0
0
0
0
0
0
0
0
0
0
0
0
0
0
0
0
0
0
0
0
0
0
0
0
0
0
0
0
0
0
0
0
0
0
0
0
0
0
0
0
0
0
0
0
0
0
0
0
0
0
0
0
0
0
0
0
0
0
0
0
0
0
0
0
0
0
0
0
0
0
0
0
0
0
0
0
0
0
0
0
0
0
0
0
0
0
0
0
0
0
0
0
0
0
0
0
0
0
0
0
0
0
0
0
0
0
0
0
0
0
0
0
0
0
0
0
0
0
0
0
0
0
0
0
0
0
0
0
0
0
0
0
0
0
0
0
0
0
0
0
0
0
0
0
0
0
0
0
0
0
0
0
0
0
0
0
0
0
0
0
0
0
0
0
0
0
0
0
0
0
0
0
0
0
0
0
0
0
0
0
0
0
0
0
0
0
0
0
0
0
0
0
0
0
0
0
0
0
0
0
0
0
0
0
0
0
0
0
0
0
0
0
0
0
0
0
0
0
0
0
0
0
0
0
0
0
0
0
0
0
0
0
0
0
0
0
0
0
0
0
0
0
0
0
0
0
0
0
0
0
0
0
0
0
0
0
0
0
0
0
0
0
0
0
0
0
0
0
0
0
0
0
0
0
0
0
0
0
0
0
0
0
0
0
0
0
0
0
0
0
0
0
0
0
0
0
0
0
0
0
0
0
0
0
0
0
0
0
0
0
0
0
0
0
0
0
0
0
0
0
0
0
0
0
0
0
0
0
0
0
0
0
0
0
0
0
0
0
0
0
0
0
0
0
0
0
0
0
0
0
0
0
0
0
0
0
0
0
0
0
0
0
0
0
0
0
0
0
0
0
0
0
0
0
0
0
0
0
0
0
0
0
0
0
0
0
0
0
0
0
0
0
0
0
0
0
0
0
0
0
0
0
0
0
0
0
0
0
0
0
0
0
0
0
0
0
0
0
0
0
0
0
0
0
0
0
0
0
0
0
0
0
0
0
0
0
0
0
0
0
0
0
0
0
0
0
0
0
0
0
0
0
0
0
0
0
0
0
0
0
0
0
0
0
0
0
0
0
0
0
0
0
0
0
0
0
0
0
0
0
0
0
0
0
0
0
0
0
0
0
0
0
0
0
0
0
0
0
0
0
0
0
0
0
0
0
0
0
0
0
0
0
0
0
0
0
0
0
0
0
0
0
0
0
0
0
0
0
0
0
0
0
0
0
0
0
0
0
0
0
0
0
0
0
0
0
0
0
0
0
0
0
0
0
0
0
0
0
0
0
0
0
0
0
1
1
1
1
1
1
1
1
1
1
1
1
1
1
1
1
1
1
1
1
1
1
1
1
1
1
1
1
1
1
2
2
2
2
2
2
2
2
2
2
2
2
2
2
2
2
2
2
2
2
2
2
2
2
2
2
2
2
2
2
3
3
3
3
3
3
3
3
3
3
3
3
3
3
3
3
3
3
3
3
3
3
3
3
3
3
3
3
3
3
4
4
4
4
4
4
4
4
4
4
4
4
4
4
4
4
4
4
4
4
4
4
4
4
4
4
4
4
4
4

LOOKUP_TABLE FreeFempp_table 5
1.00000000 0.00000000 0.00000000 1.00000000
1.00000000 1.00000000 0.00000000 1.00000000
1.00000000 0.00000000 1.00000000 1.00000000
0.00000000 1.00000000 0.00000000 1.00000000
0.00000000 1.00000000 1.00000000 1.00000000

POINT_DATA 961
FIELD FieldData 1
Density 1 961 float
1.54681548e-01 9.62803289e-02 8.94607604e-02 8.70110244e-02 8.47758949e-02 8.23240131e-02 7.85654038e-02 7.22281188e-02 5.97949885e-02 2.23152358e-02 3.70219757e-04 2.43608447e-04 5.06635406e-04 1.02746814e-01 1.74721316e-01 2.04721898e-01 2.46576488e-01 3.30872804e-01 4.48891401e-01 5.23422122e-01 4.87181246e-01 4.16938782e-01 4.72924650e-01 6.66841030e-01 7.19792604e-01 5.92460334e-01 4.91580039e-01 5.31449378e-01 5.36710083e-01 5.12974560e-01 3.37106973e-01 1.08832872e-04 1.07549968e-04 1.07291758e-04 1.07681451e-04 1.08543987e-04 1.09431385e-04 1.11167850e-04 1.14626178e-04 1.20909099e-04 1.28933971e-04 1.33885449e-04 1.35847091e-04 1.58302952e-04 4.08698320e-02 1.10732168e-01 1.35685638e-01 1.74679905e-01 2.90032059e-01 5.17343938e-01 7.07620323e-01 6.81767046e-01 4.62429881e-01 3.26866984e-01 4.88288730e-01 6.28353596e-01 6.07913435e-01 6.30284011e-01 5.49848855e-01 5.25210023e-01 6.01659298e-01 4.32966053e-01 1.12876172e-04 1.06940715e-04 1.07427164e-04 1.07346561e-04 1.08039414e-04 1.08703709e-04 1.09391141e-04 1.10781475e-04 1.12926209e-04 1.14832830e-04 1.14839611e-04 1.12138274e-04 1.09939967e-04 1.07720240e-04 1.27648488e-01 1.44143924e-01 1.68995902e-01 2.56164700e-01 4.63335872e-01 6.53967440e-01 5.31839669e-01 1.25974983e-01 2.44720727e-02 2.97391042e-02 1.77960098e-02 2.31683627e-02 4.26187478e-02 9.71407592e-02 2.14584216e-01 2.63519973e-01 2.50346541e-01 9.65643883e-01 9.81395543e-01 8.62750590e-01 5.29286802e-01 4.19599444e-01 7.83956237e-03 5.23694383e-04 2.05136253e-04 1.49232845e-04 1.31473600e-04 1.23921098e-04 1.18986944e-04 1.13907168e-04 1.05431573e-04 1.05190760e-04 1.13669515e-01 1.57219470e-01 2.17276379e-01 3.90697032e-01 5.96120119e-01 3.53650749e-01 1.39822084e-02 1.96951069e-03 2.06028507e-03 2.00923812e-03 2.93474295e-03 4.17546090e-03 9.28234123e-03 5.13022505e-02 1.16150357e-01 1.42420158e-01 9.67404187e-01 9.72302139e-01 9.88654613e-01 9.69128072e-01 8.72453392e-01 7.69343972e-01 6.50858104e-01 4.73116934e-01 3.45317692e-01 2.65838802e-01 2.15045631e-01 1.82522446e-01 1.59145683e-01 1.40270576e-01 1.05632869e-04 1.05889427e-04 1.14114381e-01 1.57960877e-01 3.16415191e-01 5.93191147e-01 4.05556113e-01 6.02056319e-03 6.68599620e-04 4.88322577e-04 4.13711561e-04 5.41988004e-04 8.80819338e-04 2.24602525e-03 1.10442908e-02 7.73102492e-02 1.05402693e-01 8.78365636e-01 2.69564074e-02 2.18492886e-03 9.71742809e-01 9.51683998e-01 8.76220345e-01 8.05458963e-01 6.92324519e-01 5.62166810e-01 4.44288164e-01 3.52272242e-01 2.83975154e-01 2.33566463e-01 1.99732631e-01 1.76545292e-01 1.06261876e-04 1.06780462e-04 7.22233057e-02 1.41144142e-01 5.13158619e-01 7.07094669e-01 4.45566587e-02 9.10186965e-04 5.18989807e-04 2.79405882e-04 2.51928170e-04 2.87620875e-04 6.74582378e-04 3.53614450e-03 5.79716228e-02 1.01078309e-01 7.21269190e-01 6.36799753e-01 5.77957893e-04 1.95937487e-03 9.06743765e-01 8.50294292e-01 7.91960001e-01 7.24835157e-01 6.44406676e-01 5.56608856e-01 4.72603053e-01 3.97968411e-01 3.32755685e-01 2.79037446e-01 2.43917689e-01 1.92440450e-01 1.07404579e-04 1.08133172e-04 4.46070619e-02 1.68424189e-01 7.90344238e-01 6.35709047e-01 1.05948020e-02 1.51722413e-03 6.55518088e-04 2.50309735e-04 1.87279758e-04 2.45836389e-04 1.25615322e-03 4.35068607e-02 1.16277926e-01 6.54217720e-01 6.46023810e-01 3.76567186e-04 6.18933584e-04 5.31508446e-01 7.10895300e-01 6.99275196e-01 6.78897142e-01 6.46598756e-01 6.03177011e-01 5.52910745e-01 4.99231040e-01 4.43729699e-01 3.89284402e-01 3.42321724e-01 3.00479531e-01 2.69007206e-01 1.08918059e-04 1.09707013e-04 4.95512560e-02 3.78278941e-01 9.29658771e-01 5.17831385e-01 1.73804965e-02 4.23102034e-03 1.12657633e-03 1.99974616e-04 1.63935867e-04 3.91356560e-04 4.59437147e-02 1.48532867e-01 5.80309451e-01 6.94510341e-01 3.23344808e-04 3.31771211e-04 1.32723063e-01 4.38431114e-01 5.16088426e-01 5.53612411e-01 5.71955025e-01 5.73356628e-01 5.62968552e-01 5.44734955e-01 5.20907521e-01 4.93802011e-01 4.66084570e-01 4.40382391e-01 4.05686140e-01 8.51491466e-03 1.10616151e-04 1.11936351e-04 4.46914658e-02 7.74945498e-01 9.43097830e-01 4.84305233e-01 4.15665209e-02 9.75724682e-03 4.76230780e-04 1.49063519e-04 1.94426917e-04 8.72981995e-02 1.96252763e-01 4.85418707e-01 6.49379730e-01 3.07243288e-04 1.78374466e-04 3.22930794e-03 2.77476221e-01 3.47592294e-01 4.00374919e-01 4.49062139e-01 4.84975636e-01 5.08483887e-01 5.22789419e-01 5.31599045e-01 5.38789630e-01 5.46029568e-01 5.54860294e-01 5.86084545e-01 5.73407352e-01 7.11484929e-04 1.13902286e-04 1.16670424e-04 1.51138275e-03 9.33893681e-01 9.25357163e-01 6.29646778e-01 6.17816634e-02 5.18926373e-03 1.46321923e-04 1.60070282e-04 1.64118707e-01 2.21658170e-01 4.32107002e-01 5.40688694e-01 1.41169846e-01 1.58690964e-04 2.00454902e-04 1.91193834e-01 2.51912892e-01 2.84896374e-01 3.28774035e-01 3.73795182e-01 4.14714009e-01 4.49805081e-01 4.80857670e-01 5.11934876e-01 5.46721399e-01 5.89179814e-01 6.48093462e-01 7.24741757e-01 6.82999074e-01 5.30864345e-04 1.19418619e-04 1.21925848e-04 1.89110579e-04 8.19560647e-01 9.87138987e-01 8.42541516e-01 3.58311683e-02 1.44900419e-04 1.49782398e-04 1.71143174e-01 1.94714203e-01 3.85621369e-01 4.75439072e-01 2.29732409e-01 1.63281002e-04 1.76438829e-04 1.37723833e-01 1.94387019e-01 2.15948164e-01 2.43776247e-01 2.78799325e-01 3.18021089e-01 3.58999223e-01 3.98811877e-01 4.38850105e-01 4.81511831e-01 5.32968879e-01 6.04703784e-01 7.21235871e-01 8.50381792e-01 8.00853550e-01 1.16524671e-03 1.31941095e-04 1.33240901e-04 1.49060143e-04 1.81572943e-03 9.31891978e-01 6.82520747e-01 1.43638899e-04 1.44842226e-04 1.47940159e-01 1.78580821e-01 3.44982803e-01 4.14525241e-01 2.84104168e-01 1.64781421e-04 1.47394210e-04 6.34328797e-02 1.61160231e-01 1.76959425e-01 1.93068832e-01 2.15315267e-01 2.43418530e-01 2.76705444e-01 3.13938141e-01 3.53788555e-01 3.94735008e-01 4.38309640e-01 4.90055650e-01 5.70536137e-01 7.20984280e-01 8.91692758e-01 9.29648340e-01 6.71675429e-02 2.88521056e-04 1.57526563e-04 1.78243805e-04 6.04472705e-04 9.93932247e-01 1.47924264e-04 1.44810547e-04 1.66383535e-01 2.09171966e-01 3.21432680e-01 3.40671569e-01 2.94057399e-01 2.39266024e-04 1.33538109e-04 2.48843920e-04 1.43904418e-01 1.58782691e-01 1.66041657e-01 1.78489566e-01 1.95355371e-01 2.16606066e-01 2.44243577e-01 2.77677089e-01 3.14506263e-01 3.50330055e-01 3.82646292e-01 4.13881332e-01 4.61550236e-01 5.84017098e-01 7.94861138e-01 8.95621419e-01 9.20823038e-01 7.71653116e-01 5.73196798e-04 7.49950006e-04 9.90956664e-01 1.60687123e-04 1.50567517e-04 2.08541989e-01 2.53910214e-01 3.05073887e-01 3.05873781e-01 2.64704704e-01 1.40715867e-01 1.28794432e-04 1.41524710e-04 1.33490086e-01 1.50506511e-01 1.52287394e-01 1.58067942e-01 1.66983470e-01 1.80734873e-01 2.00766742e-01 2.25860178e-01 2.54816175e-01 2.85373092e-01 3.13944221e-01 3.35628569e-01 3.49120885e-01 3.57128441e-01 3.67763042e-01 4.08275306e-01 5.58522820e-01 8.52425158e-01 8.81014109e-01 9.54434752e-01 9.96900380e-01 1.61318807e-04 1.52631997e-04 2.56319493e-01 2.89427966e-01 2.88060516e-01 2.77399451e-01 2.55678058e-01 1.68959543e-01 1.30246364e-04 1.33497815e-04 1.25332594e-01 1.42470390e-01 1.44720152e-01 1.45867720e-01 1.51222080e-01 1.61221087e-01 1.76701248e-01 1.96649805e-01 2.18397632e-01 2.42509604e-01 2.70280272e-01 2.99879283e-01 3.28910738e-01 3.53008837e-01 3.58585119e-01 3.31317097e-01 2.41916075e-01 1.95130825e-01 5.27562380e-01 9.89857733e-01 9.68923092e-01 1.59428178e-04 1.50763721e-04 3.09057206e-01 3.30035567e-01 2.73395330e-01 2.48981208e-01 2.42747396e-01 1.90406844e-01 1.32008703e-04 1.24066748e-04 8.89729783e-02 1.38620749e-01 1.40739769e-01 1.40037939e-01 1.43686652e-01 1.52178779e-01 1.64945319e-01 1.80155396e-01 1.96713716e-01 2.16386467e-01 2.41300300e-01 2.75679886e-01 3.22960466e-01 3.85023803e-01 4.45337355e-01 4.73791569e-01 4.33147371e-01 5.24972916e-01 9.01422858e-01 9.85442996e-01 1.98065359e-02 1.79780051e-04 1.57208851e-04 3.69161665e-01 3.87919694e-01 2.64326811e-01 2.29592338e-01 2.20517352e-01 1.98995531e-01 1.68808401e-04 1.18951953e-04 1.81452517e-04 1.34659126e-01 1.39702141e-01 1.39355838e-01 1.42637685e-01 1.50080368e-01 1.59947708e-01 1.70213729e-01 1.81461424e-01 1.96049601e-01 2.18116432e-01 2.54020959e-01 3.12831551e-01 4.07188773e-01 5.39061069e-01 6.68160081e-01 7.62571514e-01 8.65554214e-01 9.54429984e-01 3.49665523e-01 2.31089420e-03 2.51470046e-04 1.92964173e-04 4.44454581e-01 4.64796096e-01 2.58219451e-01 2.17405975e-01 2.10950062e-01 1.90313593e-01 1.26926124e-01 1.17449941e-04 1.24322367e-04 1.28691703e-01 1.37835935e-01 1.40904069e-01 1.45285279e-01 1.51763588e-01 1.58393309e-01 1.64177597e-01 1.70551777e-01 1.80199817e-01 1.96834922e-01 2.27809042e-01 2.87511975e-01 4.01177824e-01 5.85756183e-01 7.73674607e-01 8.75566363e-01 8.89850199e-01 6.63397372e-01 2.26111803e-02 1.46817707e-03 4.22972662e-04 3.01474181e-04 4.47340369e-01 5.50978839e-01 2.51610130e-01 2.06188038e-01 2.03353971e-01 1.89854190e-01 1.52798057e-01 1.19196789e-04 1.20768498e-04 1.25149295e-01 1.35474220e-01 1.41771078e-01 1.48941815e-01 1.54980734e-01 1.58347175e-01 1.59163237e-01 1.60027489e-01 1.64406911e-01 1.74635053e-01 1.96739540e-01 2.43309304e-01 3.40501457e-01 5.25183558e-01 7.45530069e-01 8.74374688e-01 9.08924937e-01 8.28225672e-01 1.07365824e-01 5.49664535e-03 1.12063123e-03 6.37066609e-04 2.39430472e-01 5.97811580e-01 2.45107368e-01 1.95042014e-01 1.93481728e-01 1.88712880e-01 1.67105362e-01 1.19216318e-04 1.19372009e-04 1.23422734e-01 1.33808136e-01 1.42142504e-01 1.53117269e-01 1.58628955e-01 1.57918364e-01 1.55237257e-01 1.49322614e-01 1.47051051e-01 1.49558648e-01 1.61008775e-01 1.89188063e-01 2.49386713e-01 3.72179657e-01 5.70265174e-01 7.59799659e-01 8.63229871e-01 8.97009909e-01 8.67976904e-01 6.61992610e-01 5.06872125e-02 3.89799615e-03 6.52116895e-01 7.10340142e-01 2.39405632e-01 1.85868695e-01 1.85196161e-01 1.82747141e-01 1.77219406e-01 1.16305877e-04 1.09804045e-04 1.03360891e-01 1.32303074e-01 1.43290937e-01 1.58069193e-01 1.61765873e-01 1.54674500e-01 1.49166912e-01 1.39898539e-01 1.30825162e-01 1.24151871e-01 1.25071913e-01 1.38067245e-01 1.68533534e-01 2.23983109e-01 3.00250500e-01 3.97083133e-01 5.46615481e-01 7.25167871e-01 8.46915603e-01 8.92962575e-01 8.85453165e-01 8.19908082e-01 9.46041405e-01 8.39497209e-01 2.33844370e-01 1.77963257e-01 1.78903893e-01 1.80003583e-01 1.73676178e-01 1.69049531e-01 1.09406261e-04 1.15209907e-04 1.28194943e-01 1.44164726e-01 1.61321864e-01 1.61046878e-01 1.46790564e-01 1.38165578e-01 1.29292279e-01 1.16422020e-01 1.01716176e-01 9.37062353e-02 9.63885039e-02 1.09643385e-01 1.31274000e-01 1.34548679e-01 1.10524334e-01 1.09393016e-01 1.65944755e-01 3.12987089e-01 5.52043676e-01 7.63191104e-01 8.72102976e-01 9.36340988e-01 8.24822426e-01 2.28405848e-01 1.70260236e-01 1.73230812e-01 1.78518489e-01 1.75641432e-01 1.49960011e-01 1.15214745e-04 1.16336734e-04 1.25923246e-01 1.43401936e-01 1.59229383e-01 1.51842356e-01 1.31926224e-01 1.21630289e-01 1.14988185e-01 1.01257339e-01 8.35810527e-02 7.08560199e-02 6.67345971e-02 7.11933300e-02 8.28971788e-02 7.92164654e-02 4.60867807e-02 2.63137221e-02 2.63525974e-02 4.69808951e-02 1.06610119e-01 2.32472271e-01 4.33314174e-01 6.29442394e-01 5.90038359e-01 2.23781392e-01 1.63227737e-01 1.66716456e-01 1.75880939e-01 1.80573925e-01 1.61000490e-01 1.13901078e-04 1.14621915e-04 1.32440835e-01 1.46203250e-01 1.53273106e-01 1.39938414e-01 1.12980939e-01 1.02979749e-01 1.00599177e-01 8.87823254e-02 7.06415698e-02 5.63422553e-02 4.95182462e-02 5.04030399e-02 6.07165955e-02 6.96263611e-02 4.61039618e-02 1.93790961e-02 1.09998314e-02 1.26044685e-02 3.09780091e-02 8.41883421e-02 1.66780651e-01 2.48751879e-01 3.28161925e-01 2.19516188e-01 1.57250911e-01 1.59911811e-01 1.71264812e-01 1.87927827e-01 1.76760122e-01 1.13329486e-04 1.13810573e-04 1.36352703e-01 1.49566531e-01 1.46148309e-01 1.35472000e-01 9.94233266e-02 8.84721130e-02 8.90340284e-02 8.22371319e-02 6.66452274e-02 5.22587337e-02 4.33735698e-02 4.10763212e-02 4.89827096e-02 6.73979446e-02 6.57896250e-02 3.26337963e-02 1.16388015e-02 6.48748642e-03 9.81272198e-03 3.87874171e-02 1.06714830e-01 1.58439681e-01 2.40168616e-01 2.16784701e-01 1.53004691e-01 1.53808281e-01 1.63026005e-01 1.92303911e-01 2.13149309e-01 1.12509239e-04 1.08245818e-04 1.48004398e-01 1.51107267e-01 1.40647903e-01 1.37066051e-01 9.77298990e-02 8.29696357e-02 8.36887062e-02 8.27050507e-02 7.16752186e-02 5.85695915e-02 4.79441099e-02 4.15267311e-02 4.40955795e-02 6.24876656e-02 8.13749805e-02 6.15639314e-02 2.31844019e-02 6.47018198e-03 4.23905812e-03 1.18273031e-02 6.71306029e-02 1.30241007e-01 2.14804247e-01 2.18365595e-01 1.52872950e-01 1.51275262e-01 1.54738724e-01 1.75360948e-01 2.18954384e-01 2.43382776e-04 1.08343789e-04 1.15900672e-04 1.56292409e-01 1.38023779e-01 1.35790825e-01 1.09074309e-01 8.86349529e-02 8.71898755e-02 8.97233710e-02 8.41545761e-02 7.36755356e-02 6.23972788e-02 5.12693375e-02 4.54840139e-02 5.53580821e-02 7.88237453e-02 7.98394382e-02 4.48583774e-02 1.23479636e-02 3.39791365e-03 4.32123896e-03 2.32645888e-02 1.07017137e-01 2.06257194e-01 2.25768387e-01 1.60512581e-01 1.57808498e-01 1.56218395e-01 1.63400456e-01 2.00941041e-01 1.83055520e-01 1.12652655e-04 1.14321767e-04 1.62083372e-01 1.40763566e-01 1.30839020e-01 1.28084570e-01 1.08237781e-01 1.03033073e-01 1.03030369e-01 1.00699276e-01 9.31378901e-02 8.23825151e-02 6.76231608e-02 5.03364541e-02 3.97045463e-02 4.54325005e-02 6.06200621e-02 6.46730289e-02 3.52791995e-02 6.95680920e-03 2.63763592e-03 1.60285849e-02 4.77131829e-02 1.92458540e-01 2.43154615e-01 1.83063611e-01 1.81631252e-01 1.80514619e-01 1.78892702e-01 1.86736688e-01 1.80894136e-01 1.10492176e-04 1.13977047e-04 1.39944434e-01 1.36421695e-01 1.26178071e-01 1.35234416e-01 1.37092397e-01 1.31612033e-01 1.26418471e-01 1.23524003e-01 1.17201529e-01 1.04800403e-01 8.47410485e-02 5.65442964e-02 2.86598317e-02 1.58858430e-02 2.79317126e-02 5.62653691e-02 1.54822990e-01 2.78910846e-02 1.96045381e-03 4.20733169e-03 1.32583417e-02 1.54771999e-01 2.87174582e-01 2.53292680e-01 2.54796892e-01 2.56924719e-01 2.58444816e-01 2.51184911e-01 2.24620506e-01 1.08492903e-04 1.12764123e-04 6.60299361e-02 2.01791272e-01 1.91998586e-01 1.93868890e-01 2.04678282e-01 2.10185379e-01 2.14090347e-01 2.12650508e-01 2.07265466e-01 1.96365476e-01 1.76509783e-01 1.44741043e-01 9.25363079e-02 4.23073657e-02 4.15065177e-02 9.36268345e-02 3.66176069e-01 3.06306303e-01 2.43816562e-02 1.11579895e-02 1.33823603e-02 3.68343890e-02 
