# vtk DataFile Version 2.0
results_case1_non_linear/iter0.vtk, Created by Freefem++ 
ASCII
DATASET UNSTRUCTURED_GRID
POINTS 961 float
0 0 0
0.033333333 0 0
0.066666667 0 0
0.1 0 0
0.13333333 0 0
0.16666667 0 0
0.2 0 0
0.23333333 0 0
0.26666667 0 0
0.3 0 0
0.33333333 0 0
0.36666667 0 0
0.4 0 0
0.43333333 0 0
0.46666667 0 0
0.5 0 0
0.53333333 0 0
0.56666667 0 0
0.6 0 0
0.63333333 0 0
0.66666667 0 0
0.7 0 0
0.73333333 0 0
0.76666667 0 0
0.8 0 0
0.83333333 0 0
0.86666667 0 0
0.9 0 0
0.93333333 0 0
0.96666667 0 0
1 0 0
0 0.033333333 0
0.033333333 0.033333333 0
0.066666667 0.033333333 0
0.1 0.033333333 0
0.13333333 0.033333333 0
0.16666667 0.033333333 0
0.2 0.033333333 0
0.23333333 0.033333333 0
0.26666667 0.033333333 0
0.3 0.033333333 0
0.33333333 0.033333333 0
0.36666667 0.033333333 0
0.4 0.033333333 0
0.43333333 0.033333333 0
0.46666667 0.033333333 0
0.5 0.033333333 0
0.53333333 0.033333333 0
0.56666667 0.033333333 0
0.6 0.033333333 0
0.63333333 0.033333333 0
0.66666667 0.033333333 0
0.7 0.033333333 0
0.73333333 0.033333333 0
0.76666667 0.033333333 0
0.8 0.033333333 0
0.83333333 0.033333333 0
0.86666667 0.033333333 0
0.9 0.033333333 0
0.93333333 0.033333333 0
0.96666667 0.033333333 0
1 0.033333333 0
0 0.066666667 0
0.033333333 0.066666667 0
0.066666667 0.066666667 0
0.1 0.066666667 0
0.13333333 0.066666667 0
0.16666667 0.066666667 0
0.2 0.066666667 0
0.23333333 0.066666667 0
0.26666667 0.066666667 0
0.3 0.066666667 0
0.33333333 0.066666667 0
0.36666667 0.066666667 0
0.4 0.066666667 0
0.43333333 0.066666667 0
0.46666667 0.066666667 0
0.5 0.066666667 0
0.53333333 0.066666667 0
0.56666667 0.066666667 0
0.6 0.066666667 0
0.63333333 0.066666667 0
0.66666667 0.066666667 0
0.7 0.066666667 0
0.73333333 0.066666667 0
0.76666667 0.066666667 0
0.8 0.066666667 0
0.83333333 0.066666667 0
0.86666667 0.066666667 0
0.9 0.066666667 0
0.93333333 0.066666667 0
0.96666667 0.066666667 0
1 0.066666667 0
0 0.1 0
0.033333333 0.1 0
0.066666667 0.1 0
0.1 0.1 0
0.13333333 0.1 0
0.16666667 0.1 0
0.2 0.1 0
0.23333333 0.1 0
0.26666667 0.1 0
0.3 0.1 0
0.33333333 0.1 0
0.36666667 0.1 0
0.4 0.1 0
0.43333333 0.1 0
0.46666667 0.1 0
0.5 0.1 0
0.53333333 0.1 0
0.56666667 0.1 0
0.6 0.1 0
0.63333333 0.1 0
0.66666667 0.1 0
0.7 0.1 0
0.73333333 0.1 0
0.76666667 0.1 0
0.8 0.1 0
0.83333333 0.1 0
0.86666667 0.1 0
0.9 0.1 0
0.93333333 0.1 0
0.96666667 0.1 0
1 0.1 0
0 0.13333333 0
0.033333333 0.13333333 0
0.066666667 0.13333333 0
0.1 0.13333333 0
0.13333333 0.13333333 0
0.16666667 0.13333333 0
0.2 0.13333333 0
0.23333333 0.13333333 0
0.26666667 0.13333333 0
0.3 0.13333333 0
0.33333333 0.13333333 0
0.36666667 0.13333333 0
0.4 0.13333333 0
0.43333333 0.13333333 0
0.46666667 0.13333333 0
0.5 0.13333333 0
0.53333333 0.13333333 0
0.56666667 0.13333333 0
0.6 0.13333333 0
0.63333333 0.13333333 0
0.66666667 0.13333333 0
0.7 0.13333333 0
0.73333333 0.13333333 0
0.76666667 0.13333333 0
0.8 0.13333333 0
0.83333333 0.13333333 0
0.86666667 0.13333333 0
0.9 0.13333333 0
0.93333333 0.13333333 0
0.96666667 0.13333333 0
1 0.13333333 0
0 0.16666667 0
0.033333333 0.16666667 0
0.066666667 0.16666667 0
0.1 0.16666667 0
0.13333333 0.16666667 0
0.16666667 0.16666667 0
0.2 0.16666667 0
0.23333333 0.16666667 0
0.26666667 0.16666667 0
0.3 0.16666667 0
0.33333333 0.16666667 0
0.36666667 0.16666667 0
0.4 0.16666667 0
0.43333333 0.16666667 0
0.46666667 0.16666667 0
0.5 0.16666667 0
0.53333333 0.16666667 0
0.56666667 0.16666667 0
0.6 0.16666667 0
0.63333333 0.16666667 0
0.66666667 0.16666667 0
0.7 0.16666667 0
0.73333333 0.16666667 0
0.76666667 0.16666667 0
0.8 0.16666667 0
0.83333333 0.16666667 0
0.86666667 0.16666667 0
0.9 0.16666667 0
0.93333333 0.16666667 0
0.96666667 0.16666667 0
1 0.16666667 0
0 0.2 0
0.033333333 0.2 0
0.066666667 0.2 0
0.1 0.2 0
0.13333333 0.2 0
0.16666667 0.2 0
0.2 0.2 0
0.23333333 0.2 0
0.26666667 0.2 0
0.3 0.2 0
0.33333333 0.2 0
0.36666667 0.2 0
0.4 0.2 0
0.43333333 0.2 0
0.46666667 0.2 0
0.5 0.2 0
0.53333333 0.2 0
0.56666667 0.2 0
0.6 0.2 0
0.63333333 0.2 0
0.66666667 0.2 0
0.7 0.2 0
0.73333333 0.2 0
0.76666667 0.2 0
0.8 0.2 0
0.83333333 0.2 0
0.86666667 0.2 0
0.9 0.2 0
0.93333333 0.2 0
0.96666667 0.2 0
1 0.2 0
0 0.23333333 0
0.033333333 0.23333333 0
0.066666667 0.23333333 0
0.1 0.23333333 0
0.13333333 0.23333333 0
0.16666667 0.23333333 0
0.2 0.23333333 0
0.23333333 0.23333333 0
0.26666667 0.23333333 0
0.3 0.23333333 0
0.33333333 0.23333333 0
0.36666667 0.23333333 0
0.4 0.23333333 0
0.43333333 0.23333333 0
0.46666667 0.23333333 0
0.5 0.23333333 0
0.53333333 0.23333333 0
0.56666667 0.23333333 0
0.6 0.23333333 0
0.63333333 0.23333333 0
0.66666667 0.23333333 0
0.7 0.23333333 0
0.73333333 0.23333333 0
0.76666667 0.23333333 0
0.8 0.23333333 0
0.83333333 0.23333333 0
0.86666667 0.23333333 0
0.9 0.23333333 0
0.93333333 0.23333333 0
0.96666667 0.23333333 0
1 0.23333333 0
0 0.26666667 0
0.033333333 0.26666667 0
0.066666667 0.26666667 0
0.1 0.26666667 0
0.13333333 0.26666667 0
0.16666667 0.26666667 0
0.2 0.26666667 0
0.23333333 0.26666667 0
0.26666667 0.26666667 0
0.3 0.26666667 0
0.33333333 0.26666667 0
0.36666667 0.26666667 0
0.4 0.26666667 0
0.43333333 0.26666667 0
0.46666667 0.26666667 0
0.5 0.26666667 0
0.53333333 0.26666667 0
0.56666667 0.26666667 0
0.6 0.26666667 0
0.63333333 0.26666667 0
0.66666667 0.26666667 0
0.7 0.26666667 0
0.73333333 0.26666667 0
0.76666667 0.26666667 0
0.8 0.26666667 0
0.83333333 0.26666667 0
0.86666667 0.26666667 0
0.9 0.26666667 0
0.93333333 0.26666667 0
0.96666667 0.26666667 0
1 0.26666667 0
0 0.3 0
0.033333333 0.3 0
0.066666667 0.3 0
0.1 0.3 0
0.13333333 0.3 0
0.16666667 0.3 0
0.2 0.3 0
0.23333333 0.3 0
0.26666667 0.3 0
0.3 0.3 0
0.33333333 0.3 0
0.36666667 0.3 0
0.4 0.3 0
0.43333333 0.3 0
0.46666667 0.3 0
0.5 0.3 0
0.53333333 0.3 0
0.56666667 0.3 0
0.6 0.3 0
0.63333333 0.3 0
0.66666667 0.3 0
0.7 0.3 0
0.73333333 0.3 0
0.76666667 0.3 0
0.8 0.3 0
0.83333333 0.3 0
0.86666667 0.3 0
0.9 0.3 0
0.93333333 0.3 0
0.96666667 0.3 0
1 0.3 0
0 0.33333333 0
0.033333333 0.33333333 0
0.066666667 0.33333333 0
0.1 0.33333333 0
0.13333333 0.33333333 0
0.16666667 0.33333333 0
0.2 0.33333333 0
0.23333333 0.33333333 0
0.26666667 0.33333333 0
0.3 0.33333333 0
0.33333333 0.33333333 0
0.36666667 0.33333333 0
0.4 0.33333333 0
0.43333333 0.33333333 0
0.46666667 0.33333333 0
0.5 0.33333333 0
0.53333333 0.33333333 0
0.56666667 0.33333333 0
0.6 0.33333333 0
0.63333333 0.33333333 0
0.66666667 0.33333333 0
0.7 0.33333333 0
0.73333333 0.33333333 0
0.76666667 0.33333333 0
0.8 0.33333333 0
0.83333333 0.33333333 0
0.86666667 0.33333333 0
0.9 0.33333333 0
0.93333333 0.33333333 0
0.96666667 0.33333333 0
1 0.33333333 0
0 0.36666667 0
0.033333333 0.36666667 0
0.066666667 0.36666667 0
0.1 0.36666667 0
0.13333333 0.36666667 0
0.16666667 0.36666667 0
0.2 0.36666667 0
0.23333333 0.36666667 0
0.26666667 0.36666667 0
0.3 0.36666667 0
0.33333333 0.36666667 0
0.36666667 0.36666667 0
0.4 0.36666667 0
0.43333333 0.36666667 0
0.46666667 0.36666667 0
0.5 0.36666667 0
0.53333333 0.36666667 0
0.56666667 0.36666667 0
0.6 0.36666667 0
0.63333333 0.36666667 0
0.66666667 0.36666667 0
0.7 0.36666667 0
0.73333333 0.36666667 0
0.76666667 0.36666667 0
0.8 0.36666667 0
0.83333333 0.36666667 0
0.86666667 0.36666667 0
0.9 0.36666667 0
0.93333333 0.36666667 0
0.96666667 0.36666667 0
1 0.36666667 0
0 0.4 0
0.033333333 0.4 0
0.066666667 0.4 0
0.1 0.4 0
0.13333333 0.4 0
0.16666667 0.4 0
0.2 0.4 0
0.23333333 0.4 0
0.26666667 0.4 0
0.3 0.4 0
0.33333333 0.4 0
0.36666667 0.4 0
0.4 0.4 0
0.43333333 0.4 0
0.46666667 0.4 0
0.5 0.4 0
0.53333333 0.4 0
0.56666667 0.4 0
0.6 0.4 0
0.63333333 0.4 0
0.66666667 0.4 0
0.7 0.4 0
0.73333333 0.4 0
0.76666667 0.4 0
0.8 0.4 0
0.83333333 0.4 0
0.86666667 0.4 0
0.9 0.4 0
0.93333333 0.4 0
0.96666667 0.4 0
1 0.4 0
0 0.43333333 0
0.033333333 0.43333333 0
0.066666667 0.43333333 0
0.1 0.43333333 0
0.13333333 0.43333333 0
0.16666667 0.43333333 0
0.2 0.43333333 0
0.23333333 0.43333333 0
0.26666667 0.43333333 0
0.3 0.43333333 0
0.33333333 0.43333333 0
0.36666667 0.43333333 0
0.4 0.43333333 0
0.43333333 0.43333333 0
0.46666667 0.43333333 0
0.5 0.43333333 0
0.53333333 0.43333333 0
0.56666667 0.43333333 0
0.6 0.43333333 0
0.63333333 0.43333333 0
0.66666667 0.43333333 0
0.7 0.43333333 0
0.73333333 0.43333333 0
0.76666667 0.43333333 0
0.8 0.43333333 0
0.83333333 0.43333333 0
0.86666667 0.43333333 0
0.9 0.43333333 0
0.93333333 0.43333333 0
0.96666667 0.43333333 0
1 0.43333333 0
0 0.46666667 0
0.033333333 0.46666667 0
0.066666667 0.46666667 0
0.1 0.46666667 0
0.13333333 0.46666667 0
0.16666667 0.46666667 0
0.2 0.46666667 0
0.23333333 0.46666667 0
0.26666667 0.46666667 0
0.3 0.46666667 0
0.33333333 0.46666667 0
0.36666667 0.46666667 0
0.4 0.46666667 0
0.43333333 0.46666667 0
0.46666667 0.46666667 0
0.5 0.46666667 0
0.53333333 0.46666667 0
0.56666667 0.46666667 0
0.6 0.46666667 0
0.63333333 0.46666667 0
0.66666667 0.46666667 0
0.7 0.46666667 0
0.73333333 0.46666667 0
0.76666667 0.46666667 0
0.8 0.46666667 0
0.83333333 0.46666667 0
0.86666667 0.46666667 0
0.9 0.46666667 0
0.93333333 0.46666667 0
0.96666667 0.46666667 0
1 0.46666667 0
0 0.5 0
0.033333333 0.5 0
0.066666667 0.5 0
0.1 0.5 0
0.13333333 0.5 0
0.16666667 0.5 0
0.2 0.5 0
0.23333333 0.5 0
0.26666667 0.5 0
0.3 0.5 0
0.33333333 0.5 0
0.36666667 0.5 0
0.4 0.5 0
0.43333333 0.5 0
0.46666667 0.5 0
0.5 0.5 0
0.53333333 0.5 0
0.56666667 0.5 0
0.6 0.5 0
0.63333333 0.5 0
0.66666667 0.5 0
0.7 0.5 0
0.73333333 0.5 0
0.76666667 0.5 0
0.8 0.5 0
0.83333333 0.5 0
0.86666667 0.5 0
0.9 0.5 0
0.93333333 0.5 0
0.96666667 0.5 0
1 0.5 0
0 0.53333333 0
0.033333333 0.53333333 0
0.066666667 0.53333333 0
0.1 0.53333333 0
0.13333333 0.53333333 0
0.16666667 0.53333333 0
0.2 0.53333333 0
0.23333333 0.53333333 0
0.26666667 0.53333333 0
0.3 0.53333333 0
0.33333333 0.53333333 0
0.36666667 0.53333333 0
0.4 0.53333333 0
0.43333333 0.53333333 0
0.46666667 0.53333333 0
0.5 0.53333333 0
0.53333333 0.53333333 0
0.56666667 0.53333333 0
0.6 0.53333333 0
0.63333333 0.53333333 0
0.66666667 0.53333333 0
0.7 0.53333333 0
0.73333333 0.53333333 0
0.76666667 0.53333333 0
[...]
CELL_DATA 1920
Scalars  Label int 1
LOOKUP_TABLE FreeFempp_table
0
0
0
0
0
0
0
0
0
0
0
0
0
0
0
0
0
0
0
0
0
0
0
0
0
0
0
0
0
0
0
0
0
0
0
0
0
0
0
0
0
0
0
0
0
0
0
0
0
0
0
0
0
0
0
0
0
0
0
0
0
0
0
0
0
0
0
0
0
0
0
0
0
0
0
0
0
0
0
0
0
0
0
0
0
0
0
0
0
0
0
0
0
0
0
0
0
0
0
0
0
0
0
0
0
0
0
0
0
0
0
0
0
0
0
0
0
0
0
0
0
0
0
0
0
0
0
0
0
0
0
0
0
0
0
0
0
0
0
0
0
0
0
0
0
0
0
0
0
0
0
0
0
0
0
0
0
0
0
0
0
0
0
0
0
0
0
0
0
0
0
0
0
0
0
0
0
0
0
0
0
0
0
0
0
0
0
0
0
0
0
0
0
0
0
0
0
0
0
0
0
0
0
0
0
0
0
0
0
0
0
0
0
0
0
0
0
0
0
0
0
0
0
0
0
0
0
0
0
0
0
0
0
0
0
0
0
0
0
0
0
0
0
0
0
0
0
0
0
0
0
0
0
0
0
0
0
0
0
0
0
0
0
0
0
0
0
0
0
0
0
0
0
0
0
0
0
0
0
0
0
0
0
0
0
0
0
0
0
0
0
0
0
0
0
0
0
0
0
0
0
0
0
0
0
0
0
0
0
0
0
0
0
0
0
0
0
0
0
0
0
0
0
0
0
0
0
0
0
0
0
0
0
0
0
0
0
0
0
0
0
0
0
0
0
0
0
0
0
0
0
0
0
0
0
0
0
0
0
0
0
0
0
0
0
0
0
0
0
0
0
0
0
0
0
0
0
0
0
0
0
0
0
0
0
0
0
0
0
0
0
0
0
0
0
0
0
0
0
0
0
0
0
0
0
0
0
0
0
0
0
0
0
0
0
0
0
0
0
0
0
0
0
0
0
0
0
0
0
0
0
0
0
0
0
0
0
0
0
0
0
0
0
0
0
0
0
0
0
0
0
0
0
0
0
0
0
0
0
0
0
0
0
0
0
0
0
0
0
0
0
0
0
0
0
0
0
0
0
0
0
0
0
0
0
0
0
0
0
0
0
0
0
0
0
0
0
0
0
0
0
0
0
0
0
0
0
0
0
0
0
0
0
0
0
0
0
0
0
0
0
0
0
0
0
0
0
0
0
0
0
0
0
0
0
0
0
0
0
0
0
0
0
0
0
0
0
0
0
0
0
0
0
0
0
0
0
0
0
0
0
0
0
0
0
0
0
0
0
0
0
0
0
0
0
0
0
0
0
0
0
0
0
0
0
0
0
0
0
0
0
0
0
0
0
0
0
0
0
0
0
0
0
0
0
0
0
0
0
0
0
0
0
0
0
0
0
0
0
0
0
0
0
0
0
0
0
0
0
0
0
0
0
0
0
0
0
0
0
0
0
0
0
0
0
0
0
0
0
0
0
0
0
0
0
0
0
0
0
0
0
0
0
0
0
0
0
0
0
0
0
0
0
0
0
0
0
0
0
0
0
0
0
0
0
0
0
0
0
0
0
0
0
0
0
0
0
0
0
0
0
0
0
0
0
0
0
0
0
0
0
0
0
0
0
0
0
0
0
0
0
0
0
0
0
0
0
0
0
0
0
0
0
0
0
0
0
0
0
0
0
0
0
0
0
0
0
0
0
0
0
0
0
0
0
0
0
0
0
0
0
0
0
0
0
0
0
0
0
0
0
0
0
0
0
0
0
0
0
0
0
0
0
0
0
0
0
0
0
0
0
0
0
0
0
0
0
0
0
0
0
0
0
0
0
0
0
0
0
0
0
0
0
0
0
0
0
0
0
0
0
0
0
0
0
0
0
0
0
0
0
0
0
0
0
0
0
0
0
0
0
0
0
0
0
0
0
0
0
0
0
0
0
0
0
0
0
0
0
0
0
0
0
0
0
0
0
0
0
0
0
0
0
0
0
0
0
0
0
0
0
0
0
0
0
0
0
0
0
0
0
0
0
0
0
0
0
0
0
0
0
0
0
0
0
0
0
0
0
0
0
0
0
0
0
0
0
0
0
0
0
0
0
0
0
0
0
0
0
0
0
0
0
0
0
0
0
0
0
0
0
0
0
0
0
0
0
0
0
0
0
0
0
0
0
0
0
0
0
0
0
0
0
0
0
0
0
0
0
0
0
0
0
0
0
0
0
0
0
0
0
0
0
0
0
0
0
0
0
0
0
0
0
0
0
0
0
0
0
0
0
0
0
0
0
0
0
0
0
0
0
0
0
0
0
0
0
0
0
0
0
0
0
0
0
0
0
0
0
0
0
0
0
0
0
0
0
0
0
0
0
0
0
0
0
0
0
0
0
0
0
0
0
0
0
0
0
0
0
0
0
0
0
0
0
0
0
0
0
0
0
0
0
0
0
0
0
0
0
0
0
0
0
0
0
0
0
0
0
0
0
0
0
0
0
0
0
0
0
0
0
0
0
0
0
0
0
0
0
0
0
0
0
0
0
0
0
0
0
0
0
0
0
0
0
0
0
0
0
0
0
0
0
0
0
0
0
0
0
0
0
0
0
0
0
0
0
0
0
0
0
0
0
0
0
0
0
0
0
0
0
0
0
0
0
0
0
0
0
0
0
0
0
0
0
0
0
0
0
0
0
0
0
0
0
0
0
0
0
0
0
0
0
0
0
0
0
0
0
0
0
0
0
0
0
0
0
0
0
0
0
0
0
0
0
0
0
0
0
0
0
0
0
0
0
0
0
0
0
0
0
0
0
0
0
0
0
0
0
0
0
0
0
0
0
0
0
0
0
0
0
0
0
0
0
0
0
0
0
0
0
0
0
0
0
0
0
0
0
0
0
0
0
0
0
0
0
0
0
0
0
0
0
0
0
0
0
0
0
0
0
0
0
0
0
0
0
0
0
0
0
0
0
0
0
0
0
0
0
0
0
0
0
0
0
0
0
0
0
0
0
0
0
0
0
0
0
0
0
0
0
0
0
0
0
0
0
0
0
0
0
0
0
0
0
0
0
0
0
0
0
0
0
0
0
0
0
0
0
0
0
0
0
0
0
0
0
0
0
0
0
0
0
0
0
0
0
0
0
0
0
0
0
0
0
0
0
0
0
0
0
0
0
0
0
0
0
0
0
0
0
0
0
0
0
0
0
0
0
0
0
0
0
0
0
0
0
0
0
0
0
0
0
0
0
0
0
0
0
0
0
0
0
0
0
0
0
0
0
0
0
0
0
0
0
0
0
0
0
0
0
0
0
0
0
0
0
0
0
0
0
0
0
0
0
0
0
0
0
0
0
0
0
0
0
0
0
0
0
0
0
0
0
0
0
0
0
0
0
0
0
0
0
0
0
0
0
0
0
0
0
0
0
0
0
0
0
0
0
0
0
0
0
0
0
0
0
0
0
0
0
0
0
0
0
0
0
0
0
0
0
0
0
0
0
0
0
0
0
0
0
0
0
0
0
0
0
0
0
0
0
0
0
0
0
0
0
0
0
0
0
0
0
0
0
0
0
0
0
0
0
0
0
0
0
0
0
0
0
0
0
0
0
0
0
0
0
0
0
0
0
0
0
0
0
0
0
0
0
0
0
0
0
0
0
0
0
0
0
0
0
0
0
0
0
0
0
0
0
0
0
0
0
0
0
0
0
0
0
0
0
0
0
0
0
0
0
0
0
0
0
0
0
0
0
0
0
0
0
0
0
0
0
0
0
0
0
0
0
0
0
0
0
0
0
0
0
0
0
0
0
0
0
0
0
0
0
0
0
0
0
0
0
0
0
0
0
0
0
0
0
0
0
0
0
0
0
0
0
0
0
0
0
0
0
0
0
0
0
0
0
0
0
0
0
0
0
0
0
0
0
0
0
0
0
0
0
0
0
0
0
0
0
0
0
0
0
0
0
0
0
0
0
0
0
0
0
0
0
0
0
0
0
0
0
0
0
0
0
0
0
0
0
0
0
0
0
0
0
0
0
0
0
0
0
0
0
0
0
0
0
0
0
0
0
0
0
0
0
0
0
0
0
0
0
0
0
0
0
0
1
1
1
1
1
1
1
1
1
1
1
1
1
1
1
1
1
1
1
1
1
1
1
1
1
1
1
1
1
1
2
2
2
2
2
2
2
2
2
2
2
2
2
2
2
2
2
2
2
2
2
2
2
2
2
2
2
2
2
2
3
3
3
3
3
3
3
3
3
3
3
3
3
3
3
3
3
3
3
3
3
3
3
3
3
3
3
3
3
3
4
4
4
4
4
4
4
4
4
4
4
4
4
4
4
4
4
4
4
4
4
4
4
4
4
4
4
4
4
4

LOOKUP_TABLE FreeFempp_table 5
1.00000000 0.00000000 0.00000000 1.00000000
1.00000000 1.00000000 0.00000000 1.00000000
1.00000000 0.00000000 1.00000000 1.00000000
0.00000000 1.00000000 0.00000000 1.00000000
0.00000000 1.00000000 1.00000000 1.00000000

POINT_DATA 961
FIELD FieldData 1
Density 1 961 float
3.52691151e-02 3.08270473e-02 3.74794751e-02 4.23753671e-02 5.97379245e-02 1.47411183e-01 4.02225912e-01 5.10815680e-01 5.37432194e-01 5.42687356e-01 5.41079164e-01 5.31565905e-01 5.15419543e-01 5.03635228e-01 5.03347278e-01 5.13257325e-01 5.28417706e-01 5.45276165e-01 5.62638521e-01 5.80797911e-01 6.00577176e-01 6.22668982e-01 6.47205770e-01 6.73606336e-01 7.01265574e-01 7.33180702e-01 7.78819740e-01 7.58713841e-01 1.88800823e-02 2.88985670e-02 6.56297445e-01 4.00789008e-02 1.95924342e-02 2.24027578e-02 2.42116116e-02 2.35965140e-02 2.29757372e-02 2.39738859e-02 2.61524878e-02 3.13981548e-02 4.76426184e-02 9.92750823e-02 1.84534356e-01 2.22679660e-01 2.37460524e-01 2.56877244e-01 2.86044270e-01 3.21988791e-01 3.60599667e-01 3.99765790e-01 4.40079838e-01 4.83821213e-01 5.33105969e-01 5.87522864e-01 6.43627942e-01 6.98306978e-01 7.50637591e-01 8.01953733e-01 8.11009467e-01 1.93315744e-02 1.11541068e-02 5.00615001e-01 3.24124336e-01 8.28204453e-02 5.14223240e-02 4.46524434e-02 4.07002196e-02 3.08664646e-02 2.59646475e-02 2.49987710e-02 2.60651372e-02 2.92209983e-02 3.73467989e-02 5.61445989e-02 8.99524242e-02 1.31965250e-01 1.75801963e-01 2.23612294e-01 2.76377410e-01 3.31086844e-01 3.84641051e-01 4.36247915e-01 4.87142771e-01 5.39081335e-01 5.92689216e-01 6.46791220e-01 6.99238122e-01 7.46917844e-01 7.78768241e-01 7.64057636e-01 4.40518051e-01 1.40022738e-02 2.40499135e-02 5.14933646e-01 3.66548210e-01 3.50346267e-01 3.34706515e-01 3.38853300e-01 3.48705679e-01 3.50915790e-01 3.26020628e-01 2.48239487e-01 1.30808845e-01 6.88133314e-02 5.71651570e-02 6.48004934e-02 9.12388265e-02 1.41031712e-01 2.05845952e-01 2.72747576e-01 3.35434616e-01 3.92874777e-01 4.46151078e-01 4.97031063e-01 5.47385991e-01 5.98592997e-01 6.50595725e-01 7.01197743e-01 7.45162845e-01 7.69800305e-01 7.41278648e-01 6.04606807e-01 2.14631744e-02 2.24271473e-02 5.42023361e-01 4.11126375e-01 4.15127248e-01 4.14813101e-01 4.18583065e-01 4.26714271e-01 4.33715045e-01 4.33055788e-01 4.21835989e-01 3.95397276e-01 3.39796782e-01 2.49504864e-01 1.77864611e-01 1.64761052e-01 1.95909381e-01 2.51730472e-01 3.11173886e-01 3.66061389e-01 4.16312993e-01 4.63640720e-01 5.09679079e-01 5.55818319e-01 6.03125453e-01 6.51685596e-01 6.99392080e-01 7.40197539e-01 7.61298954e-01 7.36596584e-01 6.14850283e-01 1.92134324e-02 2.09439397e-02 5.56049287e-01 4.30795580e-01 4.35728550e-01 4.38641906e-01 4.40325379e-01 4.42374378e-01 4.43549544e-01 4.40640748e-01 4.33374077e-01 4.22380477e-01 4.04988796e-01 3.74326319e-01 3.30787957e-01 2.97436029e-01 2.92694122e-01 3.14366400e-01 3.51177931e-01 3.93258750e-01 4.35962826e-01 4.78074193e-01 5.19912064e-01 5.62374830e-01 6.06364965e-01 6.52004957e-01 6.97212756e-01 7.35803843e-01 7.55915701e-01 7.37812102e-01 6.30713463e-01 1.67745426e-02 1.82696283e-02 5.63184381e-01 4.42851663e-01 4.46234077e-01 4.48144913e-01 4.48811412e-01 4.47919786e-01 4.45592701e-01 4.40691054e-01 4.33253706e-01 4.23522890e-01 4.10405397e-01 3.92361075e-01 3.71521741e-01 3.55744094e-01 3.52404207e-01 3.63779902e-01 3.87572408e-01 4.19166088e-01 4.54439968e-01 4.91198063e-01 5.28885782e-01 5.67825794e-01 6.08583927e-01 6.51235044e-01 6.93936825e-01 7.31012106e-01 7.52044499e-01 7.41739511e-01 6.46452010e-01 1.60735101e-02 1.65905487e-02 5.65487683e-01 4.47536409e-01 4.50349927e-01 4.50999469e-01 4.51344311e-01 4.49868321e-01 4.46880460e-01 4.42150414e-01 4.35827702e-01 4.27931190e-01 4.17986512e-01 4.05994862e-01 3.94387245e-01 3.87798131e-01 3.89519393e-01 4.00199354e-01 4.18845057e-01 4.43562150e-01 4.72307146e-01 5.03678560e-01 5.37095785e-01 5.72504818e-01 6.10081434e-01 6.49785519e-01 6.90123558e-01 7.26261854e-01 7.49249697e-01 7.46549785e-01 6.61011517e-01 1.64617244e-02 1.63331665e-02 5.64981282e-01 4.47266042e-01 4.50514287e-01 4.50983614e-01 4.52068746e-01 4.51645702e-01 4.49903220e-01 4.46868598e-01 4.42678511e-01 4.37331349e-01 4.30751145e-01 4.23479080e-01 4.17492807e-01 4.15650040e-01 4.19731170e-01 4.29865450e-01 4.45336252e-01 4.65207189e-01 4.88651723e-01 5.15172422e-01 5.44523418e-01 5.76512635e-01 6.11006379e-01 6.47866011e-01 6.86032891e-01 7.21702337e-01 7.47238219e-01 7.51433194e-01 6.73587084e-01 1.71144400e-02 1.67477652e-02 5.63403130e-01 4.44860846e-01 4.49183851e-01 4.50537711e-01 4.53237265e-01 4.54813302e-01 4.55234528e-01 4.54509437e-01 4.52717066e-01 4.49906379e-01 4.46255267e-01 4.42468673e-01 4.40035701e-01 4.40730721e-01 4.45596993e-01 4.54702258e-01 4.67594057e-01 4.83777761e-01 5.03027201e-01 5.25437593e-01 5.51112175e-01 5.79879701e-01 6.11434162e-01 6.45587862e-01 6.81746483e-01 7.17224658e-01 7.45590270e-01 7.55949438e-01 6.84118629e-01 1.78814139e-02 1.74183771e-02 5.62064528e-01 4.42624569e-01 4.48161900e-01 4.51043248e-01 4.55764651e-01 4.59661901e-01 4.62461740e-01 4.64064270e-01 4.64504808e-01 4.63899672e-01 4.62561041e-01 4.61179316e-01 4.60857362e-01 4.62772131e-01 4.67653990e-01 4.75632340e-01 4.86406565e-01 4.99677032e-01 5.15533149e-01 5.34459591e-01 5.56850851e-01 5.82632244e-01 6.11434639e-01 6.43056393e-01 6.77329659e-01 7.12696373e-01 7.43927896e-01 7.59829998e-01 6.92757368e-01 1.87646169e-02 1.82514489e-02 5.61795115e-01 4.41924840e-01 4.48187739e-01 4.52732831e-01 4.59490627e-01 4.65666085e-01 4.70724583e-01 4.74446476e-01 4.76861656e-01 4.78150010e-01 4.78659153e-01 4.78957117e-01 4.79841411e-01 4.82200772e-01 4.86711413e-01 4.93643343e-01 5.02671182e-01 5.13490379e-01 5.26431978e-01 5.42315841e-01 5.61768889e-01 5.84817290e-01 6.11087203e-01 6.40382290e-01 6.72882318e-01 7.08070159e-01 7.41972327e-01 7.62909472e-01 6.99728429e-01 1.96252931e-02 1.90914944e-02 5.63005924e-01 4.42675680e-01 4.48354930e-01 4.54347253e-01 4.63203073e-01 4.71707702e-01 4.78933215e-01 4.84584570e-01 4.88764644e-01 4.91738230e-01 4.93845105e-01 4.95496392e-01 4.97227192e-01 4.99814481e-01 5.04022062e-01 5.09960711e-01 5.17384171e-01 5.25854826e-01 5.36041558e-01 5.49156427e-01 5.65959811e-01 5.86515188e-01 6.10466242e-01 6.37650490e-01 6.68519437e-01 7.03417659e-01 7.39572108e-01 7.65000820e-01 7.05314994e-01 2.05661580e-02 1.99068822e-02 5.65677881e-01 4.42219585e-01 4.45147425e-01 4.52804804e-01 4.64841366e-01 4.76412773e-01 4.86010969e-01 4.93488818e-01 4.99210238e-01 5.03618419e-01 5.07093370e-01 5.09949088e-01 5.12610435e-01 5.15926301e-01 5.20795405e-01 5.26263297e-01 5.31540215e-01 5.37263811e-01 5.44620693e-01 5.55152595e-01 5.69552004e-01 5.87806702e-01 6.09603226e-01 6.34870350e-01 6.64297581e-01 6.98871374e-01 7.36734569e-01 7.65889943e-01 7.09681571e-01 2.17884853e-02 2.08971463e-02 5.67999542e-01 4.33614969e-01 4.31532383e-01 4.43751007e-01 4.62472230e-01 4.78890538e-01 4.91367519e-01 5.00572264e-01 5.07481813e-01 5.12877643e-01 5.17301440e-01 5.21143734e-01 5.24853289e-01 5.29577374e-01 5.36708295e-01 5.40756345e-01 5.45316100e-01 5.47231257e-01 5.51981449e-01 5.60296655e-01 5.72564065e-01 5.88669777e-01 6.08417034e-01 6.31916225e-01 6.60107315e-01 6.94451869e-01 7.33583510e-01 7.65543699e-01 7.12877393e-01 2.33159624e-02 2.21918188e-02 5.60414851e-01 4.05158132e-01 3.98282826e-01 4.24374968e-01 4.56048936e-01 4.79517937e-01 4.95269805e-01 5.05954444e-01 5.13579488e-01 5.19415081e-01 5.24262846e-01 5.28745472e-01 5.33468544e-01 5.39438009e-01 5.45681179e-01 5.48720777e-01 5.52595854e-01 5.53940415e-01 5.57149351e-01 5.64183295e-01 5.74749470e-01 5.88881314e-01 6.06667936e-01 6.28503382e-01 6.55605316e-01 6.89863265e-01 7.30146646e-01 7.64254928e-01 7.14964151e-01 2.51793861e-02 2.38113403e-02 5.15468776e-01 3.46174330e-01 3.41920018e-01 3.97971302e-01 4.48479384e-01 4.79824036e-01 4.98540312e-01 5.10228097e-01 5.18109322e-01 5.23979664e-01 5.28891623e-01 5.33619940e-01 5.38865626e-01 5.45003593e-01 5.51997602e-01 5.54826498e-01 5.57329297e-01 5.56695580e-01 5.59862554e-01 5.66392660e-01 5.75740635e-01 5.88120580e-01 6.04050517e-01 6.24278188e-01 6.50295198e-01 6.84462249e-01 7.26074755e-01 7.62416363e-01 7.16062784e-01 2.75868699e-02 2.58576814e-02 4.00126964e-01 2.63561964e-01 2.76433706e-01 3.75087470e-01 4.44074005e-01 4.81215984e-01 5.01712382e-01 5.13800561e-01 5.21636426e-01 5.27420223e-01 5.32372534e-01 5.37259996e-01 5.42550445e-01 5.48117220e-01 5.52789509e-01 5.55602431e-01 5.56491733e-01 5.57482779e-01 5.61101019e-01 5.67245603e-01 5.75521648e-01 5.86301982e-01 6.00447476e-01 6.19032621e-01 6.43767238e-01 6.77511394e-01 7.20561922e-01 7.59951949e-01 7.16253996e-01 3.09937857e-02 2.85679828e-02 2.47782409e-01 1.84191659e-01 2.27749914e-01 3.67114574e-01 4.45348471e-01 4.83917534e-01 5.04584849e-01 5.16515791e-01 5.24183035e-01 5.29949784e-01 5.35077751e-01 5.40223062e-01 5.45560956e-01 5.50636232e-01 5.54355264e-01 5.56106865e-01 5.57019651e-01 5.58578849e-01 5.62106550e-01 5.67536652e-01 5.74619114e-01 5.83819628e-01 5.96160054e-01 6.12930417e-01 6.35972381e-01 6.68587327e-01 7.12668240e-01 7.55983889e-01 7.15325832e-01 3.63330133e-02 3.24393362e-02 1.41003639e-01 1.25884995e-01 2.11466372e-01 3.77627969e-01 4.51867759e-01 4.87394601e-01 5.06685615e-01 5.17959237e-01 5.25397241e-01 5.31248748e-01 5.36670506e-01 5.42154193e-01 5.47660828e-01 5.52627504e-01 5.56212366e-01 5.58107018e-01 5.59177458e-01 5.60779750e-01 5.63777149e-01 5.68192542e-01 5.73947310e-01 5.81511319e-01 5.91941357e-01 6.06609285e-01 6.27392888e-01 6.57908678e-01 7.01934218e-01 7.49301791e-01 7.12624133e-01 4.47438248e-02 3.83026190e-02 8.84466171e-02 8.86454508e-02 2.28741109e-01 4.01362181e-01 4.61757392e-01 4.91248935e-01 5.07874072e-01 5.17968953e-01 5.25052011e-01 5.31031609e-01 5.36823750e-01 5.42721927e-01 5.48550963e-01 5.53764164e-01 5.57730913e-01 5.60288429e-01 5.62035978e-01 5.63900948e-01 5.66528022e-01 5.70029199e-01 5.74476719e-01 5.80389082e-01 5.88811934e-01 6.01094246e-01 6.19032085e-01 6.46397054e-01 6.88808382e-01 7.39264667e-01 7.07253397e-01 5.58405295e-02 4.65263501e-02 6.41432628e-02 6.68998137e-02 2.73880154e-01 4.30670977e-01 4.73199368e-01 4.95247543e-01 5.08311093e-01 5.16756177e-01 5.23310363e-01 5.29412210e-01 5.35641789e-01 5.42062998e-01 5.48397779e-01 5.54149747e-01 5.58842242e-01 5.62363982e-01 5.65100491e-01 5.67638278e-01 5.70386410e-01 5.73451459e-01 5.76952100e-01 5.81406832e-01 5.87852061e-01 5.97599149e-01 6.12246752e-01 6.35474384e-01 6.74508929e-01 7.26185858e-01 6.98413253e-01 6.63599968e-02 5.57762943e-02 5.19336276e-02 5.47861606e-02 3.36530983e-01 4.60758209e-01 4.85060930e-01 4.99122381e-01 5.08153617e-01 5.14694929e-01 5.20643413e-01 5.26903450e-01 5.33668816e-01 5.40752351e-01 5.47772527e-01 5.54270267e-01 5.59872985e-01 5.64493656e-01 5.68378091e-01 5.71900845e-01 5.75310886e-01 5.78642428e-01 5.81909776e-01 5.85453331e-01 5.90195358e-01 5.97439349e-01 6.08577013e-01 6.26864016e-01 6.60629272e-01 7.10840881e-01 6.85254216e-01 7.42844492e-02 6.41136020e-02 4.42319661e-02 4.70785052e-02 4.02787834e-01 4.89719003e-01 4.96720999e-01 5.02548158e-01 5.07407844e-01 5.12113690e-01 5.17625213e-01 5.24228573e-01 5.31701624e-01 5.39607227e-01 5.47462761e-01 5.54827929e-01 5.61399698e-01 5.67115247e-01 5.72157919e-01 5.76813400e-01 5.81283629e-01 5.85581720e-01 5.89582026e-01 5.93259156e-01 5.97109735e-01 6.02265656e-01 6.09920859e-01 6.22712910e-01 6.49389207e-01 6.94086730e-01 6.65096223e-01 8.31250101e-02 7.25065246e-02 3.83751616e-02 4.06787731e-02 4.61164564e-01 5.16115725e-01 5.07141352e-01 5.04876137e-01 5.05877912e-01 5.09252071e-01 5.14832020e-01 5.22168159e-01 5.30609846e-01 5.39507747e-01 5.48313558e-01 5.56610644e-01 5.64148486e-01 5.70886970e-01 5.76988757e-01 5.82727313e-01 5.88359058e-01 5.94013214e-01 5.99612057e-01 6.04866445e-01 6.09583199e-01 6.14205599e-01 6.19383216e-01 6.26488864e-01 6.44655764e-01 6.79184973e-01 6.35007441e-01 9.78380069e-02 8.53084996e-02 3.44743580e-02 3.54315117e-02 5.07958293e-01 5.37108839e-01 5.14155746e-01 5.04971862e-01 5.03328025e-01 5.06484449e-01 5.12978435e-01 5.21582186e-01 5.31277239e-01 5.41301012e-01 5.51121056e-01 5.60385346e-01 5.68899632e-01 5.76634824e-01 5.83721936e-01 5.90410113e-01 5.97010553e-01 6.03845298e-01 6.11161649e-01 6.18949234e-01 6.26796782e-01 6.34257793e-01 6.40928924e-01 6.45600915e-01 6.53620481e-01 6.71915889e-01 6.04997277e-01 1.29922539e-01 1.10718064e-01 3.24499719e-02 3.20921689e-02 5.44502854e-01 5.49268246e-01 5.15160203e-01 5.02043068e-01 5.00266373e-01 5.04929483e-01 5.13312817e-01 5.23611605e-01 5.34660578e-01 5.45765221e-01 5.56535006e-01 5.66752255e-01 5.76304257e-01 5.85166454e-01 5.93399584e-01 6.01142049e-01 6.08615637e-01 6.16168082e-01 6.24327123e-01 6.33763194e-01 6.45019233e-01 6.58184171e-01 6.72899604e-01 6.86224937e-01 6.95761323e-01 6.81773841e-01 5.65074980e-01 2.54364520e-01 1.88726276e-01 2.84973290e-02 2.93610916e-02 5.74678719e-01 5.50853610e-01 5.09722769e-01 4.97983307e-01 4.99549448e-01 5.07369161e-01 5.18056214e-01 5.29814363e-01 5.41741073e-01 5.53452253e-01 5.64828038e-01 5.75849235e-01 5.86515665e-01 5.96819699e-01 6.06741369e-01 6.16245925e-01 6.25301600e-01 6.33952618e-01 6.42474711e-01 6.51603997e-01 6.62770212e-01 6.78125799e-01 7.00428903e-01 7.30340421e-01 7.60848463e-01 7.73259640e-01 7.19325364e-01 7.46274590e-01 5.32512248e-01 2.21973471e-02 2.38499977e-02 5.85168839e-01 5.47015190e-01 5.06111562e-01 5.01568437e-01 5.08241713e-01 5.18615901e-01 5.30026615e-01 5.41522086e-01 5.52856207e-01 5.64089358e-01 5.75388432e-01 5.86915493e-01 5.98773956e-01 6.10991061e-01 6.23510420e-01 6.36178613e-01 6.48734450e-01 6.60828531e-01 6.72103167e-01 6.82367325e-01 6.91936493e-01 7.02258885e-01 7.16728151e-01 7.40969837e-01 7.70105898e-01 8.24681759e-01 8.96627247e-01 9.79116082e-01 9.42967951e-01 1.08623141e-02 1.31014436e-02 6.97635472e-01 5.47211885e-01 5.37122190e-01 5.33647418e-01 5.37955821e-01 5.44493854e-01 5.51921368e-01 5.60000360e-01 5.68796158e-01 5.78486562e-01 5.89275241e-01 6.01335108e-01 6.14774585e-01 6.29622757e-01 6.45819783e-01 6.63196921e-01 6.81444705e-01 7.00081408e-01 7.18436301e-01 7.35641479e-01 7.50604093e-01 7.61930466e-01 7.67716825e-01 7.64593959e-01 7.44581938e-01 7.14611232e-01 8.65814149e-01 3.20018560e-01 3.77704382e-01 3.85323986e-02 1.37910582e-02 8.66628826e-01 6.71999514e-01 6.57761514e-01 6.44114733e-01 6.36199832e-01 6.34048581e-01 6.34469569e-01 6.36397064e-01 6.39426589e-01 6.43431306e-01 6.48399353e-01 6.54353201e-01 6.61311269e-01 6.69273913e-01 6.78221703e-01 6.88112676e-01 6.98870182e-01 7.10358143e-01 7.22348571e-01 7.34474540e-01 7.46143162e-01 7.56344020e-01 7.63273358e-01 7.63652384e-01 7.51802862e-01 7.21786261e-01 7.30683684e-01 6.73040569e-01 3.01526695e-01 
