# vtk DataFile Version 2.0
results/iter1.vtk, Created by Freefem++ 
ASCII
DATASET UNSTRUCTURED_GRID
POINTS 961 float
0 0 0
0.033333333 0 0
0.066666667 0 0
0.1 0 0
0.13333333 0 0
0.16666667 0 0
0.2 0 0
0.23333333 0 0
0.26666667 0 0
0.3 0 0
0.33333333 0 0
0.36666667 0 0
0.4 0 0
0.43333333 0 0
0.46666667 0 0
0.5 0 0
0.53333333 0 0
0.56666667 0 0
0.6 0 0
0.63333333 0 0
0.66666667 0 0
0.7 0 0
0.73333333 0 0
0.76666667 0 0
0.8 0 0
0.83333333 0 0
0.86666667 0 0
0.9 0 0
0.93333333 0 0
0.96666667 0 0
1 0 0
0 0.033333333 0
0.033333333 0.033333333 0
0.066666667 0.033333333 0
0.1 0.033333333 0
0.13333333 0.033333333 0
0.16666667 0.033333333 0
0.2 0.033333333 0
0.23333333 0.033333333 0
0.26666667 0.033333333 0
0.3 0.033333333 0
0.33333333 0.033333333 0
0.36666667 0.033333333 0
0.4 0.033333333 0
0.43333333 0.033333333 0
0.46666667 0.033333333 0
0.5 0.033333333 0
0.53333333 0.033333333 0
0.56666667 0.033333333 0
0.6 0.033333333 0
0.63333333 0.033333333 0
0.66666667 0.033333333 0
0.7 0.033333333 0
0.73333333 0.033333333 0
0.76666667 0.033333333 0
0.8 0.033333333 0
0.83333333 0.033333333 0
0.86666667 0.033333333 0
0.9 0.033333333 0
0.93333333 0.033333333 0
0.96666667 0.033333333 0
1 0.033333333 0
0 0.066666667 0
0.033333333 0.066666667 0
0.066666667 0.066666667 0
0.1 0.066666667 0
0.13333333 0.066666667 0
0.16666667 0.066666667 0
0.2 0.066666667 0
0.23333333 0.066666667 0
0.26666667 0.066666667 0
0.3 0.066666667 0
0.33333333 0.066666667 0
0.36666667 0.066666667 0
0.4 0.066666667 0
0.43333333 0.066666667 0
0.46666667 0.066666667 0
0.5 0.066666667 0
0.53333333 0.066666667 0
0.56666667 0.066666667 0
0.6 0.066666667 0
0.63333333 0.066666667 0
0.66666667 0.066666667 0
0.7 0.066666667 0
0.73333333 0.066666667 0
0.76666667 0.066666667 0
0.8 0.066666667 0
0.83333333 0.066666667 0
0.86666667 0.066666667 0
0.9 0.066666667 0
0.93333333 0.066666667 0
0.96666667 0.066666667 0
1 0.066666667 0
0 0.1 0
0.033333333 0.1 0
0.066666667 0.1 0
0.1 0.1 0
0.13333333 0.1 0
0.16666667 0.1 0
0.2 0.1 0
0.23333333 0.1 0
0.26666667 0.1 0
0.3 0.1 0
0.33333333 0.1 0
0.36666667 0.1 0
0.4 0.1 0
0.43333333 0.1 0
0.46666667 0.1 0
0.5 0.1 0
0.53333333 0.1 0
0.56666667 0.1 0
0.6 0.1 0
0.63333333 0.1 0
0.66666667 0.1 0
0.7 0.1 0
0.73333333 0.1 0
0.76666667 0.1 0
0.8 0.1 0
0.83333333 0.1 0
0.86666667 0.1 0
0.9 0.1 0
0.93333333 0.1 0
0.96666667 0.1 0
1 0.1 0
0 0.13333333 0
0.033333333 0.13333333 0
0.066666667 0.13333333 0
0.1 0.13333333 0
0.13333333 0.13333333 0
0.16666667 0.13333333 0
0.2 0.13333333 0
0.23333333 0.13333333 0
0.26666667 0.13333333 0
0.3 0.13333333 0
0.33333333 0.13333333 0
0.36666667 0.13333333 0
0.4 0.13333333 0
0.43333333 0.13333333 0
0.46666667 0.13333333 0
0.5 0.13333333 0
0.53333333 0.13333333 0
0.56666667 0.13333333 0
0.6 0.13333333 0
0.63333333 0.13333333 0
0.66666667 0.13333333 0
0.7 0.13333333 0
0.73333333 0.13333333 0
0.76666667 0.13333333 0
0.8 0.13333333 0
0.83333333 0.13333333 0
0.86666667 0.13333333 0
0.9 0.13333333 0
0.93333333 0.13333333 0
0.96666667 0.13333333 0
1 0.13333333 0
0 0.16666667 0
0.033333333 0.16666667 0
0.066666667 0.16666667 0
0.1 0.16666667 0
0.13333333 0.16666667 0
0.16666667 0.16666667 0
0.2 0.16666667 0
0.23333333 0.16666667 0
0.26666667 0.16666667 0
0.3 0.16666667 0
0.33333333 0.16666667 0
0.36666667 0.16666667 0
0.4 0.16666667 0
0.43333333 0.16666667 0
0.46666667 0.16666667 0
0.5 0.16666667 0
0.53333333 0.16666667 0
0.56666667 0.16666667 0
0.6 0.16666667 0
0.63333333 0.16666667 0
0.66666667 0.16666667 0
0.7 0.16666667 0
0.73333333 0.16666667 0
0.76666667 0.16666667 0
0.8 0.16666667 0
0.83333333 0.16666667 0
0.86666667 0.16666667 0
0.9 0.16666667 0
0.93333333 0.16666667 0
0.96666667 0.16666667 0
1 0.16666667 0
0 0.2 0
0.033333333 0.2 0
0.066666667 0.2 0
0.1 0.2 0
0.13333333 0.2 0
0.16666667 0.2 0
0.2 0.2 0
0.23333333 0.2 0
0.26666667 0.2 0
0.3 0.2 0
0.33333333 0.2 0
0.36666667 0.2 0
0.4 0.2 0
0.43333333 0.2 0
0.46666667 0.2 0
0.5 0.2 0
0.53333333 0.2 0
0.56666667 0.2 0
0.6 0.2 0
0.63333333 0.2 0
0.66666667 0.2 0
0.7 0.2 0
0.73333333 0.2 0
0.76666667 0.2 0
0.8 0.2 0
0.83333333 0.2 0
0.86666667 0.2 0
0.9 0.2 0
0.93333333 0.2 0
0.96666667 0.2 0
1 0.2 0
0 0.23333333 0
0.033333333 0.23333333 0
0.066666667 0.23333333 0
0.1 0.23333333 0
0.13333333 0.23333333 0
0.16666667 0.23333333 0
0.2 0.23333333 0
0.23333333 0.23333333 0
0.26666667 0.23333333 0
0.3 0.23333333 0
0.33333333 0.23333333 0
0.36666667 0.23333333 0
0.4 0.23333333 0
0.43333333 0.23333333 0
0.46666667 0.23333333 0
0.5 0.23333333 0
0.53333333 0.23333333 0
0.56666667 0.23333333 0
0.6 0.23333333 0
0.63333333 0.23333333 0
0.66666667 0.23333333 0
0.7 0.23333333 0
0.73333333 0.23333333 0
0.76666667 0.23333333 0
0.8 0.23333333 0
0.83333333 0.23333333 0
0.86666667 0.23333333 0
0.9 0.23333333 0
0.93333333 0.23333333 0
0.96666667 0.23333333 0
1 0.23333333 0
0 0.26666667 0
0.033333333 0.26666667 0
0.066666667 0.26666667 0
0.1 0.26666667 0
0.13333333 0.26666667 0
0.16666667 0.26666667 0
0.2 0.26666667 0
0.23333333 0.26666667 0
0.26666667 0.26666667 0
0.3 0.26666667 0
0.33333333 0.26666667 0
0.36666667 0.26666667 0
0.4 0.26666667 0
0.43333333 0.26666667 0
0.46666667 0.26666667 0
0.5 0.26666667 0
0.53333333 0.26666667 0
0.56666667 0.26666667 0
0.6 0.26666667 0
0.63333333 0.26666667 0
0.66666667 0.26666667 0
0.7 0.26666667 0
0.73333333 0.26666667 0
0.76666667 0.26666667 0
0.8 0.26666667 0
0.83333333 0.26666667 0
0.86666667 0.26666667 0
0.9 0.26666667 0
0.93333333 0.26666667 0
0.96666667 0.26666667 0
1 0.26666667 0
0 0.3 0
0.033333333 0.3 0
0.066666667 0.3 0
0.1 0.3 0
0.13333333 0.3 0
0.16666667 0.3 0
0.2 0.3 0
0.23333333 0.3 0
0.26666667 0.3 0
0.3 0.3 0
0.33333333 0.3 0
0.36666667 0.3 0
0.4 0.3 0
0.43333333 0.3 0
0.46666667 0.3 0
0.5 0.3 0
0.53333333 0.3 0
0.56666667 0.3 0
0.6 0.3 0
0.63333333 0.3 0
0.66666667 0.3 0
0.7 0.3 0
0.73333333 0.3 0
0.76666667 0.3 0
0.8 0.3 0
0.83333333 0.3 0
0.86666667 0.3 0
0.9 0.3 0
0.93333333 0.3 0
0.96666667 0.3 0
1 0.3 0
0 0.33333333 0
0.033333333 0.33333333 0
0.066666667 0.33333333 0
0.1 0.33333333 0
0.13333333 0.33333333 0
0.16666667 0.33333333 0
0.2 0.33333333 0
0.23333333 0.33333333 0
0.26666667 0.33333333 0
0.3 0.33333333 0
0.33333333 0.33333333 0
0.36666667 0.33333333 0
0.4 0.33333333 0
0.43333333 0.33333333 0
0.46666667 0.33333333 0
0.5 0.33333333 0
0.53333333 0.33333333 0
0.56666667 0.33333333 0
0.6 0.33333333 0
0.63333333 0.33333333 0
0.66666667 0.33333333 0
0.7 0.33333333 0
0.73333333 0.33333333 0
0.76666667 0.33333333 0
0.8 0.33333333 0
0.83333333 0.33333333 0
0.86666667 0.33333333 0
0.9 0.33333333 0
0.93333333 0.33333333 0
0.96666667 0.33333333 0
1 0.33333333 0
0 0.36666667 0
0.033333333 0.36666667 0
0.066666667 0.36666667 0
0.1 0.36666667 0
0.13333333 0.36666667 0
0.16666667 0.36666667 0
0.2 0.36666667 0
0.23333333 0.36666667 0
0.26666667 0.36666667 0
0.3 0.36666667 0
0.33333333 0.36666667 0
0.36666667 0.36666667 0
0.4 0.36666667 0
0.43333333 0.36666667 0
0.46666667 0.36666667 0
0.5 0.36666667 0
0.53333333 0.36666667 0
0.56666667 0.36666667 0
0.6 0.36666667 0
0.63333333 0.36666667 0
0.66666667 0.36666667 0
0.7 0.36666667 0
0.73333333 0.36666667 0
0.76666667 0.36666667 0
0.8 0.36666667 0
0.83333333 0.36666667 0
0.86666667 0.36666667 0
0.9 0.36666667 0
0.93333333 0.36666667 0
0.96666667 0.36666667 0
1 0.36666667 0
0 0.4 0
0.033333333 0.4 0
0.066666667 0.4 0
0.1 0.4 0
0.13333333 0.4 0
0.16666667 0.4 0
0.2 0.4 0
0.23333333 0.4 0
0.26666667 0.4 0
0.3 0.4 0
0.33333333 0.4 0
0.36666667 0.4 0
0.4 0.4 0
0.43333333 0.4 0
0.46666667 0.4 0
0.5 0.4 0
0.53333333 0.4 0
0.56666667 0.4 0
0.6 0.4 0
0.63333333 0.4 0
0.66666667 0.4 0
0.7 0.4 0
0.73333333 0.4 0
0.76666667 0.4 0
0.8 0.4 0
0.83333333 0.4 0
0.86666667 0.4 0
0.9 0.4 0
0.93333333 0.4 0
0.96666667 0.4 0
1 0.4 0
0 0.43333333 0
0.033333333 0.43333333 0
0.066666667 0.43333333 0
0.1 0.43333333 0
0.13333333 0.43333333 0
0.16666667 0.43333333 0
0.2 0.43333333 0
0.23333333 0.43333333 0
0.26666667 0.43333333 0
0.3 0.43333333 0
0.33333333 0.43333333 0
0.36666667 0.43333333 0
0.4 0.43333333 0
0.43333333 0.43333333 0
0.46666667 0.43333333 0
0.5 0.43333333 0
0.53333333 0.43333333 0
0.56666667 0.43333333 0
0.6 0.43333333 0
0.63333333 0.43333333 0
0.66666667 0.43333333 0
0.7 0.43333333 0
0.73333333 0.43333333 0
0.76666667 0.43333333 0
0.8 0.43333333 0
0.83333333 0.43333333 0
0.86666667 0.43333333 0
0.9 0.43333333 0
0.93333333 0.43333333 0
0.96666667 0.43333333 0
1 0.43333333 0
0 0.46666667 0
0.033333333 0.46666667 0
0.066666667 0.46666667 0
0.1 0.46666667 0
0.13333333 0.46666667 0
0.16666667 0.46666667 0
0.2 0.46666667 0
0.23333333 0.46666667 0
0.26666667 0.46666667 0
0.3 0.46666667 0
0.33333333 0.46666667 0
0.36666667 0.46666667 0
0.4 0.46666667 0
0.43333333 0.46666667 0
0.46666667 0.46666667 0
0.5 0.46666667 0
0.53333333 0.46666667 0
0.56666667 0.46666667 0
0.6 0.46666667 0
0.63333333 0.46666667 0
0.66666667 0.46666667 0
0.7 0.46666667 0
0.73333333 0.46666667 0
0.76666667 0.46666667 0
0.8 0.46666667 0
0.83333333 0.46666667 0
0.86666667 0.46666667 0
0.9 0.46666667 0
0.93333333 0.46666667 0
0.96666667 0.46666667 0
1 0.46666667 0
0 0.5 0
0.033333333 0.5 0
0.066666667 0.5 0
0.1 0.5 0
0.13333333 0.5 0
0.16666667 0.5 0
0.2 0.5 0
0.23333333 0.5 0
0.26666667 0.5 0
0.3 0.5 0
0.33333333 0.5 0
0.36666667 0.5 0
0.4 0.5 0
0.43333333 0.5 0
0.46666667 0.5 0
0.5 0.5 0
0.53333333 0.5 0
0.56666667 0.5 0
0.6 0.5 0
0.63333333 0.5 0
0.66666667 0.5 0
0.7 0.5 0
0.73333333 0.5 0
0.76666667 0.5 0
0.8 0.5 0
0.83333333 0.5 0
0.86666667 0.5 0
0.9 0.5 0
0.93333333 0.5 0
0.96666667 0.5 0
1 0.5 0
0 0.53333333 0
0.033333333 0.53333333 0
0.066666667 0.53333333 0
0.1 0.53333333 0
0.13333333 0.53333333 0
0.16666667 0.53333333 0
0.2 0.53333333 0
0.23333333 0.53333333 0
0.26666667 0.53333333 0
0.3 0.53333333 0
0.33333333 0.53333333 0
0.36666667 0.53333333 0
0.4 0.53333333 0
0.43333333 0.53333333 0
0.46666667 0.53333333 0
0.5 0.53333333 0
0.53333333 0.53333333 0
0.56666667 0.53333333 0
0.6 0.53333333 0
0.63333333 0.53333333 0
0.66666667 0.53333333 0
0.7 0.53333333 0
0.73333333 0.53333333 0
0.76666667 0.53333333 0
0.8 0.53333333 0
[...]
CELL_DATA 1920
Scalars  Label int 1
LOOKUP_TABLE FreeFempp_table
0
0
0
0
0
0
0
0
0
0
0
0
0
0
0
0
0
0
0
0
0
0
0
0
0
0
0
0
0
0
0
0
0
0
0
0
0
0
0
0
0
0
0
0
0
0
0
0
0
0
0
0
0
0
0
0
0
0
0
0
0
0
0
0
0
0
0
0
0
0
0
0
0
0
0
0
0
0
0
0
0
0
0
0
0
0
0
0
0
0
0
0
0
0
0
0
0
0
0
0
0
0
0
0
0
0
0
0
0
0
0
0
0
0
0
0
0
0
0
0
0
0
0
0
0
0
0
0
0
0
0
0
0
0
0
0
0
0
0
0
0
0
0
0
0
0
0
0
0
0
0
0
0
0
0
0
0
0
0
0
0
0
0
0
0
0
0
0
0
0
0
0
0
0
0
0
0
0
0
0
0
0
0
0
0
0
0
0
0
0
0
0
0
0
0
0
0
0
0
0
0
0
0
0
0
0
0
0
0
0
0
0
0
0
0
0
0
0
0
0
0
0
0
0
0
0
0
0
0
0
0
0
0
0
0
0
0
0
0
0
0
0
0
0
0
0
0
0
0
0
0
0
0
0
0
0
0
0
0
0
0
0
0
0
0
0
0
0
0
0
0
0
0
0
0
0
0
0
0
0
0
0
0
0
0
0
0
0
0
0
0
0
0
0
0
0
0
0
0
0
0
0
0
0
0
0
0
0
0
0
0
0
0
0
0
0
0
0
0
0
0
0
0
0
0
0
0
0
0
0
0
0
0
0
0
0
0
0
0
0
0
0
0
0
0
0
0
0
0
0
0
0
0
0
0
0
0
0
0
0
0
0
0
0
0
0
0
0
0
0
0
0
0
0
0
0
0
0
0
0
0
0
0
0
0
0
0
0
0
0
0
0
0
0
0
0
0
0
0
0
0
0
0
0
0
0
0
0
0
0
0
0
0
0
0
0
0
0
0
0
0
0
0
0
0
0
0
0
0
0
0
0
0
0
0
0
0
0
0
0
0
0
0
0
0
0
0
0
0
0
0
0
0
0
0
0
0
0
0
0
0
0
0
0
0
0
0
0
0
0
0
0
0
0
0
0
0
0
0
0
0
0
0
0
0
0
0
0
0
0
0
0
0
0
0
0
0
0
0
0
0
0
0
0
0
0
0
0
0
0
0
0
0
0
0
0
0
0
0
0
0
0
0
0
0
0
0
0
0
0
0
0
0
0
0
0
0
0
0
0
0
0
0
0
0
0
0
0
0
0
0
0
0
0
0
0
0
0
0
0
0
0
0
0
0
0
0
0
0
0
0
0
0
0
0
0
0
0
0
0
0
0
0
0
0
0
0
0
0
0
0
0
0
0
0
0
0
0
0
0
0
0
0
0
0
0
0
0
0
0
0
0
0
0
0
0
0
0
0
0
0
0
0
0
0
0
0
0
0
0
0
0
0
0
0
0
0
0
0
0
0
0
0
0
0
0
0
0
0
0
0
0
0
0
0
0
0
0
0
0
0
0
0
0
0
0
0
0
0
0
0
0
0
0
0
0
0
0
0
0
0
0
0
0
0
0
0
0
0
0
0
0
0
0
0
0
0
0
0
0
0
0
0
0
0
0
0
0
0
0
0
0
0
0
0
0
0
0
0
0
0
0
0
0
0
0
0
0
0
0
0
0
0
0
0
0
0
0
0
0
0
0
0
0
0
0
0
0
0
0
0
0
0
0
0
0
0
0
0
0
0
0
0
0
0
0
0
0
0
0
0
0
0
0
0
0
0
0
0
0
0
0
0
0
0
0
0
0
0
0
0
0
0
0
0
0
0
0
0
0
0
0
0
0
0
0
0
0
0
0
0
0
0
0
0
0
0
0
0
0
0
0
0
0
0
0
0
0
0
0
0
0
0
0
0
0
0
0
0
0
0
0
0
0
0
0
0
0
0
0
0
0
0
0
0
0
0
0
0
0
0
0
0
0
0
0
0
0
0
0
0
0
0
0
0
0
0
0
0
0
0
0
0
0
0
0
0
0
0
0
0
0
0
0
0
0
0
0
0
0
0
0
0
0
0
0
0
0
0
0
0
0
0
0
0
0
0
0
0
0
0
0
0
0
0
0
0
0
0
0
0
0
0
0
0
0
0
0
0
0
0
0
0
0
0
0
0
0
0
0
0
0
0
0
0
0
0
0
0
0
0
0
0
0
0
0
0
0
0
0
0
0
0
0
0
0
0
0
0
0
0
0
0
0
0
0
0
0
0
0
0
0
0
0
0
0
0
0
0
0
0
0
0
0
0
0
0
0
0
0
0
0
0
0
0
0
0
0
0
0
0
0
0
0
0
0
0
0
0
0
0
0
0
0
0
0
0
0
0
0
0
0
0
0
0
0
0
0
0
0
0
0
0
0
0
0
0
0
0
0
0
0
0
0
0
0
0
0
0
0
0
0
0
0
0
0
0
0
0
0
0
0
0
0
0
0
0
0
0
0
0
0
0
0
0
0
0
0
0
0
0
0
0
0
0
0
0
0
0
0
0
0
0
0
0
0
0
0
0
0
0
0
0
0
0
0
0
0
0
0
0
0
0
0
0
0
0
0
0
0
0
0
0
0
0
0
0
0
0
0
0
0
0
0
0
0
0
0
0
0
0
0
0
0
0
0
0
0
0
0
0
0
0
0
0
0
0
0
0
0
0
0
0
0
0
0
0
0
0
0
0
0
0
0
0
0
0
0
0
0
0
0
0
0
0
0
0
0
0
0
0
0
0
0
0
0
0
0
0
0
0
0
0
0
0
0
0
0
0
0
0
0
0
0
0
0
0
0
0
0
0
0
0
0
0
0
0
0
0
0
0
0
0
0
0
0
0
0
0
0
0
0
0
0
0
0
0
0
0
0
0
0
0
0
0
0
0
0
0
0
0
0
0
0
0
0
0
0
0
0
0
0
0
0
0
0
0
0
0
0
0
0
0
0
0
0
0
0
0
0
0
0
0
0
0
0
0
0
0
0
0
0
0
0
0
0
0
0
0
0
0
0
0
0
0
0
0
0
0
0
0
0
0
0
0
0
0
0
0
0
0
0
0
0
0
0
0
0
0
0
0
0
0
0
0
0
0
0
0
0
0
0
0
0
0
0
0
0
0
0
0
0
0
0
0
0
0
0
0
0
0
0
0
0
0
0
0
0
0
0
0
0
0
0
0
0
0
0
0
0
0
0
0
0
0
0
0
0
0
0
0
0
0
0
0
0
0
0
0
0
0
0
0
0
0
0
0
0
0
0
0
0
0
0
0
0
0
0
0
0
0
0
0
0
0
0
0
0
0
0
0
0
0
0
0
0
0
0
0
0
0
0
0
0
0
0
0
0
0
0
0
0
0
0
0
0
0
0
0
0
0
0
0
0
0
0
0
0
0
0
0
0
0
0
0
0
0
0
0
0
0
0
0
0
0
0
0
0
0
0
0
0
0
0
0
0
0
0
0
0
0
0
0
0
0
0
0
0
0
0
0
0
0
0
0
0
0
0
0
0
0
0
0
0
0
0
0
0
0
0
0
0
0
0
0
0
0
0
0
0
0
0
0
0
0
0
0
0
0
0
0
0
0
0
0
0
0
0
0
0
0
0
0
0
0
0
0
0
0
0
0
0
0
0
0
0
0
0
0
0
0
0
0
0
0
0
0
0
0
0
0
0
0
0
0
0
0
0
0
0
0
0
0
0
0
0
0
0
0
0
0
0
0
0
0
0
0
0
0
0
0
0
0
0
0
0
0
0
0
0
0
0
0
0
0
0
0
0
0
0
0
0
0
0
0
0
0
0
0
0
0
0
0
0
0
0
0
0
0
0
0
0
0
0
0
0
0
0
0
0
0
0
0
0
0
0
0
0
0
0
0
0
0
0
0
0
0
0
0
0
0
0
0
0
0
0
0
0
0
0
0
0
0
0
0
0
0
0
0
0
0
0
0
0
0
0
0
0
0
0
0
0
0
0
0
0
0
0
0
0
0
0
0
0
0
0
0
0
0
0
0
0
0
0
0
0
0
0
0
0
0
0
0
0
0
0
0
0
0
0
0
0
0
0
0
0
0
0
0
0
1
1
1
1
1
1
1
1
1
1
1
1
1
1
1
1
1
1
1
1
1
1
1
1
1
1
1
1
1
1
2
2
2
2
2
2
2
2
2
2
2
2
2
2
2
2
2
2
2
2
2
2
2
2
2
2
2
2
2
2
3
3
3
3
3
3
3
3
3
3
3
3
3
3
3
3
3
3
3
3
3
3
3
3
3
3
3
3
3
3
4
4
4
4
4
4
4
4
4
4
4
4
4
4
4
4
4
4
4
4
4
4
4
4
4
4
4
4
4
4

LOOKUP_TABLE FreeFempp_table 5
1.00000000 0.00000000 0.00000000 1.00000000
1.00000000 1.00000000 0.00000000 1.00000000
1.00000000 0.00000000 1.00000000 1.00000000
0.00000000 1.00000000 0.00000000 1.00000000
0.00000000 1.00000000 1.00000000 1.00000000

POINT_DATA 961
FIELD FieldData 1
Density 1 961 float
2.19556857e-02 1.56114716e-02 1.24901431e-02 1.04480879e-02 1.03952000e-02 1.08283423e-02 1.14233987e-02 1.21623445e-02 1.36885727e-02 1.98845156e-02 5.71681485e-02 1.41889215e-01 7.26338148e-01 8.99768829e-01 9.11908865e-01 8.85860860e-01 7.86371708e-01 5.01637936e-01 1.86383128e-01 1.16410978e-01 1.00425437e-01 1.17258549e-01 1.90282017e-01 4.21742439e-01 6.43180728e-01 6.91932917e-01 5.98877132e-01 2.46745989e-01 1.97783280e-02 2.29904372e-02 1.99606821e-01 2.13626754e-02 1.20800706e-02 1.29995868e-02 1.13077248e-02 1.04356380e-02 1.03693902e-02 1.06616868e-02 1.10990340e-02 1.14663839e-02 1.04774581e-02 1.09524596e-02 1.56934895e-02 2.76130736e-02 1.30360469e-01 8.72561455e-01 8.92022491e-01 8.34830940e-01 4.69394743e-01 9.02898312e-02 5.11780232e-02 4.66590747e-02 5.00320159e-02 6.06725030e-02 1.69899151e-01 6.88722074e-01 8.27634394e-01 7.00976253e-01 2.90363759e-01 2.38914806e-02 1.17241424e-02 4.44379970e-02 4.51456234e-02 2.46965215e-02 2.34845746e-02 6.26712590e-02 9.92238298e-02 1.25272050e-01 1.42416805e-01 1.49576887e-01 1.32536039e-01 6.27242029e-02 1.88367777e-02 1.33589627e-02 1.17209014e-02 1.36989299e-02 2.00152583e-02 2.98031475e-02 3.72272320e-02 3.91778238e-02 4.04906012e-02 4.67201956e-02 7.02040121e-02 1.00504957e-01 1.75897837e-01 4.54728395e-01 7.82547116e-01 8.27216506e-01 7.42318809e-01 5.62739611e-01 1.37531087e-01 1.38477311e-02 1.90350041e-02 7.06293583e-02 4.22520675e-02 8.41702521e-02 1.86084077e-01 2.56223977e-01 2.97851831e-01 3.29297513e-01 3.52472067e-01 3.62524986e-01 3.46933037e-01 2.79288560e-01 1.42894328e-01 3.98200266e-02 2.00684667e-02 1.57199837e-02 1.72777288e-02 2.23747659e-02 2.84948647e-02 3.33039798e-02 4.65357937e-02 1.55131981e-01 6.26269937e-01 7.54684150e-01 8.07199359e-01 8.42964709e-01 8.33814204e-01 7.53148735e-01 5.82273126e-01 3.58931094e-01 1.66024808e-02 1.77880395e-02 1.06281750e-01 5.62157668e-02 1.25856727e-01 2.52165288e-01 3.25940728e-01 3.67979616e-01 3.93935978e-01 4.09528613e-01 4.13945138e-01 4.03180867e-01 3.71249884e-01 3.13054651e-01 2.29249343e-01 1.40814677e-01 9.30723548e-02 5.24638183e-02 4.34273258e-02 4.33258191e-02 5.17262854e-02 1.07999884e-01 3.91918302e-01 7.01806605e-01 7.74675488e-01 7.95683086e-01 8.04120779e-01 7.90917933e-01 7.34459400e-01 6.09030843e-01 4.30575401e-01 1.72157008e-02 1.88814085e-02 1.76175997e-01 9.28340331e-02 2.05758318e-01 3.43407363e-01 4.10457551e-01 4.47370946e-01 4.66649801e-01 4.76104259e-01 4.78102535e-01 4.71778601e-01 4.55038548e-01 4.26505357e-01 3.85622531e-01 3.30928922e-01 2.67183781e-01 2.03563064e-01 1.63167700e-01 1.44766390e-01 1.44353941e-01 2.31892750e-01 4.89406943e-01 6.79558218e-01 7.50484884e-01 7.76136100e-01 7.85127997e-01 7.77214766e-01 7.38658547e-01 6.41613364e-01 4.42390054e-01 1.78429931e-02 1.94816068e-02 3.76811802e-01 1.36938974e-01 4.27876472e-01 4.96976137e-01 5.36867261e-01 5.54573774e-01 5.60777903e-01 5.61554611e-01 5.59107304e-01 5.53103745e-01 5.42372942e-01 5.26338756e-01 5.05183756e-01 4.78637725e-01 4.45556343e-01 4.03325588e-01 3.61392289e-01 3.26997995e-01 3.23195398e-01 4.00410801e-01 5.42800307e-01 6.60631955e-01 7.24655092e-01 7.55040526e-01 7.67232955e-01 7.64114082e-01 7.39609659e-01 6.66740537e-01 4.37640667e-01 1.85089260e-02 1.97450351e-02 6.37698054e-01 2.60008514e-01 7.37819850e-01 6.71047449e-01 6.74956501e-01 6.67139769e-01 6.57252252e-01 6.46962047e-01 6.36743367e-01 6.25818670e-01 6.13119125e-01 5.98111510e-01 5.80865145e-01 5.61399460e-01 5.39120913e-01 5.13086975e-01 4.86336648e-01 4.65959311e-01 4.68319625e-01 5.14495313e-01 5.91718912e-01 6.63451791e-01 7.11761415e-01 7.39259124e-01 7.51813471e-01 7.52170265e-01 7.38601983e-01 6.85033500e-01 4.35412109e-01 1.93407889e-02 1.99312884e-02 7.68655777e-01 5.49731791e-01 8.71376634e-01 7.85362780e-01 7.71244526e-01 7.49332786e-01 7.29573548e-01 7.11353123e-01 6.94434643e-01 6.78100705e-01 6.61637425e-01 6.44743204e-01 6.27486527e-01 6.09947920e-01 5.92082500e-01 5.74345648e-01 5.59391677e-01 5.52406251e-01 5.61424911e-01 5.91965139e-01 6.35733247e-01 6.77726567e-01 7.09257722e-01 7.29284167e-01 7.39323974e-01 7.40993679e-01 7.33954012e-01 6.93484306e-01 4.39739674e-01 2.04549562e-02 2.03375593e-02 7.85303652e-01 6.96716905e-01 8.94249856e-01 8.28196645e-01 8.11697364e-01 7.88696051e-01 7.67517030e-01 7.47299314e-01 7.28057563e-01 7.09625065e-01 6.91904247e-01 6.75021112e-01 6.59195483e-01 6.44572616e-01 6.31429255e-01 6.20860100e-01 6.15180910e-01 6.17028177e-01 6.28189027e-01 6.47933900e-01 6.71579301e-01 6.93691671e-01 7.11177707e-01 7.23161697e-01 7.29642034e-01 7.30881512e-01 7.25643337e-01 6.90761685e-01 4.46532637e-01 2.19664499e-02 2.11437084e-02 6.80278718e-01 5.95344424e-01 8.57502699e-01 8.12440872e-01 8.04562807e-01 7.89754331e-01 7.73995280e-01 7.57364631e-01 7.40662038e-01 7.24462211e-01 7.09279358e-01 6.95593119e-01 6.83693469e-01 6.73702300e-01 6.66016817e-01 6.61844671e-01 6.62771165e-01 6.69106245e-01 6.79136574e-01 6.90209031e-01 7.00137973e-01 7.08093882e-01 7.14211583e-01 7.18718827e-01 7.21431077e-01 7.21380889e-01 7.15006351e-01 6.78194404e-01 4.41442400e-01 2.40457393e-02 2.25766897e-02 3.65911365e-01 2.60091871e-01 6.64333642e-01 7.13384569e-01 7.46627271e-01 7.55339563e-01 7.53145635e-01 7.45584965e-01 7.35884607e-01 7.25876451e-01 7.16715157e-01 7.09056675e-01 7.03057587e-01 6.98717535e-01 6.96433187e-01 6.97403669e-01 7.02591419e-01 7.10711300e-01 7.18557119e-01 7.23310053e-01 7.24098980e-01 7.21928298e-01 7.18535960e-01 7.15422869e-01 7.13293970e-01 7.10970700e-01 7.02415466e-01 6.56848788e-01 3.95711690e-01 2.69990098e-02 2.50446666e-02 1.56843781e-01 1.43421054e-01 2.66107440e-01 5.09102404e-01 6.36185229e-01 6.89301193e-01 7.09609270e-01 7.16030359e-01 7.16793239e-01 7.15798914e-01 7.15006530e-01 7.15133488e-01 7.16036737e-01 7.17487574e-01 7.20094562e-01 7.24694490e-01 7.32595444e-01 7.41728246e-01 7.48275280e-01 7.49822736e-01 7.45998323e-01 7.37933636e-01 7.27377176e-01 7.16304183e-01 7.06689656e-01 6.98714137e-01 6.84469759e-01 6.19306743e-01 2.93496281e-01 3.13955136e-02 2.93618031e-02 1.13015637e-01 9.64751840e-02 1.36996359e-01 3.47041398e-01 5.24241924e-01 6.13193691e-01 6.54957056e-01 6.75863564e-01 6.87870085e-01 6.96657002e-01 7.04878747e-01 7.13162959e-01 7.20902085e-01 7.27631509e-01 7.34510541e-01 7.42157280e-01 7.51657784e-01 7.62190700e-01 7.69324422e-01 7.70976245e-01 7.67049909e-01 7.58130133e-01 7.44866490e-01 7.28068471e-01 7.09102809e-01 6.88425720e-01 6.56150579e-01 5.50411403e-01 1.88880280e-01 3.78257297e-02 3.69215123e-02 8.00765529e-02 5.92726506e-02 1.22307576e-01 3.04224253e-01 4.68151718e-01 5.57218730e-01 6.06198311e-01 6.35571182e-01 6.55804873e-01 6.72561884e-01 6.88587010e-01 7.04211771e-01 7.18085527e-01 7.29381502e-01 7.40532577e-01 7.48803616e-01 7.62023509e-01 7.73323536e-01 7.82635868e-01 7.86923110e-01 7.86404312e-01 7.81301558e-01 7.71286070e-01 7.55416036e-01 7.31950223e-01 6.96079075e-01 6.30388796e-01 4.68976676e-01 1.41258359e-01 4.62958403e-02 4.84908596e-02 6.06882907e-02 5.36349192e-02 1.30779803e-01 3.27180147e-01 4.56099838e-01 5.28457999e-01 5.72882712e-01 6.03229880e-01 6.26814723e-01 6.48104370e-01 6.69369519e-01 6.90552950e-01 7.09668398e-01 7.25096047e-01 7.36580908e-01 7.46833563e-01 7.62191832e-01 7.76724041e-01 7.88407922e-01 7.96655715e-01 8.01319838e-01 8.02664697e-01 8.00198793e-01 7.92532325e-01 7.76346684e-01 7.42532969e-01 6.64590418e-01 4.81955677e-01 1.54201746e-01 5.20458706e-02 6.39696047e-02 4.70896475e-02 4.49981429e-02 1.76930979e-01 3.62625062e-01 4.57541198e-01 5.14827669e-01 5.52416563e-01 5.79985440e-01 6.03344023e-01 6.26004755e-01 6.49669468e-01 6.73968613e-01 6.96742892e-01 7.15619385e-01 7.31742620e-01 7.44011045e-01 7.60113597e-01 7.73059011e-01 7.86545932e-01 7.98469543e-01 8.08474302e-01 8.16599905e-01 8.22552860e-01 8.25519621e-01 8.23336005e-01 8.10021281e-01 7.69185841e-01 6.60106480e-01 3.71054947e-01 8.33731592e-02 9.66236144e-02 3.66800018e-02 3.71792428e-02 2.30575085e-01 3.86500180e-01 4.59766179e-01 5.06514430e-01 5.38171113e-01 5.62349319e-01 5.84125936e-01 6.06380463e-01 6.30354226e-01 6.55558646e-01 6.79960489e-01 7.01146424e-01 7.18398154e-01 7.33752251e-01 7.48138189e-01 7.61994362e-01 7.76394904e-01 7.90937245e-01 8.05318058e-01 8.19237590e-01 8.32380354e-01 8.44288588e-01 8.53806794e-01 8.58203471e-01 8.52585614e-01 8.27620506e-01 8.08597445e-01 2.03733653e-01 2.21588552e-01 2.95764022e-02 3.09974682e-02 2.50284970e-01 4.07954663e-01 4.64654177e-01 5.00396252e-01 5.25734127e-01 5.46556950e-01 5.66597998e-01 5.87828696e-01 6.10968053e-01 6.35495424e-01 6.59725487e-01 6.81569099e-01 6.99824631e-01 7.15142548e-01 7.29200780e-01 7.42741585e-01 7.57233918e-01 7.73179412e-01 7.90445268e-01 8.08594763e-01 8.27167630e-01 8.45659018e-01 8.62955391e-01 8.76959741e-01 8.85853767e-01 8.86083722e-01 9.17356253e-01 7.62313843e-01 7.37293899e-01 2.46104486e-02 2.65181474e-02 2.52665848e-01 4.36652780e-01 4.75719333e-01 4.96169418e-01 5.13357162e-01 5.30445874e-01 5.48802674e-01 5.68938732e-01 5.90821743e-01 6.13811076e-01 6.36588871e-01 6.57523513e-01 6.75466537e-01 6.90448582e-01 7.03583300e-01 7.16291070e-01 7.30074763e-01 7.45926023e-01 7.63998866e-01 7.83989072e-01 8.05525780e-01 8.28123391e-01 8.50402713e-01 8.69646311e-01 8.83866668e-01 8.89462471e-01 9.37651217e-01 8.43457699e-01 8.91814828e-01 2.09830776e-02 2.32266523e-02 2.60937214e-01 4.72035497e-01 4.91939813e-01 4.93505627e-01 5.00514507e-01 5.13200700e-01 5.29826999e-01 5.48980594e-01 5.69659531e-01 5.90960026e-01 6.11817777e-01 6.31058633e-01 6.47796810e-01 6.61897182e-01 6.74076259e-01 6.85571790e-01 6.97794855e-01 7.11777329e-01 7.27911770e-01 7.46187806e-01 7.66575158e-01 7.88973451e-01 8.12014282e-01 8.31570208e-01 8.42618108e-01 8.40370893e-01 9.09160197e-01 4.84987438e-01 8.70771825e-01 1.84660517e-02 2.06970554e-02 2.83260912e-01 5.09141922e-01 5.09083629e-01 4.90657389e-01 4.86510277e-01 4.94481564e-01 5.09415567e-01 5.27775466e-01 5.47528803e-01 5.67444384e-01 5.86582780e-01 6.04112506e-01 6.19426608e-01 6.32382452e-01 6.43403530e-01 6.53331280e-01 6.63161993e-01 6.73675179e-01 6.85221016e-01 6.97858334e-01 7.11707652e-01 7.27055252e-01 7.42856145e-01 7.52751172e-01 7.42488384e-01 6.96970999e-01 6.78929687e-01 1.72809333e-01 6.07579648e-01 1.70056056e-02 1.88011695e-02 3.21947783e-01 5.41460633e-01 5.21575868e-01 4.84410197e-01 4.70067084e-01 4.74011213e-01 4.87630159e-01 5.05420864e-01 5.24497807e-01 5.43379903e-01 5.61197996e-01 5.77332318e-01 5.91354668e-01 6.03114307e-01 6.12789571e-01 6.20809913e-01 6.27683997e-01 6.33766770e-01 6.39098763e-01 6.43449545e-01 6.46625578e-01 6.48894370e-01 6.49986207e-01 6.43383801e-01 6.08091831e-01 5.17265260e-01 3.46211940e-01 1.29674956e-01 2.34744996e-01 1.63715594e-02 1.75085180e-02 3.73298734e-01 5.61027646e-01 5.23023009e-01 4.71153170e-01 4.50075865e-01 4.51919138e-01 4.64946181e-01 4.82299447e-01 5.00677109e-01 5.18561721e-01 5.35191000e-01 5.50084352e-01 5.62898517e-01 5.73436201e-01 5.81663191e-01 5.87657273e-01 5.91493487e-01 5.93095005e-01 5.92121422e-01 5.87979138e-01 5.80116332e-01 5.68873584e-01 5.55950046e-01 5.40279567e-01 5.08314192e-01 4.35268402e-01 2.64711827e-01 1.00884877e-01 1.54718325e-01 1.62428152e-02 1.66659877e-02 4.26214844e-01 5.61069250e-01 5.07922232e-01 4.49073195e-01 4.27130282e-01 4.29577410e-01 4.42682981e-01 4.59333509e-01 4.76460934e-01 4.92820084e-01 5.07854223e-01 5.21210670e-01 5.32590866e-01 5.41742444e-01 5.48467278e-01 5.52583575e-01 5.53841352e-01 5.51827013e-01 5.45922279e-01 5.35384119e-01 5.19700348e-01 4.99710888e-01 4.79327470e-01 4.64055359e-01 4.52113450e-01 4.21309978e-01 2.75284648e-01 6.85269311e-02 1.30587757e-01 1.63197983e-02 1.61298160e-02 4.74512786e-01 5.40009201e-01 4.75602269e-01 4.21047747e-01 4.04996872e-01 4.10287738e-01 4.23291892e-01 4.38087165e-01 4.52604085e-01 4.66202497e-01 4.78631377e-01 4.89665300e-01 4.99031544e-01 5.06434083e-01 5.11573970e-01 5.14123023e-01 5.13656616e-01 5.09589195e-01 5.01195848e-01 4.87805665e-01 4.69233543e-01 4.46778774e-01 4.25204933e-01 4.13138568e-01 4.17437345e-01 4.23176348e-01 3.12443674e-01 5.16549014e-02 1.06721781e-01 1.60968918e-02 1.55242924e-02 5.44971943e-01 5.08170903e-01 4.36004698e-01 3.96453917e-01 3.90833467e-01 3.98935914e-01 4.09740150e-01 4.20128703e-01 4.29753155e-01 4.38769937e-01 4.47204053e-01 4.54876781e-01 4.61482495e-01 4.66672063e-01 4.70094681e-01 4.71387386e-01 4.70125586e-01 4.65776682e-01 4.57739770e-01 4.45576757e-01 4.29430693e-01 4.10527587e-01 3.92477989e-01 3.83761972e-01 3.96917373e-01 4.33309823e-01 4.13101166e-01 4.59612198e-02 7.68630207e-02 1.87494792e-02 1.32274460e-02 7.12937534e-01 5.14483392e-01 4.15073842e-01 3.89867812e-01 3.92727524e-01 3.99172962e-01 4.02995199e-01 4.05268818e-01 4.07505184e-01 4.10334498e-01 4.13726509e-01 4.17330682e-01 4.20694530e-01 4.23375875e-01 4.24986362e-01 4.25191611e-01 4.23690110e-01 4.20200676e-01 4.14516807e-01 4.06714737e-01 3.97490203e-01 3.88071835e-01 3.79406542e-01 3.75958860e-01 4.02705878e-01 5.13019264e-01 7.09178150e-01 3.99564914e-02 5.12394607e-02 4.44275439e-02 1.27485543e-02 8.44094872e-01 6.75324619e-01 4.55349743e-01 4.11926627e-01 4.09482807e-01 4.05478448e-01 3.97543460e-01 3.89848530e-01 3.84361982e-01 3.81254017e-01 3.79986018e-01 3.79863530e-01 3.80241394e-01 3.80581945e-01 3.80461454e-01 3.79565656e-01 3.77696842e-01 3.74815464e-01 3.71151239e-01 3.67451102e-01 3.65450531e-01 3.68293822e-01 3.79333109e-01 4.01591808e-01 4.91873711e-01 7.65048563e-01 8.03884268e-01 3.66088003e-02 4.22584377e-02 1.24104256e-02 1.08692385e-02 9.19550896e-01 8.45657527e-01 5.40473402e-01 4.24287796e-01 4.10186470e-01 3.98467600e-01 3.84159029e-01 3.71799976e-01 3.62823129e-01 3.56878996e-01 3.53146821e-01 3.50820422e-01 3.49225461e-01 3.47817093e-01 3.46151471e-01 3.43867749e-01 3.40702116e-01 3.36553961e-01 3.31621379e-01 3.26633662e-01 3.23361307e-01 3.26316833e-01 3.49192142e-01 4.38981652e-01 6.99606359e-01 8.50149035e-01 8.91758740e-01 3.07573061e-02 3.60801555e-02 2.83806752e-02 1.81298740e-02 9.52413857e-01 4.77977514e-01 6.00780606e-01 5.72592735e-01 5.82093716e-01 5.85836649e-01 5.83209455e-01 5.78588247e-01 5.74287057e-01 5.70973694e-01 5.68601429e-01 5.66897392e-01 5.65552115e-01 5.64271927e-01 5.62778592e-01 5.60797751e-01 5.58060825e-01 5.54343879e-01 5.49566150e-01 5.43960214e-01 5.38326502e-01 5.34631312e-01 5.38269877e-01 5.63819170e-01 6.40694022e-01 8.00824106e-01 9.36056435e-01 9.63099748e-02 5.71280010e-02 
