# vtk DataFile Version 2.0
results_case1_non_linear/2_density.vtk, Created by Freefem++ 
ASCII
DATASET UNSTRUCTURED_GRID
POINTS 961 float
0 0 0
0.033333333 0 0
0.066666667 0 0
0.1 0 0
0.13333333 0 0
0.16666667 0 0
0.2 0 0
0.23333333 0 0
0.26666667 0 0
0.3 0 0
0.33333333 0 0
0.36666667 0 0
0.4 0 0
0.43333333 0 0
0.46666667 0 0
0.5 0 0
0.53333333 0 0
0.56666667 0 0
0.6 0 0
0.63333333 0 0
0.66666667 0 0
0.7 0 0
0.73333333 0 0
0.76666667 0 0
0.8 0 0
0.83333333 0 0
0.86666667 0 0
0.9 0 0
0.93333333 0 0
0.96666667 0 0
1 0 0
0 0.033333333 0
0.033333333 0.033333333 0
0.066666667 0.033333333 0
0.1 0.033333333 0
0.13333333 0.033333333 0
0.16666667 0.033333333 0
0.2 0.033333333 0
0.23333333 0.033333333 0
0.26666667 0.033333333 0
0.3 0.033333333 0
0.33333333 0.033333333 0
0.36666667 0.033333333 0
0.4 0.033333333 0
0.43333333 0.033333333 0
0.46666667 0.033333333 0
0.5 0.033333333 0
0.53333333 0.033333333 0
0.56666667 0.033333333 0
0.6 0.033333333 0
0.63333333 0.033333333 0
0.66666667 0.033333333 0
0.7 0.033333333 0
0.73333333 0.033333333 0
0.76666667 0.033333333 0
0.8 0.033333333 0
0.83333333 0.033333333 0
0.86666667 0.033333333 0
0.9 0.033333333 0
0.93333333 0.033333333 0
0.96666667 0.033333333 0
1 0.033333333 0
0 0.066666667 0
0.033333333 0.066666667 0
0.066666667 0.066666667 0
0.1 0.066666667 0
0.13333333 0.066666667 0
0.16666667 0.066666667 0
0.2 0.066666667 0
0.23333333 0.066666667 0
0.26666667 0.066666667 0
0.3 0.066666667 0
0.33333333 0.066666667 0
0.36666667 0.066666667 0
0.4 0.066666667 0
0.43333333 0.066666667 0
0.46666667 0.066666667 0
0.5 0.066666667 0
0.53333333 0.066666667 0
0.56666667 0.066666667 0
0.6 0.066666667 0
0.63333333 0.066666667 0
0.66666667 0.066666667 0
0.7 0.066666667 0
0.73333333 0.066666667 0
0.76666667 0.066666667 0
0.8 0.066666667 0
0.83333333 0.066666667 0
0.86666667 0.066666667 0
0.9 0.066666667 0
0.93333333 0.066666667 0
0.96666667 0.066666667 0
1 0.066666667 0
0 0.1 0
0.033333333 0.1 0
0.066666667 0.1 0
0.1 0.1 0
0.13333333 0.1 0
0.16666667 0.1 0
0.2 0.1 0
0.23333333 0.1 0
0.26666667 0.1 0
0.3 0.1 0
0.33333333 0.1 0
0.36666667 0.1 0
0.4 0.1 0
0.43333333 0.1 0
0.46666667 0.1 0
0.5 0.1 0
0.53333333 0.1 0
0.56666667 0.1 0
0.6 0.1 0
0.63333333 0.1 0
0.66666667 0.1 0
0.7 0.1 0
0.73333333 0.1 0
0.76666667 0.1 0
0.8 0.1 0
0.83333333 0.1 0
0.86666667 0.1 0
0.9 0.1 0
0.93333333 0.1 0
0.96666667 0.1 0
1 0.1 0
0 0.13333333 0
0.033333333 0.13333333 0
0.066666667 0.13333333 0
0.1 0.13333333 0
0.13333333 0.13333333 0
0.16666667 0.13333333 0
0.2 0.13333333 0
0.23333333 0.13333333 0
0.26666667 0.13333333 0
0.3 0.13333333 0
0.33333333 0.13333333 0
0.36666667 0.13333333 0
0.4 0.13333333 0
0.43333333 0.13333333 0
0.46666667 0.13333333 0
0.5 0.13333333 0
0.53333333 0.13333333 0
0.56666667 0.13333333 0
0.6 0.13333333 0
0.63333333 0.13333333 0
0.66666667 0.13333333 0
0.7 0.13333333 0
0.73333333 0.13333333 0
0.76666667 0.13333333 0
0.8 0.13333333 0
0.83333333 0.13333333 0
0.86666667 0.13333333 0
0.9 0.13333333 0
0.93333333 0.13333333 0
0.96666667 0.13333333 0
1 0.13333333 0
0 0.16666667 0
0.033333333 0.16666667 0
0.066666667 0.16666667 0
0.1 0.16666667 0
0.13333333 0.16666667 0
0.16666667 0.16666667 0
0.2 0.16666667 0
0.23333333 0.16666667 0
0.26666667 0.16666667 0
0.3 0.16666667 0
0.33333333 0.16666667 0
0.36666667 0.16666667 0
0.4 0.16666667 0
0.43333333 0.16666667 0
0.46666667 0.16666667 0
0.5 0.16666667 0
0.53333333 0.16666667 0
0.56666667 0.16666667 0
0.6 0.16666667 0
0.63333333 0.16666667 0
0.66666667 0.16666667 0
0.7 0.16666667 0
0.73333333 0.16666667 0
0.76666667 0.16666667 0
0.8 0.16666667 0
0.83333333 0.16666667 0
0.86666667 0.16666667 0
0.9 0.16666667 0
0.93333333 0.16666667 0
0.96666667 0.16666667 0
1 0.16666667 0
0 0.2 0
0.033333333 0.2 0
0.066666667 0.2 0
0.1 0.2 0
0.13333333 0.2 0
0.16666667 0.2 0
0.2 0.2 0
0.23333333 0.2 0
0.26666667 0.2 0
0.3 0.2 0
0.33333333 0.2 0
0.36666667 0.2 0
0.4 0.2 0
0.43333333 0.2 0
0.46666667 0.2 0
0.5 0.2 0
0.53333333 0.2 0
0.56666667 0.2 0
0.6 0.2 0
0.63333333 0.2 0
0.66666667 0.2 0
0.7 0.2 0
0.73333333 0.2 0
0.76666667 0.2 0
0.8 0.2 0
0.83333333 0.2 0
0.86666667 0.2 0
0.9 0.2 0
0.93333333 0.2 0
0.96666667 0.2 0
1 0.2 0
0 0.23333333 0
0.033333333 0.23333333 0
0.066666667 0.23333333 0
0.1 0.23333333 0
0.13333333 0.23333333 0
0.16666667 0.23333333 0
0.2 0.23333333 0
0.23333333 0.23333333 0
0.26666667 0.23333333 0
0.3 0.23333333 0
0.33333333 0.23333333 0
0.36666667 0.23333333 0
0.4 0.23333333 0
0.43333333 0.23333333 0
0.46666667 0.23333333 0
0.5 0.23333333 0
0.53333333 0.23333333 0
0.56666667 0.23333333 0
0.6 0.23333333 0
0.63333333 0.23333333 0
0.66666667 0.23333333 0
0.7 0.23333333 0
0.73333333 0.23333333 0
0.76666667 0.23333333 0
0.8 0.23333333 0
0.83333333 0.23333333 0
0.86666667 0.23333333 0
0.9 0.23333333 0
0.93333333 0.23333333 0
0.96666667 0.23333333 0
1 0.23333333 0
0 0.26666667 0
0.033333333 0.26666667 0
0.066666667 0.26666667 0
0.1 0.26666667 0
0.13333333 0.26666667 0
0.16666667 0.26666667 0
0.2 0.26666667 0
0.23333333 0.26666667 0
0.26666667 0.26666667 0
0.3 0.26666667 0
0.33333333 0.26666667 0
0.36666667 0.26666667 0
0.4 0.26666667 0
0.43333333 0.26666667 0
0.46666667 0.26666667 0
0.5 0.26666667 0
0.53333333 0.26666667 0
0.56666667 0.26666667 0
0.6 0.26666667 0
0.63333333 0.26666667 0
0.66666667 0.26666667 0
0.7 0.26666667 0
0.73333333 0.26666667 0
0.76666667 0.26666667 0
0.8 0.26666667 0
0.83333333 0.26666667 0
0.86666667 0.26666667 0
0.9 0.26666667 0
0.93333333 0.26666667 0
0.96666667 0.26666667 0
1 0.26666667 0
0 0.3 0
0.033333333 0.3 0
0.066666667 0.3 0
0.1 0.3 0
0.13333333 0.3 0
0.16666667 0.3 0
0.2 0.3 0
0.23333333 0.3 0
0.26666667 0.3 0
0.3 0.3 0
0.33333333 0.3 0
0.36666667 0.3 0
0.4 0.3 0
0.43333333 0.3 0
0.46666667 0.3 0
0.5 0.3 0
0.53333333 0.3 0
0.56666667 0.3 0
0.6 0.3 0
0.63333333 0.3 0
0.66666667 0.3 0
0.7 0.3 0
0.73333333 0.3 0
0.76666667 0.3 0
0.8 0.3 0
0.83333333 0.3 0
0.86666667 0.3 0
0.9 0.3 0
0.93333333 0.3 0
0.96666667 0.3 0
1 0.3 0
0 0.33333333 0
0.033333333 0.33333333 0
0.066666667 0.33333333 0
0.1 0.33333333 0
0.13333333 0.33333333 0
0.16666667 0.33333333 0
0.2 0.33333333 0
0.23333333 0.33333333 0
0.26666667 0.33333333 0
0.3 0.33333333 0
0.33333333 0.33333333 0
0.36666667 0.33333333 0
0.4 0.33333333 0
0.43333333 0.33333333 0
0.46666667 0.33333333 0
0.5 0.33333333 0
0.53333333 0.33333333 0
0.56666667 0.33333333 0
0.6 0.33333333 0
0.63333333 0.33333333 0
0.66666667 0.33333333 0
0.7 0.33333333 0
0.73333333 0.33333333 0
0.76666667 0.33333333 0
0.8 0.33333333 0
0.83333333 0.33333333 0
0.86666667 0.33333333 0
0.9 0.33333333 0
0.93333333 0.33333333 0
0.96666667 0.33333333 0
1 0.33333333 0
0 0.36666667 0
0.033333333 0.36666667 0
0.066666667 0.36666667 0
0.1 0.36666667 0
0.13333333 0.36666667 0
0.16666667 0.36666667 0
0.2 0.36666667 0
0.23333333 0.36666667 0
0.26666667 0.36666667 0
0.3 0.36666667 0
0.33333333 0.36666667 0
0.36666667 0.36666667 0
0.4 0.36666667 0
0.43333333 0.36666667 0
0.46666667 0.36666667 0
0.5 0.36666667 0
0.53333333 0.36666667 0
0.56666667 0.36666667 0
0.6 0.36666667 0
0.63333333 0.36666667 0
0.66666667 0.36666667 0
0.7 0.36666667 0
0.73333333 0.36666667 0
0.76666667 0.36666667 0
0.8 0.36666667 0
0.83333333 0.36666667 0
0.86666667 0.36666667 0
0.9 0.36666667 0
0.93333333 0.36666667 0
0.96666667 0.36666667 0
1 0.36666667 0
0 0.4 0
0.033333333 0.4 0
0.066666667 0.4 0
0.1 0.4 0
0.13333333 0.4 0
0.16666667 0.4 0
0.2 0.4 0
0.23333333 0.4 0
0.26666667 0.4 0
0.3 0.4 0
0.33333333 0.4 0
0.36666667 0.4 0
0.4 0.4 0
0.43333333 0.4 0
0.46666667 0.4 0
0.5 0.4 0
0.53333333 0.4 0
0.56666667 0.4 0
0.6 0.4 0
0.63333333 0.4 0
0.66666667 0.4 0
0.7 0.4 0
0.73333333 0.4 0
0.76666667 0.4 0
0.8 0.4 0
0.83333333 0.4 0
0.86666667 0.4 0
0.9 0.4 0
0.93333333 0.4 0
0.96666667 0.4 0
1 0.4 0
0 0.43333333 0
0.033333333 0.43333333 0
0.066666667 0.43333333 0
0.1 0.43333333 0
0.13333333 0.43333333 0
0.16666667 0.43333333 0
0.2 0.43333333 0
0.23333333 0.43333333 0
0.26666667 0.43333333 0
0.3 0.43333333 0
0.33333333 0.43333333 0
0.36666667 0.43333333 0
0.4 0.43333333 0
0.43333333 0.43333333 0
0.46666667 0.43333333 0
0.5 0.43333333 0
0.53333333 0.43333333 0
0.56666667 0.43333333 0
0.6 0.43333333 0
0.63333333 0.43333333 0
0.66666667 0.43333333 0
0.7 0.43333333 0
0.73333333 0.43333333 0
0.76666667 0.43333333 0
0.8 0.43333333 0
0.83333333 0.43333333 0
0.86666667 0.43333333 0
0.9 0.43333333 0
0.93333333 0.43333333 0
0.96666667 0.43333333 0
1 0.43333333 0
0 0.46666667 0
0.033333333 0.46666667 0
0.066666667 0.46666667 0
0.1 0.46666667 0
0.13333333 0.46666667 0
0.16666667 0.46666667 0
0.2 0.46666667 0
0.23333333 0.46666667 0
0.26666667 0.46666667 0
0.3 0.46666667 0
0.33333333 0.46666667 0
0.36666667 0.46666667 0
0.4 0.46666667 0
0.43333333 0.46666667 0
0.46666667 0.46666667 0
0.5 0.46666667 0
0.53333333 0.46666667 0
0.56666667 0.46666667 0
0.6 0.46666667 0
0.63333333 0.46666667 0
0.66666667 0.46666667 0
0.7 0.46666667 0
0.73333333 0.46666667 0
0.76666667 0.46666667 0
0.8 0.46666667 0
0.83333333 0.46666667 0
0.86666667 0.46666667 0
0.9 0.46666667 0
0.93333333 0.46666667 0
0.96666667 0.46666667 0
1 0.46666667 0
0 0.5 0
0.033333333 0.5 0
0.066666667 0.5 0
0.1 0.5 0
0.13333333 0.5 0
0.16666667 0.5 0
0.2 0.5 0
0.23333333 0.5 0
0.26666667 0.5 0
0.3 0.5 0
0.33333333 0.5 0
0.36666667 0.5 0
0.4 0.5 0
0.43333333 0.5 0
0.46666667 0.5 0
0.5 0.5 0
0.53333333 0.5 0
0.56666667 0.5 0
0.6 0.5 0
0.63333333 0.5 0
0.66666667 0.5 0
0.7 0.5 0
0.73333333 0.5 0
0.76666667 0.5 0
0.8 0.5 0
0.83333333 0.5 0
0.86666667 0.5 0
0.9 0.5 0
0.93333333 0.5 0
0.96666667 0.5 0
1 0.5 0
0 0.53333333 0
0.033333333 0.53333333 0
0.066666667 0.53333333 0
0.1 0.53333333 0
0.13333333 0.53333333 0
0.16666667 0.53333333 0
0.2 0.53333333 0
0.23333333 0.53333333 0
0.26666667 0.53333333 0
0.3 0.53333333 0
0.33333333 0.53333333 0
0.36666667 0.53333333 0
0.4 0.53333333 0
0.43333333 0.53333333 0
0.46666667 0.53333333 0
0.5 0.53333333 0
0.53333333 0.53333333 0
0.56666667 0.53333333 0
0.6 0.53333333 0
0.63333333 0.53333333 0
0.66666667 0.53333333 0
0.7 0.53333333 0
0.73333333 0.53333333 0
0.76666667 0.53333333 0
[...]
CELL_DATA 1920
Scalars  Label int 1
LOOKUP_TABLE FreeFempp_table
0
0
0
0
0
0
0
0
0
0
0
0
0
0
0
0
0
0
0
0
0
0
0
0
0
0
0
0
0
0
0
0
0
0
0
0
0
0
0
0
0
0
0
0
0
0
0
0
0
0
0
0
0
0
0
0
0
0
0
0
0
0
0
0
0
0
0
0
0
0
0
0
0
0
0
0
0
0
0
0
0
0
0
0
0
0
0
0
0
0
0
0
0
0
0
0
0
0
0
0
0
0
0
0
0
0
0
0
0
0
0
0
0
0
0
0
0
0
0
0
0
0
0
0
0
0
0
0
0
0
0
0
0
0
0
0
0
0
0
0
0
0
0
0
0
0
0
0
0
0
0
0
0
0
0
0
0
0
0
0
0
0
0
0
0
0
0
0
0
0
0
0
0
0
0
0
0
0
0
0
0
0
0
0
0
0
0
0
0
0
0
0
0
0
0
0
0
0
0
0
0
0
0
0
0
0
0
0
0
0
0
0
0
0
0
0
0
0
0
0
0
0
0
0
0
0
0
0
0
0
0
0
0
0
0
0
0
0
0
0
0
0
0
0
0
0
0
0
0
0
0
0
0
0
0
0
0
0
0
0
0
0
0
0
0
0
0
0
0
0
0
0
0
0
0
0
0
0
0
0
0
0
0
0
0
0
0
0
0
0
0
0
0
0
0
0
0
0
0
0
0
0
0
0
0
0
0
0
0
0
0
0
0
0
0
0
0
0
0
0
0
0
0
0
0
0
0
0
0
0
0
0
0
0
0
0
0
0
0
0
0
0
0
0
0
0
0
0
0
0
0
0
0
0
0
0
0
0
0
0
0
0
0
0
0
0
0
0
0
0
0
0
0
0
0
0
0
0
0
0
0
0
0
0
0
0
0
0
0
0
0
0
0
0
0
0
0
0
0
0
0
0
0
0
0
0
0
0
0
0
0
0
0
0
0
0
0
0
0
0
0
0
0
0
0
0
0
0
0
0
0
0
0
0
0
0
0
0
0
0
0
0
0
0
0
0
0
0
0
0
0
0
0
0
0
0
0
0
0
0
0
0
0
0
0
0
0
0
0
0
0
0
0
0
0
0
0
0
0
0
0
0
0
0
0
0
0
0
0
0
0
0
0
0
0
0
0
0
0
0
0
0
0
0
0
0
0
0
0
0
0
0
0
0
0
0
0
0
0
0
0
0
0
0
0
0
0
0
0
0
0
0
0
0
0
0
0
0
0
0
0
0
0
0
0
0
0
0
0
0
0
0
0
0
0
0
0
0
0
0
0
0
0
0
0
0
0
0
0
0
0
0
0
0
0
0
0
0
0
0
0
0
0
0
0
0
0
0
0
0
0
0
0
0
0
0
0
0
0
0
0
0
0
0
0
0
0
0
0
0
0
0
0
0
0
0
0
0
0
0
0
0
0
0
0
0
0
0
0
0
0
0
0
0
0
0
0
0
0
0
0
0
0
0
0
0
0
0
0
0
0
0
0
0
0
0
0
0
0
0
0
0
0
0
0
0
0
0
0
0
0
0
0
0
0
0
0
0
0
0
0
0
0
0
0
0
0
0
0
0
0
0
0
0
0
0
0
0
0
0
0
0
0
0
0
0
0
0
0
0
0
0
0
0
0
0
0
0
0
0
0
0
0
0
0
0
0
0
0
0
0
0
0
0
0
0
0
0
0
0
0
0
0
0
0
0
0
0
0
0
0
0
0
0
0
0
0
0
0
0
0
0
0
0
0
0
0
0
0
0
0
0
0
0
0
0
0
0
0
0
0
0
0
0
0
0
0
0
0
0
0
0
0
0
0
0
0
0
0
0
0
0
0
0
0
0
0
0
0
0
0
0
0
0
0
0
0
0
0
0
0
0
0
0
0
0
0
0
0
0
0
0
0
0
0
0
0
0
0
0
0
0
0
0
0
0
0
0
0
0
0
0
0
0
0
0
0
0
0
0
0
0
0
0
0
0
0
0
0
0
0
0
0
0
0
0
0
0
0
0
0
0
0
0
0
0
0
0
0
0
0
0
0
0
0
0
0
0
0
0
0
0
0
0
0
0
0
0
0
0
0
0
0
0
0
0
0
0
0
0
0
0
0
0
0
0
0
0
0
0
0
0
0
0
0
0
0
0
0
0
0
0
0
0
0
0
0
0
0
0
0
0
0
0
0
0
0
0
0
0
0
0
0
0
0
0
0
0
0
0
0
0
0
0
0
0
0
0
0
0
0
0
0
0
0
0
0
0
0
0
0
0
0
0
0
0
0
0
0
0
0
0
0
0
0
0
0
0
0
0
0
0
0
0
0
0
0
0
0
0
0
0
0
0
0
0
0
0
0
0
0
0
0
0
0
0
0
0
0
0
0
0
0
0
0
0
0
0
0
0
0
0
0
0
0
0
0
0
0
0
0
0
0
0
0
0
0
0
0
0
0
0
0
0
0
0
0
0
0
0
0
0
0
0
0
0
0
0
0
0
0
0
0
0
0
0
0
0
0
0
0
0
0
0
0
0
0
0
0
0
0
0
0
0
0
0
0
0
0
0
0
0
0
0
0
0
0
0
0
0
0
0
0
0
0
0
0
0
0
0
0
0
0
0
0
0
0
0
0
0
0
0
0
0
0
0
0
0
0
0
0
0
0
0
0
0
0
0
0
0
0
0
0
0
0
0
0
0
0
0
0
0
0
0
0
0
0
0
0
0
0
0
0
0
0
0
0
0
0
0
0
0
0
0
0
0
0
0
0
0
0
0
0
0
0
0
0
0
0
0
0
0
0
0
0
0
0
0
0
0
0
0
0
0
0
0
0
0
0
0
0
0
0
0
0
0
0
0
0
0
0
0
0
0
0
0
0
0
0
0
0
0
0
0
0
0
0
0
0
0
0
0
0
0
0
0
0
0
0
0
0
0
0
0
0
0
0
0
0
0
0
0
0
0
0
0
0
0
0
0
0
0
0
0
0
0
0
0
0
0
0
0
0
0
0
0
0
0
0
0
0
0
0
0
0
0
0
0
0
0
0
0
0
0
0
0
0
0
0
0
0
0
0
0
0
0
0
0
0
0
0
0
0
0
0
0
0
0
0
0
0
0
0
0
0
0
0
0
0
0
0
0
0
0
0
0
0
0
0
0
0
0
0
0
0
0
0
0
0
0
0
0
0
0
0
0
0
0
0
0
0
0
0
0
0
0
0
0
0
0
0
0
0
0
0
0
0
0
0
0
0
0
0
0
0
0
0
0
0
0
0
0
0
0
0
0
0
0
0
0
0
0
0
0
0
0
0
0
0
0
0
0
0
0
0
0
0
0
0
0
0
0
0
0
0
0
0
0
0
0
0
0
0
0
0
0
0
0
0
0
0
0
0
0
0
0
0
0
0
0
0
0
0
0
0
0
0
0
0
0
0
0
0
0
0
0
0
0
0
0
0
0
0
0
0
0
0
0
0
0
0
0
0
0
0
0
0
0
0
0
0
0
0
0
0
0
0
0
0
0
0
0
0
0
0
0
0
0
0
0
0
0
0
0
0
0
0
0
0
0
0
0
0
0
0
0
0
0
0
0
0
0
0
0
0
0
0
0
0
0
0
0
0
0
0
0
0
0
0
0
0
0
0
0
0
0
0
0
0
0
0
0
0
0
0
0
0
0
0
0
0
0
0
0
0
0
0
0
0
0
0
0
0
0
0
0
0
0
0
0
0
0
0
0
0
0
0
0
0
0
0
0
0
0
0
0
0
0
0
0
0
0
0
0
0
0
0
0
0
0
0
0
0
0
0
0
0
0
0
0
0
0
0
0
0
0
0
0
0
0
0
0
0
0
0
0
0
0
0
0
0
0
0
0
0
0
0
0
0
0
0
0
0
0
0
0
0
0
0
0
0
0
0
0
0
0
0
0
0
0
0
0
0
0
0
0
0
0
0
0
0
0
0
0
0
0
0
0
0
0
0
0
0
0
0
0
0
0
0
0
0
0
0
0
0
0
0
0
0
0
0
0
0
0
0
0
0
0
0
0
0
0
0
0
0
0
0
0
0
0
0
0
0
0
0
0
0
0
0
0
0
0
0
0
0
0
0
0
0
0
1
1
1
1
1
1
1
1
1
1
1
1
1
1
1
1
1
1
1
1
1
1
1
1
1
1
1
1
1
1
2
2
2
2
2
2
2
2
2
2
2
2
2
2
2
2
2
2
2
2
2
2
2
2
2
2
2
2
2
2
3
3
3
3
3
3
3
3
3
3
3
3
3
3
3
3
3
3
3
3
3
3
3
3
3
3
3
3
3
3
4
4
4
4
4
4
4
4
4
4
4
4
4
4
4
4
4
4
4
4
4
4
4
4
4
4
4
4
4
4

LOOKUP_TABLE FreeFempp_table 5
1.00000000 0.00000000 0.00000000 1.00000000
1.00000000 1.00000000 0.00000000 1.00000000
1.00000000 0.00000000 1.00000000 1.00000000
0.00000000 1.00000000 0.00000000 1.00000000
0.00000000 1.00000000 1.00000000 1.00000000

POINT_DATA 961
FIELD FieldData 1
Density 1 961 float
3.77435833e-01 3.25295508e-01 3.39777797e-01 3.39895427e-01 3.32893133e-01 3.21631193e-01 3.00565451e-01 2.46156290e-01 1.17661685e-01 2.70017777e-02 1.67480446e-02 3.37625928e-02 9.41104740e-02 1.91615373e-01 3.37627500e-01 5.16741455e-01 6.99090481e-01 8.09847057e-01 7.82728672e-01 6.57055378e-01 6.96408808e-01 8.09872627e-01 7.71659434e-01 7.27436602e-01 7.18241692e-01 7.12390184e-01 6.93615615e-01 6.83123112e-01 6.71078563e-01 6.70329332e-01 6.01969838e-01 3.41126829e-01 2.40397736e-01 2.53417373e-01 2.53850102e-01 2.45519668e-01 2.34570593e-01 2.17518553e-01 1.79567039e-01 9.71509665e-02 2.56245956e-02 1.09682791e-02 1.52247073e-02 4.91709001e-02 1.03100412e-01 1.97682574e-01 3.83744806e-01 7.01546490e-01 9.06103313e-01 9.10548270e-01 7.84360468e-01 7.42218018e-01 8.93908918e-01 8.98256302e-01 8.10840309e-01 8.10741067e-01 8.05986285e-01 7.93251276e-01 7.65485823e-01 7.40850925e-01 7.27309525e-01 6.63256943e-01 7.91058876e-04 8.28253571e-04 8.45160277e-04 8.49395059e-04 8.53781181e-04 8.59705615e-04 8.63319845e-04 8.66536924e-04 8.94564844e-04 9.08150396e-04 9.24442837e-04 1.89576345e-03 7.72116780e-02 1.51802376e-01 2.20623776e-01 3.35120469e-01 5.77149928e-01 8.87835205e-01 8.96011949e-01 5.37569404e-01 2.93851197e-01 3.29231381e-01 1.84652612e-01 1.14278950e-01 1.05330087e-01 1.91322729e-01 5.78572333e-01 6.31180406e-01 6.02967560e-01 5.92138112e-01 5.98908007e-01 2.15982524e-04 6.87045220e-04 8.48639465e-04 8.47335497e-04 8.50837503e-04 8.56026076e-04 8.61605688e-04 8.63832596e-04 8.78073915e-04 9.24263732e-04 7.61683914e-04 6.82599377e-04 6.86736254e-04 8.75380705e-04 8.04441981e-04 3.48016083e-01 4.78660822e-01 8.82884562e-01 9.26862538e-01 1.40787825e-01 4.72089499e-02 1.88134089e-02 1.02544352e-02 5.97314769e-03 4.97113913e-03 5.32176485e-03 1.10101253e-02 3.93525183e-01 4.81319040e-01 4.77265716e-01 5.32371819e-01 4.48520869e-01 3.41628432e-01 3.38097274e-01 3.39736819e-01 3.42857808e-01 3.47590029e-01 3.54485959e-01 3.63375515e-01 3.73111635e-01 3.81587803e-01 3.68428707e-01 2.55668769e-03 8.92616285e-04 8.41298548e-04 5.33108367e-04 5.41813264e-04 9.47488414e-04 2.06440547e-03 9.79100406e-01 3.19568038e-01 3.07432171e-02 8.96156579e-03 6.98416308e-03 4.78851795e-03 3.46132298e-03 2.27693678e-03 1.90655235e-03 5.98246651e-03 3.77289265e-01 4.26300555e-01 4.97300953e-01 4.67399627e-01 3.58586997e-01 3.51099938e-01 3.52499545e-01 3.54809493e-01 3.57677728e-01 3.61433834e-01 3.65691215e-01 3.69897962e-01 3.73835534e-01 3.73974621e-01 3.61716449e-01 3.62893432e-01 3.78068119e-01 3.54191750e-01 8.10757512e-04 7.72343308e-04 7.55069021e-04 8.53446836e-04 9.89517450e-01 2.66415123e-02 1.58997178e-02 9.01680719e-03 7.57283578e-03 6.58291159e-03 3.57232150e-03 1.44480169e-03 1.23614597e-03 8.99930764e-03 4.06610548e-01 4.84647423e-01 4.92030650e-01 4.04317260e-01 3.99423063e-01 3.98144603e-01 3.97541225e-01 3.96919876e-01 3.96275401e-01 3.95509928e-01 3.94742131e-01 3.94593507e-01 3.94632727e-01 3.89510870e-01 3.80145788e-01 3.84973347e-01 3.85260612e-01 3.84887308e-01 3.72188777e-01 2.54542241e-03 7.14967435e-04 6.79383229e-04 9.73035753e-01 8.06086212e-02 6.04103468e-02 4.63807285e-02 7.05958083e-02 1.16622709e-01 5.26353419e-02 1.24276953e-03 1.46801712e-03 3.23811769e-01 4.78253454e-01 5.17813146e-01 4.53687519e-01 4.51476485e-01 4.48340893e-01 4.44923759e-01 4.41373169e-01 4.37747747e-01 4.34203357e-01 4.31089342e-01 4.28861976e-01 4.27158982e-01 4.23672497e-01 4.17726696e-01 4.13122386e-01 4.09477711e-01 4.03298080e-01 3.97749096e-01 3.96210402e-01 3.86088938e-01 7.01536948e-04 7.28976214e-04 9.69658256e-01 9.79784012e-01 9.71432567e-01 9.50798392e-01 9.43891585e-01 1.62490860e-01 2.45755143e-03 1.14533817e-03 5.44856582e-03 4.62555259e-01 5.43218970e-01 5.04582822e-01 5.03132939e-01 4.99232560e-01 4.94302928e-01 4.89035189e-01 4.83756840e-01 4.78736311e-01 4.74246800e-01 4.70445305e-01 4.66975391e-01 4.62802470e-01 4.57531750e-01 4.52173650e-01 4.46618229e-01 4.39651340e-01 4.31296885e-01 4.21605170e-01 4.12045449e-01 4.07924294e-01 7.55428686e-04 8.30550620e-04 1.56033477e-02 6.02755547e-02 2.58004785e-01 9.13352594e-02 7.25606263e-01 1.84299052e-01 1.07306882e-03 1.50921545e-03 4.44623262e-01 5.65792918e-01 5.51756799e-01 5.49526930e-01 5.45494497e-01 5.40273666e-01 5.34665227e-01 5.29064298e-01 5.23737729e-01 5.18851519e-01 5.14430463e-01 5.10268271e-01 5.06000161e-01 5.01506746e-01 4.96934295e-01 4.91980314e-01 4.86151099e-01 4.79133248e-01 4.70070690e-01 4.57090020e-01 4.35035229e-01 3.95180941e-01 1.00260589e-03 1.36511901e-03 4.81881201e-03 8.28728732e-03 1.15629984e-02 2.00789254e-02 9.85920906e-01 1.47850404e-03 1.44814665e-03 4.36730623e-01 5.83071947e-01 5.89692235e-01 5.86101532e-01 5.82203150e-01 5.77435553e-01 5.72530389e-01 5.67751348e-01 5.63255072e-01 5.59126198e-01 5.55387080e-01 5.52007377e-01 5.48959672e-01 5.46256840e-01 5.43817818e-01 5.41364014e-01 5.38696826e-01 5.35776615e-01 5.32440126e-01 5.27993977e-01 5.16057193e-01 4.87657338e-01 1.70268454e-02 2.38464610e-03 3.35563114e-03 4.70849173e-03 8.09165835e-03 9.36866365e-03 8.42328787e-01 1.32990442e-03 8.57462408e-04 1.54957280e-01 5.92946172e-01 6.13982737e-01 6.08987212e-01 6.05035841e-01 6.00913644e-01 5.97178042e-01 5.93842804e-01 5.90864420e-01 5.88238001e-01 5.86023211e-01 5.84335804e-01 5.83328068e-01 5.83108187e-01 5.83623111e-01 5.84703147e-01 5.86234152e-01 5.88166058e-01 5.90472519e-01 5.93692720e-01 5.96830308e-01 5.93991101e-01 5.58783114e-01 1.32144913e-02 1.02319280e-02 1.10571580e-02 1.14602894e-02 2.26091612e-02 4.55619320e-02 9.83824611e-01 8.62814195e-04 1.23474339e-03 5.94100595e-01 6.21604145e-01 6.14934385e-01 6.10142946e-01 6.06328368e-01 6.03742898e-01 6.01971447e-01 6.00639820e-01 5.99588811e-01 5.98884046e-01 5.98730206e-01 5.99367440e-01 6.00960433e-01 6.03528202e-01 6.07005894e-01 6.11334622e-01 6.16432190e-01 6.22148633e-01 6.28653228e-01 6.36549711e-01 6.39728904e-01 6.44786477e-01 8.49895835e-01 5.21332137e-02 5.75759746e-02 6.93406612e-02 1.02095850e-01 1.26587868e-01 9.76656139e-01 2.36224080e-03 1.66456471e-03 5.86801231e-01 6.11192465e-01 6.01271987e-01 5.94119012e-01 5.90039372e-01 5.88615239e-01 5.88597357e-01 5.89036703e-01 5.89499831e-01 5.89989781e-01 5.90729952e-01 5.91961622e-01 5.93815804e-01 5.96283138e-01 5.99281728e-01 6.02729201e-01 6.06555760e-01 6.10740125e-01 6.15526795e-01 6.21890903e-01 6.28980160e-01 6.38985872e-01 7.33658731e-01 7.94327199e-01 9.10093546e-01 9.07507718e-01 5.69297791e-01 6.04723394e-01 9.79068995e-01 2.42228154e-03 2.21955799e-03 5.73708296e-01 5.83881080e-01 5.66069007e-01 5.54200411e-01 5.49716592e-01 5.50301015e-01 5.53085685e-01 5.56193113e-01 5.58784127e-01 5.60740650e-01 5.62254250e-01 5.63506067e-01 5.64519286e-01 5.65167487e-01 5.65271914e-01 5.64692795e-01 5.63386321e-01 5.61487138e-01 5.59463441e-01 5.58288753e-01 5.58898151e-01 5.61425686e-01 5.63959718e-01 6.01553261e-01 7.24871397e-01 7.43528008e-01 6.45262182e-01 8.25763166e-01 9.70461547e-01 2.66535045e-03 2.43295613e-03 5.59950709e-01 5.44331670e-01 5.08713961e-01 4.89305139e-01 4.85864699e-01 4.90892857e-01 4.98807043e-01 5.06599665e-01 5.13037026e-01 5.17885208e-01 5.21286666e-01 5.23345709e-01 5.23978412e-01 5.22975624e-01 5.20158887e-01 5.15521467e-01 5.09320199e-01 5.02146125e-01 4.94960308e-01 4.88906711e-01 4.84476328e-01 4.80522990e-01 4.78384584e-01 4.94540036e-01 5.22887230e-01 5.37692428e-01 5.96673429e-01 8.90001535e-01 9.45021570e-01 2.92908796e-03 2.68651173e-03 5.51782906e-01 5.00300646e-01 4.31007028e-01 4.02420223e-01 4.04054224e-01 4.17485148e-01 4.33493465e-01 4.48405862e-01 4.61035043e-01 4.71150607e-01 4.78792906e-01 4.83928949e-01 4.86368775e-01 4.85898435e-01 4.82493728e-01 4.76496279e-01 4.68710184e-01 4.60421234e-01 4.53274518e-01 4.48761523e-01 4.47196245e-01 4.47347105e-01 4.50138956e-01 4.63571459e-01 4.85268295e-01 5.23115993e-01 7.17757165e-01 9.28889990e-01 9.05895889e-01 3.20965447e-03 2.95198662e-03 5.54128408e-01 4.59675103e-01 3.38683069e-01 3.03235114e-01 3.15196127e-01 3.41015279e-01 3.67212772e-01 3.90528470e-01 4.10977095e-01 4.28674042e-01 4.43354219e-01 4.54537332e-01 4.61713105e-01 4.64575380e-01 4.63245630e-01 4.58418310e-01 4.51411039e-01 4.44106221e-01 4.38678533e-01 4.36893910e-01 4.39211071e-01 4.45224136e-01 4.57565069e-01 4.85612243e-01 5.37146568e-01 6.42498553e-01 8.29088151e-01 9.36301947e-01 2.74582058e-01 3.62386345e-03 3.22676986e-03 5.68403482e-01 4.27136093e-01 2.42988706e-01 2.07718924e-01 2.32007444e-01 2.72289962e-01 3.09079349e-01 3.39760512e-01 3.67653936e-01 3.94092977e-01 4.18128133e-01 4.38077211e-01 4.52498019e-01 4.60669547e-01 4.62756991e-01 4.59810346e-01 4.53682661e-01 4.46836293e-01 4.41959828e-01 4.41358507e-01 4.46646392e-01 4.60319012e-01 4.89554048e-01 5.45858443e-01 6.33184314e-01 7.53146529e-01 8.66035879e-01 8.50713670e-01 3.34218852e-02 4.55118436e-03 3.77453654e-03 5.92254400e-01 4.03200209e-01 1.59113064e-01 1.31397799e-01 1.64046153e-01 2.18538091e-01 2.65341848e-01 2.99957544e-01 3.32515121e-01 3.67316246e-01 4.02181000e-01 4.32889640e-01 4.56021339e-01 4.70071584e-01 4.75381553e-01 4.73681450e-01 4.67663378e-01 4.60535735e-01 4.55605805e-01 4.56114084e-01 4.65844214e-01 4.91290480e-01 5.42890787e-01 6.26678705e-01 7.24432111e-01 8.04603100e-01 8.46070945e-01 5.47652900e-01 1.54251121e-02 6.87938742e-03 5.51197585e-03 6.22036874e-01 3.84944737e-01 9.79047120e-02 8.02387521e-02 1.14852861e-01 1.82926983e-01 2.39283293e-01 2.72070080e-01 3.04630727e-01 3.46504837e-01 3.93220127e-01 4.35942352e-01 4.67948258e-01 4.86988932e-01 4.94293541e-01 4.92939860e-01 4.86826509e-01 4.80012596e-01 4.76422638e-01 4.80278373e-01 4.97521400e-01 5.37334025e-01 6.08092129e-01 7.01505065e-01 7.79605150e-01 8.09944510e-01 7.23652959e-01 1.30894378e-01 1.09489625e-02 8.91913753e-03 1.13953957e-02 6.55662477e-01 3.65775824e-01 5.90013340e-02 4.96184118e-02 8.26203376e-02 1.66987136e-01 2.32030839e-01 2.53584445e-01 2.80935884e-01 3.29277635e-01 3.89380127e-01 4.44747716e-01 4.84252006e-01 5.06062090e-01 5.13715982e-01 5.12317717e-01 5.07032394e-01 5.02597451e-01 5.03324509e-01 5.13903916e-01 5.40938020e-01 5.92778385e-01 6.70763254e-01 7.54031420e-01 8.01207602e-01 7.69328713e-01 4.14420694e-01 4.85251136e-02 1.15025770e-02 1.04689123e-02 3.08130272e-02 6.90514863e-01 3.36041510e-01 3.54122929e-02 3.19584161e-02 6.33053184e-02 1.75010055e-01 2.42247254e-01 2.37549767e-01 2.56772608e-01 3.13704252e-01 3.90198082e-01 4.57941860e-01 5.01641273e-01 5.22926748e-01 5.29411495e-01 5.28373659e-01 5.25737464e-01 5.26412427e-01 5.34698546e-01 5.54924190e-01 5.92102408e-01 6.50132120e-01 7.22666383e-01 7.83998370e-01 7.91482270e-01 6.18309021e-01 1.30813509e-01 3.00601050e-02 1.55270975e-02 1.55680720e-02 1.01459891e-01 7.18842685e-01 2.94003189e-01 2.16421708e-02 2.18544602e-02 5.36089167e-02 2.19866723e-01 2.61035085e-01 2.13775277e-01 2.28572056e-01 3.00069690e-01 3.97325665e-01 4.74976093e-01 5.17254770e-01 5.34212470e-01 5.38624108e-01 5.39075553e-01 5.41143596e-01 5.49164057e-01 5.66966951e-01 5.97796023e-01 6.43499792e-01 7.01793373e-01 7.60148108e-01 7.90705681e-01 7.27204084e-01 3.28759879e-01 6.36378229e-02 2.83731539e-02 2.34389212e-02 3.24383602e-02 2.45884001e-01 7.32805371e-01 2.57448465e-01 1.39588919e-02 1.57632045e-02 5.25829345e-02 3.24144453e-01 2.63126791e-01 1.77111924e-01 1.97856262e-01 2.92668074e-01 4.14295763e-01 4.94806558e-01 5.28082490e-01 5.37489176e-01 5.40004253e-01 5.43569148e-01 5.51955879e-01 5.68103731e-01 5.94944596e-01 6.34346724e-01 6.84900880e-01 7.39036202e-01 7.79985428e-01 7.75301754e-01 6.16064847e-01 2.03407377e-01 5.78414761e-02 4.03676294e-02 4.51103635e-02 9.13751200e-02 3.80605519e-01 7.30789602e-01 2.47477978e-01 9.79649089e-03 1.16236163e-02 6.20742366e-02 4.79723155e-01 2.18857795e-01 1.35346189e-01 1.70806140e-01 2.99271911e-01 4.43604171e-01 5.13709366e-01 5.30582130e-01 5.31356931e-01 5.33542037e-01 5.42026341e-01 5.57577908e-01 5.81075132e-01 6.14214778e-01 6.57788277e-01 7.08548903e-01 7.56510317e-01 7.83922255e-01 7.57294893e-01 5.81840634e-01 2.49467373e-01 1.00650586e-01 9.14685503e-02 1.41617775e-01 2.85712183e-01 4.85076129e-01 7.12771714e-01 2.73831010e-01 7.81332608e-03 8.87420122e-03 8.56836513e-02 6.01407826e-01 1.46419853e-01 9.80659798e-02 1.51281685e-01 3.27189714e-01 4.80715483e-01 5.23628831e-01 5.20784199e-01 5.15418172e-01 5.20186663e-01 5.35335422e-01 5.58503330e-01 5.88242233e-01 6.24546647e-01 6.67423844e-01 7.13806033e-01 7.54841208e-01 7.75745332e-01 7.52739191e-01 6.41972601e-01 4.52077061e-01 3.48382026e-01 3.78421992e-01 4.87489790e-01 5.87795436e-01 5.78162372e-01 6.75800741e-01 3.43374759e-01 7.26193516e-03 7.33633246e-03 1.08590513e-01 6.40810192e-01 9.21562761e-02 6.66745752e-02 1.34819299e-01 3.74660164e-01 5.08029580e-01 5.13877571e-01 4.96746182e-01 4.91914123e-01 5.02878129e-01 5.25850892e-01 5.56733906e-01 5.92133462e-01 6.29760802e-01 6.68435812e-01 7.06586301e-01 7.39789009e-01 7.59701669e-01 7.55091786e-01 7.18178928e-01 6.77747071e-01 6.90305591e-01 7.25772083e-01 7.31857717e-01 7.37125099e-01 6.47321284e-01 6.02951884e-01 4.40860152e-01 8.22978187e-03 6.36104587e-03 7.26196095e-02 6.30393744e-01 6.59474656e-02 4.11767885e-02 1.09831549e-01 4.25990134e-01 5.08347988e-01 4.83231843e-01 4.64850068e-01 4.67150539e-01 4.85088974e-01 5.14082551e-01 5.51048279e-01 5.92382431e-01 6.33933067e-01 6.72442019e-01 7.06289709e-01 7.34597802e-01 7.55514503e-01 7.65713930e-01 7.64265954e-01 7.61403084e-01 7.68964350e-01 7.72878051e-01 7.58359373e-01 7.49139905e-01 6.66052103e-01 5.95562816e-01 5.91540158e-01 1.22497603e-02 5.62164886e-03 2.35818923e-02 5.99081278e-01 5.66881560e-02 2.51203757e-02 6.86974749e-02 4.47732925e-01 4.85817909e-01 4.52016026e-01 4.42321599e-01 4.51635629e-01 4.73095715e-01 5.05272686e-01 5.48060238e-01 5.99181592e-01 6.53105497e-01 7.02994525e-01 7.43571579e-01 7.72194088e-01 7.88306415e-01 7.92198598e-01 7.84538805e-01 7.67731965e-01 7.46180773e-01 7.22664237e-01 6.98333144e-01 6.83846414e-01 6.38000429e-01 6.05156004e-01 6.44091070e-01 7.09750652e-02 9.66885872e-03 1.38148675e-02 7.05872953e-01 1.52630508e-01 4.11362909e-02 5.79769872e-02 6.08681023e-01 5.53614914e-01 5.23897171e-01 5.12813747e-01 5.12692034e-01 5.20000041e-01 5.34390390e-01 5.55989265e-01 5.83892405e-01 6.15802407e-01 6.48224711e-01 6.76974297e-01 6.97862685e-01 7.07497239e-01 7.04047859e-01 6.88250303e-01 6.64256215e-01 6.38321042e-01 6.15688026e-01 5.99409461e-01 5.88729084e-01 5.84982634e-01 
