# vtk DataFile Version 2.0
results_case1_non_linear/5_density.vtk, Created by Freefem++ 
ASCII
DATASET UNSTRUCTURED_GRID
POINTS 961 float
0 0 0
0.033333333 0 0
0.066666667 0 0
0.1 0 0
0.13333333 0 0
0.16666667 0 0
0.2 0 0
0.23333333 0 0
0.26666667 0 0
0.3 0 0
0.33333333 0 0
0.36666667 0 0
0.4 0 0
0.43333333 0 0
0.46666667 0 0
0.5 0 0
0.53333333 0 0
0.56666667 0 0
0.6 0 0
0.63333333 0 0
0.66666667 0 0
0.7 0 0
0.73333333 0 0
0.76666667 0 0
0.8 0 0
0.83333333 0 0
0.86666667 0 0
0.9 0 0
0.93333333 0 0
0.96666667 0 0
1 0 0
0 0.033333333 0
0.033333333 0.033333333 0
0.066666667 0.033333333 0
0.1 0.033333333 0
0.13333333 0.033333333 0
0.16666667 0.033333333 0
0.2 0.033333333 0
0.23333333 0.033333333 0
0.26666667 0.033333333 0
0.3 0.033333333 0
0.33333333 0.033333333 0
0.36666667 0.033333333 0
0.4 0.033333333 0
0.43333333 0.033333333 0
0.46666667 0.033333333 0
0.5 0.033333333 0
0.53333333 0.033333333 0
0.56666667 0.033333333 0
0.6 0.033333333 0
0.63333333 0.033333333 0
0.66666667 0.033333333 0
0.7 0.033333333 0
0.73333333 0.033333333 0
0.76666667 0.033333333 0
0.8 0.033333333 0
0.83333333 0.033333333 0
0.86666667 0.033333333 0
0.9 0.033333333 0
0.93333333 0.033333333 0
0.96666667 0.033333333 0
1 0.033333333 0
0 0.066666667 0
0.033333333 0.066666667 0
0.066666667 0.066666667 0
0.1 0.066666667 0
0.13333333 0.066666667 0
0.16666667 0.066666667 0
0.2 0.066666667 0
0.23333333 0.066666667 0
0.26666667 0.066666667 0
0.3 0.066666667 0
0.33333333 0.066666667 0
0.36666667 0.066666667 0
0.4 0.066666667 0
0.43333333 0.066666667 0
0.46666667 0.066666667 0
0.5 0.066666667 0
0.53333333 0.066666667 0
0.56666667 0.066666667 0
0.6 0.066666667 0
0.63333333 0.066666667 0
0.66666667 0.066666667 0
0.7 0.066666667 0
0.73333333 0.066666667 0
0.76666667 0.066666667 0
0.8 0.066666667 0
0.83333333 0.066666667 0
0.86666667 0.066666667 0
0.9 0.066666667 0
0.93333333 0.066666667 0
0.96666667 0.066666667 0
1 0.066666667 0
0 0.1 0
0.033333333 0.1 0
0.066666667 0.1 0
0.1 0.1 0
0.13333333 0.1 0
0.16666667 0.1 0
0.2 0.1 0
0.23333333 0.1 0
0.26666667 0.1 0
0.3 0.1 0
0.33333333 0.1 0
0.36666667 0.1 0
0.4 0.1 0
0.43333333 0.1 0
0.46666667 0.1 0
0.5 0.1 0
0.53333333 0.1 0
0.56666667 0.1 0
0.6 0.1 0
0.63333333 0.1 0
0.66666667 0.1 0
0.7 0.1 0
0.73333333 0.1 0
0.76666667 0.1 0
0.8 0.1 0
0.83333333 0.1 0
0.86666667 0.1 0
0.9 0.1 0
0.93333333 0.1 0
0.96666667 0.1 0
1 0.1 0
0 0.13333333 0
0.033333333 0.13333333 0
0.066666667 0.13333333 0
0.1 0.13333333 0
0.13333333 0.13333333 0
0.16666667 0.13333333 0
0.2 0.13333333 0
0.23333333 0.13333333 0
0.26666667 0.13333333 0
0.3 0.13333333 0
0.33333333 0.13333333 0
0.36666667 0.13333333 0
0.4 0.13333333 0
0.43333333 0.13333333 0
0.46666667 0.13333333 0
0.5 0.13333333 0
0.53333333 0.13333333 0
0.56666667 0.13333333 0
0.6 0.13333333 0
0.63333333 0.13333333 0
0.66666667 0.13333333 0
0.7 0.13333333 0
0.73333333 0.13333333 0
0.76666667 0.13333333 0
0.8 0.13333333 0
0.83333333 0.13333333 0
0.86666667 0.13333333 0
0.9 0.13333333 0
0.93333333 0.13333333 0
0.96666667 0.13333333 0
1 0.13333333 0
0 0.16666667 0
0.033333333 0.16666667 0
0.066666667 0.16666667 0
0.1 0.16666667 0
0.13333333 0.16666667 0
0.16666667 0.16666667 0
0.2 0.16666667 0
0.23333333 0.16666667 0
0.26666667 0.16666667 0
0.3 0.16666667 0
0.33333333 0.16666667 0
0.36666667 0.16666667 0
0.4 0.16666667 0
0.43333333 0.16666667 0
0.46666667 0.16666667 0
0.5 0.16666667 0
0.53333333 0.16666667 0
0.56666667 0.16666667 0
0.6 0.16666667 0
0.63333333 0.16666667 0
0.66666667 0.16666667 0
0.7 0.16666667 0
0.73333333 0.16666667 0
0.76666667 0.16666667 0
0.8 0.16666667 0
0.83333333 0.16666667 0
0.86666667 0.16666667 0
0.9 0.16666667 0
0.93333333 0.16666667 0
0.96666667 0.16666667 0
1 0.16666667 0
0 0.2 0
0.033333333 0.2 0
0.066666667 0.2 0
0.1 0.2 0
0.13333333 0.2 0
0.16666667 0.2 0
0.2 0.2 0
0.23333333 0.2 0
0.26666667 0.2 0
0.3 0.2 0
0.33333333 0.2 0
0.36666667 0.2 0
0.4 0.2 0
0.43333333 0.2 0
0.46666667 0.2 0
0.5 0.2 0
0.53333333 0.2 0
0.56666667 0.2 0
0.6 0.2 0
0.63333333 0.2 0
0.66666667 0.2 0
0.7 0.2 0
0.73333333 0.2 0
0.76666667 0.2 0
0.8 0.2 0
0.83333333 0.2 0
0.86666667 0.2 0
0.9 0.2 0
0.93333333 0.2 0
0.96666667 0.2 0
1 0.2 0
0 0.23333333 0
0.033333333 0.23333333 0
0.066666667 0.23333333 0
0.1 0.23333333 0
0.13333333 0.23333333 0
0.16666667 0.23333333 0
0.2 0.23333333 0
0.23333333 0.23333333 0
0.26666667 0.23333333 0
0.3 0.23333333 0
0.33333333 0.23333333 0
0.36666667 0.23333333 0
0.4 0.23333333 0
0.43333333 0.23333333 0
0.46666667 0.23333333 0
0.5 0.23333333 0
0.53333333 0.23333333 0
0.56666667 0.23333333 0
0.6 0.23333333 0
0.63333333 0.23333333 0
0.66666667 0.23333333 0
0.7 0.23333333 0
0.73333333 0.23333333 0
0.76666667 0.23333333 0
0.8 0.23333333 0
0.83333333 0.23333333 0
0.86666667 0.23333333 0
0.9 0.23333333 0
0.93333333 0.23333333 0
0.96666667 0.23333333 0
1 0.23333333 0
0 0.26666667 0
0.033333333 0.26666667 0
0.066666667 0.26666667 0
0.1 0.26666667 0
0.13333333 0.26666667 0
0.16666667 0.26666667 0
0.2 0.26666667 0
0.23333333 0.26666667 0
0.26666667 0.26666667 0
0.3 0.26666667 0
0.33333333 0.26666667 0
0.36666667 0.26666667 0
0.4 0.26666667 0
0.43333333 0.26666667 0
0.46666667 0.26666667 0
0.5 0.26666667 0
0.53333333 0.26666667 0
0.56666667 0.26666667 0
0.6 0.26666667 0
0.63333333 0.26666667 0
0.66666667 0.26666667 0
0.7 0.26666667 0
0.73333333 0.26666667 0
0.76666667 0.26666667 0
0.8 0.26666667 0
0.83333333 0.26666667 0
0.86666667 0.26666667 0
0.9 0.26666667 0
0.93333333 0.26666667 0
0.96666667 0.26666667 0
1 0.26666667 0
0 0.3 0
0.033333333 0.3 0
0.066666667 0.3 0
0.1 0.3 0
0.13333333 0.3 0
0.16666667 0.3 0
0.2 0.3 0
0.23333333 0.3 0
0.26666667 0.3 0
0.3 0.3 0
0.33333333 0.3 0
0.36666667 0.3 0
0.4 0.3 0
0.43333333 0.3 0
0.46666667 0.3 0
0.5 0.3 0
0.53333333 0.3 0
0.56666667 0.3 0
0.6 0.3 0
0.63333333 0.3 0
0.66666667 0.3 0
0.7 0.3 0
0.73333333 0.3 0
0.76666667 0.3 0
0.8 0.3 0
0.83333333 0.3 0
0.86666667 0.3 0
0.9 0.3 0
0.93333333 0.3 0
0.96666667 0.3 0
1 0.3 0
0 0.33333333 0
0.033333333 0.33333333 0
0.066666667 0.33333333 0
0.1 0.33333333 0
0.13333333 0.33333333 0
0.16666667 0.33333333 0
0.2 0.33333333 0
0.23333333 0.33333333 0
0.26666667 0.33333333 0
0.3 0.33333333 0
0.33333333 0.33333333 0
0.36666667 0.33333333 0
0.4 0.33333333 0
0.43333333 0.33333333 0
0.46666667 0.33333333 0
0.5 0.33333333 0
0.53333333 0.33333333 0
0.56666667 0.33333333 0
0.6 0.33333333 0
0.63333333 0.33333333 0
0.66666667 0.33333333 0
0.7 0.33333333 0
0.73333333 0.33333333 0
0.76666667 0.33333333 0
0.8 0.33333333 0
0.83333333 0.33333333 0
0.86666667 0.33333333 0
0.9 0.33333333 0
0.93333333 0.33333333 0
0.96666667 0.33333333 0
1 0.33333333 0
0 0.36666667 0
0.033333333 0.36666667 0
0.066666667 0.36666667 0
0.1 0.36666667 0
0.13333333 0.36666667 0
0.16666667 0.36666667 0
0.2 0.36666667 0
0.23333333 0.36666667 0
0.26666667 0.36666667 0
0.3 0.36666667 0
0.33333333 0.36666667 0
0.36666667 0.36666667 0
0.4 0.36666667 0
0.43333333 0.36666667 0
0.46666667 0.36666667 0
0.5 0.36666667 0
0.53333333 0.36666667 0
0.56666667 0.36666667 0
0.6 0.36666667 0
0.63333333 0.36666667 0
0.66666667 0.36666667 0
0.7 0.36666667 0
0.73333333 0.36666667 0
0.76666667 0.36666667 0
0.8 0.36666667 0
0.83333333 0.36666667 0
0.86666667 0.36666667 0
0.9 0.36666667 0
0.93333333 0.36666667 0
0.96666667 0.36666667 0
1 0.36666667 0
0 0.4 0
0.033333333 0.4 0
0.066666667 0.4 0
0.1 0.4 0
0.13333333 0.4 0
0.16666667 0.4 0
0.2 0.4 0
0.23333333 0.4 0
0.26666667 0.4 0
0.3 0.4 0
0.33333333 0.4 0
0.36666667 0.4 0
0.4 0.4 0
0.43333333 0.4 0
0.46666667 0.4 0
0.5 0.4 0
0.53333333 0.4 0
0.56666667 0.4 0
0.6 0.4 0
0.63333333 0.4 0
0.66666667 0.4 0
0.7 0.4 0
0.73333333 0.4 0
0.76666667 0.4 0
0.8 0.4 0
0.83333333 0.4 0
0.86666667 0.4 0
0.9 0.4 0
0.93333333 0.4 0
0.96666667 0.4 0
1 0.4 0
0 0.43333333 0
0.033333333 0.43333333 0
0.066666667 0.43333333 0
0.1 0.43333333 0
0.13333333 0.43333333 0
0.16666667 0.43333333 0
0.2 0.43333333 0
0.23333333 0.43333333 0
0.26666667 0.43333333 0
0.3 0.43333333 0
0.33333333 0.43333333 0
0.36666667 0.43333333 0
0.4 0.43333333 0
0.43333333 0.43333333 0
0.46666667 0.43333333 0
0.5 0.43333333 0
0.53333333 0.43333333 0
0.56666667 0.43333333 0
0.6 0.43333333 0
0.63333333 0.43333333 0
0.66666667 0.43333333 0
0.7 0.43333333 0
0.73333333 0.43333333 0
0.76666667 0.43333333 0
0.8 0.43333333 0
0.83333333 0.43333333 0
0.86666667 0.43333333 0
0.9 0.43333333 0
0.93333333 0.43333333 0
0.96666667 0.43333333 0
1 0.43333333 0
0 0.46666667 0
0.033333333 0.46666667 0
0.066666667 0.46666667 0
0.1 0.46666667 0
0.13333333 0.46666667 0
0.16666667 0.46666667 0
0.2 0.46666667 0
0.23333333 0.46666667 0
0.26666667 0.46666667 0
0.3 0.46666667 0
0.33333333 0.46666667 0
0.36666667 0.46666667 0
0.4 0.46666667 0
0.43333333 0.46666667 0
0.46666667 0.46666667 0
0.5 0.46666667 0
0.53333333 0.46666667 0
0.56666667 0.46666667 0
0.6 0.46666667 0
0.63333333 0.46666667 0
0.66666667 0.46666667 0
0.7 0.46666667 0
0.73333333 0.46666667 0
0.76666667 0.46666667 0
0.8 0.46666667 0
0.83333333 0.46666667 0
0.86666667 0.46666667 0
0.9 0.46666667 0
0.93333333 0.46666667 0
0.96666667 0.46666667 0
1 0.46666667 0
0 0.5 0
0.033333333 0.5 0
0.066666667 0.5 0
0.1 0.5 0
0.13333333 0.5 0
0.16666667 0.5 0
0.2 0.5 0
0.23333333 0.5 0
0.26666667 0.5 0
0.3 0.5 0
0.33333333 0.5 0
0.36666667 0.5 0
0.4 0.5 0
0.43333333 0.5 0
0.46666667 0.5 0
0.5 0.5 0
0.53333333 0.5 0
0.56666667 0.5 0
0.6 0.5 0
0.63333333 0.5 0
0.66666667 0.5 0
0.7 0.5 0
0.73333333 0.5 0
0.76666667 0.5 0
0.8 0.5 0
0.83333333 0.5 0
0.86666667 0.5 0
0.9 0.5 0
0.93333333 0.5 0
0.96666667 0.5 0
1 0.5 0
0 0.53333333 0
0.033333333 0.53333333 0
0.066666667 0.53333333 0
0.1 0.53333333 0
0.13333333 0.53333333 0
0.16666667 0.53333333 0
0.2 0.53333333 0
0.23333333 0.53333333 0
0.26666667 0.53333333 0
0.3 0.53333333 0
0.33333333 0.53333333 0
0.36666667 0.53333333 0
0.4 0.53333333 0
0.43333333 0.53333333 0
0.46666667 0.53333333 0
0.5 0.53333333 0
0.53333333 0.53333333 0
0.56666667 0.53333333 0
0.6 0.53333333 0
0.63333333 0.53333333 0
0.66666667 0.53333333 0
0.7 0.53333333 0
0.73333333 0.53333333 0
0.76666667 0.53333333 0
[...]
CELL_DATA 1920
Scalars  Label int 1
LOOKUP_TABLE FreeFempp_table
0
0
0
0
0
0
0
0
0
0
0
0
0
0
0
0
0
0
0
0
0
0
0
0
0
0
0
0
0
0
0
0
0
0
0
0
0
0
0
0
0
0
0
0
0
0
0
0
0
0
0
0
0
0
0
0
0
0
0
0
0
0
0
0
0
0
0
0
0
0
0
0
0
0
0
0
0
0
0
0
0
0
0
0
0
0
0
0
0
0
0
0
0
0
0
0
0
0
0
0
0
0
0
0
0
0
0
0
0
0
0
0
0
0
0
0
0
0
0
0
0
0
0
0
0
0
0
0
0
0
0
0
0
0
0
0
0
0
0
0
0
0
0
0
0
0
0
0
0
0
0
0
0
0
0
0
0
0
0
0
0
0
0
0
0
0
0
0
0
0
0
0
0
0
0
0
0
0
0
0
0
0
0
0
0
0
0
0
0
0
0
0
0
0
0
0
0
0
0
0
0
0
0
0
0
0
0
0
0
0
0
0
0
0
0
0
0
0
0
0
0
0
0
0
0
0
0
0
0
0
0
0
0
0
0
0
0
0
0
0
0
0
0
0
0
0
0
0
0
0
0
0
0
0
0
0
0
0
0
0
0
0
0
0
0
0
0
0
0
0
0
0
0
0
0
0
0
0
0
0
0
0
0
0
0
0
0
0
0
0
0
0
0
0
0
0
0
0
0
0
0
0
0
0
0
0
0
0
0
0
0
0
0
0
0
0
0
0
0
0
0
0
0
0
0
0
0
0
0
0
0
0
0
0
0
0
0
0
0
0
0
0
0
0
0
0
0
0
0
0
0
0
0
0
0
0
0
0
0
0
0
0
0
0
0
0
0
0
0
0
0
0
0
0
0
0
0
0
0
0
0
0
0
0
0
0
0
0
0
0
0
0
0
0
0
0
0
0
0
0
0
0
0
0
0
0
0
0
0
0
0
0
0
0
0
0
0
0
0
0
0
0
0
0
0
0
0
0
0
0
0
0
0
0
0
0
0
0
0
0
0
0
0
0
0
0
0
0
0
0
0
0
0
0
0
0
0
0
0
0
0
0
0
0
0
0
0
0
0
0
0
0
0
0
0
0
0
0
0
0
0
0
0
0
0
0
0
0
0
0
0
0
0
0
0
0
0
0
0
0
0
0
0
0
0
0
0
0
0
0
0
0
0
0
0
0
0
0
0
0
0
0
0
0
0
0
0
0
0
0
0
0
0
0
0
0
0
0
0
0
0
0
0
0
0
0
0
0
0
0
0
0
0
0
0
0
0
0
0
0
0
0
0
0
0
0
0
0
0
0
0
0
0
0
0
0
0
0
0
0
0
0
0
0
0
0
0
0
0
0
0
0
0
0
0
0
0
0
0
0
0
0
0
0
0
0
0
0
0
0
0
0
0
0
0
0
0
0
0
0
0
0
0
0
0
0
0
0
0
0
0
0
0
0
0
0
0
0
0
0
0
0
0
0
0
0
0
0
0
0
0
0
0
0
0
0
0
0
0
0
0
0
0
0
0
0
0
0
0
0
0
0
0
0
0
0
0
0
0
0
0
0
0
0
0
0
0
0
0
0
0
0
0
0
0
0
0
0
0
0
0
0
0
0
0
0
0
0
0
0
0
0
0
0
0
0
0
0
0
0
0
0
0
0
0
0
0
0
0
0
0
0
0
0
0
0
0
0
0
0
0
0
0
0
0
0
0
0
0
0
0
0
0
0
0
0
0
0
0
0
0
0
0
0
0
0
0
0
0
0
0
0
0
0
0
0
0
0
0
0
0
0
0
0
0
0
0
0
0
0
0
0
0
0
0
0
0
0
0
0
0
0
0
0
0
0
0
0
0
0
0
0
0
0
0
0
0
0
0
0
0
0
0
0
0
0
0
0
0
0
0
0
0
0
0
0
0
0
0
0
0
0
0
0
0
0
0
0
0
0
0
0
0
0
0
0
0
0
0
0
0
0
0
0
0
0
0
0
0
0
0
0
0
0
0
0
0
0
0
0
0
0
0
0
0
0
0
0
0
0
0
0
0
0
0
0
0
0
0
0
0
0
0
0
0
0
0
0
0
0
0
0
0
0
0
0
0
0
0
0
0
0
0
0
0
0
0
0
0
0
0
0
0
0
0
0
0
0
0
0
0
0
0
0
0
0
0
0
0
0
0
0
0
0
0
0
0
0
0
0
0
0
0
0
0
0
0
0
0
0
0
0
0
0
0
0
0
0
0
0
0
0
0
0
0
0
0
0
0
0
0
0
0
0
0
0
0
0
0
0
0
0
0
0
0
0
0
0
0
0
0
0
0
0
0
0
0
0
0
0
0
0
0
0
0
0
0
0
0
0
0
0
0
0
0
0
0
0
0
0
0
0
0
0
0
0
0
0
0
0
0
0
0
0
0
0
0
0
0
0
0
0
0
0
0
0
0
0
0
0
0
0
0
0
0
0
0
0
0
0
0
0
0
0
0
0
0
0
0
0
0
0
0
0
0
0
0
0
0
0
0
0
0
0
0
0
0
0
0
0
0
0
0
0
0
0
0
0
0
0
0
0
0
0
0
0
0
0
0
0
0
0
0
0
0
0
0
0
0
0
0
0
0
0
0
0
0
0
0
0
0
0
0
0
0
0
0
0
0
0
0
0
0
0
0
0
0
0
0
0
0
0
0
0
0
0
0
0
0
0
0
0
0
0
0
0
0
0
0
0
0
0
0
0
0
0
0
0
0
0
0
0
0
0
0
0
0
0
0
0
0
0
0
0
0
0
0
0
0
0
0
0
0
0
0
0
0
0
0
0
0
0
0
0
0
0
0
0
0
0
0
0
0
0
0
0
0
0
0
0
0
0
0
0
0
0
0
0
0
0
0
0
0
0
0
0
0
0
0
0
0
0
0
0
0
0
0
0
0
0
0
0
0
0
0
0
0
0
0
0
0
0
0
0
0
0
0
0
0
0
0
0
0
0
0
0
0
0
0
0
0
0
0
0
0
0
0
0
0
0
0
0
0
0
0
0
0
0
0
0
0
0
0
0
0
0
0
0
0
0
0
0
0
0
0
0
0
0
0
0
0
0
0
0
0
0
0
0
0
0
0
0
0
0
0
0
0
0
0
0
0
0
0
0
0
0
0
0
0
0
0
0
0
0
0
0
0
0
0
0
0
0
0
0
0
0
0
0
0
0
0
0
0
0
0
0
0
0
0
0
0
0
0
0
0
0
0
0
0
0
0
0
0
0
0
0
0
0
0
0
0
0
0
0
0
0
0
0
0
0
0
0
0
0
0
0
0
0
0
0
0
0
0
0
0
0
0
0
0
0
0
0
0
0
0
0
0
0
0
0
0
0
0
0
0
0
0
0
0
0
0
0
0
0
0
0
0
0
0
0
0
0
0
0
0
0
0
0
0
0
0
0
0
0
0
0
0
0
0
0
0
0
0
0
0
0
0
0
0
0
0
0
0
0
0
0
0
0
0
0
0
0
0
0
0
0
0
0
0
0
0
0
0
0
0
0
0
0
0
0
0
0
0
0
0
0
0
0
0
0
0
0
0
0
0
0
0
0
0
0
0
0
0
0
0
0
0
0
0
0
0
0
0
0
0
0
0
0
0
0
0
0
0
0
0
0
0
0
0
0
0
0
0
0
0
0
0
0
0
0
0
0
0
0
0
0
0
0
0
0
0
0
0
0
0
0
0
0
0
0
0
0
0
0
0
0
0
0
0
0
0
0
0
0
0
0
0
0
0
0
0
0
0
0
0
0
0
0
0
0
0
0
0
0
0
0
0
0
0
0
0
0
0
0
0
0
0
0
0
0
0
0
0
0
0
0
0
0
0
0
0
0
0
0
0
0
0
0
0
0
0
0
0
0
0
0
0
0
0
0
0
0
0
0
0
0
0
0
0
0
0
0
0
0
0
0
0
0
0
0
0
0
0
0
0
0
0
0
0
0
0
0
0
0
0
0
0
0
0
0
0
0
0
0
0
0
0
0
0
0
0
0
0
0
0
0
0
0
0
0
0
0
0
0
0
0
0
0
0
0
0
0
0
0
0
0
0
0
0
0
0
0
0
0
0
0
0
0
0
0
1
1
1
1
1
1
1
1
1
1
1
1
1
1
1
1
1
1
1
1
1
1
1
1
1
1
1
1
1
1
2
2
2
2
2
2
2
2
2
2
2
2
2
2
2
2
2
2
2
2
2
2
2
2
2
2
2
2
2
2
3
3
3
3
3
3
3
3
3
3
3
3
3
3
3
3
3
3
3
3
3
3
3
3
3
3
3
3
3
3
4
4
4
4
4
4
4
4
4
4
4
4
4
4
4
4
4
4
4
4
4
4
4
4
4
4
4
4
4
4

LOOKUP_TABLE FreeFempp_table 5
1.00000000 0.00000000 0.00000000 1.00000000
1.00000000 1.00000000 0.00000000 1.00000000
1.00000000 0.00000000 1.00000000 1.00000000
0.00000000 1.00000000 0.00000000 1.00000000
0.00000000 1.00000000 1.00000000 1.00000000

POINT_DATA 961
FIELD FieldData 1
Density 1 961 float
1.13184176e-01 3.95063832e-02 3.92933711e-02 3.82298492e-02 3.81711572e-02 3.83545570e-02 3.85613032e-02 4.02565040e-02 4.08536568e-02 4.00686413e-02 3.82965393e-02 3.36658466e-03 1.90163919e-04 1.98791939e-04 5.23290753e-01 9.99634326e-01 9.93559480e-01 9.26977336e-01 9.98865187e-01 9.98462260e-01 9.97402549e-01 9.93227839e-01 9.75254059e-01 9.40048575e-01 8.94401968e-01 8.58968437e-01 8.24942470e-01 7.94141233e-01 7.79253364e-01 8.01961362e-01 6.74930871e-01 1.47245973e-02 3.52870650e-03 4.07263776e-03 3.21311131e-03 3.02036945e-03 2.96769105e-03 2.89523648e-03 2.74239620e-03 2.82429252e-03 2.65301764e-03 3.16358940e-03 1.71447091e-03 1.71320484e-04 1.51075743e-04 1.42474077e-03 9.99767780e-01 2.17924389e-04 2.13293693e-04 3.75712593e-03 9.95282173e-01 9.98304307e-01 9.98090565e-01 9.96496618e-01 9.87675488e-01 9.62586105e-01 9.07040179e-01 8.76291335e-01 8.49900126e-01 8.37850630e-01 8.42745662e-01 7.79987693e-01 1.11437286e-04 1.11686757e-04 1.08698048e-04 1.08422959e-04 1.11111251e-04 1.16169263e-04 1.21254343e-04 1.21804980e-04 1.16091236e-04 1.09848974e-04 1.07461361e-04 1.08302840e-04 1.21323712e-04 1.19245953e-04 1.44680438e-04 9.99763072e-01 2.44175026e-04 2.17686087e-04 2.23670824e-04 2.17186389e-04 2.14284140e-04 4.53848101e-04 2.55852425e-03 3.76515798e-02 3.92895937e-01 4.57326651e-01 2.15898871e-01 1.90638766e-01 2.08741739e-01 1.89768031e-01 4.71144915e-01 1.28907981e-04 1.12752328e-04 1.10361609e-04 1.08221837e-04 1.08949484e-04 1.12296155e-04 1.17440250e-04 1.21189973e-04 1.18998723e-04 1.12331225e-04 1.07871288e-04 1.07023487e-04 1.10976260e-04 1.14989278e-04 1.13873604e-04 1.49827116e-04 9.99935865e-01 2.42892653e-04 2.29307683e-04 2.27918630e-04 2.23171068e-04 2.25221840e-04 2.23960189e-04 2.25476469e-04 3.86216328e-04 4.40776441e-03 1.63286775e-02 8.19760188e-03 8.07894487e-03 6.54491782e-03 8.21952000e-02 9.99722004e-01 9.99721348e-01 9.99466419e-01 8.91837656e-01 1.78809851e-01 2.34891295e-01 2.74975389e-01 1.42609268e-01 2.98103839e-01 1.13636799e-01 5.19632250e-02 1.81353167e-02 7.74961058e-03 1.66423980e-03 1.33791531e-04 1.17102856e-04 1.13384507e-04 9.99790907e-01 9.99799848e-01 2.40950787e-04 2.23681927e-04 2.30853140e-04 2.41399452e-04 2.85735761e-04 2.41295609e-04 2.58759712e-04 1.58539019e-03 1.91801670e-03 1.27852685e-03 1.03121856e-03 8.70795362e-03 9.99721944e-01 9.99719083e-01 9.99718904e-01 9.99721229e-01 9.99722064e-01 9.99365389e-01 9.98433709e-01 9.96128857e-01 9.88287032e-01 9.59943891e-01 8.58970642e-01 6.13119781e-01 3.29134643e-01 1.52680367e-01 7.02347159e-02 1.74578818e-04 1.34440881e-04 1.31324850e-04 1.76249872e-04 9.99896526e-01 2.31398604e-04 2.16769098e-04 2.21525159e-04 2.67867028e-04 2.70756223e-04 2.37545624e-04 2.57003849e-04 8.17016989e-04 4.89117927e-04 4.32607398e-04 1.47384033e-03 9.99722183e-01 9.99713540e-01 2.70992838e-04 9.99719262e-01 9.99721169e-01 9.99721229e-01 9.99661863e-01 9.99368608e-01 9.98663068e-01 9.96969402e-01 9.92798209e-01 9.82890904e-01 9.62744713e-01 9.28673148e-01 9.19117808e-01 8.99637282e-01 1.00958198e-01 1.15108553e-04 1.29675434e-04 1.75006076e-04 9.99712944e-01 9.99716282e-01 9.99639571e-01 9.99652922e-01 1.65183214e-04 2.28935518e-04 2.68328527e-04 2.47754244e-04 2.26543430e-04 2.36986860e-04 3.76331329e-04 9.99678850e-01 4.68855202e-02 2.12298968e-04 2.12883635e-04 9.99722958e-01 9.99721706e-01 9.99721527e-01 9.99621153e-01 9.99349177e-01 9.98799086e-01 9.97768879e-01 9.96093750e-01 9.93747234e-01 9.90844965e-01 9.88706529e-01 9.90249813e-01 9.91693377e-01 9.57044780e-01 7.45174959e-02 2.63598311e-04 3.36911704e-04 9.90606248e-01 3.47474299e-04 1.55760659e-04 9.94184077e-01 1.76569723e-04 3.00942600e-04 2.78304506e-04 2.42547161e-04 2.32330014e-04 2.20253816e-04 9.99366343e-01 9.99486327e-01 2.12789397e-04 2.12869112e-04 8.75961185e-01 9.99722898e-01 9.99722004e-01 9.99627948e-01 9.99380589e-01 9.98920143e-01 9.98118877e-01 9.96934414e-01 9.95603025e-01 9.94646430e-01 9.94620383e-01 9.95620787e-01 9.96954799e-01 9.97404695e-01 9.95558202e-01 9.13523555e-01 3.28719005e-04 2.79944157e-04 2.14026048e-04 2.12785351e-04 1.63383782e-04 9.99697089e-01 2.71645345e-04 2.85752321e-04 2.43415139e-04 2.33742481e-04 2.22869130e-04 9.98729348e-01 9.99539316e-01 2.12862331e-04 2.12846557e-04 2.12949322e-04 9.99526680e-01 9.99716341e-01 9.99533474e-01 9.99106944e-01 9.98317420e-01 9.96777892e-01 9.94025052e-01 9.90408003e-01 9.88175213e-01 9.89609420e-01 9.93472278e-01 9.96802509e-01 9.98509824e-01 9.99158561e-01 9.99368608e-01 9.95673239e-01 2.41772330e-04 2.20481743e-04 2.14085318e-04 2.17977955e-04 9.99750853e-01 2.28032906e-04 2.40992100e-04 2.31951795e-04 2.27293756e-04 2.20071102e-04 9.97499228e-01 9.99421835e-01 2.12867366e-04 2.12860905e-04 2.12888655e-04 5.89304209e-01 9.99528646e-01 9.99269247e-01 9.98265028e-01 9.96065855e-01 9.90328372e-01 9.73771095e-01 9.33251739e-01 8.72963250e-01 8.44524443e-01 8.90411198e-01 9.62547660e-01 9.92617488e-01 9.98396575e-01 9.99558449e-01 9.99722362e-01 9.99263167e-01 2.13412437e-04 2.13415362e-04 2.21304814e-04 9.99766648e-01 2.30464866e-04 2.38696259e-04 2.28846111e-04 2.21236318e-04 2.16296830e-04 9.94962573e-01 9.99087393e-01 4.75610665e-04 2.12888088e-04 2.12885032e-04 2.76689621e-04 9.98084784e-01 9.98330474e-01 9.95713592e-01 9.87997532e-01 9.61703479e-01 8.53269219e-01 5.37860692e-01 2.05291435e-01 7.12709352e-02 3.33754793e-02 2.94637643e-02 7.40489438e-02 5.25265992e-01 9.81400251e-01 9.99390304e-01 9.99723077e-01 9.99725878e-01 2.30920792e-04 2.28322446e-04 9.99786913e-01 2.31546961e-04 2.37272572e-04 2.27131401e-04 3.26943584e-04 9.38165234e-04 9.89235640e-01 9.98313189e-01 1.64506137e-02 2.12990897e-04 2.13038482e-04 2.12965431e-04 9.69178736e-01 9.93885636e-01 9.85607505e-01 9.58822191e-01 8.72654736e-01 6.02602541e-01 2.10734010e-01 4.38101292e-02 9.15692095e-03 2.52140663e-03 1.07315346e-03 7.28609448e-04 7.48456980e-04 1.60165434e-03 6.33730665e-02 9.97148812e-01 9.99728322e-01 9.98604298e-01 2.25405427e-04 9.99821782e-01 2.29415498e-04 2.29752797e-04 2.23217983e-04 4.87515848e-04 2.57027592e-03 9.74885941e-01 9.96465445e-01 2.28104427e-01 2.13080843e-04 2.13249121e-04 2.13032690e-04 2.08564818e-01 9.63557959e-01 9.30547535e-01 8.61301005e-01 7.17913628e-01 4.61472332e-01 1.81579188e-01 4.31272313e-02 8.14844295e-03 1.77144085e-03 5.93734265e-04 3.30814626e-04 2.57291511e-04 2.41763963e-04 2.80696579e-04 8.86996102e-04 5.92885256e-01 9.99123156e-01 9.99609470e-01 9.99734342e-01 2.22642353e-04 2.22134462e-04 2.19043854e-04 6.77883450e-04 5.79151185e-03 9.41221595e-01 9.90898967e-01 6.50577486e-01 2.13140680e-04 2.13454856e-04 2.13157909e-04 6.47361064e-03 6.97390318e-01 6.52097404e-01 6.03031635e-01 5.33280671e-01 4.38439876e-01 2.97170520e-01 1.28116727e-01 2.82891542e-02 4.26568091e-03 8.69081763e-04 3.45373992e-04 2.38331602e-04 2.15642518e-04 2.24011121e-04 3.43443127e-04 3.23931240e-02 9.99529541e-01 9.99723494e-01 9.99723971e-01 2.15973341e-04 2.17985275e-04 2.16287619e-04 9.22758481e-04 1.31248105e-02 8.74920011e-01 9.70950603e-01 7.49970853e-01 2.13088089e-04 2.13542982e-04 2.13362160e-04 1.16974907e-03 1.35628268e-01 1.98988751e-01 2.53006697e-01 3.32536459e-01 4.40686077e-01 5.25310099e-01 4.96846318e-01 2.81155258e-01 5.18515967e-02 4.71852534e-03 8.49568751e-04 4.09068278e-04 3.93639377e-04 1.18803990e-03 5.29412150e-01 9.99251366e-01 9.99720693e-01 9.99721110e-01 1.49794971e-03 2.14623826e-04 2.16335655e-04 2.14967848e-04 1.30764977e-03 3.23315412e-02 7.69027770e-01 9.01750028e-01 6.86808050e-01 5.39840432e-04 2.13614025e-04 2.13689724e-04 4.21448145e-04 1.76470708e-02 3.78222167e-02 7.21542239e-02 1.62888810e-01 4.06504124e-01 7.17105687e-01 8.65538597e-01 8.94680619e-01 8.24286282e-01 4.89161462e-01 1.43969283e-01 2.19117582e-01 9.67426419e-01 9.98903811e-01 9.99692261e-01 9.99720216e-01 9.99721348e-01 8.04447606e-02 2.12991305e-04 2.14618500e-04 2.15163818e-04 2.14089698e-04 2.58474052e-03 9.64871943e-02 6.28377676e-01 7.19375312e-01 5.58533192e-01 6.98398845e-03 2.13664476e-04 2.14174157e-04 2.13460065e-04 3.61274485e-03 8.27625021e-03 2.04568096e-02 6.86202124e-02 3.18080008e-01 7.88474143e-01 9.53698218e-01 9.84501362e-01 9.91843641e-01 9.94536459e-01 9.96913612e-01 9.98969376e-01 9.99581575e-01 9.96894479e-01 2.10754821e-04 2.12787723e-04 2.12954823e-04 2.13701176e-04 2.14797590e-04 2.14212545e-04 2.14173182e-04 2.13316816e-04 8.02792609e-03 2.40584150e-01 4.79219526e-01 4.30474758e-01 4.06760216e-01 5.44360392e-02 2.13318504e-04 2.13835359e-04 2.13565829e-04 1.13060465e-03 2.51282752e-03 7.13619916e-03 2.91227419e-02 1.97865725e-01 7.45939672e-01 9.62345243e-01 9.92026389e-01 9.97454941e-01 9.98974442e-01 9.99519169e-01 9.99705374e-01 9.99721229e-01 9.99035656e-01 2.10692451e-04 2.12834930e-04 2.12840154e-04 2.12928906e-04 2.14535816e-04 2.14226704e-04 2.13238731e-04 6.81429636e-04 6.86654925e-01 7.14291394e-01 3.61058891e-01 2.01952606e-01 2.32459828e-01 1.09436944e-01 2.12968269e-04 2.12774117e-04 2.13138352e-04 6.18422928e-04 1.08852924e-03 3.19282897e-03 1.37418695e-02 9.53905284e-02 5.28546393e-01 9.16219950e-01 9.86930013e-01 9.97189522e-01 9.99166012e-01 9.99635220e-01 9.99721944e-01 9.99721467e-01 9.99696791e-01 1.91062165e-03 2.12132887e-04 2.12758037e-04 2.13004401e-04 2.23919444e-04 1.36105999e-01 9.98131096e-01 9.97749627e-01 9.99641538e-01 9.95258212e-01 2.81702846e-01 9.81777608e-02 1.01633474e-01 8.23487639e-02 2.19166745e-04 2.10490747e-04 2.10923186e-04 4.08009946e-04 7.03954720e-04 1.88599504e-03 7.88329821e-03 3.96057032e-02 1.80455714e-01 5.64786673e-01 9.07629251e-01 9.87938881e-01 9.97988343e-01 9.99441922e-01 9.99705851e-01 9.99721766e-01 9.99719739e-01 9.99615729e-01 9.90832508e-01 9.98174310e-01 9.99722004e-01 9.99723434e-01 9.99724030e-01 9.99723256e-01 9.99722838e-01 9.99722779e-01 9.99496937e-01 2.25603923e-01 5.51313385e-02 5.39109111e-02 4.85702641e-02 7.94404186e-03 2.10239567e-04 2.07070509e-04 2.11281134e-04 5.16588916e-04 1.41234964e-03 5.58222923e-03 1.60111934e-02 3.01464237e-02 5.54012023e-02 1.54540211e-01 5.87855041e-01 9.58715200e-01 9.96161163e-01 9.99161720e-01 9.99616206e-01 9.99707460e-01 9.99718189e-01 9.99711573e-01 9.99719501e-01 9.99720454e-01 9.99720991e-01 9.99721348e-01 9.99721467e-01 9.99721587e-01 9.99721646e-01 9.99542177e-01 1.82943508e-01 3.42801623e-02 3.27369496e-02 3.16590816e-02 1.83518622e-02 2.11591861e-04 2.02154435e-04 2.09223086e-04 4.28580708e-04 1.15169922e-03 4.14198684e-03 6.30004611e-03 5.12676733e-03 3.99726443e-03 4.19837935e-03 7.51859229e-03 3.22334357e-02 3.32419187e-01 9.23780680e-01 9.91155267e-01 9.97088850e-01 9.98148501e-01 9.98369396e-01 9.98512805e-01 9.98709917e-01 9.98753190e-01 9.98677790e-01 9.98773634e-01 9.99103904e-01 9.99460816e-01 9.98362958e-01 1.48792565e-01 2.26414260e-02 2.18923856e-02 2.47010440e-02 2.06683390e-02 1.13778689e-03 1.95689980e-04 2.00587398e-04 4.74759087e-04 1.11238554e-03 3.00528109e-03 2.62550032e-03 1.40848942e-03 8.41442612e-04 6.38323952e-04 6.17149868e-04 7.77079724e-04 1.37045921e-03 3.69380438e-03 1.37448059e-02 3.93739343e-02 5.10957278e-02 4.06728238e-02 3.76192965e-02 5.59112765e-02 1.34773642e-01 4.19945061e-01 8.20990741e-01 9.62991476e-01 9.90225494e-01 9.78822052e-01 1.20486900e-01 1.54635906e-02 1.55716045e-02 2.12815125e-02 2.48439144e-02 4.97798854e-03 1.98600683e-04 1.96082940e-04 6.18851278e-04 1.56019023e-03 2.44834321e-03 1.36737910e-03 6.44470332e-04 3.88231740e-04 2.95081321e-04 2.63283990e-04 2.60950823e-04 2.83127360e-04 3.40171566e-04 4.52966255e-04 6.11266005e-04 6.96575560e-04 6.68013294e-04 6.93218492e-04 9.67743865e-04 2.04416690e-03 7.34327827e-03 4.38403897e-02 2.57246882e-01 6.32508516e-01 7.63665199e-01 9.87436175e-02 1.10535575e-02 1.14389025e-02 1.78034548e-02 3.09194699e-02 1.18596051e-02 2.02885538e-04 1.96258028e-04 2.73607264e-04 2.47117248e-03 2.32499093e-03 9.17966012e-04 4.29034320e-04 2.77310784e-04 2.23810042e-04 2.04556636e-04 1.97716727e-04 1.96848225e-04 2.03191361e-04 2.22877265e-04 2.63749447e-04 3.14902252e-04 3.44154949e-04 3.59381433e-04 4.26832383e-04 6.99782453e-04 1.86623505e-03 7.90337939e-03 3.56921889e-02 1.02697790e-01 3.76658112e-01 8.56146812e-02 8.69178306e-03 8.72065779e-03 1.32915881e-02 3.45132537e-02 3.08733415e-02 2.01892079e-04 1.91865751e-04 2.05669669e-04 4.69797384e-03 2.49729003e-03 7.86836317e-04 3.81361489e-04 2.57385400e-04 2.11235238e-04 1.93443178e-04 1.89513783e-04 1.85632030e-04 1.81071460e-04 1.80336341e-04 1.94029053e-04 2.32671271e-04 2.79462372e-04 3.06428177e-04 3.29185335e-04 4.14725248e-04 7.63369491e-04 2.45758868e-03 1.03578661e-02 2.42524352e-02 1.74099788e-01 8.48377869e-02 8.19456577e-03 7.61009846e-03 9.37835127e-03 2.59399526e-02 1.21330336e-01 2.04418902e-04 1.93355532e-04 2.02579948e-04 8.71481374e-03 3.11840000e-03 8.90824827e-04 4.43417055e-04 2.94061523e-04 2.31779442e-04 2.02704017e-04 1.90006889e-04 1.83447075e-04 1.76844842e-04 1.67228907e-04 1.63979130e-04 1.78016751e-04 2.20702466e-04 2.67990603e-04 2.95236998e-04 3.22359119e-04 4.06946870e-04 7.41576659e-04 2.52894289e-03 7.53327226e-03 8.55660290e-02 1.10628784e-01 1.12024574e-02 1.01027265e-02 9.16449632e-03 1.35933226e-02 2.95497239e-01 2.08617304e-04 2.51546939e-04 2.08761499e-04 7.16421660e-03 3.83438170e-03 1.31855253e-03 6.78317680e-04 4.25851205e-04 3.07308888e-04 2.47138145e-04 2.11335617e-04 1.87961967e-04 1.73872948e-04 1.62038908e-04 1.52117937e-04 1.52043547e-04 1.69031686e-04 2.10518570e-04 2.59330292e-04 2.97489052e-04 3.28757538e-04 3.88597487e-04 6.65828236e-04 1.91959518e-03 4.18209098e-02 2.46583641e-01 3.86212617e-02 5.57866022e-02 6.00874238e-02 4.20264080e-02 1.29957065e-01 1.32731523e-03 9.14787583e-04 3.27959220e-04 6.55742688e-03 4.63766186e-03 2.42446596e-03 1.45513355e-03 9.09315364e-04 5.83798392e-04 3.93903727e-04 2.87575996e-04 2.29893296e-04 2.02011142e-04 1.91642146e-04 1.78001690e-04 1.70048690e-04 1.75774112e-04 1.89071361e-04 2.21117851e-04 2.72967678e-04 3.22637759e-04 3.36439261e-04 3.32097348e-04 3.83470382e-04 1.18302293e-02 5.59657156e-01 3.73398364e-01 4.73786354e-01 6.09302759e-01 6.29739702e-01 5.45910120e-01 9.39643383e-01 6.40122162e-04 7.65640463e-04 4.10693914e-01 7.21676126e-02 4.39952910e-02 3.20713706e-02 2.33814716e-02 1.51178446e-02 7.97566865e-03 3.47499340e-03 1.43401511e-03 6.75687974e-04 4.05226019e-04 2.92118959e-04 2.50012614e-04 2.70952296e-04 3.75764619e-04 6.33112562e-04 1.17891026e-03 2.01185420e-03 2.51445337e-03 1.61836552e-03 8.22286645e-04 3.51832644e-03 
