# vtk DataFile Version 2.0
results_case1_non_linear/7_density.vtk, Created by Freefem++ 
ASCII
DATASET UNSTRUCTURED_GRID
POINTS 961 float
0 0 0
0.033333333 0 0
0.066666667 0 0
0.1 0 0
0.13333333 0 0
0.16666667 0 0
0.2 0 0
0.23333333 0 0
0.26666667 0 0
0.3 0 0
0.33333333 0 0
0.36666667 0 0
0.4 0 0
0.43333333 0 0
0.46666667 0 0
0.5 0 0
0.53333333 0 0
0.56666667 0 0
0.6 0 0
0.63333333 0 0
0.66666667 0 0
0.7 0 0
0.73333333 0 0
0.76666667 0 0
0.8 0 0
0.83333333 0 0
0.86666667 0 0
0.9 0 0
0.93333333 0 0
0.96666667 0 0
1 0 0
0 0.033333333 0
0.033333333 0.033333333 0
0.066666667 0.033333333 0
0.1 0.033333333 0
0.13333333 0.033333333 0
0.16666667 0.033333333 0
0.2 0.033333333 0
0.23333333 0.033333333 0
0.26666667 0.033333333 0
0.3 0.033333333 0
0.33333333 0.033333333 0
0.36666667 0.033333333 0
0.4 0.033333333 0
0.43333333 0.033333333 0
0.46666667 0.033333333 0
0.5 0.033333333 0
0.53333333 0.033333333 0
0.56666667 0.033333333 0
0.6 0.033333333 0
0.63333333 0.033333333 0
0.66666667 0.033333333 0
0.7 0.033333333 0
0.73333333 0.033333333 0
0.76666667 0.033333333 0
0.8 0.033333333 0
0.83333333 0.033333333 0
0.86666667 0.033333333 0
0.9 0.033333333 0
0.93333333 0.033333333 0
0.96666667 0.033333333 0
1 0.033333333 0
0 0.066666667 0
0.033333333 0.066666667 0
0.066666667 0.066666667 0
0.1 0.066666667 0
0.13333333 0.066666667 0
0.16666667 0.066666667 0
0.2 0.066666667 0
0.23333333 0.066666667 0
0.26666667 0.066666667 0
0.3 0.066666667 0
0.33333333 0.066666667 0
0.36666667 0.066666667 0
0.4 0.066666667 0
0.43333333 0.066666667 0
0.46666667 0.066666667 0
0.5 0.066666667 0
0.53333333 0.066666667 0
0.56666667 0.066666667 0
0.6 0.066666667 0
0.63333333 0.066666667 0
0.66666667 0.066666667 0
0.7 0.066666667 0
0.73333333 0.066666667 0
0.76666667 0.066666667 0
0.8 0.066666667 0
0.83333333 0.066666667 0
0.86666667 0.066666667 0
0.9 0.066666667 0
0.93333333 0.066666667 0
0.96666667 0.066666667 0
1 0.066666667 0
0 0.1 0
0.033333333 0.1 0
0.066666667 0.1 0
0.1 0.1 0
0.13333333 0.1 0
0.16666667 0.1 0
0.2 0.1 0
0.23333333 0.1 0
0.26666667 0.1 0
0.3 0.1 0
0.33333333 0.1 0
0.36666667 0.1 0
0.4 0.1 0
0.43333333 0.1 0
0.46666667 0.1 0
0.5 0.1 0
0.53333333 0.1 0
0.56666667 0.1 0
0.6 0.1 0
0.63333333 0.1 0
0.66666667 0.1 0
0.7 0.1 0
0.73333333 0.1 0
0.76666667 0.1 0
0.8 0.1 0
0.83333333 0.1 0
0.86666667 0.1 0
0.9 0.1 0
0.93333333 0.1 0
0.96666667 0.1 0
1 0.1 0
0 0.13333333 0
0.033333333 0.13333333 0
0.066666667 0.13333333 0
0.1 0.13333333 0
0.13333333 0.13333333 0
0.16666667 0.13333333 0
0.2 0.13333333 0
0.23333333 0.13333333 0
0.26666667 0.13333333 0
0.3 0.13333333 0
0.33333333 0.13333333 0
0.36666667 0.13333333 0
0.4 0.13333333 0
0.43333333 0.13333333 0
0.46666667 0.13333333 0
0.5 0.13333333 0
0.53333333 0.13333333 0
0.56666667 0.13333333 0
0.6 0.13333333 0
0.63333333 0.13333333 0
0.66666667 0.13333333 0
0.7 0.13333333 0
0.73333333 0.13333333 0
0.76666667 0.13333333 0
0.8 0.13333333 0
0.83333333 0.13333333 0
0.86666667 0.13333333 0
0.9 0.13333333 0
0.93333333 0.13333333 0
0.96666667 0.13333333 0
1 0.13333333 0
0 0.16666667 0
0.033333333 0.16666667 0
0.066666667 0.16666667 0
0.1 0.16666667 0
0.13333333 0.16666667 0
0.16666667 0.16666667 0
0.2 0.16666667 0
0.23333333 0.16666667 0
0.26666667 0.16666667 0
0.3 0.16666667 0
0.33333333 0.16666667 0
0.36666667 0.16666667 0
0.4 0.16666667 0
0.43333333 0.16666667 0
0.46666667 0.16666667 0
0.5 0.16666667 0
0.53333333 0.16666667 0
0.56666667 0.16666667 0
0.6 0.16666667 0
0.63333333 0.16666667 0
0.66666667 0.16666667 0
0.7 0.16666667 0
0.73333333 0.16666667 0
0.76666667 0.16666667 0
0.8 0.16666667 0
0.83333333 0.16666667 0
0.86666667 0.16666667 0
0.9 0.16666667 0
0.93333333 0.16666667 0
0.96666667 0.16666667 0
1 0.16666667 0
0 0.2 0
0.033333333 0.2 0
0.066666667 0.2 0
0.1 0.2 0
0.13333333 0.2 0
0.16666667 0.2 0
0.2 0.2 0
0.23333333 0.2 0
0.26666667 0.2 0
0.3 0.2 0
0.33333333 0.2 0
0.36666667 0.2 0
0.4 0.2 0
0.43333333 0.2 0
0.46666667 0.2 0
0.5 0.2 0
0.53333333 0.2 0
0.56666667 0.2 0
0.6 0.2 0
0.63333333 0.2 0
0.66666667 0.2 0
0.7 0.2 0
0.73333333 0.2 0
0.76666667 0.2 0
0.8 0.2 0
0.83333333 0.2 0
0.86666667 0.2 0
0.9 0.2 0
0.93333333 0.2 0
0.96666667 0.2 0
1 0.2 0
0 0.23333333 0
0.033333333 0.23333333 0
0.066666667 0.23333333 0
0.1 0.23333333 0
0.13333333 0.23333333 0
0.16666667 0.23333333 0
0.2 0.23333333 0
0.23333333 0.23333333 0
0.26666667 0.23333333 0
0.3 0.23333333 0
0.33333333 0.23333333 0
0.36666667 0.23333333 0
0.4 0.23333333 0
0.43333333 0.23333333 0
0.46666667 0.23333333 0
0.5 0.23333333 0
0.53333333 0.23333333 0
0.56666667 0.23333333 0
0.6 0.23333333 0
0.63333333 0.23333333 0
0.66666667 0.23333333 0
0.7 0.23333333 0
0.73333333 0.23333333 0
0.76666667 0.23333333 0
0.8 0.23333333 0
0.83333333 0.23333333 0
0.86666667 0.23333333 0
0.9 0.23333333 0
0.93333333 0.23333333 0
0.96666667 0.23333333 0
1 0.23333333 0
0 0.26666667 0
0.033333333 0.26666667 0
0.066666667 0.26666667 0
0.1 0.26666667 0
0.13333333 0.26666667 0
0.16666667 0.26666667 0
0.2 0.26666667 0
0.23333333 0.26666667 0
0.26666667 0.26666667 0
0.3 0.26666667 0
0.33333333 0.26666667 0
0.36666667 0.26666667 0
0.4 0.26666667 0
0.43333333 0.26666667 0
0.46666667 0.26666667 0
0.5 0.26666667 0
0.53333333 0.26666667 0
0.56666667 0.26666667 0
0.6 0.26666667 0
0.63333333 0.26666667 0
0.66666667 0.26666667 0
0.7 0.26666667 0
0.73333333 0.26666667 0
0.76666667 0.26666667 0
0.8 0.26666667 0
0.83333333 0.26666667 0
0.86666667 0.26666667 0
0.9 0.26666667 0
0.93333333 0.26666667 0
0.96666667 0.26666667 0
1 0.26666667 0
0 0.3 0
0.033333333 0.3 0
0.066666667 0.3 0
0.1 0.3 0
0.13333333 0.3 0
0.16666667 0.3 0
0.2 0.3 0
0.23333333 0.3 0
0.26666667 0.3 0
0.3 0.3 0
0.33333333 0.3 0
0.36666667 0.3 0
0.4 0.3 0
0.43333333 0.3 0
0.46666667 0.3 0
0.5 0.3 0
0.53333333 0.3 0
0.56666667 0.3 0
0.6 0.3 0
0.63333333 0.3 0
0.66666667 0.3 0
0.7 0.3 0
0.73333333 0.3 0
0.76666667 0.3 0
0.8 0.3 0
0.83333333 0.3 0
0.86666667 0.3 0
0.9 0.3 0
0.93333333 0.3 0
0.96666667 0.3 0
1 0.3 0
0 0.33333333 0
0.033333333 0.33333333 0
0.066666667 0.33333333 0
0.1 0.33333333 0
0.13333333 0.33333333 0
0.16666667 0.33333333 0
0.2 0.33333333 0
0.23333333 0.33333333 0
0.26666667 0.33333333 0
0.3 0.33333333 0
0.33333333 0.33333333 0
0.36666667 0.33333333 0
0.4 0.33333333 0
0.43333333 0.33333333 0
0.46666667 0.33333333 0
0.5 0.33333333 0
0.53333333 0.33333333 0
0.56666667 0.33333333 0
0.6 0.33333333 0
0.63333333 0.33333333 0
0.66666667 0.33333333 0
0.7 0.33333333 0
0.73333333 0.33333333 0
0.76666667 0.33333333 0
0.8 0.33333333 0
0.83333333 0.33333333 0
0.86666667 0.33333333 0
0.9 0.33333333 0
0.93333333 0.33333333 0
0.96666667 0.33333333 0
1 0.33333333 0
0 0.36666667 0
0.033333333 0.36666667 0
0.066666667 0.36666667 0
0.1 0.36666667 0
0.13333333 0.36666667 0
0.16666667 0.36666667 0
0.2 0.36666667 0
0.23333333 0.36666667 0
0.26666667 0.36666667 0
0.3 0.36666667 0
0.33333333 0.36666667 0
0.36666667 0.36666667 0
0.4 0.36666667 0
0.43333333 0.36666667 0
0.46666667 0.36666667 0
0.5 0.36666667 0
0.53333333 0.36666667 0
0.56666667 0.36666667 0
0.6 0.36666667 0
0.63333333 0.36666667 0
0.66666667 0.36666667 0
0.7 0.36666667 0
0.73333333 0.36666667 0
0.76666667 0.36666667 0
0.8 0.36666667 0
0.83333333 0.36666667 0
0.86666667 0.36666667 0
0.9 0.36666667 0
0.93333333 0.36666667 0
0.96666667 0.36666667 0
1 0.36666667 0
0 0.4 0
0.033333333 0.4 0
0.066666667 0.4 0
0.1 0.4 0
0.13333333 0.4 0
0.16666667 0.4 0
0.2 0.4 0
0.23333333 0.4 0
0.26666667 0.4 0
0.3 0.4 0
0.33333333 0.4 0
0.36666667 0.4 0
0.4 0.4 0
0.43333333 0.4 0
0.46666667 0.4 0
0.5 0.4 0
0.53333333 0.4 0
0.56666667 0.4 0
0.6 0.4 0
0.63333333 0.4 0
0.66666667 0.4 0
0.7 0.4 0
0.73333333 0.4 0
0.76666667 0.4 0
0.8 0.4 0
0.83333333 0.4 0
0.86666667 0.4 0
0.9 0.4 0
0.93333333 0.4 0
0.96666667 0.4 0
1 0.4 0
0 0.43333333 0
0.033333333 0.43333333 0
0.066666667 0.43333333 0
0.1 0.43333333 0
0.13333333 0.43333333 0
0.16666667 0.43333333 0
0.2 0.43333333 0
0.23333333 0.43333333 0
0.26666667 0.43333333 0
0.3 0.43333333 0
0.33333333 0.43333333 0
0.36666667 0.43333333 0
0.4 0.43333333 0
0.43333333 0.43333333 0
0.46666667 0.43333333 0
0.5 0.43333333 0
0.53333333 0.43333333 0
0.56666667 0.43333333 0
0.6 0.43333333 0
0.63333333 0.43333333 0
0.66666667 0.43333333 0
0.7 0.43333333 0
0.73333333 0.43333333 0
0.76666667 0.43333333 0
0.8 0.43333333 0
0.83333333 0.43333333 0
0.86666667 0.43333333 0
0.9 0.43333333 0
0.93333333 0.43333333 0
0.96666667 0.43333333 0
1 0.43333333 0
0 0.46666667 0
0.033333333 0.46666667 0
0.066666667 0.46666667 0
0.1 0.46666667 0
0.13333333 0.46666667 0
0.16666667 0.46666667 0
0.2 0.46666667 0
0.23333333 0.46666667 0
0.26666667 0.46666667 0
0.3 0.46666667 0
0.33333333 0.46666667 0
0.36666667 0.46666667 0
0.4 0.46666667 0
0.43333333 0.46666667 0
0.46666667 0.46666667 0
0.5 0.46666667 0
0.53333333 0.46666667 0
0.56666667 0.46666667 0
0.6 0.46666667 0
0.63333333 0.46666667 0
0.66666667 0.46666667 0
0.7 0.46666667 0
0.73333333 0.46666667 0
0.76666667 0.46666667 0
0.8 0.46666667 0
0.83333333 0.46666667 0
0.86666667 0.46666667 0
0.9 0.46666667 0
0.93333333 0.46666667 0
0.96666667 0.46666667 0
1 0.46666667 0
0 0.5 0
0.033333333 0.5 0
0.066666667 0.5 0
0.1 0.5 0
0.13333333 0.5 0
0.16666667 0.5 0
0.2 0.5 0
0.23333333 0.5 0
0.26666667 0.5 0
0.3 0.5 0
0.33333333 0.5 0
0.36666667 0.5 0
0.4 0.5 0
0.43333333 0.5 0
0.46666667 0.5 0
0.5 0.5 0
0.53333333 0.5 0
0.56666667 0.5 0
0.6 0.5 0
0.63333333 0.5 0
0.66666667 0.5 0
0.7 0.5 0
0.73333333 0.5 0
0.76666667 0.5 0
0.8 0.5 0
0.83333333 0.5 0
0.86666667 0.5 0
0.9 0.5 0
0.93333333 0.5 0
0.96666667 0.5 0
1 0.5 0
0 0.53333333 0
0.033333333 0.53333333 0
0.066666667 0.53333333 0
0.1 0.53333333 0
0.13333333 0.53333333 0
0.16666667 0.53333333 0
0.2 0.53333333 0
0.23333333 0.53333333 0
0.26666667 0.53333333 0
0.3 0.53333333 0
0.33333333 0.53333333 0
0.36666667 0.53333333 0
0.4 0.53333333 0
0.43333333 0.53333333 0
0.46666667 0.53333333 0
0.5 0.53333333 0
0.53333333 0.53333333 0
0.56666667 0.53333333 0
0.6 0.53333333 0
0.63333333 0.53333333 0
0.66666667 0.53333333 0
0.7 0.53333333 0
0.73333333 0.53333333 0
0.76666667 0.53333333 0
[...]
CELL_DATA 1920
Scalars  Label int 1
LOOKUP_TABLE FreeFempp_table
0
0
0
0
0
0
0
0
0
0
0
0
0
0
0
0
0
0
0
0
0
0
0
0
0
0
0
0
0
0
0
0
0
0
0
0
0
0
0
0
0
0
0
0
0
0
0
0
0
0
0
0
0
0
0
0
0
0
0
0
0
0
0
0
0
0
0
0
0
0
0
0
0
0
0
0
0
0
0
0
0
0
0
0
0
0
0
0
0
0
0
0
0
0
0
0
0
0
0
0
0
0
0
0
0
0
0
0
0
0
0
0
0
0
0
0
0
0
0
0
0
0
0
0
0
0
0
0
0
0
0
0
0
0
0
0
0
0
0
0
0
0
0
0
0
0
0
0
0
0
0
0
0
0
0
0
0
0
0
0
0
0
0
0
0
0
0
0
0
0
0
0
0
0
0
0
0
0
0
0
0
0
0
0
0
0
0
0
0
0
0
0
0
0
0
0
0
0
0
0
0
0
0
0
0
0
0
0
0
0
0
0
0
0
0
0
0
0
0
0
0
0
0
0
0
0
0
0
0
0
0
0
0
0
0
0
0
0
0
0
0
0
0
0
0
0
0
0
0
0
0
0
0
0
0
0
0
0
0
0
0
0
0
0
0
0
0
0
0
0
0
0
0
0
0
0
0
0
0
0
0
0
0
0
0
0
0
0
0
0
0
0
0
0
0
0
0
0
0
0
0
0
0
0
0
0
0
0
0
0
0
0
0
0
0
0
0
0
0
0
0
0
0
0
0
0
0
0
0
0
0
0
0
0
0
0
0
0
0
0
0
0
0
0
0
0
0
0
0
0
0
0
0
0
0
0
0
0
0
0
0
0
0
0
0
0
0
0
0
0
0
0
0
0
0
0
0
0
0
0
0
0
0
0
0
0
0
0
0
0
0
0
0
0
0
0
0
0
0
0
0
0
0
0
0
0
0
0
0
0
0
0
0
0
0
0
0
0
0
0
0
0
0
0
0
0
0
0
0
0
0
0
0
0
0
0
0
0
0
0
0
0
0
0
0
0
0
0
0
0
0
0
0
0
0
0
0
0
0
0
0
0
0
0
0
0
0
0
0
0
0
0
0
0
0
0
0
0
0
0
0
0
0
0
0
0
0
0
0
0
0
0
0
0
0
0
0
0
0
0
0
0
0
0
0
0
0
0
0
0
0
0
0
0
0
0
0
0
0
0
0
0
0
0
0
0
0
0
0
0
0
0
0
0
0
0
0
0
0
0
0
0
0
0
0
0
0
0
0
0
0
0
0
0
0
0
0
0
0
0
0
0
0
0
0
0
0
0
0
0
0
0
0
0
0
0
0
0
0
0
0
0
0
0
0
0
0
0
0
0
0
0
0
0
0
0
0
0
0
0
0
0
0
0
0
0
0
0
0
0
0
0
0
0
0
0
0
0
0
0
0
0
0
0
0
0
0
0
0
0
0
0
0
0
0
0
0
0
0
0
0
0
0
0
0
0
0
0
0
0
0
0
0
0
0
0
0
0
0
0
0
0
0
0
0
0
0
0
0
0
0
0
0
0
0
0
0
0
0
0
0
0
0
0
0
0
0
0
0
0
0
0
0
0
0
0
0
0
0
0
0
0
0
0
0
0
0
0
0
0
0
0
0
0
0
0
0
0
0
0
0
0
0
0
0
0
0
0
0
0
0
0
0
0
0
0
0
0
0
0
0
0
0
0
0
0
0
0
0
0
0
0
0
0
0
0
0
0
0
0
0
0
0
0
0
0
0
0
0
0
0
0
0
0
0
0
0
0
0
0
0
0
0
0
0
0
0
0
0
0
0
0
0
0
0
0
0
0
0
0
0
0
0
0
0
0
0
0
0
0
0
0
0
0
0
0
0
0
0
0
0
0
0
0
0
0
0
0
0
0
0
0
0
0
0
0
0
0
0
0
0
0
0
0
0
0
0
0
0
0
0
0
0
0
0
0
0
0
0
0
0
0
0
0
0
0
0
0
0
0
0
0
0
0
0
0
0
0
0
0
0
0
0
0
0
0
0
0
0
0
0
0
0
0
0
0
0
0
0
0
0
0
0
0
0
0
0
0
0
0
0
0
0
0
0
0
0
0
0
0
0
0
0
0
0
0
0
0
0
0
0
0
0
0
0
0
0
0
0
0
0
0
0
0
0
0
0
0
0
0
0
0
0
0
0
0
0
0
0
0
0
0
0
0
0
0
0
0
0
0
0
0
0
0
0
0
0
0
0
0
0
0
0
0
0
0
0
0
0
0
0
0
0
0
0
0
0
0
0
0
0
0
0
0
0
0
0
0
0
0
0
0
0
0
0
0
0
0
0
0
0
0
0
0
0
0
0
0
0
0
0
0
0
0
0
0
0
0
0
0
0
0
0
0
0
0
0
0
0
0
0
0
0
0
0
0
0
0
0
0
0
0
0
0
0
0
0
0
0
0
0
0
0
0
0
0
0
0
0
0
0
0
0
0
0
0
0
0
0
0
0
0
0
0
0
0
0
0
0
0
0
0
0
0
0
0
0
0
0
0
0
0
0
0
0
0
0
0
0
0
0
0
0
0
0
0
0
0
0
0
0
0
0
0
0
0
0
0
0
0
0
0
0
0
0
0
0
0
0
0
0
0
0
0
0
0
0
0
0
0
0
0
0
0
0
0
0
0
0
0
0
0
0
0
0
0
0
0
0
0
0
0
0
0
0
0
0
0
0
0
0
0
0
0
0
0
0
0
0
0
0
0
0
0
0
0
0
0
0
0
0
0
0
0
0
0
0
0
0
0
0
0
0
0
0
0
0
0
0
0
0
0
0
0
0
0
0
0
0
0
0
0
0
0
0
0
0
0
0
0
0
0
0
0
0
0
0
0
0
0
0
0
0
0
0
0
0
0
0
0
0
0
0
0
0
0
0
0
0
0
0
0
0
0
0
0
0
0
0
0
0
0
0
0
0
0
0
0
0
0
0
0
0
0
0
0
0
0
0
0
0
0
0
0
0
0
0
0
0
0
0
0
0
0
0
0
0
0
0
0
0
0
0
0
0
0
0
0
0
0
0
0
0
0
0
0
0
0
0
0
0
0
0
0
0
0
0
0
0
0
0
0
0
0
0
0
0
0
0
0
0
0
0
0
0
0
0
0
0
0
0
0
0
0
0
0
0
0
0
0
0
0
0
0
0
0
0
0
0
0
0
0
0
0
0
0
0
0
0
0
0
0
0
0
0
0
0
0
0
0
0
0
0
0
0
0
0
0
0
0
0
0
0
0
0
0
0
0
0
0
0
0
0
0
0
0
0
0
0
0
0
0
0
0
0
0
0
0
0
0
0
0
0
0
0
0
0
0
0
0
0
0
0
0
0
0
0
0
0
0
0
0
0
0
0
0
0
0
0
0
0
0
0
0
0
0
0
0
0
0
0
0
0
0
0
0
0
0
0
0
0
0
0
0
0
0
0
0
0
0
0
0
0
0
0
0
0
0
0
0
0
0
0
0
0
0
0
0
0
0
0
0
0
0
0
0
0
0
0
0
0
0
0
0
0
0
0
0
0
0
0
0
0
0
0
0
0
0
0
0
0
0
0
0
0
0
0
0
0
0
0
0
0
0
0
0
0
0
0
0
0
0
0
0
0
0
0
0
0
0
0
0
0
0
0
0
0
0
0
0
0
0
0
0
0
0
0
0
0
0
0
0
0
0
0
0
0
0
0
0
0
0
0
0
0
0
0
0
0
0
0
0
0
0
0
0
0
0
0
0
0
0
0
0
0
0
0
0
0
0
0
0
0
0
0
0
0
0
0
0
0
0
0
0
0
0
0
0
0
0
0
0
0
0
0
0
0
0
0
0
0
0
0
0
0
0
0
0
0
0
0
0
0
0
0
0
0
0
0
0
0
0
0
0
0
0
0
0
0
0
0
0
0
0
0
0
0
0
0
0
0
0
0
0
0
0
0
0
0
0
0
0
0
0
0
0
0
0
0
0
0
0
0
0
0
0
0
0
0
0
0
0
0
0
0
0
0
0
0
0
0
0
0
0
0
0
0
0
0
0
0
0
0
0
0
0
0
0
0
0
0
0
0
0
0
0
0
0
0
0
1
1
1
1
1
1
1
1
1
1
1
1
1
1
1
1
1
1
1
1
1
1
1
1
1
1
1
1
1
1
2
2
2
2
2
2
2
2
2
2
2
2
2
2
2
2
2
2
2
2
2
2
2
2
2
2
2
2
2
2
3
3
3
3
3
3
3
3
3
3
3
3
3
3
3
3
3
3
3
3
3
3
3
3
3
3
3
3
3
3
4
4
4
4
4
4
4
4
4
4
4
4
4
4
4
4
4
4
4
4
4
4
4
4
4
4
4
4
4
4

LOOKUP_TABLE FreeFempp_table 5
1.00000000 0.00000000 0.00000000 1.00000000
1.00000000 1.00000000 0.00000000 1.00000000
1.00000000 0.00000000 1.00000000 1.00000000
0.00000000 1.00000000 0.00000000 1.00000000
0.00000000 1.00000000 1.00000000 1.00000000

POINT_DATA 961
FIELD FieldData 1
Density 1 961 float
4.78624493e-01 4.58052754e-01 4.55051482e-01 4.48122114e-01 4.20861721e-01 3.69924307e-01 3.04523319e-01 2.26266831e-01 1.48199096e-01 1.13267541e-01 1.44708350e-01 2.58004487e-01 3.90756756e-01 4.68308985e-01 5.15398264e-01 5.59862792e-01 5.75599015e-01 5.34129143e-01 4.94670093e-01 5.11462569e-01 5.24461985e-01 5.18861830e-01 5.15411854e-01 5.15759766e-01 5.15365183e-01 5.14348447e-01 5.12767076e-01 5.10686696e-01 5.09837389e-01 5.11285305e-01 5.05615592e-01 5.65502420e-03 5.11453720e-03 5.17403102e-03 4.84591257e-03 4.46519209e-03 4.38357377e-03 4.82767541e-03 5.65095758e-03 6.11283490e-03 6.51909597e-03 1.27436826e-02 9.99021456e-02 3.35673332e-01 4.35604423e-01 5.00181794e-01 5.88388920e-01 6.49480522e-01 5.96092522e-01 5.09590805e-01 5.24564922e-01 5.51719308e-01 5.45693874e-01 5.35821021e-01 5.32976687e-01 5.31971157e-01 5.29420733e-01 5.25976479e-01 5.23374438e-01 5.22071540e-01 5.21413565e-01 5.12646735e-01 7.97821023e-03 4.57373401e-03 5.23623032e-03 5.03510563e-03 4.62831184e-03 4.34784219e-03 4.53894772e-03 5.21761971e-03 6.07575849e-03 5.14213881e-03 4.71347477e-03 4.96149855e-03 6.52254326e-03 6.00524386e-03 4.96296465e-01 5.76153696e-01 6.49641752e-01 5.39937913e-01 3.48260134e-01 4.10833031e-01 4.99517173e-01 5.21692932e-01 5.26186109e-01 5.24660408e-01 5.21307051e-01 5.17662346e-01 5.16218603e-01 5.15289843e-01 5.13410449e-01 5.07529438e-01 5.07293403e-01 6.02446735e-01 6.00178063e-01 5.30647635e-01 4.75406557e-01 4.58407879e-01 4.56920266e-01 4.51354265e-01 4.48029071e-01 4.07683015e-01 1.48032203e-01 1.57875698e-02 6.79817796e-03 6.27365056e-03 3.98652209e-03 3.93607141e-03 5.59042513e-01 6.67828858e-01 5.17603755e-01 1.07883304e-01 1.65648997e-01 1.60563752e-01 2.95498490e-01 4.25926596e-01 4.78373140e-01 4.95912999e-01 4.97402638e-01 4.93812561e-01 4.91322488e-01 4.88092422e-01 4.80862230e-01 4.92459834e-01 6.67692065e-01 7.50742495e-01 7.17146099e-01 6.67408526e-01 6.13066077e-01 5.74235976e-01 5.49526274e-01 5.33378899e-01 5.21169603e-01 5.09456456e-01 4.95882452e-01 4.82951194e-01 4.73323524e-01 4.68816489e-01 4.17343900e-03 4.21186769e-03 6.14595592e-01 7.03395724e-01 8.81940201e-02 1.24682300e-01 7.85240233e-02 6.50889054e-02 8.88215601e-02 1.98435009e-01 3.90851974e-01 4.60826963e-01 4.73754942e-01 4.66648191e-01 4.60260898e-01 4.50803965e-01 4.72019225e-01 6.38533235e-01 7.33664572e-01 7.15921521e-01 7.47229695e-01 7.14177072e-01 6.76548481e-01 6.44230127e-01 6.16351008e-01 5.91037691e-01 5.68505406e-01 5.46489298e-01 5.24083436e-01 5.04180491e-01 4.88647640e-01 4.78471518e-01 4.27230168e-03 4.37349407e-03 6.81873918e-01 6.04463995e-01 1.03847213e-01 7.32023567e-02 5.26640564e-02 3.36476341e-02 3.14387642e-02 5.89952283e-02 2.52711743e-01 4.32258040e-01 4.43736941e-01 4.27905530e-01 4.17352855e-01 4.46601480e-01 5.89427531e-01 5.69766998e-01 3.00014049e-01 5.77365339e-01 6.95724845e-01 6.91444576e-01 6.75143063e-01 6.57226324e-01 6.37606263e-01 6.16367102e-01 5.93696713e-01 5.69593072e-01 5.45532048e-01 5.23872554e-01 5.07255256e-01 4.92180556e-01 4.45840182e-03 4.69169440e-03 7.75588989e-01 6.29969001e-01 1.47574350e-01 1.69110149e-01 6.17203824e-02 2.48304605e-02 2.01144777e-02 2.87379157e-02 1.81278840e-01 3.86914819e-01 3.75473440e-01 3.56237113e-01 4.05726075e-01 5.82377315e-01 5.91882169e-01 2.11118564e-01 2.61028767e-01 5.34811199e-01 6.29855990e-01 6.48197412e-01 6.52762055e-01 6.49800956e-01 6.41234398e-01 6.28220022e-01 6.11013234e-01 5.90152323e-01 5.67610502e-01 5.46554327e-01 5.29654443e-01 5.06181419e-01 5.08050667e-03 5.67564415e-03 7.93603241e-01 6.88060284e-01 2.87637919e-01 2.63480395e-01 1.38967633e-01 2.42283531e-02 1.59251392e-02 2.29194518e-02 1.80060998e-01 2.98732370e-01 2.76741058e-01 3.42722952e-01 5.71215451e-01 6.10499740e-01 2.02654719e-01 1.56654701e-01 3.43804777e-01 5.22513032e-01 5.76951981e-01 6.08528495e-01 6.27686739e-01 6.36212528e-01 6.36579037e-01 6.30615771e-01 6.19534791e-01 6.04500413e-01 5.87434590e-01 5.70883691e-01 5.57316422e-01 5.14263868e-01 6.35256711e-03 6.94182143e-03 6.81879640e-01 7.14408576e-01 5.56828141e-01 4.95278805e-01 3.28847140e-01 2.13743430e-02 1.34107014e-02 2.91259699e-02 2.02373728e-01 2.23668694e-01 2.90403277e-01 5.61078370e-01 6.08083248e-01 2.31550902e-01 1.01840690e-01 1.95453569e-01 4.41614389e-01 5.06691515e-01 5.46851695e-01 5.81062198e-01 6.05976701e-01 6.20516956e-01 6.26116395e-01 6.25027955e-01 6.19350493e-01 6.10983014e-01 6.01845384e-01 5.95304370e-01 5.89087903e-01 5.22660077e-01 7.46570434e-03 7.91827682e-03 4.82203245e-01 6.76459372e-01 7.26660252e-01 8.46353710e-01 4.27203417e-01 1.53306974e-02 1.25138368e-02 5.46477884e-02 1.53858066e-01 2.35339493e-01 5.48305929e-01 5.94992936e-01 3.53994787e-01 7.93998092e-02 1.03842907e-01 3.78243089e-01 4.58964616e-01 4.95443642e-01 5.30614674e-01 5.63000381e-01 5.88528216e-01 6.05065584e-01 6.13044381e-01 6.14477873e-01 6.11990690e-01 6.08459294e-01 6.07207358e-01 6.13130689e-01 6.17163479e-01 5.40188193e-01 8.27295799e-03 9.48210713e-03 5.26947789e-02 4.51116860e-01 1.83604330e-01 4.55153227e-01 1.14742287e-01 1.32621499e-02 1.80039834e-02 5.48709892e-02 1.12586193e-01 5.37323058e-01 5.77537119e-01 4.80723172e-01 7.61848018e-02 7.47038722e-02 2.89624661e-01 4.29470062e-01 4.61095393e-01 4.89740282e-01 5.20568848e-01 5.50611198e-01 5.75562477e-01 5.92365146e-01 6.00415349e-01 6.01407528e-01 5.98703563e-01 5.97081482e-01 6.02617025e-01 6.20941699e-01 6.39451146e-01 6.02937996e-01 1.31257791e-02 1.79684479e-02 2.64239442e-02 5.15590310e-02 8.58972445e-02 8.71646762e-01 1.99794266e-02 1.81900188e-02 3.34724747e-02 5.36013618e-02 5.26743948e-01 5.62727332e-01 5.14751196e-01 8.93948600e-02 5.47427051e-02 1.49785474e-01 4.15681005e-01 4.42767441e-01 4.61411864e-01 4.85529214e-01 5.14644027e-01 5.44301093e-01 5.68745852e-01 5.83916724e-01 5.89181662e-01 5.86705565e-01 5.80636919e-01 5.77225327e-01 5.85306346e-01 6.12419307e-01 6.48355842e-01 6.84926212e-01 5.96699379e-02 3.29718068e-02 3.61613333e-02 6.39048070e-02 7.88682282e-01 1.95155572e-02 1.89297795e-02 5.55161647e-02 5.87593429e-02 5.17737687e-01 5.46570063e-01 5.24558127e-01 1.52703375e-01 4.07480411e-02 6.91598505e-02 4.16184813e-01 4.37982887e-01 4.44750279e-01 4.60507512e-01 4.86300975e-01 5.17524421e-01 5.47022045e-01 5.68144262e-01 5.78171909e-01 5.78081131e-01 5.70299566e-01 5.58115482e-01 5.46864748e-01 5.45962155e-01 5.70746839e-01 6.33810759e-01 6.95829749e-01 7.04507411e-01 5.56809545e-01 4.66419101e-01 8.69376183e-01 2.09005252e-02 1.94082875e-02 2.24585921e-01 2.40852922e-01 5.11353672e-01 5.31870127e-01 5.19737899e-01 3.92820835e-01 3.40882428e-02 4.23279069e-02 4.15386111e-01 4.41082597e-01 4.36792552e-01 4.45091754e-01 4.68714446e-01 5.00265718e-01 5.31108499e-01 5.54725885e-01 5.68212926e-01 5.71574867e-01 5.65686226e-01 5.51191628e-01 5.29198408e-01 5.04024684e-01 4.86676931e-01 4.94520307e-01 5.45124233e-01 6.15296364e-01 6.14457309e-01 5.60114026e-01 8.16786528e-01 2.39735730e-02 2.13658530e-02 3.95175487e-01 4.29235607e-01 5.05981326e-01 5.20294487e-01 5.13143420e-01 4.73464787e-01 3.34071144e-02 3.42285521e-02 3.76216978e-01 4.45796728e-01 4.34714228e-01 4.37563330e-01 4.61701244e-01 4.93635863e-01 5.20534754e-01 5.40795147e-01 5.56098580e-01 5.64517915e-01 5.63304722e-01 5.51338971e-01 5.28039634e-01 4.94063884e-01 4.56127912e-01 4.30965722e-01 4.41253096e-01 4.97285903e-01 5.71702361e-01 6.64020598e-01 7.45376825e-01 2.69847047e-02 2.41740886e-02 4.28728580e-01 4.58788276e-01 5.01186430e-01 5.09947002e-01 5.08796155e-01 4.88796324e-01 3.78271230e-02 2.64101569e-02 2.07924217e-01 4.46263015e-01 4.38331127e-01 4.38171208e-01 4.63320911e-01 4.91674989e-01 5.04023254e-01 5.14061689e-01 5.34441888e-01 5.54938138e-01 5.62603891e-01 5.55796623e-01 5.36501884e-01 5.02615750e-01 4.58997756e-01 4.32904601e-01 4.57617968e-01 5.42475462e-01 6.35465086e-01 6.89677477e-01 6.44358575e-01 3.06785852e-02 2.71470807e-02 4.36149508e-01 4.66996253e-01 4.97591913e-01 5.01121700e-01 5.02489269e-01 4.94963855e-01 8.19211751e-02 2.21802127e-02 4.92675044e-02 4.32843387e-01 4.43689644e-01 4.50090408e-01 4.69999373e-01 4.72936213e-01 4.43483621e-01 4.38407600e-01 4.85930175e-01 5.43993711e-01 5.71076274e-01 5.70589721e-01 5.59490561e-01 5.41034639e-01 5.23348629e-01 5.42045355e-01 6.02261305e-01 7.35634923e-01 7.17566490e-01 6.23234928e-01 8.66921768e-02 3.26020978e-02 3.12242471e-02 4.39207464e-01 4.71611798e-01 4.94817495e-01 4.94210213e-01 4.96294379e-01 4.93221968e-01 4.14557427e-01 2.07191408e-02 2.62151044e-02 4.00128156e-01 4.34105635e-01 4.68493760e-01 4.61433917e-01 3.67603540e-01 2.56983638e-01 2.62538016e-01 3.65056396e-01 5.07123888e-01 5.86431086e-01 5.98483145e-01 5.96094966e-01 5.99096477e-01 6.11315429e-01 6.36043608e-01 5.95600009e-01 1.12205654e-01 9.29867327e-02 6.55831918e-02 5.38488775e-02 4.83956970e-02 4.61679772e-02 4.62563783e-01 4.81152445e-01 4.92224604e-01 4.88329321e-01 4.91736054e-01 4.91404563e-01 4.76187885e-01 2.12324336e-02 2.22649686e-02 3.67560655e-01 4.00933653e-01 4.71996218e-01 4.13678974e-01 1.41910851e-01 1.06727749e-01 1.26502454e-01 1.66191965e-01 3.69442314e-01 5.47852635e-01 6.06959820e-01 6.17689431e-01 6.35869861e-01 6.63833618e-01 6.88378930e-01 6.59720063e-01 3.53046089e-01 1.59564748e-01 8.01647082e-02 5.76775894e-02 7.24802986e-02 1.91367790e-01 5.92944860e-01 5.21080554e-01 4.89662826e-01 4.82732803e-01 4.87343043e-01 4.91943389e-01 4.85864729e-01 2.29505319e-02 2.15453524e-02 3.26575875e-01 3.52632433e-01 4.49091345e-01 4.20853198e-01 1.25020340e-01 8.12763199e-02 5.26958555e-02 4.89991419e-02 7.45982900e-02 3.68687510e-01 5.37191391e-01 5.79659343e-01 6.12451136e-01 6.58376396e-01 6.94582582e-01 7.04697192e-01 6.30272686e-01 4.96341527e-01 5.22066176e-01 6.94041133e-01 7.05415726e-01 7.10979104e-01 7.09353030e-01 6.09502733e-01 4.87202883e-01 4.77534503e-01 4.83165741e-01 4.89370883e-01 4.89463627e-01 2.24443786e-02 1.38684399e-02 2.55605668e-01 3.06198418e-01 4.06629115e-01 4.47698981e-01 2.93510020e-01 1.38857409e-01 7.63580278e-02 3.29401791e-02 2.18840782e-02 3.71151492e-02 3.78202915e-01 4.76420432e-01 5.17094016e-01 5.89544177e-01 6.37702584e-01 6.67123079e-01 6.94224775e-01 7.10412085e-01 7.31915355e-01 7.34735668e-01 7.15988994e-01 6.99131429e-01 7.05754876e-01 6.37789011e-01 4.84832704e-01 4.72887635e-01 4.79681164e-01 4.87871438e-01 4.90458906e-01 4.58824426e-01 1.39143523e-02 2.11813822e-02 3.02285194e-01 3.82490247e-01 4.36271131e-01 4.07703698e-01 3.49570513e-01 2.74706095e-01 1.25299513e-01 1.99714284e-02 1.45289199e-02 3.35707851e-02 3.72268260e-01 4.13170636e-01 5.03539443e-01 5.27383149e-01 4.90589440e-01 5.34820437e-01 5.85906148e-01 6.28041387e-01 6.33257926e-01 6.21852100e-01 6.16948724e-01 6.26610994e-01 5.94847798e-01 4.82564807e-01 4.68601584e-01 4.76576358e-01 4.87689495e-01 4.95086163e-01 4.80887115e-01 2.37776712e-02 2.34508161e-02 3.80971044e-01 4.03574616e-01 4.25227463e-01 4.23888862e-01 4.42107648e-01 4.62815315e-01 4.43534434e-01 2.96355873e-01 1.44082895e-02 1.15264188e-02 4.82641309e-02 3.40967596e-01 4.17530209e-01 3.99117053e-01 3.02100450e-01 3.31385463e-01 3.79572481e-01 4.18239832e-01 4.62973893e-01 4.88903224e-01 4.98557359e-01 5.17565727e-01 5.27612627e-01 4.80551153e-01 4.64592725e-01 4.73024249e-01 4.86782998e-01 5.04063010e-01 4.96107191e-01 2.53823437e-02 2.37927679e-02 4.13648427e-01 4.24953640e-01 4.30755705e-01 4.30331320e-01 4.40247834e-01 4.67952818e-01 4.90813494e-01 4.90531772e-01 3.06174636e-01 1.12616764e-02 9.96476877e-03 9.77645218e-02 3.60036463e-01 4.73326504e-01 2.79629230e-01 2.43071973e-01 2.73280501e-01 3.11960101e-01 3.50684345e-01 4.00038570e-01 4.34320062e-01 4.49689090e-01 4.83429313e-01 4.79163587e-01 4.61173922e-01 4.68398482e-01 4.81918395e-01 5.11221766e-01 5.29317141e-01 2.95224860e-02 2.61952616e-02 4.02500510e-01 4.42020953e-01 4.41875696e-01 4.39981341e-01 4.43066716e-01 4.56523985e-01 4.76882398e-01 4.96640623e-01 4.95605379e-01 1.16178632e-01 9.82442778e-03 1.05752768e-02 2.30632514e-01 5.15975654e-01 4.05747831e-01 2.65542269e-01 2.36450195e-01 2.52918988e-01 2.79066712e-01 3.22947323e-01 3.84116352e-01 4.20449138e-01 4.60976541e-01 4.79435295e-01 4.59864378e-01 4.64119345e-01 4.72929984e-01 4.99879897e-01 5.56193590e-01 2.93689556e-02 1.97609868e-02 2.57287145e-01 4.57545161e-01 4.54521716e-01 4.47570622e-01 4.50322002e-01 4.56445813e-01 4.66976464e-01 4.80301857e-01 4.98334110e-01 4.87152874e-01 3.73231433e-02 1.01092197e-02 1.46164270e-02 4.69140351e-01 5.56504190e-01 3.73586953e-01 2.87079275e-01 2.65154094e-01 2.67456055e-01 2.87144125e-01 3.39913338e-01 4.07563150e-01 4.57832903e-01 4.84174281e-01 4.65034693e-01 4.65645671e-01 4.67217475e-01 4.81705636e-01 5.48226953e-01 5.23821831e-01 2.01316290e-02 2.21162904e-02 4.70162779e-01 4.68219548e-01 4.56908256e-01 4.56890374e-01 4.62398887e-01 4.67005700e-01 4.71887112e-01 4.82585371e-01 4.99223351e-01 4.54997271e-01 1.81451850e-02 9.58493166e-03 2.51589138e-02 5.68368852e-01 5.09604037e-01 3.64547938e-01 3.22041810e-01 3.11259210e-01 3.07358682e-01 3.33946198e-01 4.09350485e-01 4.74298775e-01 4.99364793e-01 4.86802638e-01 4.85506147e-01 4.81772542e-01 4.82744098e-01 5.13938904e-01 5.68214297e-01 2.68610895e-01 2.28294022e-02 2.50323098e-02 4.58151937e-01 4.69101757e-01 4.67000335e-01 4.71847922e-01 4.73812073e-01 4.73111689e-01 4.74457979e-01 4.85135674e-01 5.03213108e-01 1.82991847e-01 1.10343350e-02 9.62513778e-03 6.85660616e-02 5.51499307e-01 4.75438982e-01 3.98635834e-01 3.79405528e-01 3.64974052e-01 3.64451468e-01 4.23831582e-01 4.91354048e-01 5.27915061e-01 5.36476791e-01 5.39217651e-01 5.42105794e-01 5.45006037e-01 5.51730692e-01 5.70806801e-01 5.41069031e-01 3.56782526e-01 3.29074003e-02 5.55532798e-02 4.77734327e-01 4.88563031e-01 4.89741325e-01 4.89359349e-01 4.86427903e-01 4.83625591e-01 4.84823048e-01 4.98085320e-01 5.05270302e-01 3.32594998e-02 6.62280293e-03 1.52741810e-02 3.65011841e-01 5.06335795e-01 4.83504593e-01 4.66822594e-01 4.48674619e-01 4.22457457e-01 4.07749742e-01 4.86843467e-01 5.17041087e-01 5.39010227e-01 5.41700363e-01 5.49194276e-01 5.58669746e-01 5.65212429e-01 5.79874873e-01 5.40002942e-01 6.79590940e-01 1.86841667e-01 7.48154595e-02 5.98220944e-01 5.13589501e-01 5.07169485e-01 5.03993869e-01 5.01658559e-01 5.00270724e-01 5.00107706e-01 5.00871181e-01 5.15849590e-01 6.49932504e-01 9.71472077e-03 9.53421649e-03 4.01874095e-01 4.89578933e-01 4.96377051e-01 5.04464447e-01 5.12884438e-01 4.95618433e-01 4.39461529e-01 4.49083775e-01 
