# vtk DataFile Version 2.0
results_case1_non_linear/iter6.vtk, Created by Freefem++ 
ASCII
DATASET UNSTRUCTURED_GRID
POINTS 961 float
0 0 0
0.033333333 0 0
0.066666667 0 0
0.1 0 0
0.13333333 0 0
0.16666667 0 0
0.2 0 0
0.23333333 0 0
0.26666667 0 0
0.3 0 0
0.33333333 0 0
0.36666667 0 0
0.4 0 0
0.43333333 0 0
0.46666667 0 0
0.5 0 0
0.53333333 0 0
0.56666667 0 0
0.6 0 0
0.63333333 0 0
0.66666667 0 0
0.7 0 0
0.73333333 0 0
0.76666667 0 0
0.8 0 0
0.83333333 0 0
0.86666667 0 0
0.9 0 0
0.93333333 0 0
0.96666667 0 0
1 0 0
0 0.033333333 0
0.033333333 0.033333333 0
0.066666667 0.033333333 0
0.1 0.033333333 0
0.13333333 0.033333333 0
0.16666667 0.033333333 0
0.2 0.033333333 0
0.23333333 0.033333333 0
0.26666667 0.033333333 0
0.3 0.033333333 0
0.33333333 0.033333333 0
0.36666667 0.033333333 0
0.4 0.033333333 0
0.43333333 0.033333333 0
0.46666667 0.033333333 0
0.5 0.033333333 0
0.53333333 0.033333333 0
0.56666667 0.033333333 0
0.6 0.033333333 0
0.63333333 0.033333333 0
0.66666667 0.033333333 0
0.7 0.033333333 0
0.73333333 0.033333333 0
0.76666667 0.033333333 0
0.8 0.033333333 0
0.83333333 0.033333333 0
0.86666667 0.033333333 0
0.9 0.033333333 0
0.93333333 0.033333333 0
0.96666667 0.033333333 0
1 0.033333333 0
0 0.066666667 0
0.033333333 0.066666667 0
0.066666667 0.066666667 0
0.1 0.066666667 0
0.13333333 0.066666667 0
0.16666667 0.066666667 0
0.2 0.066666667 0
0.23333333 0.066666667 0
0.26666667 0.066666667 0
0.3 0.066666667 0
0.33333333 0.066666667 0
0.36666667 0.066666667 0
0.4 0.066666667 0
0.43333333 0.066666667 0
0.46666667 0.066666667 0
0.5 0.066666667 0
0.53333333 0.066666667 0
0.56666667 0.066666667 0
0.6 0.066666667 0
0.63333333 0.066666667 0
0.66666667 0.066666667 0
0.7 0.066666667 0
0.73333333 0.066666667 0
0.76666667 0.066666667 0
0.8 0.066666667 0
0.83333333 0.066666667 0
0.86666667 0.066666667 0
0.9 0.066666667 0
0.93333333 0.066666667 0
0.96666667 0.066666667 0
1 0.066666667 0
0 0.1 0
0.033333333 0.1 0
0.066666667 0.1 0
0.1 0.1 0
0.13333333 0.1 0
0.16666667 0.1 0
0.2 0.1 0
0.23333333 0.1 0
0.26666667 0.1 0
0.3 0.1 0
0.33333333 0.1 0
0.36666667 0.1 0
0.4 0.1 0
0.43333333 0.1 0
0.46666667 0.1 0
0.5 0.1 0
0.53333333 0.1 0
0.56666667 0.1 0
0.6 0.1 0
0.63333333 0.1 0
0.66666667 0.1 0
0.7 0.1 0
0.73333333 0.1 0
0.76666667 0.1 0
0.8 0.1 0
0.83333333 0.1 0
0.86666667 0.1 0
0.9 0.1 0
0.93333333 0.1 0
0.96666667 0.1 0
1 0.1 0
0 0.13333333 0
0.033333333 0.13333333 0
0.066666667 0.13333333 0
0.1 0.13333333 0
0.13333333 0.13333333 0
0.16666667 0.13333333 0
0.2 0.13333333 0
0.23333333 0.13333333 0
0.26666667 0.13333333 0
0.3 0.13333333 0
0.33333333 0.13333333 0
0.36666667 0.13333333 0
0.4 0.13333333 0
0.43333333 0.13333333 0
0.46666667 0.13333333 0
0.5 0.13333333 0
0.53333333 0.13333333 0
0.56666667 0.13333333 0
0.6 0.13333333 0
0.63333333 0.13333333 0
0.66666667 0.13333333 0
0.7 0.13333333 0
0.73333333 0.13333333 0
0.76666667 0.13333333 0
0.8 0.13333333 0
0.83333333 0.13333333 0
0.86666667 0.13333333 0
0.9 0.13333333 0
0.93333333 0.13333333 0
0.96666667 0.13333333 0
1 0.13333333 0
0 0.16666667 0
0.033333333 0.16666667 0
0.066666667 0.16666667 0
0.1 0.16666667 0
0.13333333 0.16666667 0
0.16666667 0.16666667 0
0.2 0.16666667 0
0.23333333 0.16666667 0
0.26666667 0.16666667 0
0.3 0.16666667 0
0.33333333 0.16666667 0
0.36666667 0.16666667 0
0.4 0.16666667 0
0.43333333 0.16666667 0
0.46666667 0.16666667 0
0.5 0.16666667 0
0.53333333 0.16666667 0
0.56666667 0.16666667 0
0.6 0.16666667 0
0.63333333 0.16666667 0
0.66666667 0.16666667 0
0.7 0.16666667 0
0.73333333 0.16666667 0
0.76666667 0.16666667 0
0.8 0.16666667 0
0.83333333 0.16666667 0
0.86666667 0.16666667 0
0.9 0.16666667 0
0.93333333 0.16666667 0
0.96666667 0.16666667 0
1 0.16666667 0
0 0.2 0
0.033333333 0.2 0
0.066666667 0.2 0
0.1 0.2 0
0.13333333 0.2 0
0.16666667 0.2 0
0.2 0.2 0
0.23333333 0.2 0
0.26666667 0.2 0
0.3 0.2 0
0.33333333 0.2 0
0.36666667 0.2 0
0.4 0.2 0
0.43333333 0.2 0
0.46666667 0.2 0
0.5 0.2 0
0.53333333 0.2 0
0.56666667 0.2 0
0.6 0.2 0
0.63333333 0.2 0
0.66666667 0.2 0
0.7 0.2 0
0.73333333 0.2 0
0.76666667 0.2 0
0.8 0.2 0
0.83333333 0.2 0
0.86666667 0.2 0
0.9 0.2 0
0.93333333 0.2 0
0.96666667 0.2 0
1 0.2 0
0 0.23333333 0
0.033333333 0.23333333 0
0.066666667 0.23333333 0
0.1 0.23333333 0
0.13333333 0.23333333 0
0.16666667 0.23333333 0
0.2 0.23333333 0
0.23333333 0.23333333 0
0.26666667 0.23333333 0
0.3 0.23333333 0
0.33333333 0.23333333 0
0.36666667 0.23333333 0
0.4 0.23333333 0
0.43333333 0.23333333 0
0.46666667 0.23333333 0
0.5 0.23333333 0
0.53333333 0.23333333 0
0.56666667 0.23333333 0
0.6 0.23333333 0
0.63333333 0.23333333 0
0.66666667 0.23333333 0
0.7 0.23333333 0
0.73333333 0.23333333 0
0.76666667 0.23333333 0
0.8 0.23333333 0
0.83333333 0.23333333 0
0.86666667 0.23333333 0
0.9 0.23333333 0
0.93333333 0.23333333 0
0.96666667 0.23333333 0
1 0.23333333 0
0 0.26666667 0
0.033333333 0.26666667 0
0.066666667 0.26666667 0
0.1 0.26666667 0
0.13333333 0.26666667 0
0.16666667 0.26666667 0
0.2 0.26666667 0
0.23333333 0.26666667 0
0.26666667 0.26666667 0
0.3 0.26666667 0
0.33333333 0.26666667 0
0.36666667 0.26666667 0
0.4 0.26666667 0
0.43333333 0.26666667 0
0.46666667 0.26666667 0
0.5 0.26666667 0
0.53333333 0.26666667 0
0.56666667 0.26666667 0
0.6 0.26666667 0
0.63333333 0.26666667 0
0.66666667 0.26666667 0
0.7 0.26666667 0
0.73333333 0.26666667 0
0.76666667 0.26666667 0
0.8 0.26666667 0
0.83333333 0.26666667 0
0.86666667 0.26666667 0
0.9 0.26666667 0
0.93333333 0.26666667 0
0.96666667 0.26666667 0
1 0.26666667 0
0 0.3 0
0.033333333 0.3 0
0.066666667 0.3 0
0.1 0.3 0
0.13333333 0.3 0
0.16666667 0.3 0
0.2 0.3 0
0.23333333 0.3 0
0.26666667 0.3 0
0.3 0.3 0
0.33333333 0.3 0
0.36666667 0.3 0
0.4 0.3 0
0.43333333 0.3 0
0.46666667 0.3 0
0.5 0.3 0
0.53333333 0.3 0
0.56666667 0.3 0
0.6 0.3 0
0.63333333 0.3 0
0.66666667 0.3 0
0.7 0.3 0
0.73333333 0.3 0
0.76666667 0.3 0
0.8 0.3 0
0.83333333 0.3 0
0.86666667 0.3 0
0.9 0.3 0
0.93333333 0.3 0
0.96666667 0.3 0
1 0.3 0
0 0.33333333 0
0.033333333 0.33333333 0
0.066666667 0.33333333 0
0.1 0.33333333 0
0.13333333 0.33333333 0
0.16666667 0.33333333 0
0.2 0.33333333 0
0.23333333 0.33333333 0
0.26666667 0.33333333 0
0.3 0.33333333 0
0.33333333 0.33333333 0
0.36666667 0.33333333 0
0.4 0.33333333 0
0.43333333 0.33333333 0
0.46666667 0.33333333 0
0.5 0.33333333 0
0.53333333 0.33333333 0
0.56666667 0.33333333 0
0.6 0.33333333 0
0.63333333 0.33333333 0
0.66666667 0.33333333 0
0.7 0.33333333 0
0.73333333 0.33333333 0
0.76666667 0.33333333 0
0.8 0.33333333 0
0.83333333 0.33333333 0
0.86666667 0.33333333 0
0.9 0.33333333 0
0.93333333 0.33333333 0
0.96666667 0.33333333 0
1 0.33333333 0
0 0.36666667 0
0.033333333 0.36666667 0
0.066666667 0.36666667 0
0.1 0.36666667 0
0.13333333 0.36666667 0
0.16666667 0.36666667 0
0.2 0.36666667 0
0.23333333 0.36666667 0
0.26666667 0.36666667 0
0.3 0.36666667 0
0.33333333 0.36666667 0
0.36666667 0.36666667 0
0.4 0.36666667 0
0.43333333 0.36666667 0
0.46666667 0.36666667 0
0.5 0.36666667 0
0.53333333 0.36666667 0
0.56666667 0.36666667 0
0.6 0.36666667 0
0.63333333 0.36666667 0
0.66666667 0.36666667 0
0.7 0.36666667 0
0.73333333 0.36666667 0
0.76666667 0.36666667 0
0.8 0.36666667 0
0.83333333 0.36666667 0
0.86666667 0.36666667 0
0.9 0.36666667 0
0.93333333 0.36666667 0
0.96666667 0.36666667 0
1 0.36666667 0
0 0.4 0
0.033333333 0.4 0
0.066666667 0.4 0
0.1 0.4 0
0.13333333 0.4 0
0.16666667 0.4 0
0.2 0.4 0
0.23333333 0.4 0
0.26666667 0.4 0
0.3 0.4 0
0.33333333 0.4 0
0.36666667 0.4 0
0.4 0.4 0
0.43333333 0.4 0
0.46666667 0.4 0
0.5 0.4 0
0.53333333 0.4 0
0.56666667 0.4 0
0.6 0.4 0
0.63333333 0.4 0
0.66666667 0.4 0
0.7 0.4 0
0.73333333 0.4 0
0.76666667 0.4 0
0.8 0.4 0
0.83333333 0.4 0
0.86666667 0.4 0
0.9 0.4 0
0.93333333 0.4 0
0.96666667 0.4 0
1 0.4 0
0 0.43333333 0
0.033333333 0.43333333 0
0.066666667 0.43333333 0
0.1 0.43333333 0
0.13333333 0.43333333 0
0.16666667 0.43333333 0
0.2 0.43333333 0
0.23333333 0.43333333 0
0.26666667 0.43333333 0
0.3 0.43333333 0
0.33333333 0.43333333 0
0.36666667 0.43333333 0
0.4 0.43333333 0
0.43333333 0.43333333 0
0.46666667 0.43333333 0
0.5 0.43333333 0
0.53333333 0.43333333 0
0.56666667 0.43333333 0
0.6 0.43333333 0
0.63333333 0.43333333 0
0.66666667 0.43333333 0
0.7 0.43333333 0
0.73333333 0.43333333 0
0.76666667 0.43333333 0
0.8 0.43333333 0
0.83333333 0.43333333 0
0.86666667 0.43333333 0
0.9 0.43333333 0
0.93333333 0.43333333 0
0.96666667 0.43333333 0
1 0.43333333 0
0 0.46666667 0
0.033333333 0.46666667 0
0.066666667 0.46666667 0
0.1 0.46666667 0
0.13333333 0.46666667 0
0.16666667 0.46666667 0
0.2 0.46666667 0
0.23333333 0.46666667 0
0.26666667 0.46666667 0
0.3 0.46666667 0
0.33333333 0.46666667 0
0.36666667 0.46666667 0
0.4 0.46666667 0
0.43333333 0.46666667 0
0.46666667 0.46666667 0
0.5 0.46666667 0
0.53333333 0.46666667 0
0.56666667 0.46666667 0
0.6 0.46666667 0
0.63333333 0.46666667 0
0.66666667 0.46666667 0
0.7 0.46666667 0
0.73333333 0.46666667 0
0.76666667 0.46666667 0
0.8 0.46666667 0
0.83333333 0.46666667 0
0.86666667 0.46666667 0
0.9 0.46666667 0
0.93333333 0.46666667 0
0.96666667 0.46666667 0
1 0.46666667 0
0 0.5 0
0.033333333 0.5 0
0.066666667 0.5 0
0.1 0.5 0
0.13333333 0.5 0
0.16666667 0.5 0
0.2 0.5 0
0.23333333 0.5 0
0.26666667 0.5 0
0.3 0.5 0
0.33333333 0.5 0
0.36666667 0.5 0
0.4 0.5 0
0.43333333 0.5 0
0.46666667 0.5 0
0.5 0.5 0
0.53333333 0.5 0
0.56666667 0.5 0
0.6 0.5 0
0.63333333 0.5 0
0.66666667 0.5 0
0.7 0.5 0
0.73333333 0.5 0
0.76666667 0.5 0
0.8 0.5 0
0.83333333 0.5 0
0.86666667 0.5 0
0.9 0.5 0
0.93333333 0.5 0
0.96666667 0.5 0
1 0.5 0
0 0.53333333 0
0.033333333 0.53333333 0
0.066666667 0.53333333 0
0.1 0.53333333 0
0.13333333 0.53333333 0
0.16666667 0.53333333 0
0.2 0.53333333 0
0.23333333 0.53333333 0
0.26666667 0.53333333 0
0.3 0.53333333 0
0.33333333 0.53333333 0
0.36666667 0.53333333 0
0.4 0.53333333 0
0.43333333 0.53333333 0
0.46666667 0.53333333 0
0.5 0.53333333 0
0.53333333 0.53333333 0
0.56666667 0.53333333 0
0.6 0.53333333 0
0.63333333 0.53333333 0
0.66666667 0.53333333 0
0.7 0.53333333 0
0.73333333 0.53333333 0
0.76666667 0.53333333 0
[...]
CELL_DATA 1920
Scalars  Label int 1
LOOKUP_TABLE FreeFempp_table
0
0
0
0
0
0
0
0
0
0
0
0
0
0
0
0
0
0
0
0
0
0
0
0
0
0
0
0
0
0
0
0
0
0
0
0
0
0
0
0
0
0
0
0
0
0
0
0
0
0
0
0
0
0
0
0
0
0
0
0
0
0
0
0
0
0
0
0
0
0
0
0
0
0
0
0
0
0
0
0
0
0
0
0
0
0
0
0
0
0
0
0
0
0
0
0
0
0
0
0
0
0
0
0
0
0
0
0
0
0
0
0
0
0
0
0
0
0
0
0
0
0
0
0
0
0
0
0
0
0
0
0
0
0
0
0
0
0
0
0
0
0
0
0
0
0
0
0
0
0
0
0
0
0
0
0
0
0
0
0
0
0
0
0
0
0
0
0
0
0
0
0
0
0
0
0
0
0
0
0
0
0
0
0
0
0
0
0
0
0
0
0
0
0
0
0
0
0
0
0
0
0
0
0
0
0
0
0
0
0
0
0
0
0
0
0
0
0
0
0
0
0
0
0
0
0
0
0
0
0
0
0
0
0
0
0
0
0
0
0
0
0
0
0
0
0
0
0
0
0
0
0
0
0
0
0
0
0
0
0
0
0
0
0
0
0
0
0
0
0
0
0
0
0
0
0
0
0
0
0
0
0
0
0
0
0
0
0
0
0
0
0
0
0
0
0
0
0
0
0
0
0
0
0
0
0
0
0
0
0
0
0
0
0
0
0
0
0
0
0
0
0
0
0
0
0
0
0
0
0
0
0
0
0
0
0
0
0
0
0
0
0
0
0
0
0
0
0
0
0
0
0
0
0
0
0
0
0
0
0
0
0
0
0
0
0
0
0
0
0
0
0
0
0
0
0
0
0
0
0
0
0
0
0
0
0
0
0
0
0
0
0
0
0
0
0
0
0
0
0
0
0
0
0
0
0
0
0
0
0
0
0
0
0
0
0
0
0
0
0
0
0
0
0
0
0
0
0
0
0
0
0
0
0
0
0
0
0
0
0
0
0
0
0
0
0
0
0
0
0
0
0
0
0
0
0
0
0
0
0
0
0
0
0
0
0
0
0
0
0
0
0
0
0
0
0
0
0
0
0
0
0
0
0
0
0
0
0
0
0
0
0
0
0
0
0
0
0
0
0
0
0
0
0
0
0
0
0
0
0
0
0
0
0
0
0
0
0
0
0
0
0
0
0
0
0
0
0
0
0
0
0
0
0
0
0
0
0
0
0
0
0
0
0
0
0
0
0
0
0
0
0
0
0
0
0
0
0
0
0
0
0
0
0
0
0
0
0
0
0
0
0
0
0
0
0
0
0
0
0
0
0
0
0
0
0
0
0
0
0
0
0
0
0
0
0
0
0
0
0
0
0
0
0
0
0
0
0
0
0
0
0
0
0
0
0
0
0
0
0
0
0
0
0
0
0
0
0
0
0
0
0
0
0
0
0
0
0
0
0
0
0
0
0
0
0
0
0
0
0
0
0
0
0
0
0
0
0
0
0
0
0
0
0
0
0
0
0
0
0
0
0
0
0
0
0
0
0
0
0
0
0
0
0
0
0
0
0
0
0
0
0
0
0
0
0
0
0
0
0
0
0
0
0
0
0
0
0
0
0
0
0
0
0
0
0
0
0
0
0
0
0
0
0
0
0
0
0
0
0
0
0
0
0
0
0
0
0
0
0
0
0
0
0
0
0
0
0
0
0
0
0
0
0
0
0
0
0
0
0
0
0
0
0
0
0
0
0
0
0
0
0
0
0
0
0
0
0
0
0
0
0
0
0
0
0
0
0
0
0
0
0
0
0
0
0
0
0
0
0
0
0
0
0
0
0
0
0
0
0
0
0
0
0
0
0
0
0
0
0
0
0
0
0
0
0
0
0
0
0
0
0
0
0
0
0
0
0
0
0
0
0
0
0
0
0
0
0
0
0
0
0
0
0
0
0
0
0
0
0
0
0
0
0
0
0
0
0
0
0
0
0
0
0
0
0
0
0
0
0
0
0
0
0
0
0
0
0
0
0
0
0
0
0
0
0
0
0
0
0
0
0
0
0
0
0
0
0
0
0
0
0
0
0
0
0
0
0
0
0
0
0
0
0
0
0
0
0
0
0
0
0
0
0
0
0
0
0
0
0
0
0
0
0
0
0
0
0
0
0
0
0
0
0
0
0
0
0
0
0
0
0
0
0
0
0
0
0
0
0
0
0
0
0
0
0
0
0
0
0
0
0
0
0
0
0
0
0
0
0
0
0
0
0
0
0
0
0
0
0
0
0
0
0
0
0
0
0
0
0
0
0
0
0
0
0
0
0
0
0
0
0
0
0
0
0
0
0
0
0
0
0
0
0
0
0
0
0
0
0
0
0
0
0
0
0
0
0
0
0
0
0
0
0
0
0
0
0
0
0
0
0
0
0
0
0
0
0
0
0
0
0
0
0
0
0
0
0
0
0
0
0
0
0
0
0
0
0
0
0
0
0
0
0
0
0
0
0
0
0
0
0
0
0
0
0
0
0
0
0
0
0
0
0
0
0
0
0
0
0
0
0
0
0
0
0
0
0
0
0
0
0
0
0
0
0
0
0
0
0
0
0
0
0
0
0
0
0
0
0
0
0
0
0
0
0
0
0
0
0
0
0
0
0
0
0
0
0
0
0
0
0
0
0
0
0
0
0
0
0
0
0
0
0
0
0
0
0
0
0
0
0
0
0
0
0
0
0
0
0
0
0
0
0
0
0
0
0
0
0
0
0
0
0
0
0
0
0
0
0
0
0
0
0
0
0
0
0
0
0
0
0
0
0
0
0
0
0
0
0
0
0
0
0
0
0
0
0
0
0
0
0
0
0
0
0
0
0
0
0
0
0
0
0
0
0
0
0
0
0
0
0
0
0
0
0
0
0
0
0
0
0
0
0
0
0
0
0
0
0
0
0
0
0
0
0
0
0
0
0
0
0
0
0
0
0
0
0
0
0
0
0
0
0
0
0
0
0
0
0
0
0
0
0
0
0
0
0
0
0
0
0
0
0
0
0
0
0
0
0
0
0
0
0
0
0
0
0
0
0
0
0
0
0
0
0
0
0
0
0
0
0
0
0
0
0
0
0
0
0
0
0
0
0
0
0
0
0
0
0
0
0
0
0
0
0
0
0
0
0
0
0
0
0
0
0
0
0
0
0
0
0
0
0
0
0
0
0
0
0
0
0
0
0
0
0
0
0
0
0
0
0
0
0
0
0
0
0
0
0
0
0
0
0
0
0
0
0
0
0
0
0
0
0
0
0
0
0
0
0
0
0
0
0
0
0
0
0
0
0
0
0
0
0
0
0
0
0
0
0
0
0
0
0
0
0
0
0
0
0
0
0
0
0
0
0
0
0
0
0
0
0
0
0
0
0
0
0
0
0
0
0
0
0
0
0
0
0
0
0
0
0
0
0
0
0
0
0
0
0
0
0
0
0
0
0
0
0
0
0
0
0
0
0
0
0
0
0
0
0
0
0
0
0
0
0
0
0
0
0
0
0
0
0
0
0
0
0
0
0
0
0
0
0
0
0
0
0
0
0
0
0
0
0
0
0
0
0
0
0
0
0
0
0
0
0
0
0
0
0
0
0
0
0
0
0
0
0
0
0
0
0
0
0
0
0
0
0
0
0
0
0
0
0
0
0
0
0
0
0
0
0
0
0
0
0
0
0
0
0
0
0
0
0
0
0
0
0
0
0
0
0
0
0
0
0
0
0
0
0
0
0
0
0
0
0
0
0
0
0
0
0
0
0
0
0
0
0
0
0
0
0
0
0
0
0
0
0
0
0
0
0
0
0
0
0
0
0
0
0
0
0
0
0
0
0
0
0
0
0
0
0
0
0
0
0
0
0
0
0
0
0
0
0
0
0
0
0
0
0
0
0
0
0
0
0
0
0
0
0
0
0
0
0
0
0
0
0
0
0
0
0
0
0
0
0
0
0
0
0
0
0
0
0
0
0
0
0
0
0
0
0
0
0
0
0
0
0
0
0
0
0
0
0
0
0
0
0
0
0
0
0
0
0
0
0
0
0
0
0
0
0
0
0
0
0
0
0
0
0
1
1
1
1
1
1
1
1
1
1
1
1
1
1
1
1
1
1
1
1
1
1
1
1
1
1
1
1
1
1
2
2
2
2
2
2
2
2
2
2
2
2
2
2
2
2
2
2
2
2
2
2
2
2
2
2
2
2
2
2
3
3
3
3
3
3
3
3
3
3
3
3
3
3
3
3
3
3
3
3
3
3
3
3
3
3
3
3
3
3
4
4
4
4
4
4
4
4
4
4
4
4
4
4
4
4
4
4
4
4
4
4
4
4
4
4
4
4
4
4

LOOKUP_TABLE FreeFempp_table 5
1.00000000 0.00000000 0.00000000 1.00000000
1.00000000 1.00000000 0.00000000 1.00000000
1.00000000 0.00000000 1.00000000 1.00000000
0.00000000 1.00000000 0.00000000 1.00000000
0.00000000 1.00000000 1.00000000 1.00000000

POINT_DATA 961
FIELD FieldData 1
Density 1 961 float
6.78151011e-01 6.70333207e-01 2.41855577e-01 2.74211197e-04 2.14386120e-04 5.12855651e-04 4.15051192e-01 6.76355243e-01 6.69600070e-01 6.53142869e-01 6.53249741e-01 7.13363826e-01 8.01477909e-01 9.12558615e-01 9.48849738e-01 8.93665552e-01 7.85282612e-01 8.04311633e-01 8.48098755e-01 8.59095395e-01 8.62950981e-01 8.45298231e-01 8.26585054e-01 8.08746338e-01 7.90751815e-01 7.78007984e-01 7.71962702e-01 7.68754303e-01 7.65703082e-01 7.70829141e-01 7.10489571e-01 6.43294334e-01 5.91924489e-01 2.81474292e-01 2.97873630e-04 1.76585439e-04 2.11161052e-04 1.44338578e-01 6.18638933e-01 6.42734230e-01 6.29239082e-01 6.25179768e-01 6.69418693e-01 7.79701054e-01 9.43181872e-01 9.88688409e-01 9.69751358e-01 8.39111984e-01 8.52756083e-01 9.36731040e-01 9.37584460e-01 9.47488129e-01 9.42024589e-01 9.33388710e-01 9.20904696e-01 9.01189208e-01 8.77549350e-01 8.59790266e-01 8.50229919e-01 8.44400048e-01 8.47006977e-01 7.73138762e-01 1.14134957e-04 1.12561691e-04 1.14169146e-04 1.17859068e-04 1.25400024e-04 1.37321054e-04 2.36239663e-04 5.77673376e-01 6.25602424e-01 6.21917605e-01 6.32629395e-01 6.56488776e-01 7.38776684e-01 9.27936554e-01 9.83623207e-01 7.45976985e-01 1.66114625e-02 2.40892097e-02 2.37919465e-01 5.96932113e-01 8.51538718e-01 8.95074546e-01 9.04734194e-01 9.00568426e-01 9.01321650e-01 8.81066442e-01 8.43940198e-01 8.17452192e-01 8.07181478e-01 8.03025424e-01 7.54450381e-01 1.20345387e-04 1.11093650e-04 1.12556663e-04 1.13711198e-04 1.15494258e-04 1.12723508e-04 1.10752284e-04 1.10920875e-04 1.10573084e-04 1.10193439e-04 1.18438962e-04 2.74357852e-04 3.79806906e-01 8.61680388e-01 9.85835373e-01 4.74446714e-01 8.21571506e-04 2.59889639e-04 4.08212683e-04 3.44429078e-04 3.02646193e-04 3.54559510e-04 6.55548589e-04 3.95467971e-03 1.23179480e-01 7.16051340e-01 8.44435453e-01 7.92066932e-01 7.45512187e-01 7.33569324e-01 7.18903899e-01 8.43978114e-03 1.20127690e-03 3.97693366e-04 2.11855571e-04 1.59301926e-04 1.30388609e-04 1.15205912e-04 1.12143316e-04 1.11293062e-04 1.09599998e-04 1.06364671e-04 1.10083405e-04 1.11204419e-04 3.00181477e-04 9.44947541e-01 9.83770370e-01 1.31995173e-03 3.90913599e-04 4.42550489e-04 2.96396844e-04 2.27925586e-04 1.89181243e-04 1.68477665e-04 1.54832684e-04 1.53198213e-04 1.46664635e-04 1.28599443e-02 6.64447367e-01 7.14334905e-01 6.73077106e-01 6.84845567e-01 4.90256190e-01 3.10665399e-01 3.09025645e-01 3.35400194e-01 3.75821650e-01 4.23223823e-01 4.69919980e-01 5.07884324e-01 5.34543633e-01 5.45844555e-01 3.35475110e-04 1.16760151e-04 1.08021472e-04 1.06486004e-04 1.43314392e-04 9.94943976e-01 9.63322580e-01 1.37749629e-03 5.02703711e-03 1.05819339e-03 5.82793436e-04 3.12888616e-04 2.11535909e-04 1.71325883e-04 1.57969247e-04 1.29510910e-04 1.27529056e-04 3.60720651e-03 5.41544080e-01 6.27198756e-01 6.59218669e-01 5.22512615e-01 3.30235630e-01 3.14927250e-01 3.31744015e-01 3.60289276e-01 3.95235389e-01 4.30702597e-01 4.65413779e-01 4.98634815e-01 5.26053488e-01 5.72653651e-01 5.44435978e-01 5.35523057e-01 1.07217282e-04 1.11183661e-04 1.32203553e-04 9.99664009e-01 9.74657476e-01 9.40032490e-03 5.41418120e-02 8.07502568e-02 2.29924634e-01 3.54607612e-01 4.49107736e-01 4.24786389e-01 4.90036383e-02 1.26711559e-04 1.24309590e-04 3.84107884e-03 3.91621292e-01 5.80767691e-01 5.63510060e-01 4.08389717e-01 3.92390370e-01 3.93794805e-01 4.01597261e-01 4.13363844e-01 4.26391423e-01 4.49094415e-01 4.77238923e-01 5.09666204e-01 5.71537316e-01 5.80781043e-01 5.86953521e-01 3.88842076e-01 1.17315540e-04 1.13025933e-04 1.91188243e-04 9.99659181e-01 9.79671836e-01 4.01626557e-01 3.87425005e-01 5.24468362e-01 6.10564530e-01 6.21948838e-01 6.23065531e-01 6.02600694e-01 3.81277293e-01 1.23995866e-04 1.23797741e-04 1.21648246e-02 2.19324961e-01 6.06498182e-01 4.90773618e-01 4.73381311e-01 4.57490534e-01 4.39961135e-01 4.23151791e-01 4.10819471e-01 4.13532525e-01 4.29463089e-01 4.46449459e-01 5.17107248e-01 5.18087626e-01 4.92888480e-01 2.94156522e-01 5.82903216e-04 1.13051457e-04 1.18392272e-04 3.80949706e-01 9.98333633e-01 9.65167820e-01 7.88038254e-01 6.63590670e-01 6.25547588e-01 6.14729226e-01 6.04350448e-01 5.95794380e-01 5.75464964e-01 6.66407577e-04 1.24393904e-04 1.42905745e-04 5.82723767e-02 6.65726900e-01 6.00390315e-01 5.78722179e-01 5.41967392e-01 4.91564929e-01 4.32554692e-01 3.76385599e-01 3.38726103e-01 3.19129914e-01 3.12693417e-01 3.22952151e-01 3.76012534e-01 3.90827835e-01 1.85050726e-01 1.98559929e-03 1.20663339e-04 1.17876974e-04 6.19619561e-04 9.84586358e-01 9.89645004e-01 9.44702268e-01 8.38028431e-01 7.14813471e-01 6.38026118e-01 6.04875505e-01 5.88912249e-01 5.80137253e-01 3.90406072e-01 1.32394445e-04 1.38190982e-04 6.92976564e-02 7.60054588e-01 7.66269803e-01 7.41718948e-01 6.94991052e-01 6.19080126e-01 5.11074781e-01 3.83685112e-01 2.68860400e-01 1.87814206e-01 1.28940046e-01 1.01241685e-01 9.04605165e-02 1.43552080e-01 1.04722582e-01 2.02950952e-03 1.28673651e-04 1.20174504e-04 2.88825162e-04 1.34162679e-01 9.79142070e-01 9.65543628e-01 9.26643968e-01 8.37043583e-01 7.22857475e-01 6.44330621e-01 6.03491366e-01 5.80284715e-01 5.19348383e-01 1.33902766e-04 1.32872476e-04 9.04281214e-02 8.73143911e-01 9.25599635e-01 9.11706507e-01 8.91077518e-01 8.50102305e-01 7.69781590e-01 6.16309226e-01 3.88707876e-01 1.81299821e-01 6.88824356e-02 2.30855010e-02 7.12619862e-03 2.71961023e-03 5.46150655e-03 1.65847898e-03 1.41605473e-04 1.25332983e-04 2.03467047e-04 4.68697622e-02 8.14135373e-01 9.42678034e-01 9.42955613e-01 9.10139859e-01 8.25905323e-01 7.21829534e-01 6.44788146e-01 5.94663322e-01 5.47899961e-01 1.38303891e-04 1.31547728e-04 6.98603864e-04 9.45109904e-01 9.83777344e-01 9.79843915e-01 9.78527188e-01 9.75982845e-01 9.70214009e-01 9.50855792e-01 8.87142122e-01 6.57214403e-01 2.43685722e-01 5.10030985e-02 1.20603917e-02 3.58767598e-03 3.46993003e-03 1.90406025e-03 1.64535173e-04 1.28543557e-04 1.66980186e-04 2.60766186e-02 6.65302515e-01 8.35459590e-01 9.11510885e-01 9.27663267e-01 8.97361398e-01 8.15777540e-01 7.14858711e-01 6.31091237e-01 5.72291732e-01 1.47166036e-04 1.35280483e-04 2.33557585e-04 9.66176510e-01 9.94100630e-01 9.92640018e-01 9.94078636e-01 9.95650411e-01 9.96714771e-01 9.96996343e-01 9.95744467e-01 9.90870833e-01 9.66743231e-01 8.55221093e-01 5.20344138e-01 2.12869331e-01 1.37104377e-01 1.02852853e-02 2.06840094e-04 1.26307816e-04 1.44073289e-04 1.30790379e-02 5.96830428e-01 7.50401080e-01 8.62408161e-01 9.04576659e-01 9.21975911e-01 8.93443525e-01 8.07166696e-01 6.84786260e-01 6.10155284e-01 1.43412341e-04 1.43950398e-04 2.60390720e-04 9.49135721e-01 9.93448019e-01 9.92118239e-01 9.95017052e-01 9.97299433e-01 9.98571098e-01 9.99136090e-01 9.99320984e-01 9.99032378e-01 9.98282015e-01 9.96253550e-01 9.89872396e-01 9.65394914e-01 8.51473570e-01 4.84019667e-01 7.27901235e-04 1.22270532e-04 1.16868883e-04 2.62059388e-03 5.05467713e-01 7.03235447e-01 7.97898889e-01 8.89700770e-01 9.05354440e-01 9.29137290e-01 9.06259894e-01 7.28662252e-01 6.43722892e-01 1.38037140e-04 1.41499622e-04 4.08011721e-03 8.56515110e-01 9.69944477e-01 9.66383338e-01 9.75219786e-01 9.44103956e-01 6.19120479e-01 2.61920244e-01 2.91503727e-01 9.10416424e-01 9.96768594e-01 9.98084009e-01 9.97963428e-01 9.96925950e-01 9.93621409e-01 9.85056996e-01 6.68555260e-01 3.18973413e-04 1.16102849e-04 1.17141579e-04 6.27721660e-03 5.99737704e-01 7.34902918e-01 8.18497777e-01 8.84191930e-01 9.14430141e-01 9.64791656e-01 7.41138816e-01 6.12712502e-01 1.35350943e-04 1.37488707e-04 2.09181204e-01 7.03013420e-01 8.03138793e-01 7.13310897e-01 1.66288942e-01 1.15644271e-02 2.96802889e-03 1.97420362e-03 2.97505199e-03 2.12966371e-02 5.35802424e-01 9.77578998e-01 9.95260656e-01 9.97214198e-01 9.97375607e-01 9.97180283e-01 9.96597290e-01 8.78576636e-01 3.56903038e-04 1.16637122e-04 1.18389318e-04 2.63688620e-04 3.00116181e-01 6.59936309e-01 7.35995471e-01 7.52693772e-01 2.16908418e-02 2.28640988e-01 5.32922745e-01 1.33462687e-04 1.34635382e-04 5.67585170e-01 6.21007085e-01 5.36325395e-01 6.41611293e-02 3.10568907e-03 1.04723079e-03 8.19704845e-04 1.02908479e-03 1.60915032e-03 5.58070187e-03 1.44139230e-01 7.42497385e-01 9.46120441e-01 9.85132933e-01 9.93993282e-01 9.96526003e-01 9.97861683e-01 9.98421967e-01 9.89196956e-01 1.45529245e-03 1.23577964e-04 1.27846928e-04 1.39260315e-04 1.68101891e-04 3.13052442e-04 7.83545489e-04 1.26993598e-03 1.06163765e-03 9.98468876e-01 1.33481954e-04 1.33306909e-04 6.87873006e-01 6.01563394e-01 4.07723486e-01 2.74151447e-03 6.79785502e-04 5.23046358e-04 6.04424684e-04 1.13412319e-03 4.60449746e-03 8.31948817e-02 3.58959079e-01 6.09417021e-01 7.82038629e-01 9.02134776e-01 9.61552620e-01 9.85659301e-01 9.94259477e-01 9.97507811e-01 9.98538673e-01 9.97784078e-01 2.98420638e-01 1.66949685e-04 1.44551479e-04 1.43935322e-04 1.61060525e-04 2.02435418e-04 2.91334261e-04 9.72491165e-04 9.98401284e-01 1.35816634e-04 1.33454945e-04 6.94749236e-01 5.92193544e-01 2.50232846e-01 5.21461421e-04 3.85635358e-04 4.07828018e-04 8.22282862e-04 4.21642745e-03 1.24427617e-01 3.88470113e-01 5.19218683e-01 5.82528651e-01 6.57609403e-01 7.60057628e-01 8.51846039e-01 9.21661079e-01 9.67813492e-01 9.88197207e-01 9.95183647e-01 9.97401834e-01 9.98617887e-01 9.97287154e-01 7.78191626e-01 1.88719144e-03 2.78601801e-04 2.25680866e-04 2.37282482e-04 7.33642431e-04 9.99941289e-01 1.39555428e-04 1.35159644e-04 6.74262106e-01 5.84305763e-01 1.25887142e-02 2.57815904e-04 2.74540827e-04 4.63051547e-04 2.49671843e-03 1.03439547e-01 4.21747655e-01 5.35671890e-01 5.59329271e-01 5.70935428e-01 6.03593051e-01 6.61416829e-01 7.33490407e-01 7.98578680e-01 8.72172773e-01 9.38145995e-01 9.71642315e-01 9.84644234e-01 9.92302895e-01 9.95452404e-01 9.97733355e-01 9.97478485e-01 9.96007740e-01 9.89538610e-01 5.94133258e-01 2.93612899e-03 9.99942839e-01 1.44507998e-04 1.38845659e-04 6.57086492e-01 5.85794151e-01 5.77419647e-04 2.11602761e-04 2.17377266e-04 1.00052089e-03 5.97817414e-02 4.19888139e-01 5.60930014e-01 5.85846245e-01 5.78589678e-01 5.76166511e-01 5.90994895e-01 6.23117149e-01 6.72085643e-01 7.18882322e-01 7.56411731e-01 8.41318071e-01 9.13928270e-01 9.40418482e-01 9.47314203e-01 9.49257076e-01 9.66218054e-01 9.81015801e-01 9.81400490e-01 9.71264124e-01 9.12742317e-01 6.52426422e-01 9.99837160e-01 1.49698186e-04 1.43747573e-04 6.46667898e-01 5.89781523e-01 2.19191919e-04 2.10232785e-04 2.25661381e-04 7.05142366e-03 3.77134681e-01 5.76609850e-01 6.14443898e-01 6.08499587e-01 5.95562637e-01 5.90134859e-01 5.96678495e-01 6.16044164e-01 6.51409209e-01 6.84346855e-01 7.06332505e-01 7.50488162e-01 8.58614385e-01 9.19025302e-01 9.14470673e-01 8.73636663e-01 7.82260835e-01 7.51300931e-01 8.16462278e-01 8.69501352e-01 9.48975086e-01 9.96246099e-01 9.99516070e-01 1.55888978e-04 1.49591782e-04 6.50572598e-01 4.22548711e-01 1.65026795e-04 1.82741118e-04 3.52239498e-04 2.04664260e-01 5.94095528e-01 6.37003899e-01 6.36193752e-01 6.21007562e-01 6.07313514e-01 6.00934446e-01 6.02598548e-01 6.13243759e-01 6.36323273e-01 6.54883981e-01 6.63676023e-01 7.05577672e-01 8.02254319e-01 9.01813388e-01 9.23693597e-01 8.78117800e-01 7.25706339e-01 6.01509094e-01 6.95115864e-01 9.40757871e-01 9.94618177e-01 9.98548746e-01 9.97563422e-01 1.69021223e-04 1.59507254e-04 6.83743954e-01 1.68080186e-03 1.54216366e-04 1.56869311e-04 1.29751663e-03 5.23592293e-01 6.61056161e-01 6.60741806e-01 6.42880559e-01 6.24324024e-01 6.09901726e-01 6.01562262e-01 5.98575950e-01 6.01329148e-01 6.13352478e-01 6.25114441e-01 6.21873498e-01 6.47845864e-01 7.56605327e-01 8.85419667e-01 9.35022950e-01 9.14752662e-01 8.69189322e-01 8.81671786e-01 9.74622190e-01 9.95873749e-01 9.98677194e-01 9.98643279e-01 3.23474233e-04 1.70374144e-04 1.70842497e-04 6.99729860e-01 2.12316008e-04 1.61993696e-04 1.56820402e-04 3.40885259e-02 6.75853133e-01 6.81300759e-01 6.60689354e-01 6.37317419e-01 6.17585301e-01 6.01842880e-01 5.90107858e-01 5.81363499e-01 5.75689077e-01 5.76948047e-01 5.85935354e-01 5.88553846e-01 5.99653840e-01 6.99904442e-01 8.68901193e-01 9.58018124e-01 9.77469325e-01 9.84485090e-01 9.90557611e-01 9.97624099e-01 9.98356819e-01 9.02849853e-01 2.64235161e-04 1.93672779e-04 1.95383618e-04 2.00262250e-04 6.98617399e-01 1.48232866e-04 1.61676318e-04 1.92853913e-04 5.03814042e-01 7.12500453e-01 6.75402880e-01 6.42070949e-01 6.19337380e-01 6.00893617e-01 5.84097922e-01 5.67789733e-01 5.51131129e-01 5.34473896e-01 5.22653401e-01 5.25467515e-01 5.45618534e-01 5.75734913e-01 6.53890252e-01 8.32039416e-01 9.61665809e-01 9.91445899e-01 9.96124864e-01 9.83549237e-01 8.51762423e-04 4.17713105e-04 3.89097753e-04 2.31576982e-04 1.91261279e-04 2.27287528e-04 6.71827176e-04 7.10431993e-01 1.35081398e-04 1.41750032e-04 5.09716687e-04 6.65409088e-01 6.93031549e-01 6.47095323e-01 6.14974618e-01 5.95434189e-01 5.78976274e-01 5.60638487e-01 5.38134634e-01 5.10592163e-01 4.78763759e-01 4.48438972e-01 4.35651511e-01 4.63746250e-01 5.37905037e-01 6.39147758e-01 7.78860509e-01 9.27955091e-01 9.87953961e-01 9.96923029e-01 9.96256649e-01 2.59178311e-01 8.58724758e-04 4.62672790e-04 3.22209671e-04 3.46445508e-04 8.56571198e-02 9.60885048e-01 8.50596309e-01 1.30281449e-04 1.32785572e-04 1.05806820e-01 7.39082217e-01 6.53761148e-01 6.09446406e-01 5.86793542e-01 5.72783530e-01 5.58297217e-01 5.37666380e-01 5.07928729e-01 4.68420208e-01 4.20558125e-01 3.70525122e-01 3.35379869e-01 3.46263319e-01 4.37343955e-01 5.95062912e-01 7.37880528e-01 8.47592831e-01 9.41623807e-01 9.86352146e-01 9.95883167e-01 9.87719893e-01 6.20761454e-01 4.78778213e-01 9.89234507e-01 9.95149076e-01 9.97066438e-01 9.97112393e-01 9.71973002e-01 1.20862038e-04 1.30870874e-04 7.11387396e-01 6.65708184e-01 6.08065307e-01 5.79059660e-01 5.66287220e-01 5.55063903e-01 5.38618445e-01 5.11067688e-01 4.68227923e-01 4.09441113e-01 3.38755339e-01 2.65869915e-01 2.07146972e-01 1.83631286e-01 2.23168075e-01 3.72077465e-01 6.15448117e-01 8.03496182e-01 8.95350814e-01 9.39680338e-01 9.68121946e-01 9.86682355e-01 9.94415104e-01 9.97691393e-01 9.98188853e-01 9.95488167e-01 9.90418673e-01 9.90143836e-01 9.68964696e-01 1.21422949e-04 1.29309439e-04 7.94394135e-01 6.53093278e-01 6.44175768e-01 6.32280946e-01 6.24765158e-01 6.18168116e-01 6.08709574e-01 5.92366695e-01 5.65218568e-01 5.24496555e-01 4.69620615e-01 4.03422982e-01 3.35631579e-01 2.87355512e-01 2.88814396e-01 3.73737335e-01 5.50527871e-01 7.32085705e-01 8.33500624e-01 8.62118423e-01 8.32051158e-01 7.65890777e-01 7.87517011e-01 8.95459414e-01 9.40867662e-01 9.29112434e-01 8.90503466e-01 8.64185750e-01 8.47523808e-01 
