# vtk DataFile Version 2.0
results_case1_non_linear/7_density.vtk, Created by Freefem++ 
ASCII
DATASET UNSTRUCTURED_GRID
POINTS 961 float
0 0 0
0.033333333 0 0
0.066666667 0 0
0.1 0 0
0.13333333 0 0
0.16666667 0 0
0.2 0 0
0.23333333 0 0
0.26666667 0 0
0.3 0 0
0.33333333 0 0
0.36666667 0 0
0.4 0 0
0.43333333 0 0
0.46666667 0 0
0.5 0 0
0.53333333 0 0
0.56666667 0 0
0.6 0 0
0.63333333 0 0
0.66666667 0 0
0.7 0 0
0.73333333 0 0
0.76666667 0 0
0.8 0 0
0.83333333 0 0
0.86666667 0 0
0.9 0 0
0.93333333 0 0
0.96666667 0 0
1 0 0
0 0.033333333 0
0.033333333 0.033333333 0
0.066666667 0.033333333 0
0.1 0.033333333 0
0.13333333 0.033333333 0
0.16666667 0.033333333 0
0.2 0.033333333 0
0.23333333 0.033333333 0
0.26666667 0.033333333 0
0.3 0.033333333 0
0.33333333 0.033333333 0
0.36666667 0.033333333 0
0.4 0.033333333 0
0.43333333 0.033333333 0
0.46666667 0.033333333 0
0.5 0.033333333 0
0.53333333 0.033333333 0
0.56666667 0.033333333 0
0.6 0.033333333 0
0.63333333 0.033333333 0
0.66666667 0.033333333 0
0.7 0.033333333 0
0.73333333 0.033333333 0
0.76666667 0.033333333 0
0.8 0.033333333 0
0.83333333 0.033333333 0
0.86666667 0.033333333 0
0.9 0.033333333 0
0.93333333 0.033333333 0
0.96666667 0.033333333 0
1 0.033333333 0
0 0.066666667 0
0.033333333 0.066666667 0
0.066666667 0.066666667 0
0.1 0.066666667 0
0.13333333 0.066666667 0
0.16666667 0.066666667 0
0.2 0.066666667 0
0.23333333 0.066666667 0
0.26666667 0.066666667 0
0.3 0.066666667 0
0.33333333 0.066666667 0
0.36666667 0.066666667 0
0.4 0.066666667 0
0.43333333 0.066666667 0
0.46666667 0.066666667 0
0.5 0.066666667 0
0.53333333 0.066666667 0
0.56666667 0.066666667 0
0.6 0.066666667 0
0.63333333 0.066666667 0
0.66666667 0.066666667 0
0.7 0.066666667 0
0.73333333 0.066666667 0
0.76666667 0.066666667 0
0.8 0.066666667 0
0.83333333 0.066666667 0
0.86666667 0.066666667 0
0.9 0.066666667 0
0.93333333 0.066666667 0
0.96666667 0.066666667 0
1 0.066666667 0
0 0.1 0
0.033333333 0.1 0
0.066666667 0.1 0
0.1 0.1 0
0.13333333 0.1 0
0.16666667 0.1 0
0.2 0.1 0
0.23333333 0.1 0
0.26666667 0.1 0
0.3 0.1 0
0.33333333 0.1 0
0.36666667 0.1 0
0.4 0.1 0
0.43333333 0.1 0
0.46666667 0.1 0
0.5 0.1 0
0.53333333 0.1 0
0.56666667 0.1 0
0.6 0.1 0
0.63333333 0.1 0
0.66666667 0.1 0
0.7 0.1 0
0.73333333 0.1 0
0.76666667 0.1 0
0.8 0.1 0
0.83333333 0.1 0
0.86666667 0.1 0
0.9 0.1 0
0.93333333 0.1 0
0.96666667 0.1 0
1 0.1 0
0 0.13333333 0
0.033333333 0.13333333 0
0.066666667 0.13333333 0
0.1 0.13333333 0
0.13333333 0.13333333 0
0.16666667 0.13333333 0
0.2 0.13333333 0
0.23333333 0.13333333 0
0.26666667 0.13333333 0
0.3 0.13333333 0
0.33333333 0.13333333 0
0.36666667 0.13333333 0
0.4 0.13333333 0
0.43333333 0.13333333 0
0.46666667 0.13333333 0
0.5 0.13333333 0
0.53333333 0.13333333 0
0.56666667 0.13333333 0
0.6 0.13333333 0
0.63333333 0.13333333 0
0.66666667 0.13333333 0
0.7 0.13333333 0
0.73333333 0.13333333 0
0.76666667 0.13333333 0
0.8 0.13333333 0
0.83333333 0.13333333 0
0.86666667 0.13333333 0
0.9 0.13333333 0
0.93333333 0.13333333 0
0.96666667 0.13333333 0
1 0.13333333 0
0 0.16666667 0
0.033333333 0.16666667 0
0.066666667 0.16666667 0
0.1 0.16666667 0
0.13333333 0.16666667 0
0.16666667 0.16666667 0
0.2 0.16666667 0
0.23333333 0.16666667 0
0.26666667 0.16666667 0
0.3 0.16666667 0
0.33333333 0.16666667 0
0.36666667 0.16666667 0
0.4 0.16666667 0
0.43333333 0.16666667 0
0.46666667 0.16666667 0
0.5 0.16666667 0
0.53333333 0.16666667 0
0.56666667 0.16666667 0
0.6 0.16666667 0
0.63333333 0.16666667 0
0.66666667 0.16666667 0
0.7 0.16666667 0
0.73333333 0.16666667 0
0.76666667 0.16666667 0
0.8 0.16666667 0
0.83333333 0.16666667 0
0.86666667 0.16666667 0
0.9 0.16666667 0
0.93333333 0.16666667 0
0.96666667 0.16666667 0
1 0.16666667 0
0 0.2 0
0.033333333 0.2 0
0.066666667 0.2 0
0.1 0.2 0
0.13333333 0.2 0
0.16666667 0.2 0
0.2 0.2 0
0.23333333 0.2 0
0.26666667 0.2 0
0.3 0.2 0
0.33333333 0.2 0
0.36666667 0.2 0
0.4 0.2 0
0.43333333 0.2 0
0.46666667 0.2 0
0.5 0.2 0
0.53333333 0.2 0
0.56666667 0.2 0
0.6 0.2 0
0.63333333 0.2 0
0.66666667 0.2 0
0.7 0.2 0
0.73333333 0.2 0
0.76666667 0.2 0
0.8 0.2 0
0.83333333 0.2 0
0.86666667 0.2 0
0.9 0.2 0
0.93333333 0.2 0
0.96666667 0.2 0
1 0.2 0
0 0.23333333 0
0.033333333 0.23333333 0
0.066666667 0.23333333 0
0.1 0.23333333 0
0.13333333 0.23333333 0
0.16666667 0.23333333 0
0.2 0.23333333 0
0.23333333 0.23333333 0
0.26666667 0.23333333 0
0.3 0.23333333 0
0.33333333 0.23333333 0
0.36666667 0.23333333 0
0.4 0.23333333 0
0.43333333 0.23333333 0
0.46666667 0.23333333 0
0.5 0.23333333 0
0.53333333 0.23333333 0
0.56666667 0.23333333 0
0.6 0.23333333 0
0.63333333 0.23333333 0
0.66666667 0.23333333 0
0.7 0.23333333 0
0.73333333 0.23333333 0
0.76666667 0.23333333 0
0.8 0.23333333 0
0.83333333 0.23333333 0
0.86666667 0.23333333 0
0.9 0.23333333 0
0.93333333 0.23333333 0
0.96666667 0.23333333 0
1 0.23333333 0
0 0.26666667 0
0.033333333 0.26666667 0
0.066666667 0.26666667 0
0.1 0.26666667 0
0.13333333 0.26666667 0
0.16666667 0.26666667 0
0.2 0.26666667 0
0.23333333 0.26666667 0
0.26666667 0.26666667 0
0.3 0.26666667 0
0.33333333 0.26666667 0
0.36666667 0.26666667 0
0.4 0.26666667 0
0.43333333 0.26666667 0
0.46666667 0.26666667 0
0.5 0.26666667 0
0.53333333 0.26666667 0
0.56666667 0.26666667 0
0.6 0.26666667 0
0.63333333 0.26666667 0
0.66666667 0.26666667 0
0.7 0.26666667 0
0.73333333 0.26666667 0
0.76666667 0.26666667 0
0.8 0.26666667 0
0.83333333 0.26666667 0
0.86666667 0.26666667 0
0.9 0.26666667 0
0.93333333 0.26666667 0
0.96666667 0.26666667 0
1 0.26666667 0
0 0.3 0
0.033333333 0.3 0
0.066666667 0.3 0
0.1 0.3 0
0.13333333 0.3 0
0.16666667 0.3 0
0.2 0.3 0
0.23333333 0.3 0
0.26666667 0.3 0
0.3 0.3 0
0.33333333 0.3 0
0.36666667 0.3 0
0.4 0.3 0
0.43333333 0.3 0
0.46666667 0.3 0
0.5 0.3 0
0.53333333 0.3 0
0.56666667 0.3 0
0.6 0.3 0
0.63333333 0.3 0
0.66666667 0.3 0
0.7 0.3 0
0.73333333 0.3 0
0.76666667 0.3 0
0.8 0.3 0
0.83333333 0.3 0
0.86666667 0.3 0
0.9 0.3 0
0.93333333 0.3 0
0.96666667 0.3 0
1 0.3 0
0 0.33333333 0
0.033333333 0.33333333 0
0.066666667 0.33333333 0
0.1 0.33333333 0
0.13333333 0.33333333 0
0.16666667 0.33333333 0
0.2 0.33333333 0
0.23333333 0.33333333 0
0.26666667 0.33333333 0
0.3 0.33333333 0
0.33333333 0.33333333 0
0.36666667 0.33333333 0
0.4 0.33333333 0
0.43333333 0.33333333 0
0.46666667 0.33333333 0
0.5 0.33333333 0
0.53333333 0.33333333 0
0.56666667 0.33333333 0
0.6 0.33333333 0
0.63333333 0.33333333 0
0.66666667 0.33333333 0
0.7 0.33333333 0
0.73333333 0.33333333 0
0.76666667 0.33333333 0
0.8 0.33333333 0
0.83333333 0.33333333 0
0.86666667 0.33333333 0
0.9 0.33333333 0
0.93333333 0.33333333 0
0.96666667 0.33333333 0
1 0.33333333 0
0 0.36666667 0
0.033333333 0.36666667 0
0.066666667 0.36666667 0
0.1 0.36666667 0
0.13333333 0.36666667 0
0.16666667 0.36666667 0
0.2 0.36666667 0
0.23333333 0.36666667 0
0.26666667 0.36666667 0
0.3 0.36666667 0
0.33333333 0.36666667 0
0.36666667 0.36666667 0
0.4 0.36666667 0
0.43333333 0.36666667 0
0.46666667 0.36666667 0
0.5 0.36666667 0
0.53333333 0.36666667 0
0.56666667 0.36666667 0
0.6 0.36666667 0
0.63333333 0.36666667 0
0.66666667 0.36666667 0
0.7 0.36666667 0
0.73333333 0.36666667 0
0.76666667 0.36666667 0
0.8 0.36666667 0
0.83333333 0.36666667 0
0.86666667 0.36666667 0
0.9 0.36666667 0
0.93333333 0.36666667 0
0.96666667 0.36666667 0
1 0.36666667 0
0 0.4 0
0.033333333 0.4 0
0.066666667 0.4 0
0.1 0.4 0
0.13333333 0.4 0
0.16666667 0.4 0
0.2 0.4 0
0.23333333 0.4 0
0.26666667 0.4 0
0.3 0.4 0
0.33333333 0.4 0
0.36666667 0.4 0
0.4 0.4 0
0.43333333 0.4 0
0.46666667 0.4 0
0.5 0.4 0
0.53333333 0.4 0
0.56666667 0.4 0
0.6 0.4 0
0.63333333 0.4 0
0.66666667 0.4 0
0.7 0.4 0
0.73333333 0.4 0
0.76666667 0.4 0
0.8 0.4 0
0.83333333 0.4 0
0.86666667 0.4 0
0.9 0.4 0
0.93333333 0.4 0
0.96666667 0.4 0
1 0.4 0
0 0.43333333 0
0.033333333 0.43333333 0
0.066666667 0.43333333 0
0.1 0.43333333 0
0.13333333 0.43333333 0
0.16666667 0.43333333 0
0.2 0.43333333 0
0.23333333 0.43333333 0
0.26666667 0.43333333 0
0.3 0.43333333 0
0.33333333 0.43333333 0
0.36666667 0.43333333 0
0.4 0.43333333 0
0.43333333 0.43333333 0
0.46666667 0.43333333 0
0.5 0.43333333 0
0.53333333 0.43333333 0
0.56666667 0.43333333 0
0.6 0.43333333 0
0.63333333 0.43333333 0
0.66666667 0.43333333 0
0.7 0.43333333 0
0.73333333 0.43333333 0
0.76666667 0.43333333 0
0.8 0.43333333 0
0.83333333 0.43333333 0
0.86666667 0.43333333 0
0.9 0.43333333 0
0.93333333 0.43333333 0
0.96666667 0.43333333 0
1 0.43333333 0
0 0.46666667 0
0.033333333 0.46666667 0
0.066666667 0.46666667 0
0.1 0.46666667 0
0.13333333 0.46666667 0
0.16666667 0.46666667 0
0.2 0.46666667 0
0.23333333 0.46666667 0
0.26666667 0.46666667 0
0.3 0.46666667 0
0.33333333 0.46666667 0
0.36666667 0.46666667 0
0.4 0.46666667 0
0.43333333 0.46666667 0
0.46666667 0.46666667 0
0.5 0.46666667 0
0.53333333 0.46666667 0
0.56666667 0.46666667 0
0.6 0.46666667 0
0.63333333 0.46666667 0
0.66666667 0.46666667 0
0.7 0.46666667 0
0.73333333 0.46666667 0
0.76666667 0.46666667 0
0.8 0.46666667 0
0.83333333 0.46666667 0
0.86666667 0.46666667 0
0.9 0.46666667 0
0.93333333 0.46666667 0
0.96666667 0.46666667 0
1 0.46666667 0
0 0.5 0
0.033333333 0.5 0
0.066666667 0.5 0
0.1 0.5 0
0.13333333 0.5 0
0.16666667 0.5 0
0.2 0.5 0
0.23333333 0.5 0
0.26666667 0.5 0
0.3 0.5 0
0.33333333 0.5 0
0.36666667 0.5 0
0.4 0.5 0
0.43333333 0.5 0
0.46666667 0.5 0
0.5 0.5 0
0.53333333 0.5 0
0.56666667 0.5 0
0.6 0.5 0
0.63333333 0.5 0
0.66666667 0.5 0
0.7 0.5 0
0.73333333 0.5 0
0.76666667 0.5 0
0.8 0.5 0
0.83333333 0.5 0
0.86666667 0.5 0
0.9 0.5 0
0.93333333 0.5 0
0.96666667 0.5 0
1 0.5 0
0 0.53333333 0
0.033333333 0.53333333 0
0.066666667 0.53333333 0
0.1 0.53333333 0
0.13333333 0.53333333 0
0.16666667 0.53333333 0
0.2 0.53333333 0
0.23333333 0.53333333 0
0.26666667 0.53333333 0
0.3 0.53333333 0
0.33333333 0.53333333 0
0.36666667 0.53333333 0
0.4 0.53333333 0
0.43333333 0.53333333 0
0.46666667 0.53333333 0
0.5 0.53333333 0
0.53333333 0.53333333 0
0.56666667 0.53333333 0
0.6 0.53333333 0
0.63333333 0.53333333 0
0.66666667 0.53333333 0
0.7 0.53333333 0
0.73333333 0.53333333 0
0.76666667 0.53333333 0
[...]
CELL_DATA 1920
Scalars  Label int 1
LOOKUP_TABLE FreeFempp_table
0
0
0
0
0
0
0
0
0
0
0
0
0
0
0
0
0
0
0
0
0
0
0
0
0
0
0
0
0
0
0
0
0
0
0
0
0
0
0
0
0
0
0
0
0
0
0
0
0
0
0
0
0
0
0
0
0
0
0
0
0
0
0
0
0
0
0
0
0
0
0
0
0
0
0
0
0
0
0
0
0
0
0
0
0
0
0
0
0
0
0
0
0
0
0
0
0
0
0
0
0
0
0
0
0
0
0
0
0
0
0
0
0
0
0
0
0
0
0
0
0
0
0
0
0
0
0
0
0
0
0
0
0
0
0
0
0
0
0
0
0
0
0
0
0
0
0
0
0
0
0
0
0
0
0
0
0
0
0
0
0
0
0
0
0
0
0
0
0
0
0
0
0
0
0
0
0
0
0
0
0
0
0
0
0
0
0
0
0
0
0
0
0
0
0
0
0
0
0
0
0
0
0
0
0
0
0
0
0
0
0
0
0
0
0
0
0
0
0
0
0
0
0
0
0
0
0
0
0
0
0
0
0
0
0
0
0
0
0
0
0
0
0
0
0
0
0
0
0
0
0
0
0
0
0
0
0
0
0
0
0
0
0
0
0
0
0
0
0
0
0
0
0
0
0
0
0
0
0
0
0
0
0
0
0
0
0
0
0
0
0
0
0
0
0
0
0
0
0
0
0
0
0
0
0
0
0
0
0
0
0
0
0
0
0
0
0
0
0
0
0
0
0
0
0
0
0
0
0
0
0
0
0
0
0
0
0
0
0
0
0
0
0
0
0
0
0
0
0
0
0
0
0
0
0
0
0
0
0
0
0
0
0
0
0
0
0
0
0
0
0
0
0
0
0
0
0
0
0
0
0
0
0
0
0
0
0
0
0
0
0
0
0
0
0
0
0
0
0
0
0
0
0
0
0
0
0
0
0
0
0
0
0
0
0
0
0
0
0
0
0
0
0
0
0
0
0
0
0
0
0
0
0
0
0
0
0
0
0
0
0
0
0
0
0
0
0
0
0
0
0
0
0
0
0
0
0
0
0
0
0
0
0
0
0
0
0
0
0
0
0
0
0
0
0
0
0
0
0
0
0
0
0
0
0
0
0
0
0
0
0
0
0
0
0
0
0
0
0
0
0
0
0
0
0
0
0
0
0
0
0
0
0
0
0
0
0
0
0
0
0
0
0
0
0
0
0
0
0
0
0
0
0
0
0
0
0
0
0
0
0
0
0
0
0
0
0
0
0
0
0
0
0
0
0
0
0
0
0
0
0
0
0
0
0
0
0
0
0
0
0
0
0
0
0
0
0
0
0
0
0
0
0
0
0
0
0
0
0
0
0
0
0
0
0
0
0
0
0
0
0
0
0
0
0
0
0
0
0
0
0
0
0
0
0
0
0
0
0
0
0
0
0
0
0
0
0
0
0
0
0
0
0
0
0
0
0
0
0
0
0
0
0
0
0
0
0
0
0
0
0
0
0
0
0
0
0
0
0
0
0
0
0
0
0
0
0
0
0
0
0
0
0
0
0
0
0
0
0
0
0
0
0
0
0
0
0
0
0
0
0
0
0
0
0
0
0
0
0
0
0
0
0
0
0
0
0
0
0
0
0
0
0
0
0
0
0
0
0
0
0
0
0
0
0
0
0
0
0
0
0
0
0
0
0
0
0
0
0
0
0
0
0
0
0
0
0
0
0
0
0
0
0
0
0
0
0
0
0
0
0
0
0
0
0
0
0
0
0
0
0
0
0
0
0
0
0
0
0
0
0
0
0
0
0
0
0
0
0
0
0
0
0
0
0
0
0
0
0
0
0
0
0
0
0
0
0
0
0
0
0
0
0
0
0
0
0
0
0
0
0
0
0
0
0
0
0
0
0
0
0
0
0
0
0
0
0
0
0
0
0
0
0
0
0
0
0
0
0
0
0
0
0
0
0
0
0
0
0
0
0
0
0
0
0
0
0
0
0
0
0
0
0
0
0
0
0
0
0
0
0
0
0
0
0
0
0
0
0
0
0
0
0
0
0
0
0
0
0
0
0
0
0
0
0
0
0
0
0
0
0
0
0
0
0
0
0
0
0
0
0
0
0
0
0
0
0
0
0
0
0
0
0
0
0
0
0
0
0
0
0
0
0
0
0
0
0
0
0
0
0
0
0
0
0
0
0
0
0
0
0
0
0
0
0
0
0
0
0
0
0
0
0
0
0
0
0
0
0
0
0
0
0
0
0
0
0
0
0
0
0
0
0
0
0
0
0
0
0
0
0
0
0
0
0
0
0
0
0
0
0
0
0
0
0
0
0
0
0
0
0
0
0
0
0
0
0
0
0
0
0
0
0
0
0
0
0
0
0
0
0
0
0
0
0
0
0
0
0
0
0
0
0
0
0
0
0
0
0
0
0
0
0
0
0
0
0
0
0
0
0
0
0
0
0
0
0
0
0
0
0
0
0
0
0
0
0
0
0
0
0
0
0
0
0
0
0
0
0
0
0
0
0
0
0
0
0
0
0
0
0
0
0
0
0
0
0
0
0
0
0
0
0
0
0
0
0
0
0
0
0
0
0
0
0
0
0
0
0
0
0
0
0
0
0
0
0
0
0
0
0
0
0
0
0
0
0
0
0
0
0
0
0
0
0
0
0
0
0
0
0
0
0
0
0
0
0
0
0
0
0
0
0
0
0
0
0
0
0
0
0
0
0
0
0
0
0
0
0
0
0
0
0
0
0
0
0
0
0
0
0
0
0
0
0
0
0
0
0
0
0
0
0
0
0
0
0
0
0
0
0
0
0
0
0
0
0
0
0
0
0
0
0
0
0
0
0
0
0
0
0
0
0
0
0
0
0
0
0
0
0
0
0
0
0
0
0
0
0
0
0
0
0
0
0
0
0
0
0
0
0
0
0
0
0
0
0
0
0
0
0
0
0
0
0
0
0
0
0
0
0
0
0
0
0
0
0
0
0
0
0
0
0
0
0
0
0
0
0
0
0
0
0
0
0
0
0
0
0
0
0
0
0
0
0
0
0
0
0
0
0
0
0
0
0
0
0
0
0
0
0
0
0
0
0
0
0
0
0
0
0
0
0
0
0
0
0
0
0
0
0
0
0
0
0
0
0
0
0
0
0
0
0
0
0
0
0
0
0
0
0
0
0
0
0
0
0
0
0
0
0
0
0
0
0
0
0
0
0
0
0
0
0
0
0
0
0
0
0
0
0
0
0
0
0
0
0
0
0
0
0
0
0
0
0
0
0
0
0
0
0
0
0
0
0
0
0
0
0
0
0
0
0
0
0
0
0
0
0
0
0
0
0
0
0
0
0
0
0
0
0
0
0
0
0
0
0
0
0
0
0
0
0
0
0
0
0
0
0
0
0
0
0
0
0
0
0
0
0
0
0
0
0
0
0
0
0
0
0
0
0
0
0
0
0
0
0
0
0
0
0
0
0
0
0
0
0
0
0
0
0
0
0
0
0
0
0
0
0
0
0
0
0
0
0
0
0
0
0
0
0
0
0
0
0
0
0
0
0
0
0
0
0
0
0
0
0
0
0
0
0
0
0
0
0
0
0
0
0
0
0
0
0
0
0
0
0
0
0
0
0
0
0
0
0
0
0
0
0
0
0
0
0
0
0
0
0
0
0
0
0
0
0
0
0
0
0
0
0
0
0
0
0
0
0
0
0
0
0
0
0
0
0
0
0
0
0
0
0
0
0
0
0
0
0
0
0
0
0
0
0
0
0
0
0
0
0
0
0
0
0
0
0
0
0
0
0
0
0
0
0
0
0
0
0
0
0
0
0
0
0
0
0
0
0
0
0
0
0
0
0
0
0
0
0
0
0
0
0
0
0
0
0
0
0
0
0
0
0
0
0
0
0
0
0
0
0
0
0
0
0
0
0
0
0
0
0
0
0
0
0
0
0
0
0
0
0
0
0
0
0
0
0
0
0
0
0
0
0
0
0
0
0
0
0
0
0
0
0
0
0
0
0
0
0
0
0
0
0
0
0
0
0
0
0
0
0
0
0
0
0
0
0
0
0
0
0
0
0
0
0
0
0
0
0
0
0
0
0
0
1
1
1
1
1
1
1
1
1
1
1
1
1
1
1
1
1
1
1
1
1
1
1
1
1
1
1
1
1
1
2
2
2
2
2
2
2
2
2
2
2
2
2
2
2
2
2
2
2
2
2
2
2
2
2
2
2
2
2
2
3
3
3
3
3
3
3
3
3
3
3
3
3
3
3
3
3
3
3
3
3
3
3
3
3
3
3
3
3
3
4
4
4
4
4
4
4
4
4
4
4
4
4
4
4
4
4
4
4
4
4
4
4
4
4
4
4
4
4
4

LOOKUP_TABLE FreeFempp_table 5
1.00000000 0.00000000 0.00000000 1.00000000
1.00000000 1.00000000 0.00000000 1.00000000
1.00000000 0.00000000 1.00000000 1.00000000
0.00000000 1.00000000 0.00000000 1.00000000
0.00000000 1.00000000 1.00000000 1.00000000

POINT_DATA 961
FIELD FieldData 1
Density 1 961 float
3.24008077e-01 2.92757064e-01 3.03504378e-01 3.05584699e-01 3.02415669e-01 2.96786934e-01 2.88635254e-01 2.76996911e-01 2.60305196e-01 2.35344753e-01 1.95502996e-01 1.43446431e-01 1.16358966e-01 1.60210848e-01 4.35998023e-01 7.30048239e-01 6.66918278e-01 7.26613939e-01 7.08476782e-01 6.50438249e-01 6.41857147e-01 6.34811044e-01 6.28472805e-01 6.21084690e-01 6.11257970e-01 5.99934220e-01 5.81957459e-01 5.71019173e-01 5.64677835e-01 5.63979983e-01 5.17966926e-01 1.18826725e-01 9.80592296e-02 1.05301261e-01 1.11789010e-01 1.17041446e-01 1.21696062e-01 1.25956222e-01 1.29432037e-01 1.31161660e-01 1.29356250e-01 1.20917484e-01 1.03119887e-01 8.62348676e-02 1.01245709e-01 2.78408855e-01 8.29791903e-01 7.03063130e-01 3.43563050e-01 5.19054830e-01 6.76889658e-01 6.87883556e-01 6.93639934e-01 6.92646384e-01 6.89458787e-01 6.83880448e-01 6.77406430e-01 6.56276822e-01 6.32861137e-01 6.22980058e-01 6.19986951e-01 5.63264251e-01 5.31509332e-02 4.04025987e-02 4.21351492e-02 4.34223935e-02 4.51752506e-02 4.73918580e-02 4.99933362e-02 5.28891869e-02 5.59810810e-02 5.91775998e-02 6.23408705e-02 6.49156570e-02 6.68692216e-02 8.03794712e-02 1.73554957e-01 7.54141629e-01 7.87623286e-01 1.12029925e-01 8.00427273e-02 5.49215712e-02 5.97712919e-02 8.66544843e-02 1.63570747e-01 2.66710997e-01 3.68521929e-01 4.74698573e-01 5.47095895e-01 5.74068785e-01 5.73273242e-01 5.74616015e-01 5.44678748e-01 3.14448811e-02 2.34685950e-02 2.42497958e-02 2.41854899e-02 2.43700184e-02 2.47943364e-02 2.54073106e-02 2.61053238e-02 2.67816521e-02 2.73630619e-02 2.78958324e-02 2.86897141e-02 3.04097999e-02 3.52590345e-02 5.75570613e-02 2.54795939e-01 8.45456004e-01 1.68321460e-01 9.86404717e-02 5.49945198e-02 3.23863402e-02 2.47848295e-02 2.25415006e-02 2.79883463e-02 4.52197120e-02 9.64238942e-02 1.86568514e-01 2.97609419e-01 3.74937326e-01 3.89745712e-01 4.52887833e-01 2.54161526e-02 1.81815233e-02 1.91466510e-02 1.89446956e-02 1.87823195e-02 1.86348762e-02 1.85307246e-02 1.84351336e-02 1.82788465e-02 1.79671906e-02 1.73868835e-02 1.64323412e-02 1.51750585e-02 1.43515309e-02 1.58561692e-02 2.69409493e-02 3.65078032e-01 8.96071017e-01 1.91370979e-01 8.54741111e-02 8.38691667e-02 3.99486087e-02 2.30934247e-02 1.66028850e-02 1.42764403e-02 1.75031591e-02 3.44598368e-02 9.05572027e-02 1.68541983e-01 2.07768545e-01 2.87907541e-01 3.10018472e-02 2.02731732e-02 2.17530131e-02 2.16253009e-02 2.14758404e-02 2.11518276e-02 2.07327865e-02 2.02683285e-02 1.97703317e-02 1.91945769e-02 1.84260476e-02 1.72555260e-02 1.53542832e-02 1.24277137e-02 9.30684712e-03 8.42111185e-03 1.13435937e-02 1.76349103e-01 9.17383671e-01 7.98086643e-01 5.96642077e-01 4.25281078e-01 1.72928110e-01 5.36035150e-02 1.96009576e-02 1.27215954e-02 1.21969879e-02 2.15651803e-02 6.78884685e-02 1.23806477e-01 1.88021973e-01 6.07707873e-02 3.53793763e-02 3.74826565e-02 3.73414867e-02 3.72893326e-02 3.68002057e-02 3.59878056e-02 3.50222029e-02 3.40605453e-02 3.31705660e-02 3.22859697e-02 3.11342031e-02 2.90750675e-02 2.48340499e-02 1.74087211e-02 9.49694868e-03 6.11017179e-03 6.19616453e-03 1.71367750e-02 7.37597287e-01 8.55439901e-01 8.22319388e-01 7.95836985e-01 7.81618357e-01 5.07039011e-01 4.68605645e-02 1.41970301e-02 1.09830368e-02 2.15150844e-02 7.78343827e-02 1.57402650e-01 1.97183535e-01 1.19313732e-01 1.15686342e-01 1.11846723e-01 1.09372094e-01 1.06471375e-01 1.03419378e-01 1.00655630e-01 9.85990763e-02 9.75868106e-02 9.78256911e-02 9.92666632e-02 1.01210892e-01 1.00841410e-01 8.94585848e-02 5.55040166e-02 1.83405355e-02 5.90247195e-03 5.75491088e-03 7.36071868e-03 1.16352681e-02 5.04027963e-01 7.67421603e-01 7.63482928e-01 7.91785955e-01 8.41615140e-01 8.38758498e-02 1.31551670e-02 1.05121247e-02 3.40163112e-02 1.44768372e-01 4.98772770e-01 4.63936508e-01 4.15251553e-01 3.81443799e-01 3.60771030e-01 3.48085254e-01 3.40223551e-01 3.35721314e-01 3.34043175e-01 3.35086197e-01 3.38814050e-01 3.44950318e-01 3.52814049e-01 3.61293465e-01 3.68227988e-01 3.66421670e-01 3.26188892e-01 1.25794977e-01 1.32182185e-02 8.52569565e-03 6.62586931e-03 7.34385895e-03 1.57538615e-02 5.06678969e-02 1.09584913e-01 1.41614512e-01 8.88576567e-01 4.42926325e-02 1.03391102e-02 1.36730922e-02 1.01383761e-01 5.56219816e-01 5.86446106e-01 5.93715906e-01 5.90970755e-01 5.85180342e-01 5.78911662e-01 5.73332131e-01 5.68356216e-01 5.63561082e-01 5.58497429e-01 5.52680850e-01 5.45635879e-01 5.37055492e-01 5.27058899e-01 5.15696585e-01 5.03525555e-01 4.93089527e-01 4.85397607e-01 4.76080507e-01 3.34494054e-01 1.06401369e-01 1.01492302e-02 7.43093342e-03 1.86402183e-02 4.64783199e-02 6.84023127e-02 2.10763127e-01 9.29553688e-01 1.42605407e-02 7.94189330e-03 3.53345014e-02 6.20291293e-01 6.67729199e-01 6.63132906e-01 6.56187534e-01 6.47564530e-01 6.38599932e-01 6.29735112e-01 6.21076882e-01 6.12685084e-01 6.04583740e-01 5.96607625e-01 5.88411808e-01 5.79641759e-01 5.70176661e-01 5.60352623e-01 5.50186813e-01 5.41109681e-01 5.33577025e-01 5.25867164e-01 5.17784894e-01 5.05683959e-01 4.89635706e-01 2.94623468e-02 5.38622402e-02 4.26726565e-02 5.91644235e-02 9.68438908e-02 8.02916825e-01 8.04512739e-01 7.68519752e-03 1.01945093e-02 6.69586539e-01 7.25922048e-01 7.00970590e-01 6.93320990e-01 6.82862163e-01 6.66450381e-01 6.53150082e-01 6.41303301e-01 6.30768836e-01 6.21615231e-01 6.13797069e-01 6.06932700e-01 6.00464463e-01 5.94186366e-01 5.88369310e-01 5.83493233e-01 5.79621255e-01 5.77093899e-01 5.75284541e-01 5.73735893e-01 5.71644306e-01 5.63290000e-01 5.59162557e-01 6.68021679e-01 4.47788596e-01 1.57232195e-01 1.21281616e-01 3.23602445e-02 8.96786273e-01 1.04750795e-02 1.10657681e-02 6.26179814e-01 7.11304605e-01 6.83813810e-01 6.81689620e-01 6.88959062e-01 6.77080035e-01 6.58284962e-01 6.42172456e-01 6.29381120e-01 6.19897604e-01 6.13144457e-01 6.08565152e-01 6.05248392e-01 6.02344632e-01 6.00025177e-01 5.98293424e-01 5.99018276e-01 6.01599038e-01 6.08037472e-01 6.14561379e-01 6.21666670e-01 6.26930177e-01 6.31001174e-01 6.33448660e-01 5.97008824e-01 4.04091060e-01 1.80582762e-01 5.55048108e-01 9.12197649e-01 1.29056377e-02 1.08877420e-02 4.76550847e-01 5.23134530e-01 5.31567037e-01 5.46749175e-01 5.78244746e-01 6.04118288e-01 6.16681397e-01 6.12086833e-01 6.04882121e-01 5.95727384e-01 5.90652347e-01 5.88079631e-01 5.88520110e-01 5.92117488e-01 5.94573796e-01 5.95182955e-01 5.96061945e-01 5.98767638e-01 6.06684566e-01 6.18350029e-01 6.28165483e-01 6.42509878e-01 6.69506729e-01 6.73090816e-01 6.60183132e-01 5.99494159e-01 5.01097083e-01 7.01880693e-01 9.04354274e-01 1.46965319e-02 1.32922567e-02 3.45162660e-01 3.09621334e-01 3.22700799e-01 3.45752299e-01 3.78735453e-01 4.28097308e-01 4.85098571e-01 5.30703425e-01 5.49553633e-01 5.52352428e-01 5.50394654e-01 5.50168455e-01 5.51743388e-01 5.59711933e-01 5.69328249e-01 5.72564483e-01 5.74482560e-01 5.78392446e-01 5.83355784e-01 5.85752308e-01 5.73082030e-01 5.62578440e-01 5.63755691e-01 5.86490452e-01 6.47584617e-01 6.31666601e-01 6.18595183e-01 7.65673578e-01 8.80965412e-01 1.50359441e-02 1.40633835e-02 3.26185167e-01 2.51271039e-01 2.35056013e-01 2.25116923e-01 2.26511538e-01 2.50541270e-01 3.06075901e-01 3.85820746e-01 4.52992678e-01 4.97705728e-01 5.07018447e-01 5.11214077e-01 5.13161242e-01 5.18434882e-01 5.23956597e-01 5.06537557e-01 4.98464704e-01 5.12251675e-01 5.40424824e-01 5.78627646e-01 5.96424758e-01 5.77275753e-01 5.48513889e-01 4.92030948e-01 5.18759727e-01 6.15088880e-01 6.88849807e-01 7.63406992e-01 8.25983226e-01 1.60870943e-02 1.49786836e-02 3.77361685e-01 2.95127690e-01 2.60424256e-01 2.21366107e-01 1.85965240e-01 1.68790534e-01 1.77233577e-01 2.19518453e-01 2.93048471e-01 3.69504869e-01 4.51139659e-01 4.91436332e-01 4.91082937e-01 4.69794363e-01 4.46956217e-01 4.41417217e-01 4.38076288e-01 4.46086228e-01 4.73091811e-01 5.17449081e-01 5.68939507e-01 5.95361590e-01 5.96195161e-01 5.89072585e-01 5.64475238e-01 6.55026555e-01 7.25412071e-01 7.59017766e-01 7.43152857e-01 1.73362475e-02 1.61521081e-02 4.57049966e-01 4.02610511e-01 3.70345205e-01 3.20939481e-01 2.50793427e-01 1.88523471e-01 1.54235244e-01 1.51208118e-01 1.74581349e-01 2.06649110e-01 2.60074973e-01 3.42869371e-01 3.88564557e-01 3.82308573e-01 3.73905957e-01 3.80698144e-01 4.03421909e-01 4.28420424e-01 4.51872647e-01 4.81487393e-01 5.04694760e-01 5.37743449e-01 5.81887484e-01 6.17638290e-01 6.70582712e-01 7.27338314e-01 7.47901261e-01 7.33010530e-01 6.33484840e-01 1.90717336e-02 1.75877847e-02 5.19687951e-01 5.21918058e-01 5.10057688e-01 4.79583591e-01 4.07394230e-01 3.04823905e-01 2.14044973e-01 1.68702617e-01 1.61652163e-01 1.73773065e-01 2.01779753e-01 2.74393111e-01 3.36330295e-01 3.53125244e-01 3.47952127e-01 3.62065792e-01 3.91955346e-01 4.26368237e-01 4.56500858e-01 4.79341745e-01 5.02400160e-01 5.44909239e-01 6.10895932e-01 6.81195080e-01 7.03432322e-01 7.18974173e-01 7.10608840e-01 6.52417302e-01 2.25211903e-01 2.18980685e-02 1.92739386e-02 5.39762914e-01 5.84872246e-01 5.87031186e-01 5.64130425e-01 4.94020790e-01 3.86617690e-01 2.72387356e-01 2.05379874e-01 1.89101905e-01 2.00519577e-01 2.28675306e-01 3.01144838e-01 3.84029627e-01 3.94605994e-01 4.01034981e-01 4.17554647e-01 4.44877833e-01 4.68503326e-01 4.91531640e-01 5.23824930e-01 5.58793783e-01 6.18112922e-01 6.88729644e-01 7.03208327e-01 7.08995759e-01 7.04152107e-01 6.62944257e-01 4.80940998e-01 1.00313246e-01 2.87762880e-02 2.35627703e-02 5.19521415e-01 5.77641547e-01 5.88221490e-01 5.32385588e-01 3.97735447e-01 2.84302294e-01 2.11798742e-01 1.79454818e-01 1.84163928e-01 2.21789256e-01 2.79769361e-01 3.66664290e-01 4.48483348e-01 4.70650017e-01 4.82683659e-01 4.87056345e-01 4.96879607e-01 5.22100627e-01 5.54700792e-01 6.04029000e-01 6.48958862e-01 6.93268180e-01 6.98101819e-01 6.97846889e-01 6.88155472e-01 6.59912705e-01 5.22455037e-01 1.65860534e-01 5.69041818e-02 3.82360443e-02 3.46281081e-02 4.76204485e-01 5.33591330e-01 5.69261849e-01 4.54564601e-01 2.37309232e-01 1.79435015e-01 1.61388442e-01 1.57427773e-01 1.77462116e-01 2.36660779e-01 3.19838613e-01 3.96435052e-01 4.47851509e-01 4.59956199e-01 4.65505004e-01 4.75236475e-01 4.97841179e-01 5.32900751e-01 5.77549100e-01 6.21874034e-01 6.76957190e-01 6.83076441e-01 6.80112123e-01 6.70663059e-01 6.43495619e-01 5.23997605e-01 2.00548425e-01 8.16673487e-02 4.73614745e-02 4.52716574e-02 6.22606240e-02 4.26429123e-01 4.78552341e-01 5.70300817e-01 4.07714695e-01 1.64228514e-01 1.31644577e-01 1.29036337e-01 1.44998357e-01 1.87248573e-01 2.75005966e-01 3.88086557e-01 4.57093835e-01 4.85238999e-01 4.90858734e-01 4.98221725e-01 5.08929670e-01 5.26661158e-01 5.53973496e-01 5.89450538e-01 6.23867929e-01 6.43354118e-01 6.56535864e-01 6.51007652e-01 6.20927334e-01 4.75379229e-01 1.92792729e-01 9.18859839e-02 5.90522625e-02 5.32752424e-02 6.40754849e-02 1.25037029e-01 3.79428774e-01 4.23259825e-01 5.91462135e-01 4.14156049e-01 1.17809683e-01 9.20557231e-02 1.01502217e-01 1.35562912e-01 2.10078195e-01 3.40180367e-01 4.69993919e-01 5.41116893e-01 5.49605787e-01 5.26218355e-01 5.27681708e-01 5.41003704e-01 5.60640574e-01 5.87816715e-01 6.20363414e-01 6.48528337e-01 6.54852629e-01 6.32330656e-01 5.73123813e-01 3.67767602e-01 1.63860977e-01 9.29620937e-02 6.77829906e-02 6.33400604e-02 7.73384944e-02 1.29753292e-01 2.57377654e-01 3.36327016e-01 3.71127099e-01 6.08637929e-01 4.49573278e-01 8.19636360e-02 6.57407269e-02 8.32748115e-02 1.37640461e-01 2.55076855e-01 4.24180299e-01 5.33385754e-01 5.93925357e-01 5.91748297e-01 5.62287390e-01 5.47875285e-01 5.59273303e-01 5.80046654e-01 6.07495248e-01 6.38249457e-01 6.62159026e-01 6.52184308e-01 5.35311699e-01 2.30599225e-01 1.37525290e-01 1.07207969e-01 8.93800780e-02 8.01214278e-02 9.97695029e-02 1.76916048e-01 3.18296045e-01 4.13526207e-01 3.05432737e-01 3.25407684e-01 6.02989793e-01 4.72627789e-01 5.60730882e-02 4.92394529e-02 7.18894154e-02 1.60286471e-01 3.35381031e-01 5.04598618e-01 5.72402894e-01 5.85748076e-01 6.00667417e-01 5.86712718e-01 5.66280901e-01 5.73248208e-01 5.92531443e-01 6.16697013e-01 6.41904831e-01 6.59735799e-01 6.46415889e-01 5.41526318e-01 3.07424873e-01 1.71654299e-01 1.22596525e-01 1.28510892e-01 1.96275264e-01 3.73812824e-01 5.30436993e-01 5.66743314e-01 5.13622284e-01 3.02590102e-01 3.04082870e-01 5.74085832e-01 4.76935804e-01 4.10787128e-02 3.90931517e-02 6.59325495e-02 2.14796975e-01 4.35344815e-01 5.37662506e-01 5.65242171e-01 5.61229944e-01 5.66569746e-01 5.85370660e-01 5.88336527e-01 5.87104678e-01 6.01555347e-01 6.19403720e-01 6.36858404e-01 6.50150061e-01 6.46127999e-01 5.96820176e-01 4.81357634e-01 4.25473183e-01 4.97880280e-01 6.16542220e-01 6.78002715e-01 6.99066937e-01 6.80756211e-01 6.63115859e-01 5.71320713e-01 3.19973230e-01 3.14479023e-01 5.41193664e-01 5.01859307e-01 3.28103602e-02 3.20798531e-02 6.75813034e-02 3.21892709e-01 4.98317301e-01 5.22500038e-01 5.24203479e-01 5.30306935e-01 5.43748319e-01 5.77165246e-01 6.04044914e-01 5.98636150e-01 6.06082559e-01 6.20336711e-01 6.32099867e-01 6.44322872e-01 6.52719975e-01 6.48648381e-01 6.35447085e-01 6.48115039e-01 6.88393056e-01 7.02275455e-01 6.92328155e-01 6.79023027e-01 6.67791009e-01 6.64582193e-01 5.87531626e-01 3.25747758e-01 3.27904075e-01 5.28167129e-01 5.09456336e-01 2.84822099e-02 2.58532092e-02 7.10809380e-02 4.65427220e-01 5.21406114e-01 5.11139631e-01 5.14093161e-01 5.35433352e-01 5.68628311e-01 6.04037881e-01 6.23804867e-01 6.21303260e-01 6.04752362e-01 6.15824103e-01 6.30437553e-01 6.43577754e-01 6.56688035e-01 6.65782273e-01 6.68032408e-01 6.67102456e-01 6.64379656e-01 6.54211283e-01 6.38112366e-01 6.25726104e-01 6.16698921e-01 6.18530929e-01 5.69585085e-01 3.34490627e-01 3.48434359e-01 5.28692424e-01 5.36561668e-01 2.67806426e-02 2.04271469e-02 6.14210144e-02 5.48952579e-01 5.29707432e-01 5.15996337e-01 5.24355471e-01 5.48900425e-01 5.86184442e-01 6.35497034e-01 6.40701175e-01 6.43129826e-01 6.39654756e-01 6.27543986e-01 6.41027749e-01 6.51735187e-01 6.54659033e-01 6.50985122e-01 6.41537309e-01 6.27569914e-01 6.10752940e-01 5.93271732e-01 5.76834500e-01 5.65290332e-01 5.58267176e-01 5.54414809e-01 5.36541760e-01 3.96988451e-01 3.83066595e-01 5.40477991e-01 5.17879605e-01 6.42562583e-02 2.82489453e-02 5.33599891e-02 6.34517610e-01 5.30263484e-01 5.18341899e-01 5.18485188e-01 5.25940776e-01 5.40789664e-01 5.66689312e-01 5.83163142e-01 5.89860976e-01 5.99273145e-01 5.89858711e-01 5.83892226e-01 5.87079525e-01 5.82135916e-01 5.69584072e-01 5.53179204e-01 5.38693190e-01 5.28834581e-01 5.21915853e-01 5.16539097e-01 5.10471225e-01 5.06856263e-01 5.02305925e-01 5.02937794e-01 
