# vtk DataFile Version 2.0
results/iter7.vtk, Created by Freefem++ 
ASCII
DATASET UNSTRUCTURED_GRID
POINTS 961 float
0 0 0
0.033333333 0 0
0.066666667 0 0
0.1 0 0
0.13333333 0 0
0.16666667 0 0
0.2 0 0
0.23333333 0 0
0.26666667 0 0
0.3 0 0
0.33333333 0 0
0.36666667 0 0
0.4 0 0
0.43333333 0 0
0.46666667 0 0
0.5 0 0
0.53333333 0 0
0.56666667 0 0
0.6 0 0
0.63333333 0 0
0.66666667 0 0
0.7 0 0
0.73333333 0 0
0.76666667 0 0
0.8 0 0
0.83333333 0 0
0.86666667 0 0
0.9 0 0
0.93333333 0 0
0.96666667 0 0
1 0 0
0 0.033333333 0
0.033333333 0.033333333 0
0.066666667 0.033333333 0
0.1 0.033333333 0
0.13333333 0.033333333 0
0.16666667 0.033333333 0
0.2 0.033333333 0
0.23333333 0.033333333 0
0.26666667 0.033333333 0
0.3 0.033333333 0
0.33333333 0.033333333 0
0.36666667 0.033333333 0
0.4 0.033333333 0
0.43333333 0.033333333 0
0.46666667 0.033333333 0
0.5 0.033333333 0
0.53333333 0.033333333 0
0.56666667 0.033333333 0
0.6 0.033333333 0
0.63333333 0.033333333 0
0.66666667 0.033333333 0
0.7 0.033333333 0
0.73333333 0.033333333 0
0.76666667 0.033333333 0
0.8 0.033333333 0
0.83333333 0.033333333 0
0.86666667 0.033333333 0
0.9 0.033333333 0
0.93333333 0.033333333 0
0.96666667 0.033333333 0
1 0.033333333 0
0 0.066666667 0
0.033333333 0.066666667 0
0.066666667 0.066666667 0
0.1 0.066666667 0
0.13333333 0.066666667 0
0.16666667 0.066666667 0
0.2 0.066666667 0
0.23333333 0.066666667 0
0.26666667 0.066666667 0
0.3 0.066666667 0
0.33333333 0.066666667 0
0.36666667 0.066666667 0
0.4 0.066666667 0
0.43333333 0.066666667 0
0.46666667 0.066666667 0
0.5 0.066666667 0
0.53333333 0.066666667 0
0.56666667 0.066666667 0
0.6 0.066666667 0
0.63333333 0.066666667 0
0.66666667 0.066666667 0
0.7 0.066666667 0
0.73333333 0.066666667 0
0.76666667 0.066666667 0
0.8 0.066666667 0
0.83333333 0.066666667 0
0.86666667 0.066666667 0
0.9 0.066666667 0
0.93333333 0.066666667 0
0.96666667 0.066666667 0
1 0.066666667 0
0 0.1 0
0.033333333 0.1 0
0.066666667 0.1 0
0.1 0.1 0
0.13333333 0.1 0
0.16666667 0.1 0
0.2 0.1 0
0.23333333 0.1 0
0.26666667 0.1 0
0.3 0.1 0
0.33333333 0.1 0
0.36666667 0.1 0
0.4 0.1 0
0.43333333 0.1 0
0.46666667 0.1 0
0.5 0.1 0
0.53333333 0.1 0
0.56666667 0.1 0
0.6 0.1 0
0.63333333 0.1 0
0.66666667 0.1 0
0.7 0.1 0
0.73333333 0.1 0
0.76666667 0.1 0
0.8 0.1 0
0.83333333 0.1 0
0.86666667 0.1 0
0.9 0.1 0
0.93333333 0.1 0
0.96666667 0.1 0
1 0.1 0
0 0.13333333 0
0.033333333 0.13333333 0
0.066666667 0.13333333 0
0.1 0.13333333 0
0.13333333 0.13333333 0
0.16666667 0.13333333 0
0.2 0.13333333 0
0.23333333 0.13333333 0
0.26666667 0.13333333 0
0.3 0.13333333 0
0.33333333 0.13333333 0
0.36666667 0.13333333 0
0.4 0.13333333 0
0.43333333 0.13333333 0
0.46666667 0.13333333 0
0.5 0.13333333 0
0.53333333 0.13333333 0
0.56666667 0.13333333 0
0.6 0.13333333 0
0.63333333 0.13333333 0
0.66666667 0.13333333 0
0.7 0.13333333 0
0.73333333 0.13333333 0
0.76666667 0.13333333 0
0.8 0.13333333 0
0.83333333 0.13333333 0
0.86666667 0.13333333 0
0.9 0.13333333 0
0.93333333 0.13333333 0
0.96666667 0.13333333 0
1 0.13333333 0
0 0.16666667 0
0.033333333 0.16666667 0
0.066666667 0.16666667 0
0.1 0.16666667 0
0.13333333 0.16666667 0
0.16666667 0.16666667 0
0.2 0.16666667 0
0.23333333 0.16666667 0
0.26666667 0.16666667 0
0.3 0.16666667 0
0.33333333 0.16666667 0
0.36666667 0.16666667 0
0.4 0.16666667 0
0.43333333 0.16666667 0
0.46666667 0.16666667 0
0.5 0.16666667 0
0.53333333 0.16666667 0
0.56666667 0.16666667 0
0.6 0.16666667 0
0.63333333 0.16666667 0
0.66666667 0.16666667 0
0.7 0.16666667 0
0.73333333 0.16666667 0
0.76666667 0.16666667 0
0.8 0.16666667 0
0.83333333 0.16666667 0
0.86666667 0.16666667 0
0.9 0.16666667 0
0.93333333 0.16666667 0
0.96666667 0.16666667 0
1 0.16666667 0
0 0.2 0
0.033333333 0.2 0
0.066666667 0.2 0
0.1 0.2 0
0.13333333 0.2 0
0.16666667 0.2 0
0.2 0.2 0
0.23333333 0.2 0
0.26666667 0.2 0
0.3 0.2 0
0.33333333 0.2 0
0.36666667 0.2 0
0.4 0.2 0
0.43333333 0.2 0
0.46666667 0.2 0
0.5 0.2 0
0.53333333 0.2 0
0.56666667 0.2 0
0.6 0.2 0
0.63333333 0.2 0
0.66666667 0.2 0
0.7 0.2 0
0.73333333 0.2 0
0.76666667 0.2 0
0.8 0.2 0
0.83333333 0.2 0
0.86666667 0.2 0
0.9 0.2 0
0.93333333 0.2 0
0.96666667 0.2 0
1 0.2 0
0 0.23333333 0
0.033333333 0.23333333 0
0.066666667 0.23333333 0
0.1 0.23333333 0
0.13333333 0.23333333 0
0.16666667 0.23333333 0
0.2 0.23333333 0
0.23333333 0.23333333 0
0.26666667 0.23333333 0
0.3 0.23333333 0
0.33333333 0.23333333 0
0.36666667 0.23333333 0
0.4 0.23333333 0
0.43333333 0.23333333 0
0.46666667 0.23333333 0
0.5 0.23333333 0
0.53333333 0.23333333 0
0.56666667 0.23333333 0
0.6 0.23333333 0
0.63333333 0.23333333 0
0.66666667 0.23333333 0
0.7 0.23333333 0
0.73333333 0.23333333 0
0.76666667 0.23333333 0
0.8 0.23333333 0
0.83333333 0.23333333 0
0.86666667 0.23333333 0
0.9 0.23333333 0
0.93333333 0.23333333 0
0.96666667 0.23333333 0
1 0.23333333 0
0 0.26666667 0
0.033333333 0.26666667 0
0.066666667 0.26666667 0
0.1 0.26666667 0
0.13333333 0.26666667 0
0.16666667 0.26666667 0
0.2 0.26666667 0
0.23333333 0.26666667 0
0.26666667 0.26666667 0
0.3 0.26666667 0
0.33333333 0.26666667 0
0.36666667 0.26666667 0
0.4 0.26666667 0
0.43333333 0.26666667 0
0.46666667 0.26666667 0
0.5 0.26666667 0
0.53333333 0.26666667 0
0.56666667 0.26666667 0
0.6 0.26666667 0
0.63333333 0.26666667 0
0.66666667 0.26666667 0
0.7 0.26666667 0
0.73333333 0.26666667 0
0.76666667 0.26666667 0
0.8 0.26666667 0
0.83333333 0.26666667 0
0.86666667 0.26666667 0
0.9 0.26666667 0
0.93333333 0.26666667 0
0.96666667 0.26666667 0
1 0.26666667 0
0 0.3 0
0.033333333 0.3 0
0.066666667 0.3 0
0.1 0.3 0
0.13333333 0.3 0
0.16666667 0.3 0
0.2 0.3 0
0.23333333 0.3 0
0.26666667 0.3 0
0.3 0.3 0
0.33333333 0.3 0
0.36666667 0.3 0
0.4 0.3 0
0.43333333 0.3 0
0.46666667 0.3 0
0.5 0.3 0
0.53333333 0.3 0
0.56666667 0.3 0
0.6 0.3 0
0.63333333 0.3 0
0.66666667 0.3 0
0.7 0.3 0
0.73333333 0.3 0
0.76666667 0.3 0
0.8 0.3 0
0.83333333 0.3 0
0.86666667 0.3 0
0.9 0.3 0
0.93333333 0.3 0
0.96666667 0.3 0
1 0.3 0
0 0.33333333 0
0.033333333 0.33333333 0
0.066666667 0.33333333 0
0.1 0.33333333 0
0.13333333 0.33333333 0
0.16666667 0.33333333 0
0.2 0.33333333 0
0.23333333 0.33333333 0
0.26666667 0.33333333 0
0.3 0.33333333 0
0.33333333 0.33333333 0
0.36666667 0.33333333 0
0.4 0.33333333 0
0.43333333 0.33333333 0
0.46666667 0.33333333 0
0.5 0.33333333 0
0.53333333 0.33333333 0
0.56666667 0.33333333 0
0.6 0.33333333 0
0.63333333 0.33333333 0
0.66666667 0.33333333 0
0.7 0.33333333 0
0.73333333 0.33333333 0
0.76666667 0.33333333 0
0.8 0.33333333 0
0.83333333 0.33333333 0
0.86666667 0.33333333 0
0.9 0.33333333 0
0.93333333 0.33333333 0
0.96666667 0.33333333 0
1 0.33333333 0
0 0.36666667 0
0.033333333 0.36666667 0
0.066666667 0.36666667 0
0.1 0.36666667 0
0.13333333 0.36666667 0
0.16666667 0.36666667 0
0.2 0.36666667 0
0.23333333 0.36666667 0
0.26666667 0.36666667 0
0.3 0.36666667 0
0.33333333 0.36666667 0
0.36666667 0.36666667 0
0.4 0.36666667 0
0.43333333 0.36666667 0
0.46666667 0.36666667 0
0.5 0.36666667 0
0.53333333 0.36666667 0
0.56666667 0.36666667 0
0.6 0.36666667 0
0.63333333 0.36666667 0
0.66666667 0.36666667 0
0.7 0.36666667 0
0.73333333 0.36666667 0
0.76666667 0.36666667 0
0.8 0.36666667 0
0.83333333 0.36666667 0
0.86666667 0.36666667 0
0.9 0.36666667 0
0.93333333 0.36666667 0
0.96666667 0.36666667 0
1 0.36666667 0
0 0.4 0
0.033333333 0.4 0
0.066666667 0.4 0
0.1 0.4 0
0.13333333 0.4 0
0.16666667 0.4 0
0.2 0.4 0
0.23333333 0.4 0
0.26666667 0.4 0
0.3 0.4 0
0.33333333 0.4 0
0.36666667 0.4 0
0.4 0.4 0
0.43333333 0.4 0
0.46666667 0.4 0
0.5 0.4 0
0.53333333 0.4 0
0.56666667 0.4 0
0.6 0.4 0
0.63333333 0.4 0
0.66666667 0.4 0
0.7 0.4 0
0.73333333 0.4 0
0.76666667 0.4 0
0.8 0.4 0
0.83333333 0.4 0
0.86666667 0.4 0
0.9 0.4 0
0.93333333 0.4 0
0.96666667 0.4 0
1 0.4 0
0 0.43333333 0
0.033333333 0.43333333 0
0.066666667 0.43333333 0
0.1 0.43333333 0
0.13333333 0.43333333 0
0.16666667 0.43333333 0
0.2 0.43333333 0
0.23333333 0.43333333 0
0.26666667 0.43333333 0
0.3 0.43333333 0
0.33333333 0.43333333 0
0.36666667 0.43333333 0
0.4 0.43333333 0
0.43333333 0.43333333 0
0.46666667 0.43333333 0
0.5 0.43333333 0
0.53333333 0.43333333 0
0.56666667 0.43333333 0
0.6 0.43333333 0
0.63333333 0.43333333 0
0.66666667 0.43333333 0
0.7 0.43333333 0
0.73333333 0.43333333 0
0.76666667 0.43333333 0
0.8 0.43333333 0
0.83333333 0.43333333 0
0.86666667 0.43333333 0
0.9 0.43333333 0
0.93333333 0.43333333 0
0.96666667 0.43333333 0
1 0.43333333 0
0 0.46666667 0
0.033333333 0.46666667 0
0.066666667 0.46666667 0
0.1 0.46666667 0
0.13333333 0.46666667 0
0.16666667 0.46666667 0
0.2 0.46666667 0
0.23333333 0.46666667 0
0.26666667 0.46666667 0
0.3 0.46666667 0
0.33333333 0.46666667 0
0.36666667 0.46666667 0
0.4 0.46666667 0
0.43333333 0.46666667 0
0.46666667 0.46666667 0
0.5 0.46666667 0
0.53333333 0.46666667 0
0.56666667 0.46666667 0
0.6 0.46666667 0
0.63333333 0.46666667 0
0.66666667 0.46666667 0
0.7 0.46666667 0
0.73333333 0.46666667 0
0.76666667 0.46666667 0
0.8 0.46666667 0
0.83333333 0.46666667 0
0.86666667 0.46666667 0
0.9 0.46666667 0
0.93333333 0.46666667 0
0.96666667 0.46666667 0
1 0.46666667 0
0 0.5 0
0.033333333 0.5 0
0.066666667 0.5 0
0.1 0.5 0
0.13333333 0.5 0
0.16666667 0.5 0
0.2 0.5 0
0.23333333 0.5 0
0.26666667 0.5 0
0.3 0.5 0
0.33333333 0.5 0
0.36666667 0.5 0
0.4 0.5 0
0.43333333 0.5 0
0.46666667 0.5 0
0.5 0.5 0
0.53333333 0.5 0
0.56666667 0.5 0
0.6 0.5 0
0.63333333 0.5 0
0.66666667 0.5 0
0.7 0.5 0
0.73333333 0.5 0
0.76666667 0.5 0
0.8 0.5 0
0.83333333 0.5 0
0.86666667 0.5 0
0.9 0.5 0
0.93333333 0.5 0
0.96666667 0.5 0
1 0.5 0
0 0.53333333 0
0.033333333 0.53333333 0
0.066666667 0.53333333 0
0.1 0.53333333 0
0.13333333 0.53333333 0
0.16666667 0.53333333 0
0.2 0.53333333 0
0.23333333 0.53333333 0
0.26666667 0.53333333 0
0.3 0.53333333 0
0.33333333 0.53333333 0
0.36666667 0.53333333 0
0.4 0.53333333 0
0.43333333 0.53333333 0
0.46666667 0.53333333 0
0.5 0.53333333 0
0.53333333 0.53333333 0
0.56666667 0.53333333 0
0.6 0.53333333 0
0.63333333 0.53333333 0
0.66666667 0.53333333 0
0.7 0.53333333 0
0.73333333 0.53333333 0
0.76666667 0.53333333 0
0.8 0.53333333 0
[...]
CELL_DATA 1920
Scalars  Label int 1
LOOKUP_TABLE FreeFempp_table
0
0
0
0
0
0
0
0
0
0
0
0
0
0
0
0
0
0
0
0
0
0
0
0
0
0
0
0
0
0
0
0
0
0
0
0
0
0
0
0
0
0
0
0
0
0
0
0
0
0
0
0
0
0
0
0
0
0
0
0
0
0
0
0
0
0
0
0
0
0
0
0
0
0
0
0
0
0
0
0
0
0
0
0
0
0
0
0
0
0
0
0
0
0
0
0
0
0
0
0
0
0
0
0
0
0
0
0
0
0
0
0
0
0
0
0
0
0
0
0
0
0
0
0
0
0
0
0
0
0
0
0
0
0
0
0
0
0
0
0
0
0
0
0
0
0
0
0
0
0
0
0
0
0
0
0
0
0
0
0
0
0
0
0
0
0
0
0
0
0
0
0
0
0
0
0
0
0
0
0
0
0
0
0
0
0
0
0
0
0
0
0
0
0
0
0
0
0
0
0
0
0
0
0
0
0
0
0
0
0
0
0
0
0
0
0
0
0
0
0
0
0
0
0
0
0
0
0
0
0
0
0
0
0
0
0
0
0
0
0
0
0
0
0
0
0
0
0
0
0
0
0
0
0
0
0
0
0
0
0
0
0
0
0
0
0
0
0
0
0
0
0
0
0
0
0
0
0
0
0
0
0
0
0
0
0
0
0
0
0
0
0
0
0
0
0
0
0
0
0
0
0
0
0
0
0
0
0
0
0
0
0
0
0
0
0
0
0
0
0
0
0
0
0
0
0
0
0
0
0
0
0
0
0
0
0
0
0
0
0
0
0
0
0
0
0
0
0
0
0
0
0
0
0
0
0
0
0
0
0
0
0
0
0
0
0
0
0
0
0
0
0
0
0
0
0
0
0
0
0
0
0
0
0
0
0
0
0
0
0
0
0
0
0
0
0
0
0
0
0
0
0
0
0
0
0
0
0
0
0
0
0
0
0
0
0
0
0
0
0
0
0
0
0
0
0
0
0
0
0
0
0
0
0
0
0
0
0
0
0
0
0
0
0
0
0
0
0
0
0
0
0
0
0
0
0
0
0
0
0
0
0
0
0
0
0
0
0
0
0
0
0
0
0
0
0
0
0
0
0
0
0
0
0
0
0
0
0
0
0
0
0
0
0
0
0
0
0
0
0
0
0
0
0
0
0
0
0
0
0
0
0
0
0
0
0
0
0
0
0
0
0
0
0
0
0
0
0
0
0
0
0
0
0
0
0
0
0
0
0
0
0
0
0
0
0
0
0
0
0
0
0
0
0
0
0
0
0
0
0
0
0
0
0
0
0
0
0
0
0
0
0
0
0
0
0
0
0
0
0
0
0
0
0
0
0
0
0
0
0
0
0
0
0
0
0
0
0
0
0
0
0
0
0
0
0
0
0
0
0
0
0
0
0
0
0
0
0
0
0
0
0
0
0
0
0
0
0
0
0
0
0
0
0
0
0
0
0
0
0
0
0
0
0
0
0
0
0
0
0
0
0
0
0
0
0
0
0
0
0
0
0
0
0
0
0
0
0
0
0
0
0
0
0
0
0
0
0
0
0
0
0
0
0
0
0
0
0
0
0
0
0
0
0
0
0
0
0
0
0
0
0
0
0
0
0
0
0
0
0
0
0
0
0
0
0
0
0
0
0
0
0
0
0
0
0
0
0
0
0
0
0
0
0
0
0
0
0
0
0
0
0
0
0
0
0
0
0
0
0
0
0
0
0
0
0
0
0
0
0
0
0
0
0
0
0
0
0
0
0
0
0
0
0
0
0
0
0
0
0
0
0
0
0
0
0
0
0
0
0
0
0
0
0
0
0
0
0
0
0
0
0
0
0
0
0
0
0
0
0
0
0
0
0
0
0
0
0
0
0
0
0
0
0
0
0
0
0
0
0
0
0
0
0
0
0
0
0
0
0
0
0
0
0
0
0
0
0
0
0
0
0
0
0
0
0
0
0
0
0
0
0
0
0
0
0
0
0
0
0
0
0
0
0
0
0
0
0
0
0
0
0
0
0
0
0
0
0
0
0
0
0
0
0
0
0
0
0
0
0
0
0
0
0
0
0
0
0
0
0
0
0
0
0
0
0
0
0
0
0
0
0
0
0
0
0
0
0
0
0
0
0
0
0
0
0
0
0
0
0
0
0
0
0
0
0
0
0
0
0
0
0
0
0
0
0
0
0
0
0
0
0
0
0
0
0
0
0
0
0
0
0
0
0
0
0
0
0
0
0
0
0
0
0
0
0
0
0
0
0
0
0
0
0
0
0
0
0
0
0
0
0
0
0
0
0
0
0
0
0
0
0
0
0
0
0
0
0
0
0
0
0
0
0
0
0
0
0
0
0
0
0
0
0
0
0
0
0
0
0
0
0
0
0
0
0
0
0
0
0
0
0
0
0
0
0
0
0
0
0
0
0
0
0
0
0
0
0
0
0
0
0
0
0
0
0
0
0
0
0
0
0
0
0
0
0
0
0
0
0
0
0
0
0
0
0
0
0
0
0
0
0
0
0
0
0
0
0
0
0
0
0
0
0
0
0
0
0
0
0
0
0
0
0
0
0
0
0
0
0
0
0
0
0
0
0
0
0
0
0
0
0
0
0
0
0
0
0
0
0
0
0
0
0
0
0
0
0
0
0
0
0
0
0
0
0
0
0
0
0
0
0
0
0
0
0
0
0
0
0
0
0
0
0
0
0
0
0
0
0
0
0
0
0
0
0
0
0
0
0
0
0
0
0
0
0
0
0
0
0
0
0
0
0
0
0
0
0
0
0
0
0
0
0
0
0
0
0
0
0
0
0
0
0
0
0
0
0
0
0
0
0
0
0
0
0
0
0
0
0
0
0
0
0
0
0
0
0
0
0
0
0
0
0
0
0
0
0
0
0
0
0
0
0
0
0
0
0
0
0
0
0
0
0
0
0
0
0
0
0
0
0
0
0
0
0
0
0
0
0
0
0
0
0
0
0
0
0
0
0
0
0
0
0
0
0
0
0
0
0
0
0
0
0
0
0
0
0
0
0
0
0
0
0
0
0
0
0
0
0
0
0
0
0
0
0
0
0
0
0
0
0
0
0
0
0
0
0
0
0
0
0
0
0
0
0
0
0
0
0
0
0
0
0
0
0
0
0
0
0
0
0
0
0
0
0
0
0
0
0
0
0
0
0
0
0
0
0
0
0
0
0
0
0
0
0
0
0
0
0
0
0
0
0
0
0
0
0
0
0
0
0
0
0
0
0
0
0
0
0
0
0
0
0
0
0
0
0
0
0
0
0
0
0
0
0
0
0
0
0
0
0
0
0
0
0
0
0
0
0
0
0
0
0
0
0
0
0
0
0
0
0
0
0
0
0
0
0
0
0
0
0
0
0
0
0
0
0
0
0
0
0
0
0
0
0
0
0
0
0
0
0
0
0
0
0
0
0
0
0
0
0
0
0
0
0
0
0
0
0
0
0
0
0
0
0
0
0
0
0
0
0
0
0
0
0
0
0
0
0
0
0
0
0
0
0
0
0
0
0
0
0
0
0
0
0
0
0
0
0
0
0
0
0
0
0
0
0
0
0
0
0
0
0
0
0
0
0
0
0
0
0
0
0
0
0
0
0
0
0
0
0
0
0
0
0
0
0
0
0
0
0
0
0
0
0
0
0
0
0
0
0
0
0
0
0
0
0
0
0
0
0
0
0
0
0
0
0
0
0
0
0
0
0
0
0
0
0
0
0
0
0
0
0
0
0
0
0
0
0
0
0
0
0
0
0
0
0
0
0
0
0
0
0
0
0
0
0
0
0
0
0
0
0
0
0
0
0
0
0
0
0
0
0
0
0
0
0
0
0
0
0
0
0
0
0
0
0
0
0
0
0
0
0
0
0
0
0
0
0
0
0
0
0
0
0
0
0
0
0
0
0
0
0
0
0
0
0
0
0
0
0
0
0
0
0
0
0
0
0
0
0
0
0
0
0
0
0
0
0
0
0
0
0
0
0
0
0
0
0
0
0
0
0
0
0
0
0
0
0
0
0
0
0
0
0
0
0
0
0
0
0
0
0
0
0
0
0
0
0
0
0
0
0
0
0
0
0
0
0
1
1
1
1
1
1
1
1
1
1
1
1
1
1
1
1
1
1
1
1
1
1
1
1
1
1
1
1
1
1
2
2
2
2
2
2
2
2
2
2
2
2
2
2
2
2
2
2
2
2
2
2
2
2
2
2
2
2
2
2
3
3
3
3
3
3
3
3
3
3
3
3
3
3
3
3
3
3
3
3
3
3
3
3
3
3
3
3
3
3
4
4
4
4
4
4
4
4
4
4
4
4
4
4
4
4
4
4
4
4
4
4
4
4
4
4
4
4
4
4

LOOKUP_TABLE FreeFempp_table 5
1.00000000 0.00000000 0.00000000 1.00000000
1.00000000 1.00000000 0.00000000 1.00000000
1.00000000 0.00000000 1.00000000 1.00000000
0.00000000 1.00000000 0.00000000 1.00000000
0.00000000 1.00000000 1.00000000 1.00000000

POINT_DATA 961
FIELD FieldData 1
Density 1 961 float
8.14044625e-02 7.65277520e-02 7.68965110e-02 7.70182759e-02 7.70762414e-02 7.70954415e-02 7.70799667e-02 7.70240724e-02 7.68990591e-02 7.66116604e-02 7.58846477e-02 7.38663748e-02 6.92089498e-02 7.80753642e-02 9.13540363e-01 9.10916448e-01 9.18137372e-01 9.11672950e-01 9.02527988e-01 8.94486248e-01 8.87013972e-01 8.76685202e-01 8.33150089e-01 6.28525972e-01 4.19531316e-01 2.90115654e-01 2.30424061e-01 2.07057416e-01 1.98320568e-01 2.38671198e-01 1.02516450e-01 7.45537430e-02 6.06040508e-02 6.12561703e-02 6.15130998e-02 6.16074540e-02 6.16080984e-02 6.15243614e-02 6.13451339e-02 6.10364117e-02 6.05246089e-02 5.96927293e-02 5.84559180e-02 5.71301840e-02 5.92504181e-02 9.33557898e-02 9.22894657e-01 9.62548703e-02 9.77486223e-02 9.09495652e-01 9.08591032e-01 9.08761203e-01 9.08962250e-01 9.09409702e-01 9.10243094e-01 8.97476673e-01 8.72653306e-01 8.45555604e-01 8.27360630e-01 8.16430867e-01 8.37779343e-01 2.61245459e-01 7.37505406e-02 5.88365681e-02 5.90747483e-02 5.90565056e-02 5.90679124e-02 5.89804016e-02 5.87519333e-02 5.83567508e-02 5.77604845e-02 5.68907931e-02 5.55921420e-02 5.35115376e-02 4.98280749e-02 4.53663021e-02 6.02778345e-02 9.22250509e-01 9.07256961e-01 7.79609904e-02 6.73729628e-02 6.04416132e-02 4.89297956e-02 4.71209548e-02 5.46296239e-02 7.32190832e-02 2.80608207e-01 3.07830542e-01 4.28540856e-01 5.17597854e-01 5.67598462e-01 5.47665954e-01 1.86121657e-01 7.32646808e-02 5.82735874e-02 5.86304106e-02 5.85957766e-02 5.85373417e-02 5.83193675e-02 5.78486025e-02 5.70749603e-02 5.59621267e-02 5.44405282e-02 5.23462482e-02 4.93171476e-02 4.45869863e-02 3.79319526e-02 3.59863862e-02 5.81386462e-02 9.10999238e-01 9.04763281e-01 7.40189776e-02 5.42598851e-02 3.43815722e-02 2.37623379e-02 1.86418388e-02 1.81411151e-02 2.01569516e-02 3.06571629e-02 4.52164598e-02 5.69099151e-02 6.36518523e-02 6.67082518e-02 8.40048864e-02 7.27755129e-02 5.76832369e-02 5.81895262e-02 5.82725368e-02 5.82750030e-02 5.79791702e-02 5.72409444e-02 5.60069531e-02 5.42802848e-02 5.20550422e-02 4.92420904e-02 4.56058793e-02 4.07046638e-02 3.41435634e-02 2.84500681e-02 2.98584774e-02 4.89019379e-02 9.09815013e-01 9.24680948e-01 9.96599793e-02 7.01439455e-02 4.70616259e-02 2.59471033e-02 1.91657655e-02 1.30249253e-02 1.15437079e-02 1.52950250e-02 2.88665779e-02 4.26687114e-02 4.87831831e-02 6.57136440e-02 7.23673776e-02 5.71097024e-02 5.77087626e-02 5.80282845e-02 5.82656153e-02 5.80160543e-02 5.70487417e-02 5.53237237e-02 5.29403016e-02 5.00407070e-02 4.66901623e-02 4.27906364e-02 3.80697586e-02 3.21606658e-02 2.53250860e-02 2.03569438e-02 1.97984260e-02 3.26012038e-02 7.11364374e-02 9.30077851e-01 9.28267777e-01 9.14136052e-01 9.12715495e-01 7.51058981e-02 4.12172973e-02 1.80487856e-02 1.18564367e-02 1.25785572e-02 2.56001577e-02 4.22915854e-02 6.24602512e-02 7.32620060e-02 5.78491725e-02 5.82235493e-02 5.86588457e-02 5.91768138e-02 5.91356866e-02 5.81840090e-02 5.62561378e-02 5.34963310e-02 5.01561388e-02 4.64529693e-02 4.24545705e-02 3.80126610e-02 3.28254215e-02 2.66215317e-02 1.98853798e-02 1.47124687e-02 1.46035179e-02 2.42762472e-02 4.52941880e-02 9.09014344e-01 9.10425186e-01 9.14174259e-01 9.33649719e-01 9.31114733e-01 9.14584696e-01 4.06582840e-02 1.40214190e-02 1.21708894e-02 2.93623712e-02 5.82717806e-02 8.13021958e-02 6.75937384e-02 6.71134070e-02 6.59683198e-02 6.50938377e-02 6.44290596e-02 6.38116822e-02 6.29330948e-02 6.13577850e-02 5.86975589e-02 5.48346825e-02 5.00087813e-02 4.46552970e-02 3.90607975e-02 3.29451710e-02 2.62764450e-02 1.96201839e-02 1.50498953e-02 1.50664197e-02 1.45717189e-02 1.96526684e-02 3.87187675e-02 6.17822632e-02 8.86210352e-02 1.19314797e-01 9.35909212e-01 9.24890637e-01 4.30469811e-02 1.04481177e-02 1.43557703e-02 4.94744889e-02 1.14137530e-01 1.13980427e-01 1.17664173e-01 1.10087879e-01 1.00889362e-01 9.38886404e-02 9.11678970e-02 9.27669778e-02 9.64264348e-02 9.89787355e-02 9.77881327e-02 9.22675878e-02 8.38323906e-02 7.33922198e-02 6.14993200e-02 4.87420410e-02 3.84343639e-02 3.06027178e-02 2.42147204e-02 1.71386655e-02 1.47296330e-02 2.00246759e-02 3.32853645e-02 6.81172758e-02 1.04188278e-01 1.19435035e-01 1.17897063e-01 9.28023040e-01 1.73162483e-02 9.01068375e-03 3.20481658e-02 7.04897583e-01 8.95856917e-01 8.98411393e-01 9.05216277e-01 9.09146905e-01 9.10434723e-01 9.10419166e-01 9.09442127e-01 9.06949461e-01 9.02512372e-01 8.96434486e-01 8.88858676e-01 8.77188802e-01 8.49929869e-01 7.76030838e-01 6.04171276e-01 3.32941383e-01 1.29985616e-01 8.35710317e-02 5.65362349e-02 3.36738192e-02 3.32334451e-02 4.85591739e-02 8.05388093e-02 1.07850105e-01 1.21426508e-01 9.91170406e-02 9.33080256e-01 5.86217456e-02 9.15856659e-03 1.69422384e-02 8.99234056e-01 9.08368289e-01 9.08139408e-01 9.08065856e-01 9.08004463e-01 9.07936811e-01 9.07853961e-01 9.07758355e-01 9.07661974e-01 9.07568038e-01 9.07476604e-01 9.07390177e-01 9.07314897e-01 9.09135044e-01 9.11421776e-01 9.09082770e-01 8.95947874e-01 8.65951061e-01 7.75477350e-01 5.85133433e-01 3.07119846e-01 1.29471645e-01 8.93116370e-02 1.00685023e-01 1.23792470e-01 1.26882896e-01 1.07167542e-01 9.19933915e-01 9.29043889e-01 9.17730574e-03 9.66457836e-03 9.10083413e-01 9.09797549e-01 9.09446836e-01 9.09333825e-01 9.09316361e-01 9.09337461e-01 9.09317672e-01 9.09224212e-01 9.09100354e-01 9.08997715e-01 9.08921063e-01 9.08864677e-01 9.08822000e-01 9.08794343e-01 9.08778310e-01 9.08786595e-01 9.08839643e-01 9.08922374e-01 9.09023881e-01 9.09149468e-01 9.09176230e-01 9.09963727e-01 9.08510327e-01 9.73384380e-02 1.21722996e-01 1.74168289e-01 1.55660301e-01 9.35276687e-01 9.38743830e-01 6.21203985e-03 9.10561718e-03 4.52003121e-01 9.09975708e-01 9.11187530e-01 9.09321070e-01 9.09475744e-01 9.09678400e-01 9.09891427e-01 9.11149323e-01 9.13503945e-01 9.11197424e-01 9.09588277e-01 9.10263479e-01 9.12437260e-01 9.13686037e-01 9.10247803e-01 9.10286427e-01 9.10368919e-01 9.10534501e-01 9.10724640e-01 9.10861313e-01 9.10986841e-01 9.11155701e-01 9.11374331e-01 9.12261486e-01 9.14907396e-01 1.15361676e-01 1.89366952e-01 1.78029016e-01 9.62682247e-01 5.28768217e-03 1.19480792e-04 9.20141712e-02 9.13666561e-02 9.11580771e-02 9.11817402e-02 9.13772583e-02 9.19696242e-02 1.05325788e-01 1.81771800e-01 3.14626127e-01 4.36069846e-01 5.15076399e-01 5.67206860e-01 6.07558012e-01 6.48768842e-01 6.94564342e-01 7.41406024e-01 7.81409979e-01 8.08316231e-01 8.26254904e-01 8.52472544e-01 8.86312664e-01 9.13181007e-01 9.09019947e-01 9.08195794e-01 9.11101580e-01 9.15562570e-01 9.18763638e-01 9.35855925e-01 9.54118192e-01 1.13120135e-02 9.58319101e-03 9.08782631e-02 8.79962742e-02 8.77894610e-02 8.76339227e-02 8.76767710e-02 8.80003273e-02 8.83011743e-02 8.88191164e-02 8.96989107e-02 9.03768614e-02 9.07652900e-02 9.09456238e-02 9.09527540e-02 8.71760398e-02 9.27481428e-02 1.00454338e-01 1.06731780e-01 1.07483245e-01 9.88986492e-02 8.56224895e-02 8.78333300e-02 8.26670527e-02 8.06592479e-02 8.45009536e-02 5.96196055e-01 9.02978957e-01 9.09685254e-01 9.13846493e-01 9.27393377e-01 1.25794569e-02 1.15646552e-02 9.07397941e-02 8.78464282e-02 8.76347348e-02 8.73941630e-02 8.72783586e-02 8.73195678e-02 8.70369673e-02 8.63662437e-02 8.63080844e-02 8.68350714e-02 8.74075964e-02 8.77169147e-02 8.77223015e-02 8.75233263e-02 8.71208683e-02 8.64935368e-02 8.57269391e-02 8.49104598e-02 8.43031034e-02 8.40259269e-02 8.20368826e-02 8.08557495e-02 7.89586529e-02 8.33756030e-02 8.14367160e-02 1.08904846e-01 9.07504201e-01 9.12473202e-01 9.16407704e-01 1.33649493e-02 1.24422051e-02 9.04541835e-02 8.74494985e-02 8.72325152e-02 8.69434327e-02 8.67133439e-02 8.66176039e-02 8.64957348e-02 8.63983110e-02 8.66996646e-02 8.72424915e-02 8.77064317e-02 8.79389942e-02 8.79164264e-02 8.76952112e-02 8.72210935e-02 8.63629431e-02 8.51019397e-02 8.37863609e-02 8.32402632e-02 8.34334269e-02 8.48540738e-02 8.63790959e-02 9.05829445e-02 7.54957080e-01 9.01506066e-01 9.01549280e-01 9.08142507e-01 9.11491632e-01 9.09183323e-01 1.53022930e-02 1.33990869e-02 8.98895636e-02 8.65699723e-02 8.63278806e-02 8.59942809e-02 8.56911093e-02 8.55738297e-02 8.57050642e-02 8.61564726e-02 8.69126171e-02 8.76801386e-02 8.81690159e-02 8.83476734e-02 8.82735550e-02 8.79743919e-02 8.74014571e-02 8.64744782e-02 8.54616389e-02 8.35702270e-02 8.36525187e-02 8.66313800e-02 8.85143057e-02 9.22864825e-02 8.82581413e-01 9.05334234e-01 9.06160831e-01 9.08115268e-01 9.09525931e-01 9.08637702e-01 8.05247501e-02 1.95321497e-02 1.58891156e-02 8.88659582e-02 8.48896950e-02 8.45622718e-02 8.41477364e-02 8.37891400e-02 8.37784931e-02 8.43857303e-02 8.55924562e-02 8.69355723e-02 8.80552456e-02 8.86494294e-02 8.88058245e-02 8.86962488e-02 8.83618370e-02 8.77358019e-02 8.67650881e-02 8.53670835e-02 8.58698487e-02 8.73301774e-02 9.02289748e-02 1.50206357e-01 9.07102048e-01 9.06509161e-01 9.07117128e-01 9.08261240e-01 9.08982217e-01 8.81399930e-01 9.02213305e-02 6.75173551e-02 3.55481952e-02 2.51445752e-02 8.71627331e-02 8.20580348e-02 8.15808475e-02 8.06270167e-02 8.00161958e-02 8.04287493e-02 8.21058527e-02 8.46771151e-02 8.68323669e-02 8.84183049e-02 8.91499445e-02 8.92809108e-02 8.91528055e-02 8.88446569e-02 8.82324204e-02 8.72934535e-02 8.75499994e-02 8.90149847e-02 9.21607390e-02 4.54814792e-01 9.11069751e-01 9.07396615e-01 9.07312810e-01 9.07782316e-01 9.10659015e-01 5.45093715e-01 9.22593623e-02 8.43306705e-02 7.09267780e-02 5.69252521e-02 6.18066788e-02 8.45497772e-02 7.77388737e-02 7.74044171e-02 7.63026774e-02 7.19285607e-02 7.38908127e-02 7.83483088e-02 8.34387243e-02 8.67072344e-02 8.88110176e-02 8.96709189e-02 8.97484124e-02 8.95887688e-02 8.94222111e-02 8.89660120e-02 8.91459212e-02 9.04606357e-02 1.28360897e-01 7.33790755e-01 9.10309732e-01 9.07784104e-01 9.06970501e-01 9.06361282e-01 9.05951798e-01 2.11221203e-01 9.14440081e-02 8.76098201e-02 8.20875391e-02 7.64761344e-02 7.52257332e-02 7.98197314e-02 8.11609253e-02 7.18489587e-02 7.14552924e-02 6.97325915e-02 7.16975704e-02 7.32037425e-02 7.99242631e-02 8.21879432e-02 8.68138671e-02 8.92632306e-02 9.01498720e-02 9.02054533e-02 8.99403617e-02 8.99204165e-02 9.05878544e-02 9.17182341e-02 1.34040043e-01 7.10785747e-01 9.08916473e-01 9.07895029e-01 9.06437099e-01 9.04862344e-01 8.90144467e-01 1.19876891e-01 9.07947347e-02 8.84424821e-02 8.40512514e-02 8.13809559e-02 8.06715861e-02 7.95601755e-02 8.53463933e-02 7.88571760e-02 6.66157156e-02 6.51793927e-02 5.99167421e-02 7.20855743e-02 8.45350623e-02 1.11733332e-01 8.69174078e-02 8.75700042e-02 8.98417383e-02 9.05347317e-02 9.03747007e-02 9.07892883e-02 9.14611369e-02 9.27112922e-02 1.22131899e-01 4.97177750e-01 8.80503237e-01 9.07676756e-01 9.10427868e-01 9.01882112e-01 8.33300292e-01 1.17518388e-01 9.09049287e-02 8.89840350e-02 8.60727280e-02 8.38444754e-02 8.22026581e-02 8.11134204e-02 8.06924552e-02 8.66403133e-02 8.11552033e-02 6.71999604e-02 6.43940195e-02 5.79143278e-02 6.98118359e-02 9.58377421e-02 9.00966465e-01 9.12896618e-02 8.99067298e-02 9.05196443e-02 9.12628695e-02 9.16191638e-02 9.21780542e-02 1.12525672e-01 2.01542392e-01 4.19444025e-01 7.60945201e-01 8.47274423e-01 8.54422390e-01 8.49468350e-01 7.42402196e-01 1.78397819e-01 9.11030844e-02 8.95583481e-02 8.79409984e-02 8.63878205e-02 8.41712356e-02 8.20504948e-02 8.07401091e-02 8.05762485e-02 8.70875716e-02 8.68544728e-02 7.39026591e-02 7.12265372e-02 6.94310144e-02 7.69546032e-02 8.90517056e-01 9.05855358e-01 9.05222446e-02 9.11655426e-02 9.16998237e-02 9.22936201e-02 1.08243287e-01 2.02630997e-01 5.53191006e-01 7.17272758e-01 7.06166983e-01 7.27643907e-01 6.87635303e-01 6.60892308e-01 6.25559032e-01 3.79525244e-01 8.96121189e-02 8.95403549e-02 8.88834447e-02 8.80046487e-02 8.68850499e-02 8.48966688e-02 8.16790760e-02 7.95103237e-02 7.99731091e-02 8.75962898e-02 9.02361348e-02 6.14713207e-02 5.95916845e-02 7.81286210e-02 8.44529718e-02 9.06595886e-01 8.93095374e-01 9.57009122e-02 8.70727971e-02 9.23910514e-02 1.07794806e-01 3.29966754e-01 5.41373432e-01 8.27994525e-01 8.66811633e-01 7.90019572e-01 6.89534724e-01 5.72827220e-01 5.10779142e-01 4.72958773e-01 3.07362407e-01 9.62779820e-02 8.85832831e-02 8.85482356e-02 8.84305537e-02 8.72113034e-02 8.71083438e-02 8.68847892e-02 8.59660283e-02 8.57203305e-02 8.88613239e-02 2.30940297e-01 5.74375726e-02 3.59357335e-02 5.68736643e-02 9.12169069e-02 9.00888145e-01 8.53057951e-02 8.27428326e-02 1.15508094e-01 5.58839142e-01 8.25584888e-01 8.13979089e-01 7.35498011e-01 8.45794499e-01 8.85185778e-01 8.30916345e-01 7.15301752e-01 6.00338042e-01 5.03835380e-01 4.78032321e-01 4.35126066e-01 2.33164012e-01 9.03778672e-02 9.15373787e-02 9.19440389e-02 9.16399732e-02 9.11529809e-02 8.85867700e-02 1.85729071e-01 4.07743424e-01 1.09184638e-01 1.25858888e-01 1.13776140e-01 8.46600235e-02 7.51691535e-02 8.50583732e-01 8.85892928e-01 9.06697363e-02 8.93090069e-02 8.93635452e-01 9.01428938e-01 9.05017197e-01 9.10010278e-01 8.78400147e-01 8.90609860e-01 9.02116418e-01 8.86016667e-01 8.05871427e-01 7.04913020e-01 5.87599158e-01 5.75951040e-01 6.59192622e-01 7.38873661e-01 7.13371336e-01 4.57661569e-01 2.10591197e-01 1.53811976e-01 3.42106849e-01 8.54014039e-01 8.15546751e-01 8.27163160e-01 1.96240067e-01 9.70583484e-02 2.75460511e-01 1.87570080e-01 1.01273246e-01 8.86078119e-01 9.30852294e-02 9.73895341e-02 8.78031775e-02 8.98040175e-01 9.06454742e-01 9.06725407e-01 9.11494195e-01 8.23920667e-01 8.82142961e-01 9.07413185e-01 9.10971045e-01 8.91016304e-01 8.50224972e-01 7.81341910e-01 7.82517731e-01 8.30109000e-01 8.73907566e-01 8.93012881e-01 9.02302861e-01 9.08981860e-01 9.16192472e-01 9.06003773e-01 8.80936921e-01 8.24701726e-01 7.99803138e-01 2.13086680e-01 1.42197907e-01 3.42354298e-01 3.01368386e-01 8.00177753e-02 8.80640388e-01 8.84834826e-02 9.86468419e-02 1.02855623e-01 1.01349734e-01 9.06664848e-01 9.06973302e-01 9.07878280e-01 8.93033743e-01 8.86916459e-01 9.08957422e-01 9.08932328e-01 9.08885777e-01 9.08901572e-01 9.11822021e-01 9.05949712e-01 8.97573709e-01 8.75404954e-01 7.67747343e-01 4.69233274e-01 2.27679193e-01 1.55751020e-01 1.65978611e-01 2.19763890e-01 3.60475272e-01 4.41223770e-01 1.57781079e-01 1.05054528e-01 1.88325107e-01 2.60642618e-01 2.75161773e-01 1.34730145e-01 8.97694305e-02 9.25718546e-02 1.10757783e-01 1.10036381e-01 9.06880856e-01 9.06422675e-01 8.99824202e-01 3.56235236e-01 2.98855364e-01 9.09755886e-01 9.07969236e-01 9.08003271e-01 9.10691559e-01 8.54609787e-01 7.48295665e-01 5.95087409e-01 2.98428148e-01 1.15558095e-01 9.42940488e-02 9.44121629e-02 9.37057510e-02 9.33672860e-02 9.28498805e-02 8.97220671e-02 8.96864757e-02 9.02409703e-02 
