# vtk DataFile Version 2.0
results/iter1.vtk, Created by Freefem++ 
ASCII
DATASET UNSTRUCTURED_GRID
POINTS 961 float
0 0 0
0.033333333 0 0
0.066666667 0 0
0.1 0 0
0.13333333 0 0
0.16666667 0 0
0.2 0 0
0.23333333 0 0
0.26666667 0 0
0.3 0 0
0.33333333 0 0
0.36666667 0 0
0.4 0 0
0.43333333 0 0
0.46666667 0 0
0.5 0 0
0.53333333 0 0
0.56666667 0 0
0.6 0 0
0.63333333 0 0
0.66666667 0 0
0.7 0 0
0.73333333 0 0
0.76666667 0 0
0.8 0 0
0.83333333 0 0
0.86666667 0 0
0.9 0 0
0.93333333 0 0
0.96666667 0 0
1 0 0
0 0.033333333 0
0.033333333 0.033333333 0
0.066666667 0.033333333 0
0.1 0.033333333 0
0.13333333 0.033333333 0
0.16666667 0.033333333 0
0.2 0.033333333 0
0.23333333 0.033333333 0
0.26666667 0.033333333 0
0.3 0.033333333 0
0.33333333 0.033333333 0
0.36666667 0.033333333 0
0.4 0.033333333 0
0.43333333 0.033333333 0
0.46666667 0.033333333 0
0.5 0.033333333 0
0.53333333 0.033333333 0
0.56666667 0.033333333 0
0.6 0.033333333 0
0.63333333 0.033333333 0
0.66666667 0.033333333 0
0.7 0.033333333 0
0.73333333 0.033333333 0
0.76666667 0.033333333 0
0.8 0.033333333 0
0.83333333 0.033333333 0
0.86666667 0.033333333 0
0.9 0.033333333 0
0.93333333 0.033333333 0
0.96666667 0.033333333 0
1 0.033333333 0
0 0.066666667 0
0.033333333 0.066666667 0
0.066666667 0.066666667 0
0.1 0.066666667 0
0.13333333 0.066666667 0
0.16666667 0.066666667 0
0.2 0.066666667 0
0.23333333 0.066666667 0
0.26666667 0.066666667 0
0.3 0.066666667 0
0.33333333 0.066666667 0
0.36666667 0.066666667 0
0.4 0.066666667 0
0.43333333 0.066666667 0
0.46666667 0.066666667 0
0.5 0.066666667 0
0.53333333 0.066666667 0
0.56666667 0.066666667 0
0.6 0.066666667 0
0.63333333 0.066666667 0
0.66666667 0.066666667 0
0.7 0.066666667 0
0.73333333 0.066666667 0
0.76666667 0.066666667 0
0.8 0.066666667 0
0.83333333 0.066666667 0
0.86666667 0.066666667 0
0.9 0.066666667 0
0.93333333 0.066666667 0
0.96666667 0.066666667 0
1 0.066666667 0
0 0.1 0
0.033333333 0.1 0
0.066666667 0.1 0
0.1 0.1 0
0.13333333 0.1 0
0.16666667 0.1 0
0.2 0.1 0
0.23333333 0.1 0
0.26666667 0.1 0
0.3 0.1 0
0.33333333 0.1 0
0.36666667 0.1 0
0.4 0.1 0
0.43333333 0.1 0
0.46666667 0.1 0
0.5 0.1 0
0.53333333 0.1 0
0.56666667 0.1 0
0.6 0.1 0
0.63333333 0.1 0
0.66666667 0.1 0
0.7 0.1 0
0.73333333 0.1 0
0.76666667 0.1 0
0.8 0.1 0
0.83333333 0.1 0
0.86666667 0.1 0
0.9 0.1 0
0.93333333 0.1 0
0.96666667 0.1 0
1 0.1 0
0 0.13333333 0
0.033333333 0.13333333 0
0.066666667 0.13333333 0
0.1 0.13333333 0
0.13333333 0.13333333 0
0.16666667 0.13333333 0
0.2 0.13333333 0
0.23333333 0.13333333 0
0.26666667 0.13333333 0
0.3 0.13333333 0
0.33333333 0.13333333 0
0.36666667 0.13333333 0
0.4 0.13333333 0
0.43333333 0.13333333 0
0.46666667 0.13333333 0
0.5 0.13333333 0
0.53333333 0.13333333 0
0.56666667 0.13333333 0
0.6 0.13333333 0
0.63333333 0.13333333 0
0.66666667 0.13333333 0
0.7 0.13333333 0
0.73333333 0.13333333 0
0.76666667 0.13333333 0
0.8 0.13333333 0
0.83333333 0.13333333 0
0.86666667 0.13333333 0
0.9 0.13333333 0
0.93333333 0.13333333 0
0.96666667 0.13333333 0
1 0.13333333 0
0 0.16666667 0
0.033333333 0.16666667 0
0.066666667 0.16666667 0
0.1 0.16666667 0
0.13333333 0.16666667 0
0.16666667 0.16666667 0
0.2 0.16666667 0
0.23333333 0.16666667 0
0.26666667 0.16666667 0
0.3 0.16666667 0
0.33333333 0.16666667 0
0.36666667 0.16666667 0
0.4 0.16666667 0
0.43333333 0.16666667 0
0.46666667 0.16666667 0
0.5 0.16666667 0
0.53333333 0.16666667 0
0.56666667 0.16666667 0
0.6 0.16666667 0
0.63333333 0.16666667 0
0.66666667 0.16666667 0
0.7 0.16666667 0
0.73333333 0.16666667 0
0.76666667 0.16666667 0
0.8 0.16666667 0
0.83333333 0.16666667 0
0.86666667 0.16666667 0
0.9 0.16666667 0
0.93333333 0.16666667 0
0.96666667 0.16666667 0
1 0.16666667 0
0 0.2 0
0.033333333 0.2 0
0.066666667 0.2 0
0.1 0.2 0
0.13333333 0.2 0
0.16666667 0.2 0
0.2 0.2 0
0.23333333 0.2 0
0.26666667 0.2 0
0.3 0.2 0
0.33333333 0.2 0
0.36666667 0.2 0
0.4 0.2 0
0.43333333 0.2 0
0.46666667 0.2 0
0.5 0.2 0
0.53333333 0.2 0
0.56666667 0.2 0
0.6 0.2 0
0.63333333 0.2 0
0.66666667 0.2 0
0.7 0.2 0
0.73333333 0.2 0
0.76666667 0.2 0
0.8 0.2 0
0.83333333 0.2 0
0.86666667 0.2 0
0.9 0.2 0
0.93333333 0.2 0
0.96666667 0.2 0
1 0.2 0
0 0.23333333 0
0.033333333 0.23333333 0
0.066666667 0.23333333 0
0.1 0.23333333 0
0.13333333 0.23333333 0
0.16666667 0.23333333 0
0.2 0.23333333 0
0.23333333 0.23333333 0
0.26666667 0.23333333 0
0.3 0.23333333 0
0.33333333 0.23333333 0
0.36666667 0.23333333 0
0.4 0.23333333 0
0.43333333 0.23333333 0
0.46666667 0.23333333 0
0.5 0.23333333 0
0.53333333 0.23333333 0
0.56666667 0.23333333 0
0.6 0.23333333 0
0.63333333 0.23333333 0
0.66666667 0.23333333 0
0.7 0.23333333 0
0.73333333 0.23333333 0
0.76666667 0.23333333 0
0.8 0.23333333 0
0.83333333 0.23333333 0
0.86666667 0.23333333 0
0.9 0.23333333 0
0.93333333 0.23333333 0
0.96666667 0.23333333 0
1 0.23333333 0
0 0.26666667 0
0.033333333 0.26666667 0
0.066666667 0.26666667 0
0.1 0.26666667 0
0.13333333 0.26666667 0
0.16666667 0.26666667 0
0.2 0.26666667 0
0.23333333 0.26666667 0
0.26666667 0.26666667 0
0.3 0.26666667 0
0.33333333 0.26666667 0
0.36666667 0.26666667 0
0.4 0.26666667 0
0.43333333 0.26666667 0
0.46666667 0.26666667 0
0.5 0.26666667 0
0.53333333 0.26666667 0
0.56666667 0.26666667 0
0.6 0.26666667 0
0.63333333 0.26666667 0
0.66666667 0.26666667 0
0.7 0.26666667 0
0.73333333 0.26666667 0
0.76666667 0.26666667 0
0.8 0.26666667 0
0.83333333 0.26666667 0
0.86666667 0.26666667 0
0.9 0.26666667 0
0.93333333 0.26666667 0
0.96666667 0.26666667 0
1 0.26666667 0
0 0.3 0
0.033333333 0.3 0
0.066666667 0.3 0
0.1 0.3 0
0.13333333 0.3 0
0.16666667 0.3 0
0.2 0.3 0
0.23333333 0.3 0
0.26666667 0.3 0
0.3 0.3 0
0.33333333 0.3 0
0.36666667 0.3 0
0.4 0.3 0
0.43333333 0.3 0
0.46666667 0.3 0
0.5 0.3 0
0.53333333 0.3 0
0.56666667 0.3 0
0.6 0.3 0
0.63333333 0.3 0
0.66666667 0.3 0
0.7 0.3 0
0.73333333 0.3 0
0.76666667 0.3 0
0.8 0.3 0
0.83333333 0.3 0
0.86666667 0.3 0
0.9 0.3 0
0.93333333 0.3 0
0.96666667 0.3 0
1 0.3 0
0 0.33333333 0
0.033333333 0.33333333 0
0.066666667 0.33333333 0
0.1 0.33333333 0
0.13333333 0.33333333 0
0.16666667 0.33333333 0
0.2 0.33333333 0
0.23333333 0.33333333 0
0.26666667 0.33333333 0
0.3 0.33333333 0
0.33333333 0.33333333 0
0.36666667 0.33333333 0
0.4 0.33333333 0
0.43333333 0.33333333 0
0.46666667 0.33333333 0
0.5 0.33333333 0
0.53333333 0.33333333 0
0.56666667 0.33333333 0
0.6 0.33333333 0
0.63333333 0.33333333 0
0.66666667 0.33333333 0
0.7 0.33333333 0
0.73333333 0.33333333 0
0.76666667 0.33333333 0
0.8 0.33333333 0
0.83333333 0.33333333 0
0.86666667 0.33333333 0
0.9 0.33333333 0
0.93333333 0.33333333 0
0.96666667 0.33333333 0
1 0.33333333 0
0 0.36666667 0
0.033333333 0.36666667 0
0.066666667 0.36666667 0
0.1 0.36666667 0
0.13333333 0.36666667 0
0.16666667 0.36666667 0
0.2 0.36666667 0
0.23333333 0.36666667 0
0.26666667 0.36666667 0
0.3 0.36666667 0
0.33333333 0.36666667 0
0.36666667 0.36666667 0
0.4 0.36666667 0
0.43333333 0.36666667 0
0.46666667 0.36666667 0
0.5 0.36666667 0
0.53333333 0.36666667 0
0.56666667 0.36666667 0
0.6 0.36666667 0
0.63333333 0.36666667 0
0.66666667 0.36666667 0
0.7 0.36666667 0
0.73333333 0.36666667 0
0.76666667 0.36666667 0
0.8 0.36666667 0
0.83333333 0.36666667 0
0.86666667 0.36666667 0
0.9 0.36666667 0
0.93333333 0.36666667 0
0.96666667 0.36666667 0
1 0.36666667 0
0 0.4 0
0.033333333 0.4 0
0.066666667 0.4 0
0.1 0.4 0
0.13333333 0.4 0
0.16666667 0.4 0
0.2 0.4 0
0.23333333 0.4 0
0.26666667 0.4 0
0.3 0.4 0
0.33333333 0.4 0
0.36666667 0.4 0
0.4 0.4 0
0.43333333 0.4 0
0.46666667 0.4 0
0.5 0.4 0
0.53333333 0.4 0
0.56666667 0.4 0
0.6 0.4 0
0.63333333 0.4 0
0.66666667 0.4 0
0.7 0.4 0
0.73333333 0.4 0
0.76666667 0.4 0
0.8 0.4 0
0.83333333 0.4 0
0.86666667 0.4 0
0.9 0.4 0
0.93333333 0.4 0
0.96666667 0.4 0
1 0.4 0
0 0.43333333 0
0.033333333 0.43333333 0
0.066666667 0.43333333 0
0.1 0.43333333 0
0.13333333 0.43333333 0
0.16666667 0.43333333 0
0.2 0.43333333 0
0.23333333 0.43333333 0
0.26666667 0.43333333 0
0.3 0.43333333 0
0.33333333 0.43333333 0
0.36666667 0.43333333 0
0.4 0.43333333 0
0.43333333 0.43333333 0
0.46666667 0.43333333 0
0.5 0.43333333 0
0.53333333 0.43333333 0
0.56666667 0.43333333 0
0.6 0.43333333 0
0.63333333 0.43333333 0
0.66666667 0.43333333 0
0.7 0.43333333 0
0.73333333 0.43333333 0
0.76666667 0.43333333 0
0.8 0.43333333 0
0.83333333 0.43333333 0
0.86666667 0.43333333 0
0.9 0.43333333 0
0.93333333 0.43333333 0
0.96666667 0.43333333 0
1 0.43333333 0
0 0.46666667 0
0.033333333 0.46666667 0
0.066666667 0.46666667 0
0.1 0.46666667 0
0.13333333 0.46666667 0
0.16666667 0.46666667 0
0.2 0.46666667 0
0.23333333 0.46666667 0
0.26666667 0.46666667 0
0.3 0.46666667 0
0.33333333 0.46666667 0
0.36666667 0.46666667 0
0.4 0.46666667 0
0.43333333 0.46666667 0
0.46666667 0.46666667 0
0.5 0.46666667 0
0.53333333 0.46666667 0
0.56666667 0.46666667 0
0.6 0.46666667 0
0.63333333 0.46666667 0
0.66666667 0.46666667 0
0.7 0.46666667 0
0.73333333 0.46666667 0
0.76666667 0.46666667 0
0.8 0.46666667 0
0.83333333 0.46666667 0
0.86666667 0.46666667 0
0.9 0.46666667 0
0.93333333 0.46666667 0
0.96666667 0.46666667 0
1 0.46666667 0
0 0.5 0
0.033333333 0.5 0
0.066666667 0.5 0
0.1 0.5 0
0.13333333 0.5 0
0.16666667 0.5 0
0.2 0.5 0
0.23333333 0.5 0
0.26666667 0.5 0
0.3 0.5 0
0.33333333 0.5 0
0.36666667 0.5 0
0.4 0.5 0
0.43333333 0.5 0
0.46666667 0.5 0
0.5 0.5 0
0.53333333 0.5 0
0.56666667 0.5 0
0.6 0.5 0
0.63333333 0.5 0
0.66666667 0.5 0
0.7 0.5 0
0.73333333 0.5 0
0.76666667 0.5 0
0.8 0.5 0
0.83333333 0.5 0
0.86666667 0.5 0
0.9 0.5 0
0.93333333 0.5 0
0.96666667 0.5 0
1 0.5 0
0 0.53333333 0
0.033333333 0.53333333 0
0.066666667 0.53333333 0
0.1 0.53333333 0
0.13333333 0.53333333 0
0.16666667 0.53333333 0
0.2 0.53333333 0
0.23333333 0.53333333 0
0.26666667 0.53333333 0
0.3 0.53333333 0
0.33333333 0.53333333 0
0.36666667 0.53333333 0
0.4 0.53333333 0
0.43333333 0.53333333 0
0.46666667 0.53333333 0
0.5 0.53333333 0
0.53333333 0.53333333 0
0.56666667 0.53333333 0
0.6 0.53333333 0
0.63333333 0.53333333 0
0.66666667 0.53333333 0
0.7 0.53333333 0
0.73333333 0.53333333 0
0.76666667 0.53333333 0
0.8 0.53333333 0
[...]
CELL_DATA 1920
Scalars  Label int 1
LOOKUP_TABLE FreeFempp_table
0
0
0
0
0
0
0
0
0
0
0
0
0
0
0
0
0
0
0
0
0
0
0
0
0
0
0
0
0
0
0
0
0
0
0
0
0
0
0
0
0
0
0
0
0
0
0
0
0
0
0
0
0
0
0
0
0
0
0
0
0
0
0
0
0
0
0
0
0
0
0
0
0
0
0
0
0
0
0
0
0
0
0
0
0
0
0
0
0
0
0
0
0
0
0
0
0
0
0
0
0
0
0
0
0
0
0
0
0
0
0
0
0
0
0
0
0
0
0
0
0
0
0
0
0
0
0
0
0
0
0
0
0
0
0
0
0
0
0
0
0
0
0
0
0
0
0
0
0
0
0
0
0
0
0
0
0
0
0
0
0
0
0
0
0
0
0
0
0
0
0
0
0
0
0
0
0
0
0
0
0
0
0
0
0
0
0
0
0
0
0
0
0
0
0
0
0
0
0
0
0
0
0
0
0
0
0
0
0
0
0
0
0
0
0
0
0
0
0
0
0
0
0
0
0
0
0
0
0
0
0
0
0
0
0
0
0
0
0
0
0
0
0
0
0
0
0
0
0
0
0
0
0
0
0
0
0
0
0
0
0
0
0
0
0
0
0
0
0
0
0
0
0
0
0
0
0
0
0
0
0
0
0
0
0
0
0
0
0
0
0
0
0
0
0
0
0
0
0
0
0
0
0
0
0
0
0
0
0
0
0
0
0
0
0
0
0
0
0
0
0
0
0
0
0
0
0
0
0
0
0
0
0
0
0
0
0
0
0
0
0
0
0
0
0
0
0
0
0
0
0
0
0
0
0
0
0
0
0
0
0
0
0
0
0
0
0
0
0
0
0
0
0
0
0
0
0
0
0
0
0
0
0
0
0
0
0
0
0
0
0
0
0
0
0
0
0
0
0
0
0
0
0
0
0
0
0
0
0
0
0
0
0
0
0
0
0
0
0
0
0
0
0
0
0
0
0
0
0
0
0
0
0
0
0
0
0
0
0
0
0
0
0
0
0
0
0
0
0
0
0
0
0
0
0
0
0
0
0
0
0
0
0
0
0
0
0
0
0
0
0
0
0
0
0
0
0
0
0
0
0
0
0
0
0
0
0
0
0
0
0
0
0
0
0
0
0
0
0
0
0
0
0
0
0
0
0
0
0
0
0
0
0
0
0
0
0
0
0
0
0
0
0
0
0
0
0
0
0
0
0
0
0
0
0
0
0
0
0
0
0
0
0
0
0
0
0
0
0
0
0
0
0
0
0
0
0
0
0
0
0
0
0
0
0
0
0
0
0
0
0
0
0
0
0
0
0
0
0
0
0
0
0
0
0
0
0
0
0
0
0
0
0
0
0
0
0
0
0
0
0
0
0
0
0
0
0
0
0
0
0
0
0
0
0
0
0
0
0
0
0
0
0
0
0
0
0
0
0
0
0
0
0
0
0
0
0
0
0
0
0
0
0
0
0
0
0
0
0
0
0
0
0
0
0
0
0
0
0
0
0
0
0
0
0
0
0
0
0
0
0
0
0
0
0
0
0
0
0
0
0
0
0
0
0
0
0
0
0
0
0
0
0
0
0
0
0
0
0
0
0
0
0
0
0
0
0
0
0
0
0
0
0
0
0
0
0
0
0
0
0
0
0
0
0
0
0
0
0
0
0
0
0
0
0
0
0
0
0
0
0
0
0
0
0
0
0
0
0
0
0
0
0
0
0
0
0
0
0
0
0
0
0
0
0
0
0
0
0
0
0
0
0
0
0
0
0
0
0
0
0
0
0
0
0
0
0
0
0
0
0
0
0
0
0
0
0
0
0
0
0
0
0
0
0
0
0
0
0
0
0
0
0
0
0
0
0
0
0
0
0
0
0
0
0
0
0
0
0
0
0
0
0
0
0
0
0
0
0
0
0
0
0
0
0
0
0
0
0
0
0
0
0
0
0
0
0
0
0
0
0
0
0
0
0
0
0
0
0
0
0
0
0
0
0
0
0
0
0
0
0
0
0
0
0
0
0
0
0
0
0
0
0
0
0
0
0
0
0
0
0
0
0
0
0
0
0
0
0
0
0
0
0
0
0
0
0
0
0
0
0
0
0
0
0
0
0
0
0
0
0
0
0
0
0
0
0
0
0
0
0
0
0
0
0
0
0
0
0
0
0
0
0
0
0
0
0
0
0
0
0
0
0
0
0
0
0
0
0
0
0
0
0
0
0
0
0
0
0
0
0
0
0
0
0
0
0
0
0
0
0
0
0
0
0
0
0
0
0
0
0
0
0
0
0
0
0
0
0
0
0
0
0
0
0
0
0
0
0
0
0
0
0
0
0
0
0
0
0
0
0
0
0
0
0
0
0
0
0
0
0
0
0
0
0
0
0
0
0
0
0
0
0
0
0
0
0
0
0
0
0
0
0
0
0
0
0
0
0
0
0
0
0
0
0
0
0
0
0
0
0
0
0
0
0
0
0
0
0
0
0
0
0
0
0
0
0
0
0
0
0
0
0
0
0
0
0
0
0
0
0
0
0
0
0
0
0
0
0
0
0
0
0
0
0
0
0
0
0
0
0
0
0
0
0
0
0
0
0
0
0
0
0
0
0
0
0
0
0
0
0
0
0
0
0
0
0
0
0
0
0
0
0
0
0
0
0
0
0
0
0
0
0
0
0
0
0
0
0
0
0
0
0
0
0
0
0
0
0
0
0
0
0
0
0
0
0
0
0
0
0
0
0
0
0
0
0
0
0
0
0
0
0
0
0
0
0
0
0
0
0
0
0
0
0
0
0
0
0
0
0
0
0
0
0
0
0
0
0
0
0
0
0
0
0
0
0
0
0
0
0
0
0
0
0
0
0
0
0
0
0
0
0
0
0
0
0
0
0
0
0
0
0
0
0
0
0
0
0
0
0
0
0
0
0
0
0
0
0
0
0
0
0
0
0
0
0
0
0
0
0
0
0
0
0
0
0
0
0
0
0
0
0
0
0
0
0
0
0
0
0
0
0
0
0
0
0
0
0
0
0
0
0
0
0
0
0
0
0
0
0
0
0
0
0
0
0
0
0
0
0
0
0
0
0
0
0
0
0
0
0
0
0
0
0
0
0
0
0
0
0
0
0
0
0
0
0
0
0
0
0
0
0
0
0
0
0
0
0
0
0
0
0
0
0
0
0
0
0
0
0
0
0
0
0
0
0
0
0
0
0
0
0
0
0
0
0
0
0
0
0
0
0
0
0
0
0
0
0
0
0
0
0
0
0
0
0
0
0
0
0
0
0
0
0
0
0
0
0
0
0
0
0
0
0
0
0
0
0
0
0
0
0
0
0
0
0
0
0
0
0
0
0
0
0
0
0
0
0
0
0
0
0
0
0
0
0
0
0
0
0
0
0
0
0
0
0
0
0
0
0
0
0
0
0
0
0
0
0
0
0
0
0
0
0
0
0
0
0
0
0
0
0
0
0
0
0
0
0
0
0
0
0
0
0
0
0
0
0
0
0
0
0
0
0
0
0
0
0
0
0
0
0
0
0
0
0
0
0
0
0
0
0
0
0
0
0
0
0
0
0
0
0
0
0
0
0
0
0
0
0
0
0
0
0
0
0
0
0
0
0
0
0
0
0
0
0
0
0
0
0
0
0
0
0
0
0
0
0
0
0
0
0
0
0
0
0
0
0
0
0
0
0
0
0
0
0
0
0
0
0
0
0
0
0
0
0
0
0
0
0
0
0
0
0
0
0
0
0
0
0
0
0
0
0
0
0
0
0
0
0
0
0
0
0
0
0
0
0
0
0
0
0
0
0
0
0
0
0
0
0
0
0
0
0
0
0
0
0
0
0
0
0
0
0
0
0
0
0
0
0
0
0
0
0
0
0
0
0
0
0
0
0
0
0
0
0
0
0
0
0
0
0
0
0
0
0
0
0
0
0
0
0
0
0
0
0
0
0
0
0
0
0
0
0
0
0
0
0
0
0
0
0
0
0
0
0
0
0
0
0
0
0
0
0
0
0
0
0
0
0
0
0
0
0
0
0
0
0
0
0
0
0
0
0
0
0
0
0
0
0
0
0
0
0
0
0
0
0
0
1
1
1
1
1
1
1
1
1
1
1
1
1
1
1
1
1
1
1
1
1
1
1
1
1
1
1
1
1
1
2
2
2
2
2
2
2
2
2
2
2
2
2
2
2
2
2
2
2
2
2
2
2
2
2
2
2
2
2
2
3
3
3
3
3
3
3
3
3
3
3
3
3
3
3
3
3
3
3
3
3
3
3
3
3
3
3
3
3
3
4
4
4
4
4
4
4
4
4
4
4
4
4
4
4
4
4
4
4
4
4
4
4
4
4
4
4
4
4
4

LOOKUP_TABLE FreeFempp_table 5
1.00000000 0.00000000 0.00000000 1.00000000
1.00000000 1.00000000 0.00000000 1.00000000
1.00000000 0.00000000 1.00000000 1.00000000
0.00000000 1.00000000 0.00000000 1.00000000
0.00000000 1.00000000 1.00000000 1.00000000

POINT_DATA 961
FIELD FieldData 1
Density 1 961 float
3.79008323e-01 3.54405969e-01 3.82249594e-01 3.85991633e-01 3.78245026e-01 3.62813860e-01 3.28077465e-01 1.90802231e-01 1.09167257e-02 4.39864444e-03 9.31946933e-03 1.50993451e-01 3.27977300e-01 3.80697280e-01 4.43646967e-01 6.29847586e-01 8.10715139e-01 7.72743702e-01 6.88335776e-01 7.68023074e-01 7.84006119e-01 7.67018914e-01 7.56299973e-01 7.41419375e-01 7.22059548e-01 7.04659998e-01 6.87997401e-01 6.66964531e-01 6.59764409e-01 6.62247896e-01 6.09567583e-01 5.96624624e-04 2.11681813e-01 2.93556690e-01 2.97874570e-01 2.88354844e-01 2.73638099e-01 2.46375442e-01 1.65806592e-01 1.45787280e-02 3.57211428e-03 4.05650632e-03 6.53015971e-02 2.39610568e-01 2.84171343e-01 3.18065286e-01 5.33493400e-01 8.88135314e-01 7.29799330e-01 2.64075100e-01 6.58496141e-01 8.17152977e-01 8.15398455e-01 8.00625861e-01 7.95263767e-01 7.83426523e-01 7.67185390e-01 7.46318698e-01 7.20859945e-01 7.08321095e-01 6.97846472e-01 6.56648517e-01 4.21841920e-04 3.59452592e-04 5.50052267e-04 5.39398519e-04 5.44161478e-04 5.52623766e-04 5.63859125e-04 5.77079365e-04 5.81513741e-04 5.83235291e-04 5.00788505e-04 2.70668957e-02 2.70791143e-01 3.13635916e-01 3.03692162e-01 3.61524493e-01 8.18358064e-01 4.13471200e-02 9.15650278e-03 1.17684882e-02 1.06189670e-02 1.76588316e-02 5.69472797e-02 1.76755607e-01 3.12178105e-01 4.14969712e-01 4.79622394e-01 5.30912995e-01 5.63674152e-01 5.58121622e-01 5.91354370e-01 4.16479796e-01 5.28606819e-04 5.72268327e-04 5.34094870e-04 5.40597481e-04 5.46403870e-04 5.56102314e-04 5.67945594e-04 5.80789230e-04 6.01763895e-04 3.62444844e-04 3.57530429e-04 5.02401846e-04 5.35434345e-04 5.50902449e-04 2.00688243e-01 4.35230315e-01 9.26442325e-01 9.59632918e-03 9.21624806e-03 4.47047828e-03 2.95317452e-03 2.18726625e-03 2.27708719e-03 3.63585795e-03 2.25672890e-02 1.68426946e-01 3.06767881e-01 3.74451071e-01 4.07498837e-01 5.03719151e-01 4.12067205e-01 2.06703886e-01 1.13767356e-01 1.34644061e-01 2.09343314e-01 2.52164483e-01 2.76997268e-01 3.00392687e-01 3.21546912e-01 3.30326438e-01 2.73000389e-01 5.24800911e-04 5.37727785e-04 4.63195669e-04 5.45256189e-04 4.75818524e-04 6.61555910e-04 1.60827418e-03 9.92294967e-01 2.24375222e-02 1.03810709e-02 4.80274344e-03 2.76420196e-03 1.87894050e-03 1.47768541e-03 1.36443146e-03 7.06439791e-03 9.59981009e-02 2.20684946e-01 2.59134173e-01 3.97373766e-01 4.08488989e-01 2.38142073e-01 1.50059894e-01 1.41222596e-01 2.05131456e-01 2.61464387e-01 2.89553136e-01 3.10744286e-01 3.29678863e-01 3.44401091e-01 3.48410130e-01 3.45049560e-01 3.41716319e-01 2.84811825e-01 6.91170571e-03 6.84459636e-04 5.29500074e-04 5.59182139e-04 6.18675607e-04 9.84520376e-01 4.76493269e-01 2.22458780e-01 1.59703359e-01 3.78768258e-02 4.98177204e-03 1.18755270e-03 1.06169609e-03 6.06366340e-03 8.92573074e-02 1.54571816e-01 2.35154033e-01 4.36849684e-01 2.88258433e-01 2.45806918e-01 2.32437789e-01 2.65119940e-01 3.16614479e-01 3.43957305e-01 3.60908657e-01 3.74709308e-01 3.86331439e-01 3.93560439e-01 3.94507617e-01 3.96303058e-01 4.01975155e-01 3.94563049e-01 3.78872037e-01 3.22074324e-01 1.75820373e-03 5.36876556e-04 5.46612777e-04 9.64884758e-01 9.36865807e-01 8.92143309e-01 7.52899230e-01 3.46047699e-01 4.45731319e-02 1.15341833e-03 1.03825342e-03 1.08494274e-02 1.16287328e-01 1.70471624e-01 4.93241787e-01 3.73467207e-01 3.57201785e-01 3.47901165e-01 3.62560779e-01 3.98044616e-01 4.19665307e-01 4.33204293e-01 4.43637609e-01 4.51869130e-01 4.56931919e-01 4.58219469e-01 4.58139837e-01 4.58514750e-01 4.57258850e-01 4.55671489e-01 4.50166225e-01 4.32941377e-01 3.53946686e-01 6.36015146e-04 7.00806966e-04 6.60979450e-01 9.01882768e-01 8.83534312e-01 9.05043364e-01 6.77787781e-01 1.66929085e-02 1.11858756e-03 1.73949695e-03 1.04645424e-01 2.18044370e-01 5.85110724e-01 5.25129914e-01 5.20426512e-01 5.11984229e-01 5.12976646e-01 5.23492038e-01 5.28264821e-01 5.31199574e-01 5.33067763e-01 5.33483326e-01 5.31909406e-01 5.28474569e-01 5.24406970e-01 5.20402551e-01 5.16575336e-01 5.13989508e-01 5.11207342e-01 5.05252361e-01 4.92697150e-01 4.47475374e-01 6.75291463e-04 5.13282546e-04 6.08303724e-03 8.52685943e-02 1.32083684e-01 8.87350678e-01 9.62654114e-01 1.65778131e-03 8.94994650e-04 6.05470911e-02 3.47465098e-01 6.73245966e-01 7.04647064e-01 6.99009836e-01 6.87270164e-01 6.73672020e-01 6.58289135e-01 6.43576086e-01 6.31732643e-01 6.21527255e-01 6.11926794e-01 6.02365851e-01 5.92969596e-01 5.84314823e-01 5.76709867e-01 5.70631266e-01 5.66856146e-01 5.64866841e-01 5.64040780e-01 5.64326346e-01 5.61203182e-01 5.12985528e-01 8.72009608e-04 1.19611004e-03 1.81819499e-03 4.16644430e-03 2.48523243e-02 9.82095778e-01 7.37705687e-03 8.87178874e-04 1.74786069e-03 3.90750796e-01 6.94797337e-01 7.72749603e-01 7.62164354e-01 7.52449155e-01 7.39362121e-01 7.23216414e-01 7.05895364e-01 6.89515769e-01 6.74245179e-01 6.59882069e-01 6.46259367e-01 6.33572876e-01 6.22181594e-01 6.12323701e-01 6.04431748e-01 5.99038482e-01 5.96228421e-01 5.96487463e-01 6.01109803e-01 6.12083077e-01 6.29436195e-01 6.10156834e-01 3.03467293e-03 1.45805173e-03 2.22509424e-03 4.08618618e-03 2.67664120e-02 9.94924188e-01 1.05088681e-03 7.73018226e-04 3.43538135e-01 6.24859095e-01 7.12256730e-01 7.06463099e-01 7.10648239e-01 7.11056292e-01 7.07284212e-01 6.99834466e-01 6.90070868e-01 6.78945661e-01 6.67050958e-01 6.54842794e-01 6.42880023e-01 6.31665587e-01 6.21523917e-01 6.12778008e-01 6.05731785e-01 6.00678504e-01 5.98572671e-01 6.01470947e-01 6.12972975e-01 6.38363719e-01 6.91816270e-01 7.38193810e-01 8.38023797e-02 1.67116746e-02 5.68650011e-03 7.21786404e-03 2.15211809e-01 9.84085619e-01 6.62381761e-04 8.98561382e-04 4.88532484e-01 4.77407843e-01 4.98869419e-01 5.38249850e-01 5.80131710e-01 6.12811983e-01 6.33136570e-01 6.43034935e-01 6.45211458e-01 6.42111361e-01 6.35714352e-01 6.27617598e-01 6.18968248e-01 6.10468090e-01 6.02512300e-01 5.95237553e-01 5.88689566e-01 5.83323658e-01 5.80495358e-01 5.83141088e-01 5.96774459e-01 6.32104635e-01 7.30960131e-01 8.00803423e-01 2.56369323e-01 6.31929040e-02 6.79828832e-03 8.62097833e-03 9.67934728e-01 1.34604587e-03 1.01107103e-03 3.63441914e-01 2.65237063e-01 2.80517429e-01 3.23792070e-01 3.89061898e-01 4.63599801e-01 5.26107848e-01 5.67912936e-01 5.91186345e-01 6.01340294e-01 6.03200853e-01 6.00298405e-01 5.95009923e-01 5.88834167e-01 5.82640350e-01 5.76785862e-01 5.71238995e-01 5.65745771e-01 5.59909761e-01 5.53447366e-01 5.47125280e-01 5.45800924e-01 5.67282140e-01 6.55587196e-01 7.03921139e-01 3.45871359e-01 5.28834909e-02 1.10391073e-01 9.70288455e-01 1.42925594e-03 1.28499058e-03 2.66933978e-01 1.36554956e-01 1.36761770e-01 1.71888933e-01 2.35608414e-01 3.26796979e-01 4.21046644e-01 4.93021518e-01 5.37567616e-01 5.61018288e-01 5.70809424e-01 5.72438180e-01 5.69564223e-01 5.64590931e-01 5.59098542e-01 5.54066658e-01 5.49978197e-01 5.46768785e-01 5.43521345e-01 5.37962437e-01 5.25984824e-01 5.03148854e-01 4.71199006e-01 4.54288274e-01 4.86769766e-01 5.67604721e-01 3.98035437e-01 6.44139230e-01 9.77031052e-01 1.63430499e-03 1.46358274e-03 1.96980283e-01 7.15922192e-02 6.51940778e-02 8.68560523e-02 1.39493361e-01 2.34426349e-01 3.47581506e-01 4.39542711e-01 4.98663068e-01 5.31492293e-01 5.46947062e-01 5.51588714e-01 5.49761832e-01 5.44415653e-01 5.37682295e-01 5.31184435e-01 5.26151597e-01 5.23330331e-01 5.22664249e-01 5.22796094e-01 5.20269573e-01 5.08859515e-01 4.80985194e-01 4.41527456e-01 4.16658401e-01 4.74710464e-01 5.73921919e-01 8.12846363e-01 9.60735619e-01 1.83988165e-03 1.66666519e-03 1.41837031e-01 4.00313400e-02 3.51457968e-02 4.97039706e-02 9.30366665e-02 1.87167749e-01 3.10738683e-01 4.12680328e-01 4.78190601e-01 5.15430629e-01 5.33973694e-01 5.40412426e-01 5.39028287e-01 5.32801807e-01 5.24060071e-01 5.14834940e-01 5.06993413e-01 5.02100527e-01 5.01085341e-01 5.03963649e-01 5.09683371e-01 5.15989602e-01 5.19025624e-01 5.15640795e-01 5.10730624e-01 5.45619607e-01 6.84514761e-01 8.67635727e-01 9.22898829e-01 2.05938611e-03 1.88243901e-03 8.92790481e-02 2.32059471e-02 2.15385761e-02 3.40091027e-02 7.84630701e-02 1.79192230e-01 3.07417452e-01 4.08644438e-01 4.72887784e-01 5.10292768e-01 5.29926002e-01 5.37553549e-01 5.36849320e-01 5.30433595e-01 5.20514011e-01 5.09270966e-01 4.99016225e-01 4.92033333e-01 4.90086496e-01 4.94023055e-01 5.03845394e-01 5.18982351e-01 5.38276851e-01 5.60763121e-01 5.95098078e-01 6.42887115e-01 7.69213259e-01 9.01863098e-01 8.30549657e-01 2.29950692e-03 2.10680114e-03 4.46736105e-02 1.44206258e-02 1.48937814e-02 2.84001157e-02 8.56679231e-02 2.05171511e-01 3.30989301e-01 4.20620441e-01 4.77177978e-01 5.11547625e-01 5.30942678e-01 5.39662004e-01 5.40411830e-01 5.35187662e-01 5.25861442e-01 5.14554381e-01 5.03757179e-01 4.96139735e-01 4.94024098e-01 4.98810261e-01 5.10941207e-01 5.30252576e-01 5.54932296e-01 5.85775018e-01 6.38090670e-01 7.29192913e-01 8.37534130e-01 8.92463565e-01 5.35300136e-01 2.59942235e-03 2.35505775e-03 2.01992765e-02 9.84534342e-03 1.13827689e-02 3.00927646e-02 1.17452279e-01 2.59270400e-01 3.69644582e-01 4.40161675e-01 4.85388666e-01 5.14802992e-01 5.33220112e-01 5.43274701e-01 5.46527803e-01 5.44154942e-01 5.37490845e-01 5.28428257e-01 5.19453943e-01 5.13142824e-01 5.11487722e-01 5.15935302e-01 5.27836800e-01 5.48821986e-01 5.78044236e-01 6.18211329e-01 6.88695252e-01 7.84633338e-01 8.56752753e-01 8.03828418e-01 4.45267856e-02 3.04673030e-03 2.64174421e-03 9.88045800e-03 7.47817243e-03 9.86556895e-03 4.16286625e-02 1.81415781e-01 3.26538831e-01 4.09753233e-01 4.59474653e-01 4.92857814e-01 5.16793489e-01 5.34008026e-01 5.45695961e-01 5.52361727e-01 5.54343224e-01 5.52273452e-01 5.47534585e-01 5.42401314e-01 5.39159894e-01 5.38834572e-01 5.42302608e-01 5.54178178e-01 5.78762114e-01 6.13717854e-01 6.66343868e-01 7.48821855e-01 8.18068922e-01 8.27423155e-01 4.04136151e-01 1.30081279e-02 4.10836143e-03 3.37439612e-03 5.59118297e-03 5.86326094e-03 1.02378037e-02 7.42340535e-02 2.69775152e-01 3.87783140e-01 4.41985816e-01 4.73621875e-01 4.96689826e-01 5.15706062e-01 5.31880498e-01 5.45341492e-01 5.55882514e-01 5.63320041e-01 5.67727029e-01 5.69688559e-01 5.70489347e-01 5.71474969e-01 5.73142946e-01 5.78803718e-01 5.98507524e-01 6.34937644e-01 6.73970401e-01 7.23855436e-01 7.88316190e-01 8.01869452e-01 6.03199303e-01 2.73252241e-02 6.64368598e-03 5.25926519e-03 5.56226028e-03 3.64353182e-03 4.35574260e-03 1.36928475e-02 1.45802498e-01 3.55078965e-01 4.32765961e-01 4.62896883e-01 4.80551451e-01 4.95715380e-01 5.11022568e-01 5.26555598e-01 5.41713476e-01 5.55950344e-01 5.68930030e-01 5.80389082e-01 5.89903772e-01 5.96850336e-01 6.01039708e-01 6.04939520e-01 6.19259357e-01 6.62072957e-01 7.22940087e-01 7.53535151e-01 7.59253025e-01 7.40836918e-01 5.65684736e-01 4.38080914e-02 1.10181049e-02 6.41186023e-03 6.72309985e-03 1.43595403e-02 2.73925159e-03 3.21763917e-03 2.48485599e-02 2.50765324e-01 4.18496162e-01 4.60402638e-01 4.72350299e-01 4.80004966e-01 4.89898920e-01 5.02938390e-01 5.18236160e-01 5.34713566e-01 5.51685393e-01 5.68821311e-01 5.85811198e-01 6.02039754e-01 6.16882443e-01 6.31660521e-01 6.53691173e-01 6.94108844e-01 7.56088972e-01 8.09111893e-01 8.04829776e-01 6.98300064e-01 1.32178083e-01 1.52346985e-02 9.90376808e-03 8.54675658e-03 8.95136781e-03 1.41994217e-02 9.57339406e-02 2.30380520e-03 2.58188532e-03 6.13370761e-02 3.53288710e-01 4.58593249e-01 4.72117573e-01 4.71039832e-01 4.72568870e-01 4.79751974e-01 4.91773337e-01 5.06994426e-01 5.24123192e-01 5.42449534e-01 5.61728537e-01 5.82055151e-01 6.03929102e-01 6.28722429e-01 6.59547269e-01 7.01558530e-01 7.52174616e-01 8.05387676e-01 7.92486131e-01 7.66143322e-01 4.52039599e-01 6.17760792e-02 1.99096277e-02 1.09473811e-02 1.08779538e-02 1.90354157e-02 1.01281404e-01 3.85352015e-01 2.06159940e-03 2.23201071e-03 1.45134434e-01 4.29427654e-01 4.78046417e-01 4.69527036e-01 4.60393727e-01 4.59507525e-01 4.66060072e-01 4.77737427e-01 4.92647350e-01 5.09659111e-01 5.28184831e-01 5.48060000e-01 5.69799304e-01 5.95070899e-01 6.26697004e-01 6.67238414e-01 7.16019988e-01 7.67448664e-01 8.08130920e-01 8.39532375e-01 7.63380110e-01 5.98682106e-01 1.64035350e-01 5.16652428e-02 8.68047550e-02 3.84852678e-01 6.71489477e-01 7.51007140e-01 6.53542280e-01 1.90341484e-03 2.02277326e-03 2.50794470e-01 4.76304740e-01 4.78118628e-01 4.54839617e-01 4.43014175e-01 4.42760646e-01 4.49763268e-01 4.60952491e-01 4.74891245e-01 4.91057217e-01 5.09185433e-01 5.29092371e-01 5.51112890e-01 5.76853335e-01 6.09188139e-01 6.50110245e-01 6.97193444e-01 7.43479371e-01 7.82852113e-01 8.09596181e-01 8.29377890e-01 8.15083504e-01 7.35832036e-01 7.33084679e-01 8.28167498e-01 8.68468881e-01 8.51813316e-01 8.43216538e-01 7.48063087e-01 1.77339860e-03 1.88105879e-03 3.48872304e-01 4.95674044e-01 4.60253298e-01 4.31746423e-01 4.22550052e-01 4.24669027e-01 4.31896478e-01 4.41635907e-01 4.53556120e-01 4.68085766e-01 4.85535294e-01 5.05779147e-01 5.28445482e-01 5.53574562e-01 5.82207382e-01 6.15654409e-01 6.53233051e-01 6.91590250e-01 7.27676749e-01 7.60933936e-01 7.89784193e-01 8.11522961e-01 8.15540195e-01 8.22745860e-01 8.30501318e-01 8.24933112e-01 8.07855964e-01 8.02621961e-01 7.27621555e-01 1.59865746e-03 1.77064142e-03 4.33107734e-01 4.85927522e-01 4.30842161e-01 4.07495826e-01 4.04062927e-01 4.08020228e-01 4.13812846e-01 4.20420438e-01 4.28765982e-01 4.40192819e-01 4.55790192e-01 4.76010889e-01 5.00363529e-01 5.27383626e-01 5.55245399e-01 5.82805097e-01 6.09979331e-01 6.37058616e-01 6.63765848e-01 6.88632011e-01 7.10175037e-01 7.22581208e-01 7.17018425e-01 6.99866951e-01 6.80619538e-01 6.67226613e-01 6.65428162e-01 6.73412383e-01 6.53957605e-01 1.38291868e-03 1.57294772e-03 5.09455502e-01 4.59936023e-01 4.08309191e-01 3.92941862e-01 3.91268343e-01 3.92180890e-01 3.92859519e-01 3.93835992e-01 3.96719038e-01 4.03431565e-01 4.15948987e-01 4.35987562e-01 4.64392155e-01 5.00225484e-01 5.40056586e-01 5.78429282e-01 6.09766185e-01 6.30215406e-01 6.37846112e-01 6.32797718e-01 6.21075690e-01 6.08581960e-01 5.94389915e-01 5.77784896e-01 5.61430275e-01 5.49473643e-01 5.42016387e-01 5.45321405e-01 5.83513081e-01 2.52310489e-03 1.80336426e-03 7.09786892e-01 5.24274766e-01 5.00208020e-01 4.87775713e-01 4.82536763e-01 4.79570150e-01 4.77020651e-01 4.74910080e-01 4.74060088e-01 4.75716859e-01 4.81322289e-01 4.92199749e-01 5.09109497e-01 5.31726599e-01 5.58211505e-01 5.85124791e-01 6.07858896e-01 6.21493757e-01 6.21984482e-01 6.08576059e-01 5.87335825e-01 5.67408323e-01 5.54736853e-01 5.49430132e-01 5.48552752e-01 5.46023190e-01 5.39786696e-01 5.33612490e-01 5.54835320e-01 
