# vtk DataFile Version 2.0
results/iter3.vtk, Created by Freefem++ 
ASCII
DATASET UNSTRUCTURED_GRID
POINTS 961 float
0 0 0
0.033333333 0 0
0.066666667 0 0
0.1 0 0
0.13333333 0 0
0.16666667 0 0
0.2 0 0
0.23333333 0 0
0.26666667 0 0
0.3 0 0
0.33333333 0 0
0.36666667 0 0
0.4 0 0
0.43333333 0 0
0.46666667 0 0
0.5 0 0
0.53333333 0 0
0.56666667 0 0
0.6 0 0
0.63333333 0 0
0.66666667 0 0
0.7 0 0
0.73333333 0 0
0.76666667 0 0
0.8 0 0
0.83333333 0 0
0.86666667 0 0
0.9 0 0
0.93333333 0 0
0.96666667 0 0
1 0 0
0 0.033333333 0
0.033333333 0.033333333 0
0.066666667 0.033333333 0
0.1 0.033333333 0
0.13333333 0.033333333 0
0.16666667 0.033333333 0
0.2 0.033333333 0
0.23333333 0.033333333 0
0.26666667 0.033333333 0
0.3 0.033333333 0
0.33333333 0.033333333 0
0.36666667 0.033333333 0
0.4 0.033333333 0
0.43333333 0.033333333 0
0.46666667 0.033333333 0
0.5 0.033333333 0
0.53333333 0.033333333 0
0.56666667 0.033333333 0
0.6 0.033333333 0
0.63333333 0.033333333 0
0.66666667 0.033333333 0
0.7 0.033333333 0
0.73333333 0.033333333 0
0.76666667 0.033333333 0
0.8 0.033333333 0
0.83333333 0.033333333 0
0.86666667 0.033333333 0
0.9 0.033333333 0
0.93333333 0.033333333 0
0.96666667 0.033333333 0
1 0.033333333 0
0 0.066666667 0
0.033333333 0.066666667 0
0.066666667 0.066666667 0
0.1 0.066666667 0
0.13333333 0.066666667 0
0.16666667 0.066666667 0
0.2 0.066666667 0
0.23333333 0.066666667 0
0.26666667 0.066666667 0
0.3 0.066666667 0
0.33333333 0.066666667 0
0.36666667 0.066666667 0
0.4 0.066666667 0
0.43333333 0.066666667 0
0.46666667 0.066666667 0
0.5 0.066666667 0
0.53333333 0.066666667 0
0.56666667 0.066666667 0
0.6 0.066666667 0
0.63333333 0.066666667 0
0.66666667 0.066666667 0
0.7 0.066666667 0
0.73333333 0.066666667 0
0.76666667 0.066666667 0
0.8 0.066666667 0
0.83333333 0.066666667 0
0.86666667 0.066666667 0
0.9 0.066666667 0
0.93333333 0.066666667 0
0.96666667 0.066666667 0
1 0.066666667 0
0 0.1 0
0.033333333 0.1 0
0.066666667 0.1 0
0.1 0.1 0
0.13333333 0.1 0
0.16666667 0.1 0
0.2 0.1 0
0.23333333 0.1 0
0.26666667 0.1 0
0.3 0.1 0
0.33333333 0.1 0
0.36666667 0.1 0
0.4 0.1 0
0.43333333 0.1 0
0.46666667 0.1 0
0.5 0.1 0
0.53333333 0.1 0
0.56666667 0.1 0
0.6 0.1 0
0.63333333 0.1 0
0.66666667 0.1 0
0.7 0.1 0
0.73333333 0.1 0
0.76666667 0.1 0
0.8 0.1 0
0.83333333 0.1 0
0.86666667 0.1 0
0.9 0.1 0
0.93333333 0.1 0
0.96666667 0.1 0
1 0.1 0
0 0.13333333 0
0.033333333 0.13333333 0
0.066666667 0.13333333 0
0.1 0.13333333 0
0.13333333 0.13333333 0
0.16666667 0.13333333 0
0.2 0.13333333 0
0.23333333 0.13333333 0
0.26666667 0.13333333 0
0.3 0.13333333 0
0.33333333 0.13333333 0
0.36666667 0.13333333 0
0.4 0.13333333 0
0.43333333 0.13333333 0
0.46666667 0.13333333 0
0.5 0.13333333 0
0.53333333 0.13333333 0
0.56666667 0.13333333 0
0.6 0.13333333 0
0.63333333 0.13333333 0
0.66666667 0.13333333 0
0.7 0.13333333 0
0.73333333 0.13333333 0
0.76666667 0.13333333 0
0.8 0.13333333 0
0.83333333 0.13333333 0
0.86666667 0.13333333 0
0.9 0.13333333 0
0.93333333 0.13333333 0
0.96666667 0.13333333 0
1 0.13333333 0
0 0.16666667 0
0.033333333 0.16666667 0
0.066666667 0.16666667 0
0.1 0.16666667 0
0.13333333 0.16666667 0
0.16666667 0.16666667 0
0.2 0.16666667 0
0.23333333 0.16666667 0
0.26666667 0.16666667 0
0.3 0.16666667 0
0.33333333 0.16666667 0
0.36666667 0.16666667 0
0.4 0.16666667 0
0.43333333 0.16666667 0
0.46666667 0.16666667 0
0.5 0.16666667 0
0.53333333 0.16666667 0
0.56666667 0.16666667 0
0.6 0.16666667 0
0.63333333 0.16666667 0
0.66666667 0.16666667 0
0.7 0.16666667 0
0.73333333 0.16666667 0
0.76666667 0.16666667 0
0.8 0.16666667 0
0.83333333 0.16666667 0
0.86666667 0.16666667 0
0.9 0.16666667 0
0.93333333 0.16666667 0
0.96666667 0.16666667 0
1 0.16666667 0
0 0.2 0
0.033333333 0.2 0
0.066666667 0.2 0
0.1 0.2 0
0.13333333 0.2 0
0.16666667 0.2 0
0.2 0.2 0
0.23333333 0.2 0
0.26666667 0.2 0
0.3 0.2 0
0.33333333 0.2 0
0.36666667 0.2 0
0.4 0.2 0
0.43333333 0.2 0
0.46666667 0.2 0
0.5 0.2 0
0.53333333 0.2 0
0.56666667 0.2 0
0.6 0.2 0
0.63333333 0.2 0
0.66666667 0.2 0
0.7 0.2 0
0.73333333 0.2 0
0.76666667 0.2 0
0.8 0.2 0
0.83333333 0.2 0
0.86666667 0.2 0
0.9 0.2 0
0.93333333 0.2 0
0.96666667 0.2 0
1 0.2 0
0 0.23333333 0
0.033333333 0.23333333 0
0.066666667 0.23333333 0
0.1 0.23333333 0
0.13333333 0.23333333 0
0.16666667 0.23333333 0
0.2 0.23333333 0
0.23333333 0.23333333 0
0.26666667 0.23333333 0
0.3 0.23333333 0
0.33333333 0.23333333 0
0.36666667 0.23333333 0
0.4 0.23333333 0
0.43333333 0.23333333 0
0.46666667 0.23333333 0
0.5 0.23333333 0
0.53333333 0.23333333 0
0.56666667 0.23333333 0
0.6 0.23333333 0
0.63333333 0.23333333 0
0.66666667 0.23333333 0
0.7 0.23333333 0
0.73333333 0.23333333 0
0.76666667 0.23333333 0
0.8 0.23333333 0
0.83333333 0.23333333 0
0.86666667 0.23333333 0
0.9 0.23333333 0
0.93333333 0.23333333 0
0.96666667 0.23333333 0
1 0.23333333 0
0 0.26666667 0
0.033333333 0.26666667 0
0.066666667 0.26666667 0
0.1 0.26666667 0
0.13333333 0.26666667 0
0.16666667 0.26666667 0
0.2 0.26666667 0
0.23333333 0.26666667 0
0.26666667 0.26666667 0
0.3 0.26666667 0
0.33333333 0.26666667 0
0.36666667 0.26666667 0
0.4 0.26666667 0
0.43333333 0.26666667 0
0.46666667 0.26666667 0
0.5 0.26666667 0
0.53333333 0.26666667 0
0.56666667 0.26666667 0
0.6 0.26666667 0
0.63333333 0.26666667 0
0.66666667 0.26666667 0
0.7 0.26666667 0
0.73333333 0.26666667 0
0.76666667 0.26666667 0
0.8 0.26666667 0
0.83333333 0.26666667 0
0.86666667 0.26666667 0
0.9 0.26666667 0
0.93333333 0.26666667 0
0.96666667 0.26666667 0
1 0.26666667 0
0 0.3 0
0.033333333 0.3 0
0.066666667 0.3 0
0.1 0.3 0
0.13333333 0.3 0
0.16666667 0.3 0
0.2 0.3 0
0.23333333 0.3 0
0.26666667 0.3 0
0.3 0.3 0
0.33333333 0.3 0
0.36666667 0.3 0
0.4 0.3 0
0.43333333 0.3 0
0.46666667 0.3 0
0.5 0.3 0
0.53333333 0.3 0
0.56666667 0.3 0
0.6 0.3 0
0.63333333 0.3 0
0.66666667 0.3 0
0.7 0.3 0
0.73333333 0.3 0
0.76666667 0.3 0
0.8 0.3 0
0.83333333 0.3 0
0.86666667 0.3 0
0.9 0.3 0
0.93333333 0.3 0
0.96666667 0.3 0
1 0.3 0
0 0.33333333 0
0.033333333 0.33333333 0
0.066666667 0.33333333 0
0.1 0.33333333 0
0.13333333 0.33333333 0
0.16666667 0.33333333 0
0.2 0.33333333 0
0.23333333 0.33333333 0
0.26666667 0.33333333 0
0.3 0.33333333 0
0.33333333 0.33333333 0
0.36666667 0.33333333 0
0.4 0.33333333 0
0.43333333 0.33333333 0
0.46666667 0.33333333 0
0.5 0.33333333 0
0.53333333 0.33333333 0
0.56666667 0.33333333 0
0.6 0.33333333 0
0.63333333 0.33333333 0
0.66666667 0.33333333 0
0.7 0.33333333 0
0.73333333 0.33333333 0
0.76666667 0.33333333 0
0.8 0.33333333 0
0.83333333 0.33333333 0
0.86666667 0.33333333 0
0.9 0.33333333 0
0.93333333 0.33333333 0
0.96666667 0.33333333 0
1 0.33333333 0
0 0.36666667 0
0.033333333 0.36666667 0
0.066666667 0.36666667 0
0.1 0.36666667 0
0.13333333 0.36666667 0
0.16666667 0.36666667 0
0.2 0.36666667 0
0.23333333 0.36666667 0
0.26666667 0.36666667 0
0.3 0.36666667 0
0.33333333 0.36666667 0
0.36666667 0.36666667 0
0.4 0.36666667 0
0.43333333 0.36666667 0
0.46666667 0.36666667 0
0.5 0.36666667 0
0.53333333 0.36666667 0
0.56666667 0.36666667 0
0.6 0.36666667 0
0.63333333 0.36666667 0
0.66666667 0.36666667 0
0.7 0.36666667 0
0.73333333 0.36666667 0
0.76666667 0.36666667 0
0.8 0.36666667 0
0.83333333 0.36666667 0
0.86666667 0.36666667 0
0.9 0.36666667 0
0.93333333 0.36666667 0
0.96666667 0.36666667 0
1 0.36666667 0
0 0.4 0
0.033333333 0.4 0
0.066666667 0.4 0
0.1 0.4 0
0.13333333 0.4 0
0.16666667 0.4 0
0.2 0.4 0
0.23333333 0.4 0
0.26666667 0.4 0
0.3 0.4 0
0.33333333 0.4 0
0.36666667 0.4 0
0.4 0.4 0
0.43333333 0.4 0
0.46666667 0.4 0
0.5 0.4 0
0.53333333 0.4 0
0.56666667 0.4 0
0.6 0.4 0
0.63333333 0.4 0
0.66666667 0.4 0
0.7 0.4 0
0.73333333 0.4 0
0.76666667 0.4 0
0.8 0.4 0
0.83333333 0.4 0
0.86666667 0.4 0
0.9 0.4 0
0.93333333 0.4 0
0.96666667 0.4 0
1 0.4 0
0 0.43333333 0
0.033333333 0.43333333 0
0.066666667 0.43333333 0
0.1 0.43333333 0
0.13333333 0.43333333 0
0.16666667 0.43333333 0
0.2 0.43333333 0
0.23333333 0.43333333 0
0.26666667 0.43333333 0
0.3 0.43333333 0
0.33333333 0.43333333 0
0.36666667 0.43333333 0
0.4 0.43333333 0
0.43333333 0.43333333 0
0.46666667 0.43333333 0
0.5 0.43333333 0
0.53333333 0.43333333 0
0.56666667 0.43333333 0
0.6 0.43333333 0
0.63333333 0.43333333 0
0.66666667 0.43333333 0
0.7 0.43333333 0
0.73333333 0.43333333 0
0.76666667 0.43333333 0
0.8 0.43333333 0
0.83333333 0.43333333 0
0.86666667 0.43333333 0
0.9 0.43333333 0
0.93333333 0.43333333 0
0.96666667 0.43333333 0
1 0.43333333 0
0 0.46666667 0
0.033333333 0.46666667 0
0.066666667 0.46666667 0
0.1 0.46666667 0
0.13333333 0.46666667 0
0.16666667 0.46666667 0
0.2 0.46666667 0
0.23333333 0.46666667 0
0.26666667 0.46666667 0
0.3 0.46666667 0
0.33333333 0.46666667 0
0.36666667 0.46666667 0
0.4 0.46666667 0
0.43333333 0.46666667 0
0.46666667 0.46666667 0
0.5 0.46666667 0
0.53333333 0.46666667 0
0.56666667 0.46666667 0
0.6 0.46666667 0
0.63333333 0.46666667 0
0.66666667 0.46666667 0
0.7 0.46666667 0
0.73333333 0.46666667 0
0.76666667 0.46666667 0
0.8 0.46666667 0
0.83333333 0.46666667 0
0.86666667 0.46666667 0
0.9 0.46666667 0
0.93333333 0.46666667 0
0.96666667 0.46666667 0
1 0.46666667 0
0 0.5 0
0.033333333 0.5 0
0.066666667 0.5 0
0.1 0.5 0
0.13333333 0.5 0
0.16666667 0.5 0
0.2 0.5 0
0.23333333 0.5 0
0.26666667 0.5 0
0.3 0.5 0
0.33333333 0.5 0
0.36666667 0.5 0
0.4 0.5 0
0.43333333 0.5 0
0.46666667 0.5 0
0.5 0.5 0
0.53333333 0.5 0
0.56666667 0.5 0
0.6 0.5 0
0.63333333 0.5 0
0.66666667 0.5 0
0.7 0.5 0
0.73333333 0.5 0
0.76666667 0.5 0
0.8 0.5 0
0.83333333 0.5 0
0.86666667 0.5 0
0.9 0.5 0
0.93333333 0.5 0
0.96666667 0.5 0
1 0.5 0
0 0.53333333 0
0.033333333 0.53333333 0
0.066666667 0.53333333 0
0.1 0.53333333 0
0.13333333 0.53333333 0
0.16666667 0.53333333 0
0.2 0.53333333 0
0.23333333 0.53333333 0
0.26666667 0.53333333 0
0.3 0.53333333 0
0.33333333 0.53333333 0
0.36666667 0.53333333 0
0.4 0.53333333 0
0.43333333 0.53333333 0
0.46666667 0.53333333 0
0.5 0.53333333 0
0.53333333 0.53333333 0
0.56666667 0.53333333 0
0.6 0.53333333 0
0.63333333 0.53333333 0
0.66666667 0.53333333 0
0.7 0.53333333 0
0.73333333 0.53333333 0
0.76666667 0.53333333 0
0.8 0.53333333 0
[...]
CELL_DATA 1920
Scalars  Label int 1
LOOKUP_TABLE FreeFempp_table
0
0
0
0
0
0
0
0
0
0
0
0
0
0
0
0
0
0
0
0
0
0
0
0
0
0
0
0
0
0
0
0
0
0
0
0
0
0
0
0
0
0
0
0
0
0
0
0
0
0
0
0
0
0
0
0
0
0
0
0
0
0
0
0
0
0
0
0
0
0
0
0
0
0
0
0
0
0
0
0
0
0
0
0
0
0
0
0
0
0
0
0
0
0
0
0
0
0
0
0
0
0
0
0
0
0
0
0
0
0
0
0
0
0
0
0
0
0
0
0
0
0
0
0
0
0
0
0
0
0
0
0
0
0
0
0
0
0
0
0
0
0
0
0
0
0
0
0
0
0
0
0
0
0
0
0
0
0
0
0
0
0
0
0
0
0
0
0
0
0
0
0
0
0
0
0
0
0
0
0
0
0
0
0
0
0
0
0
0
0
0
0
0
0
0
0
0
0
0
0
0
0
0
0
0
0
0
0
0
0
0
0
0
0
0
0
0
0
0
0
0
0
0
0
0
0
0
0
0
0
0
0
0
0
0
0
0
0
0
0
0
0
0
0
0
0
0
0
0
0
0
0
0
0
0
0
0
0
0
0
0
0
0
0
0
0
0
0
0
0
0
0
0
0
0
0
0
0
0
0
0
0
0
0
0
0
0
0
0
0
0
0
0
0
0
0
0
0
0
0
0
0
0
0
0
0
0
0
0
0
0
0
0
0
0
0
0
0
0
0
0
0
0
0
0
0
0
0
0
0
0
0
0
0
0
0
0
0
0
0
0
0
0
0
0
0
0
0
0
0
0
0
0
0
0
0
0
0
0
0
0
0
0
0
0
0
0
0
0
0
0
0
0
0
0
0
0
0
0
0
0
0
0
0
0
0
0
0
0
0
0
0
0
0
0
0
0
0
0
0
0
0
0
0
0
0
0
0
0
0
0
0
0
0
0
0
0
0
0
0
0
0
0
0
0
0
0
0
0
0
0
0
0
0
0
0
0
0
0
0
0
0
0
0
0
0
0
0
0
0
0
0
0
0
0
0
0
0
0
0
0
0
0
0
0
0
0
0
0
0
0
0
0
0
0
0
0
0
0
0
0
0
0
0
0
0
0
0
0
0
0
0
0
0
0
0
0
0
0
0
0
0
0
0
0
0
0
0
0
0
0
0
0
0
0
0
0
0
0
0
0
0
0
0
0
0
0
0
0
0
0
0
0
0
0
0
0
0
0
0
0
0
0
0
0
0
0
0
0
0
0
0
0
0
0
0
0
0
0
0
0
0
0
0
0
0
0
0
0
0
0
0
0
0
0
0
0
0
0
0
0
0
0
0
0
0
0
0
0
0
0
0
0
0
0
0
0
0
0
0
0
0
0
0
0
0
0
0
0
0
0
0
0
0
0
0
0
0
0
0
0
0
0
0
0
0
0
0
0
0
0
0
0
0
0
0
0
0
0
0
0
0
0
0
0
0
0
0
0
0
0
0
0
0
0
0
0
0
0
0
0
0
0
0
0
0
0
0
0
0
0
0
0
0
0
0
0
0
0
0
0
0
0
0
0
0
0
0
0
0
0
0
0
0
0
0
0
0
0
0
0
0
0
0
0
0
0
0
0
0
0
0
0
0
0
0
0
0
0
0
0
0
0
0
0
0
0
0
0
0
0
0
0
0
0
0
0
0
0
0
0
0
0
0
0
0
0
0
0
0
0
0
0
0
0
0
0
0
0
0
0
0
0
0
0
0
0
0
0
0
0
0
0
0
0
0
0
0
0
0
0
0
0
0
0
0
0
0
0
0
0
0
0
0
0
0
0
0
0
0
0
0
0
0
0
0
0
0
0
0
0
0
0
0
0
0
0
0
0
0
0
0
0
0
0
0
0
0
0
0
0
0
0
0
0
0
0
0
0
0
0
0
0
0
0
0
0
0
0
0
0
0
0
0
0
0
0
0
0
0
0
0
0
0
0
0
0
0
0
0
0
0
0
0
0
0
0
0
0
0
0
0
0
0
0
0
0
0
0
0
0
0
0
0
0
0
0
0
0
0
0
0
0
0
0
0
0
0
0
0
0
0
0
0
0
0
0
0
0
0
0
0
0
0
0
0
0
0
0
0
0
0
0
0
0
0
0
0
0
0
0
0
0
0
0
0
0
0
0
0
0
0
0
0
0
0
0
0
0
0
0
0
0
0
0
0
0
0
0
0
0
0
0
0
0
0
0
0
0
0
0
0
0
0
0
0
0
0
0
0
0
0
0
0
0
0
0
0
0
0
0
0
0
0
0
0
0
0
0
0
0
0
0
0
0
0
0
0
0
0
0
0
0
0
0
0
0
0
0
0
0
0
0
0
0
0
0
0
0
0
0
0
0
0
0
0
0
0
0
0
0
0
0
0
0
0
0
0
0
0
0
0
0
0
0
0
0
0
0
0
0
0
0
0
0
0
0
0
0
0
0
0
0
0
0
0
0
0
0
0
0
0
0
0
0
0
0
0
0
0
0
0
0
0
0
0
0
0
0
0
0
0
0
0
0
0
0
0
0
0
0
0
0
0
0
0
0
0
0
0
0
0
0
0
0
0
0
0
0
0
0
0
0
0
0
0
0
0
0
0
0
0
0
0
0
0
0
0
0
0
0
0
0
0
0
0
0
0
0
0
0
0
0
0
0
0
0
0
0
0
0
0
0
0
0
0
0
0
0
0
0
0
0
0
0
0
0
0
0
0
0
0
0
0
0
0
0
0
0
0
0
0
0
0
0
0
0
0
0
0
0
0
0
0
0
0
0
0
0
0
0
0
0
0
0
0
0
0
0
0
0
0
0
0
0
0
0
0
0
0
0
0
0
0
0
0
0
0
0
0
0
0
0
0
0
0
0
0
0
0
0
0
0
0
0
0
0
0
0
0
0
0
0
0
0
0
0
0
0
0
0
0
0
0
0
0
0
0
0
0
0
0
0
0
0
0
0
0
0
0
0
0
0
0
0
0
0
0
0
0
0
0
0
0
0
0
0
0
0
0
0
0
0
0
0
0
0
0
0
0
0
0
0
0
0
0
0
0
0
0
0
0
0
0
0
0
0
0
0
0
0
0
0
0
0
0
0
0
0
0
0
0
0
0
0
0
0
0
0
0
0
0
0
0
0
0
0
0
0
0
0
0
0
0
0
0
0
0
0
0
0
0
0
0
0
0
0
0
0
0
0
0
0
0
0
0
0
0
0
0
0
0
0
0
0
0
0
0
0
0
0
0
0
0
0
0
0
0
0
0
0
0
0
0
0
0
0
0
0
0
0
0
0
0
0
0
0
0
0
0
0
0
0
0
0
0
0
0
0
0
0
0
0
0
0
0
0
0
0
0
0
0
0
0
0
0
0
0
0
0
0
0
0
0
0
0
0
0
0
0
0
0
0
0
0
0
0
0
0
0
0
0
0
0
0
0
0
0
0
0
0
0
0
0
0
0
0
0
0
0
0
0
0
0
0
0
0
0
0
0
0
0
0
0
0
0
0
0
0
0
0
0
0
0
0
0
0
0
0
0
0
0
0
0
0
0
0
0
0
0
0
0
0
0
0
0
0
0
0
0
0
0
0
0
0
0
0
0
0
0
0
0
0
0
0
0
0
0
0
0
0
0
0
0
0
0
0
0
0
0
0
0
0
0
0
0
0
0
0
0
0
0
0
0
0
0
0
0
0
0
0
0
0
0
0
0
0
0
0
0
0
0
0
0
0
0
0
0
0
0
0
0
0
0
0
0
0
0
0
0
0
0
0
0
0
0
0
0
0
0
0
0
0
0
0
0
0
0
0
0
0
0
0
0
0
0
0
0
0
0
0
0
0
0
0
0
0
0
0
0
0
0
0
0
0
0
0
0
0
0
0
0
0
0
0
0
0
0
0
0
0
0
0
0
0
0
0
0
0
0
0
0
0
0
0
0
0
0
0
0
0
0
0
0
0
0
0
0
0
0
0
0
0
0
0
0
0
0
0
0
0
0
0
0
0
0
0
0
0
0
0
0
0
0
0
0
0
0
0
0
0
0
0
0
0
0
0
0
0
0
0
0
0
0
0
0
0
0
0
0
1
1
1
1
1
1
1
1
1
1
1
1
1
1
1
1
1
1
1
1
1
1
1
1
1
1
1
1
1
1
2
2
2
2
2
2
2
2
2
2
2
2
2
2
2
2
2
2
2
2
2
2
2
2
2
2
2
2
2
2
3
3
3
3
3
3
3
3
3
3
3
3
3
3
3
3
3
3
3
3
3
3
3
3
3
3
3
3
3
3
4
4
4
4
4
4
4
4
4
4
4
4
4
4
4
4
4
4
4
4
4
4
4
4
4
4
4
4
4
4

LOOKUP_TABLE FreeFempp_table 5
1.00000000 0.00000000 0.00000000 1.00000000
1.00000000 1.00000000 0.00000000 1.00000000
1.00000000 0.00000000 1.00000000 1.00000000
0.00000000 1.00000000 0.00000000 1.00000000
0.00000000 1.00000000 1.00000000 1.00000000

POINT_DATA 961
FIELD FieldData 1
Density 1 961 float
1.70013323e-01 1.41179889e-01 1.85173288e-01 1.85647920e-01 1.77318677e-01 1.71624988e-01 1.59692973e-01 8.95551145e-02 1.13313843e-03 3.12624848e-04 3.12877528e-04 1.21574476e-03 6.84379190e-02 1.49354026e-01 5.77204645e-01 9.75917637e-01 9.82730329e-01 9.48957980e-01 9.87585008e-01 9.77307677e-01 9.65483367e-01 9.54231739e-01 9.33393598e-01 9.06800747e-01 8.74705613e-01 8.39672029e-01 8.09763730e-01 7.88382590e-01 7.71918356e-01 7.80262887e-01 6.33557200e-01 3.07500566e-04 3.10915610e-04 1.44574875e-02 5.44821024e-02 5.82167357e-02 5.49915545e-02 4.32717763e-02 1.42290546e-02 9.10740055e-04 3.11760639e-04 3.13480530e-04 3.12659453e-04 1.78090148e-02 3.86767313e-02 1.48614451e-01 9.91740286e-01 6.28156960e-01 1.65707944e-03 9.37877953e-01 9.91357148e-01 9.89080429e-01 9.88947153e-01 9.85315800e-01 9.78344321e-01 9.69939530e-01 9.57044959e-01 9.34133530e-01 9.10148680e-01 8.91949058e-01 8.85144591e-01 7.79981911e-01 3.01822409e-04 2.73052370e-04 2.22219620e-04 2.06513694e-04 1.99494199e-04 1.99175702e-04 2.05247052e-04 2.26321979e-04 2.70857359e-04 3.05205846e-04 3.13815370e-04 3.14878649e-04 5.26098814e-03 2.85194665e-02 1.81643460e-02 2.75603056e-01 9.84888673e-01 3.16091027e-04 3.13254539e-04 3.14358302e-04 3.13035940e-04 7.49348896e-04 2.28517335e-02 3.76081944e-01 7.09317684e-01 8.18532169e-01 8.26541364e-01 7.77702868e-01 7.25693703e-01 6.83037519e-01 6.69729829e-01 9.28473251e-04 3.02592292e-04 2.56721803e-04 2.17844310e-04 2.02822615e-04 1.98719194e-04 2.00408205e-04 2.11002218e-04 2.42841445e-04 2.91038246e-04 3.09361552e-04 3.10584583e-04 2.89067277e-04 2.83706118e-04 3.09616473e-04 3.81651148e-03 9.99417841e-01 9.95810151e-01 3.18231410e-04 3.15022538e-04 3.20241175e-04 3.49755806e-04 3.77985998e-04 3.34218290e-04 3.25652829e-04 3.40678584e-04 4.07992490e-03 1.36276275e-01 2.79816240e-01 2.71334112e-01 4.43747133e-01 7.57925287e-02 1.02568194e-02 8.86466634e-03 1.10317385e-02 1.67722497e-02 2.16603130e-02 2.70983521e-02 3.19483839e-02 3.33036594e-02 2.89898999e-02 1.87280905e-02 3.11142445e-04 3.01363092e-04 2.69751006e-04 2.74715509e-04 2.62617075e-04 2.60447472e-04 3.14098143e-04 9.99755919e-01 4.30833409e-03 3.13330325e-04 3.22423060e-04 3.77715711e-04 3.70905414e-04 3.56800301e-04 4.00581630e-04 4.00024815e-04 3.39062477e-04 2.64422083e-03 2.36178376e-02 1.44433498e-01 1.41342506e-01 2.01034937e-02 1.70270260e-02 2.04897858e-02 2.45007202e-02 2.99693681e-02 3.67899723e-02 4.50908951e-02 5.39747365e-02 6.41541928e-02 7.25501776e-02 6.93510249e-02 5.68116382e-02 2.72012111e-02 3.10532516e-04 2.90222903e-04 2.42436130e-04 2.38528140e-04 2.03488060e-04 9.99584138e-01 9.98553216e-01 9.99136686e-01 9.98258591e-01 4.52995184e-04 3.31014715e-04 3.59073136e-04 4.27183724e-04 4.32621717e-04 3.76486161e-04 3.24594061e-04 6.13936223e-04 2.69226313e-01 6.79088384e-02 6.33226857e-02 6.81563467e-02 7.30226338e-02 7.93800130e-02 8.83508325e-02 1.00162007e-01 1.14077307e-01 1.29641116e-01 1.41372979e-01 1.42657384e-01 1.44133925e-01 1.50593162e-01 1.37184694e-01 9.34063941e-02 2.41669454e-02 3.04487272e-04 1.44093283e-04 1.30342349e-04 9.79143918e-01 9.90036905e-01 9.97969031e-01 9.99230385e-01 9.98437881e-01 6.13545403e-02 9.57745302e-04 3.59509955e-04 4.52911685e-04 3.42063286e-04 3.43092164e-04 4.44222718e-01 2.41340652e-01 2.33318642e-01 2.29814470e-01 2.24750742e-01 2.23952129e-01 2.30117515e-01 2.43367150e-01 2.61242181e-01 2.79436797e-01 2.90187478e-01 2.90707916e-01 2.91351259e-01 2.97551870e-01 3.01473290e-01 2.99706191e-01 2.66724169e-01 1.93066880e-01 8.31263438e-02 1.33208247e-04 1.61778342e-04 5.92251774e-04 9.64520033e-04 5.05933014e-04 3.13633531e-02 9.96875167e-01 7.73140252e-01 1.46292280e-02 4.72449872e-04 4.22918267e-04 5.67333365e-04 5.98726451e-01 5.54041147e-01 5.39363623e-01 5.19602060e-01 4.99188870e-01 4.83665615e-01 4.77055877e-01 4.79498565e-01 4.87288654e-01 4.94475842e-01 4.95083600e-01 4.89487618e-01 4.84974772e-01 4.84359115e-01 4.87556219e-01 4.95868355e-01 5.00017166e-01 4.77809727e-01 3.95946294e-01 2.42666915e-01 2.21311013e-04 2.69387412e-04 3.03632638e-04 3.09983006e-04 3.12402553e-04 1.15984422e-03 9.97746170e-01 9.75982487e-01 4.20088181e-04 4.77656431e-04 2.98176194e-03 6.83649540e-01 7.53440678e-01 7.36038983e-01 7.16433883e-01 6.97487235e-01 6.81525528e-01 6.69636428e-01 6.62765741e-01 6.59188449e-01 6.55283868e-01 6.48100197e-01 6.38889611e-01 6.32287383e-01 6.31111979e-01 6.37487769e-01 6.53790593e-01 6.77703202e-01 7.03025401e-01 7.18179226e-01 7.02273726e-01 5.64187586e-01 3.01507214e-04 3.04994697e-04 3.08670657e-04 3.09656869e-04 3.11156036e-04 4.07334268e-02 9.99707758e-01 3.24323220e-04 4.75470122e-04 3.32303171e-04 6.98581278e-01 8.09254527e-01 7.91809916e-01 7.75065601e-01 7.59766996e-01 7.46448040e-01 7.36008763e-01 7.28924036e-01 7.23861814e-01 7.18166947e-01 7.10029602e-01 7.00662434e-01 6.93514585e-01 6.91782892e-01 6.98569477e-01 7.16475248e-01 7.45726526e-01 7.85282552e-01 8.32766950e-01 8.77254963e-01 9.33248878e-01 9.19352829e-01 3.10943491e-04 3.10681760e-04 3.10324831e-04 3.10460513e-04 3.08993913e-04 9.99431133e-01 3.21555287e-02 4.87793586e-04 4.35392663e-04 6.44561827e-01 7.57711291e-01 7.39794850e-01 7.24284410e-01 7.13986874e-01 7.07785726e-01 7.05851734e-01 7.07723856e-01 7.10566878e-01 7.10487366e-01 7.05511451e-01 6.96923912e-01 6.87966168e-01 6.81978166e-01 6.82168365e-01 6.91402078e-01 7.11952031e-01 7.46556103e-01 7.97795951e-01 8.62166345e-01 9.28019226e-01 9.86828208e-01 9.93071854e-01 2.35214038e-03 4.66040336e-04 3.11150856e-04 3.05421039e-04 8.46370816e-01 9.99618292e-01 4.19743679e-04 4.47879604e-04 5.09991407e-01 5.46162546e-01 5.32819211e-01 5.26858330e-01 5.35399258e-01 5.54497480e-01 5.81375420e-01 6.11511052e-01 6.37093604e-01 6.51378691e-01 6.53027892e-01 6.45242512e-01 6.32691622e-01 6.19365454e-01 6.08180940e-01 6.01154268e-01 6.00147009e-01 6.08644128e-01 6.33102119e-01 6.83402658e-01 7.65350640e-01 9.08196330e-01 9.83476877e-01 9.95775938e-01 8.42208505e-01 1.54874264e-03 3.44299944e-04 1.25911608e-01 9.99592900e-01 3.73627932e-04 4.04348539e-04 3.18414479e-01 1.84782073e-01 1.73304647e-01 1.87530875e-01 2.26181731e-01 2.86919773e-01 3.64877433e-01 4.46924388e-01 5.13065219e-01 5.50926745e-01 5.62122703e-01 5.55096805e-01 5.38224697e-01 5.17377377e-01 4.96030718e-01 4.75929826e-01 4.57857698e-01 4.42532480e-01 4.31268990e-01 4.26627129e-01 4.31528807e-01 4.62878674e-01 5.69476664e-01 7.54576087e-01 8.69631350e-01 7.35117972e-01 3.73549968e-01 9.94229853e-01 9.99467969e-01 3.47260124e-04 3.67574510e-04 1.67260289e-01 3.25825289e-02 2.40081586e-02 2.80295908e-02 4.33963016e-02 8.07715952e-02 1.56707510e-01 2.67407626e-01 3.70963395e-01 4.32954997e-01 4.53744471e-01 4.47939396e-01 4.28372025e-01 4.03130382e-01 3.76876682e-01 3.52354139e-01 3.31175148e-01 3.13986987e-01 3.00331026e-01 2.88285732e-01 2.73141265e-01 2.50541449e-01 2.28434533e-01 2.13605642e-01 2.18585625e-01 3.12973261e-01 8.96850049e-01 9.97863948e-01 9.99051750e-01 3.35003278e-04 3.46257380e-04 9.20464993e-02 7.00549036e-03 3.85684753e-03 4.39654011e-03 7.53941573e-03 1.83634274e-02 5.55556603e-02 1.45558864e-01 2.58894265e-01 3.34112734e-01 3.61082345e-01 3.57110471e-01 3.37535888e-01 3.11543971e-01 2.84529030e-01 2.60111064e-01 2.40907162e-01 2.28529215e-01 2.23307729e-01 2.23509148e-01 2.23823264e-01 2.16658860e-01 2.04020381e-01 2.04431519e-01 2.48900011e-01 4.64208156e-01 9.69421148e-01 9.98482585e-01 9.97139633e-01 3.27572139e-04 3.33822565e-04 6.20674975e-02 2.32599280e-03 1.06632069e-03 1.17724924e-03 2.03934149e-03 5.58840111e-03 2.31439527e-02 8.82352516e-02 1.96002752e-01 2.74692804e-01 3.04102212e-01 3.01645666e-01 2.83003986e-01 2.57470846e-01 2.30892345e-01 2.07532927e-01 1.90580398e-01 1.82144657e-01 1.83256224e-01 1.93625078e-01 2.11389288e-01 2.34663874e-01 2.68900067e-01 3.41307044e-01 5.24393976e-01 8.66896987e-01 9.91934180e-01 9.98731315e-01 9.35858786e-01 3.22373846e-04 3.26135894e-04 5.16662635e-02 1.05000776e-03 4.86191304e-04 5.29599783e-04 8.97051999e-04 2.66921078e-03 1.39640318e-02 6.92759231e-02 1.74511462e-01 2.52862215e-01 2.81945527e-01 2.79850155e-01 2.61655807e-01 2.36384869e-01 2.10294172e-01 1.88218608e-01 1.73721716e-01 1.69264510e-01 1.76795617e-01 1.98495179e-01 2.37998381e-01 3.02877963e-01 4.09397781e-01 5.87133169e-01 8.26734185e-01 9.71844018e-01 9.96003211e-01 9.97478902e-01 2.88351183e-03 3.18309554e-04 3.21242842e-04 4.93875928e-02 5.68813935e-04 3.19531129e-04 3.49039503e-04 5.82626148e-04 1.96487084e-03 1.29024442e-02 7.36184418e-02 1.83789998e-01 2.58654147e-01 2.84854233e-01 2.82317698e-01 2.64755398e-01 2.40494356e-01 2.15964198e-01 1.96459234e-01 1.85990646e-01 1.87819615e-01 2.06033260e-01 2.47502998e-01 3.23307425e-01 4.46587533e-01 6.21074378e-01 8.17526340e-01 9.49185312e-01 9.89628017e-01 9.96397018e-01 9.44248080e-01 3.43148044e-04 3.14583915e-04 3.16819001e-04 4.98442613e-02 3.56596662e-04 3.12226621e-04 3.12198536e-04 4.94720298e-04 2.13903724e-03 1.80797093e-02 9.98705477e-02 2.14817971e-01 2.79556781e-01 3.00744683e-01 2.98730940e-01 2.84315377e-01 2.64276862e-01 2.44764656e-01 2.31567457e-01 2.29641929e-01 2.43912384e-01 2.82135755e-01 3.57593656e-01 4.83777672e-01 6.51368558e-01 8.15840483e-01 9.31296527e-01 9.80721056e-01 9.93218422e-01 9.91064966e-01 6.18932256e-03 3.12165794e-04 3.12711636e-04 3.13498866e-04 5.08182645e-02 3.12218675e-04 3.12359422e-04 3.12227698e-04 5.14193904e-04 3.40747437e-03 3.60636562e-02 1.51050031e-01 2.54269660e-01 3.00764620e-01 3.16864967e-01 3.18691790e-01 3.12423110e-01 3.02386880e-01 2.93952465e-01 2.93580532e-01 3.08000594e-01 3.44430149e-01 4.13216949e-01 5.27246535e-01 6.80577278e-01 8.25139165e-01 9.19767916e-01 9.69037175e-01 9.87462461e-01 9.89566326e-01 5.29187560e-01 4.53834742e-04 3.12306423e-04 3.12444376e-04 3.12341523e-04 5.53394407e-02 3.12388642e-04 3.12642893e-04 3.12310207e-04 6.65537023e-04 8.06704257e-03 8.45247433e-02 2.16777727e-01 2.83738524e-01 3.09403032e-01 3.23241293e-01 3.33173752e-01 3.40419143e-01 3.46624613e-01 3.55911613e-01 3.75018626e-01 4.12243545e-01 4.75697547e-01 5.71786404e-01 6.98587596e-01 8.27409685e-01 9.16778564e-01 9.61667418e-01 9.80069935e-01 9.82751489e-01 8.67221415e-01 2.06353841e-03 3.12059594e-04 3.12229153e-04 3.12307122e-04 3.12168733e-04 6.50120452e-02 3.12623306e-04 3.13074328e-04 3.12489603e-04 1.15769100e-03 2.69509889e-02 1.73683092e-01 2.68283874e-01 2.89894432e-01 3.00052464e-01 3.15661818e-01 3.36563289e-01 3.60371470e-01 3.86545420e-01 4.17505383e-01 4.58866417e-01 5.18091917e-01 6.00563765e-01 7.03779578e-01 8.13002765e-01 9.02199030e-01 9.55138505e-01 9.77761805e-01 9.80182350e-01 8.87309670e-01 8.20323545e-03 3.90738249e-04 3.12130782e-04 3.12145276e-04 3.12114367e-04 1.06127025e-03 8.70336890e-02 3.12919292e-04 3.13544559e-04 3.12722172e-04 2.95059476e-03 9.43412408e-02 2.65401900e-01 2.84130365e-01 2.71575719e-01 2.74711996e-01 2.94886440e-01 3.27034116e-01 3.67159694e-01 4.13163304e-01 4.65223640e-01 5.26105881e-01 5.99755764e-01 6.87164485e-01 7.81451523e-01 8.68485332e-01 9.33741868e-01 9.70784545e-01 9.84048665e-01 9.72437739e-01 2.06543997e-01 8.66483606e-04 3.12754360e-04 3.12109041e-04 3.12101736e-04 4.85969998e-04 1.09825945e-02 1.35912925e-01 3.13560100e-04 3.13948258e-04 3.12922522e-04 1.12810954e-02 2.28121489e-01 3.11809301e-01 2.64580786e-01 2.36279234e-01 2.39194036e-01 2.64264196e-01 3.05329472e-01 3.58641446e-01 4.21129972e-01 4.90307242e-01 5.65086186e-01 6.45557523e-01 7.30824947e-01 8.16255867e-01 8.92308712e-01 9.47233438e-01 9.76293743e-01 9.85320032e-01 9.63722944e-01 1.07309304e-01 1.16142316e-03 4.20144323e-04 4.37915616e-04 8.39833287e-04 4.31964360e-03 8.84373039e-02 2.31887713e-01 3.15912592e-04 3.14863835e-04 3.33810283e-04 5.22692688e-02 3.46965343e-01 3.01895946e-01 2.21624419e-01 1.93477586e-01 1.99662611e-01 2.27721944e-01 2.73298323e-01 3.34460139e-01 4.08207595e-01 4.89759475e-01 5.74185133e-01 6.58480287e-01 7.41979539e-01 8.23443055e-01 8.95925164e-01 9.47045445e-01 9.73107338e-01 9.79807675e-01 9.53667998e-01 3.85947227e-01 9.93633922e-03 4.32560500e-03 1.12285679e-02 8.58969763e-02 3.43076468e-01 4.46629465e-01 3.69241029e-01 3.22054198e-04 3.18160164e-04 5.54868544e-04 1.87334582e-01 3.80629838e-01 2.45534569e-01 1.69083193e-01 1.51068151e-01 1.60953879e-01 1.88636333e-01 2.32968405e-01 2.94981331e-01 3.73664111e-01 4.63850766e-01 5.57414532e-01 6.47421658e-01 7.31555879e-01 8.10367525e-01 8.80228281e-01 9.31810141e-01 9.59906995e-01 9.68339682e-01 9.50367987e-01 8.22490633e-01 5.21212220e-01 5.53729653e-01 8.03495824e-01 8.98867965e-01 9.26878929e-01 7.84705043e-01 5.00252366e-01 3.32043244e-04 3.25622677e-04 1.33557571e-03 3.94708455e-01 3.20771366e-01 1.68803424e-01 1.21242166e-01 1.15597710e-01 1.26998588e-01 1.50183097e-01 1.87065408e-01 2.41864949e-01 3.17742586e-01 4.12952840e-01 5.18370628e-01 6.20889425e-01 7.11346745e-01 7.87999868e-01 8.51984382e-01 9.01634097e-01 9.34038103e-01 9.48777437e-01 9.47050571e-01 9.28199530e-01 9.06474829e-01 9.08453763e-01 9.21742857e-01 9.29422379e-01 9.39665496e-01 8.36771131e-01 4.56333667e-01 3.43772466e-04 3.36148398e-04 4.62397235e-03 5.08764386e-01 2.10628107e-01 1.10694773e-01 9.11016464e-02 9.27326977e-02 1.01376541e-01 1.15834244e-01 1.39691114e-01 1.78757161e-01 2.40343019e-01 3.30611557e-01 4.47611690e-01 5.75268269e-01 6.90656364e-01 7.80111670e-01 8.43779206e-01 8.87913346e-01 9.17687774e-01 9.35613811e-01 9.42641258e-01 9.39797342e-01 9.27225828e-01 9.06319797e-01 8.84237468e-01 8.69830847e-01 8.77343714e-01 7.86239505e-01 7.36316800e-01 3.54542746e-04 3.47847003e-04 2.29742322e-02 5.13625383e-01 1.59173504e-01 9.83883068e-02 8.76680613e-02 8.51366296e-02 8.38988051e-02 8.58159810e-02 9.45992768e-02 1.15271024e-01 1.56349495e-01 2.32045904e-01 3.58379871e-01 5.31585395e-01 7.06251562e-01 8.32146406e-01 9.02660429e-01 9.37138677e-01 9.52384651e-01 9.56804395e-01 9.53022301e-01 9.39633012e-01 9.11194742e-01 8.58955562e-01 7.82706022e-01 7.06714094e-01 6.90593719e-01 6.84255660e-01 4.53598231e-01 3.27356771e-04 3.40696773e-04 8.81004930e-01 7.54738510e-01 3.94411504e-01 3.21169019e-01 2.82751054e-01 2.56693304e-01 2.36327514e-01 2.23761186e-01 2.23043352e-01 2.38038406e-01 2.72744507e-01 3.31323266e-01 4.16040272e-01 5.22743821e-01 6.37395024e-01 7.40243196e-01 8.16904724e-01 8.64503145e-01 8.87307346e-01 8.89370561e-01 8.71020615e-01 8.30654144e-01 7.70491600e-01 6.97867393e-01 6.20399475e-01 5.51138699e-01 5.09347260e-01 5.47354698e-01 
