# vtk DataFile Version 2.0
results/iter5.vtk, Created by Freefem++ 
ASCII
DATASET UNSTRUCTURED_GRID
POINTS 961 float
0 0 0
0.033333333 0 0
0.066666667 0 0
0.1 0 0
0.13333333 0 0
0.16666667 0 0
0.2 0 0
0.23333333 0 0
0.26666667 0 0
0.3 0 0
0.33333333 0 0
0.36666667 0 0
0.4 0 0
0.43333333 0 0
0.46666667 0 0
0.5 0 0
0.53333333 0 0
0.56666667 0 0
0.6 0 0
0.63333333 0 0
0.66666667 0 0
0.7 0 0
0.73333333 0 0
0.76666667 0 0
0.8 0 0
0.83333333 0 0
0.86666667 0 0
0.9 0 0
0.93333333 0 0
0.96666667 0 0
1 0 0
0 0.033333333 0
0.033333333 0.033333333 0
0.066666667 0.033333333 0
0.1 0.033333333 0
0.13333333 0.033333333 0
0.16666667 0.033333333 0
0.2 0.033333333 0
0.23333333 0.033333333 0
0.26666667 0.033333333 0
0.3 0.033333333 0
0.33333333 0.033333333 0
0.36666667 0.033333333 0
0.4 0.033333333 0
0.43333333 0.033333333 0
0.46666667 0.033333333 0
0.5 0.033333333 0
0.53333333 0.033333333 0
0.56666667 0.033333333 0
0.6 0.033333333 0
0.63333333 0.033333333 0
0.66666667 0.033333333 0
0.7 0.033333333 0
0.73333333 0.033333333 0
0.76666667 0.033333333 0
0.8 0.033333333 0
0.83333333 0.033333333 0
0.86666667 0.033333333 0
0.9 0.033333333 0
0.93333333 0.033333333 0
0.96666667 0.033333333 0
1 0.033333333 0
0 0.066666667 0
0.033333333 0.066666667 0
0.066666667 0.066666667 0
0.1 0.066666667 0
0.13333333 0.066666667 0
0.16666667 0.066666667 0
0.2 0.066666667 0
0.23333333 0.066666667 0
0.26666667 0.066666667 0
0.3 0.066666667 0
0.33333333 0.066666667 0
0.36666667 0.066666667 0
0.4 0.066666667 0
0.43333333 0.066666667 0
0.46666667 0.066666667 0
0.5 0.066666667 0
0.53333333 0.066666667 0
0.56666667 0.066666667 0
0.6 0.066666667 0
0.63333333 0.066666667 0
0.66666667 0.066666667 0
0.7 0.066666667 0
0.73333333 0.066666667 0
0.76666667 0.066666667 0
0.8 0.066666667 0
0.83333333 0.066666667 0
0.86666667 0.066666667 0
0.9 0.066666667 0
0.93333333 0.066666667 0
0.96666667 0.066666667 0
1 0.066666667 0
0 0.1 0
0.033333333 0.1 0
0.066666667 0.1 0
0.1 0.1 0
0.13333333 0.1 0
0.16666667 0.1 0
0.2 0.1 0
0.23333333 0.1 0
0.26666667 0.1 0
0.3 0.1 0
0.33333333 0.1 0
0.36666667 0.1 0
0.4 0.1 0
0.43333333 0.1 0
0.46666667 0.1 0
0.5 0.1 0
0.53333333 0.1 0
0.56666667 0.1 0
0.6 0.1 0
0.63333333 0.1 0
0.66666667 0.1 0
0.7 0.1 0
0.73333333 0.1 0
0.76666667 0.1 0
0.8 0.1 0
0.83333333 0.1 0
0.86666667 0.1 0
0.9 0.1 0
0.93333333 0.1 0
0.96666667 0.1 0
1 0.1 0
0 0.13333333 0
0.033333333 0.13333333 0
0.066666667 0.13333333 0
0.1 0.13333333 0
0.13333333 0.13333333 0
0.16666667 0.13333333 0
0.2 0.13333333 0
0.23333333 0.13333333 0
0.26666667 0.13333333 0
0.3 0.13333333 0
0.33333333 0.13333333 0
0.36666667 0.13333333 0
0.4 0.13333333 0
0.43333333 0.13333333 0
0.46666667 0.13333333 0
0.5 0.13333333 0
0.53333333 0.13333333 0
0.56666667 0.13333333 0
0.6 0.13333333 0
0.63333333 0.13333333 0
0.66666667 0.13333333 0
0.7 0.13333333 0
0.73333333 0.13333333 0
0.76666667 0.13333333 0
0.8 0.13333333 0
0.83333333 0.13333333 0
0.86666667 0.13333333 0
0.9 0.13333333 0
0.93333333 0.13333333 0
0.96666667 0.13333333 0
1 0.13333333 0
0 0.16666667 0
0.033333333 0.16666667 0
0.066666667 0.16666667 0
0.1 0.16666667 0
0.13333333 0.16666667 0
0.16666667 0.16666667 0
0.2 0.16666667 0
0.23333333 0.16666667 0
0.26666667 0.16666667 0
0.3 0.16666667 0
0.33333333 0.16666667 0
0.36666667 0.16666667 0
0.4 0.16666667 0
0.43333333 0.16666667 0
0.46666667 0.16666667 0
0.5 0.16666667 0
0.53333333 0.16666667 0
0.56666667 0.16666667 0
0.6 0.16666667 0
0.63333333 0.16666667 0
0.66666667 0.16666667 0
0.7 0.16666667 0
0.73333333 0.16666667 0
0.76666667 0.16666667 0
0.8 0.16666667 0
0.83333333 0.16666667 0
0.86666667 0.16666667 0
0.9 0.16666667 0
0.93333333 0.16666667 0
0.96666667 0.16666667 0
1 0.16666667 0
0 0.2 0
0.033333333 0.2 0
0.066666667 0.2 0
0.1 0.2 0
0.13333333 0.2 0
0.16666667 0.2 0
0.2 0.2 0
0.23333333 0.2 0
0.26666667 0.2 0
0.3 0.2 0
0.33333333 0.2 0
0.36666667 0.2 0
0.4 0.2 0
0.43333333 0.2 0
0.46666667 0.2 0
0.5 0.2 0
0.53333333 0.2 0
0.56666667 0.2 0
0.6 0.2 0
0.63333333 0.2 0
0.66666667 0.2 0
0.7 0.2 0
0.73333333 0.2 0
0.76666667 0.2 0
0.8 0.2 0
0.83333333 0.2 0
0.86666667 0.2 0
0.9 0.2 0
0.93333333 0.2 0
0.96666667 0.2 0
1 0.2 0
0 0.23333333 0
0.033333333 0.23333333 0
0.066666667 0.23333333 0
0.1 0.23333333 0
0.13333333 0.23333333 0
0.16666667 0.23333333 0
0.2 0.23333333 0
0.23333333 0.23333333 0
0.26666667 0.23333333 0
0.3 0.23333333 0
0.33333333 0.23333333 0
0.36666667 0.23333333 0
0.4 0.23333333 0
0.43333333 0.23333333 0
0.46666667 0.23333333 0
0.5 0.23333333 0
0.53333333 0.23333333 0
0.56666667 0.23333333 0
0.6 0.23333333 0
0.63333333 0.23333333 0
0.66666667 0.23333333 0
0.7 0.23333333 0
0.73333333 0.23333333 0
0.76666667 0.23333333 0
0.8 0.23333333 0
0.83333333 0.23333333 0
0.86666667 0.23333333 0
0.9 0.23333333 0
0.93333333 0.23333333 0
0.96666667 0.23333333 0
1 0.23333333 0
0 0.26666667 0
0.033333333 0.26666667 0
0.066666667 0.26666667 0
0.1 0.26666667 0
0.13333333 0.26666667 0
0.16666667 0.26666667 0
0.2 0.26666667 0
0.23333333 0.26666667 0
0.26666667 0.26666667 0
0.3 0.26666667 0
0.33333333 0.26666667 0
0.36666667 0.26666667 0
0.4 0.26666667 0
0.43333333 0.26666667 0
0.46666667 0.26666667 0
0.5 0.26666667 0
0.53333333 0.26666667 0
0.56666667 0.26666667 0
0.6 0.26666667 0
0.63333333 0.26666667 0
0.66666667 0.26666667 0
0.7 0.26666667 0
0.73333333 0.26666667 0
0.76666667 0.26666667 0
0.8 0.26666667 0
0.83333333 0.26666667 0
0.86666667 0.26666667 0
0.9 0.26666667 0
0.93333333 0.26666667 0
0.96666667 0.26666667 0
1 0.26666667 0
0 0.3 0
0.033333333 0.3 0
0.066666667 0.3 0
0.1 0.3 0
0.13333333 0.3 0
0.16666667 0.3 0
0.2 0.3 0
0.23333333 0.3 0
0.26666667 0.3 0
0.3 0.3 0
0.33333333 0.3 0
0.36666667 0.3 0
0.4 0.3 0
0.43333333 0.3 0
0.46666667 0.3 0
0.5 0.3 0
0.53333333 0.3 0
0.56666667 0.3 0
0.6 0.3 0
0.63333333 0.3 0
0.66666667 0.3 0
0.7 0.3 0
0.73333333 0.3 0
0.76666667 0.3 0
0.8 0.3 0
0.83333333 0.3 0
0.86666667 0.3 0
0.9 0.3 0
0.93333333 0.3 0
0.96666667 0.3 0
1 0.3 0
0 0.33333333 0
0.033333333 0.33333333 0
0.066666667 0.33333333 0
0.1 0.33333333 0
0.13333333 0.33333333 0
0.16666667 0.33333333 0
0.2 0.33333333 0
0.23333333 0.33333333 0
0.26666667 0.33333333 0
0.3 0.33333333 0
0.33333333 0.33333333 0
0.36666667 0.33333333 0
0.4 0.33333333 0
0.43333333 0.33333333 0
0.46666667 0.33333333 0
0.5 0.33333333 0
0.53333333 0.33333333 0
0.56666667 0.33333333 0
0.6 0.33333333 0
0.63333333 0.33333333 0
0.66666667 0.33333333 0
0.7 0.33333333 0
0.73333333 0.33333333 0
0.76666667 0.33333333 0
0.8 0.33333333 0
0.83333333 0.33333333 0
0.86666667 0.33333333 0
0.9 0.33333333 0
0.93333333 0.33333333 0
0.96666667 0.33333333 0
1 0.33333333 0
0 0.36666667 0
0.033333333 0.36666667 0
0.066666667 0.36666667 0
0.1 0.36666667 0
0.13333333 0.36666667 0
0.16666667 0.36666667 0
0.2 0.36666667 0
0.23333333 0.36666667 0
0.26666667 0.36666667 0
0.3 0.36666667 0
0.33333333 0.36666667 0
0.36666667 0.36666667 0
0.4 0.36666667 0
0.43333333 0.36666667 0
0.46666667 0.36666667 0
0.5 0.36666667 0
0.53333333 0.36666667 0
0.56666667 0.36666667 0
0.6 0.36666667 0
0.63333333 0.36666667 0
0.66666667 0.36666667 0
0.7 0.36666667 0
0.73333333 0.36666667 0
0.76666667 0.36666667 0
0.8 0.36666667 0
0.83333333 0.36666667 0
0.86666667 0.36666667 0
0.9 0.36666667 0
0.93333333 0.36666667 0
0.96666667 0.36666667 0
1 0.36666667 0
0 0.4 0
0.033333333 0.4 0
0.066666667 0.4 0
0.1 0.4 0
0.13333333 0.4 0
0.16666667 0.4 0
0.2 0.4 0
0.23333333 0.4 0
0.26666667 0.4 0
0.3 0.4 0
0.33333333 0.4 0
0.36666667 0.4 0
0.4 0.4 0
0.43333333 0.4 0
0.46666667 0.4 0
0.5 0.4 0
0.53333333 0.4 0
0.56666667 0.4 0
0.6 0.4 0
0.63333333 0.4 0
0.66666667 0.4 0
0.7 0.4 0
0.73333333 0.4 0
0.76666667 0.4 0
0.8 0.4 0
0.83333333 0.4 0
0.86666667 0.4 0
0.9 0.4 0
0.93333333 0.4 0
0.96666667 0.4 0
1 0.4 0
0 0.43333333 0
0.033333333 0.43333333 0
0.066666667 0.43333333 0
0.1 0.43333333 0
0.13333333 0.43333333 0
0.16666667 0.43333333 0
0.2 0.43333333 0
0.23333333 0.43333333 0
0.26666667 0.43333333 0
0.3 0.43333333 0
0.33333333 0.43333333 0
0.36666667 0.43333333 0
0.4 0.43333333 0
0.43333333 0.43333333 0
0.46666667 0.43333333 0
0.5 0.43333333 0
0.53333333 0.43333333 0
0.56666667 0.43333333 0
0.6 0.43333333 0
0.63333333 0.43333333 0
0.66666667 0.43333333 0
0.7 0.43333333 0
0.73333333 0.43333333 0
0.76666667 0.43333333 0
0.8 0.43333333 0
0.83333333 0.43333333 0
0.86666667 0.43333333 0
0.9 0.43333333 0
0.93333333 0.43333333 0
0.96666667 0.43333333 0
1 0.43333333 0
0 0.46666667 0
0.033333333 0.46666667 0
0.066666667 0.46666667 0
0.1 0.46666667 0
0.13333333 0.46666667 0
0.16666667 0.46666667 0
0.2 0.46666667 0
0.23333333 0.46666667 0
0.26666667 0.46666667 0
0.3 0.46666667 0
0.33333333 0.46666667 0
0.36666667 0.46666667 0
0.4 0.46666667 0
0.43333333 0.46666667 0
0.46666667 0.46666667 0
0.5 0.46666667 0
0.53333333 0.46666667 0
0.56666667 0.46666667 0
0.6 0.46666667 0
0.63333333 0.46666667 0
0.66666667 0.46666667 0
0.7 0.46666667 0
0.73333333 0.46666667 0
0.76666667 0.46666667 0
0.8 0.46666667 0
0.83333333 0.46666667 0
0.86666667 0.46666667 0
0.9 0.46666667 0
0.93333333 0.46666667 0
0.96666667 0.46666667 0
1 0.46666667 0
0 0.5 0
0.033333333 0.5 0
0.066666667 0.5 0
0.1 0.5 0
0.13333333 0.5 0
0.16666667 0.5 0
0.2 0.5 0
0.23333333 0.5 0
0.26666667 0.5 0
0.3 0.5 0
0.33333333 0.5 0
0.36666667 0.5 0
0.4 0.5 0
0.43333333 0.5 0
0.46666667 0.5 0
0.5 0.5 0
0.53333333 0.5 0
0.56666667 0.5 0
0.6 0.5 0
0.63333333 0.5 0
0.66666667 0.5 0
0.7 0.5 0
0.73333333 0.5 0
0.76666667 0.5 0
0.8 0.5 0
0.83333333 0.5 0
0.86666667 0.5 0
0.9 0.5 0
0.93333333 0.5 0
0.96666667 0.5 0
1 0.5 0
0 0.53333333 0
0.033333333 0.53333333 0
0.066666667 0.53333333 0
0.1 0.53333333 0
0.13333333 0.53333333 0
0.16666667 0.53333333 0
0.2 0.53333333 0
0.23333333 0.53333333 0
0.26666667 0.53333333 0
0.3 0.53333333 0
0.33333333 0.53333333 0
0.36666667 0.53333333 0
0.4 0.53333333 0
0.43333333 0.53333333 0
0.46666667 0.53333333 0
0.5 0.53333333 0
0.53333333 0.53333333 0
0.56666667 0.53333333 0
0.6 0.53333333 0
0.63333333 0.53333333 0
0.66666667 0.53333333 0
0.7 0.53333333 0
0.73333333 0.53333333 0
0.76666667 0.53333333 0
0.8 0.53333333 0
[...]
CELL_DATA 1920
Scalars  Label int 1
LOOKUP_TABLE FreeFempp_table
0
0
0
0
0
0
0
0
0
0
0
0
0
0
0
0
0
0
0
0
0
0
0
0
0
0
0
0
0
0
0
0
0
0
0
0
0
0
0
0
0
0
0
0
0
0
0
0
0
0
0
0
0
0
0
0
0
0
0
0
0
0
0
0
0
0
0
0
0
0
0
0
0
0
0
0
0
0
0
0
0
0
0
0
0
0
0
0
0
0
0
0
0
0
0
0
0
0
0
0
0
0
0
0
0
0
0
0
0
0
0
0
0
0
0
0
0
0
0
0
0
0
0
0
0
0
0
0
0
0
0
0
0
0
0
0
0
0
0
0
0
0
0
0
0
0
0
0
0
0
0
0
0
0
0
0
0
0
0
0
0
0
0
0
0
0
0
0
0
0
0
0
0
0
0
0
0
0
0
0
0
0
0
0
0
0
0
0
0
0
0
0
0
0
0
0
0
0
0
0
0
0
0
0
0
0
0
0
0
0
0
0
0
0
0
0
0
0
0
0
0
0
0
0
0
0
0
0
0
0
0
0
0
0
0
0
0
0
0
0
0
0
0
0
0
0
0
0
0
0
0
0
0
0
0
0
0
0
0
0
0
0
0
0
0
0
0
0
0
0
0
0
0
0
0
0
0
0
0
0
0
0
0
0
0
0
0
0
0
0
0
0
0
0
0
0
0
0
0
0
0
0
0
0
0
0
0
0
0
0
0
0
0
0
0
0
0
0
0
0
0
0
0
0
0
0
0
0
0
0
0
0
0
0
0
0
0
0
0
0
0
0
0
0
0
0
0
0
0
0
0
0
0
0
0
0
0
0
0
0
0
0
0
0
0
0
0
0
0
0
0
0
0
0
0
0
0
0
0
0
0
0
0
0
0
0
0
0
0
0
0
0
0
0
0
0
0
0
0
0
0
0
0
0
0
0
0
0
0
0
0
0
0
0
0
0
0
0
0
0
0
0
0
0
0
0
0
0
0
0
0
0
0
0
0
0
0
0
0
0
0
0
0
0
0
0
0
0
0
0
0
0
0
0
0
0
0
0
0
0
0
0
0
0
0
0
0
0
0
0
0
0
0
0
0
0
0
0
0
0
0
0
0
0
0
0
0
0
0
0
0
0
0
0
0
0
0
0
0
0
0
0
0
0
0
0
0
0
0
0
0
0
0
0
0
0
0
0
0
0
0
0
0
0
0
0
0
0
0
0
0
0
0
0
0
0
0
0
0
0
0
0
0
0
0
0
0
0
0
0
0
0
0
0
0
0
0
0
0
0
0
0
0
0
0
0
0
0
0
0
0
0
0
0
0
0
0
0
0
0
0
0
0
0
0
0
0
0
0
0
0
0
0
0
0
0
0
0
0
0
0
0
0
0
0
0
0
0
0
0
0
0
0
0
0
0
0
0
0
0
0
0
0
0
0
0
0
0
0
0
0
0
0
0
0
0
0
0
0
0
0
0
0
0
0
0
0
0
0
0
0
0
0
0
0
0
0
0
0
0
0
0
0
0
0
0
0
0
0
0
0
0
0
0
0
0
0
0
0
0
0
0
0
0
0
0
0
0
0
0
0
0
0
0
0
0
0
0
0
0
0
0
0
0
0
0
0
0
0
0
0
0
0
0
0
0
0
0
0
0
0
0
0
0
0
0
0
0
0
0
0
0
0
0
0
0
0
0
0
0
0
0
0
0
0
0
0
0
0
0
0
0
0
0
0
0
0
0
0
0
0
0
0
0
0
0
0
0
0
0
0
0
0
0
0
0
0
0
0
0
0
0
0
0
0
0
0
0
0
0
0
0
0
0
0
0
0
0
0
0
0
0
0
0
0
0
0
0
0
0
0
0
0
0
0
0
0
0
0
0
0
0
0
0
0
0
0
0
0
0
0
0
0
0
0
0
0
0
0
0
0
0
0
0
0
0
0
0
0
0
0
0
0
0
0
0
0
0
0
0
0
0
0
0
0
0
0
0
0
0
0
0
0
0
0
0
0
0
0
0
0
0
0
0
0
0
0
0
0
0
0
0
0
0
0
0
0
0
0
0
0
0
0
0
0
0
0
0
0
0
0
0
0
0
0
0
0
0
0
0
0
0
0
0
0
0
0
0
0
0
0
0
0
0
0
0
0
0
0
0
0
0
0
0
0
0
0
0
0
0
0
0
0
0
0
0
0
0
0
0
0
0
0
0
0
0
0
0
0
0
0
0
0
0
0
0
0
0
0
0
0
0
0
0
0
0
0
0
0
0
0
0
0
0
0
0
0
0
0
0
0
0
0
0
0
0
0
0
0
0
0
0
0
0
0
0
0
0
0
0
0
0
0
0
0
0
0
0
0
0
0
0
0
0
0
0
0
0
0
0
0
0
0
0
0
0
0
0
0
0
0
0
0
0
0
0
0
0
0
0
0
0
0
0
0
0
0
0
0
0
0
0
0
0
0
0
0
0
0
0
0
0
0
0
0
0
0
0
0
0
0
0
0
0
0
0
0
0
0
0
0
0
0
0
0
0
0
0
0
0
0
0
0
0
0
0
0
0
0
0
0
0
0
0
0
0
0
0
0
0
0
0
0
0
0
0
0
0
0
0
0
0
0
0
0
0
0
0
0
0
0
0
0
0
0
0
0
0
0
0
0
0
0
0
0
0
0
0
0
0
0
0
0
0
0
0
0
0
0
0
0
0
0
0
0
0
0
0
0
0
0
0
0
0
0
0
0
0
0
0
0
0
0
0
0
0
0
0
0
0
0
0
0
0
0
0
0
0
0
0
0
0
0
0
0
0
0
0
0
0
0
0
0
0
0
0
0
0
0
0
0
0
0
0
0
0
0
0
0
0
0
0
0
0
0
0
0
0
0
0
0
0
0
0
0
0
0
0
0
0
0
0
0
0
0
0
0
0
0
0
0
0
0
0
0
0
0
0
0
0
0
0
0
0
0
0
0
0
0
0
0
0
0
0
0
0
0
0
0
0
0
0
0
0
0
0
0
0
0
0
0
0
0
0
0
0
0
0
0
0
0
0
0
0
0
0
0
0
0
0
0
0
0
0
0
0
0
0
0
0
0
0
0
0
0
0
0
0
0
0
0
0
0
0
0
0
0
0
0
0
0
0
0
0
0
0
0
0
0
0
0
0
0
0
0
0
0
0
0
0
0
0
0
0
0
0
0
0
0
0
0
0
0
0
0
0
0
0
0
0
0
0
0
0
0
0
0
0
0
0
0
0
0
0
0
0
0
0
0
0
0
0
0
0
0
0
0
0
0
0
0
0
0
0
0
0
0
0
0
0
0
0
0
0
0
0
0
0
0
0
0
0
0
0
0
0
0
0
0
0
0
0
0
0
0
0
0
0
0
0
0
0
0
0
0
0
0
0
0
0
0
0
0
0
0
0
0
0
0
0
0
0
0
0
0
0
0
0
0
0
0
0
0
0
0
0
0
0
0
0
0
0
0
0
0
0
0
0
0
0
0
0
0
0
0
0
0
0
0
0
0
0
0
0
0
0
0
0
0
0
0
0
0
0
0
0
0
0
0
0
0
0
0
0
0
0
0
0
0
0
0
0
0
0
0
0
0
0
0
0
0
0
0
0
0
0
0
0
0
0
0
0
0
0
0
0
0
0
0
0
0
0
0
0
0
0
0
0
0
0
0
0
0
0
0
0
0
0
0
0
0
0
0
0
0
0
0
0
0
0
0
0
0
0
0
0
0
0
0
0
0
0
0
0
0
0
0
0
0
0
0
0
0
0
0
0
0
0
0
0
0
0
0
0
0
0
0
0
0
0
0
0
0
0
0
0
0
0
0
0
0
0
0
0
0
0
0
0
0
0
0
0
0
0
0
0
0
0
0
0
0
0
0
0
0
0
0
0
0
0
0
0
0
0
0
0
0
0
0
0
0
0
0
0
0
0
0
0
0
0
0
0
0
0
0
0
0
0
0
0
0
0
0
0
0
0
0
0
0
0
0
0
0
0
0
0
0
0
0
0
0
0
0
0
0
0
0
0
0
0
0
0
0
0
0
0
0
0
0
0
0
0
0
0
0
0
0
0
0
0
0
0
0
0
0
0
0
0
0
0
1
1
1
1
1
1
1
1
1
1
1
1
1
1
1
1
1
1
1
1
1
1
1
1
1
1
1
1
1
1
2
2
2
2
2
2
2
2
2
2
2
2
2
2
2
2
2
2
2
2
2
2
2
2
2
2
2
2
2
2
3
3
3
3
3
3
3
3
3
3
3
3
3
3
3
3
3
3
3
3
3
3
3
3
3
3
3
3
3
3
4
4
4
4
4
4
4
4
4
4
4
4
4
4
4
4
4
4
4
4
4
4
4
4
4
4
4
4
4
4

LOOKUP_TABLE FreeFempp_table 5
1.00000000 0.00000000 0.00000000 1.00000000
1.00000000 1.00000000 0.00000000 1.00000000
1.00000000 0.00000000 1.00000000 1.00000000
0.00000000 1.00000000 0.00000000 1.00000000
0.00000000 1.00000000 1.00000000 1.00000000

POINT_DATA 961
FIELD FieldData 1
Density 1 961 float
8.53458070e-04 7.30989152e-04 8.71682889e-04 9.30441485e-04 9.66853695e-04 1.00006454e-03 1.03271881e-03 1.05524983e-03 1.04462123e-03 9.62417049e-04 7.71348656e-04 5.34633524e-04 4.86203149e-04 1.28592318e-03 8.85061622e-01 9.40769792e-01 9.42319155e-01 8.88972998e-01 7.55992651e-01 7.38907576e-01 7.23888814e-01 7.06776738e-01 6.68540478e-01 5.99043369e-01 5.51398396e-01 5.18518984e-01 4.99184281e-01 4.90067810e-01 4.86257166e-01 5.01237690e-01 3.90775651e-01 2.31099344e-04 1.97450398e-04 2.06302619e-04 2.12568324e-04 2.18488334e-04 2.24822186e-04 2.32420876e-04 2.41644695e-04 2.52331927e-04 2.63522583e-04 2.72150792e-04 2.71745317e-04 2.74321384e-04 4.06680629e-04 2.32482757e-02 9.97494578e-01 2.84539908e-03 8.64064670e-04 8.31273854e-01 8.26588869e-01 8.54824960e-01 8.67357135e-01 8.66585314e-01 8.13293338e-01 7.39888370e-01 6.96416199e-01 6.73172057e-01 6.62625372e-01 6.57204092e-01 6.63154066e-01 5.08060932e-01 1.65680147e-04 1.44673759e-04 1.46353021e-04 1.46535211e-04 1.47234095e-04 1.48176245e-04 1.49409141e-04 1.51056578e-04 1.53260160e-04 1.56265480e-04 1.60605487e-04 1.67119390e-04 1.77857903e-04 2.14100655e-04 5.37239655e-04 9.89801168e-01 9.80782866e-01 2.56577798e-04 1.95354427e-04 1.80718009e-04 2.18972666e-04 2.80082546e-04 5.22715563e-04 1.95228066e-02 5.19301355e-01 5.25090814e-01 5.53554237e-01 5.73087513e-01 5.84093809e-01 5.78849077e-01 4.78603572e-01 1.51558357e-04 1.34177710e-04 1.35901340e-04 1.35306022e-04 1.34834962e-04 1.34281087e-04 1.33673107e-04 1.33049485e-04 1.32441128e-04 1.31802168e-04 1.31008594e-04 1.29973778e-04 1.29204462e-04 1.31447174e-04 1.47976752e-04 4.27645136e-04 9.97067094e-01 9.88871813e-01 2.60604284e-04 1.83260519e-04 1.58184368e-04 1.35817187e-04 1.23947146e-04 1.22154015e-04 1.38695279e-04 2.05870179e-04 5.13894891e-04 2.96239718e-03 3.28577980e-02 1.62181541e-01 2.62699038e-01 1.59446208e-04 1.36851188e-04 1.40295364e-04 1.40393284e-04 1.40131131e-04 1.39185620e-04 1.37736046e-04 1.35965878e-04 1.34044822e-04 1.32001747e-04 1.29659005e-04 1.26653089e-04 1.22467754e-04 1.17429758e-04 1.14840965e-04 1.17119722e-04 1.71492225e-04 9.96031404e-01 9.98660922e-01 2.40785554e-02 4.07078798e-04 1.86029167e-04 1.37386538e-04 1.20617988e-04 1.17601085e-04 1.18069940e-04 1.30158689e-04 2.03698248e-04 5.55567967e-04 2.54398119e-03 1.93606634e-02 2.17197565e-04 1.61442644e-04 1.66791579e-04 1.67559949e-04 1.68629151e-04 1.68660816e-04 1.67526756e-04 1.65205201e-04 1.61947872e-04 1.58062248e-04 1.53512723e-04 1.47772094e-04 1.39987547e-04 1.29388238e-04 1.17367345e-04 1.10214707e-04 1.10134293e-04 1.17108211e-04 4.99009097e-04 9.96771276e-01 9.90950167e-01 9.87225592e-01 9.88184929e-01 8.30817875e-03 1.85359284e-04 1.22158046e-04 1.16818861e-04 1.20384255e-04 1.68412691e-04 4.53818706e-04 2.06894171e-03 7.01043406e-04 3.32673226e-04 3.20487918e-04 3.03376175e-04 2.99414794e-04 3.01897730e-04 3.09504569e-04 3.19397106e-04 3.27783404e-04 3.31873423e-04 3.30615789e-04 3.22192878e-04 3.01134103e-04 2.60684959e-04 1.99718619e-04 1.36339120e-04 1.13131944e-04 1.09022367e-04 1.09621717e-04 1.16975199e-04 9.46207047e-01 9.71378922e-01 9.85464394e-01 9.96411979e-01 9.97914255e-01 9.91766274e-01 1.45733706e-04 1.19255994e-04 1.19151409e-04 1.88273989e-04 9.20514809e-04 5.98563366e-02 9.65617597e-03 3.69706331e-03 2.13425956e-03 1.68534205e-03 1.57837139e-03 1.69982156e-03 2.06440361e-03 2.80264416e-03 4.02558036e-03 5.59522444e-03 7.06622936e-03 8.14590883e-03 8.97763018e-03 9.12993867e-03 4.96232975e-03 5.93090896e-04 1.46025224e-04 1.12529255e-04 1.09001005e-04 1.09600835e-04 1.41062614e-04 2.26256714e-04 4.29973996e-04 1.59654533e-03 9.77230430e-01 9.95056808e-01 1.49210202e-04 1.15527189e-04 1.22338737e-04 4.06878826e-04 4.21237379e-01 4.31052029e-01 4.37434286e-01 4.26467240e-01 4.09734368e-01 3.95615965e-01 3.90712172e-01 3.95526022e-01 4.05146092e-01 4.12752897e-01 4.13113892e-01 4.04841810e-01 3.90641302e-01 3.72575790e-01 3.50114137e-01 3.23026389e-01 2.85425097e-01 2.12238640e-01 3.34185399e-02 2.15965018e-04 1.12551461e-04 1.15760078e-04 1.31698936e-04 1.63561504e-04 2.08176149e-04 2.74671416e-04 1.44181279e-02 9.98627722e-01 1.22368845e-04 1.15848932e-04 1.59698873e-04 6.19479179e-01 7.43148446e-01 7.48815536e-01 7.64841080e-01 7.77100623e-01 7.83537507e-01 7.83804536e-01 7.79000103e-01 7.70377278e-01 7.58863807e-01 7.45331228e-01 7.29620934e-01 7.09306121e-01 6.80974126e-01 6.42935157e-01 5.94038844e-01 5.32993197e-01 4.64849502e-01 4.07361507e-01 3.65980774e-01 2.76432395e-01 1.72591972e-04 1.56049209e-04 1.60118303e-04 1.87172802e-04 2.26896256e-04 3.16467573e-04 9.98929262e-01 1.08275027e-03 1.14796196e-04 1.20873032e-04 7.49646306e-01 8.92371416e-01 8.77073109e-01 8.82156909e-01 8.83089781e-01 8.79693091e-01 8.72218788e-01 8.61894667e-01 8.50366473e-01 8.39417756e-01 8.30120146e-01 8.22381318e-01 8.15119207e-01 8.06690156e-01 7.94989705e-01 7.75869548e-01 7.43001401e-01 6.94314480e-01 6.42154276e-01 5.89113832e-01 5.25394261e-01 4.50718492e-01 1.46984984e-03 8.16403190e-04 9.50033835e-04 1.53867912e-03 1.20179076e-02 9.97902036e-01 9.98405516e-01 1.18017473e-04 1.13102433e-04 7.75685966e-01 9.29334223e-01 9.13072169e-01 9.17753935e-01 9.14848149e-01 9.05123353e-01 8.90945494e-01 8.72953475e-01 8.55427682e-01 8.42366934e-01 8.34988654e-01 8.32903326e-01 8.35005701e-01 8.40144932e-01 8.46940935e-01 8.53039622e-01 8.54399323e-01 8.47755134e-01 8.41441393e-01 8.39089692e-01 8.30637395e-01 8.08161318e-01 8.29866767e-01 1.04832441e-01 2.88866349e-02 2.65696435e-03 1.39544858e-03 8.11724722e-01 9.97836888e-01 1.16261632e-04 1.09649860e-04 5.58898211e-01 8.42967927e-01 8.05755496e-01 8.24518979e-01 8.33219171e-01 8.29798281e-01 8.21843386e-01 8.08258653e-01 7.90702283e-01 7.77094841e-01 7.71668732e-01 7.73680925e-01 7.81973720e-01 7.95431733e-01 8.12494636e-01 8.31021547e-01 8.48770797e-01 8.64735007e-01 8.81687284e-01 9.01887774e-01 9.20305431e-01 9.30888593e-01 9.37470615e-01 9.46384132e-01 9.21626747e-01 3.88399959e-01 2.34978809e-03 6.61835372e-02 9.97319818e-01 1.18874384e-04 1.07675318e-04 6.00539371e-02 6.10779971e-02 5.13101257e-02 6.29927590e-02 1.12482175e-01 2.33192131e-01 3.99659336e-01 4.78826970e-01 5.25665283e-01 5.55304587e-01 5.72921991e-01 5.84541023e-01 5.93774617e-01 6.03665590e-01 6.15558565e-01 6.29307926e-01 6.43170774e-01 6.54315650e-01 6.63060308e-01 6.79568291e-01 7.18757451e-01 7.84891665e-01 8.79581988e-01 9.43050444e-01 9.78105724e-01 9.70352530e-01 7.67798543e-01 7.71970212e-01 9.97083724e-01 1.22086640e-04 1.19190110e-04 7.51817413e-03 3.69945681e-03 4.44943178e-03 5.04470384e-03 6.62482576e-03 1.12440372e-02 3.00417896e-02 9.93660465e-02 1.88852996e-01 2.36100599e-01 2.70892978e-01 2.97999918e-01 3.24228734e-01 3.51552576e-01 3.74407887e-01 3.93121094e-01 4.07226473e-01 4.09481883e-01 3.91460598e-01 3.42434317e-01 2.59010822e-01 1.54053554e-01 9.36728865e-02 1.47976160e-01 6.01623535e-01 9.49644446e-01 9.69587088e-01 9.76048708e-01 9.92540896e-01 1.24510363e-04 1.22202793e-04 3.61265708e-03 1.44646410e-03 1.65431213e-03 1.96965062e-03 2.35835207e-03 2.90272408e-03 4.10465850e-03 8.28644820e-03 2.21979581e-02 4.40072231e-02 6.22559860e-02 7.58271739e-02 9.69314277e-02 1.24860115e-01 1.41236708e-01 1.45167768e-01 1.49432927e-01 1.52904719e-01 1.47010639e-01 1.30756751e-01 1.11964025e-01 1.14522107e-01 9.87721533e-02 8.98582488e-02 1.53740183e-01 4.16706175e-01 9.34945285e-01 9.75183904e-01 9.71764684e-01 1.27461579e-04 1.24800747e-04 4.05353913e-03 1.30427349e-03 1.28498173e-03 1.42766477e-03 1.64547598e-03 1.90567528e-03 2.19394430e-03 2.53813434e-03 3.10145714e-03 3.69403837e-03 4.70433710e-03 6.15880033e-03 9.12748557e-03 1.63131114e-02 2.91989669e-02 4.15210202e-02 5.20881861e-02 5.90323396e-02 5.94830103e-02 6.35938123e-02 8.48448724e-02 1.33125365e-01 2.76639044e-01 6.36213958e-01 8.99091065e-01 9.50472176e-01 9.54968035e-01 9.60820913e-01 8.52389693e-01 1.31297842e-04 1.28065920e-04 6.24858495e-03 1.56386150e-03 1.40024454e-03 1.56976096e-03 1.81048200e-03 2.08417536e-03 2.28681858e-03 2.21718592e-03 1.90722547e-03 1.63918315e-03 1.63133454e-03 1.88859692e-03 2.59322789e-03 4.73698787e-03 9.98905022e-03 1.86536312e-02 2.86258347e-02 3.83024998e-02 5.31093478e-02 8.36242512e-02 1.59145191e-01 3.70774776e-01 7.19234049e-01 9.19124007e-01 9.52308834e-01 9.39495921e-01 9.02320147e-01 8.50263655e-01 2.26734695e-03 1.37293435e-04 1.31621593e-04 1.01054776e-02 1.74598442e-03 1.44601939e-03 1.97735569e-03 2.86005205e-03 3.75838671e-03 4.11881413e-03 3.81396827e-03 3.14915320e-03 2.35205865e-03 1.97436684e-03 1.97914196e-03 2.45917775e-03 4.26742993e-03 9.61419567e-03 1.97691247e-02 3.41344923e-02 5.55028841e-02 9.49701145e-02 2.02311963e-01 4.60604519e-01 7.70813346e-01 9.28777993e-01 9.47590709e-01 9.26373065e-01 8.52313161e-01 7.13917792e-01 3.12861592e-01 4.84740216e-04 1.56677124e-04 1.41885466e-04 1.34626785e-02 1.39466277e-03 1.02053757e-03 1.85284100e-03 4.88268165e-03 1.10056112e-02 1.36136841e-02 1.17264502e-02 1.06157968e-02 8.63664784e-03 7.63879716e-03 7.27899559e-03 8.93636700e-03 1.60365719e-02 3.33710052e-02 5.71213141e-02 8.81042033e-02 1.53880700e-01 3.07612419e-01 5.60061395e-01 8.00169587e-01 9.23320770e-01 9.39663708e-01 9.14534330e-01 8.06224406e-01 5.80619872e-01 2.82508016e-01 3.12948809e-03 2.74124730e-04 1.86952399e-04 1.73596491e-04 1.36500737e-02 8.59694614e-04 5.78675885e-04 1.07113796e-03 5.29073970e-03 3.37366462e-02 5.78780994e-02 4.60762978e-02 4.00494486e-02 3.82305533e-02 3.74101177e-02 3.73390093e-02 4.50279266e-02 7.13221282e-02 1.17398530e-01 1.80209056e-01 2.82167763e-01 4.39607531e-01 6.28081977e-01 8.04819465e-01 8.97679687e-01 9.13920462e-01 8.89034033e-01 7.69200504e-01 4.93192047e-01 2.27204725e-01 1.93111934e-02 6.80799480e-04 2.40711772e-04 2.12492771e-04 2.54221755e-04 1.25548374e-02 5.45603805e-04 3.73781339e-04 6.07317779e-04 3.36235226e-03 6.79297149e-02 1.78183809e-01 1.02194384e-01 7.19828084e-02 6.91952184e-02 6.89171702e-02 7.66345710e-02 9.72554833e-02 1.41195849e-01 2.04450607e-01 2.94070661e-01 4.45161849e-01 6.20913088e-01 7.72349596e-01 8.48772645e-01 8.64663780e-01 8.35312784e-01 7.36404121e-01 4.28638071e-01 1.87617987e-01 5.87154776e-02 2.72157229e-03 3.81171383e-04 2.53437232e-04 2.53291626e-04 4.47939557e-04 1.13911079e-02 3.73555464e-04 2.84317153e-04 4.30827000e-04 2.31042434e-03 1.15378484e-01 4.23831969e-01 1.09549545e-01 6.19690605e-02 7.63109028e-02 9.64644700e-02 1.27644464e-01 1.75798193e-01 2.48104781e-01 3.28833729e-01 4.27613467e-01 5.68481624e-01 7.09354222e-01 7.68126965e-01 7.86403179e-01 7.63862908e-01 6.72477424e-01 4.25576866e-01 9.82860327e-02 2.39853300e-02 4.89906222e-03 6.15694211e-04 3.27474525e-04 3.02843284e-04 3.87223321e-04 1.19824091e-03 1.16581321e-02 2.69677956e-04 2.30036501e-04 3.45607375e-04 2.01873342e-03 3.85691375e-01 7.56133139e-01 1.00588329e-01 3.78714539e-02 7.90131390e-02 1.61045104e-01 2.33236909e-01 3.14914048e-01 4.13670391e-01 4.87204939e-01 5.49779654e-01 6.33710623e-01 6.75611913e-01 6.84091508e-01 6.83344781e-01 6.33967161e-01 4.79224950e-01 1.78621337e-01 7.03119952e-03 4.58190544e-03 8.69577110e-04 4.39660478e-04 3.76658776e-04 4.76279150e-04 1.02786697e-03 5.76974871e-03 2.73494739e-02 2.17503970e-04 1.98249792e-04 2.93589605e-04 2.03101500e-03 7.33497381e-01 9.27053809e-01 1.73171297e-01 3.87114212e-02 7.72737637e-02 2.74996132e-01 4.05528575e-01 4.88833189e-01 5.81880271e-01 6.22313797e-01 6.17401659e-01 6.23651028e-01 6.14091575e-01 6.08733535e-01 6.02252960e-01 5.46814263e-01 3.71380359e-01 9.44060534e-02 4.66374541e-03 3.18820076e-03 8.01245973e-04 5.75548678e-04 7.39782758e-04 1.80093758e-03 7.04476330e-03 3.56024057e-02 6.41334727e-02 1.89724335e-04 1.82347110e-04 2.78947438e-04 4.46996139e-03 7.72068560e-01 8.63702536e-01 3.94090772e-01 1.08370423e-01 1.45139948e-01 4.05027360e-01 5.30527532e-01 5.79447865e-01 6.66266799e-01 6.95099831e-01 6.47318542e-01 6.14534557e-01 5.86607158e-01 5.73703468e-01 5.67377388e-01 5.30065656e-01 3.93687069e-01 1.27471760e-01 7.95302074e-03 5.06549189e-03 3.04752798e-03 3.30489129e-03 9.49268881e-03 4.21563163e-02 8.78114626e-02 1.52017266e-01 4.99753505e-01 1.64593293e-04 1.68405983e-04 2.85605027e-04 4.01504189e-02 8.23574126e-01 2.62743413e-01 3.18911076e-01 4.41340774e-01 5.85971177e-01 6.67026341e-01 6.60351872e-01 6.29279077e-01 6.78128421e-01 7.22738206e-01 6.68082416e-01 6.22542202e-01 5.93071461e-01 5.71705937e-01 5.67086697e-01 5.59488773e-01 5.05136669e-01 3.24073315e-01 7.53928646e-02 6.58452697e-03 2.71759648e-02 9.74166021e-02 3.39996517e-01 4.81633067e-01 5.48082709e-01 4.05067056e-01 4.32280958e-01 1.43599653e-04 1.54008390e-04 3.49862123e-04 6.83208227e-01 7.31008470e-01 5.60712069e-02 9.68164131e-02 7.64225721e-01 9.28329289e-01 8.88383329e-01 7.88143039e-01 7.11803854e-01 7.33844817e-01 7.58506238e-01 7.24003375e-01 6.55150712e-01 6.19589269e-01 5.90000689e-01 5.87588668e-01 6.08154178e-01 6.31043255e-01 6.22328639e-01 5.60121179e-01 4.90394682e-01 4.57933992e-01 5.32229364e-01 6.80176675e-01 6.57376409e-01 6.56470835e-01 4.83008265e-01 3.33770275e-01 1.31763867e-04 1.38506890e-04 6.22057880e-04 7.30420649e-01 2.19933569e-01 1.38512738e-02 2.11261809e-02 7.48646140e-01 9.59233582e-01 9.29224133e-01 7.88835824e-01 6.63438082e-01 7.15457976e-01 8.20400298e-01 8.00714195e-01 7.31922388e-01 6.79897010e-01 6.43917084e-01 6.44111812e-01 6.65879369e-01 7.00668752e-01 7.29462564e-01 7.41492093e-01 7.47129023e-01 7.58245945e-01 7.36891031e-01 7.03087926e-01 6.61472797e-01 6.47597671e-01 4.90226895e-01 3.75446260e-01 1.23136502e-04 1.29901862e-04 2.86098174e-03 7.24605680e-01 1.50037885e-01 9.03292373e-03 7.98309967e-03 3.95139247e-01 9.55247700e-01 9.28586364e-01 8.39063764e-01 7.31808066e-01 7.20341146e-01 8.99435937e-01 9.30453420e-01 8.91217530e-01 8.30732465e-01 7.79608965e-01 7.60586441e-01 7.41315603e-01 7.02129781e-01 6.37641609e-01 5.61460376e-01 4.96730119e-01 4.61973101e-01 4.69175130e-01 4.95192617e-01 5.37738621e-01 5.56983948e-01 4.63974416e-01 2.88373888e-01 1.41648721e-04 1.29715510e-04 5.28373301e-01 4.47835892e-01 2.53084898e-01 3.26514393e-02 1.46363694e-02 9.59802642e-02 8.23130608e-01 8.63960326e-01 7.52316236e-01 5.36457002e-01 5.21031678e-01 7.75363386e-01 8.63830328e-01 8.63790929e-01 7.80029953e-01 6.83459759e-01 6.32367671e-01 5.91129005e-01 5.20968437e-01 4.17297781e-01 3.13452482e-01 2.46704176e-01 2.42341638e-01 2.89426774e-01 3.30576926e-01 3.47842634e-01 3.52072775e-01 3.57115120e-01 
