# vtk DataFile Version 2.0
results/6_density.vtk, Created by Freefem++ 
ASCII
DATASET UNSTRUCTURED_GRID
POINTS 961 float
0 0 0
0.033333333 0 0
0.066666667 0 0
0.1 0 0
0.13333333 0 0
0.16666667 0 0
0.2 0 0
0.23333333 0 0
0.26666667 0 0
0.3 0 0
0.33333333 0 0
0.36666667 0 0
0.4 0 0
0.43333333 0 0
0.46666667 0 0
0.5 0 0
0.53333333 0 0
0.56666667 0 0
0.6 0 0
0.63333333 0 0
0.66666667 0 0
0.7 0 0
0.73333333 0 0
0.76666667 0 0
0.8 0 0
0.83333333 0 0
0.86666667 0 0
0.9 0 0
0.93333333 0 0
0.96666667 0 0
1 0 0
0 0.033333333 0
0.033333333 0.033333333 0
0.066666667 0.033333333 0
0.1 0.033333333 0
0.13333333 0.033333333 0
0.16666667 0.033333333 0
0.2 0.033333333 0
0.23333333 0.033333333 0
0.26666667 0.033333333 0
0.3 0.033333333 0
0.33333333 0.033333333 0
0.36666667 0.033333333 0
0.4 0.033333333 0
0.43333333 0.033333333 0
0.46666667 0.033333333 0
0.5 0.033333333 0
0.53333333 0.033333333 0
0.56666667 0.033333333 0
0.6 0.033333333 0
0.63333333 0.033333333 0
0.66666667 0.033333333 0
0.7 0.033333333 0
0.73333333 0.033333333 0
0.76666667 0.033333333 0
0.8 0.033333333 0
0.83333333 0.033333333 0
0.86666667 0.033333333 0
0.9 0.033333333 0
0.93333333 0.033333333 0
0.96666667 0.033333333 0
1 0.033333333 0
0 0.066666667 0
0.033333333 0.066666667 0
0.066666667 0.066666667 0
0.1 0.066666667 0
0.13333333 0.066666667 0
0.16666667 0.066666667 0
0.2 0.066666667 0
0.23333333 0.066666667 0
0.26666667 0.066666667 0
0.3 0.066666667 0
0.33333333 0.066666667 0
0.36666667 0.066666667 0
0.4 0.066666667 0
0.43333333 0.066666667 0
0.46666667 0.066666667 0
0.5 0.066666667 0
0.53333333 0.066666667 0
0.56666667 0.066666667 0
0.6 0.066666667 0
0.63333333 0.066666667 0
0.66666667 0.066666667 0
0.7 0.066666667 0
0.73333333 0.066666667 0
0.76666667 0.066666667 0
0.8 0.066666667 0
0.83333333 0.066666667 0
0.86666667 0.066666667 0
0.9 0.066666667 0
0.93333333 0.066666667 0
0.96666667 0.066666667 0
1 0.066666667 0
0 0.1 0
0.033333333 0.1 0
0.066666667 0.1 0
0.1 0.1 0
0.13333333 0.1 0
0.16666667 0.1 0
0.2 0.1 0
0.23333333 0.1 0
0.26666667 0.1 0
0.3 0.1 0
0.33333333 0.1 0
0.36666667 0.1 0
0.4 0.1 0
0.43333333 0.1 0
0.46666667 0.1 0
0.5 0.1 0
0.53333333 0.1 0
0.56666667 0.1 0
0.6 0.1 0
0.63333333 0.1 0
0.66666667 0.1 0
0.7 0.1 0
0.73333333 0.1 0
0.76666667 0.1 0
0.8 0.1 0
0.83333333 0.1 0
0.86666667 0.1 0
0.9 0.1 0
0.93333333 0.1 0
0.96666667 0.1 0
1 0.1 0
0 0.13333333 0
0.033333333 0.13333333 0
0.066666667 0.13333333 0
0.1 0.13333333 0
0.13333333 0.13333333 0
0.16666667 0.13333333 0
0.2 0.13333333 0
0.23333333 0.13333333 0
0.26666667 0.13333333 0
0.3 0.13333333 0
0.33333333 0.13333333 0
0.36666667 0.13333333 0
0.4 0.13333333 0
0.43333333 0.13333333 0
0.46666667 0.13333333 0
0.5 0.13333333 0
0.53333333 0.13333333 0
0.56666667 0.13333333 0
0.6 0.13333333 0
0.63333333 0.13333333 0
0.66666667 0.13333333 0
0.7 0.13333333 0
0.73333333 0.13333333 0
0.76666667 0.13333333 0
0.8 0.13333333 0
0.83333333 0.13333333 0
0.86666667 0.13333333 0
0.9 0.13333333 0
0.93333333 0.13333333 0
0.96666667 0.13333333 0
1 0.13333333 0
0 0.16666667 0
0.033333333 0.16666667 0
0.066666667 0.16666667 0
0.1 0.16666667 0
0.13333333 0.16666667 0
0.16666667 0.16666667 0
0.2 0.16666667 0
0.23333333 0.16666667 0
0.26666667 0.16666667 0
0.3 0.16666667 0
0.33333333 0.16666667 0
0.36666667 0.16666667 0
0.4 0.16666667 0
0.43333333 0.16666667 0
0.46666667 0.16666667 0
0.5 0.16666667 0
0.53333333 0.16666667 0
0.56666667 0.16666667 0
0.6 0.16666667 0
0.63333333 0.16666667 0
0.66666667 0.16666667 0
0.7 0.16666667 0
0.73333333 0.16666667 0
0.76666667 0.16666667 0
0.8 0.16666667 0
0.83333333 0.16666667 0
0.86666667 0.16666667 0
0.9 0.16666667 0
0.93333333 0.16666667 0
0.96666667 0.16666667 0
1 0.16666667 0
0 0.2 0
0.033333333 0.2 0
0.066666667 0.2 0
0.1 0.2 0
0.13333333 0.2 0
0.16666667 0.2 0
0.2 0.2 0
0.23333333 0.2 0
0.26666667 0.2 0
0.3 0.2 0
0.33333333 0.2 0
0.36666667 0.2 0
0.4 0.2 0
0.43333333 0.2 0
0.46666667 0.2 0
0.5 0.2 0
0.53333333 0.2 0
0.56666667 0.2 0
0.6 0.2 0
0.63333333 0.2 0
0.66666667 0.2 0
0.7 0.2 0
0.73333333 0.2 0
0.76666667 0.2 0
0.8 0.2 0
0.83333333 0.2 0
0.86666667 0.2 0
0.9 0.2 0
0.93333333 0.2 0
0.96666667 0.2 0
1 0.2 0
0 0.23333333 0
0.033333333 0.23333333 0
0.066666667 0.23333333 0
0.1 0.23333333 0
0.13333333 0.23333333 0
0.16666667 0.23333333 0
0.2 0.23333333 0
0.23333333 0.23333333 0
0.26666667 0.23333333 0
0.3 0.23333333 0
0.33333333 0.23333333 0
0.36666667 0.23333333 0
0.4 0.23333333 0
0.43333333 0.23333333 0
0.46666667 0.23333333 0
0.5 0.23333333 0
0.53333333 0.23333333 0
0.56666667 0.23333333 0
0.6 0.23333333 0
0.63333333 0.23333333 0
0.66666667 0.23333333 0
0.7 0.23333333 0
0.73333333 0.23333333 0
0.76666667 0.23333333 0
0.8 0.23333333 0
0.83333333 0.23333333 0
0.86666667 0.23333333 0
0.9 0.23333333 0
0.93333333 0.23333333 0
0.96666667 0.23333333 0
1 0.23333333 0
0 0.26666667 0
0.033333333 0.26666667 0
0.066666667 0.26666667 0
0.1 0.26666667 0
0.13333333 0.26666667 0
0.16666667 0.26666667 0
0.2 0.26666667 0
0.23333333 0.26666667 0
0.26666667 0.26666667 0
0.3 0.26666667 0
0.33333333 0.26666667 0
0.36666667 0.26666667 0
0.4 0.26666667 0
0.43333333 0.26666667 0
0.46666667 0.26666667 0
0.5 0.26666667 0
0.53333333 0.26666667 0
0.56666667 0.26666667 0
0.6 0.26666667 0
0.63333333 0.26666667 0
0.66666667 0.26666667 0
0.7 0.26666667 0
0.73333333 0.26666667 0
0.76666667 0.26666667 0
0.8 0.26666667 0
0.83333333 0.26666667 0
0.86666667 0.26666667 0
0.9 0.26666667 0
0.93333333 0.26666667 0
0.96666667 0.26666667 0
1 0.26666667 0
0 0.3 0
0.033333333 0.3 0
0.066666667 0.3 0
0.1 0.3 0
0.13333333 0.3 0
0.16666667 0.3 0
0.2 0.3 0
0.23333333 0.3 0
0.26666667 0.3 0
0.3 0.3 0
0.33333333 0.3 0
0.36666667 0.3 0
0.4 0.3 0
0.43333333 0.3 0
0.46666667 0.3 0
0.5 0.3 0
0.53333333 0.3 0
0.56666667 0.3 0
0.6 0.3 0
0.63333333 0.3 0
0.66666667 0.3 0
0.7 0.3 0
0.73333333 0.3 0
0.76666667 0.3 0
0.8 0.3 0
0.83333333 0.3 0
0.86666667 0.3 0
0.9 0.3 0
0.93333333 0.3 0
0.96666667 0.3 0
1 0.3 0
0 0.33333333 0
0.033333333 0.33333333 0
0.066666667 0.33333333 0
0.1 0.33333333 0
0.13333333 0.33333333 0
0.16666667 0.33333333 0
0.2 0.33333333 0
0.23333333 0.33333333 0
0.26666667 0.33333333 0
0.3 0.33333333 0
0.33333333 0.33333333 0
0.36666667 0.33333333 0
0.4 0.33333333 0
0.43333333 0.33333333 0
0.46666667 0.33333333 0
0.5 0.33333333 0
0.53333333 0.33333333 0
0.56666667 0.33333333 0
0.6 0.33333333 0
0.63333333 0.33333333 0
0.66666667 0.33333333 0
0.7 0.33333333 0
0.73333333 0.33333333 0
0.76666667 0.33333333 0
0.8 0.33333333 0
0.83333333 0.33333333 0
0.86666667 0.33333333 0
0.9 0.33333333 0
0.93333333 0.33333333 0
0.96666667 0.33333333 0
1 0.33333333 0
0 0.36666667 0
0.033333333 0.36666667 0
0.066666667 0.36666667 0
0.1 0.36666667 0
0.13333333 0.36666667 0
0.16666667 0.36666667 0
0.2 0.36666667 0
0.23333333 0.36666667 0
0.26666667 0.36666667 0
0.3 0.36666667 0
0.33333333 0.36666667 0
0.36666667 0.36666667 0
0.4 0.36666667 0
0.43333333 0.36666667 0
0.46666667 0.36666667 0
0.5 0.36666667 0
0.53333333 0.36666667 0
0.56666667 0.36666667 0
0.6 0.36666667 0
0.63333333 0.36666667 0
0.66666667 0.36666667 0
0.7 0.36666667 0
0.73333333 0.36666667 0
0.76666667 0.36666667 0
0.8 0.36666667 0
0.83333333 0.36666667 0
0.86666667 0.36666667 0
0.9 0.36666667 0
0.93333333 0.36666667 0
0.96666667 0.36666667 0
1 0.36666667 0
0 0.4 0
0.033333333 0.4 0
0.066666667 0.4 0
0.1 0.4 0
0.13333333 0.4 0
0.16666667 0.4 0
0.2 0.4 0
0.23333333 0.4 0
0.26666667 0.4 0
0.3 0.4 0
0.33333333 0.4 0
0.36666667 0.4 0
0.4 0.4 0
0.43333333 0.4 0
0.46666667 0.4 0
0.5 0.4 0
0.53333333 0.4 0
0.56666667 0.4 0
0.6 0.4 0
0.63333333 0.4 0
0.66666667 0.4 0
0.7 0.4 0
0.73333333 0.4 0
0.76666667 0.4 0
0.8 0.4 0
0.83333333 0.4 0
0.86666667 0.4 0
0.9 0.4 0
0.93333333 0.4 0
0.96666667 0.4 0
1 0.4 0
0 0.43333333 0
0.033333333 0.43333333 0
0.066666667 0.43333333 0
0.1 0.43333333 0
0.13333333 0.43333333 0
0.16666667 0.43333333 0
0.2 0.43333333 0
0.23333333 0.43333333 0
0.26666667 0.43333333 0
0.3 0.43333333 0
0.33333333 0.43333333 0
0.36666667 0.43333333 0
0.4 0.43333333 0
0.43333333 0.43333333 0
0.46666667 0.43333333 0
0.5 0.43333333 0
0.53333333 0.43333333 0
0.56666667 0.43333333 0
0.6 0.43333333 0
0.63333333 0.43333333 0
0.66666667 0.43333333 0
0.7 0.43333333 0
0.73333333 0.43333333 0
0.76666667 0.43333333 0
0.8 0.43333333 0
0.83333333 0.43333333 0
0.86666667 0.43333333 0
0.9 0.43333333 0
0.93333333 0.43333333 0
0.96666667 0.43333333 0
1 0.43333333 0
0 0.46666667 0
0.033333333 0.46666667 0
0.066666667 0.46666667 0
0.1 0.46666667 0
0.13333333 0.46666667 0
0.16666667 0.46666667 0
0.2 0.46666667 0
0.23333333 0.46666667 0
0.26666667 0.46666667 0
0.3 0.46666667 0
0.33333333 0.46666667 0
0.36666667 0.46666667 0
0.4 0.46666667 0
0.43333333 0.46666667 0
0.46666667 0.46666667 0
0.5 0.46666667 0
0.53333333 0.46666667 0
0.56666667 0.46666667 0
0.6 0.46666667 0
0.63333333 0.46666667 0
0.66666667 0.46666667 0
0.7 0.46666667 0
0.73333333 0.46666667 0
0.76666667 0.46666667 0
0.8 0.46666667 0
0.83333333 0.46666667 0
0.86666667 0.46666667 0
0.9 0.46666667 0
0.93333333 0.46666667 0
0.96666667 0.46666667 0
1 0.46666667 0
0 0.5 0
0.033333333 0.5 0
0.066666667 0.5 0
0.1 0.5 0
0.13333333 0.5 0
0.16666667 0.5 0
0.2 0.5 0
0.23333333 0.5 0
0.26666667 0.5 0
0.3 0.5 0
0.33333333 0.5 0
0.36666667 0.5 0
0.4 0.5 0
0.43333333 0.5 0
0.46666667 0.5 0
0.5 0.5 0
0.53333333 0.5 0
0.56666667 0.5 0
0.6 0.5 0
0.63333333 0.5 0
0.66666667 0.5 0
0.7 0.5 0
0.73333333 0.5 0
0.76666667 0.5 0
0.8 0.5 0
0.83333333 0.5 0
0.86666667 0.5 0
0.9 0.5 0
0.93333333 0.5 0
0.96666667 0.5 0
1 0.5 0
0 0.53333333 0
0.033333333 0.53333333 0
0.066666667 0.53333333 0
0.1 0.53333333 0
0.13333333 0.53333333 0
0.16666667 0.53333333 0
0.2 0.53333333 0
0.23333333 0.53333333 0
0.26666667 0.53333333 0
0.3 0.53333333 0
0.33333333 0.53333333 0
0.36666667 0.53333333 0
0.4 0.53333333 0
0.43333333 0.53333333 0
0.46666667 0.53333333 0
0.5 0.53333333 0
0.53333333 0.53333333 0
0.56666667 0.53333333 0
0.6 0.53333333 0
0.63333333 0.53333333 0
0.66666667 0.53333333 0
0.7 0.53333333 0
0.73333333 0.53333333 0
0.76666667 0.53333333 0
0.8 0.53333333 0
[...]
CELL_DATA 1920
Scalars  Label int 1
LOOKUP_TABLE FreeFempp_table
0
0
0
0
0
0
0
0
0
0
0
0
0
0
0
0
0
0
0
0
0
0
0
0
0
0
0
0
0
0
0
0
0
0
0
0
0
0
0
0
0
0
0
0
0
0
0
0
0
0
0
0
0
0
0
0
0
0
0
0
0
0
0
0
0
0
0
0
0
0
0
0
0
0
0
0
0
0
0
0
0
0
0
0
0
0
0
0
0
0
0
0
0
0
0
0
0
0
0
0
0
0
0
0
0
0
0
0
0
0
0
0
0
0
0
0
0
0
0
0
0
0
0
0
0
0
0
0
0
0
0
0
0
0
0
0
0
0
0
0
0
0
0
0
0
0
0
0
0
0
0
0
0
0
0
0
0
0
0
0
0
0
0
0
0
0
0
0
0
0
0
0
0
0
0
0
0
0
0
0
0
0
0
0
0
0
0
0
0
0
0
0
0
0
0
0
0
0
0
0
0
0
0
0
0
0
0
0
0
0
0
0
0
0
0
0
0
0
0
0
0
0
0
0
0
0
0
0
0
0
0
0
0
0
0
0
0
0
0
0
0
0
0
0
0
0
0
0
0
0
0
0
0
0
0
0
0
0
0
0
0
0
0
0
0
0
0
0
0
0
0
0
0
0
0
0
0
0
0
0
0
0
0
0
0
0
0
0
0
0
0
0
0
0
0
0
0
0
0
0
0
0
0
0
0
0
0
0
0
0
0
0
0
0
0
0
0
0
0
0
0
0
0
0
0
0
0
0
0
0
0
0
0
0
0
0
0
0
0
0
0
0
0
0
0
0
0
0
0
0
0
0
0
0
0
0
0
0
0
0
0
0
0
0
0
0
0
0
0
0
0
0
0
0
0
0
0
0
0
0
0
0
0
0
0
0
0
0
0
0
0
0
0
0
0
0
0
0
0
0
0
0
0
0
0
0
0
0
0
0
0
0
0
0
0
0
0
0
0
0
0
0
0
0
0
0
0
0
0
0
0
0
0
0
0
0
0
0
0
0
0
0
0
0
0
0
0
0
0
0
0
0
0
0
0
0
0
0
0
0
0
0
0
0
0
0
0
0
0
0
0
0
0
0
0
0
0
0
0
0
0
0
0
0
0
0
0
0
0
0
0
0
0
0
0
0
0
0
0
0
0
0
0
0
0
0
0
0
0
0
0
0
0
0
0
0
0
0
0
0
0
0
0
0
0
0
0
0
0
0
0
0
0
0
0
0
0
0
0
0
0
0
0
0
0
0
0
0
0
0
0
0
0
0
0
0
0
0
0
0
0
0
0
0
0
0
0
0
0
0
0
0
0
0
0
0
0
0
0
0
0
0
0
0
0
0
0
0
0
0
0
0
0
0
0
0
0
0
0
0
0
0
0
0
0
0
0
0
0
0
0
0
0
0
0
0
0
0
0
0
0
0
0
0
0
0
0
0
0
0
0
0
0
0
0
0
0
0
0
0
0
0
0
0
0
0
0
0
0
0
0
0
0
0
0
0
0
0
0
0
0
0
0
0
0
0
0
0
0
0
0
0
0
0
0
0
0
0
0
0
0
0
0
0
0
0
0
0
0
0
0
0
0
0
0
0
0
0
0
0
0
0
0
0
0
0
0
0
0
0
0
0
0
0
0
0
0
0
0
0
0
0
0
0
0
0
0
0
0
0
0
0
0
0
0
0
0
0
0
0
0
0
0
0
0
0
0
0
0
0
0
0
0
0
0
0
0
0
0
0
0
0
0
0
0
0
0
0
0
0
0
0
0
0
0
0
0
0
0
0
0
0
0
0
0
0
0
0
0
0
0
0
0
0
0
0
0
0
0
0
0
0
0
0
0
0
0
0
0
0
0
0
0
0
0
0
0
0
0
0
0
0
0
0
0
0
0
0
0
0
0
0
0
0
0
0
0
0
0
0
0
0
0
0
0
0
0
0
0
0
0
0
0
0
0
0
0
0
0
0
0
0
0
0
0
0
0
0
0
0
0
0
0
0
0
0
0
0
0
0
0
0
0
0
0
0
0
0
0
0
0
0
0
0
0
0
0
0
0
0
0
0
0
0
0
0
0
0
0
0
0
0
0
0
0
0
0
0
0
0
0
0
0
0
0
0
0
0
0
0
0
0
0
0
0
0
0
0
0
0
0
0
0
0
0
0
0
0
0
0
0
0
0
0
0
0
0
0
0
0
0
0
0
0
0
0
0
0
0
0
0
0
0
0
0
0
0
0
0
0
0
0
0
0
0
0
0
0
0
0
0
0
0
0
0
0
0
0
0
0
0
0
0
0
0
0
0
0
0
0
0
0
0
0
0
0
0
0
0
0
0
0
0
0
0
0
0
0
0
0
0
0
0
0
0
0
0
0
0
0
0
0
0
0
0
0
0
0
0
0
0
0
0
0
0
0
0
0
0
0
0
0
0
0
0
0
0
0
0
0
0
0
0
0
0
0
0
0
0
0
0
0
0
0
0
0
0
0
0
0
0
0
0
0
0
0
0
0
0
0
0
0
0
0
0
0
0
0
0
0
0
0
0
0
0
0
0
0
0
0
0
0
0
0
0
0
0
0
0
0
0
0
0
0
0
0
0
0
0
0
0
0
0
0
0
0
0
0
0
0
0
0
0
0
0
0
0
0
0
0
0
0
0
0
0
0
0
0
0
0
0
0
0
0
0
0
0
0
0
0
0
0
0
0
0
0
0
0
0
0
0
0
0
0
0
0
0
0
0
0
0
0
0
0
0
0
0
0
0
0
0
0
0
0
0
0
0
0
0
0
0
0
0
0
0
0
0
0
0
0
0
0
0
0
0
0
0
0
0
0
0
0
0
0
0
0
0
0
0
0
0
0
0
0
0
0
0
0
0
0
0
0
0
0
0
0
0
0
0
0
0
0
0
0
0
0
0
0
0
0
0
0
0
0
0
0
0
0
0
0
0
0
0
0
0
0
0
0
0
0
0
0
0
0
0
0
0
0
0
0
0
0
0
0
0
0
0
0
0
0
0
0
0
0
0
0
0
0
0
0
0
0
0
0
0
0
0
0
0
0
0
0
0
0
0
0
0
0
0
0
0
0
0
0
0
0
0
0
0
0
0
0
0
0
0
0
0
0
0
0
0
0
0
0
0
0
0
0
0
0
0
0
0
0
0
0
0
0
0
0
0
0
0
0
0
0
0
0
0
0
0
0
0
0
0
0
0
0
0
0
0
0
0
0
0
0
0
0
0
0
0
0
0
0
0
0
0
0
0
0
0
0
0
0
0
0
0
0
0
0
0
0
0
0
0
0
0
0
0
0
0
0
0
0
0
0
0
0
0
0
0
0
0
0
0
0
0
0
0
0
0
0
0
0
0
0
0
0
0
0
0
0
0
0
0
0
0
0
0
0
0
0
0
0
0
0
0
0
0
0
0
0
0
0
0
0
0
0
0
0
0
0
0
0
0
0
0
0
0
0
0
0
0
0
0
0
0
0
0
0
0
0
0
0
0
0
0
0
0
0
0
0
0
0
0
0
0
0
0
0
0
0
0
0
0
0
0
0
0
0
0
0
0
0
0
0
0
0
0
0
0
0
0
0
0
0
0
0
0
0
0
0
0
0
0
0
0
0
0
0
0
0
0
0
0
0
0
0
0
0
0
0
0
0
0
0
0
0
0
0
0
0
0
0
0
0
0
0
0
0
0
0
0
0
0
0
0
0
0
0
0
0
0
0
0
0
0
0
0
0
0
0
0
0
0
0
0
0
0
0
0
0
0
0
0
0
0
0
0
0
0
0
0
0
0
0
0
0
0
0
0
0
0
0
0
0
0
0
0
0
0
0
0
0
0
0
0
0
0
0
0
0
0
0
0
0
0
0
0
0
0
0
0
0
0
0
0
0
0
0
0
0
0
0
0
0
0
0
0
0
0
0
0
0
0
0
0
0
0
0
0
0
0
0
0
0
0
0
0
0
0
0
0
0
0
0
0
0
0
0
0
0
0
0
0
0
0
0
0
0
0
0
0
0
0
0
0
0
0
0
0
0
0
0
0
0
0
0
0
0
0
0
0
0
0
0
0
0
0
0
0
0
0
0
0
0
0
0
0
0
1
1
1
1
1
1
1
1
1
1
1
1
1
1
1
1
1
1
1
1
1
1
1
1
1
1
1
1
1
1
2
2
2
2
2
2
2
2
2
2
2
2
2
2
2
2
2
2
2
2
2
2
2
2
2
2
2
2
2
2
3
3
3
3
3
3
3
3
3
3
3
3
3
3
3
3
3
3
3
3
3
3
3
3
3
3
3
3
3
3
4
4
4
4
4
4
4
4
4
4
4
4
4
4
4
4
4
4
4
4
4
4
4
4
4
4
4
4
4
4

LOOKUP_TABLE FreeFempp_table 5
1.00000000 0.00000000 0.00000000 1.00000000
1.00000000 1.00000000 0.00000000 1.00000000
1.00000000 0.00000000 1.00000000 1.00000000
0.00000000 1.00000000 0.00000000 1.00000000
0.00000000 1.00000000 1.00000000 1.00000000

POINT_DATA 961
FIELD FieldData 1
Density 1 961 float
8.33945647e-02 7.36509934e-02 7.65004754e-02 7.76360109e-02 7.86332861e-02 7.97180980e-02 8.09646696e-02 8.24125782e-02 8.40979517e-02 8.60478356e-02 8.82121027e-02 9.02661905e-02 9.12027359e-02 9.16538909e-02 1.10102087e-01 8.80245984e-01 8.81228626e-01 8.81687641e-01 8.84566844e-01 8.82644594e-01 8.82373869e-01 8.82264018e-01 8.82217765e-01 8.82192194e-01 8.82165790e-01 8.82093906e-01 8.82019162e-01 8.81953418e-01 8.81930709e-01 8.81889462e-01 8.81786287e-01 5.95387854e-02 3.35102491e-02 3.67556661e-02 3.84638198e-02 4.00496721e-02 4.18535173e-02 4.39771675e-02 4.64459211e-02 4.92590554e-02 5.23952916e-02 5.57220653e-02 5.86362146e-02 5.89530952e-02 5.35591021e-02 7.16536716e-02 8.71370494e-01 8.40907037e-01 1.99528456e-01 1.15974411e-01 8.82929087e-01 8.82452309e-01 8.82422090e-01 8.82399380e-01 8.82390618e-01 8.82399380e-01 8.82358551e-01 8.82241666e-01 8.82113993e-01 8.82064223e-01 8.82013500e-01 8.81869197e-01 5.31692952e-02 2.66976599e-02 2.83588059e-02 2.87669152e-02 3.00283171e-02 3.16816568e-02 3.36744897e-02 3.59991603e-02 3.86092104e-02 4.13839854e-02 4.40810248e-02 4.62631546e-02 4.72325496e-02 4.66022566e-02 5.11344522e-02 9.41623673e-02 8.59194458e-01 7.99765885e-02 8.38871375e-02 7.67477006e-02 7.77125061e-02 7.44673833e-02 7.38191977e-02 7.73943961e-02 8.93515125e-02 1.00195386e-01 4.12499905e-01 6.26450479e-01 8.21523011e-01 6.62139952e-01 8.81787539e-01 4.87577170e-02 2.43618675e-02 2.64400765e-02 2.64820568e-02 2.71619353e-02 2.81126555e-02 2.92383153e-02 3.05158217e-02 3.19049619e-02 3.31968665e-02 3.39251757e-02 3.33709195e-02 3.05637177e-02 2.44023371e-02 2.06015874e-02 4.18144055e-02 8.37560356e-01 8.36892009e-01 8.73522907e-02 6.11625947e-02 5.27792200e-02 4.17849012e-02 3.38808075e-02 3.09664998e-02 3.84190865e-02 3.50364111e-02 4.49375473e-02 7.58986473e-02 8.72104242e-02 9.75397825e-02 1.72326863e-01 4.32143845e-02 2.21318509e-02 2.54954919e-02 2.59775817e-02 2.64574327e-02 2.66412869e-02 2.65146960e-02 2.61969399e-02 2.59164330e-02 2.56677512e-02 2.50207335e-02 2.32978854e-02 1.99655388e-02 1.49584310e-02 1.11693721e-02 1.61627475e-02 3.57099995e-02 1.21845379e-01 9.73897457e-01 1.02022536e-01 6.79564700e-02 4.85117994e-02 3.07033602e-02 1.89516246e-02 2.33287979e-02 2.13172883e-02 2.06672214e-02 3.42350379e-02 4.58772108e-02 5.00108860e-02 8.08463916e-02 3.51063535e-02 2.01213658e-02 2.56928988e-02 2.68634092e-02 2.74993088e-02 2.73947138e-02 2.63450686e-02 2.44392455e-02 2.24362463e-02 2.09664218e-02 2.00050212e-02 1.88920833e-02 1.69509146e-02 1.41516281e-02 1.07540758e-02 9.24779475e-03 1.20329838e-02 2.57684346e-02 1.10337310e-01 9.65660810e-01 1.19810477e-01 9.03940275e-02 7.27275461e-02 4.20109592e-02 2.82302070e-02 1.88383106e-02 1.88712627e-02 2.75633559e-02 3.50777693e-02 3.89040746e-02 6.23730980e-02 3.04816458e-02 2.03236174e-02 2.94017531e-02 3.06273140e-02 3.11749950e-02 3.16612199e-02 3.13127674e-02 2.91349329e-02 2.59509999e-02 2.31484845e-02 2.15830952e-02 2.10209340e-02 2.02741642e-02 1.87915061e-02 1.65725984e-02 1.19663123e-02 8.66460241e-03 8.66129622e-03 1.08761424e-02 3.03805918e-02 9.15343165e-01 9.02702749e-01 8.88067186e-01 8.84841263e-01 9.71021727e-02 4.52309623e-02 2.28826534e-02 2.73305438e-02 3.29955146e-02 3.47559229e-02 6.26946613e-02 5.99468052e-02 3.12936045e-02 4.40269224e-02 4.24360335e-02 4.05286402e-02 4.00917456e-02 4.13306653e-02 4.26514894e-02 4.22268584e-02 3.95495743e-02 3.59270796e-02 3.35782282e-02 3.32150422e-02 3.34419459e-02 3.26353945e-02 2.85087507e-02 1.95097756e-02 1.16228899e-02 7.40965223e-03 5.59694273e-03 9.43009183e-03 6.84297606e-02 8.90072882e-01 8.96993518e-01 8.94944251e-01 8.83158505e-01 6.54229596e-02 3.38713713e-02 3.60800140e-02 3.43695953e-02 6.33569881e-02 8.81039023e-01 9.10995677e-02 9.16203409e-02 8.28360766e-02 7.90962800e-02 7.36843646e-02 6.44957349e-02 6.22317940e-02 6.42353669e-02 6.65136650e-02 6.56508133e-02 6.24383502e-02 6.12706579e-02 6.51350766e-02 7.25295022e-02 7.07355142e-02 6.42567277e-02 5.09812087e-02 3.09662782e-02 9.44184139e-03 6.05767220e-03 5.37944539e-03 8.92026816e-03 8.54658484e-02 1.19760692e-01 8.95627737e-01 8.97584200e-01 6.20366447e-02 4.19084057e-02 3.54076512e-02 6.42084405e-02 8.82265627e-01 8.81539285e-01 8.80534887e-01 8.81118417e-01 8.80965829e-01 8.80763769e-01 8.80734086e-01 8.80857527e-01 8.81043613e-01 8.81243348e-01 8.81441951e-01 8.93351912e-01 9.04393077e-01 8.92284274e-01 8.56256425e-01 7.98789918e-01 7.35729814e-01 6.70460880e-01 6.16885483e-01 4.13834393e-01 5.38778082e-02 4.34558000e-03 6.56143622e-03 8.73652939e-03 8.63753259e-02 1.21540032e-01 9.17156100e-01 1.87375650e-01 3.87164503e-02 6.03077468e-03 5.77985160e-02 8.82567346e-01 8.83716226e-01 8.83733869e-01 8.83725464e-01 8.83424699e-01 8.82971823e-01 8.82544041e-01 8.82222593e-01 8.82012844e-01 8.81922722e-01 8.81941557e-01 8.82017612e-01 8.82088780e-01 8.82130444e-01 8.82146537e-01 8.82134914e-01 8.82082582e-01 8.81983995e-01 8.81845713e-01 8.81672323e-01 8.81496906e-01 8.81352484e-01 7.08110929e-02 3.14387567e-02 5.24674468e-02 9.28893164e-02 1.47742286e-01 9.94059145e-01 3.44221964e-02 2.92562693e-03 5.18212514e-03 8.78841758e-01 8.79700303e-01 8.81087005e-01 8.81863534e-01 8.82273674e-01 8.82806122e-01 8.82949054e-01 8.82775009e-01 8.82469594e-01 8.82198989e-01 8.82075071e-01 8.82073820e-01 8.82098794e-01 8.82098675e-01 8.82079720e-01 8.82063150e-01 8.82055342e-01 8.82051468e-01 8.82042348e-01 8.82007957e-01 8.81919265e-01 8.81760180e-01 8.81586969e-01 8.87268633e-02 6.94755465e-02 7.00923279e-02 9.23542753e-02 1.50195315e-01 9.42524016e-01 2.90494366e-03 2.84679839e-03 4.60749358e-01 4.33734357e-01 7.81762838e-01 8.84044230e-01 8.77470016e-01 8.79032433e-01 8.80953789e-01 8.82001102e-01 8.82189810e-01 8.81977320e-01 8.81779253e-01 8.81739974e-01 8.81769657e-01 8.81765068e-01 8.81705761e-01 8.81638646e-01 8.81604850e-01 8.87372434e-01 8.93007874e-01 8.83110285e-01 8.82259846e-01 8.82674217e-01 8.82971942e-01 8.82755876e-01 1.06899828e-01 8.83281752e-02 8.53201896e-02 1.04787990e-01 9.35234189e-01 4.40950226e-03 4.09381557e-03 1.41607106e-01 1.53314829e-01 1.45723790e-01 1.31113395e-01 1.17410958e-01 1.11556835e-01 6.46566451e-01 8.90950680e-01 8.81807745e-01 8.81903946e-01 8.81503284e-01 8.81274760e-01 8.81261766e-01 8.81231904e-01 8.81638229e-01 8.98013532e-01 9.03511465e-01 8.97733808e-01 8.83039474e-01 8.62216771e-01 8.54442835e-01 8.91299903e-01 8.87513518e-01 8.88145447e-01 8.85411799e-01 8.83145094e-01 1.06341481e-01 1.10787824e-01 9.78606999e-01 5.30476402e-03 2.91767600e-03 1.51594058e-01 1.93085000e-01 1.84443042e-01 1.59800678e-01 1.25908166e-01 1.00062005e-01 9.74402204e-02 1.06507652e-01 6.16688073e-01 8.99986327e-01 9.02957320e-01 9.00831163e-01 9.03835833e-01 8.99287939e-01 8.78707409e-01 8.33490014e-01 7.61263609e-01 6.77907586e-01 5.91330528e-01 4.72593278e-01 2.77237833e-01 1.17309898e-01 1.08618192e-01 1.11821309e-01 8.47370327e-01 8.90161335e-01 7.20972180e-01 8.74938846e-01 9.28079307e-01 1.33239552e-02 9.81037319e-03 1.50476292e-01 1.89202189e-01 1.81145966e-01 1.62256658e-01 1.35215029e-01 1.08610928e-01 8.81290212e-02 9.17013437e-02 1.09122232e-01 3.10386956e-01 7.50877976e-01 8.20525229e-01 7.82075107e-01 6.47636831e-01 4.24307942e-01 2.35575184e-01 1.47492290e-01 1.18403889e-01 1.10401921e-01 1.09338410e-01 1.05916999e-01 1.00816108e-01 1.21981390e-01 1.19496301e-01 1.22114688e-01 1.25287205e-01 8.93676877e-01 8.88078809e-01 9.01143491e-01 1.59297958e-02 1.49776163e-02 1.49767101e-01 1.89515859e-01 1.83605075e-01 1.66497171e-01 1.42850384e-01 1.15321055e-01 8.83124024e-02 7.64835626e-02 8.44183937e-02 9.84684527e-02 3.18205804e-01 5.08648515e-01 4.36507225e-01 2.48574764e-01 1.25627175e-01 9.73273963e-02 1.17720693e-01 1.20705359e-01 1.21088095e-01 1.21947274e-01 1.23691000e-01 1.19468786e-01 1.10802002e-01 1.20974682e-01 1.22503981e-01 4.82318699e-01 8.92434657e-01 8.90166998e-01 8.90755534e-01 1.75814498e-02 1.65996943e-02 1.48818672e-01 1.89902514e-01 1.86157510e-01 1.70575127e-01 1.47533208e-01 1.16154566e-01 7.80558437e-02 5.22483326e-02 4.82775569e-02 7.69321471e-02 1.84745029e-01 3.61007214e-01 3.19587290e-01 1.69594884e-01 1.02650188e-01 1.21061653e-01 1.21562496e-01 1.21329643e-01 1.21171542e-01 1.21220224e-01 1.21949911e-01 1.21769607e-01 1.04784951e-01 3.72325152e-01 9.06718254e-01 8.94125342e-01 8.90141547e-01 8.86867583e-01 8.84620667e-01 1.92194656e-02 1.81326419e-02 1.46862298e-01 1.88482359e-01 1.87391058e-01 1.73092440e-01 1.49234921e-01 1.12150438e-01 6.12578914e-02 3.12568806e-02 3.08570899e-02 5.45687154e-02 1.45140514e-01 3.21126878e-01 3.46049577e-01 2.03937337e-01 1.09587826e-01 1.17986113e-01 1.21348500e-01 1.20787092e-01 1.20777421e-01 1.20617837e-01 1.20336004e-01 1.06105633e-01 3.17092896e-01 9.14710283e-01 8.90946925e-01 8.87345016e-01 8.84165466e-01 8.83227170e-01 1.02878809e-01 2.03847084e-02 1.83066726e-02 1.43606082e-01 1.84181541e-01 1.86705247e-01 1.73862949e-01 1.48480505e-01 1.05130002e-01 4.38777506e-02 1.93009507e-02 2.33517643e-02 4.63437065e-02 1.43794402e-01 3.20358872e-01 4.11185384e-01 3.19674999e-01 1.60254061e-01 1.00255020e-01 1.20815739e-01 1.20317034e-01 1.20021820e-01 1.20011248e-01 1.21836975e-01 1.45917490e-01 8.91655385e-01 8.93388033e-01 8.87416422e-01 8.82962108e-01 8.81441355e-01 8.80841792e-01 8.57589990e-02 3.81007567e-02 2.53433716e-02 1.39397442e-01 1.77397504e-01 1.84845954e-01 1.74071059e-01 1.46992490e-01 9.86570343e-02 3.32775600e-02 1.49181802e-02 1.94458272e-02 4.49360684e-02 1.47634938e-01 3.37889701e-01 5.06988168e-01 5.36114991e-01 4.15275872e-01 2.32292414e-01 1.31425366e-01 1.04268447e-01 1.00413203e-01 1.12145901e-01 2.30944276e-01 8.43483448e-01 8.97031546e-01 8.88486624e-01 8.81981432e-01 8.80072832e-01 8.80478382e-01 1.11198477e-01 7.31582269e-02 5.06488606e-02 5.48912287e-02 1.35094166e-01 1.69775203e-01 1.83386415e-01 1.75582081e-01 1.46964341e-01 9.63247567e-02 3.14567648e-02 1.38209397e-02 1.76312588e-02 4.42668349e-02 1.31997094e-01 3.24424744e-01 5.90821981e-01 7.43384838e-01 7.93351650e-01 7.92155087e-01 7.73912489e-01 7.77431130e-01 8.24384809e-01 8.88161302e-01 9.04397011e-01 8.94533813e-01 8.88516247e-01 8.80154192e-01 8.77404690e-01 8.78571332e-01 2.92507857e-01 1.03981860e-01 8.43781829e-02 6.73523843e-02 7.96376020e-02 1.31777763e-01 1.63288057e-01 1.83314458e-01 1.79153159e-01 1.48524284e-01 9.65875015e-02 3.46166007e-02 1.37106581e-02 1.65502634e-02 4.08109836e-02 1.07715279e-01 2.59689987e-01 6.11579359e-01 8.36916387e-01 8.95628333e-01 9.04588461e-01 8.95013750e-01 8.82250488e-01 8.83033872e-01 8.84633243e-01 8.86591434e-01 8.86066198e-01 8.78538787e-01 8.73185575e-01 8.74756038e-01 9.40373093e-02 1.03938691e-01 9.32131559e-02 9.09111798e-02 9.18764696e-02 9.89394188e-02 1.30467415e-01 1.59314558e-01 1.83612138e-01 1.82785094e-01 1.48354352e-01 9.18900818e-02 3.52707282e-02 1.39231272e-02 1.51372440e-02 3.42572965e-02 9.52885002e-02 1.70359567e-01 5.34671307e-01 8.52244079e-01 9.04686928e-01 8.82211506e-01 8.82386208e-01 8.82688046e-01 8.83207679e-01 8.84006262e-01 8.84375930e-01 8.80691886e-01 8.70280981e-01 8.14852178e-01 1.12462126e-01 1.07945673e-01 9.61307213e-02 8.70148316e-02 9.24435332e-02 1.00934893e-01 1.08324416e-01 1.31660968e-01 1.58661991e-01 1.81916311e-01 1.82937831e-01 1.45465016e-01 7.98452422e-02 2.87213717e-02 1.41328499e-02 1.38798915e-02 2.56315023e-02 1.00743175e-01 1.13458477e-01 3.33435148e-01 7.98930764e-01 9.04563427e-01 8.82255018e-01 8.82610679e-01 8.82979035e-01 8.83229613e-01 8.83385718e-01 8.82977724e-01 8.78237724e-01 8.50273728e-01 1.03832111e-01 1.06509924e-01 1.05616421e-01 1.02324516e-01 9.96339694e-02 1.05027296e-01 1.10287286e-01 1.13860592e-01 1.33699760e-01 1.61800191e-01 1.78880289e-01 1.76232606e-01 1.42742440e-01 6.64809644e-02 1.82644781e-02 1.30169652e-02 1.31094623e-02 1.96080618e-02 7.57166594e-02 1.15709223e-01 1.40310764e-01 5.47636747e-01 8.86944532e-01 8.82163167e-01 8.82577062e-01 8.82877409e-01 8.82848442e-01 8.82644892e-01 8.82237732e-01 8.79829049e-01 8.66914511e-01 1.02485090e-01 1.07716016e-01 1.08885258e-01 1.13441050e-01 1.16213754e-01 8.82959664e-01 8.82885873e-01 8.82308185e-01 1.27533332e-01 1.63619399e-01 1.82010949e-01 1.60536364e-01 1.18781298e-01 3.48091312e-02 6.19194470e-03 9.37364157e-03 1.31139467e-02 2.14005802e-02 4.82365415e-02 1.35610446e-01 1.20485418e-01 1.65477157e-01 6.94851041e-01 9.04490530e-01 8.82272303e-01 8.82340729e-01 8.82001460e-01 8.81594002e-01 8.81362140e-01 8.80769849e-01 8.76211703e-01 8.67826998e-01 8.65173101e-01 8.76995504e-01 8.81087184e-01 8.84039581e-01 8.84039640e-01 8.83436263e-01 8.82620275e-01 8.98006111e-02 1.41632423e-01 1.91519499e-01 1.57014251e-01 8.65156651e-02 4.01870683e-02 3.69506865e-03 4.93005011e-03 1.09144580e-02 7.38006458e-02 1.05741329e-01 1.47056058e-01 1.52541012e-01 1.13103285e-01 1.84790254e-01 7.89046943e-01 8.97338748e-01 8.81510079e-01 8.81017983e-01 8.80650997e-01 8.80690753e-01 8.81122112e-01 8.81237447e-01 8.80357385e-01 8.78823936e-01 8.79685700e-01 8.81125569e-01 8.82117391e-01 8.82681847e-01 8.82772863e-01 8.82394850e-01 5.62422015e-02 6.97083548e-02 1.83189303e-01 1.90619856e-01 1.26644880e-01 4.83872555e-02 3.80420778e-03 5.43891126e-03 1.87081154e-02 1.38759866e-01 1.82808846e-01 1.76875994e-01 1.55783758e-01 1.32700473e-01 1.14927411e-01 1.97224528e-01 8.31609368e-01 8.92384231e-01 8.80482852e-01 8.80110919e-01 8.79961908e-01 8.80193412e-01 8.80690515e-01 8.80988359e-01 8.80773306e-01 8.80548537e-01 8.80722821e-01 8.81117940e-01 8.81646037e-01 8.82055342e-01 8.82042408e-01 3.66167799e-02 7.72617012e-02 1.41427010e-01 1.60323843e-01 1.53026044e-01 1.85610130e-01 2.65597366e-03 4.21360880e-03 5.31314239e-02 1.81162745e-01 2.07076401e-01 2.57738441e-01 2.59732425e-01 1.56421140e-01 1.20310307e-01 1.12876050e-01 5.06743550e-01 8.99839103e-01 8.80411088e-01 8.79412234e-01 8.78100574e-01 8.76841545e-01 8.76223683e-01 8.76068711e-01 8.95775020e-01 8.81866038e-01 7.94402182e-01 6.92980707e-01 6.08099341e-01 7.09822655e-01 8.81865263e-01 5.34119643e-02 5.38369007e-02 8.81675065e-01 6.65586293e-01 1.25800416e-01 2.02018991e-01 2.14359281e-03 8.01972114e-04 2.48022929e-01 1.40658677e-01 1.54138520e-01 1.98014542e-01 2.43972048e-01 2.21067533e-01 2.26570621e-01 7.60855138e-01 9.02253211e-01 8.81516457e-01 8.81015658e-01 8.80155683e-01 8.78983200e-01 8.77603769e-01 8.76533389e-01 8.98286223e-01 8.12785685e-01 7.80632913e-01 8.48081291e-01 8.69931281e-01 8.48172605e-01 7.90525377e-01 8.98589969e-01 
