# vtk DataFile Version 2.0
results/iter11.vtk, Created by Freefem++ 
ASCII
DATASET UNSTRUCTURED_GRID
POINTS 961 float
0 0 0
0.033333333 0 0
0.066666667 0 0
0.1 0 0
0.13333333 0 0
0.16666667 0 0
0.2 0 0
0.23333333 0 0
0.26666667 0 0
0.3 0 0
0.33333333 0 0
0.36666667 0 0
0.4 0 0
0.43333333 0 0
0.46666667 0 0
0.5 0 0
0.53333333 0 0
0.56666667 0 0
0.6 0 0
0.63333333 0 0
0.66666667 0 0
0.7 0 0
0.73333333 0 0
0.76666667 0 0
0.8 0 0
0.83333333 0 0
0.86666667 0 0
0.9 0 0
0.93333333 0 0
0.96666667 0 0
1 0 0
0 0.033333333 0
0.033333333 0.033333333 0
0.066666667 0.033333333 0
0.1 0.033333333 0
0.13333333 0.033333333 0
0.16666667 0.033333333 0
0.2 0.033333333 0
0.23333333 0.033333333 0
0.26666667 0.033333333 0
0.3 0.033333333 0
0.33333333 0.033333333 0
0.36666667 0.033333333 0
0.4 0.033333333 0
0.43333333 0.033333333 0
0.46666667 0.033333333 0
0.5 0.033333333 0
0.53333333 0.033333333 0
0.56666667 0.033333333 0
0.6 0.033333333 0
0.63333333 0.033333333 0
0.66666667 0.033333333 0
0.7 0.033333333 0
0.73333333 0.033333333 0
0.76666667 0.033333333 0
0.8 0.033333333 0
0.83333333 0.033333333 0
0.86666667 0.033333333 0
0.9 0.033333333 0
0.93333333 0.033333333 0
0.96666667 0.033333333 0
1 0.033333333 0
0 0.066666667 0
0.033333333 0.066666667 0
0.066666667 0.066666667 0
0.1 0.066666667 0
0.13333333 0.066666667 0
0.16666667 0.066666667 0
0.2 0.066666667 0
0.23333333 0.066666667 0
0.26666667 0.066666667 0
0.3 0.066666667 0
0.33333333 0.066666667 0
0.36666667 0.066666667 0
0.4 0.066666667 0
0.43333333 0.066666667 0
0.46666667 0.066666667 0
0.5 0.066666667 0
0.53333333 0.066666667 0
0.56666667 0.066666667 0
0.6 0.066666667 0
0.63333333 0.066666667 0
0.66666667 0.066666667 0
0.7 0.066666667 0
0.73333333 0.066666667 0
0.76666667 0.066666667 0
0.8 0.066666667 0
0.83333333 0.066666667 0
0.86666667 0.066666667 0
0.9 0.066666667 0
0.93333333 0.066666667 0
0.96666667 0.066666667 0
1 0.066666667 0
0 0.1 0
0.033333333 0.1 0
0.066666667 0.1 0
0.1 0.1 0
0.13333333 0.1 0
0.16666667 0.1 0
0.2 0.1 0
0.23333333 0.1 0
0.26666667 0.1 0
0.3 0.1 0
0.33333333 0.1 0
0.36666667 0.1 0
0.4 0.1 0
0.43333333 0.1 0
0.46666667 0.1 0
0.5 0.1 0
0.53333333 0.1 0
0.56666667 0.1 0
0.6 0.1 0
0.63333333 0.1 0
0.66666667 0.1 0
0.7 0.1 0
0.73333333 0.1 0
0.76666667 0.1 0
0.8 0.1 0
0.83333333 0.1 0
0.86666667 0.1 0
0.9 0.1 0
0.93333333 0.1 0
0.96666667 0.1 0
1 0.1 0
0 0.13333333 0
0.033333333 0.13333333 0
0.066666667 0.13333333 0
0.1 0.13333333 0
0.13333333 0.13333333 0
0.16666667 0.13333333 0
0.2 0.13333333 0
0.23333333 0.13333333 0
0.26666667 0.13333333 0
0.3 0.13333333 0
0.33333333 0.13333333 0
0.36666667 0.13333333 0
0.4 0.13333333 0
0.43333333 0.13333333 0
0.46666667 0.13333333 0
0.5 0.13333333 0
0.53333333 0.13333333 0
0.56666667 0.13333333 0
0.6 0.13333333 0
0.63333333 0.13333333 0
0.66666667 0.13333333 0
0.7 0.13333333 0
0.73333333 0.13333333 0
0.76666667 0.13333333 0
0.8 0.13333333 0
0.83333333 0.13333333 0
0.86666667 0.13333333 0
0.9 0.13333333 0
0.93333333 0.13333333 0
0.96666667 0.13333333 0
1 0.13333333 0
0 0.16666667 0
0.033333333 0.16666667 0
0.066666667 0.16666667 0
0.1 0.16666667 0
0.13333333 0.16666667 0
0.16666667 0.16666667 0
0.2 0.16666667 0
0.23333333 0.16666667 0
0.26666667 0.16666667 0
0.3 0.16666667 0
0.33333333 0.16666667 0
0.36666667 0.16666667 0
0.4 0.16666667 0
0.43333333 0.16666667 0
0.46666667 0.16666667 0
0.5 0.16666667 0
0.53333333 0.16666667 0
0.56666667 0.16666667 0
0.6 0.16666667 0
0.63333333 0.16666667 0
0.66666667 0.16666667 0
0.7 0.16666667 0
0.73333333 0.16666667 0
0.76666667 0.16666667 0
0.8 0.16666667 0
0.83333333 0.16666667 0
0.86666667 0.16666667 0
0.9 0.16666667 0
0.93333333 0.16666667 0
0.96666667 0.16666667 0
1 0.16666667 0
0 0.2 0
0.033333333 0.2 0
0.066666667 0.2 0
0.1 0.2 0
0.13333333 0.2 0
0.16666667 0.2 0
0.2 0.2 0
0.23333333 0.2 0
0.26666667 0.2 0
0.3 0.2 0
0.33333333 0.2 0
0.36666667 0.2 0
0.4 0.2 0
0.43333333 0.2 0
0.46666667 0.2 0
0.5 0.2 0
0.53333333 0.2 0
0.56666667 0.2 0
0.6 0.2 0
0.63333333 0.2 0
0.66666667 0.2 0
0.7 0.2 0
0.73333333 0.2 0
0.76666667 0.2 0
0.8 0.2 0
0.83333333 0.2 0
0.86666667 0.2 0
0.9 0.2 0
0.93333333 0.2 0
0.96666667 0.2 0
1 0.2 0
0 0.23333333 0
0.033333333 0.23333333 0
0.066666667 0.23333333 0
0.1 0.23333333 0
0.13333333 0.23333333 0
0.16666667 0.23333333 0
0.2 0.23333333 0
0.23333333 0.23333333 0
0.26666667 0.23333333 0
0.3 0.23333333 0
0.33333333 0.23333333 0
0.36666667 0.23333333 0
0.4 0.23333333 0
0.43333333 0.23333333 0
0.46666667 0.23333333 0
0.5 0.23333333 0
0.53333333 0.23333333 0
0.56666667 0.23333333 0
0.6 0.23333333 0
0.63333333 0.23333333 0
0.66666667 0.23333333 0
0.7 0.23333333 0
0.73333333 0.23333333 0
0.76666667 0.23333333 0
0.8 0.23333333 0
0.83333333 0.23333333 0
0.86666667 0.23333333 0
0.9 0.23333333 0
0.93333333 0.23333333 0
0.96666667 0.23333333 0
1 0.23333333 0
0 0.26666667 0
0.033333333 0.26666667 0
0.066666667 0.26666667 0
0.1 0.26666667 0
0.13333333 0.26666667 0
0.16666667 0.26666667 0
0.2 0.26666667 0
0.23333333 0.26666667 0
0.26666667 0.26666667 0
0.3 0.26666667 0
0.33333333 0.26666667 0
0.36666667 0.26666667 0
0.4 0.26666667 0
0.43333333 0.26666667 0
0.46666667 0.26666667 0
0.5 0.26666667 0
0.53333333 0.26666667 0
0.56666667 0.26666667 0
0.6 0.26666667 0
0.63333333 0.26666667 0
0.66666667 0.26666667 0
0.7 0.26666667 0
0.73333333 0.26666667 0
0.76666667 0.26666667 0
0.8 0.26666667 0
0.83333333 0.26666667 0
0.86666667 0.26666667 0
0.9 0.26666667 0
0.93333333 0.26666667 0
0.96666667 0.26666667 0
1 0.26666667 0
0 0.3 0
0.033333333 0.3 0
0.066666667 0.3 0
0.1 0.3 0
0.13333333 0.3 0
0.16666667 0.3 0
0.2 0.3 0
0.23333333 0.3 0
0.26666667 0.3 0
0.3 0.3 0
0.33333333 0.3 0
0.36666667 0.3 0
0.4 0.3 0
0.43333333 0.3 0
0.46666667 0.3 0
0.5 0.3 0
0.53333333 0.3 0
0.56666667 0.3 0
0.6 0.3 0
0.63333333 0.3 0
0.66666667 0.3 0
0.7 0.3 0
0.73333333 0.3 0
0.76666667 0.3 0
0.8 0.3 0
0.83333333 0.3 0
0.86666667 0.3 0
0.9 0.3 0
0.93333333 0.3 0
0.96666667 0.3 0
1 0.3 0
0 0.33333333 0
0.033333333 0.33333333 0
0.066666667 0.33333333 0
0.1 0.33333333 0
0.13333333 0.33333333 0
0.16666667 0.33333333 0
0.2 0.33333333 0
0.23333333 0.33333333 0
0.26666667 0.33333333 0
0.3 0.33333333 0
0.33333333 0.33333333 0
0.36666667 0.33333333 0
0.4 0.33333333 0
0.43333333 0.33333333 0
0.46666667 0.33333333 0
0.5 0.33333333 0
0.53333333 0.33333333 0
0.56666667 0.33333333 0
0.6 0.33333333 0
0.63333333 0.33333333 0
0.66666667 0.33333333 0
0.7 0.33333333 0
0.73333333 0.33333333 0
0.76666667 0.33333333 0
0.8 0.33333333 0
0.83333333 0.33333333 0
0.86666667 0.33333333 0
0.9 0.33333333 0
0.93333333 0.33333333 0
0.96666667 0.33333333 0
1 0.33333333 0
0 0.36666667 0
0.033333333 0.36666667 0
0.066666667 0.36666667 0
0.1 0.36666667 0
0.13333333 0.36666667 0
0.16666667 0.36666667 0
0.2 0.36666667 0
0.23333333 0.36666667 0
0.26666667 0.36666667 0
0.3 0.36666667 0
0.33333333 0.36666667 0
0.36666667 0.36666667 0
0.4 0.36666667 0
0.43333333 0.36666667 0
0.46666667 0.36666667 0
0.5 0.36666667 0
0.53333333 0.36666667 0
0.56666667 0.36666667 0
0.6 0.36666667 0
0.63333333 0.36666667 0
0.66666667 0.36666667 0
0.7 0.36666667 0
0.73333333 0.36666667 0
0.76666667 0.36666667 0
0.8 0.36666667 0
0.83333333 0.36666667 0
0.86666667 0.36666667 0
0.9 0.36666667 0
0.93333333 0.36666667 0
0.96666667 0.36666667 0
1 0.36666667 0
0 0.4 0
0.033333333 0.4 0
0.066666667 0.4 0
0.1 0.4 0
0.13333333 0.4 0
0.16666667 0.4 0
0.2 0.4 0
0.23333333 0.4 0
0.26666667 0.4 0
0.3 0.4 0
0.33333333 0.4 0
0.36666667 0.4 0
0.4 0.4 0
0.43333333 0.4 0
0.46666667 0.4 0
0.5 0.4 0
0.53333333 0.4 0
0.56666667 0.4 0
0.6 0.4 0
0.63333333 0.4 0
0.66666667 0.4 0
0.7 0.4 0
0.73333333 0.4 0
0.76666667 0.4 0
0.8 0.4 0
0.83333333 0.4 0
0.86666667 0.4 0
0.9 0.4 0
0.93333333 0.4 0
0.96666667 0.4 0
1 0.4 0
0 0.43333333 0
0.033333333 0.43333333 0
0.066666667 0.43333333 0
0.1 0.43333333 0
0.13333333 0.43333333 0
0.16666667 0.43333333 0
0.2 0.43333333 0
0.23333333 0.43333333 0
0.26666667 0.43333333 0
0.3 0.43333333 0
0.33333333 0.43333333 0
0.36666667 0.43333333 0
0.4 0.43333333 0
0.43333333 0.43333333 0
0.46666667 0.43333333 0
0.5 0.43333333 0
0.53333333 0.43333333 0
0.56666667 0.43333333 0
0.6 0.43333333 0
0.63333333 0.43333333 0
0.66666667 0.43333333 0
0.7 0.43333333 0
0.73333333 0.43333333 0
0.76666667 0.43333333 0
0.8 0.43333333 0
0.83333333 0.43333333 0
0.86666667 0.43333333 0
0.9 0.43333333 0
0.93333333 0.43333333 0
0.96666667 0.43333333 0
1 0.43333333 0
0 0.46666667 0
0.033333333 0.46666667 0
0.066666667 0.46666667 0
0.1 0.46666667 0
0.13333333 0.46666667 0
0.16666667 0.46666667 0
0.2 0.46666667 0
0.23333333 0.46666667 0
0.26666667 0.46666667 0
0.3 0.46666667 0
0.33333333 0.46666667 0
0.36666667 0.46666667 0
0.4 0.46666667 0
0.43333333 0.46666667 0
0.46666667 0.46666667 0
0.5 0.46666667 0
0.53333333 0.46666667 0
0.56666667 0.46666667 0
0.6 0.46666667 0
0.63333333 0.46666667 0
0.66666667 0.46666667 0
0.7 0.46666667 0
0.73333333 0.46666667 0
0.76666667 0.46666667 0
0.8 0.46666667 0
0.83333333 0.46666667 0
0.86666667 0.46666667 0
0.9 0.46666667 0
0.93333333 0.46666667 0
0.96666667 0.46666667 0
1 0.46666667 0
0 0.5 0
0.033333333 0.5 0
0.066666667 0.5 0
0.1 0.5 0
0.13333333 0.5 0
0.16666667 0.5 0
0.2 0.5 0
0.23333333 0.5 0
0.26666667 0.5 0
0.3 0.5 0
0.33333333 0.5 0
0.36666667 0.5 0
0.4 0.5 0
0.43333333 0.5 0
0.46666667 0.5 0
0.5 0.5 0
0.53333333 0.5 0
0.56666667 0.5 0
0.6 0.5 0
0.63333333 0.5 0
0.66666667 0.5 0
0.7 0.5 0
0.73333333 0.5 0
0.76666667 0.5 0
0.8 0.5 0
0.83333333 0.5 0
0.86666667 0.5 0
0.9 0.5 0
0.93333333 0.5 0
0.96666667 0.5 0
1 0.5 0
0 0.53333333 0
0.033333333 0.53333333 0
0.066666667 0.53333333 0
0.1 0.53333333 0
0.13333333 0.53333333 0
0.16666667 0.53333333 0
0.2 0.53333333 0
0.23333333 0.53333333 0
0.26666667 0.53333333 0
0.3 0.53333333 0
0.33333333 0.53333333 0
0.36666667 0.53333333 0
0.4 0.53333333 0
0.43333333 0.53333333 0
0.46666667 0.53333333 0
0.5 0.53333333 0
0.53333333 0.53333333 0
0.56666667 0.53333333 0
0.6 0.53333333 0
0.63333333 0.53333333 0
0.66666667 0.53333333 0
0.7 0.53333333 0
0.73333333 0.53333333 0
0.76666667 0.53333333 0
0.8 0.53333333 0
[...]
CELL_DATA 1920
Scalars  Label int 1
LOOKUP_TABLE FreeFempp_table
0
0
0
0
0
0
0
0
0
0
0
0
0
0
0
0
0
0
0
0
0
0
0
0
0
0
0
0
0
0
0
0
0
0
0
0
0
0
0
0
0
0
0
0
0
0
0
0
0
0
0
0
0
0
0
0
0
0
0
0
0
0
0
0
0
0
0
0
0
0
0
0
0
0
0
0
0
0
0
0
0
0
0
0
0
0
0
0
0
0
0
0
0
0
0
0
0
0
0
0
0
0
0
0
0
0
0
0
0
0
0
0
0
0
0
0
0
0
0
0
0
0
0
0
0
0
0
0
0
0
0
0
0
0
0
0
0
0
0
0
0
0
0
0
0
0
0
0
0
0
0
0
0
0
0
0
0
0
0
0
0
0
0
0
0
0
0
0
0
0
0
0
0
0
0
0
0
0
0
0
0
0
0
0
0
0
0
0
0
0
0
0
0
0
0
0
0
0
0
0
0
0
0
0
0
0
0
0
0
0
0
0
0
0
0
0
0
0
0
0
0
0
0
0
0
0
0
0
0
0
0
0
0
0
0
0
0
0
0
0
0
0
0
0
0
0
0
0
0
0
0
0
0
0
0
0
0
0
0
0
0
0
0
0
0
0
0
0
0
0
0
0
0
0
0
0
0
0
0
0
0
0
0
0
0
0
0
0
0
0
0
0
0
0
0
0
0
0
0
0
0
0
0
0
0
0
0
0
0
0
0
0
0
0
0
0
0
0
0
0
0
0
0
0
0
0
0
0
0
0
0
0
0
0
0
0
0
0
0
0
0
0
0
0
0
0
0
0
0
0
0
0
0
0
0
0
0
0
0
0
0
0
0
0
0
0
0
0
0
0
0
0
0
0
0
0
0
0
0
0
0
0
0
0
0
0
0
0
0
0
0
0
0
0
0
0
0
0
0
0
0
0
0
0
0
0
0
0
0
0
0
0
0
0
0
0
0
0
0
0
0
0
0
0
0
0
0
0
0
0
0
0
0
0
0
0
0
0
0
0
0
0
0
0
0
0
0
0
0
0
0
0
0
0
0
0
0
0
0
0
0
0
0
0
0
0
0
0
0
0
0
0
0
0
0
0
0
0
0
0
0
0
0
0
0
0
0
0
0
0
0
0
0
0
0
0
0
0
0
0
0
0
0
0
0
0
0
0
0
0
0
0
0
0
0
0
0
0
0
0
0
0
0
0
0
0
0
0
0
0
0
0
0
0
0
0
0
0
0
0
0
0
0
0
0
0
0
0
0
0
0
0
0
0
0
0
0
0
0
0
0
0
0
0
0
0
0
0
0
0
0
0
0
0
0
0
0
0
0
0
0
0
0
0
0
0
0
0
0
0
0
0
0
0
0
0
0
0
0
0
0
0
0
0
0
0
0
0
0
0
0
0
0
0
0
0
0
0
0
0
0
0
0
0
0
0
0
0
0
0
0
0
0
0
0
0
0
0
0
0
0
0
0
0
0
0
0
0
0
0
0
0
0
0
0
0
0
0
0
0
0
0
0
0
0
0
0
0
0
0
0
0
0
0
0
0
0
0
0
0
0
0
0
0
0
0
0
0
0
0
0
0
0
0
0
0
0
0
0
0
0
0
0
0
0
0
0
0
0
0
0
0
0
0
0
0
0
0
0
0
0
0
0
0
0
0
0
0
0
0
0
0
0
0
0
0
0
0
0
0
0
0
0
0
0
0
0
0
0
0
0
0
0
0
0
0
0
0
0
0
0
0
0
0
0
0
0
0
0
0
0
0
0
0
0
0
0
0
0
0
0
0
0
0
0
0
0
0
0
0
0
0
0
0
0
0
0
0
0
0
0
0
0
0
0
0
0
0
0
0
0
0
0
0
0
0
0
0
0
0
0
0
0
0
0
0
0
0
0
0
0
0
0
0
0
0
0
0
0
0
0
0
0
0
0
0
0
0
0
0
0
0
0
0
0
0
0
0
0
0
0
0
0
0
0
0
0
0
0
0
0
0
0
0
0
0
0
0
0
0
0
0
0
0
0
0
0
0
0
0
0
0
0
0
0
0
0
0
0
0
0
0
0
0
0
0
0
0
0
0
0
0
0
0
0
0
0
0
0
0
0
0
0
0
0
0
0
0
0
0
0
0
0
0
0
0
0
0
0
0
0
0
0
0
0
0
0
0
0
0
0
0
0
0
0
0
0
0
0
0
0
0
0
0
0
0
0
0
0
0
0
0
0
0
0
0
0
0
0
0
0
0
0
0
0
0
0
0
0
0
0
0
0
0
0
0
0
0
0
0
0
0
0
0
0
0
0
0
0
0
0
0
0
0
0
0
0
0
0
0
0
0
0
0
0
0
0
0
0
0
0
0
0
0
0
0
0
0
0
0
0
0
0
0
0
0
0
0
0
0
0
0
0
0
0
0
0
0
0
0
0
0
0
0
0
0
0
0
0
0
0
0
0
0
0
0
0
0
0
0
0
0
0
0
0
0
0
0
0
0
0
0
0
0
0
0
0
0
0
0
0
0
0
0
0
0
0
0
0
0
0
0
0
0
0
0
0
0
0
0
0
0
0
0
0
0
0
0
0
0
0
0
0
0
0
0
0
0
0
0
0
0
0
0
0
0
0
0
0
0
0
0
0
0
0
0
0
0
0
0
0
0
0
0
0
0
0
0
0
0
0
0
0
0
0
0
0
0
0
0
0
0
0
0
0
0
0
0
0
0
0
0
0
0
0
0
0
0
0
0
0
0
0
0
0
0
0
0
0
0
0
0
0
0
0
0
0
0
0
0
0
0
0
0
0
0
0
0
0
0
0
0
0
0
0
0
0
0
0
0
0
0
0
0
0
0
0
0
0
0
0
0
0
0
0
0
0
0
0
0
0
0
0
0
0
0
0
0
0
0
0
0
0
0
0
0
0
0
0
0
0
0
0
0
0
0
0
0
0
0
0
0
0
0
0
0
0
0
0
0
0
0
0
0
0
0
0
0
0
0
0
0
0
0
0
0
0
0
0
0
0
0
0
0
0
0
0
0
0
0
0
0
0
0
0
0
0
0
0
0
0
0
0
0
0
0
0
0
0
0
0
0
0
0
0
0
0
0
0
0
0
0
0
0
0
0
0
0
0
0
0
0
0
0
0
0
0
0
0
0
0
0
0
0
0
0
0
0
0
0
0
0
0
0
0
0
0
0
0
0
0
0
0
0
0
0
0
0
0
0
0
0
0
0
0
0
0
0
0
0
0
0
0
0
0
0
0
0
0
0
0
0
0
0
0
0
0
0
0
0
0
0
0
0
0
0
0
0
0
0
0
0
0
0
0
0
0
0
0
0
0
0
0
0
0
0
0
0
0
0
0
0
0
0
0
0
0
0
0
0
0
0
0
0
0
0
0
0
0
0
0
0
0
0
0
0
0
0
0
0
0
0
0
0
0
0
0
0
0
0
0
0
0
0
0
0
0
0
0
0
0
0
0
0
0
0
0
0
0
0
0
0
0
0
0
0
0
0
0
0
0
0
0
0
0
0
0
0
0
0
0
0
0
0
0
0
0
0
0
0
0
0
0
0
0
0
0
0
0
0
0
0
0
0
0
0
0
0
0
0
0
0
0
0
0
0
0
0
0
0
0
0
0
0
0
0
0
0
0
0
0
0
0
0
0
0
0
0
0
0
0
0
0
0
0
0
0
0
0
0
0
0
0
0
0
0
0
0
0
0
0
0
0
0
0
0
0
0
0
0
0
0
0
0
0
0
0
0
0
0
0
0
0
0
0
0
0
0
0
0
0
0
0
0
0
0
0
0
0
0
0
0
0
0
0
0
0
0
0
0
0
0
0
0
0
0
0
0
0
0
0
0
0
0
0
0
0
0
0
0
0
0
0
0
0
0
0
0
0
0
0
0
0
0
0
0
0
0
0
0
0
0
0
0
0
0
0
0
0
0
0
0
0
0
0
0
0
0
0
0
0
0
0
0
0
0
0
0
0
0
0
0
0
0
0
0
0
0
0
0
0
0
0
0
0
0
0
0
0
0
0
0
0
0
0
0
0
0
0
0
0
0
0
0
0
0
0
0
0
0
0
0
0
0
0
0
0
0
0
0
1
1
1
1
1
1
1
1
1
1
1
1
1
1
1
1
1
1
1
1
1
1
1
1
1
1
1
1
1
1
2
2
2
2
2
2
2
2
2
2
2
2
2
2
2
2
2
2
2
2
2
2
2
2
2
2
2
2
2
2
3
3
3
3
3
3
3
3
3
3
3
3
3
3
3
3
3
3
3
3
3
3
3
3
3
3
3
3
3
3
4
4
4
4
4
4
4
4
4
4
4
4
4
4
4
4
4
4
4
4
4
4
4
4
4
4
4
4
4
4

LOOKUP_TABLE FreeFempp_table 5
1.00000000 0.00000000 0.00000000 1.00000000
1.00000000 1.00000000 0.00000000 1.00000000
1.00000000 0.00000000 1.00000000 1.00000000
0.00000000 1.00000000 0.00000000 1.00000000
0.00000000 1.00000000 1.00000000 1.00000000

POINT_DATA 961
FIELD FieldData 1
Density 1 961 float
4.44304585e-01 4.18804199e-01 4.35137689e-01 4.46512043e-01 4.48218346e-01 4.46598440e-01 4.36313272e-01 3.62926483e-01 3.11613172e-01 3.26974332e-01 2.83538610e-01 1.18048131e-01 6.31998181e-02 1.09539025e-01 3.06862593e-01 5.30555964e-01 6.30130887e-01 6.47512496e-01 5.73034942e-01 4.84424353e-01 5.13438404e-01 5.30997872e-01 5.35070181e-01 5.33710063e-01 5.31904340e-01 5.31270146e-01 5.31800687e-01 5.32919705e-01 5.34948409e-01 5.35157144e-01 5.28551757e-01 1.68624669e-02 3.99659164e-02 2.53559768e-01 3.74508172e-01 3.88742924e-01 3.87888193e-01 3.69487435e-01 1.63166985e-01 1.29575416e-01 1.18172005e-01 1.04116917e-01 6.59260154e-02 3.99172828e-02 4.58308011e-02 2.21436709e-01 4.50100899e-01 6.99304998e-01 7.61474252e-01 6.33076549e-01 4.68668580e-01 4.90025789e-01 5.25466561e-01 5.34423113e-01 5.34178913e-01 5.31435609e-01 5.30206025e-01 5.30900180e-01 5.32614529e-01 5.35332859e-01 5.35519004e-01 5.33421814e-01 9.44241043e-03 6.74624229e-03 6.40528044e-03 7.58676277e-03 7.19568972e-03 8.46871175e-03 7.43784243e-03 8.63668695e-03 8.66637193e-03 8.85609165e-03 9.54138115e-03 1.05023608e-02 1.05096642e-02 1.02413353e-02 1.52738830e-02 4.03244466e-01 6.56583786e-01 7.71969497e-01 4.96041536e-01 1.68285072e-01 2.23367840e-01 4.72304761e-01 5.45813262e-01 5.36948860e-01 5.27890027e-01 5.21797478e-01 5.20005226e-01 5.20192623e-01 5.20559430e-01 5.15478194e-01 5.25893807e-01 5.67806549e-02 1.11632654e-02 8.28253850e-03 7.22215977e-03 9.02356021e-03 5.98974526e-03 8.32804013e-03 7.97304697e-03 8.62982776e-03 8.27240571e-03 8.64599552e-03 9.69879236e-03 1.10491561e-02 8.40637181e-03 6.55561779e-03 6.22602180e-03 5.32103181e-01 7.83265769e-01 6.07498705e-01 1.51478394e-03 3.28374989e-02 8.31721798e-02 3.68001670e-01 4.96376663e-01 5.06175935e-01 4.99874860e-01 4.89211082e-01 4.83733267e-01 4.79158014e-01 4.70665067e-01 5.08214891e-01 5.39958715e-01 5.41810095e-01 5.37397385e-01 5.29095531e-01 5.14662445e-01 4.96481150e-01 4.73818958e-01 4.30446625e-01 2.11457074e-01 2.15106696e-01 2.73958564e-01 2.62317002e-01 2.07407251e-01 1.01825006e-01 2.01510657e-02 5.12318825e-03 4.85035824e-03 6.57923222e-01 8.77064586e-01 3.92092556e-01 3.03367078e-02 2.46659275e-02 2.34824922e-02 6.05518967e-02 3.09344083e-01 3.92394632e-01 4.10265267e-01 4.11708504e-01 4.03562009e-01 3.98053467e-01 4.68027264e-01 5.43386996e-01 5.60785353e-01 5.57814419e-01 5.53423285e-01 5.49168348e-01 5.44990659e-01 5.40265203e-01 5.33842266e-01 5.19081056e-01 5.12056351e-01 4.98944014e-01 4.80295122e-01 4.54913646e-01 4.26690847e-01 3.92072916e-01 2.23636851e-01 5.09867258e-03 5.58765233e-03 5.00543892e-01 9.28156674e-01 5.82343102e-01 5.91303147e-02 2.11764686e-02 1.92903075e-02 2.17146743e-02 1.56756401e-01 3.14321071e-01 3.32661539e-01 3.06995898e-01 2.98363149e-01 3.79035652e-01 5.36237717e-01 5.47945619e-01 5.44560552e-01 5.41036010e-01 5.38971424e-01 5.38532555e-01 5.39822280e-01 5.42085648e-01 5.43650270e-01 5.45308471e-01 5.42781234e-01 5.42824209e-01 5.41429400e-01 5.36539972e-01 5.26693225e-01 5.11251628e-01 4.16888773e-01 5.91965765e-03 6.84970804e-03 1.63512528e-02 8.83458436e-01 8.25902641e-01 9.11500573e-01 4.35153991e-02 1.60030518e-02 1.49818799e-02 8.67209584e-02 1.65999889e-01 1.28025383e-01 1.03879564e-01 1.90361112e-01 5.28094351e-01 5.31341314e-01 5.26625454e-01 5.21859944e-01 5.20066559e-01 5.20790815e-01 5.23393929e-01 5.26953816e-01 5.30150890e-01 5.32136798e-01 5.32714069e-01 5.34244657e-01 5.37691116e-01 5.42225599e-01 5.46838462e-01 5.52300930e-01 5.57071149e-01 5.24397373e-01 1.04363216e-02 1.01361545e-02 1.06955199e-02 4.13948327e-01 6.73576653e-01 9.17053282e-01 1.42633006e-01 1.63373891e-02 1.67033374e-02 6.24535903e-02 6.47204891e-02 4.52091992e-02 8.77159834e-02 5.20129979e-01 5.13473392e-01 5.04140198e-01 4.94788468e-01 4.90729719e-01 4.91884828e-01 4.95879918e-01 5.00673950e-01 5.04747868e-01 5.07190108e-01 5.08427262e-01 5.10388434e-01 5.14464498e-01 5.21310866e-01 5.30874014e-01 5.43528974e-01 5.61214507e-01 5.89500666e-01 5.88068128e-01 2.23460719e-01 1.15799047e-02 1.22193461e-02 2.73822006e-02 2.53326029e-01 9.41929281e-01 1.14150144e-01 1.93849728e-02 2.60393973e-02 6.81294054e-02 6.59612715e-02 8.34212080e-02 5.15626431e-01 4.98369187e-01 4.78373319e-01 4.54153121e-01 4.41178948e-01 4.40885454e-01 4.47120905e-01 4.55466419e-01 4.62965071e-01 4.67873067e-01 4.70661879e-01 4.73543406e-01 4.78209764e-01 4.85193849e-01 4.94170606e-01 5.05171478e-01 5.20674348e-01 5.47491848e-01 5.95420361e-01 6.37724161e-01 6.00636482e-01 2.00065747e-02 2.23762970e-02 1.63040273e-02 7.20995426e-01 7.07821488e-01 3.42469551e-02 2.69881841e-02 8.14768374e-02 2.36062422e-01 3.38683933e-01 5.18235087e-01 4.95096654e-01 4.55649406e-01 4.15339947e-01 4.02568787e-01 4.00722802e-01 4.02195096e-01 4.07501161e-01 4.15377349e-01 4.21932548e-01 4.26431000e-01 4.31601048e-01 4.38724071e-01 4.47139561e-01 4.54748482e-01 4.59425241e-01 4.62484628e-01 4.72081125e-01 5.01272678e-01 5.52659094e-01 6.17132664e-01 5.77803433e-01 4.46304709e-01 2.56652594e-01 6.98519111e-01 8.50496709e-01 6.15771264e-02 2.86746193e-02 5.05877174e-02 3.04110140e-01 4.62221622e-01 5.24256706e-01 4.99933779e-01 4.29124683e-01 4.02521014e-01 4.06144887e-01 4.05744821e-01 4.00728256e-01 3.95510077e-01 3.93660039e-01 3.93445492e-01 3.93565953e-01 3.99128616e-01 4.10538435e-01 4.23824579e-01 4.33903098e-01 4.36352491e-01 4.31557238e-01 4.27900583e-01 4.38211560e-01 4.71934170e-01 5.22738755e-01 5.54920495e-01 5.92608809e-01 6.32534802e-01 7.46820509e-01 8.18191171e-01 1.36241570e-01 2.99908537e-02 3.55826765e-02 2.84044266e-01 5.16230404e-01 5.29189587e-01 5.06406426e-01 4.06352013e-01 4.00144339e-01 3.74478787e-01 3.74006659e-01 3.87586325e-01 3.98703158e-01 3.98723692e-01 3.90490890e-01 3.79247427e-01 3.79727483e-01 3.94222647e-01 4.13776994e-01 4.28230405e-01 4.31871772e-01 4.26544935e-01 4.20588881e-01 4.22657132e-01 4.35562134e-01 4.61720169e-01 5.02536178e-01 5.70045948e-01 6.27691269e-01 7.52649546e-01 7.87823260e-01 1.74068809e-01 3.19525823e-02 2.99553145e-02 2.43653491e-01 5.31718731e-01 5.35279155e-01 5.14101386e-01 3.94872367e-01 3.57885003e-01 3.51160377e-01 3.46870393e-01 3.47285002e-01 3.61868143e-01 3.92383844e-01 3.94571424e-01 3.75618517e-01 3.70168060e-01 3.87150824e-01 4.13096249e-01 4.30753946e-01 4.35103565e-01 4.32293385e-01 4.32356745e-01 4.40998107e-01 4.55685347e-01 4.71554995e-01 5.02863050e-01 5.65132141e-01 6.61503971e-01 7.39405632e-01 7.27868557e-01 1.67641610e-01 3.57385948e-02 3.18837315e-02 2.11125284e-01 5.40664554e-01 5.42746603e-01 5.23865521e-01 3.89838517e-01 3.34351957e-01 3.24042618e-01 3.21311921e-01 3.21583807e-01 3.28346699e-01 3.59075993e-01 3.88060153e-01 3.70778888e-01 3.64906460e-01 3.87634754e-01 4.20779943e-01 4.39113408e-01 4.41653430e-01 4.39637572e-01 4.44007218e-01 4.59050536e-01 4.83001620e-01 5.16418338e-01 5.69371521e-01 6.25337601e-01 6.57887340e-01 7.16900408e-01 6.33384526e-01 1.61598414e-01 3.99848931e-02 3.50018218e-02 2.07411662e-01 5.46378911e-01 5.50534606e-01 5.33997178e-01 3.79734963e-01 3.06682765e-01 2.92147160e-01 2.92639732e-01 2.94445962e-01 3.01450819e-01 3.30627859e-01 3.72877896e-01 3.62266064e-01 3.61870259e-01 3.95172149e-01 4.34578568e-01 4.50326741e-01 4.49724913e-01 4.48216617e-01 4.57109988e-01 4.81243193e-01 5.19855440e-01 5.66899896e-01 6.06167495e-01 6.22861445e-01 6.45346224e-01 6.60027266e-01 5.00346422e-01 1.44114807e-01 4.99889590e-02 4.60429825e-02 2.37226263e-01 5.44198692e-01 5.58278322e-01 5.44109821e-01 3.68211389e-01 2.75265813e-01 2.55428880e-01 2.60375947e-01 2.65773743e-01 2.75617450e-01 3.09045136e-01 3.56684268e-01 3.54806811e-01 3.64476651e-01 4.10953104e-01 4.51147020e-01 4.61423665e-01 4.58756566e-01 4.60263520e-01 4.76564229e-01 5.10697424e-01 5.54975867e-01 5.92710435e-01 6.15222871e-01 6.31209612e-01 6.37022555e-01 6.00439250e-01 3.83680165e-01 1.28087386e-01 6.87715635e-02 7.90926889e-02 2.81375110e-01 5.47141194e-01 5.65378785e-01 5.53862512e-01 3.56850624e-01 2.41951093e-01 2.15547621e-01 2.24890798e-01 2.37389520e-01 2.52084792e-01 2.90101886e-01 3.43632638e-01 3.52252007e-01 3.77316028e-01 4.33960795e-01 4.67238843e-01 4.71333355e-01 4.68987226e-01 4.75794047e-01 4.99524176e-01 5.37975073e-01 5.76899529e-01 6.06351376e-01 6.21548712e-01 6.31663203e-01 6.28440380e-01 5.48197448e-01 3.02422225e-01 1.25322461e-01 8.94689336e-02 1.17684446e-01 3.20087075e-01 5.52598536e-01 5.71206152e-01 5.62465250e-01 3.45981807e-01 2.09459752e-01 1.75889552e-01 1.87923759e-01 2.09495589e-01 2.33240336e-01 2.74148852e-01 3.34041595e-01 3.56775820e-01 4.02009696e-01 4.59140122e-01 4.80543852e-01 4.79891181e-01 4.79930729e-01 4.92244780e-01 5.20293295e-01 5.56878865e-01 5.89357972e-01 6.11423850e-01 6.21085465e-01 6.21934295e-01 6.14541292e-01 4.91476864e-01 2.73395687e-01 1.42741203e-01 1.18166275e-01 1.65447354e-01 3.54047209e-01 5.57325780e-01 5.75330317e-01 5.68848252e-01 3.36554348e-01 1.80994853e-01 1.40921578e-01 1.52880013e-01 1.81905329e-01 2.18078032e-01 2.64474690e-01 3.26773524e-01 3.72683674e-01 4.35049206e-01 4.81094420e-01 4.90052581e-01 4.87248182e-01 4.90758479e-01 5.07057905e-01 5.35386860e-01 5.66959500e-01 5.92460930e-01 6.07647061e-01 6.13059819e-01 6.10509515e-01 5.92840254e-01 4.63361800e-01 2.74692357e-01 1.84363812e-01 1.71308041e-01 2.26945803e-01 4.00385261e-01 5.54241896e-01 5.77370644e-01 5.71884215e-01 3.29501033e-01 1.58985078e-01 1.13803059e-01 1.24149568e-01 1.57763273e-01 2.04005718e-01 2.61382520e-01 3.27321082e-01 4.02011573e-01 4.67101961e-01 4.96268660e-01 4.95745838e-01 4.93519992e-01 5.00647485e-01 5.18799484e-01 5.44249952e-01 5.69003880e-01 5.86559653e-01 5.96337020e-01 5.99061191e-01 6.00589335e-01 5.74553609e-01 4.58243340e-01 3.04066181e-01 2.40129605e-01 2.47880489e-01 2.94316381e-01 4.10704345e-01 5.48347652e-01 5.76822221e-01 5.70676386e-01 3.25510949e-01 1.44343629e-01 9.38402265e-02 1.03117846e-01 1.41186252e-01 1.94048896e-01 2.62562424e-01 3.40103984e-01 4.36503619e-01 4.90737528e-01 5.03013909e-01 4.97976780e-01 4.98296916e-01 5.08634269e-01 5.26845753e-01 5.47775090e-01 5.65159678e-01 5.75653374e-01 5.80283344e-01 5.84496796e-01 5.82489014e-01 5.54314971e-01 4.58514422e-01 3.41450751e-01 3.14863980e-01 3.25486988e-01 3.57954890e-01 4.25647259e-01 5.49048722e-01 5.73229671e-01 5.65099716e-01 3.26073647e-01 1.36969700e-01 7.76117295e-02 8.62836987e-02 1.30918354e-01 1.92718878e-01 2.71250427e-01 3.65529835e-01 4.69206363e-01 5.05181968e-01 5.02357483e-01 4.96782869e-01 5.00660419e-01 5.13484240e-01 5.30696571e-01 5.47175169e-01 5.59049308e-01 5.65045178e-01 5.68610787e-01 5.70115805e-01 5.64874291e-01 5.33762157e-01 4.51672554e-01 3.61407042e-01 3.53580803e-01 3.66341650e-01 3.75281781e-01 4.36207414e-01 5.38763463e-01 5.66459000e-01 5.56607187e-01 3.33113790e-01 1.37667134e-01 6.36576042e-02 7.11752996e-02 1.22936510e-01 1.98564500e-01 2.89220065e-01 4.00988907e-01 4.92549539e-01 5.09363830e-01 4.96425152e-01 4.92520273e-01 5.00036418e-01 5.14293790e-01 5.29965162e-01 5.43209672e-01 5.51908910e-01 5.56890666e-01 5.60653687e-01 5.63014388e-01 5.57866037e-01 5.29623151e-01 4.61162388e-01 3.88272792e-01 3.80285054e-01 3.95128191e-01 4.09855545e-01 4.62278157e-01 5.29795170e-01 5.56608140e-01 5.48166394e-01 3.46419752e-01 1.47952124e-01 5.17167151e-02 5.78427464e-02 1.15538962e-01 2.10223496e-01 3.15820634e-01 4.37750071e-01 5.00740767e-01 5.00761867e-01 4.85999197e-01 4.85570937e-01 4.96270478e-01 5.10922313e-01 5.24788141e-01 5.35909414e-01 5.43019772e-01 5.49143672e-01 5.53612471e-01 5.57458878e-01 5.55677772e-01 5.37106574e-01 4.94974285e-01 4.44194913e-01 4.39494550e-01 4.64107096e-01 4.85852569e-01 5.11506081e-01 5.29248893e-01 5.43111265e-01 5.40037870e-01 3.65428954e-01 1.70736656e-01 4.18821834e-02 4.48610410e-02 1.06153779e-01 2.27555737e-01 3.50122303e-01 4.68512386e-01 4.96596813e-01 4.83430475e-01 4.72712189e-01 4.76754487e-01 4.89681661e-01 5.03968537e-01 5.16179919e-01 5.25758505e-01 5.32323480e-01 5.37684560e-01 5.41210771e-01 5.47677934e-01 5.47417581e-01 5.36699414e-01 5.08979917e-01 4.81632262e-01 4.84472543e-01 5.04021943e-01 5.11848688e-01 5.23195386e-01 5.30666769e-01 5.25231540e-01 5.21220863e-01 3.97690147e-01 2.14006603e-01 3.88452448e-02 3.39738205e-02 9.01284441e-02 2.52889127e-01 3.93218964e-01 4.85892147e-01 4.86429274e-01 4.66195464e-01 4.60505307e-01 4.68210012e-01 4.81754571e-01 4.94803220e-01 5.05279064e-01 5.13364613e-01 5.19835532e-01 5.24221659e-01 5.31691849e-01 5.31561255e-01 5.33432961e-01 5.26238620e-01 5.09698689e-01 4.91623163e-01 4.88834202e-01 4.91292924e-01 5.01744449e-01 5.13383389e-01 5.28076112e-01 5.07443190e-01 4.85938460e-01 4.51760590e-01 2.81843454e-01 4.54847962e-02 2.50408985e-02 6.47716150e-02 2.90011585e-01 4.32560384e-01 4.86798644e-01 4.71986026e-01 4.52660233e-01 4.51676369e-01 4.61709738e-01 4.74585086e-01 4.85725939e-01 4.94067162e-01 5.00251770e-01 5.04972756e-01 5.09305596e-01 5.13578892e-01 5.20536125e-01 5.24511516e-01 5.20677745e-01 5.10331511e-01 4.97927696e-01 4.90474254e-01 4.93642747e-01 5.00774086e-01 5.03026903e-01 5.24176121e-01 4.93939757e-01 4.45409238e-01 4.69213217e-01 3.78749818e-01 6.88127801e-02 1.73330773e-02 3.52451466e-02 3.33148032e-01 4.63726610e-01 4.72602248e-01 4.52986062e-01 4.41691995e-01 4.45374966e-01 4.56645101e-01 4.68667328e-01 4.78507757e-01 4.85734552e-01 4.90934283e-01 4.94693935e-01 4.97270763e-01 5.00142574e-01 5.02415895e-01 5.03730476e-01 5.01013041e-01 4.93464172e-01 4.83574659e-01 4.78402644e-01 4.81079876e-01 4.86450940e-01 4.90807444e-01 5.18180549e-01 5.29173553e-01 4.79668468e-01 4.68155324e-01 4.69394475e-01 1.46317214e-01 1.23026045e-02 1.84416324e-02 3.89687061e-01 4.69853878e-01 4.54082608e-01 4.39482063e-01 4.36833084e-01 4.42979544e-01 4.54523414e-01 4.67519313e-01 4.79595065e-01 4.89845902e-01 4.98227745e-01 5.04282415e-01 5.07318616e-01 5.08190632e-01 5.06618619e-01 5.02103627e-01 4.94640291e-01 4.85126287e-01 4.76524800e-01 4.72341269e-01 4.73755896e-01 4.77856278e-01 4.81914699e-01 5.12667537e-01 5.41164696e-01 5.51284611e-01 5.42885900e-01 5.30737996e-01 5.08149862e-01 2.01081801e-02 1.67797841e-02 5.33656657e-01 5.02915144e-01 5.00598073e-01 4.93717015e-01 4.90160912e-01 4.91322786e-01 4.97321397e-01 5.06143153e-01 5.15432417e-01 5.23544133e-01 5.29708624e-01 5.33829749e-01 5.36238074e-01 5.36932230e-01 5.35416543e-01 5.31442642e-01 5.25182188e-01 5.18038213e-01 5.12624681e-01 5.10897815e-01 5.12168527e-01 5.14498353e-01 5.16354978e-01 5.21778703e-01 
