# vtk DataFile Version 2.0
results/iter1.vtk, Created by Freefem++ 
ASCII
DATASET UNSTRUCTURED_GRID
POINTS 961 float
0 0 0
0.033333333 0 0
0.066666667 0 0
0.1 0 0
0.13333333 0 0
0.16666667 0 0
0.2 0 0
0.23333333 0 0
0.26666667 0 0
0.3 0 0
0.33333333 0 0
0.36666667 0 0
0.4 0 0
0.43333333 0 0
0.46666667 0 0
0.5 0 0
0.53333333 0 0
0.56666667 0 0
0.6 0 0
0.63333333 0 0
0.66666667 0 0
0.7 0 0
0.73333333 0 0
0.76666667 0 0
0.8 0 0
0.83333333 0 0
0.86666667 0 0
0.9 0 0
0.93333333 0 0
0.96666667 0 0
1 0 0
0 0.033333333 0
0.033333333 0.033333333 0
0.066666667 0.033333333 0
0.1 0.033333333 0
0.13333333 0.033333333 0
0.16666667 0.033333333 0
0.2 0.033333333 0
0.23333333 0.033333333 0
0.26666667 0.033333333 0
0.3 0.033333333 0
0.33333333 0.033333333 0
0.36666667 0.033333333 0
0.4 0.033333333 0
0.43333333 0.033333333 0
0.46666667 0.033333333 0
0.5 0.033333333 0
0.53333333 0.033333333 0
0.56666667 0.033333333 0
0.6 0.033333333 0
0.63333333 0.033333333 0
0.66666667 0.033333333 0
0.7 0.033333333 0
0.73333333 0.033333333 0
0.76666667 0.033333333 0
0.8 0.033333333 0
0.83333333 0.033333333 0
0.86666667 0.033333333 0
0.9 0.033333333 0
0.93333333 0.033333333 0
0.96666667 0.033333333 0
1 0.033333333 0
0 0.066666667 0
0.033333333 0.066666667 0
0.066666667 0.066666667 0
0.1 0.066666667 0
0.13333333 0.066666667 0
0.16666667 0.066666667 0
0.2 0.066666667 0
0.23333333 0.066666667 0
0.26666667 0.066666667 0
0.3 0.066666667 0
0.33333333 0.066666667 0
0.36666667 0.066666667 0
0.4 0.066666667 0
0.43333333 0.066666667 0
0.46666667 0.066666667 0
0.5 0.066666667 0
0.53333333 0.066666667 0
0.56666667 0.066666667 0
0.6 0.066666667 0
0.63333333 0.066666667 0
0.66666667 0.066666667 0
0.7 0.066666667 0
0.73333333 0.066666667 0
0.76666667 0.066666667 0
0.8 0.066666667 0
0.83333333 0.066666667 0
0.86666667 0.066666667 0
0.9 0.066666667 0
0.93333333 0.066666667 0
0.96666667 0.066666667 0
1 0.066666667 0
0 0.1 0
0.033333333 0.1 0
0.066666667 0.1 0
0.1 0.1 0
0.13333333 0.1 0
0.16666667 0.1 0
0.2 0.1 0
0.23333333 0.1 0
0.26666667 0.1 0
0.3 0.1 0
0.33333333 0.1 0
0.36666667 0.1 0
0.4 0.1 0
0.43333333 0.1 0
0.46666667 0.1 0
0.5 0.1 0
0.53333333 0.1 0
0.56666667 0.1 0
0.6 0.1 0
0.63333333 0.1 0
0.66666667 0.1 0
0.7 0.1 0
0.73333333 0.1 0
0.76666667 0.1 0
0.8 0.1 0
0.83333333 0.1 0
0.86666667 0.1 0
0.9 0.1 0
0.93333333 0.1 0
0.96666667 0.1 0
1 0.1 0
0 0.13333333 0
0.033333333 0.13333333 0
0.066666667 0.13333333 0
0.1 0.13333333 0
0.13333333 0.13333333 0
0.16666667 0.13333333 0
0.2 0.13333333 0
0.23333333 0.13333333 0
0.26666667 0.13333333 0
0.3 0.13333333 0
0.33333333 0.13333333 0
0.36666667 0.13333333 0
0.4 0.13333333 0
0.43333333 0.13333333 0
0.46666667 0.13333333 0
0.5 0.13333333 0
0.53333333 0.13333333 0
0.56666667 0.13333333 0
0.6 0.13333333 0
0.63333333 0.13333333 0
0.66666667 0.13333333 0
0.7 0.13333333 0
0.73333333 0.13333333 0
0.76666667 0.13333333 0
0.8 0.13333333 0
0.83333333 0.13333333 0
0.86666667 0.13333333 0
0.9 0.13333333 0
0.93333333 0.13333333 0
0.96666667 0.13333333 0
1 0.13333333 0
0 0.16666667 0
0.033333333 0.16666667 0
0.066666667 0.16666667 0
0.1 0.16666667 0
0.13333333 0.16666667 0
0.16666667 0.16666667 0
0.2 0.16666667 0
0.23333333 0.16666667 0
0.26666667 0.16666667 0
0.3 0.16666667 0
0.33333333 0.16666667 0
0.36666667 0.16666667 0
0.4 0.16666667 0
0.43333333 0.16666667 0
0.46666667 0.16666667 0
0.5 0.16666667 0
0.53333333 0.16666667 0
0.56666667 0.16666667 0
0.6 0.16666667 0
0.63333333 0.16666667 0
0.66666667 0.16666667 0
0.7 0.16666667 0
0.73333333 0.16666667 0
0.76666667 0.16666667 0
0.8 0.16666667 0
0.83333333 0.16666667 0
0.86666667 0.16666667 0
0.9 0.16666667 0
0.93333333 0.16666667 0
0.96666667 0.16666667 0
1 0.16666667 0
0 0.2 0
0.033333333 0.2 0
0.066666667 0.2 0
0.1 0.2 0
0.13333333 0.2 0
0.16666667 0.2 0
0.2 0.2 0
0.23333333 0.2 0
0.26666667 0.2 0
0.3 0.2 0
0.33333333 0.2 0
0.36666667 0.2 0
0.4 0.2 0
0.43333333 0.2 0
0.46666667 0.2 0
0.5 0.2 0
0.53333333 0.2 0
0.56666667 0.2 0
0.6 0.2 0
0.63333333 0.2 0
0.66666667 0.2 0
0.7 0.2 0
0.73333333 0.2 0
0.76666667 0.2 0
0.8 0.2 0
0.83333333 0.2 0
0.86666667 0.2 0
0.9 0.2 0
0.93333333 0.2 0
0.96666667 0.2 0
1 0.2 0
0 0.23333333 0
0.033333333 0.23333333 0
0.066666667 0.23333333 0
0.1 0.23333333 0
0.13333333 0.23333333 0
0.16666667 0.23333333 0
0.2 0.23333333 0
0.23333333 0.23333333 0
0.26666667 0.23333333 0
0.3 0.23333333 0
0.33333333 0.23333333 0
0.36666667 0.23333333 0
0.4 0.23333333 0
0.43333333 0.23333333 0
0.46666667 0.23333333 0
0.5 0.23333333 0
0.53333333 0.23333333 0
0.56666667 0.23333333 0
0.6 0.23333333 0
0.63333333 0.23333333 0
0.66666667 0.23333333 0
0.7 0.23333333 0
0.73333333 0.23333333 0
0.76666667 0.23333333 0
0.8 0.23333333 0
0.83333333 0.23333333 0
0.86666667 0.23333333 0
0.9 0.23333333 0
0.93333333 0.23333333 0
0.96666667 0.23333333 0
1 0.23333333 0
0 0.26666667 0
0.033333333 0.26666667 0
0.066666667 0.26666667 0
0.1 0.26666667 0
0.13333333 0.26666667 0
0.16666667 0.26666667 0
0.2 0.26666667 0
0.23333333 0.26666667 0
0.26666667 0.26666667 0
0.3 0.26666667 0
0.33333333 0.26666667 0
0.36666667 0.26666667 0
0.4 0.26666667 0
0.43333333 0.26666667 0
0.46666667 0.26666667 0
0.5 0.26666667 0
0.53333333 0.26666667 0
0.56666667 0.26666667 0
0.6 0.26666667 0
0.63333333 0.26666667 0
0.66666667 0.26666667 0
0.7 0.26666667 0
0.73333333 0.26666667 0
0.76666667 0.26666667 0
0.8 0.26666667 0
0.83333333 0.26666667 0
0.86666667 0.26666667 0
0.9 0.26666667 0
0.93333333 0.26666667 0
0.96666667 0.26666667 0
1 0.26666667 0
0 0.3 0
0.033333333 0.3 0
0.066666667 0.3 0
0.1 0.3 0
0.13333333 0.3 0
0.16666667 0.3 0
0.2 0.3 0
0.23333333 0.3 0
0.26666667 0.3 0
0.3 0.3 0
0.33333333 0.3 0
0.36666667 0.3 0
0.4 0.3 0
0.43333333 0.3 0
0.46666667 0.3 0
0.5 0.3 0
0.53333333 0.3 0
0.56666667 0.3 0
0.6 0.3 0
0.63333333 0.3 0
0.66666667 0.3 0
0.7 0.3 0
0.73333333 0.3 0
0.76666667 0.3 0
0.8 0.3 0
0.83333333 0.3 0
0.86666667 0.3 0
0.9 0.3 0
0.93333333 0.3 0
0.96666667 0.3 0
1 0.3 0
0 0.33333333 0
0.033333333 0.33333333 0
0.066666667 0.33333333 0
0.1 0.33333333 0
0.13333333 0.33333333 0
0.16666667 0.33333333 0
0.2 0.33333333 0
0.23333333 0.33333333 0
0.26666667 0.33333333 0
0.3 0.33333333 0
0.33333333 0.33333333 0
0.36666667 0.33333333 0
0.4 0.33333333 0
0.43333333 0.33333333 0
0.46666667 0.33333333 0
0.5 0.33333333 0
0.53333333 0.33333333 0
0.56666667 0.33333333 0
0.6 0.33333333 0
0.63333333 0.33333333 0
0.66666667 0.33333333 0
0.7 0.33333333 0
0.73333333 0.33333333 0
0.76666667 0.33333333 0
0.8 0.33333333 0
0.83333333 0.33333333 0
0.86666667 0.33333333 0
0.9 0.33333333 0
0.93333333 0.33333333 0
0.96666667 0.33333333 0
1 0.33333333 0
0 0.36666667 0
0.033333333 0.36666667 0
0.066666667 0.36666667 0
0.1 0.36666667 0
0.13333333 0.36666667 0
0.16666667 0.36666667 0
0.2 0.36666667 0
0.23333333 0.36666667 0
0.26666667 0.36666667 0
0.3 0.36666667 0
0.33333333 0.36666667 0
0.36666667 0.36666667 0
0.4 0.36666667 0
0.43333333 0.36666667 0
0.46666667 0.36666667 0
0.5 0.36666667 0
0.53333333 0.36666667 0
0.56666667 0.36666667 0
0.6 0.36666667 0
0.63333333 0.36666667 0
0.66666667 0.36666667 0
0.7 0.36666667 0
0.73333333 0.36666667 0
0.76666667 0.36666667 0
0.8 0.36666667 0
0.83333333 0.36666667 0
0.86666667 0.36666667 0
0.9 0.36666667 0
0.93333333 0.36666667 0
0.96666667 0.36666667 0
1 0.36666667 0
0 0.4 0
0.033333333 0.4 0
0.066666667 0.4 0
0.1 0.4 0
0.13333333 0.4 0
0.16666667 0.4 0
0.2 0.4 0
0.23333333 0.4 0
0.26666667 0.4 0
0.3 0.4 0
0.33333333 0.4 0
0.36666667 0.4 0
0.4 0.4 0
0.43333333 0.4 0
0.46666667 0.4 0
0.5 0.4 0
0.53333333 0.4 0
0.56666667 0.4 0
0.6 0.4 0
0.63333333 0.4 0
0.66666667 0.4 0
0.7 0.4 0
0.73333333 0.4 0
0.76666667 0.4 0
0.8 0.4 0
0.83333333 0.4 0
0.86666667 0.4 0
0.9 0.4 0
0.93333333 0.4 0
0.96666667 0.4 0
1 0.4 0
0 0.43333333 0
0.033333333 0.43333333 0
0.066666667 0.43333333 0
0.1 0.43333333 0
0.13333333 0.43333333 0
0.16666667 0.43333333 0
0.2 0.43333333 0
0.23333333 0.43333333 0
0.26666667 0.43333333 0
0.3 0.43333333 0
0.33333333 0.43333333 0
0.36666667 0.43333333 0
0.4 0.43333333 0
0.43333333 0.43333333 0
0.46666667 0.43333333 0
0.5 0.43333333 0
0.53333333 0.43333333 0
0.56666667 0.43333333 0
0.6 0.43333333 0
0.63333333 0.43333333 0
0.66666667 0.43333333 0
0.7 0.43333333 0
0.73333333 0.43333333 0
0.76666667 0.43333333 0
0.8 0.43333333 0
0.83333333 0.43333333 0
0.86666667 0.43333333 0
0.9 0.43333333 0
0.93333333 0.43333333 0
0.96666667 0.43333333 0
1 0.43333333 0
0 0.46666667 0
0.033333333 0.46666667 0
0.066666667 0.46666667 0
0.1 0.46666667 0
0.13333333 0.46666667 0
0.16666667 0.46666667 0
0.2 0.46666667 0
0.23333333 0.46666667 0
0.26666667 0.46666667 0
0.3 0.46666667 0
0.33333333 0.46666667 0
0.36666667 0.46666667 0
0.4 0.46666667 0
0.43333333 0.46666667 0
0.46666667 0.46666667 0
0.5 0.46666667 0
0.53333333 0.46666667 0
0.56666667 0.46666667 0
0.6 0.46666667 0
0.63333333 0.46666667 0
0.66666667 0.46666667 0
0.7 0.46666667 0
0.73333333 0.46666667 0
0.76666667 0.46666667 0
0.8 0.46666667 0
0.83333333 0.46666667 0
0.86666667 0.46666667 0
0.9 0.46666667 0
0.93333333 0.46666667 0
0.96666667 0.46666667 0
1 0.46666667 0
0 0.5 0
0.033333333 0.5 0
0.066666667 0.5 0
0.1 0.5 0
0.13333333 0.5 0
0.16666667 0.5 0
0.2 0.5 0
0.23333333 0.5 0
0.26666667 0.5 0
0.3 0.5 0
0.33333333 0.5 0
0.36666667 0.5 0
0.4 0.5 0
0.43333333 0.5 0
0.46666667 0.5 0
0.5 0.5 0
0.53333333 0.5 0
0.56666667 0.5 0
0.6 0.5 0
0.63333333 0.5 0
0.66666667 0.5 0
0.7 0.5 0
0.73333333 0.5 0
0.76666667 0.5 0
0.8 0.5 0
0.83333333 0.5 0
0.86666667 0.5 0
0.9 0.5 0
0.93333333 0.5 0
0.96666667 0.5 0
1 0.5 0
0 0.53333333 0
0.033333333 0.53333333 0
0.066666667 0.53333333 0
0.1 0.53333333 0
0.13333333 0.53333333 0
0.16666667 0.53333333 0
0.2 0.53333333 0
0.23333333 0.53333333 0
0.26666667 0.53333333 0
0.3 0.53333333 0
0.33333333 0.53333333 0
0.36666667 0.53333333 0
0.4 0.53333333 0
0.43333333 0.53333333 0
0.46666667 0.53333333 0
0.5 0.53333333 0
0.53333333 0.53333333 0
0.56666667 0.53333333 0
0.6 0.53333333 0
0.63333333 0.53333333 0
0.66666667 0.53333333 0
0.7 0.53333333 0
0.73333333 0.53333333 0
0.76666667 0.53333333 0
0.8 0.53333333 0
[...]
CELL_DATA 1920
Scalars  Label int 1
LOOKUP_TABLE FreeFempp_table
0
0
0
0
0
0
0
0
0
0
0
0
0
0
0
0
0
0
0
0
0
0
0
0
0
0
0
0
0
0
0
0
0
0
0
0
0
0
0
0
0
0
0
0
0
0
0
0
0
0
0
0
0
0
0
0
0
0
0
0
0
0
0
0
0
0
0
0
0
0
0
0
0
0
0
0
0
0
0
0
0
0
0
0
0
0
0
0
0
0
0
0
0
0
0
0
0
0
0
0
0
0
0
0
0
0
0
0
0
0
0
0
0
0
0
0
0
0
0
0
0
0
0
0
0
0
0
0
0
0
0
0
0
0
0
0
0
0
0
0
0
0
0
0
0
0
0
0
0
0
0
0
0
0
0
0
0
0
0
0
0
0
0
0
0
0
0
0
0
0
0
0
0
0
0
0
0
0
0
0
0
0
0
0
0
0
0
0
0
0
0
0
0
0
0
0
0
0
0
0
0
0
0
0
0
0
0
0
0
0
0
0
0
0
0
0
0
0
0
0
0
0
0
0
0
0
0
0
0
0
0
0
0
0
0
0
0
0
0
0
0
0
0
0
0
0
0
0
0
0
0
0
0
0
0
0
0
0
0
0
0
0
0
0
0
0
0
0
0
0
0
0
0
0
0
0
0
0
0
0
0
0
0
0
0
0
0
0
0
0
0
0
0
0
0
0
0
0
0
0
0
0
0
0
0
0
0
0
0
0
0
0
0
0
0
0
0
0
0
0
0
0
0
0
0
0
0
0
0
0
0
0
0
0
0
0
0
0
0
0
0
0
0
0
0
0
0
0
0
0
0
0
0
0
0
0
0
0
0
0
0
0
0
0
0
0
0
0
0
0
0
0
0
0
0
0
0
0
0
0
0
0
0
0
0
0
0
0
0
0
0
0
0
0
0
0
0
0
0
0
0
0
0
0
0
0
0
0
0
0
0
0
0
0
0
0
0
0
0
0
0
0
0
0
0
0
0
0
0
0
0
0
0
0
0
0
0
0
0
0
0
0
0
0
0
0
0
0
0
0
0
0
0
0
0
0
0
0
0
0
0
0
0
0
0
0
0
0
0
0
0
0
0
0
0
0
0
0
0
0
0
0
0
0
0
0
0
0
0
0
0
0
0
0
0
0
0
0
0
0
0
0
0
0
0
0
0
0
0
0
0
0
0
0
0
0
0
0
0
0
0
0
0
0
0
0
0
0
0
0
0
0
0
0
0
0
0
0
0
0
0
0
0
0
0
0
0
0
0
0
0
0
0
0
0
0
0
0
0
0
0
0
0
0
0
0
0
0
0
0
0
0
0
0
0
0
0
0
0
0
0
0
0
0
0
0
0
0
0
0
0
0
0
0
0
0
0
0
0
0
0
0
0
0
0
0
0
0
0
0
0
0
0
0
0
0
0
0
0
0
0
0
0
0
0
0
0
0
0
0
0
0
0
0
0
0
0
0
0
0
0
0
0
0
0
0
0
0
0
0
0
0
0
0
0
0
0
0
0
0
0
0
0
0
0
0
0
0
0
0
0
0
0
0
0
0
0
0
0
0
0
0
0
0
0
0
0
0
0
0
0
0
0
0
0
0
0
0
0
0
0
0
0
0
0
0
0
0
0
0
0
0
0
0
0
0
0
0
0
0
0
0
0
0
0
0
0
0
0
0
0
0
0
0
0
0
0
0
0
0
0
0
0
0
0
0
0
0
0
0
0
0
0
0
0
0
0
0
0
0
0
0
0
0
0
0
0
0
0
0
0
0
0
0
0
0
0
0
0
0
0
0
0
0
0
0
0
0
0
0
0
0
0
0
0
0
0
0
0
0
0
0
0
0
0
0
0
0
0
0
0
0
0
0
0
0
0
0
0
0
0
0
0
0
0
0
0
0
0
0
0
0
0
0
0
0
0
0
0
0
0
0
0
0
0
0
0
0
0
0
0
0
0
0
0
0
0
0
0
0
0
0
0
0
0
0
0
0
0
0
0
0
0
0
0
0
0
0
0
0
0
0
0
0
0
0
0
0
0
0
0
0
0
0
0
0
0
0
0
0
0
0
0
0
0
0
0
0
0
0
0
0
0
0
0
0
0
0
0
0
0
0
0
0
0
0
0
0
0
0
0
0
0
0
0
0
0
0
0
0
0
0
0
0
0
0
0
0
0
0
0
0
0
0
0
0
0
0
0
0
0
0
0
0
0
0
0
0
0
0
0
0
0
0
0
0
0
0
0
0
0
0
0
0
0
0
0
0
0
0
0
0
0
0
0
0
0
0
0
0
0
0
0
0
0
0
0
0
0
0
0
0
0
0
0
0
0
0
0
0
0
0
0
0
0
0
0
0
0
0
0
0
0
0
0
0
0
0
0
0
0
0
0
0
0
0
0
0
0
0
0
0
0
0
0
0
0
0
0
0
0
0
0
0
0
0
0
0
0
0
0
0
0
0
0
0
0
0
0
0
0
0
0
0
0
0
0
0
0
0
0
0
0
0
0
0
0
0
0
0
0
0
0
0
0
0
0
0
0
0
0
0
0
0
0
0
0
0
0
0
0
0
0
0
0
0
0
0
0
0
0
0
0
0
0
0
0
0
0
0
0
0
0
0
0
0
0
0
0
0
0
0
0
0
0
0
0
0
0
0
0
0
0
0
0
0
0
0
0
0
0
0
0
0
0
0
0
0
0
0
0
0
0
0
0
0
0
0
0
0
0
0
0
0
0
0
0
0
0
0
0
0
0
0
0
0
0
0
0
0
0
0
0
0
0
0
0
0
0
0
0
0
0
0
0
0
0
0
0
0
0
0
0
0
0
0
0
0
0
0
0
0
0
0
0
0
0
0
0
0
0
0
0
0
0
0
0
0
0
0
0
0
0
0
0
0
0
0
0
0
0
0
0
0
0
0
0
0
0
0
0
0
0
0
0
0
0
0
0
0
0
0
0
0
0
0
0
0
0
0
0
0
0
0
0
0
0
0
0
0
0
0
0
0
0
0
0
0
0
0
0
0
0
0
0
0
0
0
0
0
0
0
0
0
0
0
0
0
0
0
0
0
0
0
0
0
0
0
0
0
0
0
0
0
0
0
0
0
0
0
0
0
0
0
0
0
0
0
0
0
0
0
0
0
0
0
0
0
0
0
0
0
0
0
0
0
0
0
0
0
0
0
0
0
0
0
0
0
0
0
0
0
0
0
0
0
0
0
0
0
0
0
0
0
0
0
0
0
0
0
0
0
0
0
0
0
0
0
0
0
0
0
0
0
0
0
0
0
0
0
0
0
0
0
0
0
0
0
0
0
0
0
0
0
0
0
0
0
0
0
0
0
0
0
0
0
0
0
0
0
0
0
0
0
0
0
0
0
0
0
0
0
0
0
0
0
0
0
0
0
0
0
0
0
0
0
0
0
0
0
0
0
0
0
0
0
0
0
0
0
0
0
0
0
0
0
0
0
0
0
0
0
0
0
0
0
0
0
0
0
0
0
0
0
0
0
0
0
0
0
0
0
0
0
0
0
0
0
0
0
0
0
0
0
0
0
0
0
0
0
0
0
0
0
0
0
0
0
0
0
0
0
0
0
0
0
0
0
0
0
0
0
0
0
0
0
0
0
0
0
0
0
0
0
0
0
0
0
0
0
0
0
0
0
0
0
0
0
0
0
0
0
0
0
0
0
0
0
0
0
0
0
0
0
0
0
0
0
0
0
0
0
0
0
0
0
0
0
0
0
0
0
0
0
0
0
0
0
0
0
0
0
0
0
0
0
0
0
0
0
0
0
0
0
0
0
0
0
0
0
0
0
0
0
0
0
0
0
0
0
0
0
0
0
0
0
0
0
0
0
0
0
0
0
0
0
0
0
0
0
0
0
0
0
0
0
0
0
0
0
0
0
0
0
0
0
0
0
0
0
0
0
0
0
0
0
0
0
0
0
0
0
0
0
0
0
0
0
0
0
0
0
0
0
0
0
0
0
0
0
0
0
0
0
0
0
0
0
0
0
0
0
0
0
0
0
0
0
0
0
0
0
0
0
0
0
0
0
0
0
0
0
0
0
0
0
0
0
0
0
0
0
0
0
0
0
0
0
0
0
1
1
1
1
1
1
1
1
1
1
1
1
1
1
1
1
1
1
1
1
1
1
1
1
1
1
1
1
1
1
2
2
2
2
2
2
2
2
2
2
2
2
2
2
2
2
2
2
2
2
2
2
2
2
2
2
2
2
2
2
3
3
3
3
3
3
3
3
3
3
3
3
3
3
3
3
3
3
3
3
3
3
3
3
3
3
3
3
3
3
4
4
4
4
4
4
4
4
4
4
4
4
4
4
4
4
4
4
4
4
4
4
4
4
4
4
4
4
4
4

LOOKUP_TABLE FreeFempp_table 5
1.00000000 0.00000000 0.00000000 1.00000000
1.00000000 1.00000000 0.00000000 1.00000000
1.00000000 0.00000000 1.00000000 1.00000000
0.00000000 1.00000000 0.00000000 1.00000000
0.00000000 1.00000000 1.00000000 1.00000000

POINT_DATA 961
FIELD FieldData 1
Density 1 961 float
2.67705798e-01 2.27297306e-01 2.73502797e-01 2.73839891e-01 2.61782646e-01 2.47544661e-01 2.29968086e-01 2.02829942e-01 1.68729305e-01 1.33163139e-01 1.26534522e-01 1.98726341e-01 2.75432616e-01 3.22164446e-01 3.47145736e-01 3.62501919e-01 3.67938489e-01 3.85074377e-01 4.64728028e-01 6.24668717e-01 8.35457861e-01 9.29924667e-01 8.55317593e-01 8.38527024e-01 8.96821797e-01 9.01623368e-01 9.18251276e-01 8.13858330e-01 8.77921522e-01 8.99839282e-01 8.00323665e-01 5.57825551e-04 8.47892389e-02 1.77794814e-01 1.59307808e-01 1.47252217e-01 1.39124259e-01 1.30781725e-01 1.17275693e-01 9.67868268e-02 7.50742033e-02 5.98881729e-02 8.57219622e-02 1.36617273e-01 1.63161665e-01 1.75498396e-01 1.94128722e-01 1.98666632e-01 2.05835998e-01 2.66107351e-01 4.94716734e-01 8.66857111e-01 9.68049705e-01 5.38930595e-01 9.43969488e-02 1.19690150e-01 1.97098061e-01 1.98155463e-01 2.18209147e-01 8.94863904e-01 7.80914545e-01 8.16370487e-01 3.47931869e-04 3.02889675e-04 5.12512110e-04 4.97782486e-04 5.10356389e-04 5.15538733e-04 5.19114488e-04 5.14612650e-04 5.13594481e-04 5.32872044e-04 5.86468377e-04 4.32086829e-03 2.40569651e-01 2.45441750e-01 2.23021314e-01 2.59150296e-01 2.81577080e-01 2.56272793e-01 2.57669061e-01 4.32194412e-01 8.50214720e-01 9.31337237e-01 6.10150993e-02 1.34379594e-02 2.24079471e-02 2.54861712e-02 4.35973108e-02 9.28352997e-02 1.85237363e-01 6.04342937e-01 6.49367869e-01 5.18143833e-01 1.79774055e-04 5.47527568e-04 4.93835658e-04 5.03502029e-04 5.11836261e-04 5.15822321e-04 5.17583219e-04 5.13192907e-04 5.23961673e-04 4.14861250e-04 4.26791608e-04 5.53536054e-04 6.29938266e-04 7.95829284e-04 2.26360168e-02 4.58089083e-01 4.27173465e-01 3.34061205e-01 3.59741986e-01 7.37889886e-01 9.11606073e-01 1.23225832e-02 8.83948524e-03 8.78023077e-03 5.26110129e-03 5.45334350e-03 1.21042915e-02 6.99926540e-02 2.26784378e-01 5.50492465e-01 5.53659797e-01 2.91283280e-01 3.95786949e-02 4.72884551e-02 2.68144965e-01 3.23360473e-01 3.39846402e-01 3.52868319e-01 3.47471148e-01 3.24669987e-01 1.30784605e-02 7.12841225e-04 6.24139386e-04 5.39810222e-04 4.35994938e-04 3.90204426e-04 1.21420389e-03 4.91266954e-04 3.18906784e-01 3.15968364e-01 5.71476042e-01 9.57463562e-01 1.66983038e-01 8.03163741e-03 1.41274324e-02 5.63845271e-03 2.96146655e-03 2.53792875e-03 1.02462573e-02 9.37827379e-02 4.96216387e-01 5.18705964e-01 2.84497917e-01 3.82154584e-02 2.70606596e-02 1.97890356e-01 3.06422949e-01 3.43250424e-01 3.61750960e-01 3.74087274e-01 3.70640725e-01 3.40236276e-01 3.33749235e-01 3.49264562e-01 3.17613691e-01 3.07116052e-03 5.56081708e-04 1.04559782e-04 3.37818201e-04 5.33559709e-04 3.07170786e-02 3.38300526e-01 8.83205473e-01 9.37022865e-01 6.80088578e-03 3.27929743e-02 2.21494343e-02 8.95828567e-03 2.11300887e-03 1.72205432e-03 1.75377522e-02 4.62126076e-01 4.98507589e-01 2.56160915e-01 1.05511032e-01 2.67987717e-02 1.17733352e-01 2.90251732e-01 3.67013276e-01 4.01030660e-01 4.18969303e-01 4.27442312e-01 4.22517478e-01 4.11755860e-01 4.24485862e-01 4.17448431e-01 4.06908810e-01 3.85007352e-01 7.27904141e-02 1.18031970e-03 4.54258377e-04 4.53101238e-04 8.25015735e-03 6.54163003e-01 9.85655308e-01 6.26210868e-01 2.35839561e-02 6.02457821e-02 5.81511073e-02 1.36880837e-02 1.46119203e-03 2.28900067e-03 4.62381512e-01 6.38555288e-01 3.69409233e-01 2.52553403e-01 1.46894634e-01 1.85942203e-01 3.51023257e-01 4.36545640e-01 4.79604274e-01 5.01776457e-01 5.11815012e-01 5.11652172e-01 5.05117893e-01 4.98760581e-01 4.88293201e-01 4.70042169e-01 4.52493161e-01 4.37435120e-01 4.17231798e-01 5.04377000e-02 5.29096811e-04 6.06642105e-04 2.87150731e-03 8.47790837e-01 9.76814091e-01 4.26717073e-01 9.32104513e-02 9.57671925e-02 6.11049719e-02 1.60707056e-03 1.93682662e-03 4.74483132e-01 8.53019476e-01 8.32755506e-01 7.75431097e-01 7.04700410e-01 6.48089230e-01 6.42597079e-01 6.43080235e-01 6.42103076e-01 6.38546646e-01 6.30739093e-01 6.18540943e-01 6.03500962e-01 5.87555349e-01 5.69445074e-01 5.47185659e-01 5.22037506e-01 5.00205219e-01 4.87699956e-01 4.53508228e-01 4.32839006e-01 7.62836251e-04 8.38403881e-04 1.65902195e-03 9.40580964e-01 9.46177900e-01 6.67529881e-01 1.73797801e-01 9.88727212e-02 1.46565435e-03 1.60941854e-03 4.74515975e-01 8.91972959e-01 9.38227952e-01 9.24669325e-01 9.14552212e-01 8.96383464e-01 8.69817615e-01 8.37077320e-01 8.05320501e-01 7.76978254e-01 7.50978351e-01 7.26171434e-01 7.02342212e-01 6.79307818e-01 6.56008124e-01 6.31356001e-01 6.04581714e-01 5.76293230e-01 5.52941442e-01 5.40484965e-01 5.00241280e-01 4.76282150e-01 1.26361637e-03 1.04614592e-03 1.45523518e-03 9.50021625e-01 9.43773687e-01 8.26270282e-01 2.32353613e-01 1.54850609e-03 1.33407419e-03 1.11328281e-01 7.54090011e-01 8.61596882e-01 8.57936740e-01 8.87449861e-01 9.03310180e-01 9.01027739e-01 8.86063159e-01 8.65069687e-01 8.41711521e-01 8.17872822e-01 7.94361115e-01 7.71581411e-01 7.49470651e-01 7.27540970e-01 7.05232501e-01 6.81808293e-01 6.56326115e-01 6.29196703e-01 6.05538666e-01 5.86833894e-01 5.35031974e-01 4.42707032e-01 2.11190945e-03 1.22268789e-03 1.49336411e-03 9.23869669e-01 9.38448966e-01 8.92879605e-01 2.52005621e-03 1.18952373e-03 5.08779706e-03 4.77364868e-01 3.15945715e-01 3.56402367e-01 4.93805885e-01 6.76522434e-01 7.93771803e-01 8.35899651e-01 8.43366444e-01 8.37540269e-01 8.25934827e-01 8.11733305e-01 7.96613634e-01 7.81362057e-01 7.66217172e-01 7.51067460e-01 7.35377252e-01 7.18158662e-01 6.98222339e-01 6.75629914e-01 6.54682100e-01 6.33564115e-01 5.95874488e-01 5.15075862e-01 3.77053837e-03 1.39661564e-03 1.71130674e-03 8.17759987e-03 6.39040232e-01 1.58389751e-02 1.28376647e-03 1.88838155e-03 3.03635061e-01 8.72258767e-02 8.67572725e-02 1.27583489e-01 2.57796347e-01 4.86507744e-01 6.57557786e-01 7.39384949e-01 7.73006082e-01 7.84614682e-01 7.85666049e-01 7.81676948e-01 7.75595188e-01 7.69047439e-01 7.62797117e-01 7.56825984e-01 7.50392735e-01 7.42185235e-01 7.30785072e-01 7.16332376e-01 7.00900257e-01 6.70557082e-01 6.80610895e-01 5.46204686e-01 6.94635417e-03 2.25040107e-03 2.66259396e-03 3.38854641e-03 9.90135968e-01 1.64015638e-03 1.70206488e-03 1.93083122e-01 4.75750677e-02 4.42162491e-02 5.84606342e-02 1.11650012e-01 2.63238400e-01 4.54990149e-01 5.92831314e-01 6.69262707e-01 7.08750248e-01 7.28179634e-01 7.36745596e-01 7.39895463e-01 7.41139650e-01 7.42668867e-01 7.45468140e-01 7.49502838e-01 7.53837764e-01 7.56804407e-01 7.55937099e-01 7.47687221e-01 7.18924284e-01 6.63508952e-01 7.06465602e-01 3.34691852e-01 9.23849270e-03 1.17758783e-02 1.91732068e-02 9.66994584e-01 1.71111454e-03 1.61656260e-03 9.93084535e-02 2.56788190e-02 2.59255916e-02 4.04834189e-02 8.53100568e-02 1.98597535e-01 3.56458783e-01 4.91468936e-01 5.79881728e-01 6.32796526e-01 6.63535655e-01 6.80482686e-01 6.89231932e-01 6.94184363e-01 6.98831499e-01 7.05647349e-01 7.16156125e-01 7.30351090e-01 7.46819496e-01 7.62203753e-01 7.69656301e-01 7.54494786e-01 6.93205237e-01 6.91946745e-01 2.01281413e-01 1.58938929e-01 4.20839079e-02 3.48096974e-02 9.95903194e-01 1.66293804e-03 1.54866721e-03 4.94993478e-02 1.43800881e-02 1.62277296e-02 3.48520391e-02 9.86308381e-02 2.20665604e-01 3.48238975e-01 4.54364032e-01 5.31251252e-01 5.82834482e-01 6.15609407e-01 6.34718895e-01 6.44094586e-01 6.47415996e-01 6.48413777e-01 6.51026964e-01 6.58945858e-01 6.74598873e-01 6.98336363e-01 7.27541089e-01 7.55499899e-01 7.71263003e-01 7.66353607e-01 7.44281054e-01 8.24241489e-02 2.88244057e-02 5.43353297e-02 1.76898744e-02 9.95141804e-01 1.65871019e-03 1.53406349e-03 2.28407811e-02 9.78685636e-03 1.16665661e-02 4.06071320e-02 1.57739952e-01 2.90814340e-01 3.82239014e-01 4.55709547e-01 5.15040994e-01 5.59883833e-01 5.90807199e-01 6.09438658e-01 6.17666841e-01 6.17538095e-01 6.11707747e-01 6.03977382e-01 5.99476516e-01 6.03438437e-01 6.19969666e-01 6.50149286e-01 6.91005409e-01 7.36306846e-01 7.86486685e-01 8.49672616e-01 5.20581245e-01 3.46349925e-02 2.84801144e-02 7.09841549e-01 9.92526054e-01 1.71888666e-03 1.58946705e-03 9.59583744e-03 6.68115448e-03 9.69831925e-03 6.70327097e-02 2.60760933e-01 3.61496091e-01 4.20727581e-01 4.71225172e-01 5.16855717e-01 5.55011928e-01 5.83519101e-01 6.01769745e-01 6.09987974e-01 6.08572721e-01 5.98268569e-01 5.81061482e-01 5.61167479e-01 5.45020044e-01 5.39566875e-01 5.50178647e-01 5.80200315e-01 6.31377220e-01 7.08631933e-01 8.24314356e-01 9.02388096e-01 6.35802671e-02 2.11233627e-02 9.19013917e-01 9.89305496e-01 1.79040350e-03 1.68098696e-03 4.73207096e-03 4.61983494e-03 1.05075007e-02 1.47849321e-01 3.49441737e-01 4.11743760e-01 4.52014685e-01 4.90156144e-01 5.27044296e-01 5.59864759e-01 5.86116850e-01 6.04426384e-01 6.14105403e-01 6.14445329e-01 6.04434073e-01 5.83405137e-01 5.52670717e-01 5.17106593e-01 4.84831721e-01 4.64841396e-01 4.65749621e-01 4.96759176e-01 5.65960586e-01 7.01908231e-01 8.57785106e-01 7.43131816e-01 4.56786640e-02 9.76523459e-01 9.04321253e-01 1.91108510e-03 1.79259223e-03 3.05915228e-03 3.40720266e-03 1.45916687e-02 2.60948241e-01 4.05130059e-01 4.46473688e-01 4.77164328e-01 5.08558035e-01 5.39698720e-01 5.68328321e-01 5.92467189e-01 6.10826254e-01 6.22513294e-01 6.26385808e-01 6.20400488e-01 6.01515412e-01 5.66895068e-01 5.16771257e-01 4.57862198e-01 4.04765308e-01 3.76203567e-01 3.91280353e-01 4.52902347e-01 5.66133618e-01 7.37382650e-01 8.75463068e-01 8.99993479e-01 9.85422194e-01 1.12854362e-01 2.12742575e-03 1.90283696e-03 1.96565851e-03 2.81188102e-03 2.70720441e-02 3.57962698e-01 4.44172651e-01 4.72355694e-01 4.97334272e-01 5.24010658e-01 5.50870776e-01 5.76037347e-01 5.98067880e-01 6.16039395e-01 6.29294217e-01 6.36832237e-01 6.36363089e-01 6.23341620e-01 5.90785146e-01 5.31615674e-01 4.47422236e-01 3.62655938e-01 3.20603758e-01 3.51191849e-01 4.51687872e-01 6.10240519e-01 8.05273294e-01 9.19428766e-01 9.64985609e-01 9.66217875e-01 1.02832913e-02 2.45769974e-03 2.18539615e-03 6.02776243e-04 8.90438037e-04 6.07191212e-02 4.36579257e-01 4.76229399e-01 4.92530137e-01 5.12271941e-01 5.34803450e-01 5.57970643e-01 5.79998314e-01 5.99730968e-01 6.16554737e-01 6.30199969e-01 6.40223444e-01 6.44898832e-01 6.39494896e-01 6.14488363e-01 5.56548297e-01 4.64268804e-01 3.78893375e-01 3.57744992e-01 4.52044368e-01 6.39272392e-01 8.19512010e-01 9.20107603e-01 9.47635889e-01 9.61238921e-01 1.52913019e-01 4.20323154e-03 2.97770114e-03 2.93811737e-03 1.61746249e-03 1.23980059e-03 1.79008767e-01 4.90238398e-01 5.02193570e-01 5.07783949e-01 5.21901965e-01 5.40078223e-01 5.59539318e-01 5.78403950e-01 5.95505953e-01 6.10296965e-01 6.22833610e-01 6.33590162e-01 6.42599881e-01 6.47448063e-01 6.40509903e-01 6.09915853e-01 5.59925377e-01 5.46036541e-01 6.44403100e-01 8.49968672e-01 8.92589331e-01 9.29207802e-01 9.51953590e-01 9.47141290e-01 7.19681382e-01 7.78948562e-03 2.78299442e-03 2.96948594e-03 6.25988189e-03 1.66585785e-03 1.77159521e-03 3.49689633e-01 5.15758395e-01 5.20083487e-01 5.18256903e-01 5.26244879e-01 5.39449632e-01 5.54890871e-01 5.70460498e-01 5.84724247e-01 5.96922040e-01 6.07273877e-01 6.17493451e-01 6.30965710e-01 6.51345670e-01 6.79008842e-01 7.11061001e-01 7.55954146e-01 8.38799953e-01 9.18955207e-01 9.25640881e-01 8.70284915e-01 9.33258295e-01 8.99451852e-01 5.95824001e-03 3.17244092e-03 3.12125147e-03 3.27604474e-03 4.05106321e-03 4.50957343e-02 1.55145884e-03 1.64498913e-03 3.97494137e-01 5.28505325e-01 5.29673934e-01 5.22736490e-01 5.24430990e-01 5.32414258e-01 5.43803036e-01 5.56215703e-01 5.67851663e-01 5.77585101e-01 5.85522592e-01 5.94267666e-01 6.10590041e-01 6.45280778e-01 7.06499517e-01 7.87285864e-01 8.65631640e-01 9.23236430e-01 9.45676804e-01 5.15660763e-01 1.11802155e-02 1.04767373e-02 5.85743692e-03 4.14397102e-03 3.41418595e-03 3.25737428e-03 4.10635583e-03 1.79369003e-02 5.14981151e-01 1.44862325e-03 1.52702152e-03 4.29077238e-01 5.40400028e-01 5.31827867e-01 5.18651843e-01 5.14875352e-01 5.18574715e-01 5.26653230e-01 5.36522686e-01 5.46190619e-01 5.54265380e-01 5.60445249e-01 5.66963732e-01 5.81165373e-01 6.17102206e-01 6.88633859e-01 7.87540913e-01 8.75380874e-01 9.27333474e-01 9.49869812e-01 9.32631731e-01 7.80794472e-02 1.91442631e-02 8.72929394e-03 5.00537129e-03 8.00915435e-03 6.11152172e-01 9.50296044e-01 9.62931871e-01 8.87027442e-01 1.35870033e-03 1.43518660e-03 4.57828701e-01 5.51470935e-01 5.25014818e-01 5.04704595e-01 4.97519940e-01 4.98881549e-01 5.04941165e-01 5.13114631e-01 5.21611631e-01 5.29143333e-01 5.35019100e-01 5.40002704e-01 5.48456132e-01 5.71110368e-01 6.23274148e-01 7.09743440e-01 8.06096852e-01 8.79147947e-01 9.24904704e-01 9.50096130e-01 9.53323066e-01 9.70878065e-01 9.85986888e-01 9.88336623e-01 9.89634693e-01 9.88454461e-01 9.80709136e-01 9.74513292e-01 9.45287764e-01 1.26306480e-03 1.34376029e-03 4.99971449e-01 5.52920938e-01 5.06759703e-01 4.82555211e-01 4.75173980e-01 4.76256818e-01 4.81437027e-01 4.88534778e-01 4.96384382e-01 5.04260004e-01 5.11547148e-01 5.17726183e-01 5.23153543e-01 5.31205773e-01 5.50509274e-01 5.91783226e-01 6.56322956e-01 7.29622066e-01 7.98287153e-01 8.60690951e-01 9.08352971e-01 9.39873219e-01 9.56949830e-01 9.62556005e-01 9.63326514e-01 9.59598005e-01 9.49971080e-01 9.38293040e-01 9.03309703e-01 1.10241014e-03 1.27328245e-03 5.51813006e-01 5.31639278e-01 4.78820473e-01 4.57693279e-01 4.53120410e-01 4.55075890e-01 4.59753960e-01 4.65827942e-01 4.72995341e-01 4.81387138e-01 4.91067082e-01 5.01462102e-01 5.10928392e-01 5.17154098e-01 5.19319296e-01 5.21121502e-01 5.29435754e-01 5.42924047e-01 5.37501752e-01 4.92121249e-01 4.93352860e-01 5.92312157e-01 6.45061672e-01 6.43779457e-01 6.47877097e-01 6.66352272e-01 7.06487358e-01 7.18780994e-01 7.56568968e-01 1.01591274e-03 1.09433103e-03 6.06929421e-01 4.93992895e-01 4.51778471e-01 4.38471824e-01 4.36504245e-01 4.38252002e-01 4.41494465e-01 4.45950598e-01 4.52167124e-01 4.61137712e-01 4.73882079e-01 4.90757436e-01 5.10467887e-01 5.29021144e-01 5.39361298e-01 5.32553494e-01 5.00108123e-01 4.33442444e-01 3.17815095e-01 1.83275253e-01 1.47287712e-01 2.30202556e-01 3.81045580e-01 4.56371844e-01 4.72395211e-01 4.91573185e-01 5.23597777e-01 5.25821447e-01 6.51906967e-01 2.05935794e-03 1.40992622e-03 7.87342846e-01 6.12044632e-01 5.87689400e-01 5.80549061e-01 5.79271436e-01 5.80031753e-01 5.81489682e-01 5.83482206e-01 5.86473703e-01 5.91201663e-01 5.98439455e-01 6.08637869e-01 6.21427834e-01 6.35023534e-01 6.45566344e-01 6.46388590e-01 6.27089381e-01 5.72540045e-01 4.64239955e-01 3.12824607e-01 2.34174550e-01 2.99263924e-01 4.63753879e-01 5.48482716e-01 5.94435751e-01 6.14794433e-01 6.17977381e-01 5.92925847e-01 6.35534346e-01 
