# vtk DataFile Version 2.0
results/iter4.vtk, Created by Freefem++ 
ASCII
DATASET UNSTRUCTURED_GRID
POINTS 961 float
0 0 0
0.033333333 0 0
0.066666667 0 0
0.1 0 0
0.13333333 0 0
0.16666667 0 0
0.2 0 0
0.23333333 0 0
0.26666667 0 0
0.3 0 0
0.33333333 0 0
0.36666667 0 0
0.4 0 0
0.43333333 0 0
0.46666667 0 0
0.5 0 0
0.53333333 0 0
0.56666667 0 0
0.6 0 0
0.63333333 0 0
0.66666667 0 0
0.7 0 0
0.73333333 0 0
0.76666667 0 0
0.8 0 0
0.83333333 0 0
0.86666667 0 0
0.9 0 0
0.93333333 0 0
0.96666667 0 0
1 0 0
0 0.033333333 0
0.033333333 0.033333333 0
0.066666667 0.033333333 0
0.1 0.033333333 0
0.13333333 0.033333333 0
0.16666667 0.033333333 0
0.2 0.033333333 0
0.23333333 0.033333333 0
0.26666667 0.033333333 0
0.3 0.033333333 0
0.33333333 0.033333333 0
0.36666667 0.033333333 0
0.4 0.033333333 0
0.43333333 0.033333333 0
0.46666667 0.033333333 0
0.5 0.033333333 0
0.53333333 0.033333333 0
0.56666667 0.033333333 0
0.6 0.033333333 0
0.63333333 0.033333333 0
0.66666667 0.033333333 0
0.7 0.033333333 0
0.73333333 0.033333333 0
0.76666667 0.033333333 0
0.8 0.033333333 0
0.83333333 0.033333333 0
0.86666667 0.033333333 0
0.9 0.033333333 0
0.93333333 0.033333333 0
0.96666667 0.033333333 0
1 0.033333333 0
0 0.066666667 0
0.033333333 0.066666667 0
0.066666667 0.066666667 0
0.1 0.066666667 0
0.13333333 0.066666667 0
0.16666667 0.066666667 0
0.2 0.066666667 0
0.23333333 0.066666667 0
0.26666667 0.066666667 0
0.3 0.066666667 0
0.33333333 0.066666667 0
0.36666667 0.066666667 0
0.4 0.066666667 0
0.43333333 0.066666667 0
0.46666667 0.066666667 0
0.5 0.066666667 0
0.53333333 0.066666667 0
0.56666667 0.066666667 0
0.6 0.066666667 0
0.63333333 0.066666667 0
0.66666667 0.066666667 0
0.7 0.066666667 0
0.73333333 0.066666667 0
0.76666667 0.066666667 0
0.8 0.066666667 0
0.83333333 0.066666667 0
0.86666667 0.066666667 0
0.9 0.066666667 0
0.93333333 0.066666667 0
0.96666667 0.066666667 0
1 0.066666667 0
0 0.1 0
0.033333333 0.1 0
0.066666667 0.1 0
0.1 0.1 0
0.13333333 0.1 0
0.16666667 0.1 0
0.2 0.1 0
0.23333333 0.1 0
0.26666667 0.1 0
0.3 0.1 0
0.33333333 0.1 0
0.36666667 0.1 0
0.4 0.1 0
0.43333333 0.1 0
0.46666667 0.1 0
0.5 0.1 0
0.53333333 0.1 0
0.56666667 0.1 0
0.6 0.1 0
0.63333333 0.1 0
0.66666667 0.1 0
0.7 0.1 0
0.73333333 0.1 0
0.76666667 0.1 0
0.8 0.1 0
0.83333333 0.1 0
0.86666667 0.1 0
0.9 0.1 0
0.93333333 0.1 0
0.96666667 0.1 0
1 0.1 0
0 0.13333333 0
0.033333333 0.13333333 0
0.066666667 0.13333333 0
0.1 0.13333333 0
0.13333333 0.13333333 0
0.16666667 0.13333333 0
0.2 0.13333333 0
0.23333333 0.13333333 0
0.26666667 0.13333333 0
0.3 0.13333333 0
0.33333333 0.13333333 0
0.36666667 0.13333333 0
0.4 0.13333333 0
0.43333333 0.13333333 0
0.46666667 0.13333333 0
0.5 0.13333333 0
0.53333333 0.13333333 0
0.56666667 0.13333333 0
0.6 0.13333333 0
0.63333333 0.13333333 0
0.66666667 0.13333333 0
0.7 0.13333333 0
0.73333333 0.13333333 0
0.76666667 0.13333333 0
0.8 0.13333333 0
0.83333333 0.13333333 0
0.86666667 0.13333333 0
0.9 0.13333333 0
0.93333333 0.13333333 0
0.96666667 0.13333333 0
1 0.13333333 0
0 0.16666667 0
0.033333333 0.16666667 0
0.066666667 0.16666667 0
0.1 0.16666667 0
0.13333333 0.16666667 0
0.16666667 0.16666667 0
0.2 0.16666667 0
0.23333333 0.16666667 0
0.26666667 0.16666667 0
0.3 0.16666667 0
0.33333333 0.16666667 0
0.36666667 0.16666667 0
0.4 0.16666667 0
0.43333333 0.16666667 0
0.46666667 0.16666667 0
0.5 0.16666667 0
0.53333333 0.16666667 0
0.56666667 0.16666667 0
0.6 0.16666667 0
0.63333333 0.16666667 0
0.66666667 0.16666667 0
0.7 0.16666667 0
0.73333333 0.16666667 0
0.76666667 0.16666667 0
0.8 0.16666667 0
0.83333333 0.16666667 0
0.86666667 0.16666667 0
0.9 0.16666667 0
0.93333333 0.16666667 0
0.96666667 0.16666667 0
1 0.16666667 0
0 0.2 0
0.033333333 0.2 0
0.066666667 0.2 0
0.1 0.2 0
0.13333333 0.2 0
0.16666667 0.2 0
0.2 0.2 0
0.23333333 0.2 0
0.26666667 0.2 0
0.3 0.2 0
0.33333333 0.2 0
0.36666667 0.2 0
0.4 0.2 0
0.43333333 0.2 0
0.46666667 0.2 0
0.5 0.2 0
0.53333333 0.2 0
0.56666667 0.2 0
0.6 0.2 0
0.63333333 0.2 0
0.66666667 0.2 0
0.7 0.2 0
0.73333333 0.2 0
0.76666667 0.2 0
0.8 0.2 0
0.83333333 0.2 0
0.86666667 0.2 0
0.9 0.2 0
0.93333333 0.2 0
0.96666667 0.2 0
1 0.2 0
0 0.23333333 0
0.033333333 0.23333333 0
0.066666667 0.23333333 0
0.1 0.23333333 0
0.13333333 0.23333333 0
0.16666667 0.23333333 0
0.2 0.23333333 0
0.23333333 0.23333333 0
0.26666667 0.23333333 0
0.3 0.23333333 0
0.33333333 0.23333333 0
0.36666667 0.23333333 0
0.4 0.23333333 0
0.43333333 0.23333333 0
0.46666667 0.23333333 0
0.5 0.23333333 0
0.53333333 0.23333333 0
0.56666667 0.23333333 0
0.6 0.23333333 0
0.63333333 0.23333333 0
0.66666667 0.23333333 0
0.7 0.23333333 0
0.73333333 0.23333333 0
0.76666667 0.23333333 0
0.8 0.23333333 0
0.83333333 0.23333333 0
0.86666667 0.23333333 0
0.9 0.23333333 0
0.93333333 0.23333333 0
0.96666667 0.23333333 0
1 0.23333333 0
0 0.26666667 0
0.033333333 0.26666667 0
0.066666667 0.26666667 0
0.1 0.26666667 0
0.13333333 0.26666667 0
0.16666667 0.26666667 0
0.2 0.26666667 0
0.23333333 0.26666667 0
0.26666667 0.26666667 0
0.3 0.26666667 0
0.33333333 0.26666667 0
0.36666667 0.26666667 0
0.4 0.26666667 0
0.43333333 0.26666667 0
0.46666667 0.26666667 0
0.5 0.26666667 0
0.53333333 0.26666667 0
0.56666667 0.26666667 0
0.6 0.26666667 0
0.63333333 0.26666667 0
0.66666667 0.26666667 0
0.7 0.26666667 0
0.73333333 0.26666667 0
0.76666667 0.26666667 0
0.8 0.26666667 0
0.83333333 0.26666667 0
0.86666667 0.26666667 0
0.9 0.26666667 0
0.93333333 0.26666667 0
0.96666667 0.26666667 0
1 0.26666667 0
0 0.3 0
0.033333333 0.3 0
0.066666667 0.3 0
0.1 0.3 0
0.13333333 0.3 0
0.16666667 0.3 0
0.2 0.3 0
0.23333333 0.3 0
0.26666667 0.3 0
0.3 0.3 0
0.33333333 0.3 0
0.36666667 0.3 0
0.4 0.3 0
0.43333333 0.3 0
0.46666667 0.3 0
0.5 0.3 0
0.53333333 0.3 0
0.56666667 0.3 0
0.6 0.3 0
0.63333333 0.3 0
0.66666667 0.3 0
0.7 0.3 0
0.73333333 0.3 0
0.76666667 0.3 0
0.8 0.3 0
0.83333333 0.3 0
0.86666667 0.3 0
0.9 0.3 0
0.93333333 0.3 0
0.96666667 0.3 0
1 0.3 0
0 0.33333333 0
0.033333333 0.33333333 0
0.066666667 0.33333333 0
0.1 0.33333333 0
0.13333333 0.33333333 0
0.16666667 0.33333333 0
0.2 0.33333333 0
0.23333333 0.33333333 0
0.26666667 0.33333333 0
0.3 0.33333333 0
0.33333333 0.33333333 0
0.36666667 0.33333333 0
0.4 0.33333333 0
0.43333333 0.33333333 0
0.46666667 0.33333333 0
0.5 0.33333333 0
0.53333333 0.33333333 0
0.56666667 0.33333333 0
0.6 0.33333333 0
0.63333333 0.33333333 0
0.66666667 0.33333333 0
0.7 0.33333333 0
0.73333333 0.33333333 0
0.76666667 0.33333333 0
0.8 0.33333333 0
0.83333333 0.33333333 0
0.86666667 0.33333333 0
0.9 0.33333333 0
0.93333333 0.33333333 0
0.96666667 0.33333333 0
1 0.33333333 0
0 0.36666667 0
0.033333333 0.36666667 0
0.066666667 0.36666667 0
0.1 0.36666667 0
0.13333333 0.36666667 0
0.16666667 0.36666667 0
0.2 0.36666667 0
0.23333333 0.36666667 0
0.26666667 0.36666667 0
0.3 0.36666667 0
0.33333333 0.36666667 0
0.36666667 0.36666667 0
0.4 0.36666667 0
0.43333333 0.36666667 0
0.46666667 0.36666667 0
0.5 0.36666667 0
0.53333333 0.36666667 0
0.56666667 0.36666667 0
0.6 0.36666667 0
0.63333333 0.36666667 0
0.66666667 0.36666667 0
0.7 0.36666667 0
0.73333333 0.36666667 0
0.76666667 0.36666667 0
0.8 0.36666667 0
0.83333333 0.36666667 0
0.86666667 0.36666667 0
0.9 0.36666667 0
0.93333333 0.36666667 0
0.96666667 0.36666667 0
1 0.36666667 0
0 0.4 0
0.033333333 0.4 0
0.066666667 0.4 0
0.1 0.4 0
0.13333333 0.4 0
0.16666667 0.4 0
0.2 0.4 0
0.23333333 0.4 0
0.26666667 0.4 0
0.3 0.4 0
0.33333333 0.4 0
0.36666667 0.4 0
0.4 0.4 0
0.43333333 0.4 0
0.46666667 0.4 0
0.5 0.4 0
0.53333333 0.4 0
0.56666667 0.4 0
0.6 0.4 0
0.63333333 0.4 0
0.66666667 0.4 0
0.7 0.4 0
0.73333333 0.4 0
0.76666667 0.4 0
0.8 0.4 0
0.83333333 0.4 0
0.86666667 0.4 0
0.9 0.4 0
0.93333333 0.4 0
0.96666667 0.4 0
1 0.4 0
0 0.43333333 0
0.033333333 0.43333333 0
0.066666667 0.43333333 0
0.1 0.43333333 0
0.13333333 0.43333333 0
0.16666667 0.43333333 0
0.2 0.43333333 0
0.23333333 0.43333333 0
0.26666667 0.43333333 0
0.3 0.43333333 0
0.33333333 0.43333333 0
0.36666667 0.43333333 0
0.4 0.43333333 0
0.43333333 0.43333333 0
0.46666667 0.43333333 0
0.5 0.43333333 0
0.53333333 0.43333333 0
0.56666667 0.43333333 0
0.6 0.43333333 0
0.63333333 0.43333333 0
0.66666667 0.43333333 0
0.7 0.43333333 0
0.73333333 0.43333333 0
0.76666667 0.43333333 0
0.8 0.43333333 0
0.83333333 0.43333333 0
0.86666667 0.43333333 0
0.9 0.43333333 0
0.93333333 0.43333333 0
0.96666667 0.43333333 0
1 0.43333333 0
0 0.46666667 0
0.033333333 0.46666667 0
0.066666667 0.46666667 0
0.1 0.46666667 0
0.13333333 0.46666667 0
0.16666667 0.46666667 0
0.2 0.46666667 0
0.23333333 0.46666667 0
0.26666667 0.46666667 0
0.3 0.46666667 0
0.33333333 0.46666667 0
0.36666667 0.46666667 0
0.4 0.46666667 0
0.43333333 0.46666667 0
0.46666667 0.46666667 0
0.5 0.46666667 0
0.53333333 0.46666667 0
0.56666667 0.46666667 0
0.6 0.46666667 0
0.63333333 0.46666667 0
0.66666667 0.46666667 0
0.7 0.46666667 0
0.73333333 0.46666667 0
0.76666667 0.46666667 0
0.8 0.46666667 0
0.83333333 0.46666667 0
0.86666667 0.46666667 0
0.9 0.46666667 0
0.93333333 0.46666667 0
0.96666667 0.46666667 0
1 0.46666667 0
0 0.5 0
0.033333333 0.5 0
0.066666667 0.5 0
0.1 0.5 0
0.13333333 0.5 0
0.16666667 0.5 0
0.2 0.5 0
0.23333333 0.5 0
0.26666667 0.5 0
0.3 0.5 0
0.33333333 0.5 0
0.36666667 0.5 0
0.4 0.5 0
0.43333333 0.5 0
0.46666667 0.5 0
0.5 0.5 0
0.53333333 0.5 0
0.56666667 0.5 0
0.6 0.5 0
0.63333333 0.5 0
0.66666667 0.5 0
0.7 0.5 0
0.73333333 0.5 0
0.76666667 0.5 0
0.8 0.5 0
0.83333333 0.5 0
0.86666667 0.5 0
0.9 0.5 0
0.93333333 0.5 0
0.96666667 0.5 0
1 0.5 0
0 0.53333333 0
0.033333333 0.53333333 0
0.066666667 0.53333333 0
0.1 0.53333333 0
0.13333333 0.53333333 0
0.16666667 0.53333333 0
0.2 0.53333333 0
0.23333333 0.53333333 0
0.26666667 0.53333333 0
0.3 0.53333333 0
0.33333333 0.53333333 0
0.36666667 0.53333333 0
0.4 0.53333333 0
0.43333333 0.53333333 0
0.46666667 0.53333333 0
0.5 0.53333333 0
0.53333333 0.53333333 0
0.56666667 0.53333333 0
0.6 0.53333333 0
0.63333333 0.53333333 0
0.66666667 0.53333333 0
0.7 0.53333333 0
0.73333333 0.53333333 0
0.76666667 0.53333333 0
0.8 0.53333333 0
[...]
CELL_DATA 1920
Scalars  Label int 1
LOOKUP_TABLE FreeFempp_table
0
0
0
0
0
0
0
0
0
0
0
0
0
0
0
0
0
0
0
0
0
0
0
0
0
0
0
0
0
0
0
0
0
0
0
0
0
0
0
0
0
0
0
0
0
0
0
0
0
0
0
0
0
0
0
0
0
0
0
0
0
0
0
0
0
0
0
0
0
0
0
0
0
0
0
0
0
0
0
0
0
0
0
0
0
0
0
0
0
0
0
0
0
0
0
0
0
0
0
0
0
0
0
0
0
0
0
0
0
0
0
0
0
0
0
0
0
0
0
0
0
0
0
0
0
0
0
0
0
0
0
0
0
0
0
0
0
0
0
0
0
0
0
0
0
0
0
0
0
0
0
0
0
0
0
0
0
0
0
0
0
0
0
0
0
0
0
0
0
0
0
0
0
0
0
0
0
0
0
0
0
0
0
0
0
0
0
0
0
0
0
0
0
0
0
0
0
0
0
0
0
0
0
0
0
0
0
0
0
0
0
0
0
0
0
0
0
0
0
0
0
0
0
0
0
0
0
0
0
0
0
0
0
0
0
0
0
0
0
0
0
0
0
0
0
0
0
0
0
0
0
0
0
0
0
0
0
0
0
0
0
0
0
0
0
0
0
0
0
0
0
0
0
0
0
0
0
0
0
0
0
0
0
0
0
0
0
0
0
0
0
0
0
0
0
0
0
0
0
0
0
0
0
0
0
0
0
0
0
0
0
0
0
0
0
0
0
0
0
0
0
0
0
0
0
0
0
0
0
0
0
0
0
0
0
0
0
0
0
0
0
0
0
0
0
0
0
0
0
0
0
0
0
0
0
0
0
0
0
0
0
0
0
0
0
0
0
0
0
0
0
0
0
0
0
0
0
0
0
0
0
0
0
0
0
0
0
0
0
0
0
0
0
0
0
0
0
0
0
0
0
0
0
0
0
0
0
0
0
0
0
0
0
0
0
0
0
0
0
0
0
0
0
0
0
0
0
0
0
0
0
0
0
0
0
0
0
0
0
0
0
0
0
0
0
0
0
0
0
0
0
0
0
0
0
0
0
0
0
0
0
0
0
0
0
0
0
0
0
0
0
0
0
0
0
0
0
0
0
0
0
0
0
0
0
0
0
0
0
0
0
0
0
0
0
0
0
0
0
0
0
0
0
0
0
0
0
0
0
0
0
0
0
0
0
0
0
0
0
0
0
0
0
0
0
0
0
0
0
0
0
0
0
0
0
0
0
0
0
0
0
0
0
0
0
0
0
0
0
0
0
0
0
0
0
0
0
0
0
0
0
0
0
0
0
0
0
0
0
0
0
0
0
0
0
0
0
0
0
0
0
0
0
0
0
0
0
0
0
0
0
0
0
0
0
0
0
0
0
0
0
0
0
0
0
0
0
0
0
0
0
0
0
0
0
0
0
0
0
0
0
0
0
0
0
0
0
0
0
0
0
0
0
0
0
0
0
0
0
0
0
0
0
0
0
0
0
0
0
0
0
0
0
0
0
0
0
0
0
0
0
0
0
0
0
0
0
0
0
0
0
0
0
0
0
0
0
0
0
0
0
0
0
0
0
0
0
0
0
0
0
0
0
0
0
0
0
0
0
0
0
0
0
0
0
0
0
0
0
0
0
0
0
0
0
0
0
0
0
0
0
0
0
0
0
0
0
0
0
0
0
0
0
0
0
0
0
0
0
0
0
0
0
0
0
0
0
0
0
0
0
0
0
0
0
0
0
0
0
0
0
0
0
0
0
0
0
0
0
0
0
0
0
0
0
0
0
0
0
0
0
0
0
0
0
0
0
0
0
0
0
0
0
0
0
0
0
0
0
0
0
0
0
0
0
0
0
0
0
0
0
0
0
0
0
0
0
0
0
0
0
0
0
0
0
0
0
0
0
0
0
0
0
0
0
0
0
0
0
0
0
0
0
0
0
0
0
0
0
0
0
0
0
0
0
0
0
0
0
0
0
0
0
0
0
0
0
0
0
0
0
0
0
0
0
0
0
0
0
0
0
0
0
0
0
0
0
0
0
0
0
0
0
0
0
0
0
0
0
0
0
0
0
0
0
0
0
0
0
0
0
0
0
0
0
0
0
0
0
0
0
0
0
0
0
0
0
0
0
0
0
0
0
0
0
0
0
0
0
0
0
0
0
0
0
0
0
0
0
0
0
0
0
0
0
0
0
0
0
0
0
0
0
0
0
0
0
0
0
0
0
0
0
0
0
0
0
0
0
0
0
0
0
0
0
0
0
0
0
0
0
0
0
0
0
0
0
0
0
0
0
0
0
0
0
0
0
0
0
0
0
0
0
0
0
0
0
0
0
0
0
0
0
0
0
0
0
0
0
0
0
0
0
0
0
0
0
0
0
0
0
0
0
0
0
0
0
0
0
0
0
0
0
0
0
0
0
0
0
0
0
0
0
0
0
0
0
0
0
0
0
0
0
0
0
0
0
0
0
0
0
0
0
0
0
0
0
0
0
0
0
0
0
0
0
0
0
0
0
0
0
0
0
0
0
0
0
0
0
0
0
0
0
0
0
0
0
0
0
0
0
0
0
0
0
0
0
0
0
0
0
0
0
0
0
0
0
0
0
0
0
0
0
0
0
0
0
0
0
0
0
0
0
0
0
0
0
0
0
0
0
0
0
0
0
0
0
0
0
0
0
0
0
0
0
0
0
0
0
0
0
0
0
0
0
0
0
0
0
0
0
0
0
0
0
0
0
0
0
0
0
0
0
0
0
0
0
0
0
0
0
0
0
0
0
0
0
0
0
0
0
0
0
0
0
0
0
0
0
0
0
0
0
0
0
0
0
0
0
0
0
0
0
0
0
0
0
0
0
0
0
0
0
0
0
0
0
0
0
0
0
0
0
0
0
0
0
0
0
0
0
0
0
0
0
0
0
0
0
0
0
0
0
0
0
0
0
0
0
0
0
0
0
0
0
0
0
0
0
0
0
0
0
0
0
0
0
0
0
0
0
0
0
0
0
0
0
0
0
0
0
0
0
0
0
0
0
0
0
0
0
0
0
0
0
0
0
0
0
0
0
0
0
0
0
0
0
0
0
0
0
0
0
0
0
0
0
0
0
0
0
0
0
0
0
0
0
0
0
0
0
0
0
0
0
0
0
0
0
0
0
0
0
0
0
0
0
0
0
0
0
0
0
0
0
0
0
0
0
0
0
0
0
0
0
0
0
0
0
0
0
0
0
0
0
0
0
0
0
0
0
0
0
0
0
0
0
0
0
0
0
0
0
0
0
0
0
0
0
0
0
0
0
0
0
0
0
0
0
0
0
0
0
0
0
0
0
0
0
0
0
0
0
0
0
0
0
0
0
0
0
0
0
0
0
0
0
0
0
0
0
0
0
0
0
0
0
0
0
0
0
0
0
0
0
0
0
0
0
0
0
0
0
0
0
0
0
0
0
0
0
0
0
0
0
0
0
0
0
0
0
0
0
0
0
0
0
0
0
0
0
0
0
0
0
0
0
0
0
0
0
0
0
0
0
0
0
0
0
0
0
0
0
0
0
0
0
0
0
0
0
0
0
0
0
0
0
0
0
0
0
0
0
0
0
0
0
0
0
0
0
0
0
0
0
0
0
0
0
0
0
0
0
0
0
0
0
0
0
0
0
0
0
0
0
0
0
0
0
0
0
0
0
0
0
0
0
0
0
0
0
0
0
0
0
0
0
0
0
0
0
0
0
0
0
0
0
0
0
0
0
0
0
0
0
0
0
0
0
0
0
0
0
0
0
0
0
0
0
0
0
0
0
0
0
0
0
0
0
0
0
0
0
0
0
0
0
0
0
0
0
0
0
0
0
0
0
0
0
0
0
0
0
0
0
0
0
0
0
0
0
0
0
0
0
0
0
0
0
0
0
0
0
0
0
0
0
0
0
0
0
0
0
0
0
0
0
0
0
0
0
0
0
0
0
0
0
0
0
0
0
0
0
0
0
0
0
0
0
0
0
0
0
0
0
0
0
0
0
0
0
0
0
0
0
0
0
0
0
0
0
0
0
0
0
0
0
0
0
0
0
0
0
0
0
0
0
0
0
0
0
0
0
0
0
0
0
0
0
0
1
1
1
1
1
1
1
1
1
1
1
1
1
1
1
1
1
1
1
1
1
1
1
1
1
1
1
1
1
1
2
2
2
2
2
2
2
2
2
2
2
2
2
2
2
2
2
2
2
2
2
2
2
2
2
2
2
2
2
2
3
3
3
3
3
3
3
3
3
3
3
3
3
3
3
3
3
3
3
3
3
3
3
3
3
3
3
3
3
3
4
4
4
4
4
4
4
4
4
4
4
4
4
4
4
4
4
4
4
4
4
4
4
4
4
4
4
4
4
4

LOOKUP_TABLE FreeFempp_table 5
1.00000000 0.00000000 0.00000000 1.00000000
1.00000000 1.00000000 0.00000000 1.00000000
1.00000000 0.00000000 1.00000000 1.00000000
0.00000000 1.00000000 0.00000000 1.00000000
0.00000000 1.00000000 1.00000000 1.00000000

POINT_DATA 961
FIELD FieldData 1
Density 1 961 float
4.76762891e-01 4.41717505e-01 4.67825204e-01 4.86894906e-01 4.91395175e-01 4.93095607e-01 4.83817577e-01 3.88694406e-01 4.44433317e-02 2.87681236e-03 2.88165198e-03 1.45334695e-02 2.07516909e-01 4.00754094e-01 4.50762957e-01 4.90613192e-01 5.63612759e-01 6.96695745e-01 8.51012707e-01 9.10234869e-01 8.32652569e-01 6.12968802e-01 6.70854986e-01 8.48597109e-01 8.79631817e-01 8.37723851e-01 7.98903644e-01 7.83866763e-01 7.80226827e-01 7.83503711e-01 7.15869725e-01 8.29185767e-04 2.00800062e-03 2.04748839e-01 3.49247843e-01 3.58127147e-01 3.48937929e-01 3.18192929e-01 2.01881766e-01 3.15437391e-02 2.91259889e-03 1.58080750e-03 3.86905367e-03 7.11670667e-02 2.37861857e-01 2.83257425e-01 3.19763243e-01 4.12013084e-01 6.26517236e-01 8.90339255e-01 9.71883297e-01 9.58117962e-01 7.13228583e-01 5.64625621e-01 8.85785520e-01 9.53456938e-01 9.34031665e-01 8.84412169e-01 8.49195182e-01 8.39807451e-01 8.36620510e-01 7.78322101e-01 3.31396208e-04 2.75691331e-04 2.85328861e-04 3.03243636e-04 2.67273776e-04 2.94186932e-04 3.06341564e-04 2.90217868e-04 2.87868083e-04 2.87057308e-04 2.98549799e-04 3.91812209e-04 3.46235675e-03 1.84045747e-01 2.88631588e-01 3.42344075e-01 4.09202725e-01 5.94396472e-01 8.57204854e-01 9.62820113e-01 9.37876999e-01 2.97170848e-01 6.27264827e-02 1.82115436e-01 5.09565234e-01 7.61305034e-01 8.02794337e-01 7.59054124e-01 7.25767136e-01 7.04218268e-01 7.14406610e-01 7.04614213e-04 3.19683342e-04 3.05546302e-04 2.99074716e-04 2.87995295e-04 2.69781041e-04 3.05806374e-04 2.96310056e-04 2.86878174e-04 2.90430471e-04 2.73589394e-04 2.49028468e-04 2.56792147e-04 3.02952860e-04 3.74637166e-04 1.78712897e-03 2.79771090e-01 5.44396937e-01 8.14659715e-01 9.53680336e-01 9.45431709e-01 9.20552164e-02 4.99844551e-03 3.71627952e-03 5.60936751e-03 1.56749971e-02 1.37173817e-01 5.07000983e-01 5.25954008e-01 4.98650938e-01 6.07172787e-01 5.87139308e-01 4.06419069e-01 3.92114252e-01 4.33798671e-01 4.46428746e-01 4.52138692e-01 4.52327520e-01 4.50543255e-01 4.40380573e-01 3.96402895e-01 1.24821112e-01 1.24238222e-03 3.64262436e-04 2.94699159e-04 2.51447054e-04 2.53991166e-04 3.00393149e-04 4.81418450e-04 7.43298113e-01 9.43825305e-01 9.68826115e-01 2.94093847e-01 3.27592017e-03 2.17909901e-03 2.00131792e-03 1.85652473e-03 2.70673609e-03 3.65349129e-02 3.01236838e-01 3.38272095e-01 5.03875732e-01 6.57802820e-01 5.92826843e-01 5.95147431e-01 5.66771388e-01 5.49580455e-01 5.47346413e-01 5.50554812e-01 5.54427624e-01 5.58712900e-01 5.64281046e-01 5.73982596e-01 5.71671426e-01 5.26635647e-01 4.30018514e-01 1.96377863e-03 3.93665396e-04 2.81804794e-04 2.51564372e-04 2.46653304e-04 8.33681643e-01 9.80026543e-01 9.03426409e-01 1.06837545e-02 3.78179341e-03 3.28348996e-03 1.49845809e-03 9.77467746e-04 1.35728123e-03 2.94023454e-02 2.03153715e-01 4.05701041e-01 7.04334140e-01 6.99745476e-01 6.93029523e-01 6.78748846e-01 6.63314044e-01 6.54543281e-01 6.50281966e-01 6.48538947e-01 6.48802400e-01 6.50933146e-01 6.55403852e-01 6.66516542e-01 6.73394680e-01 6.71397507e-01 6.58365190e-01 5.79646885e-01 4.32198733e-01 1.01553195e-03 2.28277670e-04 2.23760129e-04 9.12065744e-01 9.87289667e-01 5.36864817e-01 3.47613394e-02 2.31195614e-02 1.78206377e-02 1.24049361e-03 7.19604199e-04 1.29448215e-03 3.71581577e-02 2.52466440e-01 7.16880322e-01 7.44968474e-01 7.28977203e-01 7.19641745e-01 7.14433014e-01 7.09215641e-01 7.03236639e-01 6.97382271e-01 6.92080498e-01 6.87190652e-01 6.83436275e-01 6.83732748e-01 6.90760732e-01 7.02660382e-01 7.17581868e-01 7.25348890e-01 6.87071621e-01 5.95934510e-01 4.36130941e-01 2.31655969e-04 2.39663961e-04 9.51108873e-01 9.79985833e-01 6.71962082e-01 3.63263965e-01 3.44727695e-01 7.97487944e-02 8.68419826e-04 5.85434551e-04 2.16396200e-03 7.00718686e-02 6.97432816e-01 7.29808211e-01 7.17609704e-01 7.10676193e-01 7.08472371e-01 7.08541036e-01 7.07673788e-01 7.04598248e-01 6.99832499e-01 6.93784416e-01 6.87518477e-01 6.83835149e-01 6.85578883e-01 6.95158124e-01 7.15199351e-01 7.44417012e-01 7.70019948e-01 7.65696943e-01 6.53664410e-01 4.56451148e-01 2.54337821e-04 2.84321170e-04 9.51894164e-01 9.76920307e-01 9.10733581e-01 6.03555024e-01 4.35302258e-01 7.09951948e-03 6.03111694e-04 6.83779130e-04 8.86297040e-03 6.51327133e-01 6.56596959e-01 6.54064775e-01 6.52448118e-01 6.54891789e-01 6.61977172e-01 6.71690583e-01 6.80398345e-01 6.85848892e-01 6.87184930e-01 6.85037911e-01 6.81653917e-01 6.80100441e-01 6.84157431e-01 6.99284792e-01 7.29954064e-01 7.75727034e-01 8.27879012e-01 8.22061121e-01 7.17488170e-01 2.38106903e-02 3.48173344e-04 4.54306399e-04 9.43813026e-01 9.81001377e-01 9.67230856e-01 7.90705979e-01 8.98872465e-02 9.91701498e-04 6.07431110e-04 1.71571854e-03 5.89508832e-01 5.32437563e-01 5.33579767e-01 5.35879433e-01 5.45684099e-01 5.64681113e-01 5.92831373e-01 6.25083923e-01 6.53317511e-01 6.71995282e-01 6.80663705e-01 6.81948662e-01 6.79324269e-01 6.76786184e-01 6.79766357e-01 6.95670605e-01 7.32692301e-01 7.97162771e-01 8.53039920e-01 8.93749654e-01 8.33203793e-01 2.92014657e-03 4.33435431e-04 4.46225720e-04 8.59768223e-03 1.51333541e-01 9.82819498e-01 8.06731761e-01 2.52266205e-03 5.59938664e-04 1.18342438e-03 5.27743638e-01 3.89931142e-01 3.72942507e-01 3.72115761e-01 3.86464596e-01 4.17937696e-01 4.69473451e-01 5.35948634e-01 5.99413693e-01 6.44261420e-01 6.68779731e-01 6.78530991e-01 6.79324329e-01 6.75402641e-01 6.69774234e-01 6.65777028e-01 6.70486867e-01 6.95447862e-01 7.41150498e-01 8.62057567e-01 9.58442330e-01 7.71780729e-01 2.28436454e-03 5.05972828e-04 8.78948369e-04 4.02815500e-03 1.50600180e-01 9.95454550e-01 7.03507513e-02 7.59193033e-04 6.92998583e-04 4.76589769e-01 2.66422302e-01 2.19638586e-01 2.11994052e-01 2.27252126e-01 2.65350699e-01 3.32993090e-01 4.30369586e-01 5.31970561e-01 6.05653167e-01 6.46536052e-01 6.65120900e-01 6.71336234e-01 6.71074271e-01 6.66383684e-01 6.55722678e-01 6.34419799e-01 5.93376338e-01 5.22579849e-01 5.20055056e-01 8.44482660e-01 9.35263932e-01 8.99849892e-01 8.36945698e-03 1.48308044e-03 3.36486590e-03 3.78652639e-03 9.92382526e-01 9.78063703e-01 6.22654858e-04 6.23153406e-04 4.37996209e-01 1.73509032e-01 1.12780549e-01 1.03286415e-01 1.17261164e-01 1.55644491e-01 2.29910120e-01 3.45268041e-01 4.74524051e-01 5.69863200e-01 6.21916652e-01 6.46035433e-01 6.55870974e-01 6.59101188e-01 6.58795178e-01 6.53907716e-01 6.37830079e-01 5.91104984e-01 4.66798544e-01 2.93920189e-01 2.92823553e-01 6.82199776e-01 9.87735629e-01 9.94573593e-01 8.18568468e-01 3.25439721e-02 4.91353199e-02 9.90307868e-01 9.94956195e-01 7.12270150e-04 6.47572335e-04 4.10367191e-01 1.09153062e-01 5.58077842e-02 4.93251048e-02 6.07862473e-02 9.53090489e-02 1.73425689e-01 3.02614123e-01 4.47504729e-01 5.51004887e-01 6.05016828e-01 6.29468799e-01 6.39683604e-01 6.43683374e-01 6.45129561e-01 6.44754171e-01 6.40194535e-01 6.22224808e-01 5.56779623e-01 3.81331980e-01 2.07748756e-01 2.00495601e-01 4.48179811e-01 9.21930611e-01 9.18458223e-01 5.72429955e-01 7.67352283e-01 9.95707572e-01 9.96120572e-01 8.41259141e-04 7.44938792e-04 3.84213179e-01 6.60541356e-02 2.83510145e-02 2.56947819e-02 3.60725373e-02 6.88059106e-02 1.56095982e-01 3.03590000e-01 4.54688370e-01 5.51142752e-01 5.97223639e-01 6.17065251e-01 6.25320673e-01 6.28633022e-01 6.29801750e-01 6.29745245e-01 6.28590405e-01 6.25757992e-01 6.10180736e-01 5.36914229e-01 3.66345704e-01 2.17390075e-01 1.92890584e-01 3.00225437e-01 4.41643059e-01 3.92284125e-01 8.37581158e-01 9.96689200e-01 9.92477179e-01 1.00243778e-03 8.71220138e-04 3.42146009e-01 3.60041261e-02 1.45738889e-02 1.45137263e-02 2.49913875e-02 6.24127872e-02 1.73878029e-01 3.44650894e-01 4.87120092e-01 5.61271369e-01 5.91918647e-01 6.04187310e-01 6.09886885e-01 6.13045752e-01 6.14503026e-01 6.13990366e-01 6.11946940e-01 6.11515224e-01 6.12693131e-01 5.94391108e-01 5.15307426e-01 3.78516227e-01 2.75616258e-01 2.57655144e-01 3.20236087e-01 5.04105151e-01 9.10564244e-01 9.93897974e-01 7.79863656e-01 1.21950486e-03 1.03360030e-03 2.67121822e-01 1.77094880e-02 7.97455292e-03 9.15393233e-03 2.03949660e-02 7.20127448e-02 2.32517079e-01 4.18757260e-01 5.28163612e-01 5.69089592e-01 5.81497490e-01 5.86113334e-01 5.90106428e-01 5.94336510e-01 5.97512543e-01 5.97821534e-01 5.94711840e-01 5.92079937e-01 5.94188869e-01 5.89502096e-01 5.52830696e-01 4.83468264e-01 4.22811300e-01 4.28333431e-01 5.50036728e-01 7.83566773e-01 9.41069424e-01 9.76862848e-01 1.05184622e-01 1.57975499e-03 1.28014549e-03 1.61794558e-01 8.65385868e-03 4.89921635e-03 6.65133214e-03 2.09833272e-02 1.07004434e-01 3.37148845e-01 5.03870487e-01 5.59413254e-01 5.66207767e-01 5.63023448e-01 5.62566638e-01 5.66285491e-01 5.72024763e-01 5.77276587e-01 5.79709530e-01 5.77436388e-01 5.72706521e-01 5.71529031e-01 5.69946229e-01 5.56545317e-01 5.38884282e-01 5.51160514e-01 6.30770504e-01 7.69821584e-01 8.88337851e-01 9.39572930e-01 9.01713550e-01 2.22310945e-02 2.05927412e-03 1.69743982e-03 6.46434501e-02 4.56504757e-03 3.41377431e-03 5.62585052e-03 2.92267371e-02 1.95093572e-01 4.59884316e-01 5.65651357e-01 5.69900095e-01 5.51822662e-01 5.39790988e-01 5.37877798e-01 5.42291343e-01 5.48701763e-01 5.54563165e-01 5.58874846e-01 5.60211599e-01 5.58015883e-01 5.56940436e-01 5.61106861e-01 5.71691632e-01 5.99442005e-01 6.61122859e-01 7.59829521e-01 8.57767940e-01 9.11043882e-01 9.12356496e-01 6.15706444e-01 1.08656799e-02 2.73930677e-03 2.48143356e-03 1.66812185e-02 2.69847037e-03 2.60577444e-03 5.85504016e-03 5.69537543e-02 3.52818072e-01 5.51275432e-01 5.86765766e-01 5.60446382e-01 5.31805634e-01 5.18273890e-01 5.17337620e-01 5.22399783e-01 5.28355300e-01 5.33039689e-01 5.37261188e-01 5.42671800e-01 5.48728943e-01 5.55728912e-01 5.71139157e-01 6.06189847e-01 6.64957106e-01 7.41447449e-01 8.24862480e-01 8.85946691e-01 9.00364637e-01 7.89475918e-01 1.48651376e-01 8.35206918e-03 3.87025601e-03 4.36305022e-03 4.57252981e-03 1.84972549e-03 2.10887729e-03 8.35320354e-03 1.44939974e-01 5.05804658e-01 5.92311144e-01 5.76314270e-01 5.40322959e-01 5.13497055e-01 5.02713382e-01 5.02923906e-01 5.07736504e-01 5.12909710e-01 5.16677678e-01 5.20000637e-01 5.26901603e-01 5.41507661e-01 5.63342571e-01 5.95130026e-01 6.48611009e-01 7.18982399e-01 7.88411558e-01 8.52385700e-01 8.88143897e-01 8.62612069e-01 5.34738481e-01 5.16364835e-02 9.16449539e-03 6.20599790e-03 1.03927879e-02 1.79282576e-03 1.45600282e-03 1.95452734e-03 1.86784286e-02 3.35865557e-01 5.78793406e-01 5.90508580e-01 5.52742779e-01 5.19994378e-01 5.00214815e-01 4.92566884e-01 4.92526084e-01 4.95844275e-01 5.00383079e-01 5.05309105e-01 5.10605812e-01 5.18879831e-01 5.37144303e-01 5.70197046e-01 6.16539836e-01 6.78365707e-01 7.48209715e-01 8.07761431e-01 8.55729997e-01 8.76531005e-01 8.18859160e-01 4.35934424e-01 5.31729609e-02 1.57989375e-02 1.39881223e-02 3.65964174e-02 9.56608623e-04 1.11736113e-03 2.46386137e-03 7.49664456e-02 5.04935384e-01 5.92522085e-01 5.67239285e-01 5.29169679e-01 5.04178464e-01 4.90598917e-01 4.84479845e-01 4.82782245e-01 4.83799815e-01 4.87515688e-01 4.94563192e-01 5.05043089e-01 5.18892944e-01 5.39402843e-01 5.73464930e-01 6.22675419e-01 6.84143543e-01 7.52115011e-01 8.05533230e-01 8.44130456e-01 8.57152760e-01 8.02203000e-01 5.29312193e-01 1.48507044e-01 6.36727214e-02 6.59661070e-02 1.76062062e-01 6.75192103e-04 8.02387076e-04 4.99406876e-03 2.85084456e-01 5.59029341e-01 5.75127423e-01 5.40250957e-01 5.09727716e-01 4.91651803e-01 4.81599987e-01 4.75561261e-01 4.72001165e-01 4.71015692e-01 4.73703414e-01 4.81688738e-01 4.96199608e-01 5.16758740e-01 5.41782141e-01 5.73452711e-01 6.16865695e-01 6.72158480e-01 7.29393959e-01 7.84000993e-01 8.21049392e-01 8.33929837e-01 8.05413008e-01 6.84486330e-01 4.79849219e-01 3.73544604e-01 4.06916708e-01 5.11048794e-01 5.73510653e-04 6.35993318e-04 2.35383790e-02 4.62283671e-01 5.58895350e-01 5.48054397e-01 5.15970051e-01 4.93049473e-01 4.79572892e-01 4.71167982e-01 4.64959651e-01 4.60487813e-01 4.58614469e-01 4.60663319e-01 4.68380868e-01 4.83613223e-01 5.06765544e-01 5.35107911e-01 5.66356361e-01 6.03139460e-01 6.48609817e-01 6.98286295e-01 7.42132783e-01 7.81515718e-01 8.02704394e-01 7.98740983e-01 7.63765156e-01 7.18277216e-01 7.07586408e-01 7.42798328e-01 7.04334736e-01 5.28849254e-04 5.62294386e-04 1.86351389e-01 5.19020975e-01 5.40029585e-01 5.19039631e-01 4.93503302e-01 4.76612121e-01 4.66222107e-01 4.58971500e-01 4.53174204e-01 4.48909342e-01 4.47200626e-01 4.49306190e-01 4.56670076e-01 4.70887363e-01 4.92627472e-01 5.19906044e-01 5.49594223e-01 5.81011415e-01 6.16793215e-01 6.56205416e-01 6.90348387e-01 7.16935635e-01 7.34709144e-01 7.49984443e-01 7.52554238e-01 7.51714885e-01 7.64976144e-01 7.84238935e-01 7.43856251e-01 4.95350861e-04 5.18658140e-04 4.09354240e-01 5.19993782e-01 5.12406647e-01 4.89707053e-01 4.71594483e-01 4.59954441e-01 4.52007115e-01 4.45926189e-01 4.40934718e-01 4.37346965e-01 4.36226964e-01 4.38799173e-01 4.46176976e-01 4.59296763e-01 4.78286266e-01 5.01512885e-01 5.26398480e-01 5.51584125e-01 5.77675700e-01 6.04625344e-01 6.29089713e-01 6.47637904e-01 6.64018214e-01 6.80475295e-01 6.89822137e-01 6.95800364e-01 7.00327516e-01 7.07473397e-01 7.11704850e-01 4.60599811e-04 4.90990933e-04 5.01638234e-01 4.98486638e-01 4.80222225e-01 4.63725388e-01 4.53129798e-01 4.45508242e-01 4.39094245e-01 4.33688492e-01 4.29190755e-01 4.26014006e-01 4.25206333e-01 4.27918136e-01 4.34947968e-01 4.46592331e-01 4.62378621e-01 4.80812311e-01 5.00168979e-01 5.19565344e-01 5.38079917e-01 5.53629160e-01 5.64098537e-01 5.69841802e-01 5.71601152e-01 5.69143534e-01 5.59503138e-01 5.44842839e-01 5.34721553e-01 5.37559867e-01 6.33894503e-01 3.71612521e-04 4.38471994e-04 5.66925824e-01 4.74257588e-01 4.59622294e-01 4.52824265e-01 4.46512759e-01 4.39129919e-01 4.31755513e-01 4.25337911e-01 4.20146763e-01 4.16570723e-01 4.15399611e-01 4.17403251e-01 4.22899544e-01 4.31714416e-01 4.43402350e-01 4.57514793e-01 4.73926216e-01 4.92598414e-01 5.11288285e-01 5.24271786e-01 5.25663018e-01 5.12726903e-01 4.86147076e-01 4.48514372e-01 4.06651974e-01 3.71019632e-01 3.48374367e-01 3.55166852e-01 5.47598064e-01 6.09658542e-04 4.55491943e-04 7.90452063e-01 5.62563181e-01 5.75865805e-01 5.78218818e-01 5.75027466e-01 5.70131361e-01 5.65289140e-01 5.60938179e-01 5.57038844e-01 5.53716779e-01 5.51397204e-01 5.50511062e-01 5.51224887e-01 5.53492665e-01 5.57305217e-01 5.62795937e-01 5.70249259e-01 5.79882324e-01 5.90649009e-01 5.99115252e-01 6.00508630e-01 5.91028512e-01 5.69140494e-01 5.36407948e-01 4.99186814e-01 4.68408942e-01 4.51031804e-01 4.44220543e-01 5.39798260e-01 
