# vtk DataFile Version 2.0
results/4_density.vtk, Created by Freefem++ 
ASCII
DATASET UNSTRUCTURED_GRID
POINTS 961 float
0 0 0
0.033333333 0 0
0.066666667 0 0
0.1 0 0
0.13333333 0 0
0.16666667 0 0
0.2 0 0
0.23333333 0 0
0.26666667 0 0
0.3 0 0
0.33333333 0 0
0.36666667 0 0
0.4 0 0
0.43333333 0 0
0.46666667 0 0
0.5 0 0
0.53333333 0 0
0.56666667 0 0
0.6 0 0
0.63333333 0 0
0.66666667 0 0
0.7 0 0
0.73333333 0 0
0.76666667 0 0
0.8 0 0
0.83333333 0 0
0.86666667 0 0
0.9 0 0
0.93333333 0 0
0.96666667 0 0
1 0 0
0 0.033333333 0
0.033333333 0.033333333 0
0.066666667 0.033333333 0
0.1 0.033333333 0
0.13333333 0.033333333 0
0.16666667 0.033333333 0
0.2 0.033333333 0
0.23333333 0.033333333 0
0.26666667 0.033333333 0
0.3 0.033333333 0
0.33333333 0.033333333 0
0.36666667 0.033333333 0
0.4 0.033333333 0
0.43333333 0.033333333 0
0.46666667 0.033333333 0
0.5 0.033333333 0
0.53333333 0.033333333 0
0.56666667 0.033333333 0
0.6 0.033333333 0
0.63333333 0.033333333 0
0.66666667 0.033333333 0
0.7 0.033333333 0
0.73333333 0.033333333 0
0.76666667 0.033333333 0
0.8 0.033333333 0
0.83333333 0.033333333 0
0.86666667 0.033333333 0
0.9 0.033333333 0
0.93333333 0.033333333 0
0.96666667 0.033333333 0
1 0.033333333 0
0 0.066666667 0
0.033333333 0.066666667 0
0.066666667 0.066666667 0
0.1 0.066666667 0
0.13333333 0.066666667 0
0.16666667 0.066666667 0
0.2 0.066666667 0
0.23333333 0.066666667 0
0.26666667 0.066666667 0
0.3 0.066666667 0
0.33333333 0.066666667 0
0.36666667 0.066666667 0
0.4 0.066666667 0
0.43333333 0.066666667 0
0.46666667 0.066666667 0
0.5 0.066666667 0
0.53333333 0.066666667 0
0.56666667 0.066666667 0
0.6 0.066666667 0
0.63333333 0.066666667 0
0.66666667 0.066666667 0
0.7 0.066666667 0
0.73333333 0.066666667 0
0.76666667 0.066666667 0
0.8 0.066666667 0
0.83333333 0.066666667 0
0.86666667 0.066666667 0
0.9 0.066666667 0
0.93333333 0.066666667 0
0.96666667 0.066666667 0
1 0.066666667 0
0 0.1 0
0.033333333 0.1 0
0.066666667 0.1 0
0.1 0.1 0
0.13333333 0.1 0
0.16666667 0.1 0
0.2 0.1 0
0.23333333 0.1 0
0.26666667 0.1 0
0.3 0.1 0
0.33333333 0.1 0
0.36666667 0.1 0
0.4 0.1 0
0.43333333 0.1 0
0.46666667 0.1 0
0.5 0.1 0
0.53333333 0.1 0
0.56666667 0.1 0
0.6 0.1 0
0.63333333 0.1 0
0.66666667 0.1 0
0.7 0.1 0
0.73333333 0.1 0
0.76666667 0.1 0
0.8 0.1 0
0.83333333 0.1 0
0.86666667 0.1 0
0.9 0.1 0
0.93333333 0.1 0
0.96666667 0.1 0
1 0.1 0
0 0.13333333 0
0.033333333 0.13333333 0
0.066666667 0.13333333 0
0.1 0.13333333 0
0.13333333 0.13333333 0
0.16666667 0.13333333 0
0.2 0.13333333 0
0.23333333 0.13333333 0
0.26666667 0.13333333 0
0.3 0.13333333 0
0.33333333 0.13333333 0
0.36666667 0.13333333 0
0.4 0.13333333 0
0.43333333 0.13333333 0
0.46666667 0.13333333 0
0.5 0.13333333 0
0.53333333 0.13333333 0
0.56666667 0.13333333 0
0.6 0.13333333 0
0.63333333 0.13333333 0
0.66666667 0.13333333 0
0.7 0.13333333 0
0.73333333 0.13333333 0
0.76666667 0.13333333 0
0.8 0.13333333 0
0.83333333 0.13333333 0
0.86666667 0.13333333 0
0.9 0.13333333 0
0.93333333 0.13333333 0
0.96666667 0.13333333 0
1 0.13333333 0
0 0.16666667 0
0.033333333 0.16666667 0
0.066666667 0.16666667 0
0.1 0.16666667 0
0.13333333 0.16666667 0
0.16666667 0.16666667 0
0.2 0.16666667 0
0.23333333 0.16666667 0
0.26666667 0.16666667 0
0.3 0.16666667 0
0.33333333 0.16666667 0
0.36666667 0.16666667 0
0.4 0.16666667 0
0.43333333 0.16666667 0
0.46666667 0.16666667 0
0.5 0.16666667 0
0.53333333 0.16666667 0
0.56666667 0.16666667 0
0.6 0.16666667 0
0.63333333 0.16666667 0
0.66666667 0.16666667 0
0.7 0.16666667 0
0.73333333 0.16666667 0
0.76666667 0.16666667 0
0.8 0.16666667 0
0.83333333 0.16666667 0
0.86666667 0.16666667 0
0.9 0.16666667 0
0.93333333 0.16666667 0
0.96666667 0.16666667 0
1 0.16666667 0
0 0.2 0
0.033333333 0.2 0
0.066666667 0.2 0
0.1 0.2 0
0.13333333 0.2 0
0.16666667 0.2 0
0.2 0.2 0
0.23333333 0.2 0
0.26666667 0.2 0
0.3 0.2 0
0.33333333 0.2 0
0.36666667 0.2 0
0.4 0.2 0
0.43333333 0.2 0
0.46666667 0.2 0
0.5 0.2 0
0.53333333 0.2 0
0.56666667 0.2 0
0.6 0.2 0
0.63333333 0.2 0
0.66666667 0.2 0
0.7 0.2 0
0.73333333 0.2 0
0.76666667 0.2 0
0.8 0.2 0
0.83333333 0.2 0
0.86666667 0.2 0
0.9 0.2 0
0.93333333 0.2 0
0.96666667 0.2 0
1 0.2 0
0 0.23333333 0
0.033333333 0.23333333 0
0.066666667 0.23333333 0
0.1 0.23333333 0
0.13333333 0.23333333 0
0.16666667 0.23333333 0
0.2 0.23333333 0
0.23333333 0.23333333 0
0.26666667 0.23333333 0
0.3 0.23333333 0
0.33333333 0.23333333 0
0.36666667 0.23333333 0
0.4 0.23333333 0
0.43333333 0.23333333 0
0.46666667 0.23333333 0
0.5 0.23333333 0
0.53333333 0.23333333 0
0.56666667 0.23333333 0
0.6 0.23333333 0
0.63333333 0.23333333 0
0.66666667 0.23333333 0
0.7 0.23333333 0
0.73333333 0.23333333 0
0.76666667 0.23333333 0
0.8 0.23333333 0
0.83333333 0.23333333 0
0.86666667 0.23333333 0
0.9 0.23333333 0
0.93333333 0.23333333 0
0.96666667 0.23333333 0
1 0.23333333 0
0 0.26666667 0
0.033333333 0.26666667 0
0.066666667 0.26666667 0
0.1 0.26666667 0
0.13333333 0.26666667 0
0.16666667 0.26666667 0
0.2 0.26666667 0
0.23333333 0.26666667 0
0.26666667 0.26666667 0
0.3 0.26666667 0
0.33333333 0.26666667 0
0.36666667 0.26666667 0
0.4 0.26666667 0
0.43333333 0.26666667 0
0.46666667 0.26666667 0
0.5 0.26666667 0
0.53333333 0.26666667 0
0.56666667 0.26666667 0
0.6 0.26666667 0
0.63333333 0.26666667 0
0.66666667 0.26666667 0
0.7 0.26666667 0
0.73333333 0.26666667 0
0.76666667 0.26666667 0
0.8 0.26666667 0
0.83333333 0.26666667 0
0.86666667 0.26666667 0
0.9 0.26666667 0
0.93333333 0.26666667 0
0.96666667 0.26666667 0
1 0.26666667 0
0 0.3 0
0.033333333 0.3 0
0.066666667 0.3 0
0.1 0.3 0
0.13333333 0.3 0
0.16666667 0.3 0
0.2 0.3 0
0.23333333 0.3 0
0.26666667 0.3 0
0.3 0.3 0
0.33333333 0.3 0
0.36666667 0.3 0
0.4 0.3 0
0.43333333 0.3 0
0.46666667 0.3 0
0.5 0.3 0
0.53333333 0.3 0
0.56666667 0.3 0
0.6 0.3 0
0.63333333 0.3 0
0.66666667 0.3 0
0.7 0.3 0
0.73333333 0.3 0
0.76666667 0.3 0
0.8 0.3 0
0.83333333 0.3 0
0.86666667 0.3 0
0.9 0.3 0
0.93333333 0.3 0
0.96666667 0.3 0
1 0.3 0
0 0.33333333 0
0.033333333 0.33333333 0
0.066666667 0.33333333 0
0.1 0.33333333 0
0.13333333 0.33333333 0
0.16666667 0.33333333 0
0.2 0.33333333 0
0.23333333 0.33333333 0
0.26666667 0.33333333 0
0.3 0.33333333 0
0.33333333 0.33333333 0
0.36666667 0.33333333 0
0.4 0.33333333 0
0.43333333 0.33333333 0
0.46666667 0.33333333 0
0.5 0.33333333 0
0.53333333 0.33333333 0
0.56666667 0.33333333 0
0.6 0.33333333 0
0.63333333 0.33333333 0
0.66666667 0.33333333 0
0.7 0.33333333 0
0.73333333 0.33333333 0
0.76666667 0.33333333 0
0.8 0.33333333 0
0.83333333 0.33333333 0
0.86666667 0.33333333 0
0.9 0.33333333 0
0.93333333 0.33333333 0
0.96666667 0.33333333 0
1 0.33333333 0
0 0.36666667 0
0.033333333 0.36666667 0
0.066666667 0.36666667 0
0.1 0.36666667 0
0.13333333 0.36666667 0
0.16666667 0.36666667 0
0.2 0.36666667 0
0.23333333 0.36666667 0
0.26666667 0.36666667 0
0.3 0.36666667 0
0.33333333 0.36666667 0
0.36666667 0.36666667 0
0.4 0.36666667 0
0.43333333 0.36666667 0
0.46666667 0.36666667 0
0.5 0.36666667 0
0.53333333 0.36666667 0
0.56666667 0.36666667 0
0.6 0.36666667 0
0.63333333 0.36666667 0
0.66666667 0.36666667 0
0.7 0.36666667 0
0.73333333 0.36666667 0
0.76666667 0.36666667 0
0.8 0.36666667 0
0.83333333 0.36666667 0
0.86666667 0.36666667 0
0.9 0.36666667 0
0.93333333 0.36666667 0
0.96666667 0.36666667 0
1 0.36666667 0
0 0.4 0
0.033333333 0.4 0
0.066666667 0.4 0
0.1 0.4 0
0.13333333 0.4 0
0.16666667 0.4 0
0.2 0.4 0
0.23333333 0.4 0
0.26666667 0.4 0
0.3 0.4 0
0.33333333 0.4 0
0.36666667 0.4 0
0.4 0.4 0
0.43333333 0.4 0
0.46666667 0.4 0
0.5 0.4 0
0.53333333 0.4 0
0.56666667 0.4 0
0.6 0.4 0
0.63333333 0.4 0
0.66666667 0.4 0
0.7 0.4 0
0.73333333 0.4 0
0.76666667 0.4 0
0.8 0.4 0
0.83333333 0.4 0
0.86666667 0.4 0
0.9 0.4 0
0.93333333 0.4 0
0.96666667 0.4 0
1 0.4 0
0 0.43333333 0
0.033333333 0.43333333 0
0.066666667 0.43333333 0
0.1 0.43333333 0
0.13333333 0.43333333 0
0.16666667 0.43333333 0
0.2 0.43333333 0
0.23333333 0.43333333 0
0.26666667 0.43333333 0
0.3 0.43333333 0
0.33333333 0.43333333 0
0.36666667 0.43333333 0
0.4 0.43333333 0
0.43333333 0.43333333 0
0.46666667 0.43333333 0
0.5 0.43333333 0
0.53333333 0.43333333 0
0.56666667 0.43333333 0
0.6 0.43333333 0
0.63333333 0.43333333 0
0.66666667 0.43333333 0
0.7 0.43333333 0
0.73333333 0.43333333 0
0.76666667 0.43333333 0
0.8 0.43333333 0
0.83333333 0.43333333 0
0.86666667 0.43333333 0
0.9 0.43333333 0
0.93333333 0.43333333 0
0.96666667 0.43333333 0
1 0.43333333 0
0 0.46666667 0
0.033333333 0.46666667 0
0.066666667 0.46666667 0
0.1 0.46666667 0
0.13333333 0.46666667 0
0.16666667 0.46666667 0
0.2 0.46666667 0
0.23333333 0.46666667 0
0.26666667 0.46666667 0
0.3 0.46666667 0
0.33333333 0.46666667 0
0.36666667 0.46666667 0
0.4 0.46666667 0
0.43333333 0.46666667 0
0.46666667 0.46666667 0
0.5 0.46666667 0
0.53333333 0.46666667 0
0.56666667 0.46666667 0
0.6 0.46666667 0
0.63333333 0.46666667 0
0.66666667 0.46666667 0
0.7 0.46666667 0
0.73333333 0.46666667 0
0.76666667 0.46666667 0
0.8 0.46666667 0
0.83333333 0.46666667 0
0.86666667 0.46666667 0
0.9 0.46666667 0
0.93333333 0.46666667 0
0.96666667 0.46666667 0
1 0.46666667 0
0 0.5 0
0.033333333 0.5 0
0.066666667 0.5 0
0.1 0.5 0
0.13333333 0.5 0
0.16666667 0.5 0
0.2 0.5 0
0.23333333 0.5 0
0.26666667 0.5 0
0.3 0.5 0
0.33333333 0.5 0
0.36666667 0.5 0
0.4 0.5 0
0.43333333 0.5 0
0.46666667 0.5 0
0.5 0.5 0
0.53333333 0.5 0
0.56666667 0.5 0
0.6 0.5 0
0.63333333 0.5 0
0.66666667 0.5 0
0.7 0.5 0
0.73333333 0.5 0
0.76666667 0.5 0
0.8 0.5 0
0.83333333 0.5 0
0.86666667 0.5 0
0.9 0.5 0
0.93333333 0.5 0
0.96666667 0.5 0
1 0.5 0
0 0.53333333 0
0.033333333 0.53333333 0
0.066666667 0.53333333 0
0.1 0.53333333 0
0.13333333 0.53333333 0
0.16666667 0.53333333 0
0.2 0.53333333 0
0.23333333 0.53333333 0
0.26666667 0.53333333 0
0.3 0.53333333 0
0.33333333 0.53333333 0
0.36666667 0.53333333 0
0.4 0.53333333 0
0.43333333 0.53333333 0
0.46666667 0.53333333 0
0.5 0.53333333 0
0.53333333 0.53333333 0
0.56666667 0.53333333 0
0.6 0.53333333 0
0.63333333 0.53333333 0
0.66666667 0.53333333 0
0.7 0.53333333 0
0.73333333 0.53333333 0
0.76666667 0.53333333 0
0.8 0.53333333 0
[...]
CELL_DATA 1920
Scalars  Label int 1
LOOKUP_TABLE FreeFempp_table
0
0
0
0
0
0
0
0
0
0
0
0
0
0
0
0
0
0
0
0
0
0
0
0
0
0
0
0
0
0
0
0
0
0
0
0
0
0
0
0
0
0
0
0
0
0
0
0
0
0
0
0
0
0
0
0
0
0
0
0
0
0
0
0
0
0
0
0
0
0
0
0
0
0
0
0
0
0
0
0
0
0
0
0
0
0
0
0
0
0
0
0
0
0
0
0
0
0
0
0
0
0
0
0
0
0
0
0
0
0
0
0
0
0
0
0
0
0
0
0
0
0
0
0
0
0
0
0
0
0
0
0
0
0
0
0
0
0
0
0
0
0
0
0
0
0
0
0
0
0
0
0
0
0
0
0
0
0
0
0
0
0
0
0
0
0
0
0
0
0
0
0
0
0
0
0
0
0
0
0
0
0
0
0
0
0
0
0
0
0
0
0
0
0
0
0
0
0
0
0
0
0
0
0
0
0
0
0
0
0
0
0
0
0
0
0
0
0
0
0
0
0
0
0
0
0
0
0
0
0
0
0
0
0
0
0
0
0
0
0
0
0
0
0
0
0
0
0
0
0
0
0
0
0
0
0
0
0
0
0
0
0
0
0
0
0
0
0
0
0
0
0
0
0
0
0
0
0
0
0
0
0
0
0
0
0
0
0
0
0
0
0
0
0
0
0
0
0
0
0
0
0
0
0
0
0
0
0
0
0
0
0
0
0
0
0
0
0
0
0
0
0
0
0
0
0
0
0
0
0
0
0
0
0
0
0
0
0
0
0
0
0
0
0
0
0
0
0
0
0
0
0
0
0
0
0
0
0
0
0
0
0
0
0
0
0
0
0
0
0
0
0
0
0
0
0
0
0
0
0
0
0
0
0
0
0
0
0
0
0
0
0
0
0
0
0
0
0
0
0
0
0
0
0
0
0
0
0
0
0
0
0
0
0
0
0
0
0
0
0
0
0
0
0
0
0
0
0
0
0
0
0
0
0
0
0
0
0
0
0
0
0
0
0
0
0
0
0
0
0
0
0
0
0
0
0
0
0
0
0
0
0
0
0
0
0
0
0
0
0
0
0
0
0
0
0
0
0
0
0
0
0
0
0
0
0
0
0
0
0
0
0
0
0
0
0
0
0
0
0
0
0
0
0
0
0
0
0
0
0
0
0
0
0
0
0
0
0
0
0
0
0
0
0
0
0
0
0
0
0
0
0
0
0
0
0
0
0
0
0
0
0
0
0
0
0
0
0
0
0
0
0
0
0
0
0
0
0
0
0
0
0
0
0
0
0
0
0
0
0
0
0
0
0
0
0
0
0
0
0
0
0
0
0
0
0
0
0
0
0
0
0
0
0
0
0
0
0
0
0
0
0
0
0
0
0
0
0
0
0
0
0
0
0
0
0
0
0
0
0
0
0
0
0
0
0
0
0
0
0
0
0
0
0
0
0
0
0
0
0
0
0
0
0
0
0
0
0
0
0
0
0
0
0
0
0
0
0
0
0
0
0
0
0
0
0
0
0
0
0
0
0
0
0
0
0
0
0
0
0
0
0
0
0
0
0
0
0
0
0
0
0
0
0
0
0
0
0
0
0
0
0
0
0
0
0
0
0
0
0
0
0
0
0
0
0
0
0
0
0
0
0
0
0
0
0
0
0
0
0
0
0
0
0
0
0
0
0
0
0
0
0
0
0
0
0
0
0
0
0
0
0
0
0
0
0
0
0
0
0
0
0
0
0
0
0
0
0
0
0
0
0
0
0
0
0
0
0
0
0
0
0
0
0
0
0
0
0
0
0
0
0
0
0
0
0
0
0
0
0
0
0
0
0
0
0
0
0
0
0
0
0
0
0
0
0
0
0
0
0
0
0
0
0
0
0
0
0
0
0
0
0
0
0
0
0
0
0
0
0
0
0
0
0
0
0
0
0
0
0
0
0
0
0
0
0
0
0
0
0
0
0
0
0
0
0
0
0
0
0
0
0
0
0
0
0
0
0
0
0
0
0
0
0
0
0
0
0
0
0
0
0
0
0
0
0
0
0
0
0
0
0
0
0
0
0
0
0
0
0
0
0
0
0
0
0
0
0
0
0
0
0
0
0
0
0
0
0
0
0
0
0
0
0
0
0
0
0
0
0
0
0
0
0
0
0
0
0
0
0
0
0
0
0
0
0
0
0
0
0
0
0
0
0
0
0
0
0
0
0
0
0
0
0
0
0
0
0
0
0
0
0
0
0
0
0
0
0
0
0
0
0
0
0
0
0
0
0
0
0
0
0
0
0
0
0
0
0
0
0
0
0
0
0
0
0
0
0
0
0
0
0
0
0
0
0
0
0
0
0
0
0
0
0
0
0
0
0
0
0
0
0
0
0
0
0
0
0
0
0
0
0
0
0
0
0
0
0
0
0
0
0
0
0
0
0
0
0
0
0
0
0
0
0
0
0
0
0
0
0
0
0
0
0
0
0
0
0
0
0
0
0
0
0
0
0
0
0
0
0
0
0
0
0
0
0
0
0
0
0
0
0
0
0
0
0
0
0
0
0
0
0
0
0
0
0
0
0
0
0
0
0
0
0
0
0
0
0
0
0
0
0
0
0
0
0
0
0
0
0
0
0
0
0
0
0
0
0
0
0
0
0
0
0
0
0
0
0
0
0
0
0
0
0
0
0
0
0
0
0
0
0
0
0
0
0
0
0
0
0
0
0
0
0
0
0
0
0
0
0
0
0
0
0
0
0
0
0
0
0
0
0
0
0
0
0
0
0
0
0
0
0
0
0
0
0
0
0
0
0
0
0
0
0
0
0
0
0
0
0
0
0
0
0
0
0
0
0
0
0
0
0
0
0
0
0
0
0
0
0
0
0
0
0
0
0
0
0
0
0
0
0
0
0
0
0
0
0
0
0
0
0
0
0
0
0
0
0
0
0
0
0
0
0
0
0
0
0
0
0
0
0
0
0
0
0
0
0
0
0
0
0
0
0
0
0
0
0
0
0
0
0
0
0
0
0
0
0
0
0
0
0
0
0
0
0
0
0
0
0
0
0
0
0
0
0
0
0
0
0
0
0
0
0
0
0
0
0
0
0
0
0
0
0
0
0
0
0
0
0
0
0
0
0
0
0
0
0
0
0
0
0
0
0
0
0
0
0
0
0
0
0
0
0
0
0
0
0
0
0
0
0
0
0
0
0
0
0
0
0
0
0
0
0
0
0
0
0
0
0
0
0
0
0
0
0
0
0
0
0
0
0
0
0
0
0
0
0
0
0
0
0
0
0
0
0
0
0
0
0
0
0
0
0
0
0
0
0
0
0
0
0
0
0
0
0
0
0
0
0
0
0
0
0
0
0
0
0
0
0
0
0
0
0
0
0
0
0
0
0
0
0
0
0
0
0
0
0
0
0
0
0
0
0
0
0
0
0
0
0
0
0
0
0
0
0
0
0
0
0
0
0
0
0
0
0
0
0
0
0
0
0
0
0
0
0
0
0
0
0
0
0
0
0
0
0
0
0
0
0
0
0
0
0
0
0
0
0
0
0
0
0
0
0
0
0
0
0
0
0
0
0
0
0
0
0
0
0
0
0
0
0
0
0
0
0
0
0
0
0
0
0
0
0
0
0
0
0
0
0
0
0
0
0
0
0
0
0
0
0
0
0
0
0
0
0
0
0
0
0
0
0
0
0
0
0
0
0
0
0
0
0
0
0
0
0
0
0
0
0
0
0
0
0
0
0
0
0
0
0
0
0
0
0
0
0
0
0
0
0
0
0
0
0
0
0
0
0
0
0
0
0
0
0
0
0
0
0
0
0
0
0
0
0
0
0
0
0
0
0
0
0
0
0
0
0
0
0
0
0
0
0
0
0
0
0
0
0
0
0
0
0
0
0
0
0
0
0
0
0
0
0
0
0
0
0
0
0
0
0
0
0
0
0
0
0
0
0
0
0
0
0
0
0
0
0
0
0
0
0
0
0
0
0
0
0
0
0
0
0
0
0
0
0
0
0
0
0
0
0
0
0
0
0
0
0
0
0
0
0
0
0
0
0
0
0
0
0
0
0
0
0
0
0
0
0
0
0
0
0
1
1
1
1
1
1
1
1
1
1
1
1
1
1
1
1
1
1
1
1
1
1
1
1
1
1
1
1
1
1
2
2
2
2
2
2
2
2
2
2
2
2
2
2
2
2
2
2
2
2
2
2
2
2
2
2
2
2
2
2
3
3
3
3
3
3
3
3
3
3
3
3
3
3
3
3
3
3
3
3
3
3
3
3
3
3
3
3
3
3
4
4
4
4
4
4
4
4
4
4
4
4
4
4
4
4
4
4
4
4
4
4
4
4
4
4
4
4
4
4

LOOKUP_TABLE FreeFempp_table 5
1.00000000 0.00000000 0.00000000 1.00000000
1.00000000 1.00000000 0.00000000 1.00000000
1.00000000 0.00000000 1.00000000 1.00000000
0.00000000 1.00000000 0.00000000 1.00000000
0.00000000 1.00000000 1.00000000 1.00000000

POINT_DATA 961
FIELD FieldData 1
Density 1 961 float
1.68267086e-01 2.25061908e-01 4.15201306e-01 4.73788500e-01 4.84292120e-01 4.82078075e-01 4.47742045e-01 2.39874393e-01 2.18313634e-02 4.41197772e-03 1.47991730e-02 1.97418317e-01 4.76146847e-01 7.27846205e-01 7.79101789e-01 6.51280344e-01 7.50346661e-01 8.14934552e-01 8.33857656e-01 8.20839405e-01 7.97998190e-01 7.61360407e-01 7.42096305e-01 7.19915628e-01 6.96200728e-01 6.77495182e-01 6.64669812e-01 6.56406105e-01 6.50794804e-01 6.46659315e-01 6.42982364e-01 1.03291767e-02 2.17117257e-02 1.55747727e-01 2.54150331e-01 2.71565765e-01 2.68634617e-01 2.40377098e-01 1.39281735e-01 1.95290092e-02 3.54006817e-03 7.16513069e-03 9.84356180e-02 3.62703264e-01 6.10632658e-01 7.24474132e-01 1.57511711e-01 1.03625156e-01 2.43274778e-01 5.18729687e-01 6.17129266e-01 6.29133940e-01 6.63273811e-01 7.32426047e-01 7.23126292e-01 7.01683700e-01 6.81161642e-01 6.62837565e-01 6.50573313e-01 6.42278433e-01 6.38780117e-01 6.39766037e-01 3.34224524e-03 1.40939374e-03 5.72933163e-03 9.88562871e-03 1.01558147e-02 1.00680171e-02 9.61771049e-03 7.80775351e-03 2.97787413e-03 9.59892757e-04 1.62904721e-03 1.18041597e-02 1.18900120e-01 2.72588432e-01 6.16486192e-01 4.65659112e-01 5.47015481e-02 1.52958352e-02 1.72809698e-02 2.07048394e-02 2.23349128e-02 3.99074815e-02 2.99975038e-01 4.17427897e-01 5.00777304e-01 5.98788857e-01 6.07776999e-01 5.98947883e-01 5.91257751e-01 5.92666030e-01 6.09658480e-01 5.05758151e-02 1.75224002e-02 9.99490544e-03 9.00928583e-03 8.86810385e-03 9.12848115e-03 9.39409249e-03 9.53228865e-03 9.47502349e-03 9.79735609e-03 7.25316955e-03 2.80941371e-03 6.07163319e-03 1.65891610e-02 1.44368351e-01 7.91596293e-01 7.24558890e-01 8.17034841e-02 1.73199493e-02 1.55767743e-02 9.52903181e-03 2.76282057e-03 9.13218409e-03 1.63206011e-02 3.07939835e-02 2.45082915e-01 4.67387170e-01 5.12385428e-01 5.16745210e-01 5.27479172e-01 5.62400401e-01 3.19512576e-01 2.27936432e-01 1.85290277e-01 1.84405819e-01 1.94769740e-01 2.08878323e-01 2.22650662e-01 2.33277202e-01 2.38112673e-01 2.30479121e-01 1.67435378e-01 4.02731523e-02 1.33733284e-02 6.68584043e-03 5.72435884e-03 3.29619646e-02 2.51037300e-01 7.57210135e-01 3.83303046e-01 3.92810374e-01 3.19851875e-01 6.21677339e-02 2.97050178e-02 1.43032745e-02 2.96225981e-03 1.63895376e-02 1.93393648e-01 4.01194185e-01 4.52956468e-01 4.76152956e-01 5.23093760e-01 4.22219396e-01 3.45015705e-01 3.08074564e-01 3.10347944e-01 3.25770795e-01 3.46610963e-01 3.67043793e-01 3.83782029e-01 3.95744562e-01 4.01873976e-01 3.92085820e-01 3.21207881e-01 2.51703352e-01 1.57115996e-01 2.15946566e-02 7.92415161e-03 6.87488774e-03 5.45387305e-02 6.67458534e-01 8.04893970e-01 8.50517273e-01 8.21713984e-01 7.85441220e-01 6.21353745e-01 6.01139441e-02 1.59086101e-02 1.69640370e-02 1.80042788e-01 3.82020831e-01 4.44953859e-01 5.00128090e-01 4.65565711e-01 3.94296229e-01 3.63474250e-01 3.64849925e-01 3.75705242e-01 3.90701592e-01 4.05609816e-01 4.18428719e-01 4.28811401e-01 4.36995476e-01 4.41800922e-01 4.40388352e-01 4.39247847e-01 4.23915446e-01 3.16344619e-01 1.78034112e-01 2.41878852e-02 1.03486618e-02 1.91859268e-02 7.23285899e-02 2.95958072e-01 4.42231297e-01 4.83897954e-01 5.43841660e-01 6.95772350e-01 5.81404865e-01 4.27375883e-02 1.80735271e-02 1.87496185e-01 4.00456578e-01 4.82011795e-01 5.14978349e-01 4.59429324e-01 4.39434558e-01 4.42175567e-01 4.48313594e-01 4.56575394e-01 4.65366811e-01 4.73735601e-01 4.81203288e-01 4.87409085e-01 4.91753310e-01 4.93909657e-01 4.95204985e-01 4.94909108e-01 4.88002509e-01 4.72036779e-01 3.68172020e-01 2.33525708e-01 2.01790966e-02 3.68854823e-03 8.80643260e-03 1.49167599e-02 1.98021121e-02 2.77365763e-02 7.32260868e-02 5.64494848e-01 7.36586869e-01 4.55676503e-02 1.79063417e-02 2.08979398e-01 4.11135823e-01 5.71827233e-01 5.37267208e-01 5.26950359e-01 5.28687954e-01 5.30090749e-01 5.32410264e-01 5.35614669e-01 5.39324939e-01 5.42911887e-01 5.45679390e-01 5.47125161e-01 5.47305763e-01 5.46949327e-01 5.46527147e-01 5.46109915e-01 5.45451403e-01 5.38402438e-01 5.20898283e-01 2.96780527e-01 2.50028446e-02 7.35226553e-03 2.99042580e-03 2.94834352e-03 4.62494511e-03 1.00595048e-02 5.97876608e-02 7.30663478e-01 7.00610697e-01 2.01031640e-02 1.70243327e-02 1.33401111e-01 6.25830293e-01 6.13580465e-01 6.10443950e-01 6.09448075e-01 6.06671989e-01 6.04174852e-01 6.02399230e-01 6.01336837e-01 6.00501776e-01 5.99286199e-01 5.97386956e-01 5.95026016e-01 5.92778563e-01 5.91138482e-01 5.90573609e-01 5.91639042e-01 5.94102919e-01 5.96780300e-01 5.79385042e-01 4.15508628e-01 1.59005791e-01 3.47234197e-02 1.50256352e-02 9.87410545e-03 9.86032467e-03 1.58919394e-02 1.36361033e-01 8.60386670e-01 1.05420046e-01 3.88587988e-03 5.66151273e-03 6.62234366e-01 6.67619467e-01 6.68832660e-01 6.65360451e-01 6.59974217e-01 6.54346585e-01 6.49020195e-01 6.44318342e-01 6.40010178e-01 6.35667026e-01 6.31130874e-01 6.26677573e-01 6.22813523e-01 6.20011210e-01 6.18772507e-01 6.19772136e-01 6.23933077e-01 6.32807493e-01 6.48549795e-01 6.64635003e-01 6.33251309e-01 4.71676409e-01 2.67930865e-01 1.19681969e-01 6.28259853e-02 3.38709913e-02 5.51373437e-02 7.90248394e-01 6.66605890e-01 1.48152485e-02 2.03441689e-03 6.70441926e-01 6.85244083e-01 6.89070702e-01 6.84567869e-01 6.78450108e-01 6.71804011e-01 6.65276766e-01 6.59340620e-01 6.53761864e-01 6.48092031e-01 6.42203093e-01 6.36394560e-01 6.31157756e-01 6.26948118e-01 6.24191880e-01 6.23376310e-01 6.25235379e-01 6.31233871e-01 6.44234538e-01 6.69000328e-01 7.02956200e-01 7.19439030e-01 6.84748471e-01 5.77686906e-01 3.93231273e-01 1.67782351e-01 1.43260807e-01 7.09832191e-01 8.46910954e-01 2.77905557e-02 1.66200055e-03 6.46739125e-01 6.61206543e-01 6.66863680e-01 6.63166165e-01 6.58229172e-01 6.53293490e-01 6.49101615e-01 6.45601630e-01 6.41887486e-01 6.37218356e-01 6.31537974e-01 6.25328779e-01 6.19220495e-01 6.13727927e-01 6.09216928e-01 6.05966389e-01 6.04316711e-01 6.04983389e-01 6.09366417e-01 6.19957328e-01 6.39717519e-01 6.66189373e-01 6.86029494e-01 6.82925701e-01 6.41593337e-01 5.30308843e-01 5.27425885e-01 8.37105215e-01 8.54968786e-01 2.93175764e-02 1.01285661e-03 5.93210995e-01 5.94673395e-01 6.00326538e-01 6.00522518e-01 6.00155950e-01 6.01422012e-01 6.05000138e-01 6.09029591e-01 6.10965729e-01 6.09732985e-01 6.05757713e-01 6.00112855e-01 5.93838930e-01 5.87669849e-01 5.82029939e-01 5.77117264e-01 5.73029935e-01 5.69949925e-01 5.68285704e-01 5.68672895e-01 5.71851611e-01 5.77963531e-01 5.85747659e-01 5.90519369e-01 5.87482750e-01 5.88128090e-01 6.87779546e-01 8.77292156e-01 8.34244132e-01 2.74210498e-02 9.83399455e-04 5.17765760e-01 4.92415249e-01 4.92135316e-01 5.01140714e-01 5.12805402e-01 5.27473927e-01 5.45247138e-01 5.61721683e-01 5.72239518e-01 5.75897098e-01 5.74344695e-01 5.69718182e-01 5.63695550e-01 5.57355583e-01 5.51310480e-01 5.45856237e-01 5.41099668e-01 5.37079275e-01 5.33835769e-01 5.31340480e-01 5.29298306e-01 5.27155638e-01 5.25136590e-01 5.25640011e-01 5.37944913e-01 5.91096640e-01 7.32247472e-01 8.75343800e-01 7.79409468e-01 2.50535104e-02 1.16459513e-03 4.30592299e-01 3.74577314e-01 3.63429725e-01 3.82657975e-01 4.14319098e-01 4.50922012e-01 4.87715542e-01 5.18413424e-01 5.37516534e-01 5.45485914e-01 5.45860410e-01 5.41978776e-01 5.36100507e-01 5.29606283e-01 5.23335516e-01 5.17809331e-01 5.13350308e-01 5.10146499e-01 5.08261800e-01 5.07552028e-01 5.07546663e-01 5.07788777e-01 5.09618521e-01 5.19511342e-01 5.53730428e-01 6.38983130e-01 7.76048541e-01 8.64704370e-01 6.86137438e-01 2.21681353e-02 1.39115599e-03 3.37561071e-01 2.63372719e-01 2.45480254e-01 2.73304462e-01 3.25437725e-01 3.89052361e-01 4.46841508e-01 4.89527643e-01 5.14005899e-01 5.23975849e-01 5.25052726e-01 5.21363735e-01 5.15365183e-01 5.08526683e-01 5.01848578e-01 4.96113449e-01 4.91966128e-01 4.89897370e-01 4.90177006e-01 4.92776781e-01 4.97419417e-01 5.04307508e-01 5.16487539e-01 5.43385923e-01 6.01300836e-01 7.00077474e-01 8.08329761e-01 8.37511778e-01 5.33667624e-01 1.86728816e-02 1.65860087e-03 2.45285302e-01 1.70194060e-01 1.53214306e-01 1.87707841e-01 2.58442700e-01 3.50194931e-01 4.27869856e-01 4.77421284e-01 5.02554595e-01 5.11920273e-01 5.12671173e-01 5.08937120e-01 5.02880156e-01 4.95804220e-01 4.88742590e-01 4.82679993e-01 4.78569120e-01 4.77228492e-01 4.79210943e-01 4.84778106e-01 4.94191676e-01 5.08908570e-01 5.34320116e-01 5.81317961e-01 6.58842564e-01 7.54178941e-01 8.21525455e-01 7.68723726e-01 3.03497672e-01 1.42003242e-02 1.97580270e-03 1.66132152e-01 1.04739986e-01 9.41002667e-02 1.31627873e-01 2.18136773e-01 3.36356282e-01 4.28209394e-01 4.77959752e-01 4.99786764e-01 5.07020116e-01 5.07157624e-01 5.03641605e-01 4.98041123e-01 4.91332322e-01 4.84442651e-01 4.78407115e-01 4.74319369e-01 4.73187715e-01 4.75847483e-01 4.83124048e-01 4.96400923e-01 5.19202113e-01 5.59662461e-01 6.26926899e-01 7.14790046e-01 7.91419208e-01 8.04720938e-01 6.12091184e-01 1.07741095e-01 9.24070273e-03 2.49844207e-03 1.04995906e-01 6.43770993e-02 6.11561760e-02 1.01847701e-01 2.05624625e-01 3.45913529e-01 4.41094458e-01 4.84646648e-01 5.01318097e-01 5.06330431e-01 5.06242812e-01 5.03539026e-01 4.99184638e-01 4.93798494e-01 4.88094777e-01 4.82961029e-01 4.79345679e-01 4.78142977e-01 4.80371296e-01 4.87820655e-01 5.03909051e-01 5.35327017e-01 5.92602551e-01 6.77167714e-01 7.62002409e-01 8.03908587e-01 7.32380033e-01 3.54460239e-01 4.27998267e-02 6.97745662e-03 3.84478923e-03 6.20485358e-02 3.98238301e-02 4.30390313e-02 9.04050320e-02 2.19377369e-01 3.73750567e-01 4.59522486e-01 4.92412537e-01 5.03774047e-01 5.07267118e-01 5.07661581e-01 5.06488025e-01 5.04223585e-01 5.01177251e-01 4.97800976e-01 4.94678408e-01 4.92347360e-01 4.91274297e-01 4.92529094e-01 4.99316543e-01 5.18226743e-01 5.60279727e-01 6.36331558e-01 7.30541706e-01 7.93685913e-01 7.72412300e-01 5.47484636e-01 1.25920042e-01 2.02645622e-02 7.45125255e-03 6.69602351e-03 3.57047357e-02 2.55512241e-02 3.33175287e-02 9.27162617e-02 2.56413907e-01 4.11649078e-01 4.77955997e-01 4.98459697e-01 5.05049169e-01 5.07799864e-01 5.09412110e-01 5.10475218e-01 5.11028647e-01 5.11115313e-01 5.10928154e-01 5.10701358e-01 5.10507345e-01 5.10408282e-01 5.11727214e-01 5.19620776e-01 5.45034945e-01 6.03250980e-01 6.97060943e-01 7.80525386e-01 7.86476314e-01 6.35400653e-01 2.41969675e-01 4.44121026e-02 1.26306806e-02 1.02406507e-02 1.35295084e-02 2.08691042e-02 1.76985040e-02 2.94691250e-02 1.10057160e-01 3.11583191e-01 4.50419962e-01 4.92293447e-01 5.01103997e-01 5.03798068e-01 5.06488323e-01 5.09940922e-01 5.13794601e-01 5.17618179e-01 5.21185637e-01 5.24464548e-01 5.27460396e-01 5.30136287e-01 5.32938302e-01 5.38659811e-01 5.55437207e-01 5.97277641e-01 6.75515234e-01 7.65879214e-01 7.88535297e-01 6.64308727e-01 2.96897054e-01 6.75205514e-02 2.05196179e-02 1.27156712e-02 1.87689774e-02 3.49404849e-02 1.25984736e-02 1.32371495e-02 3.05600427e-02 1.48680210e-01 3.76312852e-01 4.82154250e-01 4.99780208e-01 4.99106884e-01 4.99160737e-01 5.02474368e-01 5.08197367e-01 5.15104651e-01 5.22284806e-01 5.29231966e-01 5.35777330e-01 5.42050719e-01 5.48744202e-01 5.58145583e-01 5.76169014e-01 6.13578200e-01 6.79149508e-01 7.57727206e-01 7.89307952e-01 6.81101799e-01 2.98407704e-01 7.71863982e-02 2.75218785e-02 1.79710984e-02 2.28498392e-02 4.87757139e-02 1.07831113e-01 7.85581116e-03 1.05559574e-02 3.70778292e-02 2.13104993e-01 4.38258201e-01 5.01447022e-01 4.98979419e-01 4.91865844e-01 4.90823776e-01 4.95408416e-01 5.03553569e-01 5.13430715e-01 5.23772001e-01 5.33845723e-01 5.43473005e-01 5.53284585e-01 5.65400302e-01 5.84585011e-01 6.18968010e-01 6.76338911e-01 7.49703825e-01 7.99693644e-01 7.44403064e-01 3.86656642e-01 1.18883580e-01 4.79526035e-02 3.33387367e-02 4.26648818e-02 8.04019719e-02 1.77367941e-01 3.03459167e-01 5.17611019e-03 9.46239941e-03 5.32460213e-02 2.97016710e-01 4.85209823e-01 5.06012857e-01 4.89800632e-01 4.79729682e-01 4.79151845e-01 4.85386133e-01 4.95703191e-01 5.08121669e-01 5.21307588e-01 5.34432948e-01 5.47314525e-01 5.60973346e-01 5.78550160e-01 6.05958700e-01 6.50270700e-01 7.12226629e-01 7.74242580e-01 7.97532499e-01 7.09134579e-01 4.07190770e-01 1.64108247e-01 1.10789441e-01 1.38446853e-01 2.50651628e-01 4.19773281e-01 5.21291316e-01 5.63100815e-01 3.76488897e-03 1.03290752e-02 9.16261822e-02 3.86001915e-01 5.09880364e-01 4.96453822e-01 4.73781228e-01 4.64247286e-01 4.65263784e-01 4.72916812e-01 4.84583616e-01 4.98715788e-01 5.14316618e-01 5.30641317e-01 5.47334909e-01 5.65080404e-01 5.86527467e-01 6.16536915e-01 6.59648955e-01 7.13181913e-01 7.60731518e-01 7.74934530e-01 7.18119383e-01 5.74584424e-01 4.97661382e-01 5.52131832e-01 6.51045144e-01 7.11309195e-01 7.33046532e-01 7.25147784e-01 6.98305249e-01 3.08943656e-03 1.25918258e-02 1.70854315e-01 4.59674567e-01 5.10007143e-01 4.76592481e-01 4.54837710e-01 4.48348165e-01 4.50916559e-01 4.58746761e-01 4.70164597e-01 4.84596282e-01 5.01775503e-01 5.21297216e-01 5.42578936e-01 5.65286160e-01 5.90095818e-01 6.19127631e-01 6.54620945e-01 6.94965720e-01 7.31105030e-01 7.49016821e-01 7.39128053e-01 7.18594432e-01 7.36638486e-01 7.72692740e-01 7.84697354e-01 7.72420585e-01 7.47664392e-01 7.25232244e-01 7.02959836e-01 2.55439407e-03 1.44829731e-02 2.61845797e-01 4.96222377e-01 4.91233349e-01 4.55051214e-01 4.38989997e-01 4.35126722e-01 4.37068969e-01 4.42545444e-01 4.51388389e-01 4.64236319e-01 4.81778890e-01 5.04292071e-01 5.31359971e-01 5.61834276e-01 5.94143689e-01 6.26886785e-01 6.59163773e-01 6.89854681e-01 7.16120422e-01 7.33253360e-01 7.38293946e-01 7.37801790e-01 7.41527438e-01 7.37371385e-01 7.15714514e-01 6.85095131e-01 6.58881605e-01 6.51697338e-01 6.53422058e-01 2.56970664e-03 1.71135031e-02 3.52486789e-01 5.23027241e-01 4.90781486e-01 4.61614162e-01 4.49688137e-01 4.44470704e-01 4.42153037e-01 4.42454696e-01 4.46430385e-01 4.55523729e-01 4.71104562e-01 4.94137913e-01 5.24812460e-01 5.62102914e-01 6.03444695e-01 6.44894302e-01 6.81997240e-01 7.10952580e-01 7.29272127e-01 7.35718071e-01 7.30363607e-01 7.15591967e-01 6.94378674e-01 6.66539073e-01 6.35276318e-01 6.07441664e-01 5.88150561e-01 5.88199735e-01 6.05284035e-01 5.04738977e-03 1.82658955e-02 4.60514963e-01 5.94986558e-01 5.37793279e-01 5.14025390e-01 5.03828108e-01 4.97168630e-01 4.92323577e-01 4.89674628e-01 4.90313262e-01 4.95529056e-01 5.06512821e-01 5.24116576e-01 5.48588872e-01 5.79256117e-01 6.14209235e-01 6.50197804e-01 6.82982862e-01 7.08177149e-01 7.22231269e-01 7.23245025e-01 7.11770535e-01 6.91338837e-01 6.66503072e-01 6.39999986e-01 6.14081085e-01 5.91217279e-01 5.75331211e-01 5.74394405e-01 5.89693069e-01 
