# vtk DataFile Version 2.0
results/5_density.vtk, Created by Freefem++ 
ASCII
DATASET UNSTRUCTURED_GRID
POINTS 961 float
0 0 0
0.033333333 0 0
0.066666667 0 0
0.1 0 0
0.13333333 0 0
0.16666667 0 0
0.2 0 0
0.23333333 0 0
0.26666667 0 0
0.3 0 0
0.33333333 0 0
0.36666667 0 0
0.4 0 0
0.43333333 0 0
0.46666667 0 0
0.5 0 0
0.53333333 0 0
0.56666667 0 0
0.6 0 0
0.63333333 0 0
0.66666667 0 0
0.7 0 0
0.73333333 0 0
0.76666667 0 0
0.8 0 0
0.83333333 0 0
0.86666667 0 0
0.9 0 0
0.93333333 0 0
0.96666667 0 0
1 0 0
0 0.033333333 0
0.033333333 0.033333333 0
0.066666667 0.033333333 0
0.1 0.033333333 0
0.13333333 0.033333333 0
0.16666667 0.033333333 0
0.2 0.033333333 0
0.23333333 0.033333333 0
0.26666667 0.033333333 0
0.3 0.033333333 0
0.33333333 0.033333333 0
0.36666667 0.033333333 0
0.4 0.033333333 0
0.43333333 0.033333333 0
0.46666667 0.033333333 0
0.5 0.033333333 0
0.53333333 0.033333333 0
0.56666667 0.033333333 0
0.6 0.033333333 0
0.63333333 0.033333333 0
0.66666667 0.033333333 0
0.7 0.033333333 0
0.73333333 0.033333333 0
0.76666667 0.033333333 0
0.8 0.033333333 0
0.83333333 0.033333333 0
0.86666667 0.033333333 0
0.9 0.033333333 0
0.93333333 0.033333333 0
0.96666667 0.033333333 0
1 0.033333333 0
0 0.066666667 0
0.033333333 0.066666667 0
0.066666667 0.066666667 0
0.1 0.066666667 0
0.13333333 0.066666667 0
0.16666667 0.066666667 0
0.2 0.066666667 0
0.23333333 0.066666667 0
0.26666667 0.066666667 0
0.3 0.066666667 0
0.33333333 0.066666667 0
0.36666667 0.066666667 0
0.4 0.066666667 0
0.43333333 0.066666667 0
0.46666667 0.066666667 0
0.5 0.066666667 0
0.53333333 0.066666667 0
0.56666667 0.066666667 0
0.6 0.066666667 0
0.63333333 0.066666667 0
0.66666667 0.066666667 0
0.7 0.066666667 0
0.73333333 0.066666667 0
0.76666667 0.066666667 0
0.8 0.066666667 0
0.83333333 0.066666667 0
0.86666667 0.066666667 0
0.9 0.066666667 0
0.93333333 0.066666667 0
0.96666667 0.066666667 0
1 0.066666667 0
0 0.1 0
0.033333333 0.1 0
0.066666667 0.1 0
0.1 0.1 0
0.13333333 0.1 0
0.16666667 0.1 0
0.2 0.1 0
0.23333333 0.1 0
0.26666667 0.1 0
0.3 0.1 0
0.33333333 0.1 0
0.36666667 0.1 0
0.4 0.1 0
0.43333333 0.1 0
0.46666667 0.1 0
0.5 0.1 0
0.53333333 0.1 0
0.56666667 0.1 0
0.6 0.1 0
0.63333333 0.1 0
0.66666667 0.1 0
0.7 0.1 0
0.73333333 0.1 0
0.76666667 0.1 0
0.8 0.1 0
0.83333333 0.1 0
0.86666667 0.1 0
0.9 0.1 0
0.93333333 0.1 0
0.96666667 0.1 0
1 0.1 0
0 0.13333333 0
0.033333333 0.13333333 0
0.066666667 0.13333333 0
0.1 0.13333333 0
0.13333333 0.13333333 0
0.16666667 0.13333333 0
0.2 0.13333333 0
0.23333333 0.13333333 0
0.26666667 0.13333333 0
0.3 0.13333333 0
0.33333333 0.13333333 0
0.36666667 0.13333333 0
0.4 0.13333333 0
0.43333333 0.13333333 0
0.46666667 0.13333333 0
0.5 0.13333333 0
0.53333333 0.13333333 0
0.56666667 0.13333333 0
0.6 0.13333333 0
0.63333333 0.13333333 0
0.66666667 0.13333333 0
0.7 0.13333333 0
0.73333333 0.13333333 0
0.76666667 0.13333333 0
0.8 0.13333333 0
0.83333333 0.13333333 0
0.86666667 0.13333333 0
0.9 0.13333333 0
0.93333333 0.13333333 0
0.96666667 0.13333333 0
1 0.13333333 0
0 0.16666667 0
0.033333333 0.16666667 0
0.066666667 0.16666667 0
0.1 0.16666667 0
0.13333333 0.16666667 0
0.16666667 0.16666667 0
0.2 0.16666667 0
0.23333333 0.16666667 0
0.26666667 0.16666667 0
0.3 0.16666667 0
0.33333333 0.16666667 0
0.36666667 0.16666667 0
0.4 0.16666667 0
0.43333333 0.16666667 0
0.46666667 0.16666667 0
0.5 0.16666667 0
0.53333333 0.16666667 0
0.56666667 0.16666667 0
0.6 0.16666667 0
0.63333333 0.16666667 0
0.66666667 0.16666667 0
0.7 0.16666667 0
0.73333333 0.16666667 0
0.76666667 0.16666667 0
0.8 0.16666667 0
0.83333333 0.16666667 0
0.86666667 0.16666667 0
0.9 0.16666667 0
0.93333333 0.16666667 0
0.96666667 0.16666667 0
1 0.16666667 0
0 0.2 0
0.033333333 0.2 0
0.066666667 0.2 0
0.1 0.2 0
0.13333333 0.2 0
0.16666667 0.2 0
0.2 0.2 0
0.23333333 0.2 0
0.26666667 0.2 0
0.3 0.2 0
0.33333333 0.2 0
0.36666667 0.2 0
0.4 0.2 0
0.43333333 0.2 0
0.46666667 0.2 0
0.5 0.2 0
0.53333333 0.2 0
0.56666667 0.2 0
0.6 0.2 0
0.63333333 0.2 0
0.66666667 0.2 0
0.7 0.2 0
0.73333333 0.2 0
0.76666667 0.2 0
0.8 0.2 0
0.83333333 0.2 0
0.86666667 0.2 0
0.9 0.2 0
0.93333333 0.2 0
0.96666667 0.2 0
1 0.2 0
0 0.23333333 0
0.033333333 0.23333333 0
0.066666667 0.23333333 0
0.1 0.23333333 0
0.13333333 0.23333333 0
0.16666667 0.23333333 0
0.2 0.23333333 0
0.23333333 0.23333333 0
0.26666667 0.23333333 0
0.3 0.23333333 0
0.33333333 0.23333333 0
0.36666667 0.23333333 0
0.4 0.23333333 0
0.43333333 0.23333333 0
0.46666667 0.23333333 0
0.5 0.23333333 0
0.53333333 0.23333333 0
0.56666667 0.23333333 0
0.6 0.23333333 0
0.63333333 0.23333333 0
0.66666667 0.23333333 0
0.7 0.23333333 0
0.73333333 0.23333333 0
0.76666667 0.23333333 0
0.8 0.23333333 0
0.83333333 0.23333333 0
0.86666667 0.23333333 0
0.9 0.23333333 0
0.93333333 0.23333333 0
0.96666667 0.23333333 0
1 0.23333333 0
0 0.26666667 0
0.033333333 0.26666667 0
0.066666667 0.26666667 0
0.1 0.26666667 0
0.13333333 0.26666667 0
0.16666667 0.26666667 0
0.2 0.26666667 0
0.23333333 0.26666667 0
0.26666667 0.26666667 0
0.3 0.26666667 0
0.33333333 0.26666667 0
0.36666667 0.26666667 0
0.4 0.26666667 0
0.43333333 0.26666667 0
0.46666667 0.26666667 0
0.5 0.26666667 0
0.53333333 0.26666667 0
0.56666667 0.26666667 0
0.6 0.26666667 0
0.63333333 0.26666667 0
0.66666667 0.26666667 0
0.7 0.26666667 0
0.73333333 0.26666667 0
0.76666667 0.26666667 0
0.8 0.26666667 0
0.83333333 0.26666667 0
0.86666667 0.26666667 0
0.9 0.26666667 0
0.93333333 0.26666667 0
0.96666667 0.26666667 0
1 0.26666667 0
0 0.3 0
0.033333333 0.3 0
0.066666667 0.3 0
0.1 0.3 0
0.13333333 0.3 0
0.16666667 0.3 0
0.2 0.3 0
0.23333333 0.3 0
0.26666667 0.3 0
0.3 0.3 0
0.33333333 0.3 0
0.36666667 0.3 0
0.4 0.3 0
0.43333333 0.3 0
0.46666667 0.3 0
0.5 0.3 0
0.53333333 0.3 0
0.56666667 0.3 0
0.6 0.3 0
0.63333333 0.3 0
0.66666667 0.3 0
0.7 0.3 0
0.73333333 0.3 0
0.76666667 0.3 0
0.8 0.3 0
0.83333333 0.3 0
0.86666667 0.3 0
0.9 0.3 0
0.93333333 0.3 0
0.96666667 0.3 0
1 0.3 0
0 0.33333333 0
0.033333333 0.33333333 0
0.066666667 0.33333333 0
0.1 0.33333333 0
0.13333333 0.33333333 0
0.16666667 0.33333333 0
0.2 0.33333333 0
0.23333333 0.33333333 0
0.26666667 0.33333333 0
0.3 0.33333333 0
0.33333333 0.33333333 0
0.36666667 0.33333333 0
0.4 0.33333333 0
0.43333333 0.33333333 0
0.46666667 0.33333333 0
0.5 0.33333333 0
0.53333333 0.33333333 0
0.56666667 0.33333333 0
0.6 0.33333333 0
0.63333333 0.33333333 0
0.66666667 0.33333333 0
0.7 0.33333333 0
0.73333333 0.33333333 0
0.76666667 0.33333333 0
0.8 0.33333333 0
0.83333333 0.33333333 0
0.86666667 0.33333333 0
0.9 0.33333333 0
0.93333333 0.33333333 0
0.96666667 0.33333333 0
1 0.33333333 0
0 0.36666667 0
0.033333333 0.36666667 0
0.066666667 0.36666667 0
0.1 0.36666667 0
0.13333333 0.36666667 0
0.16666667 0.36666667 0
0.2 0.36666667 0
0.23333333 0.36666667 0
0.26666667 0.36666667 0
0.3 0.36666667 0
0.33333333 0.36666667 0
0.36666667 0.36666667 0
0.4 0.36666667 0
0.43333333 0.36666667 0
0.46666667 0.36666667 0
0.5 0.36666667 0
0.53333333 0.36666667 0
0.56666667 0.36666667 0
0.6 0.36666667 0
0.63333333 0.36666667 0
0.66666667 0.36666667 0
0.7 0.36666667 0
0.73333333 0.36666667 0
0.76666667 0.36666667 0
0.8 0.36666667 0
0.83333333 0.36666667 0
0.86666667 0.36666667 0
0.9 0.36666667 0
0.93333333 0.36666667 0
0.96666667 0.36666667 0
1 0.36666667 0
0 0.4 0
0.033333333 0.4 0
0.066666667 0.4 0
0.1 0.4 0
0.13333333 0.4 0
0.16666667 0.4 0
0.2 0.4 0
0.23333333 0.4 0
0.26666667 0.4 0
0.3 0.4 0
0.33333333 0.4 0
0.36666667 0.4 0
0.4 0.4 0
0.43333333 0.4 0
0.46666667 0.4 0
0.5 0.4 0
0.53333333 0.4 0
0.56666667 0.4 0
0.6 0.4 0
0.63333333 0.4 0
0.66666667 0.4 0
0.7 0.4 0
0.73333333 0.4 0
0.76666667 0.4 0
0.8 0.4 0
0.83333333 0.4 0
0.86666667 0.4 0
0.9 0.4 0
0.93333333 0.4 0
0.96666667 0.4 0
1 0.4 0
0 0.43333333 0
0.033333333 0.43333333 0
0.066666667 0.43333333 0
0.1 0.43333333 0
0.13333333 0.43333333 0
0.16666667 0.43333333 0
0.2 0.43333333 0
0.23333333 0.43333333 0
0.26666667 0.43333333 0
0.3 0.43333333 0
0.33333333 0.43333333 0
0.36666667 0.43333333 0
0.4 0.43333333 0
0.43333333 0.43333333 0
0.46666667 0.43333333 0
0.5 0.43333333 0
0.53333333 0.43333333 0
0.56666667 0.43333333 0
0.6 0.43333333 0
0.63333333 0.43333333 0
0.66666667 0.43333333 0
0.7 0.43333333 0
0.73333333 0.43333333 0
0.76666667 0.43333333 0
0.8 0.43333333 0
0.83333333 0.43333333 0
0.86666667 0.43333333 0
0.9 0.43333333 0
0.93333333 0.43333333 0
0.96666667 0.43333333 0
1 0.43333333 0
0 0.46666667 0
0.033333333 0.46666667 0
0.066666667 0.46666667 0
0.1 0.46666667 0
0.13333333 0.46666667 0
0.16666667 0.46666667 0
0.2 0.46666667 0
0.23333333 0.46666667 0
0.26666667 0.46666667 0
0.3 0.46666667 0
0.33333333 0.46666667 0
0.36666667 0.46666667 0
0.4 0.46666667 0
0.43333333 0.46666667 0
0.46666667 0.46666667 0
0.5 0.46666667 0
0.53333333 0.46666667 0
0.56666667 0.46666667 0
0.6 0.46666667 0
0.63333333 0.46666667 0
0.66666667 0.46666667 0
0.7 0.46666667 0
0.73333333 0.46666667 0
0.76666667 0.46666667 0
0.8 0.46666667 0
0.83333333 0.46666667 0
0.86666667 0.46666667 0
0.9 0.46666667 0
0.93333333 0.46666667 0
0.96666667 0.46666667 0
1 0.46666667 0
0 0.5 0
0.033333333 0.5 0
0.066666667 0.5 0
0.1 0.5 0
0.13333333 0.5 0
0.16666667 0.5 0
0.2 0.5 0
0.23333333 0.5 0
0.26666667 0.5 0
0.3 0.5 0
0.33333333 0.5 0
0.36666667 0.5 0
0.4 0.5 0
0.43333333 0.5 0
0.46666667 0.5 0
0.5 0.5 0
0.53333333 0.5 0
0.56666667 0.5 0
0.6 0.5 0
0.63333333 0.5 0
0.66666667 0.5 0
0.7 0.5 0
0.73333333 0.5 0
0.76666667 0.5 0
0.8 0.5 0
0.83333333 0.5 0
0.86666667 0.5 0
0.9 0.5 0
0.93333333 0.5 0
0.96666667 0.5 0
1 0.5 0
0 0.53333333 0
0.033333333 0.53333333 0
0.066666667 0.53333333 0
0.1 0.53333333 0
0.13333333 0.53333333 0
0.16666667 0.53333333 0
0.2 0.53333333 0
0.23333333 0.53333333 0
0.26666667 0.53333333 0
0.3 0.53333333 0
0.33333333 0.53333333 0
0.36666667 0.53333333 0
0.4 0.53333333 0
0.43333333 0.53333333 0
0.46666667 0.53333333 0
0.5 0.53333333 0
0.53333333 0.53333333 0
0.56666667 0.53333333 0
0.6 0.53333333 0
0.63333333 0.53333333 0
0.66666667 0.53333333 0
0.7 0.53333333 0
0.73333333 0.53333333 0
0.76666667 0.53333333 0
0.8 0.53333333 0
[...]
CELL_DATA 1920
Scalars  Label int 1
LOOKUP_TABLE FreeFempp_table
0
0
0
0
0
0
0
0
0
0
0
0
0
0
0
0
0
0
0
0
0
0
0
0
0
0
0
0
0
0
0
0
0
0
0
0
0
0
0
0
0
0
0
0
0
0
0
0
0
0
0
0
0
0
0
0
0
0
0
0
0
0
0
0
0
0
0
0
0
0
0
0
0
0
0
0
0
0
0
0
0
0
0
0
0
0
0
0
0
0
0
0
0
0
0
0
0
0
0
0
0
0
0
0
0
0
0
0
0
0
0
0
0
0
0
0
0
0
0
0
0
0
0
0
0
0
0
0
0
0
0
0
0
0
0
0
0
0
0
0
0
0
0
0
0
0
0
0
0
0
0
0
0
0
0
0
0
0
0
0
0
0
0
0
0
0
0
0
0
0
0
0
0
0
0
0
0
0
0
0
0
0
0
0
0
0
0
0
0
0
0
0
0
0
0
0
0
0
0
0
0
0
0
0
0
0
0
0
0
0
0
0
0
0
0
0
0
0
0
0
0
0
0
0
0
0
0
0
0
0
0
0
0
0
0
0
0
0
0
0
0
0
0
0
0
0
0
0
0
0
0
0
0
0
0
0
0
0
0
0
0
0
0
0
0
0
0
0
0
0
0
0
0
0
0
0
0
0
0
0
0
0
0
0
0
0
0
0
0
0
0
0
0
0
0
0
0
0
0
0
0
0
0
0
0
0
0
0
0
0
0
0
0
0
0
0
0
0
0
0
0
0
0
0
0
0
0
0
0
0
0
0
0
0
0
0
0
0
0
0
0
0
0
0
0
0
0
0
0
0
0
0
0
0
0
0
0
0
0
0
0
0
0
0
0
0
0
0
0
0
0
0
0
0
0
0
0
0
0
0
0
0
0
0
0
0
0
0
0
0
0
0
0
0
0
0
0
0
0
0
0
0
0
0
0
0
0
0
0
0
0
0
0
0
0
0
0
0
0
0
0
0
0
0
0
0
0
0
0
0
0
0
0
0
0
0
0
0
0
0
0
0
0
0
0
0
0
0
0
0
0
0
0
0
0
0
0
0
0
0
0
0
0
0
0
0
0
0
0
0
0
0
0
0
0
0
0
0
0
0
0
0
0
0
0
0
0
0
0
0
0
0
0
0
0
0
0
0
0
0
0
0
0
0
0
0
0
0
0
0
0
0
0
0
0
0
0
0
0
0
0
0
0
0
0
0
0
0
0
0
0
0
0
0
0
0
0
0
0
0
0
0
0
0
0
0
0
0
0
0
0
0
0
0
0
0
0
0
0
0
0
0
0
0
0
0
0
0
0
0
0
0
0
0
0
0
0
0
0
0
0
0
0
0
0
0
0
0
0
0
0
0
0
0
0
0
0
0
0
0
0
0
0
0
0
0
0
0
0
0
0
0
0
0
0
0
0
0
0
0
0
0
0
0
0
0
0
0
0
0
0
0
0
0
0
0
0
0
0
0
0
0
0
0
0
0
0
0
0
0
0
0
0
0
0
0
0
0
0
0
0
0
0
0
0
0
0
0
0
0
0
0
0
0
0
0
0
0
0
0
0
0
0
0
0
0
0
0
0
0
0
0
0
0
0
0
0
0
0
0
0
0
0
0
0
0
0
0
0
0
0
0
0
0
0
0
0
0
0
0
0
0
0
0
0
0
0
0
0
0
0
0
0
0
0
0
0
0
0
0
0
0
0
0
0
0
0
0
0
0
0
0
0
0
0
0
0
0
0
0
0
0
0
0
0
0
0
0
0
0
0
0
0
0
0
0
0
0
0
0
0
0
0
0
0
0
0
0
0
0
0
0
0
0
0
0
0
0
0
0
0
0
0
0
0
0
0
0
0
0
0
0
0
0
0
0
0
0
0
0
0
0
0
0
0
0
0
0
0
0
0
0
0
0
0
0
0
0
0
0
0
0
0
0
0
0
0
0
0
0
0
0
0
0
0
0
0
0
0
0
0
0
0
0
0
0
0
0
0
0
0
0
0
0
0
0
0
0
0
0
0
0
0
0
0
0
0
0
0
0
0
0
0
0
0
0
0
0
0
0
0
0
0
0
0
0
0
0
0
0
0
0
0
0
0
0
0
0
0
0
0
0
0
0
0
0
0
0
0
0
0
0
0
0
0
0
0
0
0
0
0
0
0
0
0
0
0
0
0
0
0
0
0
0
0
0
0
0
0
0
0
0
0
0
0
0
0
0
0
0
0
0
0
0
0
0
0
0
0
0
0
0
0
0
0
0
0
0
0
0
0
0
0
0
0
0
0
0
0
0
0
0
0
0
0
0
0
0
0
0
0
0
0
0
0
0
0
0
0
0
0
0
0
0
0
0
0
0
0
0
0
0
0
0
0
0
0
0
0
0
0
0
0
0
0
0
0
0
0
0
0
0
0
0
0
0
0
0
0
0
0
0
0
0
0
0
0
0
0
0
0
0
0
0
0
0
0
0
0
0
0
0
0
0
0
0
0
0
0
0
0
0
0
0
0
0
0
0
0
0
0
0
0
0
0
0
0
0
0
0
0
0
0
0
0
0
0
0
0
0
0
0
0
0
0
0
0
0
0
0
0
0
0
0
0
0
0
0
0
0
0
0
0
0
0
0
0
0
0
0
0
0
0
0
0
0
0
0
0
0
0
0
0
0
0
0
0
0
0
0
0
0
0
0
0
0
0
0
0
0
0
0
0
0
0
0
0
0
0
0
0
0
0
0
0
0
0
0
0
0
0
0
0
0
0
0
0
0
0
0
0
0
0
0
0
0
0
0
0
0
0
0
0
0
0
0
0
0
0
0
0
0
0
0
0
0
0
0
0
0
0
0
0
0
0
0
0
0
0
0
0
0
0
0
0
0
0
0
0
0
0
0
0
0
0
0
0
0
0
0
0
0
0
0
0
0
0
0
0
0
0
0
0
0
0
0
0
0
0
0
0
0
0
0
0
0
0
0
0
0
0
0
0
0
0
0
0
0
0
0
0
0
0
0
0
0
0
0
0
0
0
0
0
0
0
0
0
0
0
0
0
0
0
0
0
0
0
0
0
0
0
0
0
0
0
0
0
0
0
0
0
0
0
0
0
0
0
0
0
0
0
0
0
0
0
0
0
0
0
0
0
0
0
0
0
0
0
0
0
0
0
0
0
0
0
0
0
0
0
0
0
0
0
0
0
0
0
0
0
0
0
0
0
0
0
0
0
0
0
0
0
0
0
0
0
0
0
0
0
0
0
0
0
0
0
0
0
0
0
0
0
0
0
0
0
0
0
0
0
0
0
0
0
0
0
0
0
0
0
0
0
0
0
0
0
0
0
0
0
0
0
0
0
0
0
0
0
0
0
0
0
0
0
0
0
0
0
0
0
0
0
0
0
0
0
0
0
0
0
0
0
0
0
0
0
0
0
0
0
0
0
0
0
0
0
0
0
0
0
0
0
0
0
0
0
0
0
0
0
0
0
0
0
0
0
0
0
0
0
0
0
0
0
0
0
0
0
0
0
0
0
0
0
0
0
0
0
0
0
0
0
0
0
0
0
0
0
0
0
0
0
0
0
0
0
0
0
0
0
0
0
0
0
0
0
0
0
0
0
0
0
0
0
0
0
0
0
0
0
0
0
0
0
0
0
0
0
0
0
0
0
0
0
0
0
0
0
0
0
0
0
0
0
0
0
0
0
0
0
0
0
0
0
0
0
0
0
0
0
0
0
0
0
0
0
0
0
0
0
0
0
0
0
0
0
0
0
0
0
0
0
0
0
0
0
0
0
0
0
0
0
0
0
0
0
0
0
0
0
0
0
0
0
0
0
0
0
0
0
0
0
0
0
0
0
0
0
0
0
0
0
0
0
0
0
0
0
0
0
0
0
0
0
0
0
0
0
0
0
0
0
0
0
0
0
0
0
0
0
0
0
0
0
0
0
0
0
0
0
0
0
0
0
0
0
0
0
0
0
0
0
0
0
0
0
0
0
0
0
0
0
0
0
0
0
0
0
0
0
0
0
0
0
0
0
0
0
0
0
0
0
0
0
0
0
0
0
0
0
0
0
0
0
0
0
0
0
0
0
0
0
0
0
0
0
0
0
0
0
0
1
1
1
1
1
1
1
1
1
1
1
1
1
1
1
1
1
1
1
1
1
1
1
1
1
1
1
1
1
1
2
2
2
2
2
2
2
2
2
2
2
2
2
2
2
2
2
2
2
2
2
2
2
2
2
2
2
2
2
2
3
3
3
3
3
3
3
3
3
3
3
3
3
3
3
3
3
3
3
3
3
3
3
3
3
3
3
3
3
3
4
4
4
4
4
4
4
4
4
4
4
4
4
4
4
4
4
4
4
4
4
4
4
4
4
4
4
4
4
4

LOOKUP_TABLE FreeFempp_table 5
1.00000000 0.00000000 0.00000000 1.00000000
1.00000000 1.00000000 0.00000000 1.00000000
1.00000000 0.00000000 1.00000000 1.00000000
0.00000000 1.00000000 0.00000000 1.00000000
0.00000000 1.00000000 1.00000000 1.00000000

POINT_DATA 961
FIELD FieldData 1
Density 1 961 float
1.07516281e-01 1.56051338e-01 3.57015550e-01 4.28898692e-01 4.42025274e-01 4.41164047e-01 4.08236444e-01 2.06564263e-01 1.90534554e-02 2.50819861e-03 7.99740944e-03 1.85494408e-01 4.83834475e-01 7.61712909e-01 8.72214437e-01 7.91473031e-01 7.25390613e-01 8.15281630e-01 8.86524558e-01 9.06102657e-01 9.00711358e-01 8.76051366e-01 8.57199907e-01 8.31152618e-01 8.00474763e-01 7.77693093e-01 7.61948526e-01 7.51067042e-01 7.42607117e-01 7.33598948e-01 7.23634660e-01 5.00760740e-03 1.09295007e-02 1.00777723e-01 1.78459570e-01 1.91083670e-01 1.89926803e-01 1.73560366e-01 1.00029849e-01 1.44004142e-02 2.12994497e-03 3.84015334e-03 8.72511119e-02 3.56092781e-01 6.72848225e-01 8.77017975e-01 6.22755289e-01 2.45023161e-01 3.64900470e-01 6.27602518e-01 7.38323271e-01 7.57254004e-01 7.87309051e-01 8.46051335e-01 8.41258943e-01 8.10606241e-01 7.84054220e-01 7.62407959e-01 7.47311115e-01 7.35406756e-01 7.27394283e-01 7.22083449e-01 2.47318996e-03 8.98121740e-04 2.78048497e-03 4.76926472e-03 4.83600842e-03 4.79800394e-03 4.67143720e-03 3.93893570e-03 1.72484573e-03 5.41295565e-04 7.85459066e-04 6.95864810e-03 9.36079845e-02 3.32178026e-01 8.26507449e-01 7.69515157e-01 5.38821816e-02 1.35872392e-02 1.21065518e-02 1.29823042e-02 1.38149224e-02 2.39442717e-02 2.36456528e-01 4.35862213e-01 5.63349903e-01 6.78712785e-01 6.81636810e-01 6.71313703e-01 6.60263836e-01 6.59935713e-01 6.77667737e-01 5.70715368e-02 1.33984499e-02 5.68909524e-03 4.86215623e-03 4.71127592e-03 4.76621743e-03 4.83273203e-03 4.84431628e-03 4.77771368e-03 4.92057623e-03 4.30728681e-03 2.30879895e-03 3.37843504e-03 1.28723327e-02 2.54406899e-01 8.66030276e-01 6.28046572e-01 4.33687344e-02 9.20790806e-03 7.12327054e-03 6.22753985e-03 2.55751563e-03 4.28008614e-03 8.17518029e-03 1.68921463e-02 2.35816240e-01 4.87168193e-01 5.32997787e-01 5.37903726e-01 5.53501964e-01 6.00952744e-01 3.25480580e-01 2.16932416e-01 1.62489980e-01 1.60506114e-01 1.66494593e-01 1.73164174e-01 1.79216549e-01 1.83530644e-01 1.85047179e-01 1.81116313e-01 1.42151445e-01 4.79673594e-02 8.62075668e-03 3.63037479e-03 4.73866612e-03 3.63438129e-02 7.78966248e-01 8.49127352e-01 3.99607480e-01 2.72349179e-01 3.29696178e-01 9.62340087e-02 2.10189186e-02 1.04670590e-02 3.83518566e-03 1.00505147e-02 1.83988884e-01 4.00010496e-01 4.30493504e-01 4.60406929e-01 5.30125678e-01 4.46273357e-01 3.66320282e-01 3.31774384e-01 3.36693496e-01 3.47609669e-01 3.60544026e-01 3.72938633e-01 3.82762909e-01 3.88825774e-01 3.90172243e-01 3.76418620e-01 3.11477304e-01 2.14251846e-01 1.10201195e-01 1.09145986e-02 3.98670090e-03 1.91718824e-02 4.10280198e-01 8.57492387e-01 9.04558778e-01 9.16595817e-01 8.91662836e-01 8.37567270e-01 7.24192739e-01 2.00548574e-01 1.55181400e-02 1.14780758e-02 2.06861451e-01 3.68356317e-01 4.04339373e-01 4.83802915e-01 4.98212874e-01 4.26214963e-01 3.96226168e-01 3.97865772e-01 4.05370802e-01 4.15570974e-01 4.25842553e-01 4.34579939e-01 4.41146642e-01 4.45498079e-01 4.46710169e-01 4.42333281e-01 4.34611350e-01 4.03965890e-01 2.49260977e-01 8.69751945e-02 8.93468317e-03 5.68685913e-03 2.28451397e-02 2.23131448e-01 5.83393931e-01 6.36794686e-01 6.26422226e-01 6.69369996e-01 8.40549469e-01 7.44967163e-01 3.06813810e-02 1.22350836e-02 1.88908055e-01 3.65366310e-01 4.53600407e-01 5.46524346e-01 4.87436056e-01 4.66071248e-01 4.68541622e-01 4.73595947e-01 4.80351895e-01 4.87616330e-01 4.94460911e-01 5.00349760e-01 5.05092680e-01 5.08744538e-01 5.11897564e-01 5.15714288e-01 5.16815364e-01 5.04233181e-01 4.53991652e-01 2.29362875e-01 1.58077292e-02 4.80775302e-03 3.88754159e-03 8.68386962e-03 1.39610646e-02 2.10582428e-02 2.68056989e-02 9.05403420e-02 8.01997364e-01 8.61903787e-01 3.16856205e-02 1.10872528e-02 1.77626610e-01 3.78861934e-01 5.96084058e-01 5.52490413e-01 5.39864600e-01 5.42759061e-01 5.45653939e-01 5.49481034e-01 5.54035783e-01 5.58821976e-01 5.63317358e-01 5.67190707e-01 5.70557594e-01 5.74166000e-01 5.79030156e-01 5.85492253e-01 5.94307184e-01 6.05249405e-01 5.99934757e-01 4.55000490e-01 2.10049257e-01 1.33473556e-02 2.25738878e-03 1.13674148e-03 1.92758965e-03 2.93405121e-03 5.99442702e-03 5.08778617e-02 8.30348313e-01 8.08153927e-01 2.02678740e-02 9.90933087e-03 9.69910026e-02 6.38816714e-01 6.10052049e-01 6.04453623e-01 6.06754661e-01 6.07796252e-01 6.09399080e-01 6.11632884e-01 6.14200652e-01 6.16669297e-01 6.18756235e-01 6.20642900e-01 6.23064458e-01 6.26977861e-01 6.33237004e-01 6.43200755e-01 6.58680677e-01 6.80464983e-01 7.02234864e-01 6.96093678e-01 4.41474348e-01 6.13999739e-02 1.42774312e-02 8.55659600e-03 5.77928452e-03 4.52772155e-03 8.99547338e-03 1.15721323e-01 9.14885759e-01 4.10456955e-01 5.39902784e-03 3.09361774e-03 6.64635837e-01 6.46225333e-01 6.45022154e-01 6.46512389e-01 6.46477699e-01 6.46828055e-01 6.47543550e-01 6.48386598e-01 6.48990214e-01 6.49128616e-01 6.49008393e-01 6.49305284e-01 6.50894284e-01 6.54649317e-01 6.61712229e-01 6.73580706e-01 6.92055225e-01 7.19569921e-01 7.56297946e-01 7.84613967e-01 7.40906835e-01 6.04975641e-01 3.95471454e-01 1.72996700e-01 4.68185581e-02 2.21765097e-02 4.91589494e-02 8.10820580e-01 8.21800649e-01 1.21779069e-02 7.93178449e-04 6.67333543e-01 6.52711511e-01 6.53603017e-01 6.54946625e-01 6.54982388e-01 6.55358136e-01 6.55867636e-01 6.56184673e-01 6.55836046e-01 6.54526353e-01 6.52425468e-01 6.50151432e-01 6.48508966e-01 6.48291826e-01 6.50347710e-01 6.55599535e-01 6.65072560e-01 6.80307806e-01 7.03593194e-01 7.37633467e-01 7.78802812e-01 8.08831573e-01 7.92243361e-01 7.07245409e-01 5.23907483e-01 3.35542202e-01 3.76244932e-01 8.78368616e-01 8.98606718e-01 1.62121616e-02 5.67576033e-04 6.43721581e-01 6.25355780e-01 6.26589060e-01 6.29314303e-01 6.31257057e-01 6.33789778e-01 6.36426389e-01 6.38404965e-01 6.38819098e-01 6.37180328e-01 6.33679032e-01 6.29015625e-01 6.24052346e-01 6.19571149e-01 6.16232514e-01 6.14561319e-01 6.14977181e-01 6.18037760e-01 6.24738753e-01 6.37154043e-01 6.57861769e-01 6.84025526e-01 6.99463904e-01 6.88749254e-01 6.47693515e-01 6.05742335e-01 7.10482538e-01 9.31292236e-01 9.08061445e-01 1.68398339e-02 4.70235158e-04 5.92165709e-01 5.61127722e-01 5.60446262e-01 5.67435503e-01 5.74934602e-01 5.83698690e-01 5.92644155e-01 5.99921107e-01 6.03754401e-01 6.03503346e-01 5.99693596e-01 5.93452513e-01 5.85971296e-01 5.78231096e-01 5.70954442e-01 5.64628005e-01 5.59578657e-01 5.56147397e-01 5.54813862e-01 5.56153715e-01 5.60251594e-01 5.65185964e-01 5.66612303e-01 5.62141657e-01 5.63326418e-01 6.16346836e-01 7.88939297e-01 9.40418482e-01 8.84502530e-01 1.59023460e-02 4.97767585e-04 5.15877903e-01 4.64293927e-01 4.58272666e-01 4.73158091e-01 4.91963446e-01 5.12949407e-01 5.33607900e-01 5.50342858e-01 5.60276091e-01 5.62986135e-01 5.59909701e-01 5.53049684e-01 5.44206142e-01 5.34756720e-01 5.25704443e-01 5.17786682e-01 5.11596143e-01 5.07699549e-01 5.06596863e-01 5.08302331e-01 5.11497080e-01 5.13184011e-01 5.11253417e-01 5.11588991e-01 5.40243387e-01 6.49716854e-01 8.39715898e-01 9.40702140e-01 8.17949593e-01 1.40208472e-02 5.65157388e-04 4.24466252e-01 3.52470070e-01 3.39959383e-01 3.64113569e-01 3.98647308e-01 4.37140495e-01 4.73691225e-01 5.02317369e-01 5.19351721e-01 5.25346220e-01 5.23279727e-01 5.16323328e-01 5.06959081e-01 4.96972024e-01 4.87683654e-01 4.80158597e-01 4.75338459e-01 4.74082083e-01 4.76992637e-01 4.83893871e-01 4.93157387e-01 5.02150357e-01 5.11026919e-01 5.30703962e-01 5.91252685e-01 7.26606488e-01 8.81325603e-01 9.30541694e-01 6.55407190e-01 1.12827029e-02 6.52881048e-04 3.28191966e-01 2.45092794e-01 2.29794621e-01 2.61989415e-01 3.12735379e-01 3.71140867e-01 4.25375223e-01 4.65722591e-01 4.88610238e-01 4.96755421e-01 4.95186687e-01 4.88210410e-01 4.78779465e-01 4.68894660e-01 4.60074157e-01 4.53642160e-01 4.50844228e-01 4.52801526e-01 4.60256189e-01 4.73104358e-01 4.90129292e-01 5.10269701e-01 5.36945105e-01 5.83819091e-01 6.72388792e-01 8.00558984e-01 9.00552630e-01 8.90083313e-01 3.50217611e-01 7.99895916e-03 7.88040285e-04 2.36991912e-01 1.55164540e-01 1.41756386e-01 1.78375497e-01 2.43402079e-01 3.22331190e-01 3.94278914e-01 4.44161296e-01 4.70125288e-01 4.78574902e-01 4.76800680e-01 4.69874412e-01 4.60818797e-01 4.51560974e-01 4.43626195e-01 4.38475341e-01 4.37586308e-01 4.42342192e-01 4.53754932e-01 4.72149074e-01 4.97351229e-01 5.30572712e-01 5.77986717e-01 6.50535345e-01 7.50004172e-01 8.47956777e-01 8.92867386e-01 7.64705539e-01 1.03369787e-01 4.93002357e-03 1.03245839e-03 1.60217941e-01 9.12079662e-02 8.25820938e-02 1.18935101e-01 1.94504932e-01 2.93349117e-01 3.80845964e-01 4.36110020e-01 4.61682588e-01 4.68752533e-01 4.66460794e-01 4.60008234e-01 4.52054411e-01 4.44188207e-01 4.37757403e-01 4.34212178e-01 4.35159057e-01 4.42239404e-01 4.56927747e-01 4.80426729e-01 5.14165401e-01 5.61613262e-01 6.29001141e-01 7.17154086e-01 8.07673633e-01 8.66994798e-01 8.44264925e-01 4.82033074e-01 3.17583159e-02 3.33506148e-03 1.55570684e-03 1.00103669e-01 5.08233048e-02 4.70340997e-02 8.20574537e-02 1.67478219e-01 2.85456598e-01 3.82933855e-01 4.37318474e-01 4.59077924e-01 4.63809907e-01 4.61309910e-01 4.56163555e-01 4.50337172e-01 4.44921374e-01 4.40955937e-01 4.39727843e-01 4.42810833e-01 4.52020854e-01 4.69442219e-01 4.97625381e-01 5.40074587e-01 6.01673126e-01 6.84175313e-01 7.73760736e-01 8.41696560e-01 8.56571317e-01 7.09499538e-01 1.71985388e-01 1.35983182e-02 3.23156128e-03 2.57389108e-03 5.66592366e-02 2.70378757e-02 2.67877635e-02 6.14820793e-02 1.61613092e-01 2.98427761e-01 3.96538258e-01 4.42749143e-01 4.58058357e-01 4.60330039e-01 4.58407313e-01 4.55614150e-01 4.53040808e-01 4.51235741e-01 4.50880677e-01 4.52984214e-01 4.58903491e-01 4.70452070e-01 4.90330994e-01 5.22785306e-01 5.73730350e-01 6.47992313e-01 7.38194406e-01 8.16134095e-01 8.51120949e-01 7.94212878e-01 4.35555518e-01 4.81794775e-02 7.43747130e-03 4.11363877e-03 4.76251403e-03 2.91705281e-02 1.48997968e-02 1.66810676e-02 5.32543436e-02 1.76732883e-01 3.29208732e-01 4.15828764e-01 4.47780460e-01 4.55384612e-01 4.55720067e-01 4.55322981e-01 4.55858946e-01 4.57482785e-01 4.60229635e-01 4.64442044e-01 4.70814496e-01 4.80398268e-01 4.94921386e-01 5.17728865e-01 5.54920077e-01 6.14561379e-01 6.98882520e-01 7.87778795e-01 8.42178464e-01 8.24640512e-01 6.12841785e-01 1.51635140e-01 1.97744723e-02 6.14183210e-03 6.50089048e-03 1.07463477e-02 1.44034885e-02 9.30784550e-03 1.26997894e-02 5.66093326e-02 2.13978872e-01 3.70729029e-01 4.33860630e-01 4.48528349e-01 4.48852032e-01 4.48287994e-01 4.50322837e-01 4.54877347e-01 4.61223274e-01 4.68945205e-01 4.78102237e-01 4.89155442e-01 5.03039658e-01 5.21789849e-01 5.49879372e-01 5.95028579e-01 6.64632738e-01 7.53309071e-01 8.26826572e-01 8.40721726e-01 7.24039912e-01 3.07033032e-01 4.69077751e-02 1.20875956e-02 7.92227499e-03 1.31369038e-02 3.11373435e-02 7.77415233e-03 6.65331865e-03 1.23030217e-02 7.44072720e-02 2.72968799e-01 4.12182659e-01 4.43914860e-01 4.41921741e-01 4.37004387e-01 4.37035620e-01 4.42292303e-01 4.51177537e-01 4.62274492e-01 4.74823713e-01 4.88697916e-01 5.04362106e-01 5.23173392e-01 5.48297644e-01 5.85764349e-01 6.42983973e-01 7.20424056e-01 7.99793959e-01 8.41581166e-01 7.92615891e-01 5.10342419e-01 1.34787709e-01 2.80742347e-02 1.36445751e-02 1.51202604e-02 3.25402431e-02 8.95035490e-02 4.50434349e-03 5.06499037e-03 1.44552914e-02 1.13640092e-01 3.46200913e-01 4.41979110e-01 4.41014647e-01 4.26335722e-01 4.19348568e-01 4.21607822e-01 4.30587202e-01 4.43703473e-01 4.59205776e-01 4.76163477e-01 4.94380623e-01 5.14568806e-01 5.38932741e-01 5.71977079e-01 6.20093405e-01 6.86620891e-01 7.61980593e-01 8.20723474e-01 8.26282680e-01 6.92304373e-01 3.78836334e-01 1.21571347e-01 4.41912189e-02 3.48410048e-02 4.97332551e-02 1.05455682e-01 2.22452268e-01 2.75044888e-03 4.14312957e-03 2.00809203e-02 1.81236163e-01 4.15458113e-01 4.51801330e-01 4.23745632e-01 4.02679652e-01 3.96907777e-01 4.02417183e-01 4.14939791e-01 4.31688637e-01 4.51049477e-01 4.72129583e-01 4.94680852e-01 5.19533634e-01 5.49362719e-01 5.88973522e-01 6.43133819e-01 7.10101068e-01 7.75523186e-01 8.16296101e-01 8.01711559e-01 6.69192135e-01 4.30597335e-01 2.36760527e-01 1.63270146e-01 1.72400936e-01 2.30949402e-01 3.23633522e-01 4.41704243e-01 1.92533154e-03 4.19134973e-03 3.40870731e-02 2.72346646e-01 4.58697915e-01 4.38959420e-01 3.95504832e-01 3.74771088e-01 3.72256517e-01 3.80621910e-01 3.95419657e-01 4.14535433e-01 4.36984986e-01 4.62131590e-01 4.89560723e-01 5.19620359e-01 5.54250002e-01 5.96986175e-01 6.50366962e-01 7.10578799e-01 7.64824867e-01 7.95982838e-01 7.84984589e-01 7.14499235e-01 6.19064450e-01 5.46901405e-01 5.18843532e-01 5.20774126e-01 5.33498943e-01 5.60618401e-01 6.10428989e-01 1.50610239e-03 5.07904403e-03 6.90493137e-02 3.61370414e-01 4.63081807e-01 4.08174425e-01 3.64034176e-01 3.48224044e-01 3.48603755e-01 3.57613027e-01 3.72159004e-01 3.91504109e-01 4.15690631e-01 4.44618970e-01 4.77751225e-01 5.14438629e-01 5.54645061e-01 5.99229157e-01 6.48539662e-01 6.99424624e-01 7.43924320e-01 7.72033274e-01 7.75721610e-01 7.57095098e-01 7.36831009e-01 7.19039142e-01 6.95842266e-01 6.67404711e-01 6.40691042e-01 6.37054861e-01 6.62561655e-01 1.19925244e-03 6.22185320e-03 1.34966418e-01 4.18206483e-01 4.36902404e-01 3.74439299e-01 3.39623094e-01 3.28059286e-01 3.27590495e-01 3.33211988e-01 3.44041348e-01 3.60887557e-01 3.84925872e-01 4.16937560e-01 4.56803232e-01 5.03241718e-01 5.53963423e-01 6.06185973e-01 6.56978130e-01 7.03032136e-01 7.40465820e-01 7.65347779e-01 7.75013566e-01 7.71263778e-01 7.60271370e-01 7.40575552e-01 7.08398700e-01 6.69656694e-01 6.37190938e-01 6.32866919e-01 6.57244742e-01 1.19504903e-03 8.07122421e-03 2.36570388e-01 4.76147830e-01 4.43799347e-01 3.88342261e-01 3.59849691e-01 3.45526695e-01 3.38179857e-01 3.36236715e-01 3.40508103e-01 3.52581650e-01 3.74162227e-01 4.06672865e-01 4.50693727e-01 5.05137801e-01 5.66528261e-01 6.29159093e-01 6.86570048e-01 7.33535469e-01 7.67151773e-01 7.86504030e-01 7.91762888e-01 7.84086227e-01 7.65273869e-01 7.35568404e-01 6.96548045e-01 6.55522048e-01 6.23624623e-01 6.18552089e-01 6.42843843e-01 2.37665744e-03 9.13671684e-03 3.82664979e-01 5.95510900e-01 5.29064596e-01 4.77669626e-01 4.51504618e-01 4.34028417e-01 4.21798021e-01 4.15007442e-01 4.14860219e-01 4.22786415e-01 4.40097451e-01 4.67708319e-01 5.05699337e-01 5.52712440e-01 6.05484188e-01 6.59050822e-01 7.07886815e-01 7.47418880e-01 7.74922490e-01 7.89408743e-01 7.91061044e-01 7.81012058e-01 7.61037111e-01 7.32691705e-01 6.98443949e-01 6.63695276e-01 6.36629701e-01 6.28917873e-01 6.45741880e-01 
