# vtk DataFile Version 2.0
results/8_density.vtk, Created by Freefem++ 
ASCII
DATASET UNSTRUCTURED_GRID
POINTS 961 float
0 0 0
0.033333333 0 0
0.066666667 0 0
0.1 0 0
0.13333333 0 0
0.16666667 0 0
0.2 0 0
0.23333333 0 0
0.26666667 0 0
0.3 0 0
0.33333333 0 0
0.36666667 0 0
0.4 0 0
0.43333333 0 0
0.46666667 0 0
0.5 0 0
0.53333333 0 0
0.56666667 0 0
0.6 0 0
0.63333333 0 0
0.66666667 0 0
0.7 0 0
0.73333333 0 0
0.76666667 0 0
0.8 0 0
0.83333333 0 0
0.86666667 0 0
0.9 0 0
0.93333333 0 0
0.96666667 0 0
1 0 0
0 0.033333333 0
0.033333333 0.033333333 0
0.066666667 0.033333333 0
0.1 0.033333333 0
0.13333333 0.033333333 0
0.16666667 0.033333333 0
0.2 0.033333333 0
0.23333333 0.033333333 0
0.26666667 0.033333333 0
0.3 0.033333333 0
0.33333333 0.033333333 0
0.36666667 0.033333333 0
0.4 0.033333333 0
0.43333333 0.033333333 0
0.46666667 0.033333333 0
0.5 0.033333333 0
0.53333333 0.033333333 0
0.56666667 0.033333333 0
0.6 0.033333333 0
0.63333333 0.033333333 0
0.66666667 0.033333333 0
0.7 0.033333333 0
0.73333333 0.033333333 0
0.76666667 0.033333333 0
0.8 0.033333333 0
0.83333333 0.033333333 0
0.86666667 0.033333333 0
0.9 0.033333333 0
0.93333333 0.033333333 0
0.96666667 0.033333333 0
1 0.033333333 0
0 0.066666667 0
0.033333333 0.066666667 0
0.066666667 0.066666667 0
0.1 0.066666667 0
0.13333333 0.066666667 0
0.16666667 0.066666667 0
0.2 0.066666667 0
0.23333333 0.066666667 0
0.26666667 0.066666667 0
0.3 0.066666667 0
0.33333333 0.066666667 0
0.36666667 0.066666667 0
0.4 0.066666667 0
0.43333333 0.066666667 0
0.46666667 0.066666667 0
0.5 0.066666667 0
0.53333333 0.066666667 0
0.56666667 0.066666667 0
0.6 0.066666667 0
0.63333333 0.066666667 0
0.66666667 0.066666667 0
0.7 0.066666667 0
0.73333333 0.066666667 0
0.76666667 0.066666667 0
0.8 0.066666667 0
0.83333333 0.066666667 0
0.86666667 0.066666667 0
0.9 0.066666667 0
0.93333333 0.066666667 0
0.96666667 0.066666667 0
1 0.066666667 0
0 0.1 0
0.033333333 0.1 0
0.066666667 0.1 0
0.1 0.1 0
0.13333333 0.1 0
0.16666667 0.1 0
0.2 0.1 0
0.23333333 0.1 0
0.26666667 0.1 0
0.3 0.1 0
0.33333333 0.1 0
0.36666667 0.1 0
0.4 0.1 0
0.43333333 0.1 0
0.46666667 0.1 0
0.5 0.1 0
0.53333333 0.1 0
0.56666667 0.1 0
0.6 0.1 0
0.63333333 0.1 0
0.66666667 0.1 0
0.7 0.1 0
0.73333333 0.1 0
0.76666667 0.1 0
0.8 0.1 0
0.83333333 0.1 0
0.86666667 0.1 0
0.9 0.1 0
0.93333333 0.1 0
0.96666667 0.1 0
1 0.1 0
0 0.13333333 0
0.033333333 0.13333333 0
0.066666667 0.13333333 0
0.1 0.13333333 0
0.13333333 0.13333333 0
0.16666667 0.13333333 0
0.2 0.13333333 0
0.23333333 0.13333333 0
0.26666667 0.13333333 0
0.3 0.13333333 0
0.33333333 0.13333333 0
0.36666667 0.13333333 0
0.4 0.13333333 0
0.43333333 0.13333333 0
0.46666667 0.13333333 0
0.5 0.13333333 0
0.53333333 0.13333333 0
0.56666667 0.13333333 0
0.6 0.13333333 0
0.63333333 0.13333333 0
0.66666667 0.13333333 0
0.7 0.13333333 0
0.73333333 0.13333333 0
0.76666667 0.13333333 0
0.8 0.13333333 0
0.83333333 0.13333333 0
0.86666667 0.13333333 0
0.9 0.13333333 0
0.93333333 0.13333333 0
0.96666667 0.13333333 0
1 0.13333333 0
0 0.16666667 0
0.033333333 0.16666667 0
0.066666667 0.16666667 0
0.1 0.16666667 0
0.13333333 0.16666667 0
0.16666667 0.16666667 0
0.2 0.16666667 0
0.23333333 0.16666667 0
0.26666667 0.16666667 0
0.3 0.16666667 0
0.33333333 0.16666667 0
0.36666667 0.16666667 0
0.4 0.16666667 0
0.43333333 0.16666667 0
0.46666667 0.16666667 0
0.5 0.16666667 0
0.53333333 0.16666667 0
0.56666667 0.16666667 0
0.6 0.16666667 0
0.63333333 0.16666667 0
0.66666667 0.16666667 0
0.7 0.16666667 0
0.73333333 0.16666667 0
0.76666667 0.16666667 0
0.8 0.16666667 0
0.83333333 0.16666667 0
0.86666667 0.16666667 0
0.9 0.16666667 0
0.93333333 0.16666667 0
0.96666667 0.16666667 0
1 0.16666667 0
0 0.2 0
0.033333333 0.2 0
0.066666667 0.2 0
0.1 0.2 0
0.13333333 0.2 0
0.16666667 0.2 0
0.2 0.2 0
0.23333333 0.2 0
0.26666667 0.2 0
0.3 0.2 0
0.33333333 0.2 0
0.36666667 0.2 0
0.4 0.2 0
0.43333333 0.2 0
0.46666667 0.2 0
0.5 0.2 0
0.53333333 0.2 0
0.56666667 0.2 0
0.6 0.2 0
0.63333333 0.2 0
0.66666667 0.2 0
0.7 0.2 0
0.73333333 0.2 0
0.76666667 0.2 0
0.8 0.2 0
0.83333333 0.2 0
0.86666667 0.2 0
0.9 0.2 0
0.93333333 0.2 0
0.96666667 0.2 0
1 0.2 0
0 0.23333333 0
0.033333333 0.23333333 0
0.066666667 0.23333333 0
0.1 0.23333333 0
0.13333333 0.23333333 0
0.16666667 0.23333333 0
0.2 0.23333333 0
0.23333333 0.23333333 0
0.26666667 0.23333333 0
0.3 0.23333333 0
0.33333333 0.23333333 0
0.36666667 0.23333333 0
0.4 0.23333333 0
0.43333333 0.23333333 0
0.46666667 0.23333333 0
0.5 0.23333333 0
0.53333333 0.23333333 0
0.56666667 0.23333333 0
0.6 0.23333333 0
0.63333333 0.23333333 0
0.66666667 0.23333333 0
0.7 0.23333333 0
0.73333333 0.23333333 0
0.76666667 0.23333333 0
0.8 0.23333333 0
0.83333333 0.23333333 0
0.86666667 0.23333333 0
0.9 0.23333333 0
0.93333333 0.23333333 0
0.96666667 0.23333333 0
1 0.23333333 0
0 0.26666667 0
0.033333333 0.26666667 0
0.066666667 0.26666667 0
0.1 0.26666667 0
0.13333333 0.26666667 0
0.16666667 0.26666667 0
0.2 0.26666667 0
0.23333333 0.26666667 0
0.26666667 0.26666667 0
0.3 0.26666667 0
0.33333333 0.26666667 0
0.36666667 0.26666667 0
0.4 0.26666667 0
0.43333333 0.26666667 0
0.46666667 0.26666667 0
0.5 0.26666667 0
0.53333333 0.26666667 0
0.56666667 0.26666667 0
0.6 0.26666667 0
0.63333333 0.26666667 0
0.66666667 0.26666667 0
0.7 0.26666667 0
0.73333333 0.26666667 0
0.76666667 0.26666667 0
0.8 0.26666667 0
0.83333333 0.26666667 0
0.86666667 0.26666667 0
0.9 0.26666667 0
0.93333333 0.26666667 0
0.96666667 0.26666667 0
1 0.26666667 0
0 0.3 0
0.033333333 0.3 0
0.066666667 0.3 0
0.1 0.3 0
0.13333333 0.3 0
0.16666667 0.3 0
0.2 0.3 0
0.23333333 0.3 0
0.26666667 0.3 0
0.3 0.3 0
0.33333333 0.3 0
0.36666667 0.3 0
0.4 0.3 0
0.43333333 0.3 0
0.46666667 0.3 0
0.5 0.3 0
0.53333333 0.3 0
0.56666667 0.3 0
0.6 0.3 0
0.63333333 0.3 0
0.66666667 0.3 0
0.7 0.3 0
0.73333333 0.3 0
0.76666667 0.3 0
0.8 0.3 0
0.83333333 0.3 0
0.86666667 0.3 0
0.9 0.3 0
0.93333333 0.3 0
0.96666667 0.3 0
1 0.3 0
0 0.33333333 0
0.033333333 0.33333333 0
0.066666667 0.33333333 0
0.1 0.33333333 0
0.13333333 0.33333333 0
0.16666667 0.33333333 0
0.2 0.33333333 0
0.23333333 0.33333333 0
0.26666667 0.33333333 0
0.3 0.33333333 0
0.33333333 0.33333333 0
0.36666667 0.33333333 0
0.4 0.33333333 0
0.43333333 0.33333333 0
0.46666667 0.33333333 0
0.5 0.33333333 0
0.53333333 0.33333333 0
0.56666667 0.33333333 0
0.6 0.33333333 0
0.63333333 0.33333333 0
0.66666667 0.33333333 0
0.7 0.33333333 0
0.73333333 0.33333333 0
0.76666667 0.33333333 0
0.8 0.33333333 0
0.83333333 0.33333333 0
0.86666667 0.33333333 0
0.9 0.33333333 0
0.93333333 0.33333333 0
0.96666667 0.33333333 0
1 0.33333333 0
0 0.36666667 0
0.033333333 0.36666667 0
0.066666667 0.36666667 0
0.1 0.36666667 0
0.13333333 0.36666667 0
0.16666667 0.36666667 0
0.2 0.36666667 0
0.23333333 0.36666667 0
0.26666667 0.36666667 0
0.3 0.36666667 0
0.33333333 0.36666667 0
0.36666667 0.36666667 0
0.4 0.36666667 0
0.43333333 0.36666667 0
0.46666667 0.36666667 0
0.5 0.36666667 0
0.53333333 0.36666667 0
0.56666667 0.36666667 0
0.6 0.36666667 0
0.63333333 0.36666667 0
0.66666667 0.36666667 0
0.7 0.36666667 0
0.73333333 0.36666667 0
0.76666667 0.36666667 0
0.8 0.36666667 0
0.83333333 0.36666667 0
0.86666667 0.36666667 0
0.9 0.36666667 0
0.93333333 0.36666667 0
0.96666667 0.36666667 0
1 0.36666667 0
0 0.4 0
0.033333333 0.4 0
0.066666667 0.4 0
0.1 0.4 0
0.13333333 0.4 0
0.16666667 0.4 0
0.2 0.4 0
0.23333333 0.4 0
0.26666667 0.4 0
0.3 0.4 0
0.33333333 0.4 0
0.36666667 0.4 0
0.4 0.4 0
0.43333333 0.4 0
0.46666667 0.4 0
0.5 0.4 0
0.53333333 0.4 0
0.56666667 0.4 0
0.6 0.4 0
0.63333333 0.4 0
0.66666667 0.4 0
0.7 0.4 0
0.73333333 0.4 0
0.76666667 0.4 0
0.8 0.4 0
0.83333333 0.4 0
0.86666667 0.4 0
0.9 0.4 0
0.93333333 0.4 0
0.96666667 0.4 0
1 0.4 0
0 0.43333333 0
0.033333333 0.43333333 0
0.066666667 0.43333333 0
0.1 0.43333333 0
0.13333333 0.43333333 0
0.16666667 0.43333333 0
0.2 0.43333333 0
0.23333333 0.43333333 0
0.26666667 0.43333333 0
0.3 0.43333333 0
0.33333333 0.43333333 0
0.36666667 0.43333333 0
0.4 0.43333333 0
0.43333333 0.43333333 0
0.46666667 0.43333333 0
0.5 0.43333333 0
0.53333333 0.43333333 0
0.56666667 0.43333333 0
0.6 0.43333333 0
0.63333333 0.43333333 0
0.66666667 0.43333333 0
0.7 0.43333333 0
0.73333333 0.43333333 0
0.76666667 0.43333333 0
0.8 0.43333333 0
0.83333333 0.43333333 0
0.86666667 0.43333333 0
0.9 0.43333333 0
0.93333333 0.43333333 0
0.96666667 0.43333333 0
1 0.43333333 0
0 0.46666667 0
0.033333333 0.46666667 0
0.066666667 0.46666667 0
0.1 0.46666667 0
0.13333333 0.46666667 0
0.16666667 0.46666667 0
0.2 0.46666667 0
0.23333333 0.46666667 0
0.26666667 0.46666667 0
0.3 0.46666667 0
0.33333333 0.46666667 0
0.36666667 0.46666667 0
0.4 0.46666667 0
0.43333333 0.46666667 0
0.46666667 0.46666667 0
0.5 0.46666667 0
0.53333333 0.46666667 0
0.56666667 0.46666667 0
0.6 0.46666667 0
0.63333333 0.46666667 0
0.66666667 0.46666667 0
0.7 0.46666667 0
0.73333333 0.46666667 0
0.76666667 0.46666667 0
0.8 0.46666667 0
0.83333333 0.46666667 0
0.86666667 0.46666667 0
0.9 0.46666667 0
0.93333333 0.46666667 0
0.96666667 0.46666667 0
1 0.46666667 0
0 0.5 0
0.033333333 0.5 0
0.066666667 0.5 0
0.1 0.5 0
0.13333333 0.5 0
0.16666667 0.5 0
0.2 0.5 0
0.23333333 0.5 0
0.26666667 0.5 0
0.3 0.5 0
0.33333333 0.5 0
0.36666667 0.5 0
0.4 0.5 0
0.43333333 0.5 0
0.46666667 0.5 0
0.5 0.5 0
0.53333333 0.5 0
0.56666667 0.5 0
0.6 0.5 0
0.63333333 0.5 0
0.66666667 0.5 0
0.7 0.5 0
0.73333333 0.5 0
0.76666667 0.5 0
0.8 0.5 0
0.83333333 0.5 0
0.86666667 0.5 0
0.9 0.5 0
0.93333333 0.5 0
0.96666667 0.5 0
1 0.5 0
0 0.53333333 0
0.033333333 0.53333333 0
0.066666667 0.53333333 0
0.1 0.53333333 0
0.13333333 0.53333333 0
0.16666667 0.53333333 0
0.2 0.53333333 0
0.23333333 0.53333333 0
0.26666667 0.53333333 0
0.3 0.53333333 0
0.33333333 0.53333333 0
0.36666667 0.53333333 0
0.4 0.53333333 0
0.43333333 0.53333333 0
0.46666667 0.53333333 0
0.5 0.53333333 0
0.53333333 0.53333333 0
0.56666667 0.53333333 0
0.6 0.53333333 0
0.63333333 0.53333333 0
0.66666667 0.53333333 0
0.7 0.53333333 0
0.73333333 0.53333333 0
0.76666667 0.53333333 0
0.8 0.53333333 0
[...]
CELL_DATA 1920
Scalars  Label int 1
LOOKUP_TABLE FreeFempp_table
0
0
0
0
0
0
0
0
0
0
0
0
0
0
0
0
0
0
0
0
0
0
0
0
0
0
0
0
0
0
0
0
0
0
0
0
0
0
0
0
0
0
0
0
0
0
0
0
0
0
0
0
0
0
0
0
0
0
0
0
0
0
0
0
0
0
0
0
0
0
0
0
0
0
0
0
0
0
0
0
0
0
0
0
0
0
0
0
0
0
0
0
0
0
0
0
0
0
0
0
0
0
0
0
0
0
0
0
0
0
0
0
0
0
0
0
0
0
0
0
0
0
0
0
0
0
0
0
0
0
0
0
0
0
0
0
0
0
0
0
0
0
0
0
0
0
0
0
0
0
0
0
0
0
0
0
0
0
0
0
0
0
0
0
0
0
0
0
0
0
0
0
0
0
0
0
0
0
0
0
0
0
0
0
0
0
0
0
0
0
0
0
0
0
0
0
0
0
0
0
0
0
0
0
0
0
0
0
0
0
0
0
0
0
0
0
0
0
0
0
0
0
0
0
0
0
0
0
0
0
0
0
0
0
0
0
0
0
0
0
0
0
0
0
0
0
0
0
0
0
0
0
0
0
0
0
0
0
0
0
0
0
0
0
0
0
0
0
0
0
0
0
0
0
0
0
0
0
0
0
0
0
0
0
0
0
0
0
0
0
0
0
0
0
0
0
0
0
0
0
0
0
0
0
0
0
0
0
0
0
0
0
0
0
0
0
0
0
0
0
0
0
0
0
0
0
0
0
0
0
0
0
0
0
0
0
0
0
0
0
0
0
0
0
0
0
0
0
0
0
0
0
0
0
0
0
0
0
0
0
0
0
0
0
0
0
0
0
0
0
0
0
0
0
0
0
0
0
0
0
0
0
0
0
0
0
0
0
0
0
0
0
0
0
0
0
0
0
0
0
0
0
0
0
0
0
0
0
0
0
0
0
0
0
0
0
0
0
0
0
0
0
0
0
0
0
0
0
0
0
0
0
0
0
0
0
0
0
0
0
0
0
0
0
0
0
0
0
0
0
0
0
0
0
0
0
0
0
0
0
0
0
0
0
0
0
0
0
0
0
0
0
0
0
0
0
0
0
0
0
0
0
0
0
0
0
0
0
0
0
0
0
0
0
0
0
0
0
0
0
0
0
0
0
0
0
0
0
0
0
0
0
0
0
0
0
0
0
0
0
0
0
0
0
0
0
0
0
0
0
0
0
0
0
0
0
0
0
0
0
0
0
0
0
0
0
0
0
0
0
0
0
0
0
0
0
0
0
0
0
0
0
0
0
0
0
0
0
0
0
0
0
0
0
0
0
0
0
0
0
0
0
0
0
0
0
0
0
0
0
0
0
0
0
0
0
0
0
0
0
0
0
0
0
0
0
0
0
0
0
0
0
0
0
0
0
0
0
0
0
0
0
0
0
0
0
0
0
0
0
0
0
0
0
0
0
0
0
0
0
0
0
0
0
0
0
0
0
0
0
0
0
0
0
0
0
0
0
0
0
0
0
0
0
0
0
0
0
0
0
0
0
0
0
0
0
0
0
0
0
0
0
0
0
0
0
0
0
0
0
0
0
0
0
0
0
0
0
0
0
0
0
0
0
0
0
0
0
0
0
0
0
0
0
0
0
0
0
0
0
0
0
0
0
0
0
0
0
0
0
0
0
0
0
0
0
0
0
0
0
0
0
0
0
0
0
0
0
0
0
0
0
0
0
0
0
0
0
0
0
0
0
0
0
0
0
0
0
0
0
0
0
0
0
0
0
0
0
0
0
0
0
0
0
0
0
0
0
0
0
0
0
0
0
0
0
0
0
0
0
0
0
0
0
0
0
0
0
0
0
0
0
0
0
0
0
0
0
0
0
0
0
0
0
0
0
0
0
0
0
0
0
0
0
0
0
0
0
0
0
0
0
0
0
0
0
0
0
0
0
0
0
0
0
0
0
0
0
0
0
0
0
0
0
0
0
0
0
0
0
0
0
0
0
0
0
0
0
0
0
0
0
0
0
0
0
0
0
0
0
0
0
0
0
0
0
0
0
0
0
0
0
0
0
0
0
0
0
0
0
0
0
0
0
0
0
0
0
0
0
0
0
0
0
0
0
0
0
0
0
0
0
0
0
0
0
0
0
0
0
0
0
0
0
0
0
0
0
0
0
0
0
0
0
0
0
0
0
0
0
0
0
0
0
0
0
0
0
0
0
0
0
0
0
0
0
0
0
0
0
0
0
0
0
0
0
0
0
0
0
0
0
0
0
0
0
0
0
0
0
0
0
0
0
0
0
0
0
0
0
0
0
0
0
0
0
0
0
0
0
0
0
0
0
0
0
0
0
0
0
0
0
0
0
0
0
0
0
0
0
0
0
0
0
0
0
0
0
0
0
0
0
0
0
0
0
0
0
0
0
0
0
0
0
0
0
0
0
0
0
0
0
0
0
0
0
0
0
0
0
0
0
0
0
0
0
0
0
0
0
0
0
0
0
0
0
0
0
0
0
0
0
0
0
0
0
0
0
0
0
0
0
0
0
0
0
0
0
0
0
0
0
0
0
0
0
0
0
0
0
0
0
0
0
0
0
0
0
0
0
0
0
0
0
0
0
0
0
0
0
0
0
0
0
0
0
0
0
0
0
0
0
0
0
0
0
0
0
0
0
0
0
0
0
0
0
0
0
0
0
0
0
0
0
0
0
0
0
0
0
0
0
0
0
0
0
0
0
0
0
0
0
0
0
0
0
0
0
0
0
0
0
0
0
0
0
0
0
0
0
0
0
0
0
0
0
0
0
0
0
0
0
0
0
0
0
0
0
0
0
0
0
0
0
0
0
0
0
0
0
0
0
0
0
0
0
0
0
0
0
0
0
0
0
0
0
0
0
0
0
0
0
0
0
0
0
0
0
0
0
0
0
0
0
0
0
0
0
0
0
0
0
0
0
0
0
0
0
0
0
0
0
0
0
0
0
0
0
0
0
0
0
0
0
0
0
0
0
0
0
0
0
0
0
0
0
0
0
0
0
0
0
0
0
0
0
0
0
0
0
0
0
0
0
0
0
0
0
0
0
0
0
0
0
0
0
0
0
0
0
0
0
0
0
0
0
0
0
0
0
0
0
0
0
0
0
0
0
0
0
0
0
0
0
0
0
0
0
0
0
0
0
0
0
0
0
0
0
0
0
0
0
0
0
0
0
0
0
0
0
0
0
0
0
0
0
0
0
0
0
0
0
0
0
0
0
0
0
0
0
0
0
0
0
0
0
0
0
0
0
0
0
0
0
0
0
0
0
0
0
0
0
0
0
0
0
0
0
0
0
0
0
0
0
0
0
0
0
0
0
0
0
0
0
0
0
0
0
0
0
0
0
0
0
0
0
0
0
0
0
0
0
0
0
0
0
0
0
0
0
0
0
0
0
0
0
0
0
0
0
0
0
0
0
0
0
0
0
0
0
0
0
0
0
0
0
0
0
0
0
0
0
0
0
0
0
0
0
0
0
0
0
0
0
0
0
0
0
0
0
0
0
0
0
0
0
0
0
0
0
0
0
0
0
0
0
0
0
0
0
0
0
0
0
0
0
0
0
0
0
0
0
0
0
0
0
0
0
0
0
0
0
0
0
0
0
0
0
0
0
0
0
0
0
0
0
0
0
0
0
0
0
0
0
0
0
0
0
0
0
0
0
0
0
0
0
0
0
0
0
0
0
0
0
0
0
0
0
0
0
0
0
0
0
0
0
0
0
0
0
0
0
0
0
0
0
0
0
0
0
0
0
0
0
0
0
0
0
0
0
0
0
0
0
0
0
0
0
0
0
0
0
0
0
0
0
0
0
0
0
0
0
0
0
0
0
0
0
0
0
0
0
0
0
0
0
0
0
0
0
0
0
0
0
0
0
0
0
0
0
0
0
0
0
0
0
0
0
0
0
0
0
0
0
0
0
0
0
0
0
0
0
0
0
0
0
0
0
0
0
0
0
0
0
0
0
0
0
0
0
0
0
0
0
0
0
0
0
0
0
0
0
0
0
0
0
0
0
0
0
0
0
0
0
0
0
0
0
0
0
0
0
0
0
0
0
0
0
0
0
1
1
1
1
1
1
1
1
1
1
1
1
1
1
1
1
1
1
1
1
1
1
1
1
1
1
1
1
1
1
2
2
2
2
2
2
2
2
2
2
2
2
2
2
2
2
2
2
2
2
2
2
2
2
2
2
2
2
2
2
3
3
3
3
3
3
3
3
3
3
3
3
3
3
3
3
3
3
3
3
3
3
3
3
3
3
3
3
3
3
4
4
4
4
4
4
4
4
4
4
4
4
4
4
4
4
4
4
4
4
4
4
4
4
4
4
4
4
4
4

LOOKUP_TABLE FreeFempp_table 5
1.00000000 0.00000000 0.00000000 1.00000000
1.00000000 1.00000000 0.00000000 1.00000000
1.00000000 0.00000000 1.00000000 1.00000000
0.00000000 1.00000000 0.00000000 1.00000000
0.00000000 1.00000000 1.00000000 1.00000000

POINT_DATA 961
FIELD FieldData 1
Density 1 961 float
7.94041276e-01 7.37365007e-01 6.82418108e-01 6.38700426e-01 6.12102211e-01 6.04586780e-01 6.01961792e-01 5.90377629e-01 5.85786521e-01 6.01743817e-01 6.18520617e-01 6.35486364e-01 6.74565196e-01 5.93277931e-01 3.87527913e-01 3.60384673e-01 4.06354040e-01 5.40382445e-01 6.29243076e-01 6.70493245e-01 6.28781557e-01 5.54430425e-01 4.42215502e-01 1.34636134e-01 1.52728241e-02 8.32392543e-04 1.41513045e-03 3.79228517e-02 4.61169094e-01 8.97347629e-01 9.34927106e-01 7.13367164e-01 6.38420403e-01 5.69131017e-01 5.26941836e-01 5.03535330e-01 4.90360200e-01 4.80411798e-01 4.67886925e-01 4.65285182e-01 4.84407514e-01 5.01709223e-01 5.13458014e-01 5.56086898e-01 4.89514381e-01 2.54205614e-01 2.91042954e-01 2.44508907e-01 3.83055180e-01 5.07116735e-01 5.75379491e-01 5.50136089e-01 4.64594722e-01 3.55045676e-01 1.04352705e-01 1.71603467e-02 9.69625718e-04 1.07329874e-03 2.30176002e-02 2.91504860e-01 8.64728034e-01 9.32453811e-01 6.08079195e-01 5.14091074e-01 4.67686266e-01 4.57558304e-01 4.54312682e-01 4.37623084e-01 4.10603672e-01 3.92426699e-01 3.93589526e-01 4.11003411e-01 4.21094269e-01 4.23677236e-01 4.62001532e-01 4.18515891e-01 1.99017256e-01 2.50942141e-01 2.29615673e-01 3.29210907e-01 4.41996843e-01 5.19435763e-01 5.15239179e-01 4.27009851e-01 2.75984317e-01 8.62291530e-02 1.94653589e-02 1.11421756e-03 7.23359408e-04 1.20461397e-02 1.62626624e-01 7.98794210e-01 9.13590133e-01 5.78996480e-01 4.63394582e-01 4.19867337e-01 4.18606251e-01 4.15332764e-01 3.97081077e-01 3.69671106e-01 3.54889154e-01 3.62696201e-01 3.81416380e-01 3.85368913e-01 3.76068503e-01 4.00736004e-01 3.64121735e-01 1.81881592e-01 2.14902937e-01 2.59471297e-01 3.72824430e-01 4.46706265e-01 5.39011061e-01 5.63065767e-01 4.69933391e-01 2.59700835e-01 8.81398171e-02 2.28070579e-02 1.24734826e-03 3.61253507e-04 4.81097773e-03 1.15738757e-01 7.65179038e-01 9.01366591e-01 6.13085866e-01 4.85303640e-01 4.09472615e-01 3.83154333e-01 3.58127594e-01 3.35480690e-01 3.20767224e-01 3.21687520e-01 3.37565690e-01 3.58282804e-01 3.59566867e-01 3.35042357e-01 3.40398073e-01 3.18790883e-01 1.74088597e-01 1.62559226e-01 2.42060974e-01 3.87805969e-01 4.41773295e-01 5.69519520e-01 6.43901765e-01 5.76489389e-01 3.56014132e-01 1.25188142e-01 3.04866899e-02 1.55831804e-03 1.98557638e-04 2.13560020e-03 7.99913332e-02 7.40162969e-01 8.95535469e-01 6.48464561e-01 5.21003425e-01 4.22259748e-01 3.82071376e-01 3.53849679e-01 3.33316803e-01 3.23567361e-01 3.28178972e-01 3.43921334e-01 3.59371573e-01 3.54275376e-01 3.19714934e-01 3.03946078e-01 3.17701608e-01 1.93411365e-01 1.32510826e-01 1.99949995e-01 3.61739486e-01 4.27379280e-01 5.89888096e-01 6.98838472e-01 6.46804810e-01 4.39401031e-01 1.68452501e-01 4.67317812e-02 3.13654006e-03 2.54419749e-04 1.51901937e-03 5.45010976e-02 6.81050062e-01 8.91464531e-01 6.74764037e-01 5.51626742e-01 4.43223774e-01 4.00234729e-01 3.80606622e-01 3.69820327e-01 3.64628822e-01 3.67587686e-01 3.77905041e-01 3.84374380e-01 3.70225489e-01 3.31634432e-01 3.00947517e-01 3.30783457e-01 2.96586543e-01 1.42129421e-01 1.53349817e-01 2.82778561e-01 3.84131581e-01 5.94916880e-01 7.24773765e-01 6.62847519e-01 4.64410603e-01 2.19247282e-01 1.00154936e-01 1.40928058e-02 7.49837665e-04 1.46868313e-03 4.08716537e-02 5.13760030e-01 8.77661645e-01 6.97981060e-01 5.82010329e-01 4.71319824e-01 4.27753896e-01 4.14803863e-01 4.12989825e-01 4.14418221e-01 4.19520557e-01 4.27928329e-01 4.29045707e-01 4.10015523e-01 3.74103308e-01 3.40295434e-01 3.63060206e-01 4.21377242e-01 2.63133109e-01 1.72434643e-01 2.64328420e-01 3.25398326e-01 5.45651972e-01 7.14624405e-01 6.45569265e-01 4.34351116e-01 2.28548601e-01 1.40788123e-01 3.48900855e-02 1.32711313e-03 1.38169585e-03 3.03209983e-02 2.61710584e-01 8.46131146e-01 7.18668282e-01 6.11651003e-01 5.02878368e-01 4.59422827e-01 4.50444371e-01 4.55167532e-01 4.63570952e-01 4.73526120e-01 4.83647525e-01 4.84807640e-01 4.68840241e-01 4.44345057e-01 4.20369297e-01 4.41274434e-01 5.68195701e-01 5.70744753e-01 4.15157020e-01 4.37274486e-01 4.76687938e-01 5.52069426e-01 6.77118897e-01 6.16230726e-01 4.12540615e-01 2.38385022e-01 1.77323312e-01 6.19555451e-02 1.73107500e-03 1.24644558e-03 2.39321720e-02 1.54625252e-01 8.25868309e-01 7.34391928e-01 6.35786474e-01 5.30504227e-01 4.87486690e-01 4.81136352e-01 4.90592837e-01 5.04879415e-01 5.19784927e-01 5.32877505e-01 5.36840737e-01 5.27798176e-01 5.16787052e-01 5.05862176e-01 5.27404487e-01 6.81084633e-01 8.03396821e-01 7.89261460e-01 7.60513186e-01 6.58518314e-01 6.03750587e-01 6.29626036e-01 5.74054301e-01 4.06782806e-01 2.62050986e-01 2.15201333e-01 8.92026201e-02 2.03806232e-03 1.20027270e-03 2.20737513e-02 1.35521248e-01 8.18040192e-01 7.43499279e-01 6.50865376e-01 5.48404098e-01 5.05460322e-01 5.00808895e-01 5.13560176e-01 5.32051682e-01 5.50789356e-01 5.66280663e-01 5.72127402e-01 5.66889286e-01 5.61434746e-01 5.54650903e-01 5.72013319e-01 7.21039712e-01 8.63154113e-01 8.78795087e-01 8.32148671e-01 7.10428536e-01 6.24547303e-01 5.97244620e-01 5.43290079e-01 4.17938620e-01 3.05833489e-01 2.58888364e-01 1.03453398e-01 2.17720587e-03 1.23134127e-03 2.32696980e-02 1.33657649e-01 7.99012423e-01 7.45957494e-01 6.56151414e-01 5.54663658e-01 5.11029840e-01 5.07269919e-01 5.22289455e-01 5.43537557e-01 5.64606249e-01 5.80841959e-01 5.85802019e-01 5.78722239e-01 5.69307268e-01 5.57929516e-01 5.71250200e-01 7.12801635e-01 8.63600433e-01 8.79934430e-01 7.95107007e-01 6.46672547e-01 5.81299424e-01 5.53563476e-01 5.13230681e-01 4.30116981e-01 3.57344627e-01 3.03506523e-01 9.87341106e-02 2.12360499e-03 1.24811020e-03 2.47640759e-02 1.38540134e-01 8.19785774e-01 7.42693365e-01 6.52796745e-01 5.50321341e-01 5.05285323e-01 5.01748562e-01 5.18333197e-01 5.41321874e-01 5.63331962e-01 5.78645349e-01 5.80508769e-01 5.67969024e-01 5.49742818e-01 5.31322956e-01 5.45367837e-01 6.82147324e-01 8.38919938e-01 8.51519227e-01 7.27825880e-01 5.58772862e-01 5.06137013e-01 4.94251072e-01 4.78552222e-01 4.38680500e-01 4.07603770e-01 3.39667112e-01 8.01737681e-02 1.90783211e-03 1.21627736e-03 2.55232081e-02 1.45486191e-01 8.26047301e-01 7.34810531e-01 6.42508566e-01 5.37528813e-01 4.90615577e-01 4.86790806e-01 5.04468441e-01 5.28592288e-01 5.50629377e-01 5.64132273e-01 5.62394619e-01 5.44239998e-01 5.18018484e-01 4.95729983e-01 5.15642643e-01 6.48144305e-01 8.01501155e-01 8.07118893e-01 6.60333514e-01 4.91334796e-01 4.43144113e-01 4.45760816e-01 4.56187427e-01 4.56403345e-01 4.57934320e-01 3.61990333e-01 6.20430931e-02 1.65552134e-03 1.17777893e-03 2.74672881e-02 1.98208079e-01 8.42261672e-01 7.23232687e-01 6.26810372e-01 5.18354118e-01 4.69253540e-01 4.64714378e-01 4.83202487e-01 5.08234441e-01 5.29981613e-01 5.41716158e-01 5.37412763e-01 5.16082704e-01 4.86223847e-01 4.65304255e-01 4.93554950e-01 6.19948983e-01 7.59249091e-01 7.56144822e-01 6.05083942e-01 4.49451953e-01 4.05238152e-01 4.21334863e-01 4.56080437e-01 4.90966678e-01 5.10156631e-01 3.68292749e-01 4.84546572e-02 1.44215231e-03 1.13551214e-03 2.79641710e-02 2.86683828e-01 8.64200056e-01 7.08798230e-01 6.07026935e-01 4.94614929e-01 4.43102151e-01 4.37396675e-01 4.56515372e-01 4.82501715e-01 5.04076898e-01 5.14637828e-01 5.09428561e-01 4.88069206e-01 4.59254146e-01 4.43461418e-01 4.78994995e-01 5.95874369e-01 7.14016736e-01 7.01363444e-01 5.57423532e-01 4.21745569e-01 3.86297435e-01 4.17309642e-01 4.74996120e-01 5.37818193e-01 5.58627903e-01 3.53591591e-01 3.89228910e-02 1.28169602e-03 1.10104994e-03 2.63957325e-02 3.08867693e-01 8.68495405e-01 6.92470789e-01 5.84589362e-01 4.68246192e-01 4.14296716e-01 4.06986415e-01 4.26552117e-01 4.53597665e-01 4.75204289e-01 4.85165268e-01 4.80383724e-01 4.61330980e-01 4.36581016e-01 4.26994324e-01 4.66098934e-01 5.69151223e-01 6.62516117e-01 6.39360726e-01 5.07948816e-01 3.96644115e-01 3.76338661e-01 4.25314158e-01 5.05077720e-01 5.87007463e-01 5.96563816e-01 3.17008764e-01 2.98316572e-02 1.13270700e-03 1.10921846e-03 2.67269649e-02 3.19296479e-01 8.69475782e-01 6.75291538e-01 5.61074913e-01 4.41329509e-01 3.85240674e-01 3.76101434e-01 3.95967603e-01 4.24071997e-01 4.45694655e-01 4.55200225e-01 4.51366633e-01 4.35638756e-01 4.16077912e-01 4.11787480e-01 4.49739277e-01 5.34575284e-01 6.01344764e-01 5.67691624e-01 4.53177750e-01 3.69185597e-01 3.68676513e-01 4.38664496e-01 5.39578140e-01 6.30327761e-01 6.21099710e-01 2.74605960e-01 2.11759843e-02 9.53541079e-04 1.15204148e-03 2.93408558e-02 3.50052744e-01 8.76384676e-01 6.58074915e-01 5.37892699e-01 4.15687472e-01 3.57980937e-01 3.47061008e-01 3.67251754e-01 3.96341294e-01 4.17676985e-01 4.26379979e-01 4.23252225e-01 4.10813838e-01 3.96328986e-01 3.95671278e-01 4.28366184e-01 4.91741985e-01 5.31765878e-01 4.90395665e-01 3.96815091e-01 3.40062529e-01 3.60580862e-01 4.53346968e-01 5.74074268e-01 6.64184749e-01 6.32525206e-01 2.45166957e-01 1.66440848e-02 8.23681417e-04 1.19855290e-03 3.25419419e-02 3.86307269e-01 8.81623685e-01 6.41169608e-01 5.16018331e-01 3.92511934e-01 3.33742619e-01 3.21307451e-01 3.42065126e-01 3.72086287e-01 3.92637342e-01 3.99870545e-01 3.96778077e-01 3.87050301e-01 3.77021700e-01 3.78545642e-01 4.03624326e-01 4.44900721e-01 4.61051434e-01 4.17320579e-01 3.45925599e-01 3.12634617e-01 3.52059692e-01 4.67547089e-01 6.06600702e-01 6.89694941e-01 6.29992604e-01 2.27713034e-01 1.55426422e-02 7.90518185e-04 1.21971918e-03 3.47485952e-02 4.20258284e-01 8.82362723e-01 6.24840558e-01 4.96390313e-01 3.72551858e-01 3.12937409e-01 2.99466729e-01 3.21318328e-01 3.52306843e-01 3.71502012e-01 3.76499981e-01 3.72678339e-01 3.64921659e-01 3.58627975e-01 3.61501008e-01 3.78704697e-01 4.00514871e-01 3.98970366e-01 3.58345479e-01 3.06773216e-01 2.91002065e-01 3.45469445e-01 4.82823968e-01 6.39520407e-01 7.12621868e-01 6.08358204e-01 2.00479165e-01 1.64229739e-02 8.34149832e-04 1.19679910e-03 3.55832465e-02 4.55550700e-01 8.79159868e-01 6.09603643e-01 4.80376273e-01 3.56960922e-01 2.96111524e-01 2.82110900e-01 3.05823743e-01 3.37927043e-01 3.55245441e-01 3.57362419e-01 3.52188289e-01 3.45671713e-01 3.42346340e-01 3.46225381e-01 3.56917948e-01 3.64209950e-01 3.52382749e-01 3.18355560e-01 2.82527357e-01 2.78452456e-01 3.44267100e-01 5.04329264e-01 6.80922508e-01 7.46754646e-01 5.80820739e-01 1.49196550e-01 1.73581932e-02 9.10419913e-04 1.11769128e-03 3.49835567e-02 5.11537194e-01 8.77668738e-01 5.96356869e-01 4.68484581e-01 3.46807301e-01 2.84789592e-01 2.70822436e-01 2.97118068e-01 3.30495656e-01 3.45601410e-01 3.44536036e-01 3.37696850e-01 3.31764996e-01 3.30501050e-01 3.35103184e-01 3.41236621e-01 3.39281559e-01 3.23106825e-01 2.96713948e-01 2.72598118e-01 2.75121063e-01 3.47894371e-01 5.32225430e-01 7.34633565e-01 8.05466294e-01 6.07209206e-01 1.12321749e-01 1.76129974e-02 9.86375147e-04 1.01466337e-03 3.38036604e-02 6.15112007e-01 8.93482327e-01 5.87141514e-01 4.60378140e-01 3.41914207e-01 2.80723125e-01 2.68034726e-01 2.97464550e-01 3.32258999e-01 3.45293969e-01 3.41398865e-01 3.33106279e-01 3.27344298e-01 3.27145815e-01 3.31912965e-01 3.35022956e-01 3.27702761e-01 3.10056150e-01 2.89780527e-01 2.73133636e-01 2.76608080e-01 3.47206950e-01 5.49732208e-01 7.84071922e-01 8.70590270e-01 7.22567618e-01 1.17335096e-01 1.81138590e-02 1.05319452e-03 8.97942577e-04 3.13347355e-02 7.29749739e-01 9.25936699e-01 5.79763174e-01 4.54646528e-01 3.41676116e-01 2.85203755e-01 2.76121944e-01 3.09144378e-01 3.45543444e-01 3.57535034e-01 3.52205157e-01 3.43521535e-01 3.38167518e-01 3.38400364e-01 3.42708379e-01 3.43655586e-01 3.32982987e-01 3.13507408e-01 2.94801146e-01 2.79567629e-01 2.77012259e-01 3.31356496e-01 5.31156182e-01 8.04860651e-01 9.11579251e-01 8.46679211e-01 1.75491244e-01 1.70518979e-02 1.03841245e-03 7.23134086e-04 2.40240078e-02 7.70179152e-01 9.46608543e-01 5.71813822e-01 4.50038016e-01 3.46955240e-01 3.00248176e-01 2.97724336e-01 3.34327161e-01 3.72072756e-01 3.84715199e-01 3.80398840e-01 3.73444438e-01 3.69912624e-01 3.71125668e-01 3.75274599e-01 3.75429660e-01 3.63282681e-01 3.40372235e-01 3.16150397e-01 2.93232322e-01 2.76809543e-01 3.03571880e-01 4.69454497e-01 7.83139825e-01 9.24786448e-01 9.04713690e-01 2.86917806e-01 1.00273611e-02 7.46865757e-04 5.81137079e-04 1.60320103e-02 7.25818932e-01 9.48146343e-01 5.62971711e-01 4.47469741e-01 3.61282229e-01 3.30398023e-01 3.36517602e-01 3.74377698e-01 4.11014289e-01 4.24912035e-01 4.23847049e-01 4.21041310e-01 4.21615154e-01 4.25763547e-01 4.31874335e-01 4.35253650e-01 4.28026289e-01 4.05953407e-01 3.72810215e-01 3.32488447e-01 2.92670876e-01 2.86158204e-01 3.95010948e-01 7.08980858e-01 9.09574211e-01 9.01625633e-01 3.12869042e-01 3.93738504e-03 2.68545089e-04 3.94478120e-04 1.10415025e-02 6.19448304e-01 9.34232175e-01 5.59841633e-01 4.53592449e-01 3.90767276e-01 3.80614579e-01 3.93354118e-01 4.25027937e-01 4.54168439e-01 4.66389060e-01 4.67535347e-01 4.68069166e-01 4.71821278e-01 4.78190720e-01 4.86937106e-01 4.98556793e-01 5.09728193e-01 5.10421216e-01 4.90059555e-01 4.44234610e-01 3.81442487e-01 3.38000596e-01 3.84117663e-01 6.13357484e-01 8.44954967e-01 8.28995883e-01 2.05236360e-01 2.86393031e-03 1.20184501e-04 1.76571892e-04 3.98344593e-03 4.36548382e-01 9.03684795e-01 6.01608515e-01 4.99741793e-01 4.51252848e-01 4.53243405e-01 4.61708754e-01 4.77688938e-01 4.94096130e-01 5.00888228e-01 4.98892635e-01 4.93897885e-01 4.88385588e-01 4.83166754e-01 4.83112544e-01 4.98729557e-01 5.39066017e-01 5.96298218e-01 6.43764377e-01 6.60192788e-01 6.44259572e-01 6.16657495e-01 6.25540316e-01 7.18331099e-01 8.23901236e-01 7.55097628e-01 1.81185797e-01 2.42579333e-03 4.50613559e-04 5.74581383e-04 2.49517872e-03 2.35567406e-01 8.49408805e-01 7.35436380e-01 6.48008108e-01 5.90650797e-01 5.74506581e-01 5.60533822e-01 5.58606982e-01 5.68229198e-01 5.75038016e-01 5.70234001e-01 5.52523077e-01 5.22217810e-01 4.83846396e-01 4.52594846e-01 4.52976853e-01 5.10079145e-01 6.27852917e-01 7.55990207e-01 8.40414822e-01 8.83766711e-01 9.07159507e-01 9.23786700e-01 9.38753784e-01 9.48518813e-01 9.20923710e-01 4.48411614e-01 5.85195608e-03 6.37381978e-04 3.69546772e-03 5.17176092e-03 3.26085418e-01 8.67038548e-01 8.07760119e-01 7.70343959e-01 7.19269216e-01 6.92448914e-01 6.64981842e-01 6.53651536e-01 6.62095189e-01 6.73105717e-01 6.72119081e-01 6.53558195e-01 6.14757180e-01 5.58788180e-01 5.04951000e-01 4.87754136e-01 5.39952099e-01 6.66871071e-01 8.06716681e-01 8.93168688e-01 9.33600187e-01 9.53172386e-01 9.64107931e-01 9.70426440e-01 9.72777247e-01 9.64016378e-01 8.10376883e-01 5.35786860e-02 9.66155785e-04 1.46544096e-03 7.26264296e-03 7.47251332e-01 9.60992694e-01 
