# vtk DataFile Version 2.0
results/9_density.vtk, Created by Freefem++ 
ASCII
DATASET UNSTRUCTURED_GRID
POINTS 961 float
0 0 0
0.033333333 0 0
0.066666667 0 0
0.1 0 0
0.13333333 0 0
0.16666667 0 0
0.2 0 0
0.23333333 0 0
0.26666667 0 0
0.3 0 0
0.33333333 0 0
0.36666667 0 0
0.4 0 0
0.43333333 0 0
0.46666667 0 0
0.5 0 0
0.53333333 0 0
0.56666667 0 0
0.6 0 0
0.63333333 0 0
0.66666667 0 0
0.7 0 0
0.73333333 0 0
0.76666667 0 0
0.8 0 0
0.83333333 0 0
0.86666667 0 0
0.9 0 0
0.93333333 0 0
0.96666667 0 0
1 0 0
0 0.033333333 0
0.033333333 0.033333333 0
0.066666667 0.033333333 0
0.1 0.033333333 0
0.13333333 0.033333333 0
0.16666667 0.033333333 0
0.2 0.033333333 0
0.23333333 0.033333333 0
0.26666667 0.033333333 0
0.3 0.033333333 0
0.33333333 0.033333333 0
0.36666667 0.033333333 0
0.4 0.033333333 0
0.43333333 0.033333333 0
0.46666667 0.033333333 0
0.5 0.033333333 0
0.53333333 0.033333333 0
0.56666667 0.033333333 0
0.6 0.033333333 0
0.63333333 0.033333333 0
0.66666667 0.033333333 0
0.7 0.033333333 0
0.73333333 0.033333333 0
0.76666667 0.033333333 0
0.8 0.033333333 0
0.83333333 0.033333333 0
0.86666667 0.033333333 0
0.9 0.033333333 0
0.93333333 0.033333333 0
0.96666667 0.033333333 0
1 0.033333333 0
0 0.066666667 0
0.033333333 0.066666667 0
0.066666667 0.066666667 0
0.1 0.066666667 0
0.13333333 0.066666667 0
0.16666667 0.066666667 0
0.2 0.066666667 0
0.23333333 0.066666667 0
0.26666667 0.066666667 0
0.3 0.066666667 0
0.33333333 0.066666667 0
0.36666667 0.066666667 0
0.4 0.066666667 0
0.43333333 0.066666667 0
0.46666667 0.066666667 0
0.5 0.066666667 0
0.53333333 0.066666667 0
0.56666667 0.066666667 0
0.6 0.066666667 0
0.63333333 0.066666667 0
0.66666667 0.066666667 0
0.7 0.066666667 0
0.73333333 0.066666667 0
0.76666667 0.066666667 0
0.8 0.066666667 0
0.83333333 0.066666667 0
0.86666667 0.066666667 0
0.9 0.066666667 0
0.93333333 0.066666667 0
0.96666667 0.066666667 0
1 0.066666667 0
0 0.1 0
0.033333333 0.1 0
0.066666667 0.1 0
0.1 0.1 0
0.13333333 0.1 0
0.16666667 0.1 0
0.2 0.1 0
0.23333333 0.1 0
0.26666667 0.1 0
0.3 0.1 0
0.33333333 0.1 0
0.36666667 0.1 0
0.4 0.1 0
0.43333333 0.1 0
0.46666667 0.1 0
0.5 0.1 0
0.53333333 0.1 0
0.56666667 0.1 0
0.6 0.1 0
0.63333333 0.1 0
0.66666667 0.1 0
0.7 0.1 0
0.73333333 0.1 0
0.76666667 0.1 0
0.8 0.1 0
0.83333333 0.1 0
0.86666667 0.1 0
0.9 0.1 0
0.93333333 0.1 0
0.96666667 0.1 0
1 0.1 0
0 0.13333333 0
0.033333333 0.13333333 0
0.066666667 0.13333333 0
0.1 0.13333333 0
0.13333333 0.13333333 0
0.16666667 0.13333333 0
0.2 0.13333333 0
0.23333333 0.13333333 0
0.26666667 0.13333333 0
0.3 0.13333333 0
0.33333333 0.13333333 0
0.36666667 0.13333333 0
0.4 0.13333333 0
0.43333333 0.13333333 0
0.46666667 0.13333333 0
0.5 0.13333333 0
0.53333333 0.13333333 0
0.56666667 0.13333333 0
0.6 0.13333333 0
0.63333333 0.13333333 0
0.66666667 0.13333333 0
0.7 0.13333333 0
0.73333333 0.13333333 0
0.76666667 0.13333333 0
0.8 0.13333333 0
0.83333333 0.13333333 0
0.86666667 0.13333333 0
0.9 0.13333333 0
0.93333333 0.13333333 0
0.96666667 0.13333333 0
1 0.13333333 0
0 0.16666667 0
0.033333333 0.16666667 0
0.066666667 0.16666667 0
0.1 0.16666667 0
0.13333333 0.16666667 0
0.16666667 0.16666667 0
0.2 0.16666667 0
0.23333333 0.16666667 0
0.26666667 0.16666667 0
0.3 0.16666667 0
0.33333333 0.16666667 0
0.36666667 0.16666667 0
0.4 0.16666667 0
0.43333333 0.16666667 0
0.46666667 0.16666667 0
0.5 0.16666667 0
0.53333333 0.16666667 0
0.56666667 0.16666667 0
0.6 0.16666667 0
0.63333333 0.16666667 0
0.66666667 0.16666667 0
0.7 0.16666667 0
0.73333333 0.16666667 0
0.76666667 0.16666667 0
0.8 0.16666667 0
0.83333333 0.16666667 0
0.86666667 0.16666667 0
0.9 0.16666667 0
0.93333333 0.16666667 0
0.96666667 0.16666667 0
1 0.16666667 0
0 0.2 0
0.033333333 0.2 0
0.066666667 0.2 0
0.1 0.2 0
0.13333333 0.2 0
0.16666667 0.2 0
0.2 0.2 0
0.23333333 0.2 0
0.26666667 0.2 0
0.3 0.2 0
0.33333333 0.2 0
0.36666667 0.2 0
0.4 0.2 0
0.43333333 0.2 0
0.46666667 0.2 0
0.5 0.2 0
0.53333333 0.2 0
0.56666667 0.2 0
0.6 0.2 0
0.63333333 0.2 0
0.66666667 0.2 0
0.7 0.2 0
0.73333333 0.2 0
0.76666667 0.2 0
0.8 0.2 0
0.83333333 0.2 0
0.86666667 0.2 0
0.9 0.2 0
0.93333333 0.2 0
0.96666667 0.2 0
1 0.2 0
0 0.23333333 0
0.033333333 0.23333333 0
0.066666667 0.23333333 0
0.1 0.23333333 0
0.13333333 0.23333333 0
0.16666667 0.23333333 0
0.2 0.23333333 0
0.23333333 0.23333333 0
0.26666667 0.23333333 0
0.3 0.23333333 0
0.33333333 0.23333333 0
0.36666667 0.23333333 0
0.4 0.23333333 0
0.43333333 0.23333333 0
0.46666667 0.23333333 0
0.5 0.23333333 0
0.53333333 0.23333333 0
0.56666667 0.23333333 0
0.6 0.23333333 0
0.63333333 0.23333333 0
0.66666667 0.23333333 0
0.7 0.23333333 0
0.73333333 0.23333333 0
0.76666667 0.23333333 0
0.8 0.23333333 0
0.83333333 0.23333333 0
0.86666667 0.23333333 0
0.9 0.23333333 0
0.93333333 0.23333333 0
0.96666667 0.23333333 0
1 0.23333333 0
0 0.26666667 0
0.033333333 0.26666667 0
0.066666667 0.26666667 0
0.1 0.26666667 0
0.13333333 0.26666667 0
0.16666667 0.26666667 0
0.2 0.26666667 0
0.23333333 0.26666667 0
0.26666667 0.26666667 0
0.3 0.26666667 0
0.33333333 0.26666667 0
0.36666667 0.26666667 0
0.4 0.26666667 0
0.43333333 0.26666667 0
0.46666667 0.26666667 0
0.5 0.26666667 0
0.53333333 0.26666667 0
0.56666667 0.26666667 0
0.6 0.26666667 0
0.63333333 0.26666667 0
0.66666667 0.26666667 0
0.7 0.26666667 0
0.73333333 0.26666667 0
0.76666667 0.26666667 0
0.8 0.26666667 0
0.83333333 0.26666667 0
0.86666667 0.26666667 0
0.9 0.26666667 0
0.93333333 0.26666667 0
0.96666667 0.26666667 0
1 0.26666667 0
0 0.3 0
0.033333333 0.3 0
0.066666667 0.3 0
0.1 0.3 0
0.13333333 0.3 0
0.16666667 0.3 0
0.2 0.3 0
0.23333333 0.3 0
0.26666667 0.3 0
0.3 0.3 0
0.33333333 0.3 0
0.36666667 0.3 0
0.4 0.3 0
0.43333333 0.3 0
0.46666667 0.3 0
0.5 0.3 0
0.53333333 0.3 0
0.56666667 0.3 0
0.6 0.3 0
0.63333333 0.3 0
0.66666667 0.3 0
0.7 0.3 0
0.73333333 0.3 0
0.76666667 0.3 0
0.8 0.3 0
0.83333333 0.3 0
0.86666667 0.3 0
0.9 0.3 0
0.93333333 0.3 0
0.96666667 0.3 0
1 0.3 0
0 0.33333333 0
0.033333333 0.33333333 0
0.066666667 0.33333333 0
0.1 0.33333333 0
0.13333333 0.33333333 0
0.16666667 0.33333333 0
0.2 0.33333333 0
0.23333333 0.33333333 0
0.26666667 0.33333333 0
0.3 0.33333333 0
0.33333333 0.33333333 0
0.36666667 0.33333333 0
0.4 0.33333333 0
0.43333333 0.33333333 0
0.46666667 0.33333333 0
0.5 0.33333333 0
0.53333333 0.33333333 0
0.56666667 0.33333333 0
0.6 0.33333333 0
0.63333333 0.33333333 0
0.66666667 0.33333333 0
0.7 0.33333333 0
0.73333333 0.33333333 0
0.76666667 0.33333333 0
0.8 0.33333333 0
0.83333333 0.33333333 0
0.86666667 0.33333333 0
0.9 0.33333333 0
0.93333333 0.33333333 0
0.96666667 0.33333333 0
1 0.33333333 0
0 0.36666667 0
0.033333333 0.36666667 0
0.066666667 0.36666667 0
0.1 0.36666667 0
0.13333333 0.36666667 0
0.16666667 0.36666667 0
0.2 0.36666667 0
0.23333333 0.36666667 0
0.26666667 0.36666667 0
0.3 0.36666667 0
0.33333333 0.36666667 0
0.36666667 0.36666667 0
0.4 0.36666667 0
0.43333333 0.36666667 0
0.46666667 0.36666667 0
0.5 0.36666667 0
0.53333333 0.36666667 0
0.56666667 0.36666667 0
0.6 0.36666667 0
0.63333333 0.36666667 0
0.66666667 0.36666667 0
0.7 0.36666667 0
0.73333333 0.36666667 0
0.76666667 0.36666667 0
0.8 0.36666667 0
0.83333333 0.36666667 0
0.86666667 0.36666667 0
0.9 0.36666667 0
0.93333333 0.36666667 0
0.96666667 0.36666667 0
1 0.36666667 0
0 0.4 0
0.033333333 0.4 0
0.066666667 0.4 0
0.1 0.4 0
0.13333333 0.4 0
0.16666667 0.4 0
0.2 0.4 0
0.23333333 0.4 0
0.26666667 0.4 0
0.3 0.4 0
0.33333333 0.4 0
0.36666667 0.4 0
0.4 0.4 0
0.43333333 0.4 0
0.46666667 0.4 0
0.5 0.4 0
0.53333333 0.4 0
0.56666667 0.4 0
0.6 0.4 0
0.63333333 0.4 0
0.66666667 0.4 0
0.7 0.4 0
0.73333333 0.4 0
0.76666667 0.4 0
0.8 0.4 0
0.83333333 0.4 0
0.86666667 0.4 0
0.9 0.4 0
0.93333333 0.4 0
0.96666667 0.4 0
1 0.4 0
0 0.43333333 0
0.033333333 0.43333333 0
0.066666667 0.43333333 0
0.1 0.43333333 0
0.13333333 0.43333333 0
0.16666667 0.43333333 0
0.2 0.43333333 0
0.23333333 0.43333333 0
0.26666667 0.43333333 0
0.3 0.43333333 0
0.33333333 0.43333333 0
0.36666667 0.43333333 0
0.4 0.43333333 0
0.43333333 0.43333333 0
0.46666667 0.43333333 0
0.5 0.43333333 0
0.53333333 0.43333333 0
0.56666667 0.43333333 0
0.6 0.43333333 0
0.63333333 0.43333333 0
0.66666667 0.43333333 0
0.7 0.43333333 0
0.73333333 0.43333333 0
0.76666667 0.43333333 0
0.8 0.43333333 0
0.83333333 0.43333333 0
0.86666667 0.43333333 0
0.9 0.43333333 0
0.93333333 0.43333333 0
0.96666667 0.43333333 0
1 0.43333333 0
0 0.46666667 0
0.033333333 0.46666667 0
0.066666667 0.46666667 0
0.1 0.46666667 0
0.13333333 0.46666667 0
0.16666667 0.46666667 0
0.2 0.46666667 0
0.23333333 0.46666667 0
0.26666667 0.46666667 0
0.3 0.46666667 0
0.33333333 0.46666667 0
0.36666667 0.46666667 0
0.4 0.46666667 0
0.43333333 0.46666667 0
0.46666667 0.46666667 0
0.5 0.46666667 0
0.53333333 0.46666667 0
0.56666667 0.46666667 0
0.6 0.46666667 0
0.63333333 0.46666667 0
0.66666667 0.46666667 0
0.7 0.46666667 0
0.73333333 0.46666667 0
0.76666667 0.46666667 0
0.8 0.46666667 0
0.83333333 0.46666667 0
0.86666667 0.46666667 0
0.9 0.46666667 0
0.93333333 0.46666667 0
0.96666667 0.46666667 0
1 0.46666667 0
0 0.5 0
0.033333333 0.5 0
0.066666667 0.5 0
0.1 0.5 0
0.13333333 0.5 0
0.16666667 0.5 0
0.2 0.5 0
0.23333333 0.5 0
0.26666667 0.5 0
0.3 0.5 0
0.33333333 0.5 0
0.36666667 0.5 0
0.4 0.5 0
0.43333333 0.5 0
0.46666667 0.5 0
0.5 0.5 0
0.53333333 0.5 0
0.56666667 0.5 0
0.6 0.5 0
0.63333333 0.5 0
0.66666667 0.5 0
0.7 0.5 0
0.73333333 0.5 0
0.76666667 0.5 0
0.8 0.5 0
0.83333333 0.5 0
0.86666667 0.5 0
0.9 0.5 0
0.93333333 0.5 0
0.96666667 0.5 0
1 0.5 0
0 0.53333333 0
0.033333333 0.53333333 0
0.066666667 0.53333333 0
0.1 0.53333333 0
0.13333333 0.53333333 0
0.16666667 0.53333333 0
0.2 0.53333333 0
0.23333333 0.53333333 0
0.26666667 0.53333333 0
0.3 0.53333333 0
0.33333333 0.53333333 0
0.36666667 0.53333333 0
0.4 0.53333333 0
0.43333333 0.53333333 0
0.46666667 0.53333333 0
0.5 0.53333333 0
0.53333333 0.53333333 0
0.56666667 0.53333333 0
0.6 0.53333333 0
0.63333333 0.53333333 0
0.66666667 0.53333333 0
0.7 0.53333333 0
0.73333333 0.53333333 0
0.76666667 0.53333333 0
0.8 0.53333333 0
[...]
CELL_DATA 1920
Scalars  Label int 1
LOOKUP_TABLE FreeFempp_table
0
0
0
0
0
0
0
0
0
0
0
0
0
0
0
0
0
0
0
0
0
0
0
0
0
0
0
0
0
0
0
0
0
0
0
0
0
0
0
0
0
0
0
0
0
0
0
0
0
0
0
0
0
0
0
0
0
0
0
0
0
0
0
0
0
0
0
0
0
0
0
0
0
0
0
0
0
0
0
0
0
0
0
0
0
0
0
0
0
0
0
0
0
0
0
0
0
0
0
0
0
0
0
0
0
0
0
0
0
0
0
0
0
0
0
0
0
0
0
0
0
0
0
0
0
0
0
0
0
0
0
0
0
0
0
0
0
0
0
0
0
0
0
0
0
0
0
0
0
0
0
0
0
0
0
0
0
0
0
0
0
0
0
0
0
0
0
0
0
0
0
0
0
0
0
0
0
0
0
0
0
0
0
0
0
0
0
0
0
0
0
0
0
0
0
0
0
0
0
0
0
0
0
0
0
0
0
0
0
0
0
0
0
0
0
0
0
0
0
0
0
0
0
0
0
0
0
0
0
0
0
0
0
0
0
0
0
0
0
0
0
0
0
0
0
0
0
0
0
0
0
0
0
0
0
0
0
0
0
0
0
0
0
0
0
0
0
0
0
0
0
0
0
0
0
0
0
0
0
0
0
0
0
0
0
0
0
0
0
0
0
0
0
0
0
0
0
0
0
0
0
0
0
0
0
0
0
0
0
0
0
0
0
0
0
0
0
0
0
0
0
0
0
0
0
0
0
0
0
0
0
0
0
0
0
0
0
0
0
0
0
0
0
0
0
0
0
0
0
0
0
0
0
0
0
0
0
0
0
0
0
0
0
0
0
0
0
0
0
0
0
0
0
0
0
0
0
0
0
0
0
0
0
0
0
0
0
0
0
0
0
0
0
0
0
0
0
0
0
0
0
0
0
0
0
0
0
0
0
0
0
0
0
0
0
0
0
0
0
0
0
0
0
0
0
0
0
0
0
0
0
0
0
0
0
0
0
0
0
0
0
0
0
0
0
0
0
0
0
0
0
0
0
0
0
0
0
0
0
0
0
0
0
0
0
0
0
0
0
0
0
0
0
0
0
0
0
0
0
0
0
0
0
0
0
0
0
0
0
0
0
0
0
0
0
0
0
0
0
0
0
0
0
0
0
0
0
0
0
0
0
0
0
0
0
0
0
0
0
0
0
0
0
0
0
0
0
0
0
0
0
0
0
0
0
0
0
0
0
0
0
0
0
0
0
0
0
0
0
0
0
0
0
0
0
0
0
0
0
0
0
0
0
0
0
0
0
0
0
0
0
0
0
0
0
0
0
0
0
0
0
0
0
0
0
0
0
0
0
0
0
0
0
0
0
0
0
0
0
0
0
0
0
0
0
0
0
0
0
0
0
0
0
0
0
0
0
0
0
0
0
0
0
0
0
0
0
0
0
0
0
0
0
0
0
0
0
0
0
0
0
0
0
0
0
0
0
0
0
0
0
0
0
0
0
0
0
0
0
0
0
0
0
0
0
0
0
0
0
0
0
0
0
0
0
0
0
0
0
0
0
0
0
0
0
0
0
0
0
0
0
0
0
0
0
0
0
0
0
0
0
0
0
0
0
0
0
0
0
0
0
0
0
0
0
0
0
0
0
0
0
0
0
0
0
0
0
0
0
0
0
0
0
0
0
0
0
0
0
0
0
0
0
0
0
0
0
0
0
0
0
0
0
0
0
0
0
0
0
0
0
0
0
0
0
0
0
0
0
0
0
0
0
0
0
0
0
0
0
0
0
0
0
0
0
0
0
0
0
0
0
0
0
0
0
0
0
0
0
0
0
0
0
0
0
0
0
0
0
0
0
0
0
0
0
0
0
0
0
0
0
0
0
0
0
0
0
0
0
0
0
0
0
0
0
0
0
0
0
0
0
0
0
0
0
0
0
0
0
0
0
0
0
0
0
0
0
0
0
0
0
0
0
0
0
0
0
0
0
0
0
0
0
0
0
0
0
0
0
0
0
0
0
0
0
0
0
0
0
0
0
0
0
0
0
0
0
0
0
0
0
0
0
0
0
0
0
0
0
0
0
0
0
0
0
0
0
0
0
0
0
0
0
0
0
0
0
0
0
0
0
0
0
0
0
0
0
0
0
0
0
0
0
0
0
0
0
0
0
0
0
0
0
0
0
0
0
0
0
0
0
0
0
0
0
0
0
0
0
0
0
0
0
0
0
0
0
0
0
0
0
0
0
0
0
0
0
0
0
0
0
0
0
0
0
0
0
0
0
0
0
0
0
0
0
0
0
0
0
0
0
0
0
0
0
0
0
0
0
0
0
0
0
0
0
0
0
0
0
0
0
0
0
0
0
0
0
0
0
0
0
0
0
0
0
0
0
0
0
0
0
0
0
0
0
0
0
0
0
0
0
0
0
0
0
0
0
0
0
0
0
0
0
0
0
0
0
0
0
0
0
0
0
0
0
0
0
0
0
0
0
0
0
0
0
0
0
0
0
0
0
0
0
0
0
0
0
0
0
0
0
0
0
0
0
0
0
0
0
0
0
0
0
0
0
0
0
0
0
0
0
0
0
0
0
0
0
0
0
0
0
0
0
0
0
0
0
0
0
0
0
0
0
0
0
0
0
0
0
0
0
0
0
0
0
0
0
0
0
0
0
0
0
0
0
0
0
0
0
0
0
0
0
0
0
0
0
0
0
0
0
0
0
0
0
0
0
0
0
0
0
0
0
0
0
0
0
0
0
0
0
0
0
0
0
0
0
0
0
0
0
0
0
0
0
0
0
0
0
0
0
0
0
0
0
0
0
0
0
0
0
0
0
0
0
0
0
0
0
0
0
0
0
0
0
0
0
0
0
0
0
0
0
0
0
0
0
0
0
0
0
0
0
0
0
0
0
0
0
0
0
0
0
0
0
0
0
0
0
0
0
0
0
0
0
0
0
0
0
0
0
0
0
0
0
0
0
0
0
0
0
0
0
0
0
0
0
0
0
0
0
0
0
0
0
0
0
0
0
0
0
0
0
0
0
0
0
0
0
0
0
0
0
0
0
0
0
0
0
0
0
0
0
0
0
0
0
0
0
0
0
0
0
0
0
0
0
0
0
0
0
0
0
0
0
0
0
0
0
0
0
0
0
0
0
0
0
0
0
0
0
0
0
0
0
0
0
0
0
0
0
0
0
0
0
0
0
0
0
0
0
0
0
0
0
0
0
0
0
0
0
0
0
0
0
0
0
0
0
0
0
0
0
0
0
0
0
0
0
0
0
0
0
0
0
0
0
0
0
0
0
0
0
0
0
0
0
0
0
0
0
0
0
0
0
0
0
0
0
0
0
0
0
0
0
0
0
0
0
0
0
0
0
0
0
0
0
0
0
0
0
0
0
0
0
0
0
0
0
0
0
0
0
0
0
0
0
0
0
0
0
0
0
0
0
0
0
0
0
0
0
0
0
0
0
0
0
0
0
0
0
0
0
0
0
0
0
0
0
0
0
0
0
0
0
0
0
0
0
0
0
0
0
0
0
0
0
0
0
0
0
0
0
0
0
0
0
0
0
0
0
0
0
0
0
0
0
0
0
0
0
0
0
0
0
0
0
0
0
0
0
0
0
0
0
0
0
0
0
0
0
0
0
0
0
0
0
0
0
0
0
0
0
0
0
0
0
0
0
0
0
0
0
0
0
0
0
0
0
0
0
0
0
0
0
0
0
0
0
0
0
0
0
0
0
0
0
0
0
0
0
0
0
0
0
0
0
0
0
0
0
0
0
0
0
0
0
0
0
0
0
0
0
0
0
0
0
0
0
0
0
0
0
0
0
0
0
0
0
0
0
0
0
0
0
0
0
0
0
0
0
0
0
0
0
0
0
0
0
0
0
0
0
0
0
0
0
0
0
0
0
0
0
0
0
0
0
0
0
0
0
0
0
0
0
0
0
0
0
0
0
0
0
0
0
0
0
0
0
0
0
0
0
0
0
0
0
0
0
0
0
0
0
0
0
0
0
0
0
0
0
0
0
0
0
0
0
0
0
0
0
0
0
0
0
0
0
0
0
0
0
0
0
0
0
0
0
0
0
0
1
1
1
1
1
1
1
1
1
1
1
1
1
1
1
1
1
1
1
1
1
1
1
1
1
1
1
1
1
1
2
2
2
2
2
2
2
2
2
2
2
2
2
2
2
2
2
2
2
2
2
2
2
2
2
2
2
2
2
2
3
3
3
3
3
3
3
3
3
3
3
3
3
3
3
3
3
3
3
3
3
3
3
3
3
3
3
3
3
3
4
4
4
4
4
4
4
4
4
4
4
4
4
4
4
4
4
4
4
4
4
4
4
4
4
4
4
4
4
4

LOOKUP_TABLE FreeFempp_table 5
1.00000000 0.00000000 0.00000000 1.00000000
1.00000000 1.00000000 0.00000000 1.00000000
1.00000000 0.00000000 1.00000000 1.00000000
0.00000000 1.00000000 0.00000000 1.00000000
0.00000000 1.00000000 1.00000000 1.00000000

POINT_DATA 961
FIELD FieldData 1
Density 1 961 float
5.54136515e-01 5.12231469e-01 5.02076328e-01 5.00948310e-01 5.01105130e-01 5.01490355e-01 5.01940072e-01 5.02423346e-01 5.02921820e-01 5.03447711e-01 5.04011691e-01 5.04517674e-01 5.05012691e-01 5.05996227e-01 5.07279932e-01 5.08090734e-01 5.08460820e-01 5.08451581e-01 5.08429825e-01 5.08664846e-01 5.09527326e-01 5.11188030e-01 5.13674736e-01 5.27144074e-01 2.54649818e-01 2.91204033e-03 4.39568376e-03 2.85722464e-01 4.96289611e-01 5.36936224e-01 5.81901908e-01 5.14992058e-01 4.51415479e-01 4.32197392e-01 4.30590183e-01 4.30654168e-01 4.31060761e-01 4.31578398e-01 4.32144046e-01 4.32728499e-01 4.33345854e-01 4.34023350e-01 4.34664130e-01 4.35240954e-01 4.36251372e-01 4.37702417e-01 4.38508958e-01 4.38779384e-01 4.38396305e-01 4.37801361e-01 4.37233478e-01 4.36984241e-01 4.37149167e-01 4.36920762e-01 4.31895614e-01 2.09810615e-01 3.20280739e-03 3.21539515e-03 2.14967847e-01 4.37495649e-01 4.71180677e-01 5.37997961e-01 5.07212579e-01 4.35635686e-01 4.11446154e-01 4.10582364e-01 4.10573751e-01 4.10812467e-01 4.11202341e-01 4.11665976e-01 4.12155181e-01 4.12676841e-01 4.13264602e-01 4.13833439e-01 4.14296508e-01 4.15080667e-01 4.16311562e-01 4.16754901e-01 4.16438878e-01 4.15274590e-01 4.13562298e-01 4.11416531e-01 4.08963084e-01 4.06337827e-01 4.04021651e-01 3.98978800e-01 1.90549895e-01 2.98577501e-03 3.07940925e-03 2.01304346e-01 4.13523227e-01 4.44715500e-01 5.13974667e-01 5.06531298e-01 4.34648573e-01 4.10920382e-01 4.11190450e-01 4.11446601e-01 4.11676466e-01 4.12000269e-01 4.12382901e-01 4.12790626e-01 4.13237035e-01 4.13755953e-01 4.14280891e-01 4.14692819e-01 4.15315419e-01 4.16357487e-01 4.16602045e-01 4.15916592e-01 4.14290547e-01 4.11902457e-01 4.08607721e-01 4.04376298e-01 3.99381936e-01 3.95088851e-01 3.91086876e-01 1.90726131e-01 3.14478972e-03 3.20742838e-03 1.96025699e-01 4.12874132e-01 4.46038663e-01 5.16093373e-01 5.06459892e-01 4.34446603e-01 4.10468906e-01 4.10877734e-01 4.11331743e-01 4.11674708e-01 4.12032962e-01 4.12409186e-01 4.12797332e-01 4.13225591e-01 4.13732797e-01 4.14278954e-01 4.14736241e-01 4.15294617e-01 4.16246623e-01 4.16558355e-01 4.15891826e-01 4.14308131e-01 4.11955714e-01 4.08469945e-01 4.03713495e-01 3.97566408e-01 3.89512867e-01 3.73167217e-01 1.77646935e-01 3.41021339e-03 2.15125969e-03 1.27446726e-01 3.92664224e-01 4.42169428e-01 5.15567899e-01 5.06339550e-01 4.34287816e-01 4.10141110e-01 4.10492539e-01 4.11034286e-01 4.11472470e-01 4.11888003e-01 4.12302166e-01 4.12721425e-01 4.13180649e-01 4.13726300e-01 4.14346784e-01 4.14934844e-01 4.15527493e-01 4.16447282e-01 4.17040825e-01 4.16783184e-01 4.15721327e-01 4.14174736e-01 4.11767095e-01 4.08530712e-01 4.04381126e-01 3.97271812e-01 3.74881446e-01 2.31610760e-01 7.12844031e-03 6.75192277e-04 1.14133935e-02 2.74642378e-01 4.26553369e-01 5.08836031e-01 5.06098509e-01 4.34025228e-01 4.09819871e-01 4.10100162e-01 4.10650432e-01 4.11130518e-01 4.11587059e-01 4.12044257e-01 4.12512302e-01 4.13025945e-01 4.13634807e-01 4.14350599e-01 4.15102512e-01 4.15833056e-01 4.16742176e-01 4.17726249e-01 4.18053269e-01 4.17727262e-01 4.17208970e-01 4.16249156e-01 4.15038019e-01 4.13782775e-01 4.11237270e-01 4.01766151e-01 3.70682120e-01 1.12828851e-01 1.93208421e-03 3.96244554e-03 2.12571427e-01 4.29957539e-01 5.05738437e-01 5.05742908e-01 4.33638036e-01 4.09440756e-01 4.09673274e-01 4.10205454e-01 4.10697371e-01 4.11174297e-01 4.11657959e-01 4.12162721e-01 4.12724227e-01 4.13387865e-01 4.14172888e-01 4.15046662e-01 4.15936530e-01 4.16915417e-01 4.18072909e-01 4.18914139e-01 4.19176280e-01 4.19376433e-01 4.19290721e-01 4.19016987e-01 4.18731630e-01 4.17589903e-01 4.13157463e-01 4.05316502e-01 1.98931471e-01 3.22816777e-03 3.31857102e-03 2.13632122e-01 4.42788482e-01 5.08729100e-01 5.05300641e-01 4.33150589e-01 4.08998340e-01 4.09202904e-01 4.09706742e-01 4.10189360e-01 4.10664648e-01 4.11153167e-01 4.11673099e-01 4.12259966e-01 4.12950099e-01 4.13755447e-01 4.14665014e-01 4.15612668e-01 4.16587770e-01 4.17719692e-01 4.18738544e-01 4.19318408e-01 4.19759721e-01 4.19932306e-01 4.19620097e-01 4.18745011e-01 4.16701406e-01 4.12157804e-01 4.07199204e-01 2.04346508e-01 3.13230953e-03 3.16577521e-03 2.15677485e-01 4.47323829e-01 5.11814594e-01 5.04803538e-01 4.32598293e-01 4.08514738e-01 4.08704191e-01 4.09172982e-01 4.09629792e-01 4.10082906e-01 4.10554200e-01 4.11065489e-01 4.11650240e-01 4.12335306e-01 4.13123071e-01 4.14010346e-01 4.14927393e-01 4.15773869e-01 4.16704863e-01 4.17707026e-01 4.18362617e-01 4.18793738e-01 4.18833137e-01 4.18201327e-01 4.16582316e-01 4.13773894e-01 4.09348726e-01 4.06108111e-01 2.04902500e-01 3.10468907e-03 3.15897935e-03 2.15093717e-01 4.47475106e-01 5.13055742e-01 5.04278719e-01 4.32013810e-01 4.08018053e-01 4.08202022e-01 4.08630759e-01 4.09049034e-01 4.09463435e-01 4.09898013e-01 4.10377413e-01 4.10932839e-01 4.11584377e-01 4.12330091e-01 4.13171500e-01 4.14041668e-01 4.14758354e-01 4.15464103e-01 4.16345477e-01 4.16957468e-01 4.17305470e-01 4.17105615e-01 4.16236967e-01 4.14370328e-01 4.11594719e-01 4.08091336e-01 4.06742364e-01 2.06422403e-01 3.11015337e-03 3.16574890e-03 2.16019005e-01 4.47280616e-01 5.13248265e-01 5.03746271e-01 4.31422889e-01 4.07532454e-01 4.07719135e-01 4.08104032e-01 4.08473551e-01 4.08835918e-01 4.09217209e-01 4.09643739e-01 4.10144359e-01 4.10735339e-01 4.11415219e-01 4.12186742e-01 4.12988394e-01 4.13603336e-01 4.14080352e-01 4.14782733e-01 4.15391028e-01 4.15707946e-01 4.15415108e-01 4.14541960e-01 4.12902504e-01 4.10710007e-01 4.08336282e-01 4.08411890e-01 2.07810432e-01 3.11552081e-03 3.17020528e-03 2.17428759e-01 4.47645426e-01 5.13188422e-01 5.03221154e-01 4.30845916e-01 4.07077104e-01 4.07273233e-01 4.07611489e-01 4.07923698e-01 4.08222377e-01 4.08535779e-01 4.08890218e-01 4.09311920e-01 4.09815639e-01 4.10402507e-01 4.11072046e-01 4.11759198e-01 4.12262857e-01 4.12561893e-01 4.13109392e-01 4.13762599e-01 4.14083242e-01 4.13901120e-01 4.13270414e-01 4.12138134e-01 4.10749197e-01 4.09405380e-01 4.10337776e-01 2.08830729e-01 3.11729521e-03 3.16957757e-03 2.18068838e-01 4.47732717e-01 5.13082623e-01 5.02717555e-01 4.30301785e-01 4.06670123e-01 4.06880975e-01 4.07170445e-01 4.07418102e-01 4.07642424e-01 4.07874346e-01 4.08139110e-01 4.08459753e-01 4.08850849e-01 4.09316808e-01 4.09851819e-01 4.10386354e-01 4.10763323e-01 4.10980403e-01 4.11474109e-01 4.12145615e-01 4.12529409e-01 4.12562132e-01 4.12316442e-01 4.11815077e-01 4.11264002e-01 4.10797596e-01 4.12234575e-01 2.09602177e-01 3.11750453e-03 3.16621922e-03 2.18136042e-01 4.47353065e-01 5.12873471e-01 5.02251446e-01 4.29811925e-01 4.06332672e-01 4.06562477e-01 4.06801671e-01 4.06979114e-01 4.07119989e-01 4.07258660e-01 4.07419026e-01 4.07620311e-01 4.07876849e-01 4.08195794e-01 4.08566147e-01 4.08920527e-01 4.09156352e-01 4.09326702e-01 4.09805000e-01 4.10508543e-01 4.11040515e-01 4.11350012e-01 4.11545396e-01 4.11704987e-01 4.11962777e-01 4.12259132e-01 4.14110571e-01 2.10391462e-01 3.11975391e-03 3.16314003e-03 2.17936009e-01 4.46716279e-01 5.12521565e-01 5.01842439e-01 4.29402173e-01 4.06091571e-01 4.06344205e-01 4.06532526e-01 4.06636268e-01 4.06687319e-01 4.06724364e-01 4.06770051e-01 4.06839401e-01 4.06945258e-01 4.07094985e-01 4.07273620e-01 4.07422930e-01 4.07496005e-01 4.07603383e-01 4.08056468e-01 4.08811510e-01 4.09545302e-01 4.10170019e-01 4.10825312e-01 4.11644369e-01 4.12682056e-01 4.13699865e-01 4.16088879e-01 2.11532295e-01 3.12687573e-03 3.16252490e-03 2.17599839e-01 4.45986331e-01 5.11994541e-01 5.01512945e-01 4.29102749e-01 4.05978888e-01 4.06258434e-01 4.06396776e-01 4.06426013e-01 4.06384557e-01 4.06315804e-01 4.06241477e-01 4.06172186e-01 4.06117409e-01 4.06081825e-01 4.06047195e-01 4.05968964e-01 4.05850857e-01 4.05855328e-01 4.06259596e-01 4.07060206e-01 4.07987207e-01 4.08923894e-01 4.10036147e-01 4.11518037e-01 4.13360536e-01 4.15157229e-01 4.18283284e-01 2.13197589e-01 3.13919527e-03 3.16467346e-03 2.17271492e-01 4.45159465e-01 5.11283696e-01 5.01287401e-01 4.28946733e-01 4.06030029e-01 4.06341285e-01 4.06432360e-01 4.06389505e-01 4.06256825e-01 4.06082243e-01 4.05886382e-01 4.05675411e-01 4.05454546e-01 4.05223668e-01 4.04962033e-01 4.04639453e-01 4.04300183e-01 4.04148906e-01 4.04458970e-01 4.05260980e-01 4.06322926e-01 4.07524437e-01 4.09064710e-01 4.11226183e-01 4.13982719e-01 4.16735888e-01 4.20744956e-01 2.15189785e-01 3.15373414e-03 3.16685857e-03 2.16924697e-01 4.44214225e-01 5.10443509e-01 5.01191139e-01 4.28968132e-01 4.06281590e-01 4.06630576e-01 4.06679839e-01 4.06570673e-01 4.06351954e-01 4.06074941e-01 4.05758232e-01 4.05403644e-01 4.05012637e-01 4.04580623e-01 4.04085308e-01 4.03508723e-01 4.02921408e-01 4.02554870e-01 4.02696073e-01 4.03414071e-01 4.04516429e-01 4.05896634e-01 4.07801330e-01 4.10643578e-01 4.14471507e-01 4.18500781e-01 4.23526734e-01 2.17175484e-01 3.16610723e-03 3.16551980e-03 2.16346994e-01 4.43135470e-01 5.09552956e-01 5.01247942e-01 4.29199457e-01 4.06769305e-01 4.07164633e-01 4.07181382e-01 4.07015771e-01 4.06720132e-01 4.06347275e-01 4.05911803e-01 4.05411452e-01 4.04845685e-01 4.04207855e-01 4.03476059e-01 4.02640581e-01 4.01782393e-01 4.01139766e-01 4.01016682e-01 4.01533216e-01 4.02547538e-01 4.03981656e-01 4.06148672e-01 4.09622312e-01 4.14641201e-01 4.20361221e-01 4.26682293e-01 2.18978867e-01 3.17300577e-03 3.15857027e-03 2.15443030e-01 4.41967070e-01 5.08692443e-01 5.01476467e-01 4.29667622e-01 4.07525182e-01 4.07980382e-01 4.07979637e-01 4.07772690e-01 4.07414019e-01 4.06955689e-01 4.06406224e-01 4.05759275e-01 4.05014306e-01 4.04166043e-01 4.03195322e-01 4.02097017e-01 4.00948316e-01 3.99973989e-01 3.99486750e-01 3.99662673e-01 4.00422096e-01 4.01737481e-01 4.04020369e-01 4.08022404e-01 4.14246172e-01 4.21988398e-01 4.30043757e-01 2.20567316e-01 3.17329681e-03 3.14515736e-03 2.14235038e-01 4.40737844e-01 5.07899046e-01 5.01885474e-01 4.30388838e-01 4.08573210e-01 4.09109652e-01 4.09113854e-01 4.08887655e-01 4.08486366e-01 4.07959193e-01 4.07306820e-01 4.06518966e-01 4.05596048e-01 4.04535890e-01 4.03324306e-01 4.01958764e-01 4.00503457e-01 3.99152189e-01 3.98205608e-01 3.97885829e-01 3.98187160e-01 3.99147689e-01 4.01314676e-01 4.05677646e-01 4.13031965e-01 4.22946841e-01 4.33271736e-01 2.22168595e-01 3.17143695e-03 3.12826550e-03 2.12879300e-01 4.39405084e-01 5.07115602e-01 5.02471566e-01 4.31365818e-01 4.09925729e-01 4.10573959e-01 4.10613179e-01 4.10397738e-01 4.09982771e-01 4.09412652e-01 4.08680677e-01 4.07773256e-01 4.06690478e-01 4.05431122e-01 4.03985023e-01 4.02351707e-01 4.00579065e-01 3.98817122e-01 3.97326231e-01 3.96353006e-01 3.95972550e-01 3.96277905e-01 3.97934705e-01 4.02313083e-01 4.10675973e-01 4.23013151e-01 4.36524123e-01 2.24589437e-01 3.17929219e-03 3.11817159e-03 2.11881056e-01 4.38142508e-01 5.06372392e-01 5.03220379e-01 4.32589084e-01 4.11584437e-01 4.12382483e-01 4.12490517e-01 4.12320465e-01 4.11927491e-01 4.11351085e-01 4.10580426e-01 4.09600288e-01 4.08407629e-01 4.06996280e-01 4.05352682e-01 4.03473347e-01 4.01388794e-01 3.99201185e-01 3.97108972e-01 3.95348758e-01 3.94062519e-01 3.93377244e-01 3.93976271e-01 3.97668153e-01 4.06671315e-01 4.22017574e-01 4.40456867e-01 2.28722110e-01 3.20418365e-03 3.12421378e-03 2.11979851e-01 4.37569946e-01 5.06027043e-01 5.04113853e-01 4.34044480e-01 4.13547099e-01 4.14535612e-01 4.14741218e-01 4.14645344e-01 4.14307743e-01 4.13767457e-01 4.13016170e-01 4.12039578e-01 4.10829395e-01 4.09369081e-01 4.07630801e-01 4.05593157e-01 4.03260082e-01 4.00686145e-01 3.97999734e-01 3.95382345e-01 3.92990232e-01 3.90968442e-01 3.89933020e-01 3.91886175e-01 4.00458395e-01 4.18969989e-01 4.44921702e-01 2.34174579e-01 3.23680369e-03 3.13987932e-03 2.13270172e-01 4.38251227e-01 5.06404281e-01 5.05134165e-01 4.35723424e-01 4.15818155e-01 4.17030752e-01 4.17343646e-01 4.17330086e-01 4.17065710e-01 4.16599602e-01 4.15934473e-01 4.15059716e-01 4.13961202e-01 4.12611425e-01 4.10965830e-01 4.08973217e-01 4.06592816e-01 4.03817952e-01 4.00695533e-01 3.97305220e-01 3.93723577e-01 3.90053064e-01 3.86797637e-01 3.85806441e-01 3.91703844e-01 4.12700474e-01 4.48822856e-01 2.39451304e-01 3.26705654e-03 3.15940054e-03 2.13996768e-01 4.39586520e-01 5.07530153e-01 5.06273270e-01 4.37635779e-01 4.18416113e-01 4.19860423e-01 4.20254201e-01 4.20298815e-01 4.20103341e-01 4.19738978e-01 4.19225633e-01 4.18558478e-01 4.17718589e-01 4.16669786e-01 4.15359586e-01 4.13721710e-01 4.11675572e-01 4.09140736e-01 4.06055182e-01 4.02347893e-01 3.97909284e-01 3.92643273e-01 3.86773258e-01 3.81663471e-01 3.81922066e-01 4.01045829e-01 4.47434336e-01 2.44025499e-01 3.40751582e-03 3.22765810e-03 2.06547335e-01 4.37472612e-01 5.07800758e-01 5.07521272e-01 4.39829469e-01 4.21370000e-01 4.22992557e-01 4.23387945e-01 4.23435509e-01 4.23291385e-01 4.23051417e-01 4.22749937e-01 4.22388107e-01 4.21946704e-01 4.21386093e-01 4.20656860e-01 4.19713765e-01 4.18491036e-01 4.16866213e-01 4.14674103e-01 4.11696494e-01 4.07619566e-01 4.02019531e-01 3.94548506e-01 3.85618806e-01 3.78352195e-01 3.85329485e-01 4.21010226e-01 2.34003529e-01 3.69643862e-03 2.19137943e-03 1.32558703e-01 4.13789928e-01 5.00306010e-01 5.07477343e-01 4.42229360e-01 4.24529970e-01 4.26155150e-01 4.26407784e-01 4.26389933e-01 4.26290721e-01 4.26208586e-01 4.26176757e-01 4.26198512e-01 4.26263362e-01 4.26343620e-01 4.26409245e-01 4.26466495e-01 4.26534504e-01 4.26537931e-01 4.26287681e-01 4.25581455e-01 4.24171984e-01 4.21524316e-01 4.16880250e-01 4.09567297e-01 4.00232524e-01 3.93576741e-01 3.96726668e-01 2.81397492e-01 7.88788404e-03 7.06709106e-04 1.39846466e-02 2.99996406e-01 4.79121298e-01 5.31229019e-01 4.66764957e-01 4.49057043e-01 4.50473547e-01 4.50443923e-01 4.50318485e-01 4.50260282e-01 4.50335681e-01 4.50559855e-01 4.50929970e-01 4.51444119e-01 4.52098131e-01 4.52893734e-01 4.53883260e-01 4.55172062e-01 4.56825167e-01 4.58777279e-01 4.61017042e-01 4.63764340e-01 4.66903657e-01 4.70153093e-01 4.73037243e-01 4.74988490e-01 4.74622011e-01 4.70385045e-01 4.52093691e-01 1.55298516e-01 2.10073404e-03 4.64488100e-03 2.66907126e-01 5.00521600e-01 5.77384055e-01 5.33632576e-01 5.15594065e-01 5.18283844e-01 5.18105447e-01 5.17957509e-01 5.17919302e-01 5.18026054e-01 5.18288732e-01 5.18702984e-01 5.19264758e-01 5.19971967e-01 5.20830274e-01 5.21879435e-01 5.23209393e-01 5.24928391e-01 5.27085483e-01 5.29979229e-01 5.33909142e-01 5.38735390e-01 5.44885099e-01 5.52736163e-01 5.62455833e-01 5.72911978e-01 5.77456355e-01 5.61255634e-01 3.22628677e-01 4.85992990e-03 3.67583195e-03 3.87428045e-01 6.26780331e-01 
