# vtk DataFile Version 2.0
results/7_density.vtk, Created by Freefem++ 
ASCII
DATASET UNSTRUCTURED_GRID
POINTS 961 float
0 0 0
0.033333333 0 0
0.066666667 0 0
0.1 0 0
0.13333333 0 0
0.16666667 0 0
0.2 0 0
0.23333333 0 0
0.26666667 0 0
0.3 0 0
0.33333333 0 0
0.36666667 0 0
0.4 0 0
0.43333333 0 0
0.46666667 0 0
0.5 0 0
0.53333333 0 0
0.56666667 0 0
0.6 0 0
0.63333333 0 0
0.66666667 0 0
0.7 0 0
0.73333333 0 0
0.76666667 0 0
0.8 0 0
0.83333333 0 0
0.86666667 0 0
0.9 0 0
0.93333333 0 0
0.96666667 0 0
1 0 0
0 0.033333333 0
0.033333333 0.033333333 0
0.066666667 0.033333333 0
0.1 0.033333333 0
0.13333333 0.033333333 0
0.16666667 0.033333333 0
0.2 0.033333333 0
0.23333333 0.033333333 0
0.26666667 0.033333333 0
0.3 0.033333333 0
0.33333333 0.033333333 0
0.36666667 0.033333333 0
0.4 0.033333333 0
0.43333333 0.033333333 0
0.46666667 0.033333333 0
0.5 0.033333333 0
0.53333333 0.033333333 0
0.56666667 0.033333333 0
0.6 0.033333333 0
0.63333333 0.033333333 0
0.66666667 0.033333333 0
0.7 0.033333333 0
0.73333333 0.033333333 0
0.76666667 0.033333333 0
0.8 0.033333333 0
0.83333333 0.033333333 0
0.86666667 0.033333333 0
0.9 0.033333333 0
0.93333333 0.033333333 0
0.96666667 0.033333333 0
1 0.033333333 0
0 0.066666667 0
0.033333333 0.066666667 0
0.066666667 0.066666667 0
0.1 0.066666667 0
0.13333333 0.066666667 0
0.16666667 0.066666667 0
0.2 0.066666667 0
0.23333333 0.066666667 0
0.26666667 0.066666667 0
0.3 0.066666667 0
0.33333333 0.066666667 0
0.36666667 0.066666667 0
0.4 0.066666667 0
0.43333333 0.066666667 0
0.46666667 0.066666667 0
0.5 0.066666667 0
0.53333333 0.066666667 0
0.56666667 0.066666667 0
0.6 0.066666667 0
0.63333333 0.066666667 0
0.66666667 0.066666667 0
0.7 0.066666667 0
0.73333333 0.066666667 0
0.76666667 0.066666667 0
0.8 0.066666667 0
0.83333333 0.066666667 0
0.86666667 0.066666667 0
0.9 0.066666667 0
0.93333333 0.066666667 0
0.96666667 0.066666667 0
1 0.066666667 0
0 0.1 0
0.033333333 0.1 0
0.066666667 0.1 0
0.1 0.1 0
0.13333333 0.1 0
0.16666667 0.1 0
0.2 0.1 0
0.23333333 0.1 0
0.26666667 0.1 0
0.3 0.1 0
0.33333333 0.1 0
0.36666667 0.1 0
0.4 0.1 0
0.43333333 0.1 0
0.46666667 0.1 0
0.5 0.1 0
0.53333333 0.1 0
0.56666667 0.1 0
0.6 0.1 0
0.63333333 0.1 0
0.66666667 0.1 0
0.7 0.1 0
0.73333333 0.1 0
0.76666667 0.1 0
0.8 0.1 0
0.83333333 0.1 0
0.86666667 0.1 0
0.9 0.1 0
0.93333333 0.1 0
0.96666667 0.1 0
1 0.1 0
0 0.13333333 0
0.033333333 0.13333333 0
0.066666667 0.13333333 0
0.1 0.13333333 0
0.13333333 0.13333333 0
0.16666667 0.13333333 0
0.2 0.13333333 0
0.23333333 0.13333333 0
0.26666667 0.13333333 0
0.3 0.13333333 0
0.33333333 0.13333333 0
0.36666667 0.13333333 0
0.4 0.13333333 0
0.43333333 0.13333333 0
0.46666667 0.13333333 0
0.5 0.13333333 0
0.53333333 0.13333333 0
0.56666667 0.13333333 0
0.6 0.13333333 0
0.63333333 0.13333333 0
0.66666667 0.13333333 0
0.7 0.13333333 0
0.73333333 0.13333333 0
0.76666667 0.13333333 0
0.8 0.13333333 0
0.83333333 0.13333333 0
0.86666667 0.13333333 0
0.9 0.13333333 0
0.93333333 0.13333333 0
0.96666667 0.13333333 0
1 0.13333333 0
0 0.16666667 0
0.033333333 0.16666667 0
0.066666667 0.16666667 0
0.1 0.16666667 0
0.13333333 0.16666667 0
0.16666667 0.16666667 0
0.2 0.16666667 0
0.23333333 0.16666667 0
0.26666667 0.16666667 0
0.3 0.16666667 0
0.33333333 0.16666667 0
0.36666667 0.16666667 0
0.4 0.16666667 0
0.43333333 0.16666667 0
0.46666667 0.16666667 0
0.5 0.16666667 0
0.53333333 0.16666667 0
0.56666667 0.16666667 0
0.6 0.16666667 0
0.63333333 0.16666667 0
0.66666667 0.16666667 0
0.7 0.16666667 0
0.73333333 0.16666667 0
0.76666667 0.16666667 0
0.8 0.16666667 0
0.83333333 0.16666667 0
0.86666667 0.16666667 0
0.9 0.16666667 0
0.93333333 0.16666667 0
0.96666667 0.16666667 0
1 0.16666667 0
0 0.2 0
0.033333333 0.2 0
0.066666667 0.2 0
0.1 0.2 0
0.13333333 0.2 0
0.16666667 0.2 0
0.2 0.2 0
0.23333333 0.2 0
0.26666667 0.2 0
0.3 0.2 0
0.33333333 0.2 0
0.36666667 0.2 0
0.4 0.2 0
0.43333333 0.2 0
0.46666667 0.2 0
0.5 0.2 0
0.53333333 0.2 0
0.56666667 0.2 0
0.6 0.2 0
0.63333333 0.2 0
0.66666667 0.2 0
0.7 0.2 0
0.73333333 0.2 0
0.76666667 0.2 0
0.8 0.2 0
0.83333333 0.2 0
0.86666667 0.2 0
0.9 0.2 0
0.93333333 0.2 0
0.96666667 0.2 0
1 0.2 0
0 0.23333333 0
0.033333333 0.23333333 0
0.066666667 0.23333333 0
0.1 0.23333333 0
0.13333333 0.23333333 0
0.16666667 0.23333333 0
0.2 0.23333333 0
0.23333333 0.23333333 0
0.26666667 0.23333333 0
0.3 0.23333333 0
0.33333333 0.23333333 0
0.36666667 0.23333333 0
0.4 0.23333333 0
0.43333333 0.23333333 0
0.46666667 0.23333333 0
0.5 0.23333333 0
0.53333333 0.23333333 0
0.56666667 0.23333333 0
0.6 0.23333333 0
0.63333333 0.23333333 0
0.66666667 0.23333333 0
0.7 0.23333333 0
0.73333333 0.23333333 0
0.76666667 0.23333333 0
0.8 0.23333333 0
0.83333333 0.23333333 0
0.86666667 0.23333333 0
0.9 0.23333333 0
0.93333333 0.23333333 0
0.96666667 0.23333333 0
1 0.23333333 0
0 0.26666667 0
0.033333333 0.26666667 0
0.066666667 0.26666667 0
0.1 0.26666667 0
0.13333333 0.26666667 0
0.16666667 0.26666667 0
0.2 0.26666667 0
0.23333333 0.26666667 0
0.26666667 0.26666667 0
0.3 0.26666667 0
0.33333333 0.26666667 0
0.36666667 0.26666667 0
0.4 0.26666667 0
0.43333333 0.26666667 0
0.46666667 0.26666667 0
0.5 0.26666667 0
0.53333333 0.26666667 0
0.56666667 0.26666667 0
0.6 0.26666667 0
0.63333333 0.26666667 0
0.66666667 0.26666667 0
0.7 0.26666667 0
0.73333333 0.26666667 0
0.76666667 0.26666667 0
0.8 0.26666667 0
0.83333333 0.26666667 0
0.86666667 0.26666667 0
0.9 0.26666667 0
0.93333333 0.26666667 0
0.96666667 0.26666667 0
1 0.26666667 0
0 0.3 0
0.033333333 0.3 0
0.066666667 0.3 0
0.1 0.3 0
0.13333333 0.3 0
0.16666667 0.3 0
0.2 0.3 0
0.23333333 0.3 0
0.26666667 0.3 0
0.3 0.3 0
0.33333333 0.3 0
0.36666667 0.3 0
0.4 0.3 0
0.43333333 0.3 0
0.46666667 0.3 0
0.5 0.3 0
0.53333333 0.3 0
0.56666667 0.3 0
0.6 0.3 0
0.63333333 0.3 0
0.66666667 0.3 0
0.7 0.3 0
0.73333333 0.3 0
0.76666667 0.3 0
0.8 0.3 0
0.83333333 0.3 0
0.86666667 0.3 0
0.9 0.3 0
0.93333333 0.3 0
0.96666667 0.3 0
1 0.3 0
0 0.33333333 0
0.033333333 0.33333333 0
0.066666667 0.33333333 0
0.1 0.33333333 0
0.13333333 0.33333333 0
0.16666667 0.33333333 0
0.2 0.33333333 0
0.23333333 0.33333333 0
0.26666667 0.33333333 0
0.3 0.33333333 0
0.33333333 0.33333333 0
0.36666667 0.33333333 0
0.4 0.33333333 0
0.43333333 0.33333333 0
0.46666667 0.33333333 0
0.5 0.33333333 0
0.53333333 0.33333333 0
0.56666667 0.33333333 0
0.6 0.33333333 0
0.63333333 0.33333333 0
0.66666667 0.33333333 0
0.7 0.33333333 0
0.73333333 0.33333333 0
0.76666667 0.33333333 0
0.8 0.33333333 0
0.83333333 0.33333333 0
0.86666667 0.33333333 0
0.9 0.33333333 0
0.93333333 0.33333333 0
0.96666667 0.33333333 0
1 0.33333333 0
0 0.36666667 0
0.033333333 0.36666667 0
0.066666667 0.36666667 0
0.1 0.36666667 0
0.13333333 0.36666667 0
0.16666667 0.36666667 0
0.2 0.36666667 0
0.23333333 0.36666667 0
0.26666667 0.36666667 0
0.3 0.36666667 0
0.33333333 0.36666667 0
0.36666667 0.36666667 0
0.4 0.36666667 0
0.43333333 0.36666667 0
0.46666667 0.36666667 0
0.5 0.36666667 0
0.53333333 0.36666667 0
0.56666667 0.36666667 0
0.6 0.36666667 0
0.63333333 0.36666667 0
0.66666667 0.36666667 0
0.7 0.36666667 0
0.73333333 0.36666667 0
0.76666667 0.36666667 0
0.8 0.36666667 0
0.83333333 0.36666667 0
0.86666667 0.36666667 0
0.9 0.36666667 0
0.93333333 0.36666667 0
0.96666667 0.36666667 0
1 0.36666667 0
0 0.4 0
0.033333333 0.4 0
0.066666667 0.4 0
0.1 0.4 0
0.13333333 0.4 0
0.16666667 0.4 0
0.2 0.4 0
0.23333333 0.4 0
0.26666667 0.4 0
0.3 0.4 0
0.33333333 0.4 0
0.36666667 0.4 0
0.4 0.4 0
0.43333333 0.4 0
0.46666667 0.4 0
0.5 0.4 0
0.53333333 0.4 0
0.56666667 0.4 0
0.6 0.4 0
0.63333333 0.4 0
0.66666667 0.4 0
0.7 0.4 0
0.73333333 0.4 0
0.76666667 0.4 0
0.8 0.4 0
0.83333333 0.4 0
0.86666667 0.4 0
0.9 0.4 0
0.93333333 0.4 0
0.96666667 0.4 0
1 0.4 0
0 0.43333333 0
0.033333333 0.43333333 0
0.066666667 0.43333333 0
0.1 0.43333333 0
0.13333333 0.43333333 0
0.16666667 0.43333333 0
0.2 0.43333333 0
0.23333333 0.43333333 0
0.26666667 0.43333333 0
0.3 0.43333333 0
0.33333333 0.43333333 0
0.36666667 0.43333333 0
0.4 0.43333333 0
0.43333333 0.43333333 0
0.46666667 0.43333333 0
0.5 0.43333333 0
0.53333333 0.43333333 0
0.56666667 0.43333333 0
0.6 0.43333333 0
0.63333333 0.43333333 0
0.66666667 0.43333333 0
0.7 0.43333333 0
0.73333333 0.43333333 0
0.76666667 0.43333333 0
0.8 0.43333333 0
0.83333333 0.43333333 0
0.86666667 0.43333333 0
0.9 0.43333333 0
0.93333333 0.43333333 0
0.96666667 0.43333333 0
1 0.43333333 0
0 0.46666667 0
0.033333333 0.46666667 0
0.066666667 0.46666667 0
0.1 0.46666667 0
0.13333333 0.46666667 0
0.16666667 0.46666667 0
0.2 0.46666667 0
0.23333333 0.46666667 0
0.26666667 0.46666667 0
0.3 0.46666667 0
0.33333333 0.46666667 0
0.36666667 0.46666667 0
0.4 0.46666667 0
0.43333333 0.46666667 0
0.46666667 0.46666667 0
0.5 0.46666667 0
0.53333333 0.46666667 0
0.56666667 0.46666667 0
0.6 0.46666667 0
0.63333333 0.46666667 0
0.66666667 0.46666667 0
0.7 0.46666667 0
0.73333333 0.46666667 0
0.76666667 0.46666667 0
0.8 0.46666667 0
0.83333333 0.46666667 0
0.86666667 0.46666667 0
0.9 0.46666667 0
0.93333333 0.46666667 0
0.96666667 0.46666667 0
1 0.46666667 0
0 0.5 0
0.033333333 0.5 0
0.066666667 0.5 0
0.1 0.5 0
0.13333333 0.5 0
0.16666667 0.5 0
0.2 0.5 0
0.23333333 0.5 0
0.26666667 0.5 0
0.3 0.5 0
0.33333333 0.5 0
0.36666667 0.5 0
0.4 0.5 0
0.43333333 0.5 0
0.46666667 0.5 0
0.5 0.5 0
0.53333333 0.5 0
0.56666667 0.5 0
0.6 0.5 0
0.63333333 0.5 0
0.66666667 0.5 0
0.7 0.5 0
0.73333333 0.5 0
0.76666667 0.5 0
0.8 0.5 0
0.83333333 0.5 0
0.86666667 0.5 0
0.9 0.5 0
0.93333333 0.5 0
0.96666667 0.5 0
1 0.5 0
0 0.53333333 0
0.033333333 0.53333333 0
0.066666667 0.53333333 0
0.1 0.53333333 0
0.13333333 0.53333333 0
0.16666667 0.53333333 0
0.2 0.53333333 0
0.23333333 0.53333333 0
0.26666667 0.53333333 0
0.3 0.53333333 0
0.33333333 0.53333333 0
0.36666667 0.53333333 0
0.4 0.53333333 0
0.43333333 0.53333333 0
0.46666667 0.53333333 0
0.5 0.53333333 0
0.53333333 0.53333333 0
0.56666667 0.53333333 0
0.6 0.53333333 0
0.63333333 0.53333333 0
0.66666667 0.53333333 0
0.7 0.53333333 0
0.73333333 0.53333333 0
0.76666667 0.53333333 0
0.8 0.53333333 0
[...]
CELL_DATA 1920
Scalars  Label int 1
LOOKUP_TABLE FreeFempp_table
0
0
0
0
0
0
0
0
0
0
0
0
0
0
0
0
0
0
0
0
0
0
0
0
0
0
0
0
0
0
0
0
0
0
0
0
0
0
0
0
0
0
0
0
0
0
0
0
0
0
0
0
0
0
0
0
0
0
0
0
0
0
0
0
0
0
0
0
0
0
0
0
0
0
0
0
0
0
0
0
0
0
0
0
0
0
0
0
0
0
0
0
0
0
0
0
0
0
0
0
0
0
0
0
0
0
0
0
0
0
0
0
0
0
0
0
0
0
0
0
0
0
0
0
0
0
0
0
0
0
0
0
0
0
0
0
0
0
0
0
0
0
0
0
0
0
0
0
0
0
0
0
0
0
0
0
0
0
0
0
0
0
0
0
0
0
0
0
0
0
0
0
0
0
0
0
0
0
0
0
0
0
0
0
0
0
0
0
0
0
0
0
0
0
0
0
0
0
0
0
0
0
0
0
0
0
0
0
0
0
0
0
0
0
0
0
0
0
0
0
0
0
0
0
0
0
0
0
0
0
0
0
0
0
0
0
0
0
0
0
0
0
0
0
0
0
0
0
0
0
0
0
0
0
0
0
0
0
0
0
0
0
0
0
0
0
0
0
0
0
0
0
0
0
0
0
0
0
0
0
0
0
0
0
0
0
0
0
0
0
0
0
0
0
0
0
0
0
0
0
0
0
0
0
0
0
0
0
0
0
0
0
0
0
0
0
0
0
0
0
0
0
0
0
0
0
0
0
0
0
0
0
0
0
0
0
0
0
0
0
0
0
0
0
0
0
0
0
0
0
0
0
0
0
0
0
0
0
0
0
0
0
0
0
0
0
0
0
0
0
0
0
0
0
0
0
0
0
0
0
0
0
0
0
0
0
0
0
0
0
0
0
0
0
0
0
0
0
0
0
0
0
0
0
0
0
0
0
0
0
0
0
0
0
0
0
0
0
0
0
0
0
0
0
0
0
0
0
0
0
0
0
0
0
0
0
0
0
0
0
0
0
0
0
0
0
0
0
0
0
0
0
0
0
0
0
0
0
0
0
0
0
0
0
0
0
0
0
0
0
0
0
0
0
0
0
0
0
0
0
0
0
0
0
0
0
0
0
0
0
0
0
0
0
0
0
0
0
0
0
0
0
0
0
0
0
0
0
0
0
0
0
0
0
0
0
0
0
0
0
0
0
0
0
0
0
0
0
0
0
0
0
0
0
0
0
0
0
0
0
0
0
0
0
0
0
0
0
0
0
0
0
0
0
0
0
0
0
0
0
0
0
0
0
0
0
0
0
0
0
0
0
0
0
0
0
0
0
0
0
0
0
0
0
0
0
0
0
0
0
0
0
0
0
0
0
0
0
0
0
0
0
0
0
0
0
0
0
0
0
0
0
0
0
0
0
0
0
0
0
0
0
0
0
0
0
0
0
0
0
0
0
0
0
0
0
0
0
0
0
0
0
0
0
0
0
0
0
0
0
0
0
0
0
0
0
0
0
0
0
0
0
0
0
0
0
0
0
0
0
0
0
0
0
0
0
0
0
0
0
0
0
0
0
0
0
0
0
0
0
0
0
0
0
0
0
0
0
0
0
0
0
0
0
0
0
0
0
0
0
0
0
0
0
0
0
0
0
0
0
0
0
0
0
0
0
0
0
0
0
0
0
0
0
0
0
0
0
0
0
0
0
0
0
0
0
0
0
0
0
0
0
0
0
0
0
0
0
0
0
0
0
0
0
0
0
0
0
0
0
0
0
0
0
0
0
0
0
0
0
0
0
0
0
0
0
0
0
0
0
0
0
0
0
0
0
0
0
0
0
0
0
0
0
0
0
0
0
0
0
0
0
0
0
0
0
0
0
0
0
0
0
0
0
0
0
0
0
0
0
0
0
0
0
0
0
0
0
0
0
0
0
0
0
0
0
0
0
0
0
0
0
0
0
0
0
0
0
0
0
0
0
0
0
0
0
0
0
0
0
0
0
0
0
0
0
0
0
0
0
0
0
0
0
0
0
0
0
0
0
0
0
0
0
0
0
0
0
0
0
0
0
0
0
0
0
0
0
0
0
0
0
0
0
0
0
0
0
0
0
0
0
0
0
0
0
0
0
0
0
0
0
0
0
0
0
0
0
0
0
0
0
0
0
0
0
0
0
0
0
0
0
0
0
0
0
0
0
0
0
0
0
0
0
0
0
0
0
0
0
0
0
0
0
0
0
0
0
0
0
0
0
0
0
0
0
0
0
0
0
0
0
0
0
0
0
0
0
0
0
0
0
0
0
0
0
0
0
0
0
0
0
0
0
0
0
0
0
0
0
0
0
0
0
0
0
0
0
0
0
0
0
0
0
0
0
0
0
0
0
0
0
0
0
0
0
0
0
0
0
0
0
0
0
0
0
0
0
0
0
0
0
0
0
0
0
0
0
0
0
0
0
0
0
0
0
0
0
0
0
0
0
0
0
0
0
0
0
0
0
0
0
0
0
0
0
0
0
0
0
0
0
0
0
0
0
0
0
0
0
0
0
0
0
0
0
0
0
0
0
0
0
0
0
0
0
0
0
0
0
0
0
0
0
0
0
0
0
0
0
0
0
0
0
0
0
0
0
0
0
0
0
0
0
0
0
0
0
0
0
0
0
0
0
0
0
0
0
0
0
0
0
0
0
0
0
0
0
0
0
0
0
0
0
0
0
0
0
0
0
0
0
0
0
0
0
0
0
0
0
0
0
0
0
0
0
0
0
0
0
0
0
0
0
0
0
0
0
0
0
0
0
0
0
0
0
0
0
0
0
0
0
0
0
0
0
0
0
0
0
0
0
0
0
0
0
0
0
0
0
0
0
0
0
0
0
0
0
0
0
0
0
0
0
0
0
0
0
0
0
0
0
0
0
0
0
0
0
0
0
0
0
0
0
0
0
0
0
0
0
0
0
0
0
0
0
0
0
0
0
0
0
0
0
0
0
0
0
0
0
0
0
0
0
0
0
0
0
0
0
0
0
0
0
0
0
0
0
0
0
0
0
0
0
0
0
0
0
0
0
0
0
0
0
0
0
0
0
0
0
0
0
0
0
0
0
0
0
0
0
0
0
0
0
0
0
0
0
0
0
0
0
0
0
0
0
0
0
0
0
0
0
0
0
0
0
0
0
0
0
0
0
0
0
0
0
0
0
0
0
0
0
0
0
0
0
0
0
0
0
0
0
0
0
0
0
0
0
0
0
0
0
0
0
0
0
0
0
0
0
0
0
0
0
0
0
0
0
0
0
0
0
0
0
0
0
0
0
0
0
0
0
0
0
0
0
0
0
0
0
0
0
0
0
0
0
0
0
0
0
0
0
0
0
0
0
0
0
0
0
0
0
0
0
0
0
0
0
0
0
0
0
0
0
0
0
0
0
0
0
0
0
0
0
0
0
0
0
0
0
0
0
0
0
0
0
0
0
0
0
0
0
0
0
0
0
0
0
0
0
0
0
0
0
0
0
0
0
0
0
0
0
0
0
0
0
0
0
0
0
0
0
0
0
0
0
0
0
0
0
0
0
0
0
0
0
0
0
0
0
0
0
0
0
0
0
0
0
0
0
0
0
0
0
0
0
0
0
0
0
0
0
0
0
0
0
0
0
0
0
0
0
0
0
0
0
0
0
0
0
0
0
0
0
0
0
0
0
0
0
0
0
0
0
0
0
0
0
0
0
0
0
0
0
0
0
0
0
0
0
0
0
0
0
0
0
0
0
0
0
0
0
0
0
0
0
0
0
0
0
0
0
0
0
0
0
0
0
0
0
0
0
0
0
0
0
0
0
0
0
0
0
0
0
0
0
0
0
0
0
0
0
0
0
0
0
0
0
0
0
0
0
0
0
0
0
0
0
0
0
0
0
0
0
0
0
0
0
0
0
0
0
0
0
0
0
0
0
0
0
0
0
0
0
0
0
0
0
0
0
0
0
0
0
0
0
0
0
0
0
0
0
0
0
0
0
0
0
0
0
0
0
0
0
0
0
0
0
0
0
0
0
0
0
0
0
0
0
0
0
0
0
0
0
0
0
0
0
0
0
0
0
0
0
0
0
0
0
0
0
1
1
1
1
1
1
1
1
1
1
1
1
1
1
1
1
1
1
1
1
1
1
1
1
1
1
1
1
1
1
2
2
2
2
2
2
2
2
2
2
2
2
2
2
2
2
2
2
2
2
2
2
2
2
2
2
2
2
2
2
3
3
3
3
3
3
3
3
3
3
3
3
3
3
3
3
3
3
3
3
3
3
3
3
3
3
3
3
3
3
4
4
4
4
4
4
4
4
4
4
4
4
4
4
4
4
4
4
4
4
4
4
4
4
4
4
4
4
4
4

LOOKUP_TABLE FreeFempp_table 5
1.00000000 0.00000000 0.00000000 1.00000000
1.00000000 1.00000000 0.00000000 1.00000000
1.00000000 0.00000000 1.00000000 1.00000000
0.00000000 1.00000000 0.00000000 1.00000000
0.00000000 1.00000000 1.00000000 1.00000000

POINT_DATA 961
FIELD FieldData 1
Density 1 961 float
2.57715464e-01 2.38882124e-01 3.31814200e-01 3.87920767e-01 4.51994419e-01 5.29331863e-01 6.34371459e-01 7.11325645e-01 5.14742017e-01 2.31996819e-01 3.07603776e-01 3.82394582e-01 3.05383801e-01 2.06955552e-01 1.75965488e-01 1.66433215e-01 1.94026217e-01 2.86853492e-01 4.15358216e-01 5.13148844e-01 5.78985631e-01 6.85715139e-01 8.31927598e-01 8.76688540e-01 8.03629994e-01 6.76811457e-01 4.10342693e-01 2.26126507e-01 2.93820441e-01 5.78528583e-01 6.54036105e-01 5.08528411e-01 3.12703252e-01 2.33090118e-01 2.54792809e-01 3.01158935e-01 3.58311892e-01 4.16731894e-01 1.39934167e-01 1.78303979e-02 6.14652038e-03 1.04267322e-01 2.70828873e-01 2.23299801e-01 1.09955058e-01 1.00474566e-01 9.73601937e-02 1.08552098e-01 1.58334285e-01 2.54526734e-01 3.92182648e-01 4.84157711e-01 6.35444522e-01 8.73863935e-01 9.46922719e-01 8.69546711e-01 3.98410469e-01 5.45518324e-02 3.83385867e-02 5.82613721e-02 2.69820094e-01 6.66974962e-01 2.11579143e-03 1.77029264e-03 1.87094847e-03 1.90466235e-03 1.89651258e-03 1.88313960e-03 1.87656388e-03 1.23306888e-03 7.94634630e-04 1.50927855e-03 1.74492935e-03 7.70926774e-02 1.33836359e-01 6.00059256e-02 1.00554168e-01 1.32960990e-01 1.37313396e-01 1.91885710e-01 2.94690549e-01 4.25595671e-01 4.56002742e-01 5.50589144e-01 8.39015007e-01 9.33819473e-01 7.27276206e-01 5.03542498e-02 1.49956923e-02 2.25762762e-02 4.55559753e-02 1.72599033e-01 5.84844470e-01 4.21027234e-03 1.68913475e-03 1.86562596e-03 1.89621723e-03 1.89567253e-03 1.88402354e-03 1.87510718e-03 1.81138550e-03 7.76229019e-04 1.20278739e-03 1.24022237e-03 1.24953664e-03 1.73873128e-03 1.80690677e-03 1.79844617e-03 9.72775221e-02 1.41154855e-01 2.37678245e-01 3.40204865e-01 4.48826492e-01 4.14518744e-01 4.13979888e-01 7.91980863e-01 9.46770370e-01 8.30401003e-01 3.20863388e-02 1.06886411e-02 1.17467400e-02 3.36605683e-02 1.47845045e-01 5.31386256e-01 7.27848172e-01 8.07446003e-01 7.95363188e-01 7.06248879e-01 6.52603865e-01 6.02186382e-01 5.42294979e-01 4.82957751e-01 2.98422873e-01 3.23197782e-01 2.78607577e-01 2.05753860e-03 2.01596483e-03 1.51990121e-03 1.14914682e-03 1.14208495e-03 2.12116702e-03 1.91778457e-03 3.59350741e-01 3.84131879e-01 2.42282495e-01 1.61874115e-01 5.64029694e-01 9.60553050e-01 9.46092248e-01 4.04002517e-01 1.40263876e-02 6.40625320e-03 1.79965515e-02 1.33584902e-01 4.70444083e-01 6.66028500e-01 8.17419171e-01 9.09444511e-01 8.90802145e-01 8.18233907e-01 7.62719870e-01 7.25043297e-01 6.92670345e-01 6.59862995e-01 6.42070413e-01 6.14708483e-01 6.14289224e-01 5.58336198e-01 4.66815054e-01 3.62132341e-01 1.82353379e-03 2.01939698e-03 1.35738926e-03 7.59561080e-04 2.78007418e-01 9.05641541e-02 6.60382286e-02 1.07478693e-01 9.33497548e-01 9.75708067e-01 9.27540302e-01 3.51135395e-02 4.52851690e-03 7.52583891e-03 1.19291134e-01 4.30894315e-01 6.07503295e-01 6.90806985e-01 8.08963060e-01 8.45524311e-01 8.12386632e-01 7.75860250e-01 7.48940170e-01 7.26890326e-01 7.04563022e-01 6.79718554e-01 6.44694328e-01 6.16845548e-01 6.18169248e-01 5.87540448e-01 5.48128128e-01 4.97351885e-01 3.53861928e-01 1.17379203e-01 1.47415476e-03 1.61116302e-03 1.89396776e-02 2.11252440e-02 2.09526699e-02 7.06096888e-02 9.57281530e-01 9.75312531e-01 9.06511128e-01 4.07468388e-03 2.70608999e-03 5.41796796e-02 4.06623155e-01 5.61201811e-01 5.74063480e-01 6.62146509e-01 7.30516076e-01 7.48563349e-01 7.46910870e-01 7.39194751e-01 7.27017939e-01 7.08966434e-01 6.83377683e-01 6.50244176e-01 6.21872187e-01 6.11990750e-01 6.14663482e-01 6.13943458e-01 6.18825614e-01 5.79308271e-01 3.63575339e-01 6.43616356e-03 2.14243191e-03 4.32217814e-04 8.19982775e-03 9.07778088e-03 1.22419465e-02 2.75099576e-02 9.54073310e-01 9.72444117e-01 6.27306476e-02 2.30680336e-03 3.86694167e-03 3.58209312e-01 5.30530155e-01 4.90709960e-01 5.46210587e-01 6.09964013e-01 6.57937646e-01 6.87980771e-01 7.03536570e-01 7.07130969e-01 7.00122535e-01 6.83749437e-01 6.61351025e-01 6.42622113e-01 6.36979818e-01 6.45165861e-01 6.69800222e-01 7.17695951e-01 7.73736835e-01 7.16820300e-01 2.17663459e-02 4.26500477e-03 1.66120019e-03 1.06646204e-02 1.24619314e-02 1.07729537e-02 5.04676020e-03 6.27838016e-01 9.78221416e-01 8.99132669e-01 2.62104464e-03 2.91556655e-03 3.30397606e-01 5.15293360e-01 4.41695690e-01 4.71984535e-01 5.17564654e-01 5.70873082e-01 6.18531764e-01 6.53429449e-01 6.74316943e-01 6.82088673e-01 6.78432107e-01 6.66429162e-01 6.52172506e-01 6.41110420e-01 6.34480059e-01 6.39407873e-01 6.74773514e-01 7.58814871e-01 8.73131752e-01 2.38562331e-01 1.35345180e-02 1.05322329e-02 2.44945977e-02 6.31874204e-02 2.64982004e-02 1.72635131e-02 5.75846314e-01 9.74955499e-01 9.72377896e-01 3.02503607e-03 2.60271085e-03 2.91787297e-01 5.14320612e-01 4.21213537e-01 4.28450793e-01 4.53300714e-01 4.99172866e-01 5.51527441e-01 5.98087847e-01 6.32904053e-01 6.54182076e-01 6.61886752e-01 6.57054782e-01 6.41931236e-01 6.17686212e-01 5.82938969e-01 5.41352689e-01 5.10539293e-01 5.27996480e-01 6.80698931e-01 7.85694718e-01 1.27344906e-01 2.30086409e-02 3.22648250e-02 9.43851918e-02 9.81263295e-02 1.25216812e-01 5.95129430e-01 9.65793252e-01 9.85337913e-01 4.01625969e-03 2.19346979e-03 5.24612032e-02 5.26537776e-01 4.24061686e-01 4.05252874e-01 4.08588201e-01 4.41938311e-01 4.90660429e-01 5.41187346e-01 5.84528327e-01 6.15981102e-01 6.33081973e-01 6.34432256e-01 6.19099677e-01 5.85054636e-01 5.29291034e-01 4.54419971e-01 3.75425130e-01 3.17356348e-01 3.20919663e-01 4.40855265e-01 4.00646687e-01 1.11117437e-01 1.97397694e-01 2.86131084e-01 2.97343940e-01 3.96158844e-01 7.28935182e-01 9.51176584e-01 9.80225265e-01 1.26037866e-01 2.23452039e-03 3.90450261e-03 5.50713420e-01 4.46414471e-01 3.94629091e-01 3.75087976e-01 3.94559056e-01 4.35406774e-01 4.83794034e-01 5.29952824e-01 5.67655683e-01 5.92434287e-01 6.00566089e-01 5.88743031e-01 5.53486586e-01 4.92594898e-01 4.10959899e-01 3.24035585e-01 2.51079470e-01 2.08035097e-01 2.06519097e-01 2.18405053e-01 1.91218093e-01 2.92960316e-01 3.99985701e-01 4.94763881e-01 6.60645723e-01 8.50360453e-01 9.49575126e-01 9.66300786e-01 5.12552142e-01 3.10728583e-03 2.96536437e-03 5.85083067e-01 4.84784216e-01 3.90211314e-01 3.46072465e-01 3.52591634e-01 3.84536475e-01 4.26818371e-01 4.70549405e-01 5.10084808e-01 5.40111244e-01 5.54764271e-01 5.48565924e-01 5.17499566e-01 4.61279988e-01 3.87192905e-01 3.09616029e-01 2.42453203e-01 1.93842396e-01 1.66187495e-01 1.53178662e-01 1.60826266e-01 2.57973999e-01 3.92658532e-01 5.52188873e-01 7.52918422e-01 8.97212386e-01 9.56208467e-01 9.62681115e-01 5.80614507e-01 3.48306121e-03 3.16299149e-03 6.27193749e-01 5.35054684e-01 3.86229157e-01 3.16349953e-01 3.12852442e-01 3.37400138e-01 3.71872872e-01 4.09189135e-01 4.46306616e-01 4.78495896e-01 4.98039484e-01 4.97079015e-01 4.71158028e-01 4.22169119e-01 3.59563679e-01 2.96319962e-01 2.42013544e-01 2.00861469e-01 1.74466312e-01 1.66810840e-01 2.05247283e-01 3.20893884e-01 4.52472389e-01 6.03588343e-01 7.83390164e-01 9.07946229e-01 9.58928406e-01 9.65890050e-01 4.10407156e-01 4.18777624e-03 3.65745905e-03 6.74045324e-01 5.92177808e-01 3.77323270e-01 2.82332420e-01 2.73536414e-01 2.93986976e-01 3.20917904e-01 3.49771351e-01 3.81711155e-01 4.13696438e-01 4.36457425e-01 4.39542294e-01 4.17928129e-01 3.75644654e-01 3.24052721e-01 2.75030345e-01 2.35517263e-01 2.08622262e-01 1.99050486e-01 2.24508137e-01 3.23653400e-01 4.63670582e-01 5.68702221e-01 6.78016067e-01 8.09353054e-01 9.10315812e-01 9.57461536e-01 9.64369178e-01 1.31106734e-01 5.09797689e-03 4.28041583e-03 7.22449303e-01 6.50674224e-01 3.58716488e-01 2.42399469e-01 2.34043628e-01 2.54493147e-01 2.75354773e-01 2.95549065e-01 3.21732551e-01 3.52986515e-01 3.78547430e-01 3.85177195e-01 3.67174476e-01 3.30598533e-01 2.88416296e-01 2.51792043e-01 2.26664364e-01 2.17628166e-01 2.36881211e-01 3.18768650e-01 4.80310470e-01 6.16169989e-01 6.88562810e-01 7.57510006e-01 8.43066990e-01 9.16166484e-01 9.54675138e-01 9.47704792e-01 5.15594557e-02 6.10808795e-03 5.12677291e-03 7.69448578e-01 7.05594063e-01 3.26702505e-01 1.97367072e-01 1.94739625e-01 2.18966827e-01 2.35477254e-01 2.47854218e-01 2.69356668e-01 3.01033646e-01 3.30413550e-01 3.41078699e-01 3.26471835e-01 2.94674814e-01 2.60150433e-01 2.33874395e-01 2.22272366e-01 2.33935237e-01 2.92598993e-01 4.39912289e-01 6.29574001e-01 7.38657415e-01 7.85743594e-01 8.26136410e-01 8.76089871e-01 9.22928452e-01 9.48891401e-01 8.77709329e-01 2.85761412e-02 6.96364883e-03 2.21240189e-04 8.12653959e-01 7.53359914e-01 2.79800504e-01 1.50616109e-01 1.56727970e-01 1.87289134e-01 2.00675756e-01 2.06235349e-01 2.24733710e-01 2.58765727e-01 2.93914676e-01 3.09784085e-01 2.98620313e-01 2.70803869e-01 2.42513895e-01 2.25163922e-01 2.27035210e-01 2.63177574e-01 3.69548649e-01 5.68407536e-01 7.45332003e-01 8.23567390e-01 8.53423655e-01 8.75410795e-01 9.00902569e-01 9.25659716e-01 9.34000015e-01 6.48733675e-01 2.43270583e-02 8.90915748e-03 9.48277675e-03 8.50397110e-01 7.92070568e-01 2.20785439e-01 1.07197635e-01 1.21590823e-01 1.59403071e-01 1.70085222e-01 1.69507384e-01 1.86465040e-01 2.24759579e-01 2.68109471e-01 2.90750444e-01 2.83219576e-01 2.58922279e-01 2.36237988e-01 2.27624759e-01 2.44481072e-01 3.09937418e-01 4.64423627e-01 6.81296647e-01 8.23119521e-01 8.76446843e-01 8.94959092e-01 9.05668080e-01 9.15736377e-01 9.22419608e-01 9.01163161e-01 3.63307923e-01 2.58943066e-02 1.35436505e-02 2.17860863e-02 8.81744266e-01 8.21215808e-01 1.58089936e-01 7.16820210e-02 9.09820944e-02 1.35541648e-01 1.43180802e-01 1.36764243e-01 1.53023914e-01 1.96978956e-01 2.51206309e-01 2.82356352e-01 2.78696001e-01 2.58034736e-01 2.41509110e-01 2.43065253e-01 2.78151333e-01 3.76630813e-01 5.65455258e-01 7.65417457e-01 8.70288312e-01 9.06609774e-01 9.17896450e-01 9.21765506e-01 9.21949089e-01 9.12797689e-01 8.45392287e-01 2.26108626e-01 2.90579740e-02 1.80073418e-02 3.49783823e-02 9.06498194e-01 8.41137111e-01 1.03150301e-01 4.60117012e-02 6.60597980e-02 1.16225578e-01 1.20004714e-01 1.07833169e-01 1.23526007e-01 1.73749581e-01 2.41570115e-01 2.82689333e-01 2.82930553e-01 2.66833782e-01 2.58606523e-01 2.73663461e-01 3.31186444e-01 4.60683793e-01 6.57440543e-01 8.20628107e-01 8.96325827e-01 9.21970546e-01 9.28740382e-01 9.28216755e-01 9.21312690e-01 8.96975756e-01 7.74994671e-01 1.86393574e-01 3.19787264e-02 2.45642923e-02 4.90641594e-02 9.25119638e-01 8.52462471e-01 6.37454391e-02 2.92807091e-02 4.70658056e-02 1.01939768e-01 1.00913435e-01 8.30747485e-02 9.78098810e-02 1.54025972e-01 2.37862453e-01 2.89208680e-01 2.92716920e-01 2.83174515e-01 2.87426293e-01 3.21235150e-01 4.04115021e-01 5.52807689e-01 7.30147660e-01 8.53265703e-01 9.08347785e-01 9.27377403e-01 9.31276202e-01 9.27561283e-01 9.14831579e-01 8.75997365e-01 7.11043239e-01 1.95664346e-01 3.98677625e-02 3.30549665e-02 7.18558580e-02 9.38522518e-01 8.55450630e-01 4.00996730e-02 1.92659479e-02 3.34508903e-02 9.27125439e-02 8.59945938e-02 6.27525896e-02 7.60272294e-02 1.37270868e-01 2.38756821e-01 2.97955930e-01 3.02942395e-01 3.03111851e-01 3.26169193e-01 3.85074645e-01 4.91726726e-01 6.40259445e-01 7.81783760e-01 8.70204866e-01 9.10636067e-01 9.25130546e-01 9.26980019e-01 9.20671880e-01 9.02848780e-01 8.52452993e-01 6.73743606e-01 2.45720446e-01 6.58956394e-02 4.80285995e-02 1.21884242e-01 9.47796106e-01 8.49203289e-01 2.76374388e-02 1.37112085e-02 2.43128315e-02 8.79628658e-02 7.46517479e-02 4.65674512e-02 5.80961555e-02 1.23142883e-01 2.42568046e-01 3.03307265e-01 3.06789339e-01 3.20550442e-01 3.69837493e-01 4.59068298e-01 5.82156360e-01 7.13212729e-01 8.16084981e-01 8.76843989e-01 9.05715764e-01 9.16168809e-01 9.16051567e-01 9.07577097e-01 8.86136889e-01 8.30936313e-01 6.71402276e-01 3.43281418e-01 1.38105705e-01 9.29472446e-02 2.11439893e-01 9.53791380e-01 8.30712795e-01 2.16219537e-02 1.07709579e-02 1.85881034e-02 8.66723061e-02 6.59190118e-02 3.39066461e-02 4.35053520e-02 1.11097701e-01 2.47051388e-01 2.99446970e-01 2.98176080e-01 3.28719586e-01 4.10094827e-01 5.31060696e-01 6.61057830e-01 7.67786086e-01 8.38180423e-01 8.77423704e-01 8.95919502e-01 9.01715577e-01 8.99186373e-01 8.89156997e-01 8.67206275e-01 8.17553997e-01 7.00760186e-01 4.86338794e-01 2.99735308e-01 2.21707106e-01 3.40775311e-01 9.56576586e-01 7.94616401e-01 1.92604400e-02 9.19835083e-03 1.50932558e-02 8.75208229e-02 5.95694520e-02 2.44644843e-02 3.17261294e-02 1.00099586e-01 2.49555007e-01 2.83759207e-01 2.75971800e-01 3.23545843e-01 4.37660307e-01 5.86930215e-01 7.17969000e-01 8.04401696e-01 8.52470219e-01 8.76091659e-01 8.85319054e-01 8.85926366e-01 8.80844891e-01 8.70735228e-01 8.52886617e-01 8.18644285e-01 7.52060771e-01 6.44945085e-01 5.39996147e-01 4.79865819e-01 4.93242949e-01 9.54104602e-01 7.38122582e-01 1.99062377e-02 8.44748784e-03 1.27888685e-02 8.81999284e-02 5.68663776e-02 1.82263199e-02 2.27402095e-02 8.89664888e-02 2.47514963e-01 2.59777874e-01 2.46683553e-01 3.07052493e-01 4.46156263e-01 6.16141319e-01 7.48780012e-01 8.25376272e-01 8.62734616e-01 8.78227234e-01 8.82012606e-01 8.79537106e-01 8.73807728e-01 8.66216421e-01 8.56133163e-01 8.40137720e-01 8.13336790e-01 7.75604248e-01 7.43187547e-01 7.38503277e-01 6.39726937e-01 9.41764832e-01 6.96077943e-01 2.55613383e-02 8.35802034e-03 1.04521625e-02 8.17305297e-02 5.75462878e-02 1.46956807e-02 1.62816700e-02 7.64656588e-02 2.40217984e-01 2.34819055e-01 2.18437880e-01 2.82951832e-01 4.30089384e-01 6.11868203e-01 7.55522430e-01 8.38020861e-01 8.77822042e-01 8.94969285e-01 9.00806904e-01 9.00967300e-01 8.98324311e-01 8.94332409e-01 8.89322042e-01 8.82437527e-01 8.72275293e-01 8.58727753e-01 8.47440362e-01 8.59192193e-01 7.51623034e-01 9.22681749e-01 7.33213365e-01 8.84298012e-02 1.11906156e-02 1.07106771e-02 6.07365817e-02 5.84141016e-02 1.44321034e-02 1.42024830e-02 6.08577915e-02 1.92422390e-01 2.00480431e-01 1.97351232e-01 2.69826174e-01 4.30803329e-01 6.38528943e-01 8.01402032e-01 8.86415541e-01 9.22518849e-01 9.36698496e-01 9.41623747e-01 9.42276537e-01 9.40323412e-01 9.36087608e-01 9.29335594e-01 9.19584394e-01 9.06465590e-01 8.90274405e-01 8.72826040e-01 8.73991907e-01 8.04283798e-01 8.27000201e-01 8.43824387e-01 3.40012968e-01 5.57980426e-02 2.30906643e-02 6.64311871e-02 8.75818059e-02 3.16139795e-02 2.27355324e-02 7.47134462e-02 2.35612080e-01 2.72623032e-01 2.78757066e-01 3.67088646e-01 5.24425268e-01 6.74522996e-01 7.79089689e-01 8.41158926e-01 8.75065982e-01 8.92859280e-01 9.01533723e-01 9.04479682e-01 9.03053701e-01 8.97457659e-01 8.87163103e-01 8.71293306e-01 8.49429309e-01 8.22911501e-01 7.95342386e-01 7.74245501e-01 7.42923558e-01 
