# vtk DataFile Version 2.0
results/8_density.vtk, Created by Freefem++ 
ASCII
DATASET UNSTRUCTURED_GRID
POINTS 961 float
0 0 0
0.033333333 0 0
0.066666667 0 0
0.1 0 0
0.13333333 0 0
0.16666667 0 0
0.2 0 0
0.23333333 0 0
0.26666667 0 0
0.3 0 0
0.33333333 0 0
0.36666667 0 0
0.4 0 0
0.43333333 0 0
0.46666667 0 0
0.5 0 0
0.53333333 0 0
0.56666667 0 0
0.6 0 0
0.63333333 0 0
0.66666667 0 0
0.7 0 0
0.73333333 0 0
0.76666667 0 0
0.8 0 0
0.83333333 0 0
0.86666667 0 0
0.9 0 0
0.93333333 0 0
0.96666667 0 0
1 0 0
0 0.033333333 0
0.033333333 0.033333333 0
0.066666667 0.033333333 0
0.1 0.033333333 0
0.13333333 0.033333333 0
0.16666667 0.033333333 0
0.2 0.033333333 0
0.23333333 0.033333333 0
0.26666667 0.033333333 0
0.3 0.033333333 0
0.33333333 0.033333333 0
0.36666667 0.033333333 0
0.4 0.033333333 0
0.43333333 0.033333333 0
0.46666667 0.033333333 0
0.5 0.033333333 0
0.53333333 0.033333333 0
0.56666667 0.033333333 0
0.6 0.033333333 0
0.63333333 0.033333333 0
0.66666667 0.033333333 0
0.7 0.033333333 0
0.73333333 0.033333333 0
0.76666667 0.033333333 0
0.8 0.033333333 0
0.83333333 0.033333333 0
0.86666667 0.033333333 0
0.9 0.033333333 0
0.93333333 0.033333333 0
0.96666667 0.033333333 0
1 0.033333333 0
0 0.066666667 0
0.033333333 0.066666667 0
0.066666667 0.066666667 0
0.1 0.066666667 0
0.13333333 0.066666667 0
0.16666667 0.066666667 0
0.2 0.066666667 0
0.23333333 0.066666667 0
0.26666667 0.066666667 0
0.3 0.066666667 0
0.33333333 0.066666667 0
0.36666667 0.066666667 0
0.4 0.066666667 0
0.43333333 0.066666667 0
0.46666667 0.066666667 0
0.5 0.066666667 0
0.53333333 0.066666667 0
0.56666667 0.066666667 0
0.6 0.066666667 0
0.63333333 0.066666667 0
0.66666667 0.066666667 0
0.7 0.066666667 0
0.73333333 0.066666667 0
0.76666667 0.066666667 0
0.8 0.066666667 0
0.83333333 0.066666667 0
0.86666667 0.066666667 0
0.9 0.066666667 0
0.93333333 0.066666667 0
0.96666667 0.066666667 0
1 0.066666667 0
0 0.1 0
0.033333333 0.1 0
0.066666667 0.1 0
0.1 0.1 0
0.13333333 0.1 0
0.16666667 0.1 0
0.2 0.1 0
0.23333333 0.1 0
0.26666667 0.1 0
0.3 0.1 0
0.33333333 0.1 0
0.36666667 0.1 0
0.4 0.1 0
0.43333333 0.1 0
0.46666667 0.1 0
0.5 0.1 0
0.53333333 0.1 0
0.56666667 0.1 0
0.6 0.1 0
0.63333333 0.1 0
0.66666667 0.1 0
0.7 0.1 0
0.73333333 0.1 0
0.76666667 0.1 0
0.8 0.1 0
0.83333333 0.1 0
0.86666667 0.1 0
0.9 0.1 0
0.93333333 0.1 0
0.96666667 0.1 0
1 0.1 0
0 0.13333333 0
0.033333333 0.13333333 0
0.066666667 0.13333333 0
0.1 0.13333333 0
0.13333333 0.13333333 0
0.16666667 0.13333333 0
0.2 0.13333333 0
0.23333333 0.13333333 0
0.26666667 0.13333333 0
0.3 0.13333333 0
0.33333333 0.13333333 0
0.36666667 0.13333333 0
0.4 0.13333333 0
0.43333333 0.13333333 0
0.46666667 0.13333333 0
0.5 0.13333333 0
0.53333333 0.13333333 0
0.56666667 0.13333333 0
0.6 0.13333333 0
0.63333333 0.13333333 0
0.66666667 0.13333333 0
0.7 0.13333333 0
0.73333333 0.13333333 0
0.76666667 0.13333333 0
0.8 0.13333333 0
0.83333333 0.13333333 0
0.86666667 0.13333333 0
0.9 0.13333333 0
0.93333333 0.13333333 0
0.96666667 0.13333333 0
1 0.13333333 0
0 0.16666667 0
0.033333333 0.16666667 0
0.066666667 0.16666667 0
0.1 0.16666667 0
0.13333333 0.16666667 0
0.16666667 0.16666667 0
0.2 0.16666667 0
0.23333333 0.16666667 0
0.26666667 0.16666667 0
0.3 0.16666667 0
0.33333333 0.16666667 0
0.36666667 0.16666667 0
0.4 0.16666667 0
0.43333333 0.16666667 0
0.46666667 0.16666667 0
0.5 0.16666667 0
0.53333333 0.16666667 0
0.56666667 0.16666667 0
0.6 0.16666667 0
0.63333333 0.16666667 0
0.66666667 0.16666667 0
0.7 0.16666667 0
0.73333333 0.16666667 0
0.76666667 0.16666667 0
0.8 0.16666667 0
0.83333333 0.16666667 0
0.86666667 0.16666667 0
0.9 0.16666667 0
0.93333333 0.16666667 0
0.96666667 0.16666667 0
1 0.16666667 0
0 0.2 0
0.033333333 0.2 0
0.066666667 0.2 0
0.1 0.2 0
0.13333333 0.2 0
0.16666667 0.2 0
0.2 0.2 0
0.23333333 0.2 0
0.26666667 0.2 0
0.3 0.2 0
0.33333333 0.2 0
0.36666667 0.2 0
0.4 0.2 0
0.43333333 0.2 0
0.46666667 0.2 0
0.5 0.2 0
0.53333333 0.2 0
0.56666667 0.2 0
0.6 0.2 0
0.63333333 0.2 0
0.66666667 0.2 0
0.7 0.2 0
0.73333333 0.2 0
0.76666667 0.2 0
0.8 0.2 0
0.83333333 0.2 0
0.86666667 0.2 0
0.9 0.2 0
0.93333333 0.2 0
0.96666667 0.2 0
1 0.2 0
0 0.23333333 0
0.033333333 0.23333333 0
0.066666667 0.23333333 0
0.1 0.23333333 0
0.13333333 0.23333333 0
0.16666667 0.23333333 0
0.2 0.23333333 0
0.23333333 0.23333333 0
0.26666667 0.23333333 0
0.3 0.23333333 0
0.33333333 0.23333333 0
0.36666667 0.23333333 0
0.4 0.23333333 0
0.43333333 0.23333333 0
0.46666667 0.23333333 0
0.5 0.23333333 0
0.53333333 0.23333333 0
0.56666667 0.23333333 0
0.6 0.23333333 0
0.63333333 0.23333333 0
0.66666667 0.23333333 0
0.7 0.23333333 0
0.73333333 0.23333333 0
0.76666667 0.23333333 0
0.8 0.23333333 0
0.83333333 0.23333333 0
0.86666667 0.23333333 0
0.9 0.23333333 0
0.93333333 0.23333333 0
0.96666667 0.23333333 0
1 0.23333333 0
0 0.26666667 0
0.033333333 0.26666667 0
0.066666667 0.26666667 0
0.1 0.26666667 0
0.13333333 0.26666667 0
0.16666667 0.26666667 0
0.2 0.26666667 0
0.23333333 0.26666667 0
0.26666667 0.26666667 0
0.3 0.26666667 0
0.33333333 0.26666667 0
0.36666667 0.26666667 0
0.4 0.26666667 0
0.43333333 0.26666667 0
0.46666667 0.26666667 0
0.5 0.26666667 0
0.53333333 0.26666667 0
0.56666667 0.26666667 0
0.6 0.26666667 0
0.63333333 0.26666667 0
0.66666667 0.26666667 0
0.7 0.26666667 0
0.73333333 0.26666667 0
0.76666667 0.26666667 0
0.8 0.26666667 0
0.83333333 0.26666667 0
0.86666667 0.26666667 0
0.9 0.26666667 0
0.93333333 0.26666667 0
0.96666667 0.26666667 0
1 0.26666667 0
0 0.3 0
0.033333333 0.3 0
0.066666667 0.3 0
0.1 0.3 0
0.13333333 0.3 0
0.16666667 0.3 0
0.2 0.3 0
0.23333333 0.3 0
0.26666667 0.3 0
0.3 0.3 0
0.33333333 0.3 0
0.36666667 0.3 0
0.4 0.3 0
0.43333333 0.3 0
0.46666667 0.3 0
0.5 0.3 0
0.53333333 0.3 0
0.56666667 0.3 0
0.6 0.3 0
0.63333333 0.3 0
0.66666667 0.3 0
0.7 0.3 0
0.73333333 0.3 0
0.76666667 0.3 0
0.8 0.3 0
0.83333333 0.3 0
0.86666667 0.3 0
0.9 0.3 0
0.93333333 0.3 0
0.96666667 0.3 0
1 0.3 0
0 0.33333333 0
0.033333333 0.33333333 0
0.066666667 0.33333333 0
0.1 0.33333333 0
0.13333333 0.33333333 0
0.16666667 0.33333333 0
0.2 0.33333333 0
0.23333333 0.33333333 0
0.26666667 0.33333333 0
0.3 0.33333333 0
0.33333333 0.33333333 0
0.36666667 0.33333333 0
0.4 0.33333333 0
0.43333333 0.33333333 0
0.46666667 0.33333333 0
0.5 0.33333333 0
0.53333333 0.33333333 0
0.56666667 0.33333333 0
0.6 0.33333333 0
0.63333333 0.33333333 0
0.66666667 0.33333333 0
0.7 0.33333333 0
0.73333333 0.33333333 0
0.76666667 0.33333333 0
0.8 0.33333333 0
0.83333333 0.33333333 0
0.86666667 0.33333333 0
0.9 0.33333333 0
0.93333333 0.33333333 0
0.96666667 0.33333333 0
1 0.33333333 0
0 0.36666667 0
0.033333333 0.36666667 0
0.066666667 0.36666667 0
0.1 0.36666667 0
0.13333333 0.36666667 0
0.16666667 0.36666667 0
0.2 0.36666667 0
0.23333333 0.36666667 0
0.26666667 0.36666667 0
0.3 0.36666667 0
0.33333333 0.36666667 0
0.36666667 0.36666667 0
0.4 0.36666667 0
0.43333333 0.36666667 0
0.46666667 0.36666667 0
0.5 0.36666667 0
0.53333333 0.36666667 0
0.56666667 0.36666667 0
0.6 0.36666667 0
0.63333333 0.36666667 0
0.66666667 0.36666667 0
0.7 0.36666667 0
0.73333333 0.36666667 0
0.76666667 0.36666667 0
0.8 0.36666667 0
0.83333333 0.36666667 0
0.86666667 0.36666667 0
0.9 0.36666667 0
0.93333333 0.36666667 0
0.96666667 0.36666667 0
1 0.36666667 0
0 0.4 0
0.033333333 0.4 0
0.066666667 0.4 0
0.1 0.4 0
0.13333333 0.4 0
0.16666667 0.4 0
0.2 0.4 0
0.23333333 0.4 0
0.26666667 0.4 0
0.3 0.4 0
0.33333333 0.4 0
0.36666667 0.4 0
0.4 0.4 0
0.43333333 0.4 0
0.46666667 0.4 0
0.5 0.4 0
0.53333333 0.4 0
0.56666667 0.4 0
0.6 0.4 0
0.63333333 0.4 0
0.66666667 0.4 0
0.7 0.4 0
0.73333333 0.4 0
0.76666667 0.4 0
0.8 0.4 0
0.83333333 0.4 0
0.86666667 0.4 0
0.9 0.4 0
0.93333333 0.4 0
0.96666667 0.4 0
1 0.4 0
0 0.43333333 0
0.033333333 0.43333333 0
0.066666667 0.43333333 0
0.1 0.43333333 0
0.13333333 0.43333333 0
0.16666667 0.43333333 0
0.2 0.43333333 0
0.23333333 0.43333333 0
0.26666667 0.43333333 0
0.3 0.43333333 0
0.33333333 0.43333333 0
0.36666667 0.43333333 0
0.4 0.43333333 0
0.43333333 0.43333333 0
0.46666667 0.43333333 0
0.5 0.43333333 0
0.53333333 0.43333333 0
0.56666667 0.43333333 0
0.6 0.43333333 0
0.63333333 0.43333333 0
0.66666667 0.43333333 0
0.7 0.43333333 0
0.73333333 0.43333333 0
0.76666667 0.43333333 0
0.8 0.43333333 0
0.83333333 0.43333333 0
0.86666667 0.43333333 0
0.9 0.43333333 0
0.93333333 0.43333333 0
0.96666667 0.43333333 0
1 0.43333333 0
0 0.46666667 0
0.033333333 0.46666667 0
0.066666667 0.46666667 0
0.1 0.46666667 0
0.13333333 0.46666667 0
0.16666667 0.46666667 0
0.2 0.46666667 0
0.23333333 0.46666667 0
0.26666667 0.46666667 0
0.3 0.46666667 0
0.33333333 0.46666667 0
0.36666667 0.46666667 0
0.4 0.46666667 0
0.43333333 0.46666667 0
0.46666667 0.46666667 0
0.5 0.46666667 0
0.53333333 0.46666667 0
0.56666667 0.46666667 0
0.6 0.46666667 0
0.63333333 0.46666667 0
0.66666667 0.46666667 0
0.7 0.46666667 0
0.73333333 0.46666667 0
0.76666667 0.46666667 0
0.8 0.46666667 0
0.83333333 0.46666667 0
0.86666667 0.46666667 0
0.9 0.46666667 0
0.93333333 0.46666667 0
0.96666667 0.46666667 0
1 0.46666667 0
0 0.5 0
0.033333333 0.5 0
0.066666667 0.5 0
0.1 0.5 0
0.13333333 0.5 0
0.16666667 0.5 0
0.2 0.5 0
0.23333333 0.5 0
0.26666667 0.5 0
0.3 0.5 0
0.33333333 0.5 0
0.36666667 0.5 0
0.4 0.5 0
0.43333333 0.5 0
0.46666667 0.5 0
0.5 0.5 0
0.53333333 0.5 0
0.56666667 0.5 0
0.6 0.5 0
0.63333333 0.5 0
0.66666667 0.5 0
0.7 0.5 0
0.73333333 0.5 0
0.76666667 0.5 0
0.8 0.5 0
0.83333333 0.5 0
0.86666667 0.5 0
0.9 0.5 0
0.93333333 0.5 0
0.96666667 0.5 0
1 0.5 0
0 0.53333333 0
0.033333333 0.53333333 0
0.066666667 0.53333333 0
0.1 0.53333333 0
0.13333333 0.53333333 0
0.16666667 0.53333333 0
0.2 0.53333333 0
0.23333333 0.53333333 0
0.26666667 0.53333333 0
0.3 0.53333333 0
0.33333333 0.53333333 0
0.36666667 0.53333333 0
0.4 0.53333333 0
0.43333333 0.53333333 0
0.46666667 0.53333333 0
0.5 0.53333333 0
0.53333333 0.53333333 0
0.56666667 0.53333333 0
0.6 0.53333333 0
0.63333333 0.53333333 0
0.66666667 0.53333333 0
0.7 0.53333333 0
0.73333333 0.53333333 0
0.76666667 0.53333333 0
0.8 0.53333333 0
[...]
CELL_DATA 1920
Scalars  Label int 1
LOOKUP_TABLE FreeFempp_table
0
0
0
0
0
0
0
0
0
0
0
0
0
0
0
0
0
0
0
0
0
0
0
0
0
0
0
0
0
0
0
0
0
0
0
0
0
0
0
0
0
0
0
0
0
0
0
0
0
0
0
0
0
0
0
0
0
0
0
0
0
0
0
0
0
0
0
0
0
0
0
0
0
0
0
0
0
0
0
0
0
0
0
0
0
0
0
0
0
0
0
0
0
0
0
0
0
0
0
0
0
0
0
0
0
0
0
0
0
0
0
0
0
0
0
0
0
0
0
0
0
0
0
0
0
0
0
0
0
0
0
0
0
0
0
0
0
0
0
0
0
0
0
0
0
0
0
0
0
0
0
0
0
0
0
0
0
0
0
0
0
0
0
0
0
0
0
0
0
0
0
0
0
0
0
0
0
0
0
0
0
0
0
0
0
0
0
0
0
0
0
0
0
0
0
0
0
0
0
0
0
0
0
0
0
0
0
0
0
0
0
0
0
0
0
0
0
0
0
0
0
0
0
0
0
0
0
0
0
0
0
0
0
0
0
0
0
0
0
0
0
0
0
0
0
0
0
0
0
0
0
0
0
0
0
0
0
0
0
0
0
0
0
0
0
0
0
0
0
0
0
0
0
0
0
0
0
0
0
0
0
0
0
0
0
0
0
0
0
0
0
0
0
0
0
0
0
0
0
0
0
0
0
0
0
0
0
0
0
0
0
0
0
0
0
0
0
0
0
0
0
0
0
0
0
0
0
0
0
0
0
0
0
0
0
0
0
0
0
0
0
0
0
0
0
0
0
0
0
0
0
0
0
0
0
0
0
0
0
0
0
0
0
0
0
0
0
0
0
0
0
0
0
0
0
0
0
0
0
0
0
0
0
0
0
0
0
0
0
0
0
0
0
0
0
0
0
0
0
0
0
0
0
0
0
0
0
0
0
0
0
0
0
0
0
0
0
0
0
0
0
0
0
0
0
0
0
0
0
0
0
0
0
0
0
0
0
0
0
0
0
0
0
0
0
0
0
0
0
0
0
0
0
0
0
0
0
0
0
0
0
0
0
0
0
0
0
0
0
0
0
0
0
0
0
0
0
0
0
0
0
0
0
0
0
0
0
0
0
0
0
0
0
0
0
0
0
0
0
0
0
0
0
0
0
0
0
0
0
0
0
0
0
0
0
0
0
0
0
0
0
0
0
0
0
0
0
0
0
0
0
0
0
0
0
0
0
0
0
0
0
0
0
0
0
0
0
0
0
0
0
0
0
0
0
0
0
0
0
0
0
0
0
0
0
0
0
0
0
0
0
0
0
0
0
0
0
0
0
0
0
0
0
0
0
0
0
0
0
0
0
0
0
0
0
0
0
0
0
0
0
0
0
0
0
0
0
0
0
0
0
0
0
0
0
0
0
0
0
0
0
0
0
0
0
0
0
0
0
0
0
0
0
0
0
0
0
0
0
0
0
0
0
0
0
0
0
0
0
0
0
0
0
0
0
0
0
0
0
0
0
0
0
0
0
0
0
0
0
0
0
0
0
0
0
0
0
0
0
0
0
0
0
0
0
0
0
0
0
0
0
0
0
0
0
0
0
0
0
0
0
0
0
0
0
0
0
0
0
0
0
0
0
0
0
0
0
0
0
0
0
0
0
0
0
0
0
0
0
0
0
0
0
0
0
0
0
0
0
0
0
0
0
0
0
0
0
0
0
0
0
0
0
0
0
0
0
0
0
0
0
0
0
0
0
0
0
0
0
0
0
0
0
0
0
0
0
0
0
0
0
0
0
0
0
0
0
0
0
0
0
0
0
0
0
0
0
0
0
0
0
0
0
0
0
0
0
0
0
0
0
0
0
0
0
0
0
0
0
0
0
0
0
0
0
0
0
0
0
0
0
0
0
0
0
0
0
0
0
0
0
0
0
0
0
0
0
0
0
0
0
0
0
0
0
0
0
0
0
0
0
0
0
0
0
0
0
0
0
0
0
0
0
0
0
0
0
0
0
0
0
0
0
0
0
0
0
0
0
0
0
0
0
0
0
0
0
0
0
0
0
0
0
0
0
0
0
0
0
0
0
0
0
0
0
0
0
0
0
0
0
0
0
0
0
0
0
0
0
0
0
0
0
0
0
0
0
0
0
0
0
0
0
0
0
0
0
0
0
0
0
0
0
0
0
0
0
0
0
0
0
0
0
0
0
0
0
0
0
0
0
0
0
0
0
0
0
0
0
0
0
0
0
0
0
0
0
0
0
0
0
0
0
0
0
0
0
0
0
0
0
0
0
0
0
0
0
0
0
0
0
0
0
0
0
0
0
0
0
0
0
0
0
0
0
0
0
0
0
0
0
0
0
0
0
0
0
0
0
0
0
0
0
0
0
0
0
0
0
0
0
0
0
0
0
0
0
0
0
0
0
0
0
0
0
0
0
0
0
0
0
0
0
0
0
0
0
0
0
0
0
0
0
0
0
0
0
0
0
0
0
0
0
0
0
0
0
0
0
0
0
0
0
0
0
0
0
0
0
0
0
0
0
0
0
0
0
0
0
0
0
0
0
0
0
0
0
0
0
0
0
0
0
0
0
0
0
0
0
0
0
0
0
0
0
0
0
0
0
0
0
0
0
0
0
0
0
0
0
0
0
0
0
0
0
0
0
0
0
0
0
0
0
0
0
0
0
0
0
0
0
0
0
0
0
0
0
0
0
0
0
0
0
0
0
0
0
0
0
0
0
0
0
0
0
0
0
0
0
0
0
0
0
0
0
0
0
0
0
0
0
0
0
0
0
0
0
0
0
0
0
0
0
0
0
0
0
0
0
0
0
0
0
0
0
0
0
0
0
0
0
0
0
0
0
0
0
0
0
0
0
0
0
0
0
0
0
0
0
0
0
0
0
0
0
0
0
0
0
0
0
0
0
0
0
0
0
0
0
0
0
0
0
0
0
0
0
0
0
0
0
0
0
0
0
0
0
0
0
0
0
0
0
0
0
0
0
0
0
0
0
0
0
0
0
0
0
0
0
0
0
0
0
0
0
0
0
0
0
0
0
0
0
0
0
0
0
0
0
0
0
0
0
0
0
0
0
0
0
0
0
0
0
0
0
0
0
0
0
0
0
0
0
0
0
0
0
0
0
0
0
0
0
0
0
0
0
0
0
0
0
0
0
0
0
0
0
0
0
0
0
0
0
0
0
0
0
0
0
0
0
0
0
0
0
0
0
0
0
0
0
0
0
0
0
0
0
0
0
0
0
0
0
0
0
0
0
0
0
0
0
0
0
0
0
0
0
0
0
0
0
0
0
0
0
0
0
0
0
0
0
0
0
0
0
0
0
0
0
0
0
0
0
0
0
0
0
0
0
0
0
0
0
0
0
0
0
0
0
0
0
0
0
0
0
0
0
0
0
0
0
0
0
0
0
0
0
0
0
0
0
0
0
0
0
0
0
0
0
0
0
0
0
0
0
0
0
0
0
0
0
0
0
0
0
0
0
0
0
0
0
0
0
0
0
0
0
0
0
0
0
0
0
0
0
0
0
0
0
0
0
0
0
0
0
0
0
0
0
0
0
0
0
0
0
0
0
0
0
0
0
0
0
0
0
0
0
0
0
0
0
0
0
0
0
0
0
0
0
0
0
0
0
0
0
0
0
0
0
0
0
0
0
0
0
0
0
0
0
0
0
0
0
0
0
0
0
0
0
0
0
0
0
0
0
0
0
0
0
0
0
0
0
0
0
0
0
0
0
0
0
0
0
0
0
0
0
0
0
0
0
0
0
0
0
0
0
0
0
0
0
0
0
0
0
0
0
0
0
0
0
0
0
0
0
0
0
0
0
0
0
0
0
0
0
0
0
0
0
0
0
0
0
0
0
0
0
0
0
0
0
0
0
0
0
0
0
0
0
0
0
0
0
0
0
0
0
0
0
0
0
0
0
0
0
0
0
0
0
0
0
0
0
0
0
0
0
0
0
0
0
0
0
0
0
0
0
0
0
0
0
0
0
0
0
0
0
0
0
0
0
0
0
0
0
0
0
0
0
0
0
0
0
0
0
0
0
0
0
0
0
0
0
0
0
0
0
0
0
0
1
1
1
1
1
1
1
1
1
1
1
1
1
1
1
1
1
1
1
1
1
1
1
1
1
1
1
1
1
1
2
2
2
2
2
2
2
2
2
2
2
2
2
2
2
2
2
2
2
2
2
2
2
2
2
2
2
2
2
2
3
3
3
3
3
3
3
3
3
3
3
3
3
3
3
3
3
3
3
3
3
3
3
3
3
3
3
3
3
3
4
4
4
4
4
4
4
4
4
4
4
4
4
4
4
4
4
4
4
4
4
4
4
4
4
4
4
4
4
4

LOOKUP_TABLE FreeFempp_table 5
1.00000000 0.00000000 0.00000000 1.00000000
1.00000000 1.00000000 0.00000000 1.00000000
1.00000000 0.00000000 1.00000000 1.00000000
0.00000000 1.00000000 0.00000000 1.00000000
0.00000000 1.00000000 1.00000000 1.00000000

POINT_DATA 961
FIELD FieldData 1
Density 1 961 float
5.48815668e-01 4.94609058e-01 4.91584063e-01 4.90510613e-01 4.89953607e-01 4.90128279e-01 4.87911701e-01 2.93271989e-01 3.26442625e-03 3.84566048e-03 5.09074926e-02 4.44331020e-01 4.94424224e-01 5.19050777e-01 5.86084008e-01 7.14853644e-01 7.90011108e-01 7.63675272e-01 7.44302988e-01 7.71785975e-01 7.86189675e-01 7.88621366e-01 7.74269164e-01 7.36529648e-01 7.05638468e-01 6.84701324e-01 6.70609176e-01 6.62275851e-01 6.57617509e-01 6.53971553e-01 6.48249984e-01 4.84446317e-01 3.61144841e-01 3.57330173e-01 3.56921971e-01 3.57003689e-01 3.57715756e-01 3.54305267e-01 2.60366470e-01 3.59388022e-03 2.06914661e-03 1.03661893e-02 3.13248664e-01 3.67999554e-01 3.81261826e-01 4.53953654e-01 6.87063575e-01 8.96387398e-01 8.91161740e-01 8.37636352e-01 8.32114100e-01 8.48261476e-01 8.58617067e-01 8.72455597e-01 8.45566452e-01 7.93441474e-01 7.28203833e-01 6.88681781e-01 6.66142344e-01 6.53773010e-01 6.44482791e-01 6.49208426e-01 8.57994135e-04 7.46800913e-04 7.47842831e-04 7.50527193e-04 7.52796012e-04 7.55144458e-04 7.57800881e-04 7.65846227e-04 7.61004863e-04 7.06631108e-04 5.81623579e-04 3.35556924e-01 3.78239930e-01 3.75945985e-01 4.16514754e-01 5.63717723e-01 8.69552135e-01 7.78282702e-01 6.49176314e-02 1.78400986e-02 9.66127682e-03 8.82988423e-03 1.31312702e-02 6.08484522e-02 7.27710485e-01 6.81576371e-01 6.36050880e-01 6.02189183e-01 5.89706182e-01 5.80100477e-01 6.23339713e-01 1.22690864e-03 6.93022157e-04 7.52828491e-04 7.48900347e-04 7.51133077e-04 7.53319648e-04 7.55564426e-04 7.58572889e-04 7.67290418e-04 8.17149121e-04 4.19507560e-04 4.15350340e-04 6.52571151e-04 6.88445638e-04 6.30504801e-04 4.31275427e-01 8.53176534e-01 9.86812949e-01 1.17316194e-01 1.84751730e-02 7.05541717e-03 3.53286485e-03 1.95158739e-03 1.33988040e-03 1.21511018e-03 1.02313305e-03 5.12626231e-01 5.13779461e-01 5.04794955e-01 4.99415815e-01 5.83818197e-01 5.65801620e-01 4.71717358e-01 4.72672135e-01 4.70578820e-01 4.67754990e-01 4.63182628e-01 4.56705749e-01 4.48659241e-01 4.38684762e-01 4.25974846e-01 3.98112684e-01 6.08508941e-04 6.77678676e-04 6.53986528e-04 4.28157509e-04 4.29298991e-04 7.31956505e-04 6.65548956e-04 9.90980327e-01 1.02313049e-01 2.45242361e-02 8.74054991e-03 3.89656634e-03 1.92481559e-03 1.36744126e-03 6.87930558e-04 6.34125085e-04 4.27508056e-01 4.42310005e-01 4.37702060e-01 5.48361540e-01 5.79195976e-01 5.09268403e-01 5.11581421e-01 5.09185731e-01 5.06640911e-01 5.03139555e-01 4.98438269e-01 4.93080080e-01 4.87602055e-01 4.82467711e-01 4.80431020e-01 4.87379909e-01 4.74423528e-01 4.42067325e-01 4.03771967e-01 6.38630998e-04 7.24385958e-04 4.64044919e-04 4.73985274e-04 9.74175751e-01 9.65233862e-01 9.44376349e-01 9.12867367e-01 8.59067917e-01 6.91509426e-01 1.43514425e-01 6.13541051e-04 5.85204572e-04 4.01163667e-01 4.07008976e-01 5.25969625e-01 5.82246125e-01 5.15959382e-01 5.18634737e-01 5.17443836e-01 5.16540706e-01 5.15498042e-01 5.14167607e-01 5.12700200e-01 5.11206925e-01 5.09560466e-01 5.08173347e-01 5.10291815e-01 5.18863499e-01 5.11859894e-01 5.03391981e-01 4.98720586e-01 4.60839957e-01 4.08042580e-01 5.17503358e-04 5.53518475e-04 3.09373021e-01 8.30234170e-01 8.72517884e-01 8.96200716e-01 9.09593344e-01 9.72634375e-01 3.22961241e-01 5.78788400e-04 5.56757441e-04 3.94437671e-01 5.13175488e-01 5.85219026e-01 5.22077262e-01 5.25352120e-01 5.24842799e-01 5.25119305e-01 5.25761247e-01 5.26573002e-01 5.27394712e-01 5.28044403e-01 5.28292954e-01 5.28407097e-01 5.30062199e-01 5.34958839e-01 5.40499151e-01 5.42629421e-01 5.46075821e-01 5.49304366e-01 5.30579865e-01 5.09537399e-01 5.85262547e-04 6.47065288e-04 1.31300359e-03 1.75906892e-03 2.77136709e-03 4.64692013e-03 2.88709812e-02 9.00716960e-01 7.14049995e-01 5.72739518e-04 8.36216146e-04 4.84708279e-01 5.87882638e-01 5.28037965e-01 5.31603992e-01 5.31366587e-01 5.31923831e-01 5.33167958e-01 5.34902930e-01 5.36826849e-01 5.38688958e-01 5.40384352e-01 5.42303324e-01 5.45674622e-01 5.51733792e-01 5.59919894e-01 5.69079876e-01 5.80555737e-01 5.95892072e-01 6.11644745e-01 6.31455064e-01 6.78514779e-01 9.73033544e-04 1.16199267e-03 1.35142263e-03 1.88484066e-03 3.20626446e-03 8.79097171e-03 8.72496814e-02 9.94099021e-01 1.00445352e-03 9.71131667e-04 4.49755222e-01 5.89406192e-01 5.31361759e-01 5.35186529e-01 5.35638809e-01 5.35910845e-01 5.36766171e-01 5.38392425e-01 5.40476441e-01 5.42745829e-01 5.45165479e-01 5.48115551e-01 5.52457273e-01 5.59002459e-01 5.67742944e-01 5.78562140e-01 5.92579722e-01 6.10942125e-01 6.33987308e-01 6.64441347e-01 7.25264490e-01 8.06700408e-01 7.94511795e-01 7.31607378e-01 1.45289093e-01 7.30512962e-02 8.61968398e-02 2.07371250e-01 9.87164736e-01 9.32732597e-04 6.02947606e-04 4.05551821e-01 5.89595616e-01 5.31616986e-01 5.34249187e-01 5.36719084e-01 5.36244690e-01 5.35990596e-01 5.36609352e-01 5.37986398e-01 5.39809108e-01 5.41988909e-01 5.44758499e-01 5.48616827e-01 5.53990781e-01 5.60895741e-01 5.69307983e-01 5.79656243e-01 5.92202783e-01 6.06814682e-01 6.24642015e-01 6.49914563e-01 6.94932461e-01 7.65395224e-01 7.87490726e-01 8.38915944e-01 8.91996026e-01 8.54145348e-01 7.41311908e-01 8.78984988e-01 9.72304642e-01 5.95328049e-04 8.28093674e-04 5.87649107e-01 5.30078292e-01 5.34337759e-01 5.36001861e-01 5.33454418e-01 5.30842364e-01 5.29648423e-01 5.29612422e-01 5.30273199e-01 5.31377971e-01 5.32934487e-01 5.35109639e-01 5.38003623e-01 5.41485488e-01 5.45367837e-01 5.49569011e-01 5.53794920e-01 5.57549894e-01 5.61045766e-01 5.65716922e-01 5.75383127e-01 5.89967251e-01 6.07503951e-01 6.14177406e-01 6.29795074e-01 6.09044015e-01 6.29430234e-01 8.75152647e-01 9.29895282e-01 1.83122023e-03 1.08754646e-03 5.83521545e-01 5.25236309e-01 5.37782371e-01 5.37224710e-01 5.29030144e-01 5.21673381e-01 5.17861426e-01 5.16088963e-01 5.15280843e-01 5.14942467e-01 5.14836192e-01 5.14848292e-01 5.14835894e-01 5.14540792e-01 5.13677955e-01 5.12008786e-01 5.09240508e-01 5.05118489e-01 4.99900073e-01 4.94649380e-01 4.91282344e-01 4.89785314e-01 4.87408817e-01 4.85282719e-01 4.87748772e-01 5.30036807e-01 6.49290204e-01 8.71208191e-01 9.13268507e-01 2.03924859e-03 1.79400295e-03 5.78518331e-01 5.14571130e-01 5.27851939e-01 5.23145258e-01 5.20448506e-01 5.08667409e-01 5.01865625e-01 4.98464912e-01 4.96329248e-01 4.94704604e-01 4.93142158e-01 4.91302699e-01 4.88879830e-01 4.85562146e-01 4.81087983e-01 4.75307286e-01 4.68217701e-01 4.60126787e-01 4.51790720e-01 4.44435596e-01 4.39678907e-01 4.38204914e-01 4.40507948e-01 4.50334966e-01 4.79326367e-01 5.55802345e-01 7.13792205e-01 8.75827074e-01 8.34497631e-01 2.36151996e-03 2.13293266e-03 5.73303938e-01 5.02153218e-01 5.12990475e-01 5.07152915e-01 5.02095520e-01 4.92112488e-01 4.82718021e-01 4.78020281e-01 4.74993378e-01 4.72616971e-01 4.70270813e-01 4.67434853e-01 4.63688582e-01 4.58720714e-01 4.52367574e-01 4.44663852e-01 4.35917914e-01 4.26860064e-01 4.18687373e-01 4.12827879e-01 4.10876781e-01 4.14444625e-01 4.26100314e-01 4.52404439e-01 5.07233977e-01 6.11189187e-01 7.62169600e-01 8.51620615e-01 6.45609200e-01 2.72941496e-03 2.42739986e-03 5.68096280e-01 4.89841491e-01 4.97810930e-01 4.90553230e-01 4.82220322e-01 4.72932905e-01 4.61515218e-01 4.55914319e-01 4.52606201e-01 4.50259238e-01 4.48057443e-01 4.45312351e-01 4.41504925e-01 4.36336368e-01 4.29755181e-01 4.21983063e-01 4.13570702e-01 4.05497551e-01 3.99175197e-01 3.96225363e-01 3.98548841e-01 4.08717752e-01 4.31136250e-01 4.74594891e-01 5.52762210e-01 6.73970699e-01 7.94100940e-01 8.13915253e-01 2.97547668e-01 3.33003933e-03 2.85926485e-03 5.63196957e-01 4.78051096e-01 4.82241958e-01 4.73082691e-01 4.62813765e-01 4.51939672e-01 4.38832939e-01 4.32820618e-01 4.30011779e-01 4.28665578e-01 4.27666187e-01 4.26117569e-01 4.23395127e-01 4.19211477e-01 4.13623750e-01 4.07022864e-01 4.00153160e-01 3.94175172e-01 3.90641570e-01 3.91392797e-01 3.98849458e-01 4.16586399e-01 4.50766921e-01 5.11359453e-01 6.07842147e-01 7.27193654e-01 8.03867638e-01 6.77728832e-01 7.14652464e-02 4.41952003e-03 3.62237240e-03 5.58872819e-01 4.67298180e-01 4.67523605e-01 4.55843806e-01 4.42306072e-01 4.28915918e-01 4.14563477e-01 4.08874214e-01 4.07577395e-01 4.08378184e-01 4.09704357e-01 4.10364151e-01 4.09612656e-01 4.07198668e-01 4.03320163e-01 3.98558170e-01 3.93858820e-01 3.90577763e-01 3.90452445e-01 3.95666599e-01 4.09208417e-01 4.35706109e-01 4.82604355e-01 5.58565557e-01 6.62953556e-01 7.59178877e-01 7.70005524e-01 3.74606758e-01 2.93049086e-02 6.56485371e-03 5.33882482e-03 5.55146992e-01 4.57894653e-01 4.54515755e-01 4.39800292e-01 4.20631349e-01 4.03274149e-01 3.88159573e-01 3.83859992e-01 3.85386050e-01 3.89657885e-01 3.94457579e-01 3.98185074e-01 3.99974436e-01 3.99691045e-01 3.97773862e-01 3.95074964e-01 3.92800003e-01 3.92547101e-01 3.96333307e-01 4.06775117e-01 4.27437484e-01 4.63845074e-01 5.23316085e-01 6.09406829e-01 7.05895185e-01 7.61748075e-01 6.49848878e-01 1.51792809e-01 2.06103660e-02 1.01238023e-02 9.94395092e-03 5.51675260e-01 4.49654460e-01 4.43875819e-01 4.26331967e-01 3.98305327e-01 3.74411017e-01 3.58915538e-01 3.57444704e-01 3.63446742e-01 3.72695059e-01 3.82102787e-01 3.89553040e-01 3.94107729e-01 3.95913869e-01 3.95827889e-01 3.95097911e-01 3.95257115e-01 3.98178339e-01 4.06220466e-01 4.22428370e-01 4.50904757e-01 4.97287542e-01 5.66433132e-01 6.53321505e-01 7.27371693e-01 7.26544678e-01 4.64340597e-01 8.60807672e-02 2.18089856e-02 1.57878883e-02 2.44914275e-02 5.47794700e-01 4.41694856e-01 4.35938478e-01 4.16801333e-01 3.76542777e-01 3.41543466e-01 3.26165289e-01 3.29354197e-01 3.41831118e-01 3.57734561e-01 3.72820914e-01 3.84370774e-01 3.91533881e-01 3.95026952e-01 3.96365076e-01 3.97313327e-01 3.99747670e-01 4.05792445e-01 4.18092430e-01 4.40009832e-01 4.75919932e-01 5.30301154e-01 6.03319705e-01 6.80902362e-01 7.25228965e-01 6.60188496e-01 3.34613621e-01 7.65725970e-02 3.08052562e-02 2.77515482e-02 7.19951168e-02 5.42842805e-01 4.32482153e-01 4.30062592e-01 4.11886692e-01 3.57293904e-01 3.03285509e-01 2.89410889e-01 2.99413711e-01 3.20699900e-01 3.45106512e-01 3.66806775e-01 3.82444471e-01 3.91631991e-01 3.96114945e-01 3.98330688e-01 4.00601745e-01 4.05059665e-01 4.13962036e-01 4.30053085e-01 4.56785142e-01 4.98237908e-01 5.56688666e-01 6.26866162e-01 6.88616037e-01 7.02875078e-01 5.93509853e-01 2.93564796e-01 9.76953954e-02 5.31974770e-02 5.68743832e-02 1.84278131e-01 5.36606789e-01 4.20453817e-01 4.23985451e-01 4.12085176e-01 3.42701703e-01 2.63623387e-01 2.48105362e-01 2.67432034e-01 3.00246567e-01 3.35195392e-01 3.64201516e-01 3.83370697e-01 3.93540829e-01 3.98144752e-01 4.00735825e-01 4.04069006e-01 4.10316408e-01 4.21647877e-01 4.40665424e-01 4.70589727e-01 5.14552772e-01 5.72360277e-01 6.34626210e-01 6.78906024e-01 6.68893039e-01 5.46701849e-01 3.12870473e-01 1.50544688e-01 1.00549221e-01 1.14991613e-01 3.15888762e-01 5.29399455e-01 4.05186176e-01 4.13481683e-01 4.19974715e-01 3.36227447e-01 2.22158641e-01 2.01256573e-01 2.32900873e-01 2.80601889e-01 3.28390777e-01 3.64967078e-01 3.86362076e-01 3.96049172e-01 3.99942666e-01 4.02675897e-01 4.07077342e-01 4.15021122e-01 4.28319931e-01 4.49219316e-01 4.80379730e-01 5.23622394e-01 5.76716304e-01 6.28682315e-01 6.58007443e-01 6.36079311e-01 5.30340016e-01 3.59093606e-01 2.29556590e-01 1.77273512e-01 1.95727319e-01 4.00867283e-01 5.21604121e-01 3.87976885e-01 3.96039218e-01 4.24801111e-01 3.46216083e-01 1.82584047e-01 1.50653094e-01 1.94322035e-01 2.61624485e-01 3.25057805e-01 3.68707836e-01 3.90039176e-01 3.97522271e-01 4.00208652e-01 4.03333724e-01 4.09196854e-01 4.18976754e-01 4.33905482e-01 4.55715388e-01 4.86294806e-01 5.26226461e-01 5.72083235e-01 6.13340199e-01 6.31887615e-01 6.06470227e-01 5.22997022e-01 4.07033324e-01 3.10084045e-01 2.60873169e-01 2.70559162e-01 4.52029049e-01 5.13561368e-01 3.70436192e-01 3.73758912e-01 4.18674201e-01 3.71516436e-01 1.61646813e-01 1.02517314e-01 1.48416266e-01 2.42112994e-01 3.25499266e-01 3.74406576e-01 3.92240465e-01 3.95926148e-01 3.97569686e-01 4.01923627e-01 4.10035640e-01 4.22074735e-01 4.38577950e-01 4.60664421e-01 4.89424318e-01 5.24563670e-01 5.62374651e-01 5.93991101e-01 6.05809033e-01 5.83595514e-01 5.22644341e-01 4.40269470e-01 3.69244367e-01 3.28238338e-01 3.33446503e-01 4.87375885e-01 5.05874872e-01 3.54486704e-01 3.51011008e-01 3.97296995e-01 4.05226201e-01 1.79119796e-01 6.70666695e-02 9.82085764e-02 2.17345551e-01 3.29816818e-01 3.80040079e-01 3.89981180e-01 3.89069438e-01 3.90722007e-01 3.97611886e-01 4.09012258e-01 4.24029499e-01 4.42503899e-01 4.64868486e-01 4.91484314e-01 5.21591246e-01 5.51943004e-01 5.75913012e-01 5.84299862e-01 5.68588674e-01 5.27180731e-01 4.71549839e-01 4.21618968e-01 3.91135126e-01 3.91643196e-01 5.16517699e-01 4.99642819e-01 3.41900259e-01 3.31355631e-01 3.66884470e-01 4.10520226e-01 2.35949665e-01 5.30312508e-02 5.57853952e-02 1.75047874e-01 3.37239057e-01 3.82002681e-01 3.79894465e-01 3.75356376e-01 3.78889889e-01 3.89643222e-01 4.05266315e-01 4.24163193e-01 4.45597827e-01 4.69238788e-01 4.94683146e-01 5.20899653e-01 5.45502543e-01 5.64306796e-01 5.71899235e-01 5.63708186e-01 5.39333582e-01 5.05191624e-01 4.72398132e-01 4.50161487e-01 4.46984529e-01 5.43778181e-01 4.97539043e-01 3.36775333e-01 3.19776475e-01 3.39527190e-01 3.80571216e-01 3.22409272e-01 5.92937581e-02 3.18985023e-02 1.10424086e-01 3.44226032e-01 3.75772893e-01 3.60906661e-01 3.55937481e-01 3.63004804e-01 3.77862334e-01 3.97733539e-01 4.21113253e-01 4.47018057e-01 4.74402040e-01 5.01939595e-01 5.28021574e-01 5.50682366e-01 5.67520976e-01 5.75899065e-01 5.73742688e-01 5.60940564e-01 5.40589094e-01 5.18747032e-01 5.01905680e-01 4.96546149e-01 5.68719864e-01 5.01882017e-01 3.42849553e-01 3.25692624e-01 3.35274130e-01 3.49247307e-01 3.34580898e-01 8.42939317e-02 2.19042767e-02 5.10307215e-02 3.29609990e-01 3.63530844e-01 3.37494075e-01 3.33976865e-01 3.43673825e-01 3.61389726e-01 3.85376364e-01 4.14741427e-01 4.48510349e-01 4.85002130e-01 5.21702826e-01 5.55571795e-01 5.83508849e-01 6.02861345e-01 6.11815631e-01 6.09711945e-01 5.97413003e-01 5.77769101e-01 5.55912852e-01 5.38252771e-01 5.31710446e-01 5.88573694e-01 6.01023912e-01 4.97094512e-01 4.82905775e-01 4.90619838e-01 4.94402826e-01 4.69264537e-01 2.61155993e-01 5.41612953e-02 5.26718423e-02 4.83227015e-01 5.15393376e-01 4.81557548e-01 4.73059028e-01 4.76940900e-01 4.87843990e-01 5.03872216e-01 5.23814857e-01 5.46517730e-01 5.70595264e-01 5.94403148e-01 6.16134167e-01 6.33966625e-01 6.46259546e-01 6.51811063e-01 6.50170088e-01 6.41931653e-01 6.28911495e-01 6.14191175e-01 6.01778269e-01 5.95271349e-01 6.12759292e-01 
