# vtk DataFile Version 2.0
results_case1_non_linear/2_density.vtk, Created by Freefem++ 
ASCII
DATASET UNSTRUCTURED_GRID
POINTS 961 float
0 0 0
0.033333333 0 0
0.066666667 0 0
0.1 0 0
0.13333333 0 0
0.16666667 0 0
0.2 0 0
0.23333333 0 0
0.26666667 0 0
0.3 0 0
0.33333333 0 0
0.36666667 0 0
0.4 0 0
0.43333333 0 0
0.46666667 0 0
0.5 0 0
0.53333333 0 0
0.56666667 0 0
0.6 0 0
0.63333333 0 0
0.66666667 0 0
0.7 0 0
0.73333333 0 0
0.76666667 0 0
0.8 0 0
0.83333333 0 0
0.86666667 0 0
0.9 0 0
0.93333333 0 0
0.96666667 0 0
1 0 0
0 0.033333333 0
0.033333333 0.033333333 0
0.066666667 0.033333333 0
0.1 0.033333333 0
0.13333333 0.033333333 0
0.16666667 0.033333333 0
0.2 0.033333333 0
0.23333333 0.033333333 0
0.26666667 0.033333333 0
0.3 0.033333333 0
0.33333333 0.033333333 0
0.36666667 0.033333333 0
0.4 0.033333333 0
0.43333333 0.033333333 0
0.46666667 0.033333333 0
0.5 0.033333333 0
0.53333333 0.033333333 0
0.56666667 0.033333333 0
0.6 0.033333333 0
0.63333333 0.033333333 0
0.66666667 0.033333333 0
0.7 0.033333333 0
0.73333333 0.033333333 0
0.76666667 0.033333333 0
0.8 0.033333333 0
0.83333333 0.033333333 0
0.86666667 0.033333333 0
0.9 0.033333333 0
0.93333333 0.033333333 0
0.96666667 0.033333333 0
1 0.033333333 0
0 0.066666667 0
0.033333333 0.066666667 0
0.066666667 0.066666667 0
0.1 0.066666667 0
0.13333333 0.066666667 0
0.16666667 0.066666667 0
0.2 0.066666667 0
0.23333333 0.066666667 0
0.26666667 0.066666667 0
0.3 0.066666667 0
0.33333333 0.066666667 0
0.36666667 0.066666667 0
0.4 0.066666667 0
0.43333333 0.066666667 0
0.46666667 0.066666667 0
0.5 0.066666667 0
0.53333333 0.066666667 0
0.56666667 0.066666667 0
0.6 0.066666667 0
0.63333333 0.066666667 0
0.66666667 0.066666667 0
0.7 0.066666667 0
0.73333333 0.066666667 0
0.76666667 0.066666667 0
0.8 0.066666667 0
0.83333333 0.066666667 0
0.86666667 0.066666667 0
0.9 0.066666667 0
0.93333333 0.066666667 0
0.96666667 0.066666667 0
1 0.066666667 0
0 0.1 0
0.033333333 0.1 0
0.066666667 0.1 0
0.1 0.1 0
0.13333333 0.1 0
0.16666667 0.1 0
0.2 0.1 0
0.23333333 0.1 0
0.26666667 0.1 0
0.3 0.1 0
0.33333333 0.1 0
0.36666667 0.1 0
0.4 0.1 0
0.43333333 0.1 0
0.46666667 0.1 0
0.5 0.1 0
0.53333333 0.1 0
0.56666667 0.1 0
0.6 0.1 0
0.63333333 0.1 0
0.66666667 0.1 0
0.7 0.1 0
0.73333333 0.1 0
0.76666667 0.1 0
0.8 0.1 0
0.83333333 0.1 0
0.86666667 0.1 0
0.9 0.1 0
0.93333333 0.1 0
0.96666667 0.1 0
1 0.1 0
0 0.13333333 0
0.033333333 0.13333333 0
0.066666667 0.13333333 0
0.1 0.13333333 0
0.13333333 0.13333333 0
0.16666667 0.13333333 0
0.2 0.13333333 0
0.23333333 0.13333333 0
0.26666667 0.13333333 0
0.3 0.13333333 0
0.33333333 0.13333333 0
0.36666667 0.13333333 0
0.4 0.13333333 0
0.43333333 0.13333333 0
0.46666667 0.13333333 0
0.5 0.13333333 0
0.53333333 0.13333333 0
0.56666667 0.13333333 0
0.6 0.13333333 0
0.63333333 0.13333333 0
0.66666667 0.13333333 0
0.7 0.13333333 0
0.73333333 0.13333333 0
0.76666667 0.13333333 0
0.8 0.13333333 0
0.83333333 0.13333333 0
0.86666667 0.13333333 0
0.9 0.13333333 0
0.93333333 0.13333333 0
0.96666667 0.13333333 0
1 0.13333333 0
0 0.16666667 0
0.033333333 0.16666667 0
0.066666667 0.16666667 0
0.1 0.16666667 0
0.13333333 0.16666667 0
0.16666667 0.16666667 0
0.2 0.16666667 0
0.23333333 0.16666667 0
0.26666667 0.16666667 0
0.3 0.16666667 0
0.33333333 0.16666667 0
0.36666667 0.16666667 0
0.4 0.16666667 0
0.43333333 0.16666667 0
0.46666667 0.16666667 0
0.5 0.16666667 0
0.53333333 0.16666667 0
0.56666667 0.16666667 0
0.6 0.16666667 0
0.63333333 0.16666667 0
0.66666667 0.16666667 0
0.7 0.16666667 0
0.73333333 0.16666667 0
0.76666667 0.16666667 0
0.8 0.16666667 0
0.83333333 0.16666667 0
0.86666667 0.16666667 0
0.9 0.16666667 0
0.93333333 0.16666667 0
0.96666667 0.16666667 0
1 0.16666667 0
0 0.2 0
0.033333333 0.2 0
0.066666667 0.2 0
0.1 0.2 0
0.13333333 0.2 0
0.16666667 0.2 0
0.2 0.2 0
0.23333333 0.2 0
0.26666667 0.2 0
0.3 0.2 0
0.33333333 0.2 0
0.36666667 0.2 0
0.4 0.2 0
0.43333333 0.2 0
0.46666667 0.2 0
0.5 0.2 0
0.53333333 0.2 0
0.56666667 0.2 0
0.6 0.2 0
0.63333333 0.2 0
0.66666667 0.2 0
0.7 0.2 0
0.73333333 0.2 0
0.76666667 0.2 0
0.8 0.2 0
0.83333333 0.2 0
0.86666667 0.2 0
0.9 0.2 0
0.93333333 0.2 0
0.96666667 0.2 0
1 0.2 0
0 0.23333333 0
0.033333333 0.23333333 0
0.066666667 0.23333333 0
0.1 0.23333333 0
0.13333333 0.23333333 0
0.16666667 0.23333333 0
0.2 0.23333333 0
0.23333333 0.23333333 0
0.26666667 0.23333333 0
0.3 0.23333333 0
0.33333333 0.23333333 0
0.36666667 0.23333333 0
0.4 0.23333333 0
0.43333333 0.23333333 0
0.46666667 0.23333333 0
0.5 0.23333333 0
0.53333333 0.23333333 0
0.56666667 0.23333333 0
0.6 0.23333333 0
0.63333333 0.23333333 0
0.66666667 0.23333333 0
0.7 0.23333333 0
0.73333333 0.23333333 0
0.76666667 0.23333333 0
0.8 0.23333333 0
0.83333333 0.23333333 0
0.86666667 0.23333333 0
0.9 0.23333333 0
0.93333333 0.23333333 0
0.96666667 0.23333333 0
1 0.23333333 0
0 0.26666667 0
0.033333333 0.26666667 0
0.066666667 0.26666667 0
0.1 0.26666667 0
0.13333333 0.26666667 0
0.16666667 0.26666667 0
0.2 0.26666667 0
0.23333333 0.26666667 0
0.26666667 0.26666667 0
0.3 0.26666667 0
0.33333333 0.26666667 0
0.36666667 0.26666667 0
0.4 0.26666667 0
0.43333333 0.26666667 0
0.46666667 0.26666667 0
0.5 0.26666667 0
0.53333333 0.26666667 0
0.56666667 0.26666667 0
0.6 0.26666667 0
0.63333333 0.26666667 0
0.66666667 0.26666667 0
0.7 0.26666667 0
0.73333333 0.26666667 0
0.76666667 0.26666667 0
0.8 0.26666667 0
0.83333333 0.26666667 0
0.86666667 0.26666667 0
0.9 0.26666667 0
0.93333333 0.26666667 0
0.96666667 0.26666667 0
1 0.26666667 0
0 0.3 0
0.033333333 0.3 0
0.066666667 0.3 0
0.1 0.3 0
0.13333333 0.3 0
0.16666667 0.3 0
0.2 0.3 0
0.23333333 0.3 0
0.26666667 0.3 0
0.3 0.3 0
0.33333333 0.3 0
0.36666667 0.3 0
0.4 0.3 0
0.43333333 0.3 0
0.46666667 0.3 0
0.5 0.3 0
0.53333333 0.3 0
0.56666667 0.3 0
0.6 0.3 0
0.63333333 0.3 0
0.66666667 0.3 0
0.7 0.3 0
0.73333333 0.3 0
0.76666667 0.3 0
0.8 0.3 0
0.83333333 0.3 0
0.86666667 0.3 0
0.9 0.3 0
0.93333333 0.3 0
0.96666667 0.3 0
1 0.3 0
0 0.33333333 0
0.033333333 0.33333333 0
0.066666667 0.33333333 0
0.1 0.33333333 0
0.13333333 0.33333333 0
0.16666667 0.33333333 0
0.2 0.33333333 0
0.23333333 0.33333333 0
0.26666667 0.33333333 0
0.3 0.33333333 0
0.33333333 0.33333333 0
0.36666667 0.33333333 0
0.4 0.33333333 0
0.43333333 0.33333333 0
0.46666667 0.33333333 0
0.5 0.33333333 0
0.53333333 0.33333333 0
0.56666667 0.33333333 0
0.6 0.33333333 0
0.63333333 0.33333333 0
0.66666667 0.33333333 0
0.7 0.33333333 0
0.73333333 0.33333333 0
0.76666667 0.33333333 0
0.8 0.33333333 0
0.83333333 0.33333333 0
0.86666667 0.33333333 0
0.9 0.33333333 0
0.93333333 0.33333333 0
0.96666667 0.33333333 0
1 0.33333333 0
0 0.36666667 0
0.033333333 0.36666667 0
0.066666667 0.36666667 0
0.1 0.36666667 0
0.13333333 0.36666667 0
0.16666667 0.36666667 0
0.2 0.36666667 0
0.23333333 0.36666667 0
0.26666667 0.36666667 0
0.3 0.36666667 0
0.33333333 0.36666667 0
0.36666667 0.36666667 0
0.4 0.36666667 0
0.43333333 0.36666667 0
0.46666667 0.36666667 0
0.5 0.36666667 0
0.53333333 0.36666667 0
0.56666667 0.36666667 0
0.6 0.36666667 0
0.63333333 0.36666667 0
0.66666667 0.36666667 0
0.7 0.36666667 0
0.73333333 0.36666667 0
0.76666667 0.36666667 0
0.8 0.36666667 0
0.83333333 0.36666667 0
0.86666667 0.36666667 0
0.9 0.36666667 0
0.93333333 0.36666667 0
0.96666667 0.36666667 0
1 0.36666667 0
0 0.4 0
0.033333333 0.4 0
0.066666667 0.4 0
0.1 0.4 0
0.13333333 0.4 0
0.16666667 0.4 0
0.2 0.4 0
0.23333333 0.4 0
0.26666667 0.4 0
0.3 0.4 0
0.33333333 0.4 0
0.36666667 0.4 0
0.4 0.4 0
0.43333333 0.4 0
0.46666667 0.4 0
0.5 0.4 0
0.53333333 0.4 0
0.56666667 0.4 0
0.6 0.4 0
0.63333333 0.4 0
0.66666667 0.4 0
0.7 0.4 0
0.73333333 0.4 0
0.76666667 0.4 0
0.8 0.4 0
0.83333333 0.4 0
0.86666667 0.4 0
0.9 0.4 0
0.93333333 0.4 0
0.96666667 0.4 0
1 0.4 0
0 0.43333333 0
0.033333333 0.43333333 0
0.066666667 0.43333333 0
0.1 0.43333333 0
0.13333333 0.43333333 0
0.16666667 0.43333333 0
0.2 0.43333333 0
0.23333333 0.43333333 0
0.26666667 0.43333333 0
0.3 0.43333333 0
0.33333333 0.43333333 0
0.36666667 0.43333333 0
0.4 0.43333333 0
0.43333333 0.43333333 0
0.46666667 0.43333333 0
0.5 0.43333333 0
0.53333333 0.43333333 0
0.56666667 0.43333333 0
0.6 0.43333333 0
0.63333333 0.43333333 0
0.66666667 0.43333333 0
0.7 0.43333333 0
0.73333333 0.43333333 0
0.76666667 0.43333333 0
0.8 0.43333333 0
0.83333333 0.43333333 0
0.86666667 0.43333333 0
0.9 0.43333333 0
0.93333333 0.43333333 0
0.96666667 0.43333333 0
1 0.43333333 0
0 0.46666667 0
0.033333333 0.46666667 0
0.066666667 0.46666667 0
0.1 0.46666667 0
0.13333333 0.46666667 0
0.16666667 0.46666667 0
0.2 0.46666667 0
0.23333333 0.46666667 0
0.26666667 0.46666667 0
0.3 0.46666667 0
0.33333333 0.46666667 0
0.36666667 0.46666667 0
0.4 0.46666667 0
0.43333333 0.46666667 0
0.46666667 0.46666667 0
0.5 0.46666667 0
0.53333333 0.46666667 0
0.56666667 0.46666667 0
0.6 0.46666667 0
0.63333333 0.46666667 0
0.66666667 0.46666667 0
0.7 0.46666667 0
0.73333333 0.46666667 0
0.76666667 0.46666667 0
0.8 0.46666667 0
0.83333333 0.46666667 0
0.86666667 0.46666667 0
0.9 0.46666667 0
0.93333333 0.46666667 0
0.96666667 0.46666667 0
1 0.46666667 0
0 0.5 0
0.033333333 0.5 0
0.066666667 0.5 0
0.1 0.5 0
0.13333333 0.5 0
0.16666667 0.5 0
0.2 0.5 0
0.23333333 0.5 0
0.26666667 0.5 0
0.3 0.5 0
0.33333333 0.5 0
0.36666667 0.5 0
0.4 0.5 0
0.43333333 0.5 0
0.46666667 0.5 0
0.5 0.5 0
0.53333333 0.5 0
0.56666667 0.5 0
0.6 0.5 0
0.63333333 0.5 0
0.66666667 0.5 0
0.7 0.5 0
0.73333333 0.5 0
0.76666667 0.5 0
0.8 0.5 0
0.83333333 0.5 0
0.86666667 0.5 0
0.9 0.5 0
0.93333333 0.5 0
0.96666667 0.5 0
1 0.5 0
0 0.53333333 0
0.033333333 0.53333333 0
0.066666667 0.53333333 0
0.1 0.53333333 0
0.13333333 0.53333333 0
0.16666667 0.53333333 0
0.2 0.53333333 0
0.23333333 0.53333333 0
0.26666667 0.53333333 0
0.3 0.53333333 0
0.33333333 0.53333333 0
0.36666667 0.53333333 0
0.4 0.53333333 0
0.43333333 0.53333333 0
0.46666667 0.53333333 0
0.5 0.53333333 0
0.53333333 0.53333333 0
0.56666667 0.53333333 0
0.6 0.53333333 0
0.63333333 0.53333333 0
0.66666667 0.53333333 0
0.7 0.53333333 0
0.73333333 0.53333333 0
0.76666667 0.53333333 0
[...]
CELL_DATA 1920
Scalars  Label int 1
LOOKUP_TABLE FreeFempp_table
0
0
0
0
0
0
0
0
0
0
0
0
0
0
0
0
0
0
0
0
0
0
0
0
0
0
0
0
0
0
0
0
0
0
0
0
0
0
0
0
0
0
0
0
0
0
0
0
0
0
0
0
0
0
0
0
0
0
0
0
0
0
0
0
0
0
0
0
0
0
0
0
0
0
0
0
0
0
0
0
0
0
0
0
0
0
0
0
0
0
0
0
0
0
0
0
0
0
0
0
0
0
0
0
0
0
0
0
0
0
0
0
0
0
0
0
0
0
0
0
0
0
0
0
0
0
0
0
0
0
0
0
0
0
0
0
0
0
0
0
0
0
0
0
0
0
0
0
0
0
0
0
0
0
0
0
0
0
0
0
0
0
0
0
0
0
0
0
0
0
0
0
0
0
0
0
0
0
0
0
0
0
0
0
0
0
0
0
0
0
0
0
0
0
0
0
0
0
0
0
0
0
0
0
0
0
0
0
0
0
0
0
0
0
0
0
0
0
0
0
0
0
0
0
0
0
0
0
0
0
0
0
0
0
0
0
0
0
0
0
0
0
0
0
0
0
0
0
0
0
0
0
0
0
0
0
0
0
0
0
0
0
0
0
0
0
0
0
0
0
0
0
0
0
0
0
0
0
0
0
0
0
0
0
0
0
0
0
0
0
0
0
0
0
0
0
0
0
0
0
0
0
0
0
0
0
0
0
0
0
0
0
0
0
0
0
0
0
0
0
0
0
0
0
0
0
0
0
0
0
0
0
0
0
0
0
0
0
0
0
0
0
0
0
0
0
0
0
0
0
0
0
0
0
0
0
0
0
0
0
0
0
0
0
0
0
0
0
0
0
0
0
0
0
0
0
0
0
0
0
0
0
0
0
0
0
0
0
0
0
0
0
0
0
0
0
0
0
0
0
0
0
0
0
0
0
0
0
0
0
0
0
0
0
0
0
0
0
0
0
0
0
0
0
0
0
0
0
0
0
0
0
0
0
0
0
0
0
0
0
0
0
0
0
0
0
0
0
0
0
0
0
0
0
0
0
0
0
0
0
0
0
0
0
0
0
0
0
0
0
0
0
0
0
0
0
0
0
0
0
0
0
0
0
0
0
0
0
0
0
0
0
0
0
0
0
0
0
0
0
0
0
0
0
0
0
0
0
0
0
0
0
0
0
0
0
0
0
0
0
0
0
0
0
0
0
0
0
0
0
0
0
0
0
0
0
0
0
0
0
0
0
0
0
0
0
0
0
0
0
0
0
0
0
0
0
0
0
0
0
0
0
0
0
0
0
0
0
0
0
0
0
0
0
0
0
0
0
0
0
0
0
0
0
0
0
0
0
0
0
0
0
0
0
0
0
0
0
0
0
0
0
0
0
0
0
0
0
0
0
0
0
0
0
0
0
0
0
0
0
0
0
0
0
0
0
0
0
0
0
0
0
0
0
0
0
0
0
0
0
0
0
0
0
0
0
0
0
0
0
0
0
0
0
0
0
0
0
0
0
0
0
0
0
0
0
0
0
0
0
0
0
0
0
0
0
0
0
0
0
0
0
0
0
0
0
0
0
0
0
0
0
0
0
0
0
0
0
0
0
0
0
0
0
0
0
0
0
0
0
0
0
0
0
0
0
0
0
0
0
0
0
0
0
0
0
0
0
0
0
0
0
0
0
0
0
0
0
0
0
0
0
0
0
0
0
0
0
0
0
0
0
0
0
0
0
0
0
0
0
0
0
0
0
0
0
0
0
0
0
0
0
0
0
0
0
0
0
0
0
0
0
0
0
0
0
0
0
0
0
0
0
0
0
0
0
0
0
0
0
0
0
0
0
0
0
0
0
0
0
0
0
0
0
0
0
0
0
0
0
0
0
0
0
0
0
0
0
0
0
0
0
0
0
0
0
0
0
0
0
0
0
0
0
0
0
0
0
0
0
0
0
0
0
0
0
0
0
0
0
0
0
0
0
0
0
0
0
0
0
0
0
0
0
0
0
0
0
0
0
0
0
0
0
0
0
0
0
0
0
0
0
0
0
0
0
0
0
0
0
0
0
0
0
0
0
0
0
0
0
0
0
0
0
0
0
0
0
0
0
0
0
0
0
0
0
0
0
0
0
0
0
0
0
0
0
0
0
0
0
0
0
0
0
0
0
0
0
0
0
0
0
0
0
0
0
0
0
0
0
0
0
0
0
0
0
0
0
0
0
0
0
0
0
0
0
0
0
0
0
0
0
0
0
0
0
0
0
0
0
0
0
0
0
0
0
0
0
0
0
0
0
0
0
0
0
0
0
0
0
0
0
0
0
0
0
0
0
0
0
0
0
0
0
0
0
0
0
0
0
0
0
0
0
0
0
0
0
0
0
0
0
0
0
0
0
0
0
0
0
0
0
0
0
0
0
0
0
0
0
0
0
0
0
0
0
0
0
0
0
0
0
0
0
0
0
0
0
0
0
0
0
0
0
0
0
0
0
0
0
0
0
0
0
0
0
0
0
0
0
0
0
0
0
0
0
0
0
0
0
0
0
0
0
0
0
0
0
0
0
0
0
0
0
0
0
0
0
0
0
0
0
0
0
0
0
0
0
0
0
0
0
0
0
0
0
0
0
0
0
0
0
0
0
0
0
0
0
0
0
0
0
0
0
0
0
0
0
0
0
0
0
0
0
0
0
0
0
0
0
0
0
0
0
0
0
0
0
0
0
0
0
0
0
0
0
0
0
0
0
0
0
0
0
0
0
0
0
0
0
0
0
0
0
0
0
0
0
0
0
0
0
0
0
0
0
0
0
0
0
0
0
0
0
0
0
0
0
0
0
0
0
0
0
0
0
0
0
0
0
0
0
0
0
0
0
0
0
0
0
0
0
0
0
0
0
0
0
0
0
0
0
0
0
0
0
0
0
0
0
0
0
0
0
0
0
0
0
0
0
0
0
0
0
0
0
0
0
0
0
0
0
0
0
0
0
0
0
0
0
0
0
0
0
0
0
0
0
0
0
0
0
0
0
0
0
0
0
0
0
0
0
0
0
0
0
0
0
0
0
0
0
0
0
0
0
0
0
0
0
0
0
0
0
0
0
0
0
0
0
0
0
0
0
0
0
0
0
0
0
0
0
0
0
0
0
0
0
0
0
0
0
0
0
0
0
0
0
0
0
0
0
0
0
0
0
0
0
0
0
0
0
0
0
0
0
0
0
0
0
0
0
0
0
0
0
0
0
0
0
0
0
0
0
0
0
0
0
0
0
0
0
0
0
0
0
0
0
0
0
0
0
0
0
0
0
0
0
0
0
0
0
0
0
0
0
0
0
0
0
0
0
0
0
0
0
0
0
0
0
0
0
0
0
0
0
0
0
0
0
0
0
0
0
0
0
0
0
0
0
0
0
0
0
0
0
0
0
0
0
0
0
0
0
0
0
0
0
0
0
0
0
0
0
0
0
0
0
0
0
0
0
0
0
0
0
0
0
0
0
0
0
0
0
0
0
0
0
0
0
0
0
0
0
0
0
0
0
0
0
0
0
0
0
0
0
0
0
0
0
0
0
0
0
0
0
0
0
0
0
0
0
0
0
0
0
0
0
0
0
0
0
0
0
0
0
0
0
0
0
0
0
0
0
0
0
0
0
0
0
0
0
0
0
0
0
0
0
0
0
0
0
0
0
0
0
0
0
0
0
0
0
0
0
0
0
0
0
0
0
0
0
0
0
0
0
0
0
0
0
0
0
0
0
0
0
0
0
0
0
0
0
0
0
0
0
0
0
0
0
0
0
0
0
0
0
0
0
0
0
0
0
0
0
0
0
0
0
0
0
0
0
0
0
0
0
0
0
0
0
0
0
0
0
0
0
0
0
0
0
0
0
0
0
0
0
0
0
0
0
0
0
0
0
0
0
0
0
0
0
0
0
0
0
0
0
0
0
0
0
0
0
0
0
0
0
0
0
0
0
0
0
0
0
0
0
0
0
0
0
0
0
0
0
0
0
0
0
0
0
0
0
0
0
0
0
0
0
0
0
0
0
0
0
0
0
0
0
0
0
0
0
0
0
0
0
0
0
0
0
0
0
0
0
0
0
0
0
0
0
1
1
1
1
1
1
1
1
1
1
1
1
1
1
1
1
1
1
1
1
1
1
1
1
1
1
1
1
1
1
2
2
2
2
2
2
2
2
2
2
2
2
2
2
2
2
2
2
2
2
2
2
2
2
2
2
2
2
2
2
3
3
3
3
3
3
3
3
3
3
3
3
3
3
3
3
3
3
3
3
3
3
3
3
3
3
3
3
3
3
4
4
4
4
4
4
4
4
4
4
4
4
4
4
4
4
4
4
4
4
4
4
4
4
4
4
4
4
4
4

LOOKUP_TABLE FreeFempp_table 5
1.00000000 0.00000000 0.00000000 1.00000000
1.00000000 1.00000000 0.00000000 1.00000000
1.00000000 0.00000000 1.00000000 1.00000000
0.00000000 1.00000000 0.00000000 1.00000000
0.00000000 1.00000000 1.00000000 1.00000000

POINT_DATA 961
FIELD FieldData 1
Density 1 961 float
2.95219943e-02 2.44668070e-02 3.73832732e-02 4.17094752e-02 3.81330363e-02 3.16574872e-02 2.36113016e-02 1.45011973e-02 7.24738883e-03 5.07287169e-03 8.24225321e-03 2.95847766e-02 8.47697183e-02 1.26195222e-01 1.55085504e-01 1.97923630e-01 3.13550204e-01 6.13878787e-01 8.70967805e-01 9.20843184e-01 8.88509691e-01 8.61888409e-01 9.19309974e-01 9.23549116e-01 8.90874445e-01 8.85846019e-01 8.64496291e-01 7.65030980e-01 7.61694431e-01 7.60428250e-01 5.99910736e-01 6.88608736e-04 1.28079122e-02 2.27917824e-02 2.48318017e-02 2.22311579e-02 1.86752733e-02 1.46149890e-02 1.00103635e-02 5.68212708e-03 3.43728554e-03 4.01873700e-03 1.02172988e-02 3.66054401e-02 5.86093105e-02 7.36736208e-02 9.37662274e-02 1.56404853e-01 5.27814209e-01 9.47403610e-01 9.76525605e-01 9.44452226e-01 7.57029653e-01 7.25083411e-01 8.56455028e-01 8.53569567e-01 8.50054860e-01 8.59767199e-01 8.24671984e-01 8.60576689e-01 8.23629260e-01 7.33247936e-01 3.70461581e-04 1.78398855e-04 7.80505361e-04 6.63949118e-04 6.45898341e-04 6.76398806e-04 7.31752836e-04 8.09986028e-04 8.88082432e-04 8.79387022e-04 7.02316524e-04 6.16566325e-03 8.98829624e-02 1.13962606e-01 1.25036001e-01 1.40479118e-01 1.56591624e-01 3.61279190e-01 8.79835069e-01 5.76517761e-01 1.39610069e-02 6.77898899e-03 3.95216467e-03 2.95210956e-03 2.67971284e-03 3.68358917e-03 8.75399634e-03 1.08526021e-01 4.32904303e-01 5.28938174e-01 5.66523135e-01 3.43410462e-01 7.23037811e-04 8.47880321e-04 7.36117654e-04 6.55525597e-04 6.55888871e-04 6.94585615e-04 7.59092218e-04 8.47687304e-04 9.23812622e-04 3.98884731e-04 2.66642513e-04 5.02396608e-04 6.35879172e-04 1.15620811e-03 1.12852961e-01 2.19131395e-01 2.05629334e-01 7.41028726e-01 2.20570830e-03 1.81812490e-03 1.63644808e-03 1.25926861e-03 1.25910842e-03 1.25880528e-03 1.25840225e-03 1.25840481e-03 1.36624242e-03 3.94280888e-02 2.40445897e-01 3.97780508e-01 3.17673564e-01 1.43229857e-01 7.01028714e-03 7.79959979e-03 1.34139061e-01 1.64224282e-01 1.64061710e-01 1.69300854e-01 1.80149421e-01 1.80849895e-01 4.95956391e-02 8.27004260e-04 6.53701311e-04 3.93539958e-04 4.24104539e-04 4.88587888e-04 7.35919806e-04 1.17382675e-03 1.19203888e-01 7.96478152e-01 1.26092962e-03 1.62171922e-03 1.25933206e-03 1.25914312e-03 1.25875021e-03 1.25788187e-03 1.25666196e-03 1.25553412e-03 1.25680759e-03 5.39105795e-02 3.12564820e-01 2.42358029e-01 9.96847674e-02 7.42440345e-03 5.22839557e-03 6.67654946e-02 1.38678297e-01 1.53245732e-01 1.58834994e-01 1.65457562e-01 1.67168990e-01 1.50309950e-01 1.46309286e-01 1.84718937e-01 1.92004055e-01 1.16152200e-03 7.04707578e-04 5.21810900e-04 5.78261272e-04 4.88383637e-04 7.76634991e-01 9.93428409e-01 6.69072196e-03 4.02385136e-03 2.98223202e-03 2.54519633e-03 2.24787532e-03 1.39624078e-03 1.25539827e-03 1.25179114e-03 1.40910456e-03 2.52170622e-01 1.97800472e-01 6.33545965e-02 1.37829939e-02 6.26090681e-03 2.65834350e-02 1.11164838e-01 1.59104422e-01 1.80754855e-01 1.94336623e-01 2.03568041e-01 2.02749208e-01 1.93657801e-01 2.01948151e-01 2.14245394e-01 2.12096930e-01 2.24640325e-01 1.59178764e-01 1.18341134e-03 1.69383973e-04 1.55731526e-04 1.02740955e-02 9.97219205e-01 7.34513327e-02 1.37583632e-02 1.80907082e-02 1.45234810e-02 1.37744546e-02 2.73557846e-03 1.24335720e-03 1.25385670e-03 2.51027048e-01 2.54374266e-01 7.65207782e-02 3.88231166e-02 1.60990879e-02 3.35614011e-02 1.23867527e-01 1.97789982e-01 2.39460945e-01 2.64939487e-01 2.80608326e-01 2.86028177e-01 2.82202601e-01 2.78049022e-01 2.76638061e-01 2.69373924e-01 2.63001829e-01 2.67702758e-01 2.67584145e-01 1.51661992e-01 4.49685962e-04 7.69824197e-04 1.22669234e-03 9.95711863e-01 7.73592472e-01 7.02012181e-02 5.31834327e-02 3.01053803e-02 9.53917671e-03 1.23021926e-03 1.24241842e-03 2.99072206e-01 5.37209451e-01 3.13446999e-01 2.26780474e-01 1.67523175e-01 1.87334076e-01 2.98820585e-01 3.66642058e-01 3.99743140e-01 4.16701972e-01 4.22143847e-01 4.17793870e-01 4.05987591e-01 3.91561419e-01 3.76894504e-01 3.60536098e-01 3.44407260e-01 3.31258714e-01 3.18112463e-01 3.04629415e-01 2.83591628e-01 1.04565604e-03 1.15174253e-03 1.23520521e-03 9.92187917e-01 9.56959665e-01 5.11975825e-01 9.95554179e-02 2.08172556e-02 1.21582672e-03 1.22806011e-03 3.30028951e-01 8.26300144e-01 8.76165569e-01 8.34547877e-01 7.91589200e-01 7.49077916e-01 7.14575827e-01 6.84541106e-01 6.58426762e-01 6.34677887e-01 6.10644639e-01 5.85042119e-01 5.58279634e-01 5.31618237e-01 5.05360723e-01 4.79308903e-01 4.54322994e-01 4.30541754e-01 4.07264471e-01 3.85403633e-01 3.60371172e-01 3.32937181e-01 1.24476745e-03 1.25251140e-03 1.26838521e-03 9.77095425e-01 9.63658392e-01 8.79613638e-01 8.74332041e-02 1.21013913e-03 1.19182025e-03 2.22265705e-01 8.56439054e-01 9.54224169e-01 9.39379275e-01 9.30381656e-01 9.13850367e-01 8.88746738e-01 8.56308699e-01 8.21109951e-01 7.85804212e-01 7.51227319e-01 7.17541933e-01 6.85138822e-01 6.54322207e-01 6.24905586e-01 5.96746743e-01 5.69869280e-01 5.43725789e-01 5.17759144e-01 4.92830038e-01 4.69843954e-01 4.48722392e-01 4.03308749e-01 1.26814854e-03 1.29509694e-03 1.28849922e-03 6.12031043e-01 1.13273911e-01 9.93194342e-01 1.26165058e-03 1.17149472e-03 1.24399737e-03 6.04508698e-01 8.46082270e-01 8.46607327e-01 8.79195273e-01 8.93951297e-01 8.92917991e-01 8.79172087e-01 8.57350528e-01 8.31161439e-01 8.03002477e-01 7.74410784e-01 7.46564269e-01 7.20191777e-01 6.95535243e-01 6.72602773e-01 6.51054978e-01 6.30149126e-01 6.09363496e-01 5.88880181e-01 5.71030796e-01 5.62953830e-01 5.73127687e-01 5.18902242e-01 1.28553144e-03 1.35723595e-03 1.36855000e-03 1.70656154e-03 3.14146094e-03 8.23722899e-01 1.18359795e-03 1.20171160e-03 1.82821810e-01 1.25876248e-01 1.92290694e-01 3.80536318e-01 6.19795322e-01 7.54478216e-01 8.00154746e-01 8.08117330e-01 7.99881339e-01 7.84006476e-01 7.64644623e-01 7.44355500e-01 7.24793911e-01 7.06926703e-01 6.91156626e-01 6.77204669e-01 6.64234579e-01 6.51365221e-01 6.38067663e-01 6.25252545e-01 6.20286465e-01 6.41306221e-01 6.99788332e-01 6.86359942e-01 2.58545205e-03 1.35839975e-03 1.33132422e-03 1.74710271e-03 9.95834231e-01 1.20686227e-03 1.20583782e-03 5.96471801e-02 1.76934432e-02 2.26580761e-02 4.81581353e-02 1.50725707e-01 3.82936418e-01 5.74921608e-01 6.65206850e-01 6.99356675e-01 7.07162976e-01 7.02187538e-01 6.91273391e-01 6.78447425e-01 6.66263819e-01 6.56213522e-01 6.48713350e-01 6.43247664e-01 6.38664961e-01 6.33338273e-01 6.25434041e-01 6.15298212e-01 6.14876449e-01 6.42228067e-01 7.54605293e-01 8.83346498e-01 5.02934530e-02 1.74003548e-03 2.08755746e-03 9.96997297e-01 1.21277652e-03 1.20763201e-03 2.45536566e-02 7.27398647e-03 8.09255615e-03 1.46699091e-02 4.29039747e-02 1.45951644e-01 3.25726420e-01 4.76213813e-01 5.60606360e-01 5.99298835e-01 6.12163901e-01 6.10986114e-01 6.02911055e-01 5.92778146e-01 5.83986878e-01 5.78610659e-01 5.77453315e-01 5.80044448e-01 5.84542751e-01 5.87264240e-01 5.81929862e-01 5.60794294e-01 5.10284185e-01 4.54538345e-01 5.05789638e-01 8.71303797e-01 7.49055017e-03 3.56022338e-03 9.98152673e-01 1.22688175e-03 1.21591100e-03 9.68997739e-03 3.88937467e-03 4.35534725e-03 8.42295866e-03 2.55978443e-02 8.48108605e-02 2.06505522e-01 3.44768256e-01 4.47264880e-01 5.06395102e-01 5.33491910e-01 5.39781690e-01 5.33505797e-01 5.20991087e-01 5.07491231e-01 4.97326344e-01 4.93641406e-01 4.98062283e-01 5.10278165e-01 5.27442217e-01 5.43106794e-01 5.45925438e-01 5.07286608e-01 3.63817692e-01 1.08924299e-01 8.48159939e-02 3.03246230e-02 4.60879831e-03 9.97335374e-01 1.24786142e-03 1.22978562e-03 3.92917264e-03 2.41013756e-03 2.89799389e-03 7.07953004e-03 2.54504494e-02 7.90944546e-02 1.74886525e-01 2.88635582e-01 3.86251211e-01 4.52312529e-01 4.88081962e-01 5.00159323e-01 4.95223373e-01 4.79348421e-01 4.58525568e-01 4.38817799e-01 4.25842077e-01 4.23829198e-01 4.34685409e-01 4.57193226e-01 4.86897796e-01 5.18424153e-01 5.45862436e-01 5.52632511e-01 3.04429501e-01 6.53044209e-02 4.98783477e-02 4.81748879e-02 9.95152295e-01 1.26104802e-03 1.24068989e-03 1.84581033e-03 1.70351123e-03 2.34553358e-03 8.44864082e-03 3.73884998e-02 9.98587087e-02 1.84498996e-01 2.79431701e-01 3.66904348e-01 4.33172941e-01 4.74151403e-01 4.91903514e-01 4.90398437e-01 4.74007934e-01 4.47831869e-01 4.18273211e-01 3.92677397e-01 3.77797127e-01 3.77683222e-01 3.92157614e-01 4.16907042e-01 4.48056996e-01 4.89791363e-01 5.63619256e-01 6.39146388e-01 2.77882516e-01 1.71267897e-01 9.16576684e-01 9.90749240e-01 1.25853135e-03 1.24686991e-03 1.26085919e-03 1.26035744e-03 2.43703788e-03 1.48123140e-02 6.91123754e-02 1.38884678e-01 2.13363513e-01 2.94251055e-01 3.72526616e-01 4.36838657e-01 4.81161088e-01 5.04756689e-01 5.09247243e-01 4.96839881e-01 4.70377892e-01 4.34457034e-01 3.96215022e-01 3.64189565e-01 3.45068276e-01 3.41072083e-01 3.50319862e-01 3.72360855e-01 4.10088301e-01 4.77789372e-01 6.15064144e-01 7.29667723e-01 7.15442777e-01 9.83794332e-01 9.75752711e-01 1.25550886e-03 1.25172199e-03 1.26272778e-03 1.26139808e-03 3.52670788e-03 3.82410251e-02 1.21945836e-01 1.85340166e-01 2.48741522e-01 3.19417566e-01 3.90422404e-01 4.52111483e-01 4.98366445e-01 5.27318239e-01 5.39274275e-01 5.34856558e-01 5.14453232e-01 4.79091793e-01 4.32270736e-01 3.80909443e-01 3.33424538e-01 2.98448533e-01 2.85243869e-01 3.08376670e-01 3.75578910e-01 4.83435184e-01 6.61904573e-01 8.53928685e-01 9.54128921e-01 9.83300984e-01 1.98673848e-02 1.25734811e-03 1.25532015e-03 1.26549753e-03 1.26370485e-03 8.02240521e-03 1.00751333e-01 1.80492729e-01 2.29587018e-01 2.83686936e-01 3.46817136e-01 4.11714882e-01 4.70183522e-01 5.16901910e-01 5.49913824e-01 5.69138050e-01 5.74602425e-01 5.65231383e-01 5.38557649e-01 4.91743416e-01 4.23866719e-01 3.40289295e-01 2.62550145e-01 2.27745578e-01 2.69733310e-01 4.15379554e-01 6.32609665e-01 8.49149406e-01 9.38989937e-01 9.68171418e-01 9.32235956e-01 1.85230048e-03 1.25819060e-03 1.25744217e-03 1.26821746e-03 1.26640371e-03 3.26704048e-02 1.87991738e-01 2.32155815e-01 2.67532736e-01 3.14657658e-01 3.71246129e-01 4.30067986e-01 4.84432846e-01 5.30097842e-01 5.65414906e-01 5.90372741e-01 6.05146945e-01 6.08486712e-01 5.96152723e-01 5.59746206e-01 4.87384439e-01 3.76551062e-01 2.70073026e-01 2.33454868e-01 3.34666908e-01 6.22943103e-01 8.45667362e-01 9.39277887e-01 9.54137325e-01 9.46184397e-01 1.89915914e-02 1.25903590e-03 1.25842297e-03 1.25855987e-03 1.27099711e-03 1.26907241e-03 1.12833999e-01 2.49799505e-01 2.72627801e-01 2.98898011e-01 3.39704663e-01 3.89106840e-01 4.40910339e-01 4.90037709e-01 5.33170998e-01 5.68819582e-01 5.96939683e-01 6.18019044e-01 6.31470740e-01 6.33370638e-01 6.14056468e-01 5.58763325e-01 4.69479501e-01 4.09079581e-01 4.83798444e-01 7.62911558e-01 8.95941138e-01 9.53834891e-01 9.65519726e-01 9.37138975e-01 3.46187562e-01 1.50825304e-03 1.25828316e-03 1.25823903e-03 1.32957113e-03 1.27419084e-03 1.27196824e-03 1.99153572e-01 2.83921659e-01 3.01326901e-01 3.23039651e-01 3.56593609e-01 3.97302717e-01 4.40876514e-01 4.83718067e-01 5.23070037e-01 5.57250798e-01 5.85901022e-01 6.09993160e-01 6.31255388e-01 6.50837123e-01 6.68320835e-01 6.86684966e-01 7.32287586e-01 8.40025246e-01 9.23674643e-01 9.40393627e-01 9.35613453e-01 9.51721251e-01 7.01689720e-01 1.25926663e-03 1.25814439e-03 1.25791191e-03 1.25867361e-03 1.25880854e-03 9.23923310e-03 1.27795676e-03 1.27534545e-03 2.46838987e-01 3.09151292e-01 3.20764422e-01 3.37070495e-01 3.61897290e-01 3.93000662e-01 4.27838594e-01 4.63871211e-01 4.98657793e-01 5.30229092e-01 5.57784379e-01 5.82800806e-01 6.10389769e-01 6.49810672e-01 7.11513817e-01 7.97915936e-01 8.89846802e-01 9.50788796e-01 9.65569675e-01 7.49775395e-02 2.92858272e-03 1.76869321e-03 1.30723882e-03 1.25898095e-03 1.25853636e-03 1.25783856e-03 1.25870353e-03 3.10427975e-03 3.03706616e-01 1.28238462e-03 1.27933954e-03 2.81445086e-01 3.32385808e-01 3.31999272e-01 3.38582247e-01 3.53605837e-01 3.75350773e-01 4.01854277e-01 4.31063652e-01 4.60889041e-01 4.89409983e-01 5.15488923e-01 5.40335178e-01 5.70373714e-01 6.19759917e-01 7.04673827e-01 8.17165613e-01 9.10359383e-01 9.57327664e-01 9.71366405e-01 9.36718702e-01 6.82975957e-03 2.74248840e-03 1.65900274e-03 1.25939155e-03 1.58504280e-03 9.06544685e-01 9.61973965e-01 9.76616502e-01 8.76054168e-01 1.28744857e-03 1.28403609e-03 3.17044020e-01 3.50007445e-01 3.32164586e-01 3.27124178e-01 3.33063155e-01 3.46818119e-01 3.65901858e-01 3.88416529e-01 4.12905008e-01 4.38159853e-01 4.63210225e-01 4.88171011e-01 5.16847968e-01 5.60595989e-01 6.37111425e-01 7.49401450e-01 8.58562946e-01 9.25708830e-01 9.56728458e-01 9.65370476e-01 9.60372031e-01 9.79769707e-01 9.90731657e-01 9.92379546e-01 9.93490100e-01 9.91426051e-01 9.85790431e-01 9.84862089e-01 9.52236235e-01 1.29273837e-03 1.28941459e-03 3.58846754e-01 3.54644507e-01 3.18036646e-01 3.04475814e-01 3.04659903e-01 3.12715918e-01 3.25467944e-01 3.41354549e-01 3.59924376e-01 3.81314427e-01 4.05592024e-01 4.32310283e-01 4.61189300e-01 4.94908988e-01 5.42520583e-01 6.15818024e-01 7.12062657e-01 8.06266785e-01 8.78307164e-01 9.23476458e-01 9.48950529e-01 9.65900898e-01 9.72926259e-01 9.74476635e-01 9.73731101e-01 9.70447540e-01 9.59769487e-01 9.57953811e-01 9.01064694e-01 1.29706925e-03 1.29514281e-03 4.07368958e-01 3.37665737e-01 2.91232735e-01 2.76602864e-01 2.75287509e-01 2.79723674e-01 2.86953002e-01 2.96220630e-01 3.08210820e-01 3.24491262e-01 3.46758932e-01 3.75732809e-01 4.09893155e-01 4.45247740e-01 4.77969974e-01 5.09062350e-01 5.44830382e-01 5.89209020e-01 6.35798335e-01 6.70116365e-01 6.88108444e-01 6.96270049e-01 6.76206827e-01 6.59997761e-01 6.56755686e-01 6.68631136e-01 7.05081224e-01 7.36829817e-01 6.99380815e-01 1.30768621e-03 1.30088290e-03 4.99978751e-01 3.05613697e-01 2.63239980e-01 2.52643198e-01 2.50409156e-01 2.50572324e-01 2.51650810e-01 2.54069507e-01 2.59489834e-01 2.70492762e-01 2.90243328e-01 3.21739852e-01 3.65945071e-01 4.18473542e-01 4.66995507e-01 4.93604451e-01 4.81227547e-01 4.19114321e-01 3.14326346e-01 2.14974478e-01 1.81997567e-01 2.19310582e-01 2.91695029e-01 3.52337629e-01 3.81638587e-01 3.96366417e-01 4.10301536e-01 4.23088372e-01 5.00595212e-01 1.27950648e-03 1.29526365e-03 7.72085905e-01 3.95993561e-01 3.67339015e-01 3.58838230e-01 3.56006294e-01 3.54363382e-01 3.52720022e-01 3.51625890e-01 3.52564305e-01 3.57576370e-01 3.68958801e-01 3.88714939e-01 4.17497545e-01 4.52969909e-01 4.88070369e-01 5.10235369e-01 5.02131402e-01 4.44961190e-01 3.35376829e-01 2.21229330e-01 1.70763820e-01 1.97103932e-01 2.83977926e-01 3.69830728e-01 4.17100549e-01 4.27549899e-01 4.20134276e-01 4.07632560e-01 4.42546695e-01 
