# vtk DataFile Version 2.0
results_case1_non_linear/iter0.vtk, Created by Freefem++ 
ASCII
DATASET UNSTRUCTURED_GRID
POINTS 961 float
0 0 0
0.033333333 0 0
0.066666667 0 0
0.1 0 0
0.13333333 0 0
0.16666667 0 0
0.2 0 0
0.23333333 0 0
0.26666667 0 0
0.3 0 0
0.33333333 0 0
0.36666667 0 0
0.4 0 0
0.43333333 0 0
0.46666667 0 0
0.5 0 0
0.53333333 0 0
0.56666667 0 0
0.6 0 0
0.63333333 0 0
0.66666667 0 0
0.7 0 0
0.73333333 0 0
0.76666667 0 0
0.8 0 0
0.83333333 0 0
0.86666667 0 0
0.9 0 0
0.93333333 0 0
0.96666667 0 0
1 0 0
0 0.033333333 0
0.033333333 0.033333333 0
0.066666667 0.033333333 0
0.1 0.033333333 0
0.13333333 0.033333333 0
0.16666667 0.033333333 0
0.2 0.033333333 0
0.23333333 0.033333333 0
0.26666667 0.033333333 0
0.3 0.033333333 0
0.33333333 0.033333333 0
0.36666667 0.033333333 0
0.4 0.033333333 0
0.43333333 0.033333333 0
0.46666667 0.033333333 0
0.5 0.033333333 0
0.53333333 0.033333333 0
0.56666667 0.033333333 0
0.6 0.033333333 0
0.63333333 0.033333333 0
0.66666667 0.033333333 0
0.7 0.033333333 0
0.73333333 0.033333333 0
0.76666667 0.033333333 0
0.8 0.033333333 0
0.83333333 0.033333333 0
0.86666667 0.033333333 0
0.9 0.033333333 0
0.93333333 0.033333333 0
0.96666667 0.033333333 0
1 0.033333333 0
0 0.066666667 0
0.033333333 0.066666667 0
0.066666667 0.066666667 0
0.1 0.066666667 0
0.13333333 0.066666667 0
0.16666667 0.066666667 0
0.2 0.066666667 0
0.23333333 0.066666667 0
0.26666667 0.066666667 0
0.3 0.066666667 0
0.33333333 0.066666667 0
0.36666667 0.066666667 0
0.4 0.066666667 0
0.43333333 0.066666667 0
0.46666667 0.066666667 0
0.5 0.066666667 0
0.53333333 0.066666667 0
0.56666667 0.066666667 0
0.6 0.066666667 0
0.63333333 0.066666667 0
0.66666667 0.066666667 0
0.7 0.066666667 0
0.73333333 0.066666667 0
0.76666667 0.066666667 0
0.8 0.066666667 0
0.83333333 0.066666667 0
0.86666667 0.066666667 0
0.9 0.066666667 0
0.93333333 0.066666667 0
0.96666667 0.066666667 0
1 0.066666667 0
0 0.1 0
0.033333333 0.1 0
0.066666667 0.1 0
0.1 0.1 0
0.13333333 0.1 0
0.16666667 0.1 0
0.2 0.1 0
0.23333333 0.1 0
0.26666667 0.1 0
0.3 0.1 0
0.33333333 0.1 0
0.36666667 0.1 0
0.4 0.1 0
0.43333333 0.1 0
0.46666667 0.1 0
0.5 0.1 0
0.53333333 0.1 0
0.56666667 0.1 0
0.6 0.1 0
0.63333333 0.1 0
0.66666667 0.1 0
0.7 0.1 0
0.73333333 0.1 0
0.76666667 0.1 0
0.8 0.1 0
0.83333333 0.1 0
0.86666667 0.1 0
0.9 0.1 0
0.93333333 0.1 0
0.96666667 0.1 0
1 0.1 0
0 0.13333333 0
0.033333333 0.13333333 0
0.066666667 0.13333333 0
0.1 0.13333333 0
0.13333333 0.13333333 0
0.16666667 0.13333333 0
0.2 0.13333333 0
0.23333333 0.13333333 0
0.26666667 0.13333333 0
0.3 0.13333333 0
0.33333333 0.13333333 0
0.36666667 0.13333333 0
0.4 0.13333333 0
0.43333333 0.13333333 0
0.46666667 0.13333333 0
0.5 0.13333333 0
0.53333333 0.13333333 0
0.56666667 0.13333333 0
0.6 0.13333333 0
0.63333333 0.13333333 0
0.66666667 0.13333333 0
0.7 0.13333333 0
0.73333333 0.13333333 0
0.76666667 0.13333333 0
0.8 0.13333333 0
0.83333333 0.13333333 0
0.86666667 0.13333333 0
0.9 0.13333333 0
0.93333333 0.13333333 0
0.96666667 0.13333333 0
1 0.13333333 0
0 0.16666667 0
0.033333333 0.16666667 0
0.066666667 0.16666667 0
0.1 0.16666667 0
0.13333333 0.16666667 0
0.16666667 0.16666667 0
0.2 0.16666667 0
0.23333333 0.16666667 0
0.26666667 0.16666667 0
0.3 0.16666667 0
0.33333333 0.16666667 0
0.36666667 0.16666667 0
0.4 0.16666667 0
0.43333333 0.16666667 0
0.46666667 0.16666667 0
0.5 0.16666667 0
0.53333333 0.16666667 0
0.56666667 0.16666667 0
0.6 0.16666667 0
0.63333333 0.16666667 0
0.66666667 0.16666667 0
0.7 0.16666667 0
0.73333333 0.16666667 0
0.76666667 0.16666667 0
0.8 0.16666667 0
0.83333333 0.16666667 0
0.86666667 0.16666667 0
0.9 0.16666667 0
0.93333333 0.16666667 0
0.96666667 0.16666667 0
1 0.16666667 0
0 0.2 0
0.033333333 0.2 0
0.066666667 0.2 0
0.1 0.2 0
0.13333333 0.2 0
0.16666667 0.2 0
0.2 0.2 0
0.23333333 0.2 0
0.26666667 0.2 0
0.3 0.2 0
0.33333333 0.2 0
0.36666667 0.2 0
0.4 0.2 0
0.43333333 0.2 0
0.46666667 0.2 0
0.5 0.2 0
0.53333333 0.2 0
0.56666667 0.2 0
0.6 0.2 0
0.63333333 0.2 0
0.66666667 0.2 0
0.7 0.2 0
0.73333333 0.2 0
0.76666667 0.2 0
0.8 0.2 0
0.83333333 0.2 0
0.86666667 0.2 0
0.9 0.2 0
0.93333333 0.2 0
0.96666667 0.2 0
1 0.2 0
0 0.23333333 0
0.033333333 0.23333333 0
0.066666667 0.23333333 0
0.1 0.23333333 0
0.13333333 0.23333333 0
0.16666667 0.23333333 0
0.2 0.23333333 0
0.23333333 0.23333333 0
0.26666667 0.23333333 0
0.3 0.23333333 0
0.33333333 0.23333333 0
0.36666667 0.23333333 0
0.4 0.23333333 0
0.43333333 0.23333333 0
0.46666667 0.23333333 0
0.5 0.23333333 0
0.53333333 0.23333333 0
0.56666667 0.23333333 0
0.6 0.23333333 0
0.63333333 0.23333333 0
0.66666667 0.23333333 0
0.7 0.23333333 0
0.73333333 0.23333333 0
0.76666667 0.23333333 0
0.8 0.23333333 0
0.83333333 0.23333333 0
0.86666667 0.23333333 0
0.9 0.23333333 0
0.93333333 0.23333333 0
0.96666667 0.23333333 0
1 0.23333333 0
0 0.26666667 0
0.033333333 0.26666667 0
0.066666667 0.26666667 0
0.1 0.26666667 0
0.13333333 0.26666667 0
0.16666667 0.26666667 0
0.2 0.26666667 0
0.23333333 0.26666667 0
0.26666667 0.26666667 0
0.3 0.26666667 0
0.33333333 0.26666667 0
0.36666667 0.26666667 0
0.4 0.26666667 0
0.43333333 0.26666667 0
0.46666667 0.26666667 0
0.5 0.26666667 0
0.53333333 0.26666667 0
0.56666667 0.26666667 0
0.6 0.26666667 0
0.63333333 0.26666667 0
0.66666667 0.26666667 0
0.7 0.26666667 0
0.73333333 0.26666667 0
0.76666667 0.26666667 0
0.8 0.26666667 0
0.83333333 0.26666667 0
0.86666667 0.26666667 0
0.9 0.26666667 0
0.93333333 0.26666667 0
0.96666667 0.26666667 0
1 0.26666667 0
0 0.3 0
0.033333333 0.3 0
0.066666667 0.3 0
0.1 0.3 0
0.13333333 0.3 0
0.16666667 0.3 0
0.2 0.3 0
0.23333333 0.3 0
0.26666667 0.3 0
0.3 0.3 0
0.33333333 0.3 0
0.36666667 0.3 0
0.4 0.3 0
0.43333333 0.3 0
0.46666667 0.3 0
0.5 0.3 0
0.53333333 0.3 0
0.56666667 0.3 0
0.6 0.3 0
0.63333333 0.3 0
0.66666667 0.3 0
0.7 0.3 0
0.73333333 0.3 0
0.76666667 0.3 0
0.8 0.3 0
0.83333333 0.3 0
0.86666667 0.3 0
0.9 0.3 0
0.93333333 0.3 0
0.96666667 0.3 0
1 0.3 0
0 0.33333333 0
0.033333333 0.33333333 0
0.066666667 0.33333333 0
0.1 0.33333333 0
0.13333333 0.33333333 0
0.16666667 0.33333333 0
0.2 0.33333333 0
0.23333333 0.33333333 0
0.26666667 0.33333333 0
0.3 0.33333333 0
0.33333333 0.33333333 0
0.36666667 0.33333333 0
0.4 0.33333333 0
0.43333333 0.33333333 0
0.46666667 0.33333333 0
0.5 0.33333333 0
0.53333333 0.33333333 0
0.56666667 0.33333333 0
0.6 0.33333333 0
0.63333333 0.33333333 0
0.66666667 0.33333333 0
0.7 0.33333333 0
0.73333333 0.33333333 0
0.76666667 0.33333333 0
0.8 0.33333333 0
0.83333333 0.33333333 0
0.86666667 0.33333333 0
0.9 0.33333333 0
0.93333333 0.33333333 0
0.96666667 0.33333333 0
1 0.33333333 0
0 0.36666667 0
0.033333333 0.36666667 0
0.066666667 0.36666667 0
0.1 0.36666667 0
0.13333333 0.36666667 0
0.16666667 0.36666667 0
0.2 0.36666667 0
0.23333333 0.36666667 0
0.26666667 0.36666667 0
0.3 0.36666667 0
0.33333333 0.36666667 0
0.36666667 0.36666667 0
0.4 0.36666667 0
0.43333333 0.36666667 0
0.46666667 0.36666667 0
0.5 0.36666667 0
0.53333333 0.36666667 0
0.56666667 0.36666667 0
0.6 0.36666667 0
0.63333333 0.36666667 0
0.66666667 0.36666667 0
0.7 0.36666667 0
0.73333333 0.36666667 0
0.76666667 0.36666667 0
0.8 0.36666667 0
0.83333333 0.36666667 0
0.86666667 0.36666667 0
0.9 0.36666667 0
0.93333333 0.36666667 0
0.96666667 0.36666667 0
1 0.36666667 0
0 0.4 0
0.033333333 0.4 0
0.066666667 0.4 0
0.1 0.4 0
0.13333333 0.4 0
0.16666667 0.4 0
0.2 0.4 0
0.23333333 0.4 0
0.26666667 0.4 0
0.3 0.4 0
0.33333333 0.4 0
0.36666667 0.4 0
0.4 0.4 0
0.43333333 0.4 0
0.46666667 0.4 0
0.5 0.4 0
0.53333333 0.4 0
0.56666667 0.4 0
0.6 0.4 0
0.63333333 0.4 0
0.66666667 0.4 0
0.7 0.4 0
0.73333333 0.4 0
0.76666667 0.4 0
0.8 0.4 0
0.83333333 0.4 0
0.86666667 0.4 0
0.9 0.4 0
0.93333333 0.4 0
0.96666667 0.4 0
1 0.4 0
0 0.43333333 0
0.033333333 0.43333333 0
0.066666667 0.43333333 0
0.1 0.43333333 0
0.13333333 0.43333333 0
0.16666667 0.43333333 0
0.2 0.43333333 0
0.23333333 0.43333333 0
0.26666667 0.43333333 0
0.3 0.43333333 0
0.33333333 0.43333333 0
0.36666667 0.43333333 0
0.4 0.43333333 0
0.43333333 0.43333333 0
0.46666667 0.43333333 0
0.5 0.43333333 0
0.53333333 0.43333333 0
0.56666667 0.43333333 0
0.6 0.43333333 0
0.63333333 0.43333333 0
0.66666667 0.43333333 0
0.7 0.43333333 0
0.73333333 0.43333333 0
0.76666667 0.43333333 0
0.8 0.43333333 0
0.83333333 0.43333333 0
0.86666667 0.43333333 0
0.9 0.43333333 0
0.93333333 0.43333333 0
0.96666667 0.43333333 0
1 0.43333333 0
0 0.46666667 0
0.033333333 0.46666667 0
0.066666667 0.46666667 0
0.1 0.46666667 0
0.13333333 0.46666667 0
0.16666667 0.46666667 0
0.2 0.46666667 0
0.23333333 0.46666667 0
0.26666667 0.46666667 0
0.3 0.46666667 0
0.33333333 0.46666667 0
0.36666667 0.46666667 0
0.4 0.46666667 0
0.43333333 0.46666667 0
0.46666667 0.46666667 0
0.5 0.46666667 0
0.53333333 0.46666667 0
0.56666667 0.46666667 0
0.6 0.46666667 0
0.63333333 0.46666667 0
0.66666667 0.46666667 0
0.7 0.46666667 0
0.73333333 0.46666667 0
0.76666667 0.46666667 0
0.8 0.46666667 0
0.83333333 0.46666667 0
0.86666667 0.46666667 0
0.9 0.46666667 0
0.93333333 0.46666667 0
0.96666667 0.46666667 0
1 0.46666667 0
0 0.5 0
0.033333333 0.5 0
0.066666667 0.5 0
0.1 0.5 0
0.13333333 0.5 0
0.16666667 0.5 0
0.2 0.5 0
0.23333333 0.5 0
0.26666667 0.5 0
0.3 0.5 0
0.33333333 0.5 0
0.36666667 0.5 0
0.4 0.5 0
0.43333333 0.5 0
0.46666667 0.5 0
0.5 0.5 0
0.53333333 0.5 0
0.56666667 0.5 0
0.6 0.5 0
0.63333333 0.5 0
0.66666667 0.5 0
0.7 0.5 0
0.73333333 0.5 0
0.76666667 0.5 0
0.8 0.5 0
0.83333333 0.5 0
0.86666667 0.5 0
0.9 0.5 0
0.93333333 0.5 0
0.96666667 0.5 0
1 0.5 0
0 0.53333333 0
0.033333333 0.53333333 0
0.066666667 0.53333333 0
0.1 0.53333333 0
0.13333333 0.53333333 0
0.16666667 0.53333333 0
0.2 0.53333333 0
0.23333333 0.53333333 0
0.26666667 0.53333333 0
0.3 0.53333333 0
0.33333333 0.53333333 0
0.36666667 0.53333333 0
0.4 0.53333333 0
0.43333333 0.53333333 0
0.46666667 0.53333333 0
0.5 0.53333333 0
0.53333333 0.53333333 0
0.56666667 0.53333333 0
0.6 0.53333333 0
0.63333333 0.53333333 0
0.66666667 0.53333333 0
0.7 0.53333333 0
0.73333333 0.53333333 0
0.76666667 0.53333333 0
[...]
CELL_DATA 1920
Scalars  Label int 1
LOOKUP_TABLE FreeFempp_table
0
0
0
0
0
0
0
0
0
0
0
0
0
0
0
0
0
0
0
0
0
0
0
0
0
0
0
0
0
0
0
0
0
0
0
0
0
0
0
0
0
0
0
0
0
0
0
0
0
0
0
0
0
0
0
0
0
0
0
0
0
0
0
0
0
0
0
0
0
0
0
0
0
0
0
0
0
0
0
0
0
0
0
0
0
0
0
0
0
0
0
0
0
0
0
0
0
0
0
0
0
0
0
0
0
0
0
0
0
0
0
0
0
0
0
0
0
0
0
0
0
0
0
0
0
0
0
0
0
0
0
0
0
0
0
0
0
0
0
0
0
0
0
0
0
0
0
0
0
0
0
0
0
0
0
0
0
0
0
0
0
0
0
0
0
0
0
0
0
0
0
0
0
0
0
0
0
0
0
0
0
0
0
0
0
0
0
0
0
0
0
0
0
0
0
0
0
0
0
0
0
0
0
0
0
0
0
0
0
0
0
0
0
0
0
0
0
0
0
0
0
0
0
0
0
0
0
0
0
0
0
0
0
0
0
0
0
0
0
0
0
0
0
0
0
0
0
0
0
0
0
0
0
0
0
0
0
0
0
0
0
0
0
0
0
0
0
0
0
0
0
0
0
0
0
0
0
0
0
0
0
0
0
0
0
0
0
0
0
0
0
0
0
0
0
0
0
0
0
0
0
0
0
0
0
0
0
0
0
0
0
0
0
0
0
0
0
0
0
0
0
0
0
0
0
0
0
0
0
0
0
0
0
0
0
0
0
0
0
0
0
0
0
0
0
0
0
0
0
0
0
0
0
0
0
0
0
0
0
0
0
0
0
0
0
0
0
0
0
0
0
0
0
0
0
0
0
0
0
0
0
0
0
0
0
0
0
0
0
0
0
0
0
0
0
0
0
0
0
0
0
0
0
0
0
0
0
0
0
0
0
0
0
0
0
0
0
0
0
0
0
0
0
0
0
0
0
0
0
0
0
0
0
0
0
0
0
0
0
0
0
0
0
0
0
0
0
0
0
0
0
0
0
0
0
0
0
0
0
0
0
0
0
0
0
0
0
0
0
0
0
0
0
0
0
0
0
0
0
0
0
0
0
0
0
0
0
0
0
0
0
0
0
0
0
0
0
0
0
0
0
0
0
0
0
0
0
0
0
0
0
0
0
0
0
0
0
0
0
0
0
0
0
0
0
0
0
0
0
0
0
0
0
0
0
0
0
0
0
0
0
0
0
0
0
0
0
0
0
0
0
0
0
0
0
0
0
0
0
0
0
0
0
0
0
0
0
0
0
0
0
0
0
0
0
0
0
0
0
0
0
0
0
0
0
0
0
0
0
0
0
0
0
0
0
0
0
0
0
0
0
0
0
0
0
0
0
0
0
0
0
0
0
0
0
0
0
0
0
0
0
0
0
0
0
0
0
0
0
0
0
0
0
0
0
0
0
0
0
0
0
0
0
0
0
0
0
0
0
0
0
0
0
0
0
0
0
0
0
0
0
0
0
0
0
0
0
0
0
0
0
0
0
0
0
0
0
0
0
0
0
0
0
0
0
0
0
0
0
0
0
0
0
0
0
0
0
0
0
0
0
0
0
0
0
0
0
0
0
0
0
0
0
0
0
0
0
0
0
0
0
0
0
0
0
0
0
0
0
0
0
0
0
0
0
0
0
0
0
0
0
0
0
0
0
0
0
0
0
0
0
0
0
0
0
0
0
0
0
0
0
0
0
0
0
0
0
0
0
0
0
0
0
0
0
0
0
0
0
0
0
0
0
0
0
0
0
0
0
0
0
0
0
0
0
0
0
0
0
0
0
0
0
0
0
0
0
0
0
0
0
0
0
0
0
0
0
0
0
0
0
0
0
0
0
0
0
0
0
0
0
0
0
0
0
0
0
0
0
0
0
0
0
0
0
0
0
0
0
0
0
0
0
0
0
0
0
0
0
0
0
0
0
0
0
0
0
0
0
0
0
0
0
0
0
0
0
0
0
0
0
0
0
0
0
0
0
0
0
0
0
0
0
0
0
0
0
0
0
0
0
0
0
0
0
0
0
0
0
0
0
0
0
0
0
0
0
0
0
0
0
0
0
0
0
0
0
0
0
0
0
0
0
0
0
0
0
0
0
0
0
0
0
0
0
0
0
0
0
0
0
0
0
0
0
0
0
0
0
0
0
0
0
0
0
0
0
0
0
0
0
0
0
0
0
0
0
0
0
0
0
0
0
0
0
0
0
0
0
0
0
0
0
0
0
0
0
0
0
0
0
0
0
0
0
0
0
0
0
0
0
0
0
0
0
0
0
0
0
0
0
0
0
0
0
0
0
0
0
0
0
0
0
0
0
0
0
0
0
0
0
0
0
0
0
0
0
0
0
0
0
0
0
0
0
0
0
0
0
0
0
0
0
0
0
0
0
0
0
0
0
0
0
0
0
0
0
0
0
0
0
0
0
0
0
0
0
0
0
0
0
0
0
0
0
0
0
0
0
0
0
0
0
0
0
0
0
0
0
0
0
0
0
0
0
0
0
0
0
0
0
0
0
0
0
0
0
0
0
0
0
0
0
0
0
0
0
0
0
0
0
0
0
0
0
0
0
0
0
0
0
0
0
0
0
0
0
0
0
0
0
0
0
0
0
0
0
0
0
0
0
0
0
0
0
0
0
0
0
0
0
0
0
0
0
0
0
0
0
0
0
0
0
0
0
0
0
0
0
0
0
0
0
0
0
0
0
0
0
0
0
0
0
0
0
0
0
0
0
0
0
0
0
0
0
0
0
0
0
0
0
0
0
0
0
0
0
0
0
0
0
0
0
0
0
0
0
0
0
0
0
0
0
0
0
0
0
0
0
0
0
0
0
0
0
0
0
0
0
0
0
0
0
0
0
0
0
0
0
0
0
0
0
0
0
0
0
0
0
0
0
0
0
0
0
0
0
0
0
0
0
0
0
0
0
0
0
0
0
0
0
0
0
0
0
0
0
0
0
0
0
0
0
0
0
0
0
0
0
0
0
0
0
0
0
0
0
0
0
0
0
0
0
0
0
0
0
0
0
0
0
0
0
0
0
0
0
0
0
0
0
0
0
0
0
0
0
0
0
0
0
0
0
0
0
0
0
0
0
0
0
0
0
0
0
0
0
0
0
0
0
0
0
0
0
0
0
0
0
0
0
0
0
0
0
0
0
0
0
0
0
0
0
0
0
0
0
0
0
0
0
0
0
0
0
0
0
0
0
0
0
0
0
0
0
0
0
0
0
0
0
0
0
0
0
0
0
0
0
0
0
0
0
0
0
0
0
0
0
0
0
0
0
0
0
0
0
0
0
0
0
0
0
0
0
0
0
0
0
0
0
0
0
0
0
0
0
0
0
0
0
0
0
0
0
0
0
0
0
0
0
0
0
0
0
0
0
0
0
0
0
0
0
0
0
0
0
0
0
0
0
0
0
0
0
0
0
0
0
0
0
0
0
0
0
0
0
0
0
0
0
0
0
0
0
0
0
0
0
0
0
0
0
0
0
0
0
0
0
0
0
0
0
0
0
0
0
0
0
0
0
0
0
0
0
0
0
0
0
0
0
0
0
0
0
0
0
0
0
0
0
0
0
0
0
0
0
0
0
0
0
0
0
0
0
0
0
0
0
0
0
0
0
0
0
0
0
0
0
0
0
0
0
0
0
0
0
0
0
0
0
0
0
0
0
0
0
0
0
0
0
0
0
0
0
0
0
0
0
0
0
0
0
0
0
0
0
0
0
0
0
0
0
0
0
0
0
0
0
0
0
0
0
0
0
0
0
0
0
0
0
0
0
0
0
0
0
0
0
0
0
0
0
0
0
0
0
0
0
0
0
0
0
0
0
0
0
0
0
0
0
0
0
0
0
0
0
0
0
0
0
0
0
0
0
0
0
0
0
0
0
0
0
0
0
0
0
0
0
0
0
0
0
0
0
0
0
0
0
0
0
0
0
0
0
0
0
0
0
0
0
0
0
0
0
0
0
0
0
0
0
0
0
0
0
0
0
0
0
0
0
0
0
0
0
0
0
0
0
0
0
0
0
0
0
0
0
0
0
0
1
1
1
1
1
1
1
1
1
1
1
1
1
1
1
1
1
1
1
1
1
1
1
1
1
1
1
1
1
1
2
2
2
2
2
2
2
2
2
2
2
2
2
2
2
2
2
2
2
2
2
2
2
2
2
2
2
2
2
2
3
3
3
3
3
3
3
3
3
3
3
3
3
3
3
3
3
3
3
3
3
3
3
3
3
3
3
3
3
3
4
4
4
4
4
4
4
4
4
4
4
4
4
4
4
4
4
4
4
4
4
4
4
4
4
4
4
4
4
4

LOOKUP_TABLE FreeFempp_table 5
1.00000000 0.00000000 0.00000000 1.00000000
1.00000000 1.00000000 0.00000000 1.00000000
1.00000000 0.00000000 1.00000000 1.00000000
0.00000000 1.00000000 0.00000000 1.00000000
0.00000000 1.00000000 1.00000000 1.00000000

POINT_DATA 961
FIELD FieldData 1
Density 1 961 float
2.77484251e-05 3.42608764e-05 3.87998371e-05 4.30077816e-05 4.45010992e-05 4.40391341e-05 4.08973137e-05 3.48804788e-05 2.57626398e-05 1.36845510e-05 1.15118182e-05 1.19262855e-04 1.68392051e-03 4.59185336e-03 9.24799219e-03 1.47093320e-02 1.78730786e-02 1.71135738e-02 1.39317149e-02 1.09870937e-02 9.58819687e-03 9.52490699e-03 9.94316116e-03 9.91597772e-03 8.82336963e-03 6.52524969e-03 3.61483847e-03 1.27233542e-03 6.06933754e-05 9.38138692e-05 1.43911981e-03 4.23871534e-05 3.27719972e-05 4.36399750e-05 5.32810845e-05 5.89462870e-05 6.30804643e-05 6.65472326e-05 6.93306138e-05 7.13262416e-05 6.91647729e-05 4.79033151e-05 3.55629563e-05 2.03070304e-05 1.94846452e-05 2.07023066e-03 3.33313346e-02 1.69694841e-01 3.55626702e-01 4.06634569e-01 3.41040045e-01 2.59197235e-01 2.02893838e-01 1.53976932e-01 9.78583246e-02 4.76303473e-02 1.77677181e-02 5.39706694e-03 1.41122926e-03 1.51435932e-04 2.76351275e-05 1.91032799e-04 5.33969840e-04 2.65603769e-04 1.68778573e-03 5.13588078e-03 6.73679449e-03 6.89989375e-03 6.64100470e-03 6.26814412e-03 5.53058833e-03 3.87623184e-03 1.34521734e-03 3.97703952e-05 1.34215943e-05 2.47682165e-05 1.86513935e-05 2.76455212e-05 7.48962630e-05 5.35038766e-04 3.67688295e-03 1.50139118e-02 3.88736278e-02 6.30256757e-02 6.94090649e-02 5.82723841e-02 4.17004116e-02 2.76701897e-02 1.71769168e-02 9.24143102e-03 2.16654129e-03 5.08497833e-05 4.85999371e-05 1.56406418e-03 4.95410466e-04 5.16555691e-03 1.09680956e-02 1.30826058e-02 1.41733838e-02 1.52159184e-02 1.64517406e-02 1.76600739e-02 1.82440691e-02 1.74180549e-02 1.46812377e-02 9.94892605e-03 2.78931414e-03 5.64359434e-05 7.88615580e-06 9.08907154e-08 2.26424527e-06 2.70181132e-04 4.82722279e-03 4.55843285e-02 1.47199109e-01 1.90823749e-01 1.45741493e-01 8.41537863e-02 4.43248190e-02 2.39036642e-02 1.31992018e-02 4.59542964e-03 7.50335603e-05 3.31003648e-05 4.90958244e-03 1.66959991e-03 8.66377540e-03 1.40471663e-02 1.66071150e-02 1.92494262e-02 2.25902721e-02 2.68086623e-02 3.17834616e-02 3.69767137e-02 4.14988361e-02 4.43960465e-02 4.42782454e-02 3.85585353e-02 2.82000192e-02 1.69847589e-02 5.79771539e-03 1.57753646e-03 1.46072870e-03 6.12055697e-03 4.01517637e-02 1.18070804e-01 1.51636437e-01 1.22050136e-01 7.85298645e-02 4.68462892e-02 2.78021786e-02 1.59905870e-02 5.75722568e-03 8.90281663e-05 3.10483083e-05 1.30259972e-02 7.42508331e-03 1.53927486e-02 1.85803268e-02 2.21731924e-02 2.76229586e-02 3.54421027e-02 4.60930020e-02 5.98396808e-02 7.63071254e-02 9.41709280e-02 1.11214109e-01 1.24225415e-01 1.29125923e-01 1.24442808e-01 1.09112643e-01 8.04366618e-02 5.16856536e-02 3.87126580e-02 4.91511635e-02 9.52503011e-02 1.63635939e-01 1.84588596e-01 1.45330548e-01 9.28750634e-02 5.53223267e-02 3.30527946e-02 1.89452227e-02 6.64595468e-03 1.08644221e-04 2.82911351e-05 2.70790569e-02 2.75502354e-02 2.75558606e-02 2.72217598e-02 3.30050029e-02 4.35722321e-02 5.98721765e-02 8.34301785e-02 1.15646370e-01 1.56515867e-01 2.03444809e-01 2.51121640e-01 2.92512029e-01 3.20577860e-01 3.30747813e-01 3.19535166e-01 2.85020411e-01 2.39484429e-01 2.06570968e-01 2.05432490e-01 2.35388398e-01 2.62119919e-01 2.42501631e-01 1.78719908e-01 1.11385792e-01 6.54152110e-02 3.88835855e-02 2.21984386e-02 7.56791094e-03 1.33511508e-04 2.73349360e-05 4.49836031e-02 7.12260380e-02 4.50033508e-02 4.32489440e-02 5.37652411e-02 7.34160319e-02 1.04459025e-01 1.50550142e-01 2.14641660e-01 2.95305103e-01 3.84413093e-01 4.69486356e-01 5.39280534e-01 5.87412417e-01 6.11987591e-01 6.12565339e-01 5.89251220e-01 5.47329128e-01 4.99921590e-01 4.62040156e-01 4.34069365e-01 3.94600511e-01 3.21774244e-01 2.23577216e-01 1.34951591e-01 7.71180019e-02 4.49846908e-02 2.56149564e-02 8.60038120e-03 1.62376775e-04 2.82236688e-05 6.08161129e-02 1.27134904e-01 6.51354045e-02 6.82610348e-02 8.80102962e-02 1.21874221e-01 1.74267575e-01 2.51540631e-01 3.55680287e-01 4.76694673e-01 5.94227731e-01 6.90283179e-01 7.58310199e-01 8.00747156e-01 8.22636187e-01 8.27676296e-01 8.17337871e-01 7.91933239e-01 7.52189636e-01 6.99704468e-01 6.33008540e-01 5.43033063e-01 4.21325952e-01 2.82297820e-01 1.64379716e-01 9.00079831e-02 5.06322719e-02 2.86551360e-02 9.63867735e-03 1.90860024e-04 3.10988689e-05 6.67295903e-02 1.63573474e-01 8.05061013e-02 9.53056440e-02 1.29087642e-01 1.81186303e-01 2.58620739e-01 3.69261771e-01 5.07444859e-01 6.47323072e-01 7.60723829e-01 8.37779403e-01 8.84495258e-01 9.10653651e-01 9.23582256e-01 9.27272379e-01 9.23068225e-01 9.10281718e-01 8.86361182e-01 8.46526504e-01 7.82444119e-01 6.81191385e-01 5.32734990e-01 3.54811549e-01 2.00163543e-01 1.03585534e-01 5.49762212e-02 3.05131804e-02 1.03869755e-02 2.06013108e-04 3.54749645e-05 5.79490811e-02 1.55979708e-01 8.00428689e-02 1.06916972e-01 1.55829966e-01 2.27848247e-01 3.32365781e-01 4.74580020e-01 6.33629322e-01 7.69790351e-01 8.61401737e-01 9.14155781e-01 9.42337871e-01 9.56814647e-01 9.63660121e-01 9.65731740e-01 9.63921309e-01 9.57649767e-01 9.44662213e-01 9.19974864e-01 8.73543501e-01 7.87258029e-01 6.39244676e-01 4.35431927e-01 2.41208449e-01 1.17118917e-01 5.72458617e-02 3.02723516e-02 1.02131860e-02 1.89447441e-04 3.97805852e-05 3.78337689e-02 1.05788291e-01 6.00823089e-02 9.15220603e-02 1.50767788e-01 2.42581248e-01 3.77625853e-01 5.51335454e-01 7.22038031e-01 8.45009387e-01 9.14955139e-01 9.50169504e-01 9.67199087e-01 9.75307822e-01 9.78937924e-01 9.80060399e-01 9.79280174e-01 9.76167083e-01 9.69084144e-01 9.54227149e-01 9.23039913e-01 8.57212782e-01 7.26161003e-01 5.14384270e-01 2.84679919e-01 1.29852682e-01 5.70629425e-02 2.72089913e-02 8.16589128e-03 1.44980615e-04 4.20420656e-05 1.70611832e-02 4.47155051e-02 3.28652821e-02 6.02983534e-02 1.20786719e-01 2.28244349e-01 3.95452827e-01 6.01092160e-01 7.79010355e-01 8.88408601e-01 9.42531168e-01 9.67041016e-01 9.77883399e-01 9.82496798e-01 9.84226167e-01 9.84734356e-01 9.84595835e-01 9.83312488e-01 9.79458153e-01 9.70162451e-01 9.48748946e-01 8.99179757e-01 7.88586974e-01 5.82993388e-01 3.27736109e-01 1.42216787e-01 5.53191267e-02 2.19153054e-02 4.85658506e-03 9.78453972e-05 4.66281999e-05 4.86379117e-03 1.03489375e-02 1.37959979e-02 3.42416205e-02 8.86547416e-02 2.03347534e-01 3.97802711e-01 6.31755233e-01 8.14019024e-01 9.12716091e-01 9.56676900e-01 9.75025773e-01 9.82357562e-01 9.84647334e-01 9.84584093e-01 9.84314322e-01 9.85025346e-01 9.85478580e-01 9.83762503e-01 9.77602541e-01 9.61820900e-01 9.22856092e-01 8.29348743e-01 6.37520432e-01 3.70378792e-01 1.58165887e-01 5.57628274e-02 1.78267118e-02 3.13753798e-03 1.07609936e-04 8.68651332e-05 9.20912542e-04 1.56089303e-03 5.47058461e-03 2.12204363e-02 6.90597445e-02 1.84250966e-01 3.95473659e-01 6.48764729e-01 8.33200336e-01 9.25166130e-01 9.63501155e-01 9.78622317e-01 9.83986855e-01 9.84440625e-01 9.81817782e-01 9.81770933e-01 9.82370138e-01 9.85325873e-01 9.85295355e-01 9.80863214e-01 9.68003571e-01 9.35051620e-01 8.53551328e-01 6.78688049e-01 4.16415483e-01 1.86932623e-01 6.60388842e-02 1.97806824e-02 4.12146235e-03 3.88283166e-04 3.53967858e-04 1.71121632e-04 2.77252693e-04 3.08675296e-03 1.79013275e-02 6.26065210e-02 1.75418764e-01 3.91258985e-01 6.52633667e-01 8.38947356e-01 9.29016471e-01 9.65603650e-01 9.79697645e-01 9.84373033e-01 9.83967006e-01 9.81511652e-01 9.81783211e-01 9.82063711e-01 9.84878421e-01 9.85633850e-01 9.81791079e-01 9.69931722e-01 9.39507186e-01 8.65279734e-01 7.08406091e-01 4.69212174e-01 2.40530774e-01 9.91149619e-02 3.48552391e-02 1.16703222e-02 3.00321076e-03 2.10695574e-03 5.56728446e-05 1.07772306e-04 3.32586933e-03 2.01843213e-02 6.36752248e-02 1.71543404e-01 3.80536169e-01 6.40312135e-01 8.30810130e-01 9.24863219e-01 9.63595212e-01 9.78732586e-01 9.84053612e-01 9.84457076e-01 9.81785834e-01 9.81694579e-01 9.82302606e-01 9.85326886e-01 9.85330820e-01 9.80949223e-01 9.68445957e-01 9.37608719e-01 8.66367102e-01 7.26233661e-01 5.23256779e-01 3.20971370e-01 1.70555755e-01 7.83921555e-02 4.09253202e-02 2.20139828e-02 1.02950623e-02 4.05280589e-05 1.07319749e-04 5.42696239e-03 2.44988725e-02 6.57448545e-02 1.64770842e-01 3.57038230e-01 6.07563555e-01 8.05818975e-01 9.10897255e-01 9.56447601e-01 9.75077152e-01 9.82409954e-01 9.84646857e-01 9.84528780e-01 9.84221339e-01 9.84970689e-01 9.85518456e-01 9.83877182e-01 9.77876902e-01 9.62953687e-01 9.28590536e-01 8.55676234e-01 7.27395415e-01 5.60678661e-01 4.00917530e-01 2.67716378e-01 1.53650373e-01 1.08499661e-01 8.04373324e-02 3.20520848e-02 3.95473326e-05 1.46691091e-04 8.24357476e-03 2.75798030e-02 6.50030673e-02 1.51127309e-01 3.18268657e-01 5.50992966e-01 7.58319378e-01 8.82159173e-01 9.40883875e-01 9.66603577e-01 9.77734268e-01 9.82401907e-01 9.84137475e-01 9.84672546e-01 9.84621048e-01 9.83467937e-01 9.79766130e-01 9.70816731e-01 9.50949609e-01 9.08833504e-01 8.28102112e-01 7.02773571e-01 5.59237361e-01 4.33631063e-01 3.27786297e-01 2.12065473e-01 1.83009282e-01 1.36156842e-01 6.28570095e-02 3.61208367e-05 1.83125114e-04 1.00988531e-02 2.89819781e-02 6.15306273e-02 1.31757870e-01 2.67184168e-01 4.70511049e-01 6.80826843e-01 8.29180539e-01 9.09577608e-01 9.48304892e-01 9.66476142e-01 9.74991024e-01 9.78811085e-01 9.80091095e-01 9.79503214e-01 9.76622641e-01 9.69818175e-01 9.55489397e-01 9.26390231e-01 8.70110393e-01 7.73513496e-01 6.40537262e-01 5.03204703e-01 3.91112089e-01 3.01217705e-01 2.01693222e-01 2.02723056e-01 1.24491431e-01 8.26136842e-02 3.05435751e-05 1.96916109e-04 1.11502009e-02 2.98917200e-02 5.70160262e-02 1.10145606e-01 2.10784748e-01 3.72646213e-01 5.68824291e-01 7.38174379e-01 8.48281801e-01 9.08973455e-01 9.40291166e-01 9.56077874e-01 9.63589787e-01 9.66141820e-01 9.64804649e-01 9.59025681e-01 9.46444213e-01 9.21972752e-01 8.76505315e-01 7.97647536e-01 6.78401351e-01 5.33138633e-01 3.95305812e-01 2.87178099e-01 2.06217140e-01 1.34796500e-01 1.50222182e-01 6.19832762e-02 7.55799487e-02 2.58179607e-05 1.76429734e-04 1.23053910e-02 3.16396467e-02 5.28896004e-02 8.93874317e-02 1.56992927e-01 2.71424919e-01 4.30483341e-01 5.99263489e-01 7.35977113e-01 8.26560557e-01 8.79995763e-01 9.09484863e-01 9.24329758e-01 9.29485440e-01 9.26706791e-01 9.15210664e-01 8.91587257e-01 8.49306643e-01 7.79137790e-01 6.73595130e-01 5.37297368e-01 3.93254369e-01 2.69054383e-01 1.76563576e-01 1.11887187e-01 6.69757649e-02 6.77815974e-02 1.52031686e-02 4.73062694e-02 2.44543553e-05 1.32752932e-04 1.46001298e-02 3.57744060e-02 4.99594621e-02 7.11643845e-02 1.11553580e-01 1.82817310e-01 2.91217566e-01 4.26529944e-01 5.62119544e-01 6.73441529e-01 7.51933515e-01 8.01233113e-01 8.28172386e-01 8.37889075e-01 8.32554579e-01 8.11372161e-01 7.70902932e-01 7.06159174e-01 6.13771439e-01 4.97538239e-01 3.72040868e-01 2.57289439e-01 1.66913778e-01 1.02593273e-01 5.88670559e-02 3.06995641e-02 2.06759665e-02 2.09421292e-03 1.92688424e-02 3.08553317e-05 9.13165277e-05 1.98128559e-02 4.47069705e-02 4.83626090e-02 5.58548607e-02 7.67248571e-02 1.16336875e-01 1.78918093e-01 2.63635665e-01 3.61368597e-01 4.57376420e-01 5.38471699e-01 5.97702682e-01 6.33629441e-01 6.47196233e-01 6.39309943e-01 6.09999061e-01 5.59042335e-01 4.87856001e-01 4.01784480e-01 3.10618609e-01 2.25649312e-01 1.55184969e-01 1.02099068e-01 6.42964914e-02 3.73732038e-02 1.84902288e-02 8.07523355e-03 4.74595407e-04 4.87627788e-03 2.67393771e-05 2.87471667e-05 3.21992785e-02 6.18581697e-02 4.70857322e-02 4.30933945e-02 5.20270318e-02 7.23501816e-02 1.04220420e-01 1.47199541e-01 1.98690742e-01 2.53557354e-01 3.05135846e-01 3.47044289e-01 3.74592632e-01 3.85179937e-01 3.78044724e-01 3.54049504e-01 3.15805346e-01 2.67851561e-01 2.16212392e-01 1.66937888e-01 1.24308392e-01 9.01196599e-02 6.43262640e-02 4.54725809e-02 3.04855295e-02 1.68699734e-02 6.53439434e-03 4.40140255e-04 1.01503253e-03 2.45805531e-05 1.52080315e-06 6.32329285e-02 8.71394500e-02 4.36484180e-02 3.26480269e-02 3.58279012e-02 4.59059887e-02 6.07575029e-02 7.93827549e-02 1.00739904e-01 1.23250030e-01 1.44708306e-01 1.62573069e-01 1.74481034e-01 1.78762853e-01 1.74796492e-01 1.63144723e-01 1.45474464e-01 1.24257021e-01 1.02267675e-01 8.19635689e-02 6.48984984e-02 5.14901020e-02 4.15175147e-02 3.47642042e-02 2.97007952e-02 2.04345472e-02 7.66890030e-03 6.07861090e-04 4.06250590e-04 2.92346740e-05 2.74917838e-05 1.37786880e-01 1.05249621e-01 3.69064920e-02 2.52621174e-02 2.64548156e-02 3.11987810e-02 3.72139625e-02 4.39175665e-02 5.10628708e-02 5.82715608e-02 6.49479777e-02 7.03628138e-02 7.38065168e-02 7.47539103e-02 7.29926527e-02 6.86814561e-02 6.23261221e-02 5.46913892e-02 4.66877408e-02 3.92576456e-02 3.32261845e-02 2.90694721e-02 2.68200208e-02 2.67524533e-02 3.01247928e-02 3.12526450e-02 1.31979138e-02 3.85215884e-04 3.59386671e-04 3.55570446e-05 3.01303462e-05 3.47284943e-01 1.05818093e-01 3.14793177e-02 2.23320369e-02 2.23270617e-02 2.34122872e-02 2.45162155e-02 2.57887281e-02 2.73040216e-02 2.89446637e-02 3.04931402e-02 3.17085013e-02 3.23759168e-02 3.23406570e-02 3.15303691e-02 2.99641360e-02 2.77478341e-02 2.50621047e-02 2.21584365e-02 1.93798635e-02 1.71976965e-02 1.62004307e-02 1.69538874e-02 2.00137813e-02 2.84220427e-02 5.19251525e-02 4.26393822e-02 3.93282389e-04 3.26555339e-04 1.55674079e-05 2.52424124e-05 7.75955856e-01 1.31373331e-01 3.40630598e-02 2.38598678e-02 2.07935963e-02 1.85013562e-02 1.69495214e-02 1.61364228e-02 1.58482995e-02 1.58531144e-02 1.59644261e-02 1.60454549e-02 1.60004105e-02 1.57667119e-02 1.53101021e-02 1.46217113e-02 1.37156518e-02 1.26275560e-02 1.14189172e-02 1.01992637e-02 9.18357167e-03 8.79537873e-03 9.82806738e-03 1.38087654e-02 2.51342133e-02 7.81229064e-02 1.61236718e-01 2.60236906e-04 2.36706765e-04 9.27020210e-06 1.14695422e-05 9.46383774e-01 2.80383050e-01 4.28994782e-02 2.25220211e-02 1.66114625e-02 1.34416642e-02 1.16797788e-02 1.07220234e-02 1.02087315e-02 9.92594939e-03 9.74399038e-03 9.58315935e-03 9.39372461e-03 9.14399326e-03 8.81383568e-03 8.39202944e-03 7.87583645e-03 7.27124372e-03 6.59345742e-03 5.87136624e-03 5.16897021e-03 4.65259096e-03 4.76375641e-03 6.90283999e-03 1.83447674e-02 9.26698595e-02 3.65864962e-01 1.14299262e-04 3.23174871e-04 2.12114406e-04 2.17615598e-05 8.48634899e-01 9.33062062e-02 2.13429853e-02 1.13977175e-02 8.93069617e-03 8.01998936e-03 7.54734036e-03 7.24758022e-03 7.04805646e-03 6.91037066e-03 6.80557918e-03 6.71257544e-03 6.61669392e-03 6.50737435e-03 6.37623016e-03 6.21614326e-03 6.02129195e-03 5.78747038e-03 5.51172579e-03 5.19086421e-03 4.82187141e-03 4.41882759e-03 4.08152724e-03 4.13474301e-03 5.34409238e-03 9.60426405e-03 2.22791862e-02 1.31832771e-02 1.75235386e-04 
