# vtk DataFile Version 2.0
results_case1_non_linear/3_density.vtk, Created by Freefem++ 
ASCII
DATASET UNSTRUCTURED_GRID
POINTS 961 float
0 0 0
0.033333333 0 0
0.066666667 0 0
0.1 0 0
0.13333333 0 0
0.16666667 0 0
0.2 0 0
0.23333333 0 0
0.26666667 0 0
0.3 0 0
0.33333333 0 0
0.36666667 0 0
0.4 0 0
0.43333333 0 0
0.46666667 0 0
0.5 0 0
0.53333333 0 0
0.56666667 0 0
0.6 0 0
0.63333333 0 0
0.66666667 0 0
0.7 0 0
0.73333333 0 0
0.76666667 0 0
0.8 0 0
0.83333333 0 0
0.86666667 0 0
0.9 0 0
0.93333333 0 0
0.96666667 0 0
1 0 0
0 0.033333333 0
0.033333333 0.033333333 0
0.066666667 0.033333333 0
0.1 0.033333333 0
0.13333333 0.033333333 0
0.16666667 0.033333333 0
0.2 0.033333333 0
0.23333333 0.033333333 0
0.26666667 0.033333333 0
0.3 0.033333333 0
0.33333333 0.033333333 0
0.36666667 0.033333333 0
0.4 0.033333333 0
0.43333333 0.033333333 0
0.46666667 0.033333333 0
0.5 0.033333333 0
0.53333333 0.033333333 0
0.56666667 0.033333333 0
0.6 0.033333333 0
0.63333333 0.033333333 0
0.66666667 0.033333333 0
0.7 0.033333333 0
0.73333333 0.033333333 0
0.76666667 0.033333333 0
0.8 0.033333333 0
0.83333333 0.033333333 0
0.86666667 0.033333333 0
0.9 0.033333333 0
0.93333333 0.033333333 0
0.96666667 0.033333333 0
1 0.033333333 0
0 0.066666667 0
0.033333333 0.066666667 0
0.066666667 0.066666667 0
0.1 0.066666667 0
0.13333333 0.066666667 0
0.16666667 0.066666667 0
0.2 0.066666667 0
0.23333333 0.066666667 0
0.26666667 0.066666667 0
0.3 0.066666667 0
0.33333333 0.066666667 0
0.36666667 0.066666667 0
0.4 0.066666667 0
0.43333333 0.066666667 0
0.46666667 0.066666667 0
0.5 0.066666667 0
0.53333333 0.066666667 0
0.56666667 0.066666667 0
0.6 0.066666667 0
0.63333333 0.066666667 0
0.66666667 0.066666667 0
0.7 0.066666667 0
0.73333333 0.066666667 0
0.76666667 0.066666667 0
0.8 0.066666667 0
0.83333333 0.066666667 0
0.86666667 0.066666667 0
0.9 0.066666667 0
0.93333333 0.066666667 0
0.96666667 0.066666667 0
1 0.066666667 0
0 0.1 0
0.033333333 0.1 0
0.066666667 0.1 0
0.1 0.1 0
0.13333333 0.1 0
0.16666667 0.1 0
0.2 0.1 0
0.23333333 0.1 0
0.26666667 0.1 0
0.3 0.1 0
0.33333333 0.1 0
0.36666667 0.1 0
0.4 0.1 0
0.43333333 0.1 0
0.46666667 0.1 0
0.5 0.1 0
0.53333333 0.1 0
0.56666667 0.1 0
0.6 0.1 0
0.63333333 0.1 0
0.66666667 0.1 0
0.7 0.1 0
0.73333333 0.1 0
0.76666667 0.1 0
0.8 0.1 0
0.83333333 0.1 0
0.86666667 0.1 0
0.9 0.1 0
0.93333333 0.1 0
0.96666667 0.1 0
1 0.1 0
0 0.13333333 0
0.033333333 0.13333333 0
0.066666667 0.13333333 0
0.1 0.13333333 0
0.13333333 0.13333333 0
0.16666667 0.13333333 0
0.2 0.13333333 0
0.23333333 0.13333333 0
0.26666667 0.13333333 0
0.3 0.13333333 0
0.33333333 0.13333333 0
0.36666667 0.13333333 0
0.4 0.13333333 0
0.43333333 0.13333333 0
0.46666667 0.13333333 0
0.5 0.13333333 0
0.53333333 0.13333333 0
0.56666667 0.13333333 0
0.6 0.13333333 0
0.63333333 0.13333333 0
0.66666667 0.13333333 0
0.7 0.13333333 0
0.73333333 0.13333333 0
0.76666667 0.13333333 0
0.8 0.13333333 0
0.83333333 0.13333333 0
0.86666667 0.13333333 0
0.9 0.13333333 0
0.93333333 0.13333333 0
0.96666667 0.13333333 0
1 0.13333333 0
0 0.16666667 0
0.033333333 0.16666667 0
0.066666667 0.16666667 0
0.1 0.16666667 0
0.13333333 0.16666667 0
0.16666667 0.16666667 0
0.2 0.16666667 0
0.23333333 0.16666667 0
0.26666667 0.16666667 0
0.3 0.16666667 0
0.33333333 0.16666667 0
0.36666667 0.16666667 0
0.4 0.16666667 0
0.43333333 0.16666667 0
0.46666667 0.16666667 0
0.5 0.16666667 0
0.53333333 0.16666667 0
0.56666667 0.16666667 0
0.6 0.16666667 0
0.63333333 0.16666667 0
0.66666667 0.16666667 0
0.7 0.16666667 0
0.73333333 0.16666667 0
0.76666667 0.16666667 0
0.8 0.16666667 0
0.83333333 0.16666667 0
0.86666667 0.16666667 0
0.9 0.16666667 0
0.93333333 0.16666667 0
0.96666667 0.16666667 0
1 0.16666667 0
0 0.2 0
0.033333333 0.2 0
0.066666667 0.2 0
0.1 0.2 0
0.13333333 0.2 0
0.16666667 0.2 0
0.2 0.2 0
0.23333333 0.2 0
0.26666667 0.2 0
0.3 0.2 0
0.33333333 0.2 0
0.36666667 0.2 0
0.4 0.2 0
0.43333333 0.2 0
0.46666667 0.2 0
0.5 0.2 0
0.53333333 0.2 0
0.56666667 0.2 0
0.6 0.2 0
0.63333333 0.2 0
0.66666667 0.2 0
0.7 0.2 0
0.73333333 0.2 0
0.76666667 0.2 0
0.8 0.2 0
0.83333333 0.2 0
0.86666667 0.2 0
0.9 0.2 0
0.93333333 0.2 0
0.96666667 0.2 0
1 0.2 0
0 0.23333333 0
0.033333333 0.23333333 0
0.066666667 0.23333333 0
0.1 0.23333333 0
0.13333333 0.23333333 0
0.16666667 0.23333333 0
0.2 0.23333333 0
0.23333333 0.23333333 0
0.26666667 0.23333333 0
0.3 0.23333333 0
0.33333333 0.23333333 0
0.36666667 0.23333333 0
0.4 0.23333333 0
0.43333333 0.23333333 0
0.46666667 0.23333333 0
0.5 0.23333333 0
0.53333333 0.23333333 0
0.56666667 0.23333333 0
0.6 0.23333333 0
0.63333333 0.23333333 0
0.66666667 0.23333333 0
0.7 0.23333333 0
0.73333333 0.23333333 0
0.76666667 0.23333333 0
0.8 0.23333333 0
0.83333333 0.23333333 0
0.86666667 0.23333333 0
0.9 0.23333333 0
0.93333333 0.23333333 0
0.96666667 0.23333333 0
1 0.23333333 0
0 0.26666667 0
0.033333333 0.26666667 0
0.066666667 0.26666667 0
0.1 0.26666667 0
0.13333333 0.26666667 0
0.16666667 0.26666667 0
0.2 0.26666667 0
0.23333333 0.26666667 0
0.26666667 0.26666667 0
0.3 0.26666667 0
0.33333333 0.26666667 0
0.36666667 0.26666667 0
0.4 0.26666667 0
0.43333333 0.26666667 0
0.46666667 0.26666667 0
0.5 0.26666667 0
0.53333333 0.26666667 0
0.56666667 0.26666667 0
0.6 0.26666667 0
0.63333333 0.26666667 0
0.66666667 0.26666667 0
0.7 0.26666667 0
0.73333333 0.26666667 0
0.76666667 0.26666667 0
0.8 0.26666667 0
0.83333333 0.26666667 0
0.86666667 0.26666667 0
0.9 0.26666667 0
0.93333333 0.26666667 0
0.96666667 0.26666667 0
1 0.26666667 0
0 0.3 0
0.033333333 0.3 0
0.066666667 0.3 0
0.1 0.3 0
0.13333333 0.3 0
0.16666667 0.3 0
0.2 0.3 0
0.23333333 0.3 0
0.26666667 0.3 0
0.3 0.3 0
0.33333333 0.3 0
0.36666667 0.3 0
0.4 0.3 0
0.43333333 0.3 0
0.46666667 0.3 0
0.5 0.3 0
0.53333333 0.3 0
0.56666667 0.3 0
0.6 0.3 0
0.63333333 0.3 0
0.66666667 0.3 0
0.7 0.3 0
0.73333333 0.3 0
0.76666667 0.3 0
0.8 0.3 0
0.83333333 0.3 0
0.86666667 0.3 0
0.9 0.3 0
0.93333333 0.3 0
0.96666667 0.3 0
1 0.3 0
0 0.33333333 0
0.033333333 0.33333333 0
0.066666667 0.33333333 0
0.1 0.33333333 0
0.13333333 0.33333333 0
0.16666667 0.33333333 0
0.2 0.33333333 0
0.23333333 0.33333333 0
0.26666667 0.33333333 0
0.3 0.33333333 0
0.33333333 0.33333333 0
0.36666667 0.33333333 0
0.4 0.33333333 0
0.43333333 0.33333333 0
0.46666667 0.33333333 0
0.5 0.33333333 0
0.53333333 0.33333333 0
0.56666667 0.33333333 0
0.6 0.33333333 0
0.63333333 0.33333333 0
0.66666667 0.33333333 0
0.7 0.33333333 0
0.73333333 0.33333333 0
0.76666667 0.33333333 0
0.8 0.33333333 0
0.83333333 0.33333333 0
0.86666667 0.33333333 0
0.9 0.33333333 0
0.93333333 0.33333333 0
0.96666667 0.33333333 0
1 0.33333333 0
0 0.36666667 0
0.033333333 0.36666667 0
0.066666667 0.36666667 0
0.1 0.36666667 0
0.13333333 0.36666667 0
0.16666667 0.36666667 0
0.2 0.36666667 0
0.23333333 0.36666667 0
0.26666667 0.36666667 0
0.3 0.36666667 0
0.33333333 0.36666667 0
0.36666667 0.36666667 0
0.4 0.36666667 0
0.43333333 0.36666667 0
0.46666667 0.36666667 0
0.5 0.36666667 0
0.53333333 0.36666667 0
0.56666667 0.36666667 0
0.6 0.36666667 0
0.63333333 0.36666667 0
0.66666667 0.36666667 0
0.7 0.36666667 0
0.73333333 0.36666667 0
0.76666667 0.36666667 0
0.8 0.36666667 0
0.83333333 0.36666667 0
0.86666667 0.36666667 0
0.9 0.36666667 0
0.93333333 0.36666667 0
0.96666667 0.36666667 0
1 0.36666667 0
0 0.4 0
0.033333333 0.4 0
0.066666667 0.4 0
0.1 0.4 0
0.13333333 0.4 0
0.16666667 0.4 0
0.2 0.4 0
0.23333333 0.4 0
0.26666667 0.4 0
0.3 0.4 0
0.33333333 0.4 0
0.36666667 0.4 0
0.4 0.4 0
0.43333333 0.4 0
0.46666667 0.4 0
0.5 0.4 0
0.53333333 0.4 0
0.56666667 0.4 0
0.6 0.4 0
0.63333333 0.4 0
0.66666667 0.4 0
0.7 0.4 0
0.73333333 0.4 0
0.76666667 0.4 0
0.8 0.4 0
0.83333333 0.4 0
0.86666667 0.4 0
0.9 0.4 0
0.93333333 0.4 0
0.96666667 0.4 0
1 0.4 0
0 0.43333333 0
0.033333333 0.43333333 0
0.066666667 0.43333333 0
0.1 0.43333333 0
0.13333333 0.43333333 0
0.16666667 0.43333333 0
0.2 0.43333333 0
0.23333333 0.43333333 0
0.26666667 0.43333333 0
0.3 0.43333333 0
0.33333333 0.43333333 0
0.36666667 0.43333333 0
0.4 0.43333333 0
0.43333333 0.43333333 0
0.46666667 0.43333333 0
0.5 0.43333333 0
0.53333333 0.43333333 0
0.56666667 0.43333333 0
0.6 0.43333333 0
0.63333333 0.43333333 0
0.66666667 0.43333333 0
0.7 0.43333333 0
0.73333333 0.43333333 0
0.76666667 0.43333333 0
0.8 0.43333333 0
0.83333333 0.43333333 0
0.86666667 0.43333333 0
0.9 0.43333333 0
0.93333333 0.43333333 0
0.96666667 0.43333333 0
1 0.43333333 0
0 0.46666667 0
0.033333333 0.46666667 0
0.066666667 0.46666667 0
0.1 0.46666667 0
0.13333333 0.46666667 0
0.16666667 0.46666667 0
0.2 0.46666667 0
0.23333333 0.46666667 0
0.26666667 0.46666667 0
0.3 0.46666667 0
0.33333333 0.46666667 0
0.36666667 0.46666667 0
0.4 0.46666667 0
0.43333333 0.46666667 0
0.46666667 0.46666667 0
0.5 0.46666667 0
0.53333333 0.46666667 0
0.56666667 0.46666667 0
0.6 0.46666667 0
0.63333333 0.46666667 0
0.66666667 0.46666667 0
0.7 0.46666667 0
0.73333333 0.46666667 0
0.76666667 0.46666667 0
0.8 0.46666667 0
0.83333333 0.46666667 0
0.86666667 0.46666667 0
0.9 0.46666667 0
0.93333333 0.46666667 0
0.96666667 0.46666667 0
1 0.46666667 0
0 0.5 0
0.033333333 0.5 0
0.066666667 0.5 0
0.1 0.5 0
0.13333333 0.5 0
0.16666667 0.5 0
0.2 0.5 0
0.23333333 0.5 0
0.26666667 0.5 0
0.3 0.5 0
0.33333333 0.5 0
0.36666667 0.5 0
0.4 0.5 0
0.43333333 0.5 0
0.46666667 0.5 0
0.5 0.5 0
0.53333333 0.5 0
0.56666667 0.5 0
0.6 0.5 0
0.63333333 0.5 0
0.66666667 0.5 0
0.7 0.5 0
0.73333333 0.5 0
0.76666667 0.5 0
0.8 0.5 0
0.83333333 0.5 0
0.86666667 0.5 0
0.9 0.5 0
0.93333333 0.5 0
0.96666667 0.5 0
1 0.5 0
0 0.53333333 0
0.033333333 0.53333333 0
0.066666667 0.53333333 0
0.1 0.53333333 0
0.13333333 0.53333333 0
0.16666667 0.53333333 0
0.2 0.53333333 0
0.23333333 0.53333333 0
0.26666667 0.53333333 0
0.3 0.53333333 0
0.33333333 0.53333333 0
0.36666667 0.53333333 0
0.4 0.53333333 0
0.43333333 0.53333333 0
0.46666667 0.53333333 0
0.5 0.53333333 0
0.53333333 0.53333333 0
0.56666667 0.53333333 0
0.6 0.53333333 0
0.63333333 0.53333333 0
0.66666667 0.53333333 0
0.7 0.53333333 0
0.73333333 0.53333333 0
0.76666667 0.53333333 0
[...]
CELL_DATA 1920
Scalars  Label int 1
LOOKUP_TABLE FreeFempp_table
0
0
0
0
0
0
0
0
0
0
0
0
0
0
0
0
0
0
0
0
0
0
0
0
0
0
0
0
0
0
0
0
0
0
0
0
0
0
0
0
0
0
0
0
0
0
0
0
0
0
0
0
0
0
0
0
0
0
0
0
0
0
0
0
0
0
0
0
0
0
0
0
0
0
0
0
0
0
0
0
0
0
0
0
0
0
0
0
0
0
0
0
0
0
0
0
0
0
0
0
0
0
0
0
0
0
0
0
0
0
0
0
0
0
0
0
0
0
0
0
0
0
0
0
0
0
0
0
0
0
0
0
0
0
0
0
0
0
0
0
0
0
0
0
0
0
0
0
0
0
0
0
0
0
0
0
0
0
0
0
0
0
0
0
0
0
0
0
0
0
0
0
0
0
0
0
0
0
0
0
0
0
0
0
0
0
0
0
0
0
0
0
0
0
0
0
0
0
0
0
0
0
0
0
0
0
0
0
0
0
0
0
0
0
0
0
0
0
0
0
0
0
0
0
0
0
0
0
0
0
0
0
0
0
0
0
0
0
0
0
0
0
0
0
0
0
0
0
0
0
0
0
0
0
0
0
0
0
0
0
0
0
0
0
0
0
0
0
0
0
0
0
0
0
0
0
0
0
0
0
0
0
0
0
0
0
0
0
0
0
0
0
0
0
0
0
0
0
0
0
0
0
0
0
0
0
0
0
0
0
0
0
0
0
0
0
0
0
0
0
0
0
0
0
0
0
0
0
0
0
0
0
0
0
0
0
0
0
0
0
0
0
0
0
0
0
0
0
0
0
0
0
0
0
0
0
0
0
0
0
0
0
0
0
0
0
0
0
0
0
0
0
0
0
0
0
0
0
0
0
0
0
0
0
0
0
0
0
0
0
0
0
0
0
0
0
0
0
0
0
0
0
0
0
0
0
0
0
0
0
0
0
0
0
0
0
0
0
0
0
0
0
0
0
0
0
0
0
0
0
0
0
0
0
0
0
0
0
0
0
0
0
0
0
0
0
0
0
0
0
0
0
0
0
0
0
0
0
0
0
0
0
0
0
0
0
0
0
0
0
0
0
0
0
0
0
0
0
0
0
0
0
0
0
0
0
0
0
0
0
0
0
0
0
0
0
0
0
0
0
0
0
0
0
0
0
0
0
0
0
0
0
0
0
0
0
0
0
0
0
0
0
0
0
0
0
0
0
0
0
0
0
0
0
0
0
0
0
0
0
0
0
0
0
0
0
0
0
0
0
0
0
0
0
0
0
0
0
0
0
0
0
0
0
0
0
0
0
0
0
0
0
0
0
0
0
0
0
0
0
0
0
0
0
0
0
0
0
0
0
0
0
0
0
0
0
0
0
0
0
0
0
0
0
0
0
0
0
0
0
0
0
0
0
0
0
0
0
0
0
0
0
0
0
0
0
0
0
0
0
0
0
0
0
0
0
0
0
0
0
0
0
0
0
0
0
0
0
0
0
0
0
0
0
0
0
0
0
0
0
0
0
0
0
0
0
0
0
0
0
0
0
0
0
0
0
0
0
0
0
0
0
0
0
0
0
0
0
0
0
0
0
0
0
0
0
0
0
0
0
0
0
0
0
0
0
0
0
0
0
0
0
0
0
0
0
0
0
0
0
0
0
0
0
0
0
0
0
0
0
0
0
0
0
0
0
0
0
0
0
0
0
0
0
0
0
0
0
0
0
0
0
0
0
0
0
0
0
0
0
0
0
0
0
0
0
0
0
0
0
0
0
0
0
0
0
0
0
0
0
0
0
0
0
0
0
0
0
0
0
0
0
0
0
0
0
0
0
0
0
0
0
0
0
0
0
0
0
0
0
0
0
0
0
0
0
0
0
0
0
0
0
0
0
0
0
0
0
0
0
0
0
0
0
0
0
0
0
0
0
0
0
0
0
0
0
0
0
0
0
0
0
0
0
0
0
0
0
0
0
0
0
0
0
0
0
0
0
0
0
0
0
0
0
0
0
0
0
0
0
0
0
0
0
0
0
0
0
0
0
0
0
0
0
0
0
0
0
0
0
0
0
0
0
0
0
0
0
0
0
0
0
0
0
0
0
0
0
0
0
0
0
0
0
0
0
0
0
0
0
0
0
0
0
0
0
0
0
0
0
0
0
0
0
0
0
0
0
0
0
0
0
0
0
0
0
0
0
0
0
0
0
0
0
0
0
0
0
0
0
0
0
0
0
0
0
0
0
0
0
0
0
0
0
0
0
0
0
0
0
0
0
0
0
0
0
0
0
0
0
0
0
0
0
0
0
0
0
0
0
0
0
0
0
0
0
0
0
0
0
0
0
0
0
0
0
0
0
0
0
0
0
0
0
0
0
0
0
0
0
0
0
0
0
0
0
0
0
0
0
0
0
0
0
0
0
0
0
0
0
0
0
0
0
0
0
0
0
0
0
0
0
0
0
0
0
0
0
0
0
0
0
0
0
0
0
0
0
0
0
0
0
0
0
0
0
0
0
0
0
0
0
0
0
0
0
0
0
0
0
0
0
0
0
0
0
0
0
0
0
0
0
0
0
0
0
0
0
0
0
0
0
0
0
0
0
0
0
0
0
0
0
0
0
0
0
0
0
0
0
0
0
0
0
0
0
0
0
0
0
0
0
0
0
0
0
0
0
0
0
0
0
0
0
0
0
0
0
0
0
0
0
0
0
0
0
0
0
0
0
0
0
0
0
0
0
0
0
0
0
0
0
0
0
0
0
0
0
0
0
0
0
0
0
0
0
0
0
0
0
0
0
0
0
0
0
0
0
0
0
0
0
0
0
0
0
0
0
0
0
0
0
0
0
0
0
0
0
0
0
0
0
0
0
0
0
0
0
0
0
0
0
0
0
0
0
0
0
0
0
0
0
0
0
0
0
0
0
0
0
0
0
0
0
0
0
0
0
0
0
0
0
0
0
0
0
0
0
0
0
0
0
0
0
0
0
0
0
0
0
0
0
0
0
0
0
0
0
0
0
0
0
0
0
0
0
0
0
0
0
0
0
0
0
0
0
0
0
0
0
0
0
0
0
0
0
0
0
0
0
0
0
0
0
0
0
0
0
0
0
0
0
0
0
0
0
0
0
0
0
0
0
0
0
0
0
0
0
0
0
0
0
0
0
0
0
0
0
0
0
0
0
0
0
0
0
0
0
0
0
0
0
0
0
0
0
0
0
0
0
0
0
0
0
0
0
0
0
0
0
0
0
0
0
0
0
0
0
0
0
0
0
0
0
0
0
0
0
0
0
0
0
0
0
0
0
0
0
0
0
0
0
0
0
0
0
0
0
0
0
0
0
0
0
0
0
0
0
0
0
0
0
0
0
0
0
0
0
0
0
0
0
0
0
0
0
0
0
0
0
0
0
0
0
0
0
0
0
0
0
0
0
0
0
0
0
0
0
0
0
0
0
0
0
0
0
0
0
0
0
0
0
0
0
0
0
0
0
0
0
0
0
0
0
0
0
0
0
0
0
0
0
0
0
0
0
0
0
0
0
0
0
0
0
0
0
0
0
0
0
0
0
0
0
0
0
0
0
0
0
0
0
0
0
0
0
0
0
0
0
0
0
0
0
0
0
0
0
0
0
0
0
0
0
0
0
0
0
0
0
0
0
0
0
0
0
0
0
0
0
0
0
0
0
0
0
0
0
0
0
0
0
0
0
0
0
0
0
0
0
0
0
0
0
0
0
0
0
0
0
0
0
0
0
0
0
0
0
0
0
0
0
0
0
0
0
0
0
0
0
0
0
0
0
0
0
0
0
0
0
0
0
0
0
0
0
0
0
0
0
0
0
0
0
0
0
0
0
0
0
0
0
0
0
0
0
0
0
0
0
0
0
0
0
0
0
0
0
0
0
0
0
0
0
0
0
0
0
0
0
0
0
0
0
0
0
0
0
0
0
0
0
0
0
0
0
0
0
0
0
0
0
0
0
0
0
0
0
0
0
0
0
0
0
0
0
0
0
0
0
0
0
0
0
0
0
0
0
0
0
0
0
0
0
0
0
0
0
0
0
0
0
0
0
0
0
0
0
0
0
0
0
0
0
0
0
0
0
0
0
1
1
1
1
1
1
1
1
1
1
1
1
1
1
1
1
1
1
1
1
1
1
1
1
1
1
1
1
1
1
2
2
2
2
2
2
2
2
2
2
2
2
2
2
2
2
2
2
2
2
2
2
2
2
2
2
2
2
2
2
3
3
3
3
3
3
3
3
3
3
3
3
3
3
3
3
3
3
3
3
3
3
3
3
3
3
3
3
3
3
4
4
4
4
4
4
4
4
4
4
4
4
4
4
4
4
4
4
4
4
4
4
4
4
4
4
4
4
4
4

LOOKUP_TABLE FreeFempp_table 5
1.00000000 0.00000000 0.00000000 1.00000000
1.00000000 1.00000000 0.00000000 1.00000000
1.00000000 0.00000000 1.00000000 1.00000000
0.00000000 1.00000000 0.00000000 1.00000000
0.00000000 1.00000000 1.00000000 1.00000000

POINT_DATA 961
FIELD FieldData 1
Density 1 961 float
4.64240521e-01 4.47845846e-01 4.80611652e-01 4.85833645e-01 4.85109001e-01 4.81753081e-01 4.61950272e-01 2.72370189e-01 8.19798838e-03 7.64314318e-03 3.28501649e-02 3.79969329e-01 4.70142037e-01 4.83633071e-01 5.06296456e-01 5.80843329e-01 7.15340018e-01 7.83397019e-01 7.10283816e-01 6.20305240e-01 6.87165678e-01 7.75818646e-01 7.72735476e-01 7.50411093e-01 7.31825054e-01 7.07344353e-01 6.95330143e-01 6.87368751e-01 6.78645670e-01 6.81555510e-01 6.26651227e-01 9.07384267e-04 3.69214118e-02 3.73365045e-01 4.09742266e-01 4.08452779e-01 4.05054599e-01 3.88878822e-01 2.56749928e-01 9.94898658e-03 4.96597076e-03 1.16982441e-02 2.65143931e-01 3.88602763e-01 3.99862617e-01 4.16946262e-01 5.07036388e-01 7.51000464e-01 8.85989010e-01 7.90877938e-01 5.69486141e-01 5.98698378e-01 8.01582158e-01 8.54114473e-01 8.22645307e-01 8.09686661e-01 7.98904419e-01 7.69808948e-01 7.51604676e-01 7.37833440e-01 7.31112123e-01 6.79651916e-01 6.63381070e-04 5.42879163e-04 7.26241036e-04 7.53630709e-04 7.84089265e-04 7.96890876e-04 7.77242240e-04 7.09785789e-04 7.40216754e-04 8.18898785e-04 6.99390424e-04 2.21973374e-01 3.90191495e-01 4.03648287e-01 4.16950613e-01 4.63997751e-01 7.04128802e-01 8.54397655e-01 3.89535844e-01 5.74242286e-02 5.69937341e-02 4.85128760e-02 3.61127518e-02 4.00429368e-02 8.53416324e-02 4.32440668e-01 6.53184950e-01 6.46034300e-01 6.35249853e-01 6.25839710e-01 6.30253077e-01 1.45531416e-01 9.14170523e-04 7.93533400e-04 7.19826901e-04 7.71180668e-04 7.89616490e-04 7.91153754e-04 7.38878618e-04 6.98784483e-04 8.17863038e-04 4.90654376e-04 4.92499268e-04 8.44265393e-04 8.11923295e-04 2.23515974e-03 3.62879753e-01 5.41874588e-01 9.15209413e-01 4.25433725e-01 1.21013718e-02 1.58959888e-02 8.28913413e-03 4.41699056e-03 2.90587754e-03 2.33910675e-03 1.94271025e-03 7.00861737e-02 4.57273483e-01 5.01531422e-01 4.99136239e-01 5.61474800e-01 4.45398778e-01 2.85876513e-01 2.49636784e-01 2.74593145e-01 3.18694592e-01 3.43247712e-01 3.66476923e-01 3.88916403e-01 4.05315876e-01 4.13449645e-01 3.93753707e-01 7.31653301e-04 8.60796834e-04 6.27199188e-04 5.80961874e-04 6.80463214e-04 8.02833529e-04 1.68835923e-01 9.78855610e-01 5.68974949e-02 1.91087294e-02 1.10806720e-02 6.31241128e-03 4.17554751e-03 2.81450432e-03 1.29554910e-03 1.16011547e-03 4.52164784e-02 3.90836924e-01 4.34661001e-01 5.16607404e-01 4.97894198e-01 3.57432336e-01 3.14649284e-01 3.23338211e-01 3.60866696e-01 3.85212749e-01 4.05842632e-01 4.25534338e-01 4.43580329e-01 4.57245201e-01 4.60440397e-01 4.54817444e-01 4.34541643e-01 3.91809136e-01 1.50455651e-03 7.96496402e-04 5.80739928e-04 6.40708546e-04 1.03071320e-03 9.91493165e-01 2.77422685e-02 3.26893702e-02 3.41399238e-02 5.46122566e-02 1.26350760e-01 1.78081080e-01 1.07718166e-03 9.56615026e-04 6.31646812e-02 3.90482783e-01 4.96520191e-01 5.66539526e-01 4.90411401e-01 4.71410811e-01 4.66806769e-01 4.80392069e-01 4.86677945e-01 4.95688409e-01 5.03785253e-01 5.12033522e-01 5.19352674e-01 5.22541225e-01 5.21707773e-01 5.23644924e-01 5.19626081e-01 5.04437447e-01 4.62738007e-01 3.81571263e-01 1.00463803e-03 7.43231038e-04 7.32117624e-04 9.61958766e-01 2.71153271e-01 2.76171982e-01 3.98851156e-01 3.39715332e-01 3.55323732e-01 2.12043911e-01 9.53928044e-04 1.01548934e-03 1.91193700e-01 4.82745379e-01 6.29799724e-01 6.22436106e-01 6.16504729e-01 6.05424941e-01 5.98574996e-01 5.89375079e-01 5.86523414e-01 5.84832132e-01 5.84233582e-01 5.84151030e-01 5.82909107e-01 5.80010235e-01 5.77368557e-01 5.76396883e-01 5.73255658e-01 5.66395283e-01 5.39985895e-01 4.85522956e-01 9.04709697e-02 8.33836501e-04 8.05568183e-04 9.19391274e-01 8.81517768e-01 9.17919219e-01 8.76316071e-01 6.98086858e-01 2.76380688e-01 9.00261290e-03 1.12636515e-03 2.06743181e-03 4.70175534e-01 6.71400607e-01 7.15532541e-01 7.10118651e-01 7.01197147e-01 6.87211454e-01 6.70419872e-01 6.58827126e-01 6.50670767e-01 6.44168973e-01 6.38727844e-01 6.33344471e-01 6.28139675e-01 6.23729885e-01 6.20458126e-01 6.19468629e-01 6.20640516e-01 6.19679689e-01 6.09978139e-01 5.67844033e-01 3.91093373e-01 6.12809206e-04 5.62642002e-04 4.98165101e-01 5.18261254e-01 3.11944902e-01 2.44060904e-01 5.86316407e-01 2.24601015e-01 1.43209810e-03 1.73266209e-03 4.75504488e-01 6.78054988e-01 7.49089658e-01 7.45449424e-01 7.40361154e-01 7.29069769e-01 7.13268518e-01 6.99520707e-01 6.89518631e-01 6.81149006e-01 6.73678398e-01 6.66610777e-01 6.60218418e-01 6.55080318e-01 6.51370704e-01 6.49827778e-01 6.51266456e-01 6.54711187e-01 6.58668220e-01 6.56995416e-01 6.21002436e-01 5.26001453e-01 7.76758359e-04 1.08428882e-03 4.79254127e-03 8.80032685e-03 9.25454684e-03 9.93968640e-03 9.86418784e-01 1.58487447e-03 1.55936356e-03 4.86791372e-01 6.39024317e-01 7.07522631e-01 7.12189436e-01 7.15487003e-01 7.14216948e-01 7.08348393e-01 7.01718926e-01 6.96498632e-01 6.91347420e-01 6.85633302e-01 6.79516733e-01 6.73601627e-01 6.68529153e-01 6.64687872e-01 6.62611544e-01 6.62851989e-01 6.65782273e-01 6.72601163e-01 6.83537781e-01 6.91902161e-01 6.83955908e-01 5.19511580e-01 1.55851233e-03 2.23625498e-03 3.84829915e-03 7.96491653e-03 4.14260081e-04 9.24439430e-01 1.35970034e-03 9.01483872e-04 2.75162458e-01 5.57250381e-01 5.65548778e-01 5.81351995e-01 6.01585865e-01 6.23835802e-01 6.43887877e-01 6.59530997e-01 6.70066833e-01 6.75259292e-01 6.75935686e-01 6.73729420e-01 6.70228899e-01 6.66525126e-01 6.63246274e-01 6.60900891e-01 6.59935832e-01 6.61076844e-01 6.66331053e-01 6.79024816e-01 7.02745855e-01 7.39836097e-01 7.88221240e-01 5.57175934e-01 9.61801875e-03 8.10916629e-03 9.64071788e-03 3.28576379e-02 7.31264874e-02 9.88014460e-01 9.44728497e-04 1.36763672e-03 4.62655395e-01 3.61402005e-01 3.67090911e-01 4.01529133e-01 4.55072671e-01 5.18030643e-01 5.74498177e-01 6.14243329e-01 6.37624025e-01 6.49133086e-01 6.53371453e-01 6.53759837e-01 6.52353168e-01 6.50235474e-01 6.48001134e-01 6.45998836e-01 6.44727051e-01 6.45533144e-01 6.51068330e-01 6.66209579e-01 6.98373258e-01 7.83009291e-01 8.96297336e-01 7.55849421e-01 2.64500201e-01 5.35332337e-02 2.27306802e-02 1.95677448e-02 9.76944566e-01 3.10451444e-03 2.05487362e-03 3.82879406e-01 1.98856592e-01 1.81925505e-01 2.13565111e-01 2.78836101e-01 3.73628020e-01 4.71707940e-01 5.45072079e-01 5.89590669e-01 6.13460124e-01 6.24865234e-01 6.29337013e-01 6.30105913e-01 6.28925145e-01 6.26723289e-01 6.23960793e-01 6.20973170e-01 6.18374288e-01 6.17287755e-01 6.19730532e-01 6.29432380e-01 6.65169537e-01 8.04165006e-01 9.23853457e-01 9.30099308e-01 4.24491227e-01 9.11625326e-02 2.70519942e-01 9.83765364e-01 2.07067211e-03 2.47924961e-03 3.18879724e-01 1.03543162e-01 8.31101760e-02 1.04895435e-01 1.64337128e-01 2.68836975e-01 3.89975458e-01 4.86142129e-01 5.46016634e-01 5.79230130e-01 5.96213579e-01 6.03755176e-01 6.05828166e-01 6.04724944e-01 6.01780951e-01 5.97735703e-01 5.92997193e-01 5.87926388e-01 5.83064020e-01 5.79250753e-01 5.77280402e-01 5.78503430e-01 5.95749855e-01 6.32791102e-01 6.74096167e-01 5.24360895e-01 3.96968156e-01 7.58590281e-01 9.79687095e-01 2.91088643e-03 1.33100175e-03 2.58536249e-01 5.59950918e-02 4.39170897e-02 5.80566190e-02 1.10448100e-01 2.18908116e-01 3.49327147e-01 4.52738136e-01 5.17260849e-01 5.53894460e-01 5.73461711e-01 5.82619190e-01 5.85244358e-01 5.83691537e-01 5.79469621e-01 5.73525131e-01 5.66389561e-01 5.58380365e-01 5.49901068e-01 5.41687846e-01 5.34491122e-01 5.27823329e-01 5.18599689e-01 4.95148242e-01 4.52380389e-01 4.22877997e-01 5.41303337e-01 8.81164610e-01 9.66843367e-01 3.23961722e-03 3.18790437e-03 1.90223038e-01 3.34454998e-02 2.84261722e-02 4.04470190e-02 9.52400267e-02 2.14559272e-01 3.47792625e-01 4.45432007e-01 5.04778385e-01 5.39066613e-01 5.58213592e-01 5.67729890e-01 5.70679545e-01 5.68926752e-01 5.63762009e-01 5.56145132e-01 5.46761870e-01 5.36096871e-01 5.24655938e-01 5.13276815e-01 5.03168404e-01 4.94975895e-01 4.87506866e-01 4.77185786e-01 4.64868903e-01 4.90022242e-01 6.86893940e-01 9.18931425e-01 9.41164970e-01 2.93557346e-03 2.85121589e-03 1.17632508e-01 2.15282943e-02 2.05396581e-02 3.43762152e-02 1.06555320e-01 2.46762738e-01 3.73587668e-01 4.55489844e-01 5.03647566e-01 5.32033086e-01 5.48785329e-01 5.57912648e-01 5.61353624e-01 5.60127676e-01 5.54969311e-01 5.46648324e-01 5.36066830e-01 5.24219871e-01 5.12161136e-01 5.01209497e-01 4.93422657e-01 4.90988135e-01 4.95419502e-01 5.09425282e-01 5.41709304e-01 6.23259008e-01 7.98410594e-01 9.31730866e-01 8.69283855e-01 3.43815493e-03 3.01333237e-03 6.11518659e-02 1.49444100e-02 1.57864802e-02 3.50601822e-02 1.44286737e-01 3.04025829e-01 4.11068559e-01 4.72228676e-01 5.07434487e-01 5.28905451e-01 5.42652190e-01 5.51240027e-01 5.55510640e-01 5.55609882e-01 5.51629126e-01 5.44021249e-01 5.33885598e-01 5.22999883e-01 5.13446629e-01 5.07396579e-01 5.07861435e-01 5.17900646e-01 5.40120542e-01 5.78380287e-01 6.41335428e-01 7.40602434e-01 8.54706407e-01 9.06585872e-01 2.52704859e-01 4.41788975e-03 3.68463993e-03 3.14560905e-02 1.15126343e-02 1.29290810e-02 4.37781513e-02 2.09463373e-01 3.68049383e-01 4.46936876e-01 4.87877071e-01 5.11342645e-01 5.26670694e-01 5.37892878e-01 5.46284616e-01 5.51755786e-01 5.53797126e-01 5.52078485e-01 5.46820641e-01 5.39201856e-01 5.31734407e-01 5.27842760e-01 5.30890584e-01 5.44645905e-01 5.70498586e-01 6.07991874e-01 6.58098519e-01 7.25563526e-01 8.02083135e-01 8.63011718e-01 7.64556885e-01 4.82324064e-02 6.22284133e-03 4.90239775e-03 1.79510526e-02 9.78604611e-03 1.16647026e-02 6.76747933e-02 2.92101860e-01 4.23612148e-01 4.74361956e-01 4.98507619e-01 5.12779713e-01 5.23640335e-01 5.33407390e-01 5.42221785e-01 5.49260795e-01 5.53620696e-01 5.54862440e-01 5.53278089e-01 5.50142467e-01 5.48293710e-01 5.52332222e-01 5.67170203e-01 5.96738040e-01 6.36904597e-01 6.80629671e-01 7.24693775e-01 7.72035718e-01 8.08234870e-01 7.86685526e-01 2.71954119e-01 2.21568011e-02 9.32584703e-03 7.51569122e-03 1.12064099e-02 8.69461242e-03 1.18208043e-02 1.20823160e-01 3.73159558e-01 4.64608878e-01 4.91615981e-01 5.02955437e-01 5.10798097e-01 5.19021451e-01 5.28408468e-01 5.38160563e-01 5.46966255e-01 5.53732216e-01 5.58041394e-01 5.60457587e-01 5.62692404e-01 5.67892015e-01 5.81011951e-01 6.08044088e-01 6.51916146e-01 7.00033605e-01 7.40697563e-01 7.67134428e-01 7.71396339e-01 7.24488854e-01 4.34904099e-01 5.18136173e-02 1.49578275e-02 1.24136331e-02 1.43728964e-02 7.35877734e-03 7.47273723e-03 1.35498289e-02 2.06466943e-01 4.37953323e-01 4.90973264e-01 4.99461144e-01 5.01594782e-01 5.05378485e-01 5.12387276e-01 5.22007227e-01 5.32732666e-01 5.43068349e-01 5.52005053e-01 5.59261024e-01 5.65609396e-01 5.73237121e-01 5.85648239e-01 6.06583536e-01 6.40087783e-01 6.90903008e-01 7.40879595e-01 7.78158784e-01 7.88223684e-01 7.20980525e-01 4.32780892e-01 7.02775121e-02 2.64002793e-02 1.64034292e-02 1.67921986e-02 3.74959707e-02 5.11496887e-03 5.91733353e-03 1.81665141e-02 3.03370684e-01 4.82587487e-01 5.04807711e-01 4.99439597e-01 4.95386362e-01 4.96937096e-01 5.03618300e-01 5.13610899e-01 5.24967551e-01 5.36316276e-01 5.47061443e-01 5.57332218e-01 5.68024695e-01 5.81017375e-01 5.99289894e-01 6.25934124e-01 6.63588405e-01 7.17203259e-01 7.67794430e-01 8.00857246e-01 8.02247047e-01 6.86506569e-01 2.34069839e-01 4.57161739e-02 2.63321139e-02 2.50120386e-02 3.55656333e-02 1.43681616e-01 3.89205944e-03 4.53208247e-03 2.96386443e-02 3.88671666e-01 5.09654164e-01 5.08095384e-01 4.92916167e-01 4.85331327e-01 4.86125469e-01 4.93021458e-01 5.03330588e-01 5.14984906e-01 5.26936650e-01 5.39085388e-01 5.52024305e-01 5.66820800e-01 5.85016787e-01 6.08897090e-01 6.41001344e-01 6.79672897e-01 7.25479424e-01 7.55500317e-01 7.88444519e-01 7.92602837e-01 6.96662128e-01 3.41755271e-01 7.60255009e-02 5.48384227e-02 7.51040801e-02 1.73674747e-01 3.66031826e-01 3.24018719e-03 3.64377443e-03 5.86938672e-02 4.55272526e-01 5.22224844e-01 5.01888156e-01 4.80983764e-01 4.72461760e-01 4.73748773e-01 4.81123626e-01 4.91548866e-01 5.03223062e-01 5.15522838e-01 5.28662443e-01 5.43385327e-01 5.60743153e-01 5.81909478e-01 6.07844651e-01 6.38284266e-01 6.70834601e-01 7.05321789e-01 7.37545907e-01 7.66422153e-01 7.74246275e-01 7.24864066e-01 5.52658558e-01 3.57824326e-01 3.59319746e-01 4.89123613e-01 6.09873176e-01 5.88000000e-01 2.84904707e-03 3.11604049e-03 1.25702888e-01 5.04443765e-01 5.20942032e-01 4.87022191e-01 4.65197831e-01 4.58230019e-01 4.60754305e-01 4.68340904e-01 4.78293419e-01 4.89481062e-01 5.01787603e-01 5.15573502e-01 5.31360030e-01 5.49674332e-01 5.70828855e-01 5.94464660e-01 6.19209349e-01 6.43730223e-01 6.68932915e-01 7.00820386e-01 7.41153717e-01 7.64992416e-01 7.61644244e-01 7.27481723e-01 7.01563716e-01 7.24114299e-01 7.61839807e-01 7.89682329e-01 6.99228883e-01 2.57427292e-03 2.76818778e-03 2.45981574e-01 5.35354733e-01 5.04823089e-01 4.66184795e-01 4.48534667e-01 4.44809616e-01 4.48260486e-01 4.54959512e-01 4.63272870e-01 4.73021060e-01 4.84665751e-01 4.98714656e-01 5.15355766e-01 5.34279108e-01 5.54628193e-01 5.75016975e-01 5.93831182e-01 6.10256851e-01 6.26060247e-01 6.47271633e-01 6.76691473e-01 7.03775108e-01 7.21678019e-01 7.29030192e-01 7.31764972e-01 7.40381241e-01 7.52126157e-01 7.66057134e-01 7.00749576e-01 2.31594197e-03 2.57007801e-03 3.92951101e-01 5.41298866e-01 4.77734476e-01 4.46303874e-01 4.35940146e-01 4.35005158e-01 4.37590092e-01 4.41486090e-01 4.46452171e-01 4.53184813e-01 4.62670386e-01 4.75710928e-01 4.92495626e-01 5.12256265e-01 5.33275843e-01 5.53436041e-01 5.70975542e-01 5.85058987e-01 5.96370518e-01 6.07779264e-01 6.22432292e-01 6.38392031e-01 6.51409149e-01 6.57665610e-01 6.56361639e-01 6.52975798e-01 6.57159090e-01 6.68483078e-01 6.52416468e-01 2.01277668e-03 2.29043537e-03 5.18801093e-01 5.29741824e-01 4.61420983e-01 4.39925641e-01 4.32721049e-01 4.29229915e-01 4.26514685e-01 4.24348295e-01 4.23524261e-01 4.25277054e-01 4.31001663e-01 4.41968173e-01 4.58926857e-01 4.81603324e-01 5.08336842e-01 5.36302507e-01 5.62391937e-01 5.84104478e-01 5.99822938e-01 6.08500838e-01 6.08742237e-01 5.99157274e-01 5.81196904e-01 5.59916437e-01 5.41103661e-01 5.29444277e-01 5.27077138e-01 5.41214287e-01 5.94771504e-01 3.71137005e-03 2.64564645e-03 7.07904577e-01 5.73115706e-01 5.40119410e-01 5.27265370e-01 5.17572820e-01 5.10821044e-01 5.05462825e-01 5.00943601e-01 4.97609943e-01 4.96284485e-01 4.97956008e-01 5.03514349e-01 5.13461590e-01 5.27599812e-01 5.44845879e-01 5.63386917e-01 5.81152260e-01 5.96286178e-01 6.07311070e-01 6.12753272e-01 6.10322356e-01 5.97553253e-01 5.75278223e-01 5.49947143e-01 5.30471563e-01 5.21843314e-01 5.21964133e-01 5.24786413e-01 5.61614156e-01 
