# vtk DataFile Version 2.0
results_case1_non_linear/4_density.vtk, Created by Freefem++ 
ASCII
DATASET UNSTRUCTURED_GRID
POINTS 961 float
0 0 0
0.033333333 0 0
0.066666667 0 0
0.1 0 0
0.13333333 0 0
0.16666667 0 0
0.2 0 0
0.23333333 0 0
0.26666667 0 0
0.3 0 0
0.33333333 0 0
0.36666667 0 0
0.4 0 0
0.43333333 0 0
0.46666667 0 0
0.5 0 0
0.53333333 0 0
0.56666667 0 0
0.6 0 0
0.63333333 0 0
0.66666667 0 0
0.7 0 0
0.73333333 0 0
0.76666667 0 0
0.8 0 0
0.83333333 0 0
0.86666667 0 0
0.9 0 0
0.93333333 0 0
0.96666667 0 0
1 0 0
0 0.033333333 0
0.033333333 0.033333333 0
0.066666667 0.033333333 0
0.1 0.033333333 0
0.13333333 0.033333333 0
0.16666667 0.033333333 0
0.2 0.033333333 0
0.23333333 0.033333333 0
0.26666667 0.033333333 0
0.3 0.033333333 0
0.33333333 0.033333333 0
0.36666667 0.033333333 0
0.4 0.033333333 0
0.43333333 0.033333333 0
0.46666667 0.033333333 0
0.5 0.033333333 0
0.53333333 0.033333333 0
0.56666667 0.033333333 0
0.6 0.033333333 0
0.63333333 0.033333333 0
0.66666667 0.033333333 0
0.7 0.033333333 0
0.73333333 0.033333333 0
0.76666667 0.033333333 0
0.8 0.033333333 0
0.83333333 0.033333333 0
0.86666667 0.033333333 0
0.9 0.033333333 0
0.93333333 0.033333333 0
0.96666667 0.033333333 0
1 0.033333333 0
0 0.066666667 0
0.033333333 0.066666667 0
0.066666667 0.066666667 0
0.1 0.066666667 0
0.13333333 0.066666667 0
0.16666667 0.066666667 0
0.2 0.066666667 0
0.23333333 0.066666667 0
0.26666667 0.066666667 0
0.3 0.066666667 0
0.33333333 0.066666667 0
0.36666667 0.066666667 0
0.4 0.066666667 0
0.43333333 0.066666667 0
0.46666667 0.066666667 0
0.5 0.066666667 0
0.53333333 0.066666667 0
0.56666667 0.066666667 0
0.6 0.066666667 0
0.63333333 0.066666667 0
0.66666667 0.066666667 0
0.7 0.066666667 0
0.73333333 0.066666667 0
0.76666667 0.066666667 0
0.8 0.066666667 0
0.83333333 0.066666667 0
0.86666667 0.066666667 0
0.9 0.066666667 0
0.93333333 0.066666667 0
0.96666667 0.066666667 0
1 0.066666667 0
0 0.1 0
0.033333333 0.1 0
0.066666667 0.1 0
0.1 0.1 0
0.13333333 0.1 0
0.16666667 0.1 0
0.2 0.1 0
0.23333333 0.1 0
0.26666667 0.1 0
0.3 0.1 0
0.33333333 0.1 0
0.36666667 0.1 0
0.4 0.1 0
0.43333333 0.1 0
0.46666667 0.1 0
0.5 0.1 0
0.53333333 0.1 0
0.56666667 0.1 0
0.6 0.1 0
0.63333333 0.1 0
0.66666667 0.1 0
0.7 0.1 0
0.73333333 0.1 0
0.76666667 0.1 0
0.8 0.1 0
0.83333333 0.1 0
0.86666667 0.1 0
0.9 0.1 0
0.93333333 0.1 0
0.96666667 0.1 0
1 0.1 0
0 0.13333333 0
0.033333333 0.13333333 0
0.066666667 0.13333333 0
0.1 0.13333333 0
0.13333333 0.13333333 0
0.16666667 0.13333333 0
0.2 0.13333333 0
0.23333333 0.13333333 0
0.26666667 0.13333333 0
0.3 0.13333333 0
0.33333333 0.13333333 0
0.36666667 0.13333333 0
0.4 0.13333333 0
0.43333333 0.13333333 0
0.46666667 0.13333333 0
0.5 0.13333333 0
0.53333333 0.13333333 0
0.56666667 0.13333333 0
0.6 0.13333333 0
0.63333333 0.13333333 0
0.66666667 0.13333333 0
0.7 0.13333333 0
0.73333333 0.13333333 0
0.76666667 0.13333333 0
0.8 0.13333333 0
0.83333333 0.13333333 0
0.86666667 0.13333333 0
0.9 0.13333333 0
0.93333333 0.13333333 0
0.96666667 0.13333333 0
1 0.13333333 0
0 0.16666667 0
0.033333333 0.16666667 0
0.066666667 0.16666667 0
0.1 0.16666667 0
0.13333333 0.16666667 0
0.16666667 0.16666667 0
0.2 0.16666667 0
0.23333333 0.16666667 0
0.26666667 0.16666667 0
0.3 0.16666667 0
0.33333333 0.16666667 0
0.36666667 0.16666667 0
0.4 0.16666667 0
0.43333333 0.16666667 0
0.46666667 0.16666667 0
0.5 0.16666667 0
0.53333333 0.16666667 0
0.56666667 0.16666667 0
0.6 0.16666667 0
0.63333333 0.16666667 0
0.66666667 0.16666667 0
0.7 0.16666667 0
0.73333333 0.16666667 0
0.76666667 0.16666667 0
0.8 0.16666667 0
0.83333333 0.16666667 0
0.86666667 0.16666667 0
0.9 0.16666667 0
0.93333333 0.16666667 0
0.96666667 0.16666667 0
1 0.16666667 0
0 0.2 0
0.033333333 0.2 0
0.066666667 0.2 0
0.1 0.2 0
0.13333333 0.2 0
0.16666667 0.2 0
0.2 0.2 0
0.23333333 0.2 0
0.26666667 0.2 0
0.3 0.2 0
0.33333333 0.2 0
0.36666667 0.2 0
0.4 0.2 0
0.43333333 0.2 0
0.46666667 0.2 0
0.5 0.2 0
0.53333333 0.2 0
0.56666667 0.2 0
0.6 0.2 0
0.63333333 0.2 0
0.66666667 0.2 0
0.7 0.2 0
0.73333333 0.2 0
0.76666667 0.2 0
0.8 0.2 0
0.83333333 0.2 0
0.86666667 0.2 0
0.9 0.2 0
0.93333333 0.2 0
0.96666667 0.2 0
1 0.2 0
0 0.23333333 0
0.033333333 0.23333333 0
0.066666667 0.23333333 0
0.1 0.23333333 0
0.13333333 0.23333333 0
0.16666667 0.23333333 0
0.2 0.23333333 0
0.23333333 0.23333333 0
0.26666667 0.23333333 0
0.3 0.23333333 0
0.33333333 0.23333333 0
0.36666667 0.23333333 0
0.4 0.23333333 0
0.43333333 0.23333333 0
0.46666667 0.23333333 0
0.5 0.23333333 0
0.53333333 0.23333333 0
0.56666667 0.23333333 0
0.6 0.23333333 0
0.63333333 0.23333333 0
0.66666667 0.23333333 0
0.7 0.23333333 0
0.73333333 0.23333333 0
0.76666667 0.23333333 0
0.8 0.23333333 0
0.83333333 0.23333333 0
0.86666667 0.23333333 0
0.9 0.23333333 0
0.93333333 0.23333333 0
0.96666667 0.23333333 0
1 0.23333333 0
0 0.26666667 0
0.033333333 0.26666667 0
0.066666667 0.26666667 0
0.1 0.26666667 0
0.13333333 0.26666667 0
0.16666667 0.26666667 0
0.2 0.26666667 0
0.23333333 0.26666667 0
0.26666667 0.26666667 0
0.3 0.26666667 0
0.33333333 0.26666667 0
0.36666667 0.26666667 0
0.4 0.26666667 0
0.43333333 0.26666667 0
0.46666667 0.26666667 0
0.5 0.26666667 0
0.53333333 0.26666667 0
0.56666667 0.26666667 0
0.6 0.26666667 0
0.63333333 0.26666667 0
0.66666667 0.26666667 0
0.7 0.26666667 0
0.73333333 0.26666667 0
0.76666667 0.26666667 0
0.8 0.26666667 0
0.83333333 0.26666667 0
0.86666667 0.26666667 0
0.9 0.26666667 0
0.93333333 0.26666667 0
0.96666667 0.26666667 0
1 0.26666667 0
0 0.3 0
0.033333333 0.3 0
0.066666667 0.3 0
0.1 0.3 0
0.13333333 0.3 0
0.16666667 0.3 0
0.2 0.3 0
0.23333333 0.3 0
0.26666667 0.3 0
0.3 0.3 0
0.33333333 0.3 0
0.36666667 0.3 0
0.4 0.3 0
0.43333333 0.3 0
0.46666667 0.3 0
0.5 0.3 0
0.53333333 0.3 0
0.56666667 0.3 0
0.6 0.3 0
0.63333333 0.3 0
0.66666667 0.3 0
0.7 0.3 0
0.73333333 0.3 0
0.76666667 0.3 0
0.8 0.3 0
0.83333333 0.3 0
0.86666667 0.3 0
0.9 0.3 0
0.93333333 0.3 0
0.96666667 0.3 0
1 0.3 0
0 0.33333333 0
0.033333333 0.33333333 0
0.066666667 0.33333333 0
0.1 0.33333333 0
0.13333333 0.33333333 0
0.16666667 0.33333333 0
0.2 0.33333333 0
0.23333333 0.33333333 0
0.26666667 0.33333333 0
0.3 0.33333333 0
0.33333333 0.33333333 0
0.36666667 0.33333333 0
0.4 0.33333333 0
0.43333333 0.33333333 0
0.46666667 0.33333333 0
0.5 0.33333333 0
0.53333333 0.33333333 0
0.56666667 0.33333333 0
0.6 0.33333333 0
0.63333333 0.33333333 0
0.66666667 0.33333333 0
0.7 0.33333333 0
0.73333333 0.33333333 0
0.76666667 0.33333333 0
0.8 0.33333333 0
0.83333333 0.33333333 0
0.86666667 0.33333333 0
0.9 0.33333333 0
0.93333333 0.33333333 0
0.96666667 0.33333333 0
1 0.33333333 0
0 0.36666667 0
0.033333333 0.36666667 0
0.066666667 0.36666667 0
0.1 0.36666667 0
0.13333333 0.36666667 0
0.16666667 0.36666667 0
0.2 0.36666667 0
0.23333333 0.36666667 0
0.26666667 0.36666667 0
0.3 0.36666667 0
0.33333333 0.36666667 0
0.36666667 0.36666667 0
0.4 0.36666667 0
0.43333333 0.36666667 0
0.46666667 0.36666667 0
0.5 0.36666667 0
0.53333333 0.36666667 0
0.56666667 0.36666667 0
0.6 0.36666667 0
0.63333333 0.36666667 0
0.66666667 0.36666667 0
0.7 0.36666667 0
0.73333333 0.36666667 0
0.76666667 0.36666667 0
0.8 0.36666667 0
0.83333333 0.36666667 0
0.86666667 0.36666667 0
0.9 0.36666667 0
0.93333333 0.36666667 0
0.96666667 0.36666667 0
1 0.36666667 0
0 0.4 0
0.033333333 0.4 0
0.066666667 0.4 0
0.1 0.4 0
0.13333333 0.4 0
0.16666667 0.4 0
0.2 0.4 0
0.23333333 0.4 0
0.26666667 0.4 0
0.3 0.4 0
0.33333333 0.4 0
0.36666667 0.4 0
0.4 0.4 0
0.43333333 0.4 0
0.46666667 0.4 0
0.5 0.4 0
0.53333333 0.4 0
0.56666667 0.4 0
0.6 0.4 0
0.63333333 0.4 0
0.66666667 0.4 0
0.7 0.4 0
0.73333333 0.4 0
0.76666667 0.4 0
0.8 0.4 0
0.83333333 0.4 0
0.86666667 0.4 0
0.9 0.4 0
0.93333333 0.4 0
0.96666667 0.4 0
1 0.4 0
0 0.43333333 0
0.033333333 0.43333333 0
0.066666667 0.43333333 0
0.1 0.43333333 0
0.13333333 0.43333333 0
0.16666667 0.43333333 0
0.2 0.43333333 0
0.23333333 0.43333333 0
0.26666667 0.43333333 0
0.3 0.43333333 0
0.33333333 0.43333333 0
0.36666667 0.43333333 0
0.4 0.43333333 0
0.43333333 0.43333333 0
0.46666667 0.43333333 0
0.5 0.43333333 0
0.53333333 0.43333333 0
0.56666667 0.43333333 0
0.6 0.43333333 0
0.63333333 0.43333333 0
0.66666667 0.43333333 0
0.7 0.43333333 0
0.73333333 0.43333333 0
0.76666667 0.43333333 0
0.8 0.43333333 0
0.83333333 0.43333333 0
0.86666667 0.43333333 0
0.9 0.43333333 0
0.93333333 0.43333333 0
0.96666667 0.43333333 0
1 0.43333333 0
0 0.46666667 0
0.033333333 0.46666667 0
0.066666667 0.46666667 0
0.1 0.46666667 0
0.13333333 0.46666667 0
0.16666667 0.46666667 0
0.2 0.46666667 0
0.23333333 0.46666667 0
0.26666667 0.46666667 0
0.3 0.46666667 0
0.33333333 0.46666667 0
0.36666667 0.46666667 0
0.4 0.46666667 0
0.43333333 0.46666667 0
0.46666667 0.46666667 0
0.5 0.46666667 0
0.53333333 0.46666667 0
0.56666667 0.46666667 0
0.6 0.46666667 0
0.63333333 0.46666667 0
0.66666667 0.46666667 0
0.7 0.46666667 0
0.73333333 0.46666667 0
0.76666667 0.46666667 0
0.8 0.46666667 0
0.83333333 0.46666667 0
0.86666667 0.46666667 0
0.9 0.46666667 0
0.93333333 0.46666667 0
0.96666667 0.46666667 0
1 0.46666667 0
0 0.5 0
0.033333333 0.5 0
0.066666667 0.5 0
0.1 0.5 0
0.13333333 0.5 0
0.16666667 0.5 0
0.2 0.5 0
0.23333333 0.5 0
0.26666667 0.5 0
0.3 0.5 0
0.33333333 0.5 0
0.36666667 0.5 0
0.4 0.5 0
0.43333333 0.5 0
0.46666667 0.5 0
0.5 0.5 0
0.53333333 0.5 0
0.56666667 0.5 0
0.6 0.5 0
0.63333333 0.5 0
0.66666667 0.5 0
0.7 0.5 0
0.73333333 0.5 0
0.76666667 0.5 0
0.8 0.5 0
0.83333333 0.5 0
0.86666667 0.5 0
0.9 0.5 0
0.93333333 0.5 0
0.96666667 0.5 0
1 0.5 0
0 0.53333333 0
0.033333333 0.53333333 0
0.066666667 0.53333333 0
0.1 0.53333333 0
0.13333333 0.53333333 0
0.16666667 0.53333333 0
0.2 0.53333333 0
0.23333333 0.53333333 0
0.26666667 0.53333333 0
0.3 0.53333333 0
0.33333333 0.53333333 0
0.36666667 0.53333333 0
0.4 0.53333333 0
0.43333333 0.53333333 0
0.46666667 0.53333333 0
0.5 0.53333333 0
0.53333333 0.53333333 0
0.56666667 0.53333333 0
0.6 0.53333333 0
0.63333333 0.53333333 0
0.66666667 0.53333333 0
0.7 0.53333333 0
0.73333333 0.53333333 0
0.76666667 0.53333333 0
[...]
CELL_DATA 1920
Scalars  Label int 1
LOOKUP_TABLE FreeFempp_table
0
0
0
0
0
0
0
0
0
0
0
0
0
0
0
0
0
0
0
0
0
0
0
0
0
0
0
0
0
0
0
0
0
0
0
0
0
0
0
0
0
0
0
0
0
0
0
0
0
0
0
0
0
0
0
0
0
0
0
0
0
0
0
0
0
0
0
0
0
0
0
0
0
0
0
0
0
0
0
0
0
0
0
0
0
0
0
0
0
0
0
0
0
0
0
0
0
0
0
0
0
0
0
0
0
0
0
0
0
0
0
0
0
0
0
0
0
0
0
0
0
0
0
0
0
0
0
0
0
0
0
0
0
0
0
0
0
0
0
0
0
0
0
0
0
0
0
0
0
0
0
0
0
0
0
0
0
0
0
0
0
0
0
0
0
0
0
0
0
0
0
0
0
0
0
0
0
0
0
0
0
0
0
0
0
0
0
0
0
0
0
0
0
0
0
0
0
0
0
0
0
0
0
0
0
0
0
0
0
0
0
0
0
0
0
0
0
0
0
0
0
0
0
0
0
0
0
0
0
0
0
0
0
0
0
0
0
0
0
0
0
0
0
0
0
0
0
0
0
0
0
0
0
0
0
0
0
0
0
0
0
0
0
0
0
0
0
0
0
0
0
0
0
0
0
0
0
0
0
0
0
0
0
0
0
0
0
0
0
0
0
0
0
0
0
0
0
0
0
0
0
0
0
0
0
0
0
0
0
0
0
0
0
0
0
0
0
0
0
0
0
0
0
0
0
0
0
0
0
0
0
0
0
0
0
0
0
0
0
0
0
0
0
0
0
0
0
0
0
0
0
0
0
0
0
0
0
0
0
0
0
0
0
0
0
0
0
0
0
0
0
0
0
0
0
0
0
0
0
0
0
0
0
0
0
0
0
0
0
0
0
0
0
0
0
0
0
0
0
0
0
0
0
0
0
0
0
0
0
0
0
0
0
0
0
0
0
0
0
0
0
0
0
0
0
0
0
0
0
0
0
0
0
0
0
0
0
0
0
0
0
0
0
0
0
0
0
0
0
0
0
0
0
0
0
0
0
0
0
0
0
0
0
0
0
0
0
0
0
0
0
0
0
0
0
0
0
0
0
0
0
0
0
0
0
0
0
0
0
0
0
0
0
0
0
0
0
0
0
0
0
0
0
0
0
0
0
0
0
0
0
0
0
0
0
0
0
0
0
0
0
0
0
0
0
0
0
0
0
0
0
0
0
0
0
0
0
0
0
0
0
0
0
0
0
0
0
0
0
0
0
0
0
0
0
0
0
0
0
0
0
0
0
0
0
0
0
0
0
0
0
0
0
0
0
0
0
0
0
0
0
0
0
0
0
0
0
0
0
0
0
0
0
0
0
0
0
0
0
0
0
0
0
0
0
0
0
0
0
0
0
0
0
0
0
0
0
0
0
0
0
0
0
0
0
0
0
0
0
0
0
0
0
0
0
0
0
0
0
0
0
0
0
0
0
0
0
0
0
0
0
0
0
0
0
0
0
0
0
0
0
0
0
0
0
0
0
0
0
0
0
0
0
0
0
0
0
0
0
0
0
0
0
0
0
0
0
0
0
0
0
0
0
0
0
0
0
0
0
0
0
0
0
0
0
0
0
0
0
0
0
0
0
0
0
0
0
0
0
0
0
0
0
0
0
0
0
0
0
0
0
0
0
0
0
0
0
0
0
0
0
0
0
0
0
0
0
0
0
0
0
0
0
0
0
0
0
0
0
0
0
0
0
0
0
0
0
0
0
0
0
0
0
0
0
0
0
0
0
0
0
0
0
0
0
0
0
0
0
0
0
0
0
0
0
0
0
0
0
0
0
0
0
0
0
0
0
0
0
0
0
0
0
0
0
0
0
0
0
0
0
0
0
0
0
0
0
0
0
0
0
0
0
0
0
0
0
0
0
0
0
0
0
0
0
0
0
0
0
0
0
0
0
0
0
0
0
0
0
0
0
0
0
0
0
0
0
0
0
0
0
0
0
0
0
0
0
0
0
0
0
0
0
0
0
0
0
0
0
0
0
0
0
0
0
0
0
0
0
0
0
0
0
0
0
0
0
0
0
0
0
0
0
0
0
0
0
0
0
0
0
0
0
0
0
0
0
0
0
0
0
0
0
0
0
0
0
0
0
0
0
0
0
0
0
0
0
0
0
0
0
0
0
0
0
0
0
0
0
0
0
0
0
0
0
0
0
0
0
0
0
0
0
0
0
0
0
0
0
0
0
0
0
0
0
0
0
0
0
0
0
0
0
0
0
0
0
0
0
0
0
0
0
0
0
0
0
0
0
0
0
0
0
0
0
0
0
0
0
0
0
0
0
0
0
0
0
0
0
0
0
0
0
0
0
0
0
0
0
0
0
0
0
0
0
0
0
0
0
0
0
0
0
0
0
0
0
0
0
0
0
0
0
0
0
0
0
0
0
0
0
0
0
0
0
0
0
0
0
0
0
0
0
0
0
0
0
0
0
0
0
0
0
0
0
0
0
0
0
0
0
0
0
0
0
0
0
0
0
0
0
0
0
0
0
0
0
0
0
0
0
0
0
0
0
0
0
0
0
0
0
0
0
0
0
0
0
0
0
0
0
0
0
0
0
0
0
0
0
0
0
0
0
0
0
0
0
0
0
0
0
0
0
0
0
0
0
0
0
0
0
0
0
0
0
0
0
0
0
0
0
0
0
0
0
0
0
0
0
0
0
0
0
0
0
0
0
0
0
0
0
0
0
0
0
0
0
0
0
0
0
0
0
0
0
0
0
0
0
0
0
0
0
0
0
0
0
0
0
0
0
0
0
0
0
0
0
0
0
0
0
0
0
0
0
0
0
0
0
0
0
0
0
0
0
0
0
0
0
0
0
0
0
0
0
0
0
0
0
0
0
0
0
0
0
0
0
0
0
0
0
0
0
0
0
0
0
0
0
0
0
0
0
0
0
0
0
0
0
0
0
0
0
0
0
0
0
0
0
0
0
0
0
0
0
0
0
0
0
0
0
0
0
0
0
0
0
0
0
0
0
0
0
0
0
0
0
0
0
0
0
0
0
0
0
0
0
0
0
0
0
0
0
0
0
0
0
0
0
0
0
0
0
0
0
0
0
0
0
0
0
0
0
0
0
0
0
0
0
0
0
0
0
0
0
0
0
0
0
0
0
0
0
0
0
0
0
0
0
0
0
0
0
0
0
0
0
0
0
0
0
0
0
0
0
0
0
0
0
0
0
0
0
0
0
0
0
0
0
0
0
0
0
0
0
0
0
0
0
0
0
0
0
0
0
0
0
0
0
0
0
0
0
0
0
0
0
0
0
0
0
0
0
0
0
0
0
0
0
0
0
0
0
0
0
0
0
0
0
0
0
0
0
0
0
0
0
0
0
0
0
0
0
0
0
0
0
0
0
0
0
0
0
0
0
0
0
0
0
0
0
0
0
0
0
0
0
0
0
0
0
0
0
0
0
0
0
0
0
0
0
0
0
0
0
0
0
0
0
0
0
0
0
0
0
0
0
0
0
0
0
0
0
0
0
0
0
0
0
0
0
0
0
0
0
0
0
0
0
0
0
0
0
0
0
0
0
0
0
0
0
0
0
0
0
0
0
0
0
0
0
0
0
0
0
0
0
0
0
0
0
0
0
0
0
0
0
0
0
0
0
0
0
0
0
0
0
0
0
0
0
0
0
0
0
0
0
0
0
0
0
0
0
0
0
0
0
0
0
0
0
0
0
0
0
0
0
0
0
0
0
0
0
0
0
0
0
0
0
0
0
0
0
0
0
0
0
0
0
0
0
0
0
0
0
0
0
0
0
0
0
0
0
0
0
0
0
0
0
0
0
0
0
0
0
0
0
0
0
0
0
0
0
0
0
0
0
0
0
0
0
0
0
0
0
0
0
0
0
0
0
0
0
0
0
0
0
0
0
0
0
0
0
0
0
0
0
0
0
0
0
0
0
0
0
0
0
0
0
0
0
0
0
0
0
0
0
0
0
0
0
0
0
0
0
0
0
0
0
0
0
0
0
0
0
0
0
0
0
0
0
0
0
0
0
0
0
0
0
0
0
0
0
0
0
0
0
0
0
0
1
1
1
1
1
1
1
1
1
1
1
1
1
1
1
1
1
1
1
1
1
1
1
1
1
1
1
1
1
1
2
2
2
2
2
2
2
2
2
2
2
2
2
2
2
2
2
2
2
2
2
2
2
2
2
2
2
2
2
2
3
3
3
3
3
3
3
3
3
3
3
3
3
3
3
3
3
3
3
3
3
3
3
3
3
3
3
3
3
3
4
4
4
4
4
4
4
4
4
4
4
4
4
4
4
4
4
4
4
4
4
4
4
4
4
4
4
4
4
4

LOOKUP_TABLE FreeFempp_table 5
1.00000000 0.00000000 0.00000000 1.00000000
1.00000000 1.00000000 0.00000000 1.00000000
1.00000000 0.00000000 1.00000000 1.00000000
0.00000000 1.00000000 0.00000000 1.00000000
0.00000000 1.00000000 1.00000000 1.00000000

POINT_DATA 961
FIELD FieldData 1
Density 1 961 float
5.02410948e-01 4.75874573e-01 4.90454346e-01 4.95315790e-01 4.96693611e-01 4.97398347e-01 4.97302830e-01 3.29366893e-01 4.17925650e-03 4.29899665e-03 2.12976616e-02 4.42399442e-01 4.93732750e-01 5.02296090e-01 5.24080455e-01 5.87314069e-01 7.02296317e-01 7.86970139e-01 7.56256759e-01 6.73100471e-01 6.90552354e-01 6.80760860e-01 6.13279223e-01 5.85661352e-01 5.94687283e-01 6.09828949e-01 6.23690486e-01 6.30605638e-01 6.32661819e-01 6.31011307e-01 6.24355912e-01 4.84553369e-04 2.62355417e-01 3.84683192e-01 3.94336164e-01 3.94582987e-01 3.94573808e-01 3.93089771e-01 3.23396772e-01 5.24246646e-03 2.78408988e-03 7.66294030e-03 3.32681477e-01 3.99685383e-01 4.02838737e-01 4.18077618e-01 4.93887991e-01 6.94405735e-01 8.73094499e-01 8.82407546e-01 7.59119034e-01 7.37007022e-01 7.67369628e-01 6.65762126e-01 5.81051707e-01 5.86503744e-01 6.00078940e-01 6.17886186e-01 6.29755735e-01 6.32979274e-01 6.29264355e-01 6.27810776e-01 3.37353762e-04 2.86173803e-04 4.27366875e-04 4.33700479e-04 4.49584157e-04 4.69459366e-04 4.83400800e-04 4.81498981e-04 4.59897798e-04 4.53947578e-04 3.91649577e-04 3.81576240e-01 4.18616802e-01 4.20231253e-01 4.19468880e-01 4.49916452e-01 6.26595795e-01 8.58596325e-01 8.31581652e-01 3.96694571e-01 4.04906332e-01 6.79691255e-01 6.63982153e-01 5.87845623e-01 5.92718542e-01 6.09990895e-01 6.03874505e-01 6.00964844e-01 5.98808527e-01 5.90126932e-01 6.12049401e-01 4.43946242e-01 4.01652098e-04 4.35676920e-04 4.22630517e-04 4.40724485e-04 4.58024908e-04 4.76702524e-04 4.82398173e-04 4.73611231e-04 4.68839804e-04 2.87219736e-04 2.83018511e-04 4.16645606e-04 3.80422513e-04 2.56865561e-01 4.02231842e-01 4.86544520e-01 8.33957076e-01 4.65594500e-01 1.21081173e-02 3.71802263e-02 7.77208507e-02 1.20737672e-01 3.44014943e-01 3.78326595e-01 5.63178301e-01 5.45934558e-01 5.46584487e-01 5.38542569e-01 5.29665530e-01 5.83818138e-01 4.53508586e-01 2.75754303e-01 2.23486871e-01 2.42764071e-01 2.66250283e-01 2.89202392e-01 3.13767344e-01 3.39248031e-01 3.63564342e-01 3.83303732e-01 3.77178341e-01 3.97936587e-04 4.30860993e-04 2.35927786e-04 2.60059838e-04 4.34829126e-04 4.21243632e-04 6.18647754e-01 9.69242573e-01 6.39219582e-03 1.13722207e-02 3.88419908e-03 3.84833151e-03 3.18031036e-03 3.21987970e-03 4.23276098e-03 1.20001407e-02 4.55815852e-01 4.70667452e-01 4.67380047e-01 5.50409973e-01 4.80138212e-01 3.21310043e-01 2.76107281e-01 2.79137462e-01 2.98838705e-01 3.20979327e-01 3.44114482e-01 3.66708696e-01 3.86848569e-01 4.03167874e-01 4.11216289e-01 4.09185976e-01 4.12696958e-01 4.06217724e-01 5.12562518e-04 4.09087545e-04 2.98383966e-04 3.16932856e-04 4.76959365e-04 9.97121453e-01 1.69080850e-02 5.17375628e-03 3.80723062e-03 2.76093022e-03 1.98408449e-03 1.32948358e-03 1.00823212e-03 5.08065522e-03 4.15948987e-01 4.31363970e-01 5.25021791e-01 5.46969056e-01 4.22825843e-01 4.11886960e-01 4.09108996e-01 4.15246516e-01 4.26310420e-01 4.38905239e-01 4.51102108e-01 4.61879998e-01 4.70933855e-01 4.77050245e-01 4.77518886e-01 4.77824211e-01 4.80671525e-01 4.80948120e-01 4.65531170e-01 4.29197550e-01 4.51052998e-04 3.51345458e-04 3.44095373e-04 9.96071875e-01 4.34153862e-02 9.74050816e-03 6.76889159e-03 4.71977191e-03 2.79482803e-03 8.06217082e-04 6.97845942e-04 4.93283244e-03 4.05927598e-01 5.10752082e-01 6.26872659e-01 5.78193307e-01 5.71467876e-01 5.66149175e-01 5.61282754e-01 5.58919132e-01 5.58544815e-01 5.59332192e-01 5.60586572e-01 5.61533153e-01 5.60881853e-01 5.57766557e-01 5.53752601e-01 5.49710035e-01 5.45318604e-01 5.41625738e-01 5.24337351e-01 5.00826716e-01 4.47463870e-01 3.75485048e-04 3.99704964e-04 9.76532280e-01 4.69148993e-01 6.13877118e-01 6.42212451e-01 5.16207755e-01 2.53467381e-01 7.16279726e-04 6.11337367e-04 9.70969535e-03 4.87067074e-01 6.85411155e-01 7.07468092e-01 6.94810867e-01 6.87821150e-01 6.79181695e-01 6.70719624e-01 6.62853003e-01 6.55927002e-01 6.49811625e-01 6.43859565e-01 6.37232065e-01 6.29907191e-01 6.22915268e-01 6.16367698e-01 6.10745192e-01 6.06127679e-01 5.98131120e-01 5.83569586e-01 5.58726847e-01 5.08804679e-01 4.27761639e-04 4.48919105e-04 9.65619862e-01 9.78832126e-01 9.49121773e-01 8.86299789e-01 6.12329185e-01 6.07653633e-02 5.85860922e-04 8.38879438e-04 4.56827641e-01 6.99715018e-01 7.57961094e-01 7.43181467e-01 7.39299834e-01 7.33662009e-01 7.27330804e-01 7.20029473e-01 7.12209404e-01 7.04244971e-01 6.96085155e-01 6.87608004e-01 6.79290056e-01 6.72047734e-01 6.66353822e-01 6.62867367e-01 6.62010849e-01 6.61982954e-01 6.61424279e-01 6.57156467e-01 6.44451559e-01 5.83632052e-01 4.84825054e-04 5.30526275e-04 6.27977729e-01 7.49989092e-01 7.03820944e-01 1.88041013e-02 9.94760931e-01 8.74811027e-04 8.56525730e-04 4.33612406e-01 6.65540934e-01 7.27199674e-01 7.18338966e-01 7.21074343e-01 7.24200785e-01 7.26500988e-01 7.26406336e-01 7.23890185e-01 7.19596446e-01 7.14007258e-01 7.07550526e-01 7.01023281e-01 6.95413888e-01 6.91524923e-01 6.90280914e-01 6.92281008e-01 6.97398067e-01 7.06329525e-01 7.20471740e-01 7.40601063e-01 7.54589975e-01 6.90711915e-01 5.63870650e-04 6.18169317e-04 1.39657885e-03 2.32127006e-03 3.67396022e-03 1.74339477e-03 8.43127142e-04 5.16454573e-04 3.48863229e-02 5.90851367e-01 6.07734799e-01 6.12089515e-01 6.25328660e-01 6.44199789e-01 6.64308786e-01 6.80971265e-01 6.92162931e-01 6.98219836e-01 7.00137556e-01 6.99040711e-01 6.96284890e-01 6.93250656e-01 6.91100419e-01 6.90887690e-01 6.93364859e-01 6.99123561e-01 7.09689319e-01 7.28085279e-01 7.60768116e-01 8.09971273e-01 8.53715837e-01 8.08950603e-01 8.97529069e-04 1.12669053e-03 1.51071639e-03 2.41676648e-03 4.39455407e-03 9.98323321e-01 5.27810073e-04 7.20763637e-04 4.95717973e-01 4.16937232e-01 4.21437323e-01 4.44141775e-01 4.82254863e-01 5.31073570e-01 5.80096662e-01 6.19077742e-01 6.45171642e-01 6.60323322e-01 6.67550623e-01 6.69748485e-01 6.69313550e-01 6.68019176e-01 6.67138875e-01 6.67508423e-01 6.69877946e-01 6.75695300e-01 6.87761426e-01 7.11985171e-01 7.55050957e-01 8.31654727e-01 9.09390450e-01 9.26094949e-01 3.71687919e-01 1.20240971e-01 4.61918116e-02 1.05158528e-02 9.77897286e-01 1.43465155e-03 9.68824897e-04 4.06164289e-01 2.36983642e-01 2.17497230e-01 2.35780492e-01 2.79532880e-01 3.51067334e-01 4.40868706e-01 5.20927668e-01 5.75864792e-01 6.08164549e-01 6.24833286e-01 6.31750941e-01 6.32955909e-01 6.30988419e-01 6.27383292e-01 6.23040497e-01 6.18660748e-01 6.15256369e-01 6.14540577e-01 6.19776666e-01 6.35475099e-01 6.66659892e-01 7.58543432e-01 8.76324415e-01 9.20703709e-01 8.72270644e-01 6.82712317e-01 1.57527551e-01 9.89198744e-01 1.46799954e-03 1.33780343e-03 3.38751972e-01 1.22918598e-01 9.16882828e-02 1.00335665e-01 1.33289963e-01 2.01923653e-01 3.13885003e-01 4.31081563e-01 5.14342248e-01 5.61912298e-01 5.85682333e-01 5.95385969e-01 5.96790552e-01 5.92984021e-01 5.85576832e-01 5.75459540e-01 5.63358247e-01 5.50287604e-01 5.37850618e-01 5.28415799e-01 5.24436533e-01 5.26277125e-01 5.38321376e-01 5.78455567e-01 6.42421424e-01 6.70418501e-01 6.16090000e-01 7.28120685e-01 9.89809155e-01 1.62218651e-03 1.47535128e-03 2.97669381e-01 6.24057166e-02 3.95983234e-02 4.36910763e-02 6.57194555e-02 1.23274244e-01 2.39064112e-01 3.77308130e-01 4.78118181e-01 5.33382952e-01 5.59390068e-01 5.69208205e-01 5.69692671e-01 5.63979805e-01 5.53461075e-01 5.38886309e-01 5.21047950e-01 5.01317859e-01 4.82096612e-01 4.66982514e-01 4.60054070e-01 4.63997155e-01 4.78947371e-01 5.03236353e-01 5.36234021e-01 5.93198955e-01 7.09542513e-01 9.11151171e-01 9.80541527e-01 1.81814202e-03 1.65166578e-03 2.81133801e-01 3.14847045e-02 2.00056452e-02 2.34758295e-02 4.11087461e-02 9.60345417e-02 2.18990505e-01 3.66990834e-01 4.70049381e-01 5.23241103e-01 5.46750426e-01 5.54806828e-01 5.54147899e-01 5.47450602e-01 5.35681129e-01 5.19335985e-01 4.99163002e-01 4.76739794e-01 4.55012321e-01 4.38488603e-01 4.32704180e-01 4.43274915e-01 4.73658502e-01 5.19297481e-01 5.75243413e-01 6.69501841e-01 8.29224110e-01 9.51064825e-01 9.42069829e-01 2.03535473e-03 1.86180242e-03 2.84374475e-01 1.54596996e-02 1.18268216e-02 1.57057513e-02 3.54683287e-02 1.02204561e-01 2.45458215e-01 3.91998023e-01 4.81562465e-01 5.24935484e-01 5.43471336e-01 5.49513817e-01 5.48447788e-01 5.42177796e-01 5.31226695e-01 5.15839934e-01 4.96627152e-01 4.75119650e-01 4.54384267e-01 4.39354420e-01 4.36554641e-01 4.53652889e-01 4.97063905e-01 5.66156805e-01 6.58918083e-01 7.82475114e-01 8.97705555e-01 9.50951636e-01 6.12074614e-01 2.24807207e-03 2.05995305e-03 3.00472468e-01 8.02334864e-03 8.06813594e-03 1.29869580e-02 4.26272266e-02 1.43583313e-01 3.09223861e-01 4.33966309e-01 4.99696285e-01 5.30631125e-01 5.44414699e-01 5.49479067e-01 5.49210668e-01 5.44689417e-01 5.36158025e-01 5.23801386e-01 5.08236468e-01 4.91051078e-01 4.75555688e-01 4.67387319e-01 4.74358022e-01 5.05404830e-01 5.67277670e-01 6.58310890e-01 7.65850246e-01 8.61010790e-01 9.08584952e-01 8.10899317e-01 2.81135086e-02 2.56592850e-03 2.23773345e-03 3.13944459e-01 4.73449146e-03 5.69263333e-03 1.38907386e-02 7.01565221e-02 2.29881272e-01 3.85871619e-01 4.72600758e-01 5.14457166e-01 5.35028338e-01 5.45825183e-01 5.51273525e-01 5.52818418e-01 5.50868392e-01 5.45668840e-01 5.37728667e-01 5.28157949e-01 5.19213140e-01 5.15181720e-01 5.23135722e-01 5.52300870e-01 6.10188246e-01 6.93494678e-01 7.82570004e-01 8.52781951e-01 8.84081423e-01 8.07577729e-01 9.88454670e-02 1.03885224e-02 3.65594076e-03 2.92463414e-03 2.84758687e-01 3.20320181e-03 3.92847834e-03 2.01539136e-02 1.42543182e-01 3.37514967e-01 4.46182311e-01 4.97359186e-01 5.21996558e-01 5.35957813e-01 5.45571566e-01 5.52305341e-01 5.56124926e-01 5.57024837e-01 5.55550456e-01 5.52970648e-01 5.51495016e-01 5.54760218e-01 5.68549693e-01 6.00892067e-01 6.59034789e-01 7.39496291e-01 8.17184389e-01 8.60673785e-01 8.51807773e-01 6.84019446e-01 8.53970721e-02 1.52825769e-02 6.20650919e-03 5.08355722e-03 5.39705344e-03 1.38787091e-01 2.57806131e-03 2.90909642e-03 4.06419821e-02 2.67514080e-01 4.19740677e-01 4.81324255e-01 5.08479834e-01 5.22676468e-01 5.33037901e-01 5.42511106e-01 5.50746739e-01 5.56794822e-01 5.60487926e-01 5.62835336e-01 5.66074073e-01 5.73765397e-01 5.90958357e-01 6.23977840e-01 6.78409159e-01 7.52703071e-01 8.29132020e-01 8.78364623e-01 8.68392348e-01 6.32984638e-01 6.89477399e-02 1.64498501e-02 9.31647513e-03 6.72517344e-03 7.23309955e-03 1.40485568e-02 2.41143294e-02 2.50423979e-03 2.48528831e-03 1.02561429e-01 3.82691175e-01 4.68940705e-01 4.97827709e-01 5.10054052e-01 5.17960846e-01 5.26339769e-01 5.35961688e-01 5.45462191e-01 5.53451478e-01 5.59747458e-01 5.65743804e-01 5.74435830e-01 5.90367794e-01 6.19202077e-01 6.66019499e-01 7.31239378e-01 8.04932058e-01 8.66766036e-01 8.96128833e-01 8.54653001e-01 4.42926884e-01 3.88171300e-02 1.55072762e-02 1.02717048e-02 1.10173337e-02 1.84706114e-02 8.52361619e-02 6.29402697e-03 2.91989651e-03 2.63676769e-03 2.12433830e-01 4.56041515e-01 4.97384787e-01 5.03565431e-01 5.05250990e-01 5.08830249e-01 5.15888810e-01 5.25586069e-01 5.36002100e-01 5.45616508e-01 5.54251730e-01 5.63398361e-01 5.76257229e-01 5.97578406e-01 6.32732332e-01 6.84985995e-01 7.50989914e-01 8.18218410e-01 8.69906247e-01 8.91640663e-01 8.50910783e-01 5.35724699e-01 8.17210972e-02 3.05315424e-02 2.79713813e-02 4.63119596e-02 1.32390752e-01 3.73690516e-01 2.78065726e-03 3.09784687e-03 3.75638995e-03 3.20887536e-01 5.01850843e-01 5.11568129e-01 5.01229823e-01 4.95104343e-01 4.95636463e-01 5.01799405e-01 5.11483848e-01 5.22504091e-01 5.33416510e-01 5.44027328e-01 5.55588543e-01 5.70861638e-01 5.93983710e-01 6.29500687e-01 6.79652929e-01 7.40503013e-01 8.00977707e-01 8.47851753e-01 8.69801402e-01 8.47055078e-01 7.00633168e-01 3.71647358e-01 2.59428233e-01 3.57681632e-01 5.17289698e-01 6.22985899e-01 5.98197579e-01 1.81471580e-03 2.23221956e-03 7.84834474e-03 4.23553616e-01 5.28201818e-01 5.11050522e-01 4.89958584e-01 4.79711384e-01 4.78925377e-01 4.84716266e-01 4.94271100e-01 5.05492389e-01 5.17237186e-01 5.29344857e-01 5.42622805e-01 5.58900774e-01 5.81045330e-01 6.12411380e-01 6.54975891e-01 7.06456721e-01 7.59235919e-01 8.03327680e-01 8.29534709e-01 8.27494502e-01 7.81264901e-01 7.01943755e-01 6.94539309e-01 7.61583388e-01 7.87022948e-01 7.88037658e-01 6.99248970e-01 1.49623316e-03 1.68868678e-03 2.73595471e-02 5.23152947e-01 5.33279419e-01 4.94625479e-01 4.70500529e-01 4.60670054e-01 4.60407585e-01 4.66068327e-01 4.74995673e-01 4.85663205e-01 4.97491181e-01 5.10507047e-01 5.25106430e-01 5.42026222e-01 5.62480628e-01 5.88167846e-01 6.20606005e-01 6.59559250e-01 7.01652288e-01 7.40888834e-01 7.70413578e-01 7.83523858e-01 7.76021183e-01 7.57264733e-01 7.54231393e-01 7.68666804e-01 7.72971690e-01 7.73526132e-01 7.06980586e-01 1.35209574e-03 1.46056979e-03 2.20208526e-01 5.69158494e-01 5.13091207e-01 4.67688680e-01 4.48397428e-01 4.42101449e-01 4.42884624e-01 4.47674096e-01 4.54789281e-01 4.63678688e-01 4.74524319e-01 4.87743616e-01 5.03587782e-01 5.21954119e-01 5.42463839e-01 5.64778864e-01 5.88948488e-01 6.15363657e-01 6.44031286e-01 6.73508763e-01 7.00182140e-01 7.18463302e-01 7.23031819e-01 7.14317203e-01 7.02025831e-01 6.96076095e-01 6.96285963e-01 7.00300515e-01 6.72825456e-01 1.22037483e-03 1.34466682e-03 4.72439349e-01 5.35715818e-01 4.76998270e-01 4.44172084e-01 4.32535708e-01 4.28929776e-01 4.28940862e-01 4.30910945e-01 4.34428245e-01 4.39951003e-01 4.48426694e-01 4.60825056e-01 4.77675587e-01 4.98699397e-01 5.22633433e-01 5.47396064e-01 5.70731342e-01 5.91173708e-01 6.08673096e-01 6.24055922e-01 6.37178004e-01 6.45066500e-01 6.42637014e-01 6.27740026e-01 6.07068181e-01 5.93541980e-01 5.93894958e-01 6.02181733e-01 6.26564622e-01 1.08916627e-03 1.22027460e-03 5.65715075e-01 4.94191706e-01 4.53765631e-01 4.36384112e-01 4.27652895e-01 4.21459943e-01 4.16397452e-01 4.12380219e-01 4.10055518e-01 4.10651326e-01 4.15759951e-01 4.26999539e-01 4.45585579e-01 4.71824735e-01 5.04541993e-01 5.40631413e-01 5.75217903e-01 6.02784395e-01 6.18784130e-01 6.20723963e-01 6.08357728e-01 5.83624601e-01 5.51105618e-01 5.18413901e-01 4.93953228e-01 4.82245147e-01 4.82061505e-01 4.95774120e-01 5.81657231e-01 2.00764369e-03 1.41766574e-03 7.93150008e-01 5.59226274e-01 5.44225931e-01 5.34420133e-01 5.26005089e-01 5.18623769e-01 5.12137890e-01 5.06520033e-01 5.02202153e-01 5.00087380e-01 5.01376510e-01 5.07278323e-01 5.18635213e-01 5.35548806e-01 5.57107270e-01 5.81291616e-01 6.05102599e-01 6.24909341e-01 6.36957467e-01 6.37972414e-01 6.26008570e-01 6.01929188e-01 5.71225405e-01 5.43606460e-01 5.27591825e-01 5.24073839e-01 5.26990473e-01 5.29509366e-01 5.71114242e-01 
