# vtk DataFile Version 2.0
results_case1_non_linear/2_density.vtk, Created by Freefem++ 
ASCII
DATASET UNSTRUCTURED_GRID
POINTS 961 float
0 0 0
0.033333333 0 0
0.066666667 0 0
0.1 0 0
0.13333333 0 0
0.16666667 0 0
0.2 0 0
0.23333333 0 0
0.26666667 0 0
0.3 0 0
0.33333333 0 0
0.36666667 0 0
0.4 0 0
0.43333333 0 0
0.46666667 0 0
0.5 0 0
0.53333333 0 0
0.56666667 0 0
0.6 0 0
0.63333333 0 0
0.66666667 0 0
0.7 0 0
0.73333333 0 0
0.76666667 0 0
0.8 0 0
0.83333333 0 0
0.86666667 0 0
0.9 0 0
0.93333333 0 0
0.96666667 0 0
1 0 0
0 0.033333333 0
0.033333333 0.033333333 0
0.066666667 0.033333333 0
0.1 0.033333333 0
0.13333333 0.033333333 0
0.16666667 0.033333333 0
0.2 0.033333333 0
0.23333333 0.033333333 0
0.26666667 0.033333333 0
0.3 0.033333333 0
0.33333333 0.033333333 0
0.36666667 0.033333333 0
0.4 0.033333333 0
0.43333333 0.033333333 0
0.46666667 0.033333333 0
0.5 0.033333333 0
0.53333333 0.033333333 0
0.56666667 0.033333333 0
0.6 0.033333333 0
0.63333333 0.033333333 0
0.66666667 0.033333333 0
0.7 0.033333333 0
0.73333333 0.033333333 0
0.76666667 0.033333333 0
0.8 0.033333333 0
0.83333333 0.033333333 0
0.86666667 0.033333333 0
0.9 0.033333333 0
0.93333333 0.033333333 0
0.96666667 0.033333333 0
1 0.033333333 0
0 0.066666667 0
0.033333333 0.066666667 0
0.066666667 0.066666667 0
0.1 0.066666667 0
0.13333333 0.066666667 0
0.16666667 0.066666667 0
0.2 0.066666667 0
0.23333333 0.066666667 0
0.26666667 0.066666667 0
0.3 0.066666667 0
0.33333333 0.066666667 0
0.36666667 0.066666667 0
0.4 0.066666667 0
0.43333333 0.066666667 0
0.46666667 0.066666667 0
0.5 0.066666667 0
0.53333333 0.066666667 0
0.56666667 0.066666667 0
0.6 0.066666667 0
0.63333333 0.066666667 0
0.66666667 0.066666667 0
0.7 0.066666667 0
0.73333333 0.066666667 0
0.76666667 0.066666667 0
0.8 0.066666667 0
0.83333333 0.066666667 0
0.86666667 0.066666667 0
0.9 0.066666667 0
0.93333333 0.066666667 0
0.96666667 0.066666667 0
1 0.066666667 0
0 0.1 0
0.033333333 0.1 0
0.066666667 0.1 0
0.1 0.1 0
0.13333333 0.1 0
0.16666667 0.1 0
0.2 0.1 0
0.23333333 0.1 0
0.26666667 0.1 0
0.3 0.1 0
0.33333333 0.1 0
0.36666667 0.1 0
0.4 0.1 0
0.43333333 0.1 0
0.46666667 0.1 0
0.5 0.1 0
0.53333333 0.1 0
0.56666667 0.1 0
0.6 0.1 0
0.63333333 0.1 0
0.66666667 0.1 0
0.7 0.1 0
0.73333333 0.1 0
0.76666667 0.1 0
0.8 0.1 0
0.83333333 0.1 0
0.86666667 0.1 0
0.9 0.1 0
0.93333333 0.1 0
0.96666667 0.1 0
1 0.1 0
0 0.13333333 0
0.033333333 0.13333333 0
0.066666667 0.13333333 0
0.1 0.13333333 0
0.13333333 0.13333333 0
0.16666667 0.13333333 0
0.2 0.13333333 0
0.23333333 0.13333333 0
0.26666667 0.13333333 0
0.3 0.13333333 0
0.33333333 0.13333333 0
0.36666667 0.13333333 0
0.4 0.13333333 0
0.43333333 0.13333333 0
0.46666667 0.13333333 0
0.5 0.13333333 0
0.53333333 0.13333333 0
0.56666667 0.13333333 0
0.6 0.13333333 0
0.63333333 0.13333333 0
0.66666667 0.13333333 0
0.7 0.13333333 0
0.73333333 0.13333333 0
0.76666667 0.13333333 0
0.8 0.13333333 0
0.83333333 0.13333333 0
0.86666667 0.13333333 0
0.9 0.13333333 0
0.93333333 0.13333333 0
0.96666667 0.13333333 0
1 0.13333333 0
0 0.16666667 0
0.033333333 0.16666667 0
0.066666667 0.16666667 0
0.1 0.16666667 0
0.13333333 0.16666667 0
0.16666667 0.16666667 0
0.2 0.16666667 0
0.23333333 0.16666667 0
0.26666667 0.16666667 0
0.3 0.16666667 0
0.33333333 0.16666667 0
0.36666667 0.16666667 0
0.4 0.16666667 0
0.43333333 0.16666667 0
0.46666667 0.16666667 0
0.5 0.16666667 0
0.53333333 0.16666667 0
0.56666667 0.16666667 0
0.6 0.16666667 0
0.63333333 0.16666667 0
0.66666667 0.16666667 0
0.7 0.16666667 0
0.73333333 0.16666667 0
0.76666667 0.16666667 0
0.8 0.16666667 0
0.83333333 0.16666667 0
0.86666667 0.16666667 0
0.9 0.16666667 0
0.93333333 0.16666667 0
0.96666667 0.16666667 0
1 0.16666667 0
0 0.2 0
0.033333333 0.2 0
0.066666667 0.2 0
0.1 0.2 0
0.13333333 0.2 0
0.16666667 0.2 0
0.2 0.2 0
0.23333333 0.2 0
0.26666667 0.2 0
0.3 0.2 0
0.33333333 0.2 0
0.36666667 0.2 0
0.4 0.2 0
0.43333333 0.2 0
0.46666667 0.2 0
0.5 0.2 0
0.53333333 0.2 0
0.56666667 0.2 0
0.6 0.2 0
0.63333333 0.2 0
0.66666667 0.2 0
0.7 0.2 0
0.73333333 0.2 0
0.76666667 0.2 0
0.8 0.2 0
0.83333333 0.2 0
0.86666667 0.2 0
0.9 0.2 0
0.93333333 0.2 0
0.96666667 0.2 0
1 0.2 0
0 0.23333333 0
0.033333333 0.23333333 0
0.066666667 0.23333333 0
0.1 0.23333333 0
0.13333333 0.23333333 0
0.16666667 0.23333333 0
0.2 0.23333333 0
0.23333333 0.23333333 0
0.26666667 0.23333333 0
0.3 0.23333333 0
0.33333333 0.23333333 0
0.36666667 0.23333333 0
0.4 0.23333333 0
0.43333333 0.23333333 0
0.46666667 0.23333333 0
0.5 0.23333333 0
0.53333333 0.23333333 0
0.56666667 0.23333333 0
0.6 0.23333333 0
0.63333333 0.23333333 0
0.66666667 0.23333333 0
0.7 0.23333333 0
0.73333333 0.23333333 0
0.76666667 0.23333333 0
0.8 0.23333333 0
0.83333333 0.23333333 0
0.86666667 0.23333333 0
0.9 0.23333333 0
0.93333333 0.23333333 0
0.96666667 0.23333333 0
1 0.23333333 0
0 0.26666667 0
0.033333333 0.26666667 0
0.066666667 0.26666667 0
0.1 0.26666667 0
0.13333333 0.26666667 0
0.16666667 0.26666667 0
0.2 0.26666667 0
0.23333333 0.26666667 0
0.26666667 0.26666667 0
0.3 0.26666667 0
0.33333333 0.26666667 0
0.36666667 0.26666667 0
0.4 0.26666667 0
0.43333333 0.26666667 0
0.46666667 0.26666667 0
0.5 0.26666667 0
0.53333333 0.26666667 0
0.56666667 0.26666667 0
0.6 0.26666667 0
0.63333333 0.26666667 0
0.66666667 0.26666667 0
0.7 0.26666667 0
0.73333333 0.26666667 0
0.76666667 0.26666667 0
0.8 0.26666667 0
0.83333333 0.26666667 0
0.86666667 0.26666667 0
0.9 0.26666667 0
0.93333333 0.26666667 0
0.96666667 0.26666667 0
1 0.26666667 0
0 0.3 0
0.033333333 0.3 0
0.066666667 0.3 0
0.1 0.3 0
0.13333333 0.3 0
0.16666667 0.3 0
0.2 0.3 0
0.23333333 0.3 0
0.26666667 0.3 0
0.3 0.3 0
0.33333333 0.3 0
0.36666667 0.3 0
0.4 0.3 0
0.43333333 0.3 0
0.46666667 0.3 0
0.5 0.3 0
0.53333333 0.3 0
0.56666667 0.3 0
0.6 0.3 0
0.63333333 0.3 0
0.66666667 0.3 0
0.7 0.3 0
0.73333333 0.3 0
0.76666667 0.3 0
0.8 0.3 0
0.83333333 0.3 0
0.86666667 0.3 0
0.9 0.3 0
0.93333333 0.3 0
0.96666667 0.3 0
1 0.3 0
0 0.33333333 0
0.033333333 0.33333333 0
0.066666667 0.33333333 0
0.1 0.33333333 0
0.13333333 0.33333333 0
0.16666667 0.33333333 0
0.2 0.33333333 0
0.23333333 0.33333333 0
0.26666667 0.33333333 0
0.3 0.33333333 0
0.33333333 0.33333333 0
0.36666667 0.33333333 0
0.4 0.33333333 0
0.43333333 0.33333333 0
0.46666667 0.33333333 0
0.5 0.33333333 0
0.53333333 0.33333333 0
0.56666667 0.33333333 0
0.6 0.33333333 0
0.63333333 0.33333333 0
0.66666667 0.33333333 0
0.7 0.33333333 0
0.73333333 0.33333333 0
0.76666667 0.33333333 0
0.8 0.33333333 0
0.83333333 0.33333333 0
0.86666667 0.33333333 0
0.9 0.33333333 0
0.93333333 0.33333333 0
0.96666667 0.33333333 0
1 0.33333333 0
0 0.36666667 0
0.033333333 0.36666667 0
0.066666667 0.36666667 0
0.1 0.36666667 0
0.13333333 0.36666667 0
0.16666667 0.36666667 0
0.2 0.36666667 0
0.23333333 0.36666667 0
0.26666667 0.36666667 0
0.3 0.36666667 0
0.33333333 0.36666667 0
0.36666667 0.36666667 0
0.4 0.36666667 0
0.43333333 0.36666667 0
0.46666667 0.36666667 0
0.5 0.36666667 0
0.53333333 0.36666667 0
0.56666667 0.36666667 0
0.6 0.36666667 0
0.63333333 0.36666667 0
0.66666667 0.36666667 0
0.7 0.36666667 0
0.73333333 0.36666667 0
0.76666667 0.36666667 0
0.8 0.36666667 0
0.83333333 0.36666667 0
0.86666667 0.36666667 0
0.9 0.36666667 0
0.93333333 0.36666667 0
0.96666667 0.36666667 0
1 0.36666667 0
0 0.4 0
0.033333333 0.4 0
0.066666667 0.4 0
0.1 0.4 0
0.13333333 0.4 0
0.16666667 0.4 0
0.2 0.4 0
0.23333333 0.4 0
0.26666667 0.4 0
0.3 0.4 0
0.33333333 0.4 0
0.36666667 0.4 0
0.4 0.4 0
0.43333333 0.4 0
0.46666667 0.4 0
0.5 0.4 0
0.53333333 0.4 0
0.56666667 0.4 0
0.6 0.4 0
0.63333333 0.4 0
0.66666667 0.4 0
0.7 0.4 0
0.73333333 0.4 0
0.76666667 0.4 0
0.8 0.4 0
0.83333333 0.4 0
0.86666667 0.4 0
0.9 0.4 0
0.93333333 0.4 0
0.96666667 0.4 0
1 0.4 0
0 0.43333333 0
0.033333333 0.43333333 0
0.066666667 0.43333333 0
0.1 0.43333333 0
0.13333333 0.43333333 0
0.16666667 0.43333333 0
0.2 0.43333333 0
0.23333333 0.43333333 0
0.26666667 0.43333333 0
0.3 0.43333333 0
0.33333333 0.43333333 0
0.36666667 0.43333333 0
0.4 0.43333333 0
0.43333333 0.43333333 0
0.46666667 0.43333333 0
0.5 0.43333333 0
0.53333333 0.43333333 0
0.56666667 0.43333333 0
0.6 0.43333333 0
0.63333333 0.43333333 0
0.66666667 0.43333333 0
0.7 0.43333333 0
0.73333333 0.43333333 0
0.76666667 0.43333333 0
0.8 0.43333333 0
0.83333333 0.43333333 0
0.86666667 0.43333333 0
0.9 0.43333333 0
0.93333333 0.43333333 0
0.96666667 0.43333333 0
1 0.43333333 0
0 0.46666667 0
0.033333333 0.46666667 0
0.066666667 0.46666667 0
0.1 0.46666667 0
0.13333333 0.46666667 0
0.16666667 0.46666667 0
0.2 0.46666667 0
0.23333333 0.46666667 0
0.26666667 0.46666667 0
0.3 0.46666667 0
0.33333333 0.46666667 0
0.36666667 0.46666667 0
0.4 0.46666667 0
0.43333333 0.46666667 0
0.46666667 0.46666667 0
0.5 0.46666667 0
0.53333333 0.46666667 0
0.56666667 0.46666667 0
0.6 0.46666667 0
0.63333333 0.46666667 0
0.66666667 0.46666667 0
0.7 0.46666667 0
0.73333333 0.46666667 0
0.76666667 0.46666667 0
0.8 0.46666667 0
0.83333333 0.46666667 0
0.86666667 0.46666667 0
0.9 0.46666667 0
0.93333333 0.46666667 0
0.96666667 0.46666667 0
1 0.46666667 0
0 0.5 0
0.033333333 0.5 0
0.066666667 0.5 0
0.1 0.5 0
0.13333333 0.5 0
0.16666667 0.5 0
0.2 0.5 0
0.23333333 0.5 0
0.26666667 0.5 0
0.3 0.5 0
0.33333333 0.5 0
0.36666667 0.5 0
0.4 0.5 0
0.43333333 0.5 0
0.46666667 0.5 0
0.5 0.5 0
0.53333333 0.5 0
0.56666667 0.5 0
0.6 0.5 0
0.63333333 0.5 0
0.66666667 0.5 0
0.7 0.5 0
0.73333333 0.5 0
0.76666667 0.5 0
0.8 0.5 0
0.83333333 0.5 0
0.86666667 0.5 0
0.9 0.5 0
0.93333333 0.5 0
0.96666667 0.5 0
1 0.5 0
0 0.53333333 0
0.033333333 0.53333333 0
0.066666667 0.53333333 0
0.1 0.53333333 0
0.13333333 0.53333333 0
0.16666667 0.53333333 0
0.2 0.53333333 0
0.23333333 0.53333333 0
0.26666667 0.53333333 0
0.3 0.53333333 0
0.33333333 0.53333333 0
0.36666667 0.53333333 0
0.4 0.53333333 0
0.43333333 0.53333333 0
0.46666667 0.53333333 0
0.5 0.53333333 0
0.53333333 0.53333333 0
0.56666667 0.53333333 0
0.6 0.53333333 0
0.63333333 0.53333333 0
0.66666667 0.53333333 0
0.7 0.53333333 0
0.73333333 0.53333333 0
0.76666667 0.53333333 0
[...]
CELL_DATA 1920
Scalars  Label int 1
LOOKUP_TABLE FreeFempp_table
0
0
0
0
0
0
0
0
0
0
0
0
0
0
0
0
0
0
0
0
0
0
0
0
0
0
0
0
0
0
0
0
0
0
0
0
0
0
0
0
0
0
0
0
0
0
0
0
0
0
0
0
0
0
0
0
0
0
0
0
0
0
0
0
0
0
0
0
0
0
0
0
0
0
0
0
0
0
0
0
0
0
0
0
0
0
0
0
0
0
0
0
0
0
0
0
0
0
0
0
0
0
0
0
0
0
0
0
0
0
0
0
0
0
0
0
0
0
0
0
0
0
0
0
0
0
0
0
0
0
0
0
0
0
0
0
0
0
0
0
0
0
0
0
0
0
0
0
0
0
0
0
0
0
0
0
0
0
0
0
0
0
0
0
0
0
0
0
0
0
0
0
0
0
0
0
0
0
0
0
0
0
0
0
0
0
0
0
0
0
0
0
0
0
0
0
0
0
0
0
0
0
0
0
0
0
0
0
0
0
0
0
0
0
0
0
0
0
0
0
0
0
0
0
0
0
0
0
0
0
0
0
0
0
0
0
0
0
0
0
0
0
0
0
0
0
0
0
0
0
0
0
0
0
0
0
0
0
0
0
0
0
0
0
0
0
0
0
0
0
0
0
0
0
0
0
0
0
0
0
0
0
0
0
0
0
0
0
0
0
0
0
0
0
0
0
0
0
0
0
0
0
0
0
0
0
0
0
0
0
0
0
0
0
0
0
0
0
0
0
0
0
0
0
0
0
0
0
0
0
0
0
0
0
0
0
0
0
0
0
0
0
0
0
0
0
0
0
0
0
0
0
0
0
0
0
0
0
0
0
0
0
0
0
0
0
0
0
0
0
0
0
0
0
0
0
0
0
0
0
0
0
0
0
0
0
0
0
0
0
0
0
0
0
0
0
0
0
0
0
0
0
0
0
0
0
0
0
0
0
0
0
0
0
0
0
0
0
0
0
0
0
0
0
0
0
0
0
0
0
0
0
0
0
0
0
0
0
0
0
0
0
0
0
0
0
0
0
0
0
0
0
0
0
0
0
0
0
0
0
0
0
0
0
0
0
0
0
0
0
0
0
0
0
0
0
0
0
0
0
0
0
0
0
0
0
0
0
0
0
0
0
0
0
0
0
0
0
0
0
0
0
0
0
0
0
0
0
0
0
0
0
0
0
0
0
0
0
0
0
0
0
0
0
0
0
0
0
0
0
0
0
0
0
0
0
0
0
0
0
0
0
0
0
0
0
0
0
0
0
0
0
0
0
0
0
0
0
0
0
0
0
0
0
0
0
0
0
0
0
0
0
0
0
0
0
0
0
0
0
0
0
0
0
0
0
0
0
0
0
0
0
0
0
0
0
0
0
0
0
0
0
0
0
0
0
0
0
0
0
0
0
0
0
0
0
0
0
0
0
0
0
0
0
0
0
0
0
0
0
0
0
0
0
0
0
0
0
0
0
0
0
0
0
0
0
0
0
0
0
0
0
0
0
0
0
0
0
0
0
0
0
0
0
0
0
0
0
0
0
0
0
0
0
0
0
0
0
0
0
0
0
0
0
0
0
0
0
0
0
0
0
0
0
0
0
0
0
0
0
0
0
0
0
0
0
0
0
0
0
0
0
0
0
0
0
0
0
0
0
0
0
0
0
0
0
0
0
0
0
0
0
0
0
0
0
0
0
0
0
0
0
0
0
0
0
0
0
0
0
0
0
0
0
0
0
0
0
0
0
0
0
0
0
0
0
0
0
0
0
0
0
0
0
0
0
0
0
0
0
0
0
0
0
0
0
0
0
0
0
0
0
0
0
0
0
0
0
0
0
0
0
0
0
0
0
0
0
0
0
0
0
0
0
0
0
0
0
0
0
0
0
0
0
0
0
0
0
0
0
0
0
0
0
0
0
0
0
0
0
0
0
0
0
0
0
0
0
0
0
0
0
0
0
0
0
0
0
0
0
0
0
0
0
0
0
0
0
0
0
0
0
0
0
0
0
0
0
0
0
0
0
0
0
0
0
0
0
0
0
0
0
0
0
0
0
0
0
0
0
0
0
0
0
0
0
0
0
0
0
0
0
0
0
0
0
0
0
0
0
0
0
0
0
0
0
0
0
0
0
0
0
0
0
0
0
0
0
0
0
0
0
0
0
0
0
0
0
0
0
0
0
0
0
0
0
0
0
0
0
0
0
0
0
0
0
0
0
0
0
0
0
0
0
0
0
0
0
0
0
0
0
0
0
0
0
0
0
0
0
0
0
0
0
0
0
0
0
0
0
0
0
0
0
0
0
0
0
0
0
0
0
0
0
0
0
0
0
0
0
0
0
0
0
0
0
0
0
0
0
0
0
0
0
0
0
0
0
0
0
0
0
0
0
0
0
0
0
0
0
0
0
0
0
0
0
0
0
0
0
0
0
0
0
0
0
0
0
0
0
0
0
0
0
0
0
0
0
0
0
0
0
0
0
0
0
0
0
0
0
0
0
0
0
0
0
0
0
0
0
0
0
0
0
0
0
0
0
0
0
0
0
0
0
0
0
0
0
0
0
0
0
0
0
0
0
0
0
0
0
0
0
0
0
0
0
0
0
0
0
0
0
0
0
0
0
0
0
0
0
0
0
0
0
0
0
0
0
0
0
0
0
0
0
0
0
0
0
0
0
0
0
0
0
0
0
0
0
0
0
0
0
0
0
0
0
0
0
0
0
0
0
0
0
0
0
0
0
0
0
0
0
0
0
0
0
0
0
0
0
0
0
0
0
0
0
0
0
0
0
0
0
0
0
0
0
0
0
0
0
0
0
0
0
0
0
0
0
0
0
0
0
0
0
0
0
0
0
0
0
0
0
0
0
0
0
0
0
0
0
0
0
0
0
0
0
0
0
0
0
0
0
0
0
0
0
0
0
0
0
0
0
0
0
0
0
0
0
0
0
0
0
0
0
0
0
0
0
0
0
0
0
0
0
0
0
0
0
0
0
0
0
0
0
0
0
0
0
0
0
0
0
0
0
0
0
0
0
0
0
0
0
0
0
0
0
0
0
0
0
0
0
0
0
0
0
0
0
0
0
0
0
0
0
0
0
0
0
0
0
0
0
0
0
0
0
0
0
0
0
0
0
0
0
0
0
0
0
0
0
0
0
0
0
0
0
0
0
0
0
0
0
0
0
0
0
0
0
0
0
0
0
0
0
0
0
0
0
0
0
0
0
0
0
0
0
0
0
0
0
0
0
0
0
0
0
0
0
0
0
0
0
0
0
0
0
0
0
0
0
0
0
0
0
0
0
0
0
0
0
0
0
0
0
0
0
0
0
0
0
0
0
0
0
0
0
0
0
0
0
0
0
0
0
0
0
0
0
0
0
0
0
0
0
0
0
0
0
0
0
0
0
0
0
0
0
0
0
0
0
0
0
0
0
0
0
0
0
0
0
0
0
0
0
0
0
0
0
0
0
0
0
0
0
0
0
0
0
0
0
0
0
0
0
0
0
0
0
0
0
0
0
0
0
0
0
0
0
0
0
0
0
0
0
0
0
0
0
0
0
0
0
0
0
0
0
0
0
0
0
0
0
0
0
0
0
0
0
0
0
0
0
0
0
0
0
0
0
0
0
0
0
0
0
0
0
0
0
0
0
0
0
0
0
0
0
0
0
0
0
0
0
0
0
0
0
0
0
0
0
0
0
0
0
0
0
0
0
0
0
0
0
0
0
0
0
0
0
0
0
0
0
0
0
0
0
0
0
0
0
0
0
0
0
0
0
0
0
0
0
0
0
0
0
0
0
0
0
0
0
0
0
0
0
0
0
0
0
0
0
0
0
0
0
0
0
0
0
0
0
0
0
0
0
0
0
0
0
0
0
0
0
0
0
0
0
0
0
0
0
0
0
0
0
0
0
0
0
0
0
0
0
0
0
0
0
0
0
0
0
0
0
0
0
0
0
0
0
0
0
0
0
0
0
0
0
0
0
0
0
0
0
0
0
0
0
0
0
0
0
0
0
0
0
0
0
0
0
0
0
0
0
0
0
0
0
0
0
0
0
0
0
0
0
0
0
0
0
0
0
0
0
0
0
0
0
0
0
0
0
1
1
1
1
1
1
1
1
1
1
1
1
1
1
1
1
1
1
1
1
1
1
1
1
1
1
1
1
1
1
2
2
2
2
2
2
2
2
2
2
2
2
2
2
2
2
2
2
2
2
2
2
2
2
2
2
2
2
2
2
3
3
3
3
3
3
3
3
3
3
3
3
3
3
3
3
3
3
3
3
3
3
3
3
3
3
3
3
3
3
4
4
4
4
4
4
4
4
4
4
4
4
4
4
4
4
4
4
4
4
4
4
4
4
4
4
4
4
4
4

LOOKUP_TABLE FreeFempp_table 5
1.00000000 0.00000000 0.00000000 1.00000000
1.00000000 1.00000000 0.00000000 1.00000000
1.00000000 0.00000000 1.00000000 1.00000000
0.00000000 1.00000000 0.00000000 1.00000000
0.00000000 1.00000000 1.00000000 1.00000000

POINT_DATA 961
FIELD FieldData 1
Density 1 961 float
2.25193828e-01 2.62028515e-01 3.69156271e-01 3.98812860e-01 3.99226189e-01 3.88101429e-01 3.49238515e-01 2.24183500e-01 6.64330125e-02 3.21923085e-02 7.05132410e-02 2.40183458e-01 3.74056160e-01 4.20836508e-01 4.80897546e-01 6.07766390e-01 6.71230733e-01 6.00397050e-01 6.00070417e-01 6.67559505e-01 6.87976539e-01 6.77907646e-01 6.71060562e-01 6.64953828e-01 6.55506313e-01 6.44355893e-01 6.30944550e-01 6.17678583e-01 6.09968901e-01 6.00906789e-01 5.87712467e-01 4.05737124e-02 7.23984614e-02 2.32991412e-01 2.93685794e-01 2.98025578e-01 2.88832933e-01 2.61355042e-01 1.82398781e-01 6.05274662e-02 2.39940081e-02 4.05555218e-02 1.72116712e-01 3.41102034e-01 3.92558932e-01 4.43703949e-01 5.86522937e-01 6.50774419e-01 4.69995022e-01 4.05631512e-01 5.05723357e-01 5.75515330e-01 5.88719785e-01 6.03638589e-01 6.16345048e-01 6.20197415e-01 6.19249165e-01 6.15287364e-01 6.09149873e-01 6.04213417e-01 5.98714173e-01 5.89492381e-01 2.50291489e-02 7.28881219e-03 2.60421019e-02 4.00319397e-02 4.02512848e-02 3.92080024e-02 3.65918577e-02 2.87660956e-02 1.25072673e-02 5.98802930e-03 1.04941586e-02 5.22006191e-02 2.37585947e-01 3.05318862e-01 3.54567826e-01 4.95547235e-01 5.80029368e-01 2.44104594e-01 1.06508479e-01 1.00773312e-01 1.15532100e-01 1.46479264e-01 2.19018653e-01 2.93848246e-01 3.54124606e-01 4.14700001e-01 4.66841877e-01 5.01210570e-01 5.23196936e-01 5.36438763e-01 5.48294783e-01 2.15993866e-01 6.83485046e-02 3.25624533e-02 3.21548134e-02 3.71373259e-02 4.00360450e-02 4.11824621e-02 4.18155193e-02 4.22808193e-02 4.33297716e-02 2.88255438e-02 8.10908806e-03 3.08353771e-02 4.90566008e-02 8.12848061e-02 2.71029323e-01 4.90829349e-01 4.92478251e-01 1.67297497e-01 5.36688715e-02 2.98068710e-02 2.32440624e-02 3.06897387e-02 4.34285030e-02 6.49915859e-02 1.34821713e-01 2.69052595e-01 3.70045483e-01 4.20243025e-01 4.55980778e-01 4.87678707e-01 3.88278753e-01 2.85453886e-01 1.95510894e-01 2.03138188e-01 2.56764203e-01 2.89546072e-01 3.01992148e-01 3.09256703e-01 3.14091444e-01 3.08689296e-01 2.48138115e-01 7.65519440e-02 4.85913679e-02 3.08307316e-02 7.41193723e-03 3.32902670e-02 1.26685530e-01 5.62528014e-01 6.40156329e-01 2.45427579e-01 1.06217176e-01 6.74654320e-02 4.17732187e-02 2.03041844e-02 1.30928289e-02 2.20600404e-02 7.09102005e-02 2.16030374e-01 3.26488078e-01 3.82518798e-01 4.29404020e-01 4.13029999e-01 3.45673501e-01 2.68456727e-01 2.56036729e-01 3.15524161e-01 3.68533075e-01 3.89580101e-01 3.99212718e-01 4.06380117e-01 4.09556061e-01 3.99128139e-01 3.46772432e-01 3.17961842e-01 2.66036391e-01 8.02674219e-02 5.05843908e-02 3.72183770e-02 6.81528822e-02 1.83371857e-01 6.15826666e-01 5.23088872e-01 4.25267577e-01 3.24032843e-01 1.70855269e-01 7.89129883e-02 3.10076550e-02 1.66262258e-02 6.03202134e-02 2.06879750e-01 3.14113110e-01 3.70364428e-01 4.24144328e-01 3.71646821e-01 3.21127415e-01 3.04358125e-01 3.39304209e-01 3.85655224e-01 4.09156442e-01 4.19404715e-01 4.26089942e-01 4.30929154e-01 4.32387352e-01 4.29715842e-01 4.31783289e-01 4.27229583e-01 3.70625943e-01 3.32996428e-01 2.71875590e-01 8.32463428e-02 4.09281068e-02 1.37400895e-01 5.84661067e-01 6.96741164e-01 7.07315326e-01 6.56260610e-01 5.09931564e-01 2.59780288e-01 6.10445999e-02 1.76441520e-02 7.75010586e-02 2.49057978e-01 3.36203277e-01 4.55754280e-01 4.14866149e-01 3.85196209e-01 3.76247436e-01 3.93507272e-01 4.23757553e-01 4.43405598e-01 4.53120261e-01 4.59023088e-01 4.63054150e-01 4.65116918e-01 4.65311855e-01 4.65303481e-01 4.64283228e-01 4.59281415e-01 4.57421035e-01 4.45060164e-01 3.71857911e-01 2.63916433e-01 7.44809955e-02 9.05578807e-02 2.75080085e-01 4.50071871e-01 4.80681896e-01 5.54388463e-01 6.19349837e-01 3.45750839e-01 4.32576165e-02 2.65224706e-02 1.64357886e-01 3.18410397e-01 5.20739853e-01 4.95068848e-01 4.78433847e-01 4.73773181e-01 4.78777677e-01 4.90241170e-01 4.98334765e-01 5.02186596e-01 5.04055738e-01 5.04599035e-01 5.03793061e-01 5.01806140e-01 4.99250859e-01 4.96373385e-01 4.93244231e-01 4.90754068e-01 4.86691266e-01 4.76166457e-01 4.51123178e-01 3.27451766e-01 7.48616010e-02 3.32490541e-02 6.58525825e-02 1.04581662e-01 1.53840870e-01 3.63972455e-01 6.42761946e-01 1.75887406e-01 1.60375629e-02 6.80824295e-02 2.58696258e-01 5.97707152e-01 5.95299304e-01 5.88236451e-01 5.81987739e-01 5.75743318e-01 5.70036292e-01 5.64155996e-01 5.58617949e-01 5.53605556e-01 5.48666835e-01 5.43517411e-01 5.38224161e-01 5.33052802e-01 5.28150082e-01 5.23657918e-01 5.19795239e-01 5.16167879e-01 5.12279809e-01 5.06302357e-01 4.82729137e-01 3.50061268e-01 7.86624625e-02 1.80277396e-02 2.25548856e-02 4.96127382e-02 1.23757154e-01 4.61273015e-01 6.67494178e-01 8.29023197e-02 3.32613625e-02 1.51812956e-01 6.34709656e-01 6.52391791e-01 6.52044356e-01 6.44923389e-01 6.35125458e-01 6.23529613e-01 6.11609221e-01 6.00742221e-01 5.91079950e-01 5.82251310e-01 5.74049175e-01 5.66492260e-01 5.59672713e-01 5.53616583e-01 5.48371792e-01 5.44015884e-01 5.40513992e-01 5.38037062e-01 5.36738813e-01 5.35333276e-01 5.21392167e-01 3.95711184e-01 1.12542108e-01 4.25304770e-02 3.19848731e-02 5.75745143e-02 1.72340184e-01 6.62513912e-01 2.06185460e-01 1.43987658e-02 2.70969812e-02 6.00790143e-01 6.25922978e-01 6.33200884e-01 6.33368373e-01 6.31868958e-01 6.27102792e-01 6.19849801e-01 6.11532032e-01 6.02967620e-01 5.94531715e-01 5.86490631e-01 5.79083204e-01 5.72475791e-01 5.66731751e-01 5.61882019e-01 5.57945371e-01 5.54952502e-01 5.53180873e-01 5.53235173e-01 5.56140542e-01 5.64505696e-01 5.69399238e-01 4.76798892e-01 2.49993056e-01 1.00394644e-01 6.81482628e-02 8.21802914e-02 3.73015046e-01 6.47866964e-01 7.46608898e-02 1.32028144e-02 5.12767971e-01 5.22213042e-01 5.34106851e-01 5.48915505e-01 5.66686988e-01 5.80556273e-01 5.88006675e-01 5.90007901e-01 5.88345647e-01 5.84527135e-01 5.79675436e-01 5.74596107e-01 5.69813967e-01 5.65615058e-01 5.62119842e-01 5.59322417e-01 5.57157397e-01 5.55669188e-01 5.55167913e-01 5.56562245e-01 5.62596858e-01 5.77938199e-01 5.85814655e-01 5.14039040e-01 3.47143561e-01 2.16994837e-01 1.42741978e-01 3.32878739e-01 6.96030855e-01 1.14867806e-01 7.77936308e-03 4.24025774e-01 4.09247458e-01 4.16312695e-01 4.38946962e-01 4.71709162e-01 5.05789042e-01 5.32413721e-01 5.49082518e-01 5.57578325e-01 5.60549021e-01 5.60232878e-01 5.58261573e-01 5.55728614e-01 5.53299844e-01 5.51312566e-01 5.49832463e-01 5.48710763e-01 5.47662914e-01 5.46335042e-01 5.44494152e-01 5.42714119e-01 5.43824196e-01 5.49328387e-01 5.41936815e-01 4.92433816e-01 4.02013063e-01 3.35585505e-01 5.36367595e-01 7.33564138e-01 1.14042647e-01 3.46267689e-03 3.47700953e-01 3.14444333e-01 3.16735059e-01 3.46092403e-01 3.88825029e-01 4.36817765e-01 4.78516489e-01 5.07767260e-01 5.25327146e-01 5.34373581e-01 5.37962317e-01 5.38409591e-01 5.37333608e-01 5.35810888e-01 5.34496248e-01 5.33687294e-01 5.33364713e-01 5.33205032e-01 5.32535493e-01 5.30265927e-01 5.24975121e-01 5.15849590e-01 5.04944205e-01 4.97350127e-01 4.97026652e-01 4.90240574e-01 4.85251963e-01 6.65025830e-01 7.43983269e-01 1.11332834e-01 3.56502226e-03 2.76589155e-01 2.30888277e-01 2.29882315e-01 2.68912077e-01 3.27071339e-01 3.89594853e-01 4.42172021e-01 4.78985310e-01 5.01786411e-01 5.14430642e-01 5.20313621e-01 5.21957278e-01 5.21189809e-01 5.19353747e-01 5.17423630e-01 5.16049147e-01 5.15561104e-01 5.15943885e-01 5.16768277e-01 5.17097890e-01 5.15415609e-01 5.09822071e-01 4.99360532e-01 4.87511545e-01 4.86279130e-01 5.09182453e-01 5.62481940e-01 7.11523831e-01 7.16723084e-01 1.04574203e-01 4.01936239e-03 2.11463511e-01 1.62740633e-01 1.61076352e-01 2.08896756e-01 2.85433203e-01 3.64452183e-01 4.25266832e-01 4.65150386e-01 4.89442915e-01 5.03271997e-01 5.10063231e-01 5.12083292e-01 5.10988593e-01 5.08132458e-01 5.04692078e-01 5.01678288e-01 4.99870837e-01 4.99703377e-01 5.01156151e-01 5.03764868e-01 5.06849766e-01 5.09837449e-01 5.12273133e-01 5.14166594e-01 5.18683612e-01 5.43946207e-01 6.18021905e-01 7.32686102e-01 6.68459475e-01 9.65416431e-02 5.22345258e-03 1.54058591e-01 1.13996737e-01 1.15693778e-01 1.72305882e-01 2.67008156e-01 3.59343082e-01 4.23509955e-01 4.62578356e-01 4.85927999e-01 4.99549687e-01 5.06573796e-01 5.08792222e-01 5.07468879e-01 5.03728926e-01 4.98742312e-01 4.93755460e-01 4.89962995e-01 4.88241136e-01 4.88909185e-01 4.91814971e-01 4.96954143e-01 5.05126536e-01 5.17528534e-01 5.35237789e-01 5.58946669e-01 5.95666289e-01 6.69799209e-01 7.37099349e-01 5.95701873e-01 8.59464034e-02 6.35538669e-03 1.06343098e-01 8.12814757e-02 9.01328325e-02 1.59037217e-01 2.72202909e-01 3.70531827e-01 4.31327194e-01 4.66498792e-01 4.87758130e-01 5.00688374e-01 5.07807851e-01 5.10447919e-01 5.09475529e-01 5.05656779e-01 4.99915153e-01 4.93463278e-01 4.87681091e-01 4.83700037e-01 4.82060492e-01 4.83053565e-01 4.87866610e-01 4.99048233e-01 5.18698037e-01 5.48579097e-01 5.90774536e-01 6.45428002e-01 7.06758618e-01 7.00296044e-01 4.65142846e-01 7.02615827e-02 7.20545603e-03 7.16473237e-02 5.95924668e-02 7.78775662e-02 1.65537909e-01 2.96578437e-01 3.91825587e-01 4.43781435e-01 4.73410636e-01 4.92162824e-01 5.04249692e-01 5.11494279e-01 5.14880121e-01 5.14979184e-01 5.12195528e-01 5.07028699e-01 5.00297368e-01 4.93084252e-01 4.86283839e-01 4.80471671e-01 4.77115959e-01 4.80483890e-01 4.96608496e-01 5.27629495e-01 5.72426498e-01 6.28480256e-01 6.85794711e-01 7.09879160e-01 6.00576758e-01 2.40423635e-01 4.24532071e-02 8.20282567e-03 4.69248779e-02 4.53178771e-02 7.54688978e-02 1.89615533e-01 3.32557231e-01 4.16589528e-01 4.57307696e-01 4.81082797e-01 4.97134715e-01 5.08214593e-01 5.15588641e-01 5.19982398e-01 5.21769106e-01 5.21076620e-01 5.17933428e-01 5.12434244e-01 5.04737079e-01 4.94898796e-01 4.83642071e-01 4.75029796e-01 4.78869200e-01 5.05652666e-01 5.54061115e-01 6.14707649e-01 6.74077034e-01 7.05259204e-01 6.52481377e-01 4.24838692e-01 1.20175421e-01 2.61236727e-02 1.42543809e-02 3.04950848e-02 3.61364596e-02 8.30817074e-02 2.30247557e-01 3.72551352e-01 4.39906269e-01 4.69580829e-01 4.87845927e-01 5.01074255e-01 5.11001050e-01 5.18490851e-01 5.24029851e-01 5.27834594e-01 5.29857397e-01 5.29729605e-01 5.26709437e-01 5.19737959e-01 5.08090556e-01 4.93771017e-01 4.85051066e-01 4.97451156e-01 5.42832315e-01 6.08743727e-01 6.71473026e-01 7.03563809e-01 6.61666632e-01 4.92185444e-01 1.89961880e-01 5.62174506e-02 2.48962846e-02 2.54725888e-02 2.01575793e-02 3.14542800e-02 1.02870889e-01 2.82894194e-01 4.10492271e-01 4.58965242e-01 4.79033411e-01 4.92287338e-01 5.02739191e-01 5.11520863e-01 5.19129872e-01 5.25767028e-01 5.31476378e-01 5.36107421e-01 5.39111674e-01 5.39348423e-01 5.35385728e-01 5.27315259e-01 5.20431578e-01 5.26590407e-01 5.59886992e-01 6.21686041e-01 6.78828895e-01 6.93854690e-01 6.35011256e-01 4.79640096e-01 2.22037807e-01 7.68037513e-02 3.08813024e-02 3.37117314e-02 4.82621230e-02 1.42014595e-02 3.21239829e-02 1.39048204e-01 3.38229716e-01 4.42010939e-01 4.72519219e-01 4.84558731e-01 4.93347049e-01 5.01347303e-01 5.09191394e-01 5.16939998e-01 5.24454534e-01 5.31594932e-01 5.38229823e-01 5.44108927e-01 5.48818707e-01 5.52407265e-01 5.57590544e-01 5.72555363e-01 6.07019842e-01 6.54412508e-01 6.75677001e-01 6.43597603e-01 5.62404871e-01 3.38064611e-01 1.34020716e-01 5.79090826e-02 3.19892839e-02 3.61265093e-02 6.82357624e-02 1.14313744e-01 1.11344606e-02 3.69403698e-02 1.91245481e-01 3.88883591e-01 4.65023279e-01 4.80130315e-01 4.85397130e-01 4.90455300e-01 4.96615767e-01 5.03869057e-01 5.11786342e-01 5.19914865e-01 5.27982354e-01 5.36020279e-01 5.44501901e-01 5.54566801e-01 5.68467200e-01 5.90305626e-01 6.25458539e-01 6.73064947e-01 7.07011104e-01 6.40992522e-01 3.66803914e-01 1.78645402e-01 1.01611577e-01 5.40936105e-02 4.87401485e-02 8.23452994e-02 1.20121032e-01 1.98412001e-01 2.92350352e-01 9.46512818e-03 4.27255221e-02 2.46149093e-01 4.30146277e-01 4.79002804e-01 4.81498510e-01 4.81253773e-01 4.83667254e-01 4.88755822e-01 4.95745271e-01 5.03817558e-01 5.12361526e-01 5.21064997e-01 5.30097544e-01 5.40488362e-01 5.54518998e-01 5.75587392e-01 6.06871665e-01 6.48401439e-01 6.92469060e-01 7.17441380e-01 6.70158505e-01 4.57738549e-01 2.27709517e-01 1.52527943e-01 1.46130189e-01 2.01829314e-01 4.17079329e-01 5.39696276e-01 5.79374433e-01 5.75504303e-01 8.29023402e-03 4.78944220e-02 2.94049740e-01 4.59745944e-01 4.83854473e-01 4.76492435e-01 4.72605377e-01 4.73758280e-01 4.78433609e-01 4.85243440e-01 4.93290007e-01 5.02075016e-01 5.11361897e-01 5.21265566e-01 5.32671988e-01 5.47728777e-01 5.69575071e-01 6.00358546e-01 6.38131559e-01 6.75485134e-01 7.00985909e-01 6.98744416e-01 6.53225482e-01 6.12847090e-01 6.25055909e-01 6.60679340e-01 6.88965976e-01 7.25684285e-01 7.35347986e-01 7.23015606e-01 6.93833947e-01 7.27108307e-03 5.23137487e-02 3.33863974e-01 4.77205962e-01 4.79719073e-01 4.66055155e-01 4.61079091e-01 4.62221116e-01 4.66662198e-01 4.72907007e-01 4.80408132e-01 4.89080042e-01 4.98930752e-01 5.09947002e-01 5.22314966e-01 5.36888182e-01 5.55357993e-01 5.79241037e-01 6.07826650e-01 6.37374580e-01 6.62937701e-01 6.80411875e-01 6.89824939e-01 7.02301562e-01 7.17019558e-01 7.25690067e-01 7.25532472e-01 7.16995358e-01 6.96770668e-01 6.79097652e-01 6.58853590e-01 5.80366468e-03 5.60347475e-02 3.67047429e-01 4.82709318e-01 4.68952298e-01 4.53658134e-01 4.49642301e-01 4.50907379e-01 4.54356551e-01 4.59049195e-01 4.65104818e-01 4.73027855e-01 4.83269125e-01 4.95941281e-01 5.10709703e-01 5.26945174e-01 5.44110119e-01 5.61993420e-01 5.80329180e-01 5.98126113e-01 6.13531768e-01 6.24382377e-01 6.29602253e-01 6.29611850e-01 6.22371793e-01 6.10009313e-01 5.97449720e-01 5.87375700e-01 5.80101013e-01 5.80565691e-01 5.83418906e-01 6.65124459e-03 6.30247146e-02 4.07176584e-01 4.91396576e-01 4.68186945e-01 4.54544961e-01 4.51074988e-01 4.50914204e-01 4.51882601e-01 4.53828335e-01 4.57394093e-01 4.63494778e-01 4.72994834e-01 4.86394078e-01 5.03491223e-01 5.23118317e-01 5.43132722e-01 5.60802400e-01 5.73444545e-01 5.78997850e-01 5.76559842e-01 5.67577302e-01 5.56735158e-01 5.47789395e-01 5.39399326e-01 5.30298054e-01 5.21177173e-01 5.13300896e-01 5.08161962e-01 5.11735618e-01 5.26401103e-01 1.73475146e-02 6.50283843e-02 4.54658717e-01 5.26326239e-01 4.91361022e-01 4.79352504e-01 4.75861400e-01 4.74429309e-01 4.73764300e-01 4.73947227e-01 4.75576967e-01 4.79459435e-01 4.86395240e-01 4.96928751e-01 5.11039078e-01 5.27832866e-01 5.45362890e-01 5.60719848e-01 5.70486784e-01 5.71559727e-01 5.62505603e-01 5.45859456e-01 5.29415131e-01 5.20441890e-01 5.18226922e-01 5.17220557e-01 5.13894737e-01 5.08394718e-01 5.03124416e-01 5.02911091e-01 5.13173997e-01 
