# vtk DataFile Version 2.0
results_case1_non_linear/3_density.vtk, Created by Freefem++ 
ASCII
DATASET UNSTRUCTURED_GRID
POINTS 961 float
0 0 0
0.033333333 0 0
0.066666667 0 0
0.1 0 0
0.13333333 0 0
0.16666667 0 0
0.2 0 0
0.23333333 0 0
0.26666667 0 0
0.3 0 0
0.33333333 0 0
0.36666667 0 0
0.4 0 0
0.43333333 0 0
0.46666667 0 0
0.5 0 0
0.53333333 0 0
0.56666667 0 0
0.6 0 0
0.63333333 0 0
0.66666667 0 0
0.7 0 0
0.73333333 0 0
0.76666667 0 0
0.8 0 0
0.83333333 0 0
0.86666667 0 0
0.9 0 0
0.93333333 0 0
0.96666667 0 0
1 0 0
0 0.033333333 0
0.033333333 0.033333333 0
0.066666667 0.033333333 0
0.1 0.033333333 0
0.13333333 0.033333333 0
0.16666667 0.033333333 0
0.2 0.033333333 0
0.23333333 0.033333333 0
0.26666667 0.033333333 0
0.3 0.033333333 0
0.33333333 0.033333333 0
0.36666667 0.033333333 0
0.4 0.033333333 0
0.43333333 0.033333333 0
0.46666667 0.033333333 0
0.5 0.033333333 0
0.53333333 0.033333333 0
0.56666667 0.033333333 0
0.6 0.033333333 0
0.63333333 0.033333333 0
0.66666667 0.033333333 0
0.7 0.033333333 0
0.73333333 0.033333333 0
0.76666667 0.033333333 0
0.8 0.033333333 0
0.83333333 0.033333333 0
0.86666667 0.033333333 0
0.9 0.033333333 0
0.93333333 0.033333333 0
0.96666667 0.033333333 0
1 0.033333333 0
0 0.066666667 0
0.033333333 0.066666667 0
0.066666667 0.066666667 0
0.1 0.066666667 0
0.13333333 0.066666667 0
0.16666667 0.066666667 0
0.2 0.066666667 0
0.23333333 0.066666667 0
0.26666667 0.066666667 0
0.3 0.066666667 0
0.33333333 0.066666667 0
0.36666667 0.066666667 0
0.4 0.066666667 0
0.43333333 0.066666667 0
0.46666667 0.066666667 0
0.5 0.066666667 0
0.53333333 0.066666667 0
0.56666667 0.066666667 0
0.6 0.066666667 0
0.63333333 0.066666667 0
0.66666667 0.066666667 0
0.7 0.066666667 0
0.73333333 0.066666667 0
0.76666667 0.066666667 0
0.8 0.066666667 0
0.83333333 0.066666667 0
0.86666667 0.066666667 0
0.9 0.066666667 0
0.93333333 0.066666667 0
0.96666667 0.066666667 0
1 0.066666667 0
0 0.1 0
0.033333333 0.1 0
0.066666667 0.1 0
0.1 0.1 0
0.13333333 0.1 0
0.16666667 0.1 0
0.2 0.1 0
0.23333333 0.1 0
0.26666667 0.1 0
0.3 0.1 0
0.33333333 0.1 0
0.36666667 0.1 0
0.4 0.1 0
0.43333333 0.1 0
0.46666667 0.1 0
0.5 0.1 0
0.53333333 0.1 0
0.56666667 0.1 0
0.6 0.1 0
0.63333333 0.1 0
0.66666667 0.1 0
0.7 0.1 0
0.73333333 0.1 0
0.76666667 0.1 0
0.8 0.1 0
0.83333333 0.1 0
0.86666667 0.1 0
0.9 0.1 0
0.93333333 0.1 0
0.96666667 0.1 0
1 0.1 0
0 0.13333333 0
0.033333333 0.13333333 0
0.066666667 0.13333333 0
0.1 0.13333333 0
0.13333333 0.13333333 0
0.16666667 0.13333333 0
0.2 0.13333333 0
0.23333333 0.13333333 0
0.26666667 0.13333333 0
0.3 0.13333333 0
0.33333333 0.13333333 0
0.36666667 0.13333333 0
0.4 0.13333333 0
0.43333333 0.13333333 0
0.46666667 0.13333333 0
0.5 0.13333333 0
0.53333333 0.13333333 0
0.56666667 0.13333333 0
0.6 0.13333333 0
0.63333333 0.13333333 0
0.66666667 0.13333333 0
0.7 0.13333333 0
0.73333333 0.13333333 0
0.76666667 0.13333333 0
0.8 0.13333333 0
0.83333333 0.13333333 0
0.86666667 0.13333333 0
0.9 0.13333333 0
0.93333333 0.13333333 0
0.96666667 0.13333333 0
1 0.13333333 0
0 0.16666667 0
0.033333333 0.16666667 0
0.066666667 0.16666667 0
0.1 0.16666667 0
0.13333333 0.16666667 0
0.16666667 0.16666667 0
0.2 0.16666667 0
0.23333333 0.16666667 0
0.26666667 0.16666667 0
0.3 0.16666667 0
0.33333333 0.16666667 0
0.36666667 0.16666667 0
0.4 0.16666667 0
0.43333333 0.16666667 0
0.46666667 0.16666667 0
0.5 0.16666667 0
0.53333333 0.16666667 0
0.56666667 0.16666667 0
0.6 0.16666667 0
0.63333333 0.16666667 0
0.66666667 0.16666667 0
0.7 0.16666667 0
0.73333333 0.16666667 0
0.76666667 0.16666667 0
0.8 0.16666667 0
0.83333333 0.16666667 0
0.86666667 0.16666667 0
0.9 0.16666667 0
0.93333333 0.16666667 0
0.96666667 0.16666667 0
1 0.16666667 0
0 0.2 0
0.033333333 0.2 0
0.066666667 0.2 0
0.1 0.2 0
0.13333333 0.2 0
0.16666667 0.2 0
0.2 0.2 0
0.23333333 0.2 0
0.26666667 0.2 0
0.3 0.2 0
0.33333333 0.2 0
0.36666667 0.2 0
0.4 0.2 0
0.43333333 0.2 0
0.46666667 0.2 0
0.5 0.2 0
0.53333333 0.2 0
0.56666667 0.2 0
0.6 0.2 0
0.63333333 0.2 0
0.66666667 0.2 0
0.7 0.2 0
0.73333333 0.2 0
0.76666667 0.2 0
0.8 0.2 0
0.83333333 0.2 0
0.86666667 0.2 0
0.9 0.2 0
0.93333333 0.2 0
0.96666667 0.2 0
1 0.2 0
0 0.23333333 0
0.033333333 0.23333333 0
0.066666667 0.23333333 0
0.1 0.23333333 0
0.13333333 0.23333333 0
0.16666667 0.23333333 0
0.2 0.23333333 0
0.23333333 0.23333333 0
0.26666667 0.23333333 0
0.3 0.23333333 0
0.33333333 0.23333333 0
0.36666667 0.23333333 0
0.4 0.23333333 0
0.43333333 0.23333333 0
0.46666667 0.23333333 0
0.5 0.23333333 0
0.53333333 0.23333333 0
0.56666667 0.23333333 0
0.6 0.23333333 0
0.63333333 0.23333333 0
0.66666667 0.23333333 0
0.7 0.23333333 0
0.73333333 0.23333333 0
0.76666667 0.23333333 0
0.8 0.23333333 0
0.83333333 0.23333333 0
0.86666667 0.23333333 0
0.9 0.23333333 0
0.93333333 0.23333333 0
0.96666667 0.23333333 0
1 0.23333333 0
0 0.26666667 0
0.033333333 0.26666667 0
0.066666667 0.26666667 0
0.1 0.26666667 0
0.13333333 0.26666667 0
0.16666667 0.26666667 0
0.2 0.26666667 0
0.23333333 0.26666667 0
0.26666667 0.26666667 0
0.3 0.26666667 0
0.33333333 0.26666667 0
0.36666667 0.26666667 0
0.4 0.26666667 0
0.43333333 0.26666667 0
0.46666667 0.26666667 0
0.5 0.26666667 0
0.53333333 0.26666667 0
0.56666667 0.26666667 0
0.6 0.26666667 0
0.63333333 0.26666667 0
0.66666667 0.26666667 0
0.7 0.26666667 0
0.73333333 0.26666667 0
0.76666667 0.26666667 0
0.8 0.26666667 0
0.83333333 0.26666667 0
0.86666667 0.26666667 0
0.9 0.26666667 0
0.93333333 0.26666667 0
0.96666667 0.26666667 0
1 0.26666667 0
0 0.3 0
0.033333333 0.3 0
0.066666667 0.3 0
0.1 0.3 0
0.13333333 0.3 0
0.16666667 0.3 0
0.2 0.3 0
0.23333333 0.3 0
0.26666667 0.3 0
0.3 0.3 0
0.33333333 0.3 0
0.36666667 0.3 0
0.4 0.3 0
0.43333333 0.3 0
0.46666667 0.3 0
0.5 0.3 0
0.53333333 0.3 0
0.56666667 0.3 0
0.6 0.3 0
0.63333333 0.3 0
0.66666667 0.3 0
0.7 0.3 0
0.73333333 0.3 0
0.76666667 0.3 0
0.8 0.3 0
0.83333333 0.3 0
0.86666667 0.3 0
0.9 0.3 0
0.93333333 0.3 0
0.96666667 0.3 0
1 0.3 0
0 0.33333333 0
0.033333333 0.33333333 0
0.066666667 0.33333333 0
0.1 0.33333333 0
0.13333333 0.33333333 0
0.16666667 0.33333333 0
0.2 0.33333333 0
0.23333333 0.33333333 0
0.26666667 0.33333333 0
0.3 0.33333333 0
0.33333333 0.33333333 0
0.36666667 0.33333333 0
0.4 0.33333333 0
0.43333333 0.33333333 0
0.46666667 0.33333333 0
0.5 0.33333333 0
0.53333333 0.33333333 0
0.56666667 0.33333333 0
0.6 0.33333333 0
0.63333333 0.33333333 0
0.66666667 0.33333333 0
0.7 0.33333333 0
0.73333333 0.33333333 0
0.76666667 0.33333333 0
0.8 0.33333333 0
0.83333333 0.33333333 0
0.86666667 0.33333333 0
0.9 0.33333333 0
0.93333333 0.33333333 0
0.96666667 0.33333333 0
1 0.33333333 0
0 0.36666667 0
0.033333333 0.36666667 0
0.066666667 0.36666667 0
0.1 0.36666667 0
0.13333333 0.36666667 0
0.16666667 0.36666667 0
0.2 0.36666667 0
0.23333333 0.36666667 0
0.26666667 0.36666667 0
0.3 0.36666667 0
0.33333333 0.36666667 0
0.36666667 0.36666667 0
0.4 0.36666667 0
0.43333333 0.36666667 0
0.46666667 0.36666667 0
0.5 0.36666667 0
0.53333333 0.36666667 0
0.56666667 0.36666667 0
0.6 0.36666667 0
0.63333333 0.36666667 0
0.66666667 0.36666667 0
0.7 0.36666667 0
0.73333333 0.36666667 0
0.76666667 0.36666667 0
0.8 0.36666667 0
0.83333333 0.36666667 0
0.86666667 0.36666667 0
0.9 0.36666667 0
0.93333333 0.36666667 0
0.96666667 0.36666667 0
1 0.36666667 0
0 0.4 0
0.033333333 0.4 0
0.066666667 0.4 0
0.1 0.4 0
0.13333333 0.4 0
0.16666667 0.4 0
0.2 0.4 0
0.23333333 0.4 0
0.26666667 0.4 0
0.3 0.4 0
0.33333333 0.4 0
0.36666667 0.4 0
0.4 0.4 0
0.43333333 0.4 0
0.46666667 0.4 0
0.5 0.4 0
0.53333333 0.4 0
0.56666667 0.4 0
0.6 0.4 0
0.63333333 0.4 0
0.66666667 0.4 0
0.7 0.4 0
0.73333333 0.4 0
0.76666667 0.4 0
0.8 0.4 0
0.83333333 0.4 0
0.86666667 0.4 0
0.9 0.4 0
0.93333333 0.4 0
0.96666667 0.4 0
1 0.4 0
0 0.43333333 0
0.033333333 0.43333333 0
0.066666667 0.43333333 0
0.1 0.43333333 0
0.13333333 0.43333333 0
0.16666667 0.43333333 0
0.2 0.43333333 0
0.23333333 0.43333333 0
0.26666667 0.43333333 0
0.3 0.43333333 0
0.33333333 0.43333333 0
0.36666667 0.43333333 0
0.4 0.43333333 0
0.43333333 0.43333333 0
0.46666667 0.43333333 0
0.5 0.43333333 0
0.53333333 0.43333333 0
0.56666667 0.43333333 0
0.6 0.43333333 0
0.63333333 0.43333333 0
0.66666667 0.43333333 0
0.7 0.43333333 0
0.73333333 0.43333333 0
0.76666667 0.43333333 0
0.8 0.43333333 0
0.83333333 0.43333333 0
0.86666667 0.43333333 0
0.9 0.43333333 0
0.93333333 0.43333333 0
0.96666667 0.43333333 0
1 0.43333333 0
0 0.46666667 0
0.033333333 0.46666667 0
0.066666667 0.46666667 0
0.1 0.46666667 0
0.13333333 0.46666667 0
0.16666667 0.46666667 0
0.2 0.46666667 0
0.23333333 0.46666667 0
0.26666667 0.46666667 0
0.3 0.46666667 0
0.33333333 0.46666667 0
0.36666667 0.46666667 0
0.4 0.46666667 0
0.43333333 0.46666667 0
0.46666667 0.46666667 0
0.5 0.46666667 0
0.53333333 0.46666667 0
0.56666667 0.46666667 0
0.6 0.46666667 0
0.63333333 0.46666667 0
0.66666667 0.46666667 0
0.7 0.46666667 0
0.73333333 0.46666667 0
0.76666667 0.46666667 0
0.8 0.46666667 0
0.83333333 0.46666667 0
0.86666667 0.46666667 0
0.9 0.46666667 0
0.93333333 0.46666667 0
0.96666667 0.46666667 0
1 0.46666667 0
0 0.5 0
0.033333333 0.5 0
0.066666667 0.5 0
0.1 0.5 0
0.13333333 0.5 0
0.16666667 0.5 0
0.2 0.5 0
0.23333333 0.5 0
0.26666667 0.5 0
0.3 0.5 0
0.33333333 0.5 0
0.36666667 0.5 0
0.4 0.5 0
0.43333333 0.5 0
0.46666667 0.5 0
0.5 0.5 0
0.53333333 0.5 0
0.56666667 0.5 0
0.6 0.5 0
0.63333333 0.5 0
0.66666667 0.5 0
0.7 0.5 0
0.73333333 0.5 0
0.76666667 0.5 0
0.8 0.5 0
0.83333333 0.5 0
0.86666667 0.5 0
0.9 0.5 0
0.93333333 0.5 0
0.96666667 0.5 0
1 0.5 0
0 0.53333333 0
0.033333333 0.53333333 0
0.066666667 0.53333333 0
0.1 0.53333333 0
0.13333333 0.53333333 0
0.16666667 0.53333333 0
0.2 0.53333333 0
0.23333333 0.53333333 0
0.26666667 0.53333333 0
0.3 0.53333333 0
0.33333333 0.53333333 0
0.36666667 0.53333333 0
0.4 0.53333333 0
0.43333333 0.53333333 0
0.46666667 0.53333333 0
0.5 0.53333333 0
0.53333333 0.53333333 0
0.56666667 0.53333333 0
0.6 0.53333333 0
0.63333333 0.53333333 0
0.66666667 0.53333333 0
0.7 0.53333333 0
0.73333333 0.53333333 0
0.76666667 0.53333333 0
[...]
CELL_DATA 1920
Scalars  Label int 1
LOOKUP_TABLE FreeFempp_table
0
0
0
0
0
0
0
0
0
0
0
0
0
0
0
0
0
0
0
0
0
0
0
0
0
0
0
0
0
0
0
0
0
0
0
0
0
0
0
0
0
0
0
0
0
0
0
0
0
0
0
0
0
0
0
0
0
0
0
0
0
0
0
0
0
0
0
0
0
0
0
0
0
0
0
0
0
0
0
0
0
0
0
0
0
0
0
0
0
0
0
0
0
0
0
0
0
0
0
0
0
0
0
0
0
0
0
0
0
0
0
0
0
0
0
0
0
0
0
0
0
0
0
0
0
0
0
0
0
0
0
0
0
0
0
0
0
0
0
0
0
0
0
0
0
0
0
0
0
0
0
0
0
0
0
0
0
0
0
0
0
0
0
0
0
0
0
0
0
0
0
0
0
0
0
0
0
0
0
0
0
0
0
0
0
0
0
0
0
0
0
0
0
0
0
0
0
0
0
0
0
0
0
0
0
0
0
0
0
0
0
0
0
0
0
0
0
0
0
0
0
0
0
0
0
0
0
0
0
0
0
0
0
0
0
0
0
0
0
0
0
0
0
0
0
0
0
0
0
0
0
0
0
0
0
0
0
0
0
0
0
0
0
0
0
0
0
0
0
0
0
0
0
0
0
0
0
0
0
0
0
0
0
0
0
0
0
0
0
0
0
0
0
0
0
0
0
0
0
0
0
0
0
0
0
0
0
0
0
0
0
0
0
0
0
0
0
0
0
0
0
0
0
0
0
0
0
0
0
0
0
0
0
0
0
0
0
0
0
0
0
0
0
0
0
0
0
0
0
0
0
0
0
0
0
0
0
0
0
0
0
0
0
0
0
0
0
0
0
0
0
0
0
0
0
0
0
0
0
0
0
0
0
0
0
0
0
0
0
0
0
0
0
0
0
0
0
0
0
0
0
0
0
0
0
0
0
0
0
0
0
0
0
0
0
0
0
0
0
0
0
0
0
0
0
0
0
0
0
0
0
0
0
0
0
0
0
0
0
0
0
0
0
0
0
0
0
0
0
0
0
0
0
0
0
0
0
0
0
0
0
0
0
0
0
0
0
0
0
0
0
0
0
0
0
0
0
0
0
0
0
0
0
0
0
0
0
0
0
0
0
0
0
0
0
0
0
0
0
0
0
0
0
0
0
0
0
0
0
0
0
0
0
0
0
0
0
0
0
0
0
0
0
0
0
0
0
0
0
0
0
0
0
0
0
0
0
0
0
0
0
0
0
0
0
0
0
0
0
0
0
0
0
0
0
0
0
0
0
0
0
0
0
0
0
0
0
0
0
0
0
0
0
0
0
0
0
0
0
0
0
0
0
0
0
0
0
0
0
0
0
0
0
0
0
0
0
0
0
0
0
0
0
0
0
0
0
0
0
0
0
0
0
0
0
0
0
0
0
0
0
0
0
0
0
0
0
0
0
0
0
0
0
0
0
0
0
0
0
0
0
0
0
0
0
0
0
0
0
0
0
0
0
0
0
0
0
0
0
0
0
0
0
0
0
0
0
0
0
0
0
0
0
0
0
0
0
0
0
0
0
0
0
0
0
0
0
0
0
0
0
0
0
0
0
0
0
0
0
0
0
0
0
0
0
0
0
0
0
0
0
0
0
0
0
0
0
0
0
0
0
0
0
0
0
0
0
0
0
0
0
0
0
0
0
0
0
0
0
0
0
0
0
0
0
0
0
0
0
0
0
0
0
0
0
0
0
0
0
0
0
0
0
0
0
0
0
0
0
0
0
0
0
0
0
0
0
0
0
0
0
0
0
0
0
0
0
0
0
0
0
0
0
0
0
0
0
0
0
0
0
0
0
0
0
0
0
0
0
0
0
0
0
0
0
0
0
0
0
0
0
0
0
0
0
0
0
0
0
0
0
0
0
0
0
0
0
0
0
0
0
0
0
0
0
0
0
0
0
0
0
0
0
0
0
0
0
0
0
0
0
0
0
0
0
0
0
0
0
0
0
0
0
0
0
0
0
0
0
0
0
0
0
0
0
0
0
0
0
0
0
0
0
0
0
0
0
0
0
0
0
0
0
0
0
0
0
0
0
0
0
0
0
0
0
0
0
0
0
0
0
0
0
0
0
0
0
0
0
0
0
0
0
0
0
0
0
0
0
0
0
0
0
0
0
0
0
0
0
0
0
0
0
0
0
0
0
0
0
0
0
0
0
0
0
0
0
0
0
0
0
0
0
0
0
0
0
0
0
0
0
0
0
0
0
0
0
0
0
0
0
0
0
0
0
0
0
0
0
0
0
0
0
0
0
0
0
0
0
0
0
0
0
0
0
0
0
0
0
0
0
0
0
0
0
0
0
0
0
0
0
0
0
0
0
0
0
0
0
0
0
0
0
0
0
0
0
0
0
0
0
0
0
0
0
0
0
0
0
0
0
0
0
0
0
0
0
0
0
0
0
0
0
0
0
0
0
0
0
0
0
0
0
0
0
0
0
0
0
0
0
0
0
0
0
0
0
0
0
0
0
0
0
0
0
0
0
0
0
0
0
0
0
0
0
0
0
0
0
0
0
0
0
0
0
0
0
0
0
0
0
0
0
0
0
0
0
0
0
0
0
0
0
0
0
0
0
0
0
0
0
0
0
0
0
0
0
0
0
0
0
0
0
0
0
0
0
0
0
0
0
0
0
0
0
0
0
0
0
0
0
0
0
0
0
0
0
0
0
0
0
0
0
0
0
0
0
0
0
0
0
0
0
0
0
0
0
0
0
0
0
0
0
0
0
0
0
0
0
0
0
0
0
0
0
0
0
0
0
0
0
0
0
0
0
0
0
0
0
0
0
0
0
0
0
0
0
0
0
0
0
0
0
0
0
0
0
0
0
0
0
0
0
0
0
0
0
0
0
0
0
0
0
0
0
0
0
0
0
0
0
0
0
0
0
0
0
0
0
0
0
0
0
0
0
0
0
0
0
0
0
0
0
0
0
0
0
0
0
0
0
0
0
0
0
0
0
0
0
0
0
0
0
0
0
0
0
0
0
0
0
0
0
0
0
0
0
0
0
0
0
0
0
0
0
0
0
0
0
0
0
0
0
0
0
0
0
0
0
0
0
0
0
0
0
0
0
0
0
0
0
0
0
0
0
0
0
0
0
0
0
0
0
0
0
0
0
0
0
0
0
0
0
0
0
0
0
0
0
0
0
0
0
0
0
0
0
0
0
0
0
0
0
0
0
0
0
0
0
0
0
0
0
0
0
0
0
0
0
0
0
0
0
0
0
0
0
0
0
0
0
0
0
0
0
0
0
0
0
0
0
0
0
0
0
0
0
0
0
0
0
0
0
0
0
0
0
0
0
0
0
0
0
0
0
0
0
0
0
0
0
0
0
0
0
0
0
0
0
0
0
0
0
0
0
0
0
0
0
0
0
0
0
0
0
0
0
0
0
0
0
0
0
0
0
0
0
0
0
0
0
0
0
0
0
0
0
0
0
0
0
0
0
0
0
0
0
0
0
0
0
0
0
0
0
0
0
0
0
0
0
0
0
0
0
0
0
0
0
0
0
0
0
0
0
0
0
0
0
0
0
0
0
0
0
0
0
0
0
0
0
0
0
0
0
0
0
0
0
0
0
0
0
0
0
0
0
0
0
0
0
0
0
0
0
0
0
0
0
0
0
0
0
0
0
0
0
0
0
0
0
0
0
0
0
0
0
0
0
0
0
0
0
0
0
0
0
0
0
0
0
0
0
0
0
0
0
0
0
0
0
0
0
0
0
0
0
0
0
0
0
0
0
0
0
0
0
0
0
0
0
0
0
0
0
0
0
0
0
0
0
0
0
0
0
0
0
0
0
0
0
0
0
0
0
0
0
0
0
0
0
0
0
0
0
0
0
0
0
0
0
0
0
0
0
0
0
0
0
0
0
0
0
0
0
0
0
0
0
0
0
0
0
0
0
0
0
0
0
0
0
0
0
0
0
0
0
0
0
0
0
0
0
0
0
0
0
0
0
0
0
0
0
0
0
0
0
0
0
0
0
0
0
0
0
0
0
0
0
0
0
0
0
0
0
0
0
0
0
0
0
0
0
0
0
0
0
0
0
0
1
1
1
1
1
1
1
1
1
1
1
1
1
1
1
1
1
1
1
1
1
1
1
1
1
1
1
1
1
1
2
2
2
2
2
2
2
2
2
2
2
2
2
2
2
2
2
2
2
2
2
2
2
2
2
2
2
2
2
2
3
3
3
3
3
3
3
3
3
3
3
3
3
3
3
3
3
3
3
3
3
3
3
3
3
3
3
3
3
3
4
4
4
4
4
4
4
4
4
4
4
4
4
4
4
4
4
4
4
4
4
4
4
4
4
4
4
4
4
4

LOOKUP_TABLE FreeFempp_table 5
1.00000000 0.00000000 0.00000000 1.00000000
1.00000000 1.00000000 0.00000000 1.00000000
1.00000000 0.00000000 1.00000000 1.00000000
0.00000000 1.00000000 0.00000000 1.00000000
0.00000000 1.00000000 1.00000000 1.00000000

POINT_DATA 961
FIELD FieldData 1
Density 1 961 float
5.61234295e-01 5.23186088e-01 5.19176245e-01 5.26336908e-01 5.31882703e-01 5.31783521e-01 5.30331612e-01 5.28122067e-01 5.24893224e-01 5.19903958e-01 5.09494960e-01 3.61293405e-01 2.19554920e-03 3.33329127e-03 4.85622257e-01 6.39592946e-01 7.56132901e-01 7.85888970e-01 6.90213025e-01 5.74970424e-01 5.65642536e-01 6.09398901e-01 6.43839419e-01 6.59127295e-01 6.50599599e-01 6.31374538e-01 6.15143001e-01 6.03827834e-01 5.97665548e-01 6.01771832e-01 6.15014315e-01 5.01938522e-01 4.24907416e-01 4.27106321e-01 4.24858749e-01 4.35429603e-01 4.39171255e-01 4.36749935e-01 4.33492333e-01 4.29127425e-01 4.21074480e-01 4.02795434e-01 3.20339799e-01 2.25647329e-03 1.84089714e-03 3.61122608e-01 5.75321496e-01 8.04647326e-01 8.88495505e-01 7.93518484e-01 5.64596951e-01 5.03409684e-01 6.04479492e-01 6.79676414e-01 7.01584160e-01 6.82384253e-01 6.45480573e-01 6.14887357e-01 5.93078792e-01 5.81350863e-01 5.82807839e-01 6.06010497e-01 5.22317656e-04 5.58906118e-04 4.51615313e-04 4.44730686e-04 5.25869546e-04 5.50298952e-04 5.63119247e-04 5.71725424e-04 5.78342297e-04 5.85052010e-04 5.95351565e-04 6.06976799e-04 5.87595801e-04 4.83035517e-04 3.77506554e-01 5.26675820e-01 7.81786025e-01 8.64487767e-01 4.52855587e-01 1.03223242e-01 1.49264187e-01 4.11192417e-01 6.43667400e-01 7.05718338e-01 6.93664849e-01 6.46108329e-01 6.03553712e-01 5.75737059e-01 5.63581944e-01 5.62371433e-01 6.00404263e-01 8.69307201e-04 5.15524356e-04 5.47650154e-04 3.92692251e-04 4.94441367e-04 5.40101028e-04 5.55966049e-04 5.65982773e-04 5.72988007e-04 5.78936597e-04 5.86679671e-04 5.95764315e-04 6.36773533e-04 3.73229908e-04 3.70376336e-04 4.30128604e-01 7.11848319e-01 8.97201657e-01 7.84988627e-02 1.37287444e-02 2.09968723e-02 5.01040705e-02 1.80941463e-01 4.18010473e-01 5.76789141e-01 6.19116366e-01 5.85459232e-01 5.44381440e-01 5.28401017e-01 5.25305867e-01 5.82791507e-01 4.75551844e-01 3.24228674e-01 3.03302646e-01 2.88230062e-01 2.78437346e-01 2.75054425e-01 2.78116703e-01 2.88992018e-01 3.07818443e-01 3.32069576e-01 3.54591787e-01 3.54331702e-01 3.66457134e-01 3.79644275e-01 3.70576279e-04 3.93589609e-04 5.24680887e-04 9.05882537e-01 7.20787406e-01 5.78202493e-03 8.06530006e-03 5.43247536e-03 5.08991070e-03 7.23532354e-03 2.25723237e-02 1.38276264e-01 4.89494324e-01 5.04021943e-01 4.89315659e-01 4.86568362e-01 5.62511623e-01 5.25275946e-01 3.85190129e-01 3.59583318e-01 3.42646182e-01 3.27628613e-01 3.18415374e-01 3.15948963e-01 3.20213586e-01 3.30326557e-01 3.43427539e-01 3.56194258e-01 3.64896417e-01 3.75326395e-01 3.89505059e-01 3.80951613e-01 5.39850793e-04 3.83128790e-04 3.55027645e-04 9.42124128e-01 4.52975512e-01 1.16594546e-02 8.10210966e-03 3.76093574e-03 2.13249330e-03 1.62938272e-03 1.41094124e-03 8.00945982e-03 3.55720520e-01 4.53058392e-01 4.56731498e-01 5.44154823e-01 5.85888982e-01 5.06686985e-01 4.87849146e-01 4.71373856e-01 4.53157812e-01 4.36254144e-01 4.23506349e-01 4.15337652e-01 4.10655677e-01 4.07894790e-01 4.05963898e-01 4.04481918e-01 4.03796732e-01 4.06449705e-01 3.98151696e-01 3.85261387e-01 3.71016681e-01 3.66130291e-04 3.82164319e-04 9.91617084e-01 9.72199857e-01 1.85453445e-02 1.32196862e-02 5.42425271e-03 2.56707799e-03 1.02046726e-03 9.93847148e-04 3.73346126e-03 3.09135139e-01 4.33758348e-01 5.30966341e-01 6.40895605e-01 6.23852909e-01 6.10678613e-01 5.95577717e-01 5.76795697e-01 5.56599557e-01 5.36453068e-01 5.18167496e-01 5.02641797e-01 4.90041643e-01 4.80419368e-01 4.73769397e-01 4.69620496e-01 4.66286659e-01 4.58930999e-01 4.45069015e-01 4.28032309e-01 3.96877617e-01 3.94649862e-04 4.51817526e-04 7.99928850e-04 9.86903548e-01 3.00753683e-01 2.69986063e-01 4.05645818e-01 9.60559696e-02 1.11627474e-03 9.64704144e-04 3.11499787e-03 3.22813570e-01 5.10070682e-01 6.82014465e-01 7.12675929e-01 7.00923383e-01 6.88191593e-01 6.70920849e-01 6.51086152e-01 6.29584193e-01 6.08096600e-01 5.88530660e-01 5.72327554e-01 5.60226023e-01 5.52197933e-01 5.47419667e-01 5.44056892e-01 5.39165735e-01 5.30327559e-01 5.14606416e-01 4.95733410e-01 4.70111132e-01 6.35413162e-04 5.66696632e-04 5.79184038e-04 9.61566448e-01 9.39321399e-01 9.35429513e-01 9.28629577e-01 7.05205023e-01 1.02715904e-03 8.24887655e-04 4.91323788e-03 3.38848412e-01 7.04928219e-01 7.64411330e-01 7.52069056e-01 7.40839422e-01 7.25892842e-01 7.08585322e-01 6.89413130e-01 6.69556201e-01 6.50751173e-01 6.34718001e-01 6.22566164e-01 6.14527941e-01 6.10080183e-01 6.08268917e-01 6.07937217e-01 6.07980013e-01 6.05688870e-01 5.96261322e-01 5.85272670e-01 5.43806553e-01 4.42045599e-01 6.65388594e-04 7.26010592e-04 1.28120527e-01 6.13638937e-01 1.22642238e-02 1.06233418e-01 9.55365717e-01 8.34670907e-04 8.58719577e-04 1.37656275e-02 7.09556460e-01 7.82417178e-01 7.67163813e-01 7.54056752e-01 7.40488648e-01 7.27317691e-01 7.13366568e-01 6.98278785e-01 6.82972193e-01 6.68937206e-01 6.57426298e-01 6.49032772e-01 6.43771350e-01 6.41486764e-01 6.42222285e-01 6.46184623e-01 6.53202951e-01 6.61930084e-01 6.69545054e-01 6.69392467e-01 6.48062170e-01 5.51709354e-01 7.82307878e-04 8.76748993e-04 2.01159599e-03 3.36931669e-03 1.11211091e-02 9.78697181e-01 5.15375379e-03 8.55430029e-04 1.62279478e-03 6.99621022e-01 7.72017419e-01 7.45963216e-01 7.20675647e-01 7.05431640e-01 7.00200319e-01 6.97246790e-01 6.91879094e-01 6.83574796e-01 6.73744619e-01 6.64014995e-01 6.55495524e-01 6.48740053e-01 6.44074380e-01 6.41950011e-01 6.43062413e-01 6.48343027e-01 6.59186006e-01 6.75702691e-01 6.96409225e-01 7.16702402e-01 7.75144696e-01 7.49011219e-01 1.32797705e-03 1.58931187e-03 2.04670522e-03 3.86105222e-03 6.04675859e-02 9.92346585e-01 1.04017311e-03 1.13654893e-03 6.83261275e-01 7.40319848e-01 6.82109654e-01 6.14542723e-01 5.90421200e-01 6.05405092e-01 6.28636956e-01 6.44305944e-01 6.50187850e-01 6.48970127e-01 6.43839538e-01 6.37143493e-01 6.30285740e-01 6.24039948e-01 6.18925273e-01 6.15498483e-01 6.14605606e-01 6.17490649e-01 6.24822378e-01 6.33972406e-01 6.45188093e-01 6.82385385e-01 8.06437254e-01 8.89006674e-01 8.39147091e-01 4.19024415e-02 7.67689291e-03 1.51291545e-02 9.87410128e-01 1.29279937e-03 1.14300509e-03 6.70485675e-01 7.02327609e-01 5.76938152e-01 4.12436873e-01 3.70899200e-01 4.23354596e-01 4.95468795e-01 5.50514638e-01 5.82523465e-01 5.97288847e-01 6.01564527e-01 6.00247920e-01 5.96300960e-01 5.91273785e-01 5.85912168e-01 5.80715895e-01 5.76331675e-01 5.73441088e-01 5.71698010e-01 5.68197906e-01 5.60754657e-01 5.59962451e-01 5.99934876e-01 7.36735344e-01 8.08793902e-01 8.52479875e-01 2.03789487e-01 9.57999080e-02 9.97264922e-01 1.38916145e-03 1.25456182e-03 6.66034579e-01 6.77362800e-01 4.66740161e-01 2.01391518e-01 1.54192433e-01 2.17202514e-01 3.23575884e-01 4.22447950e-01 4.89670366e-01 5.28063655e-01 5.47446609e-01 5.55885017e-01 5.58396697e-01 5.57580531e-01 5.54622173e-01 5.50253928e-01 5.45353830e-01 5.40847838e-01 5.36826313e-01 5.31647086e-01 5.23624480e-01 5.17539024e-01 5.26837051e-01 5.54301441e-01 5.87525427e-01 6.31360173e-01 5.28192222e-01 7.71626770e-01 9.90247905e-01 1.63221289e-03 1.47853512e-03 6.66579843e-01 6.72863543e-01 4.04362470e-01 9.63202417e-02 5.71082719e-02 9.27582160e-02 1.81990907e-01 2.96292484e-01 3.92086685e-01 4.55865443e-01 4.94122207e-01 5.16123831e-01 5.28388619e-01 5.34386516e-01 5.35727799e-01 5.33470988e-01 5.28895915e-01 5.23552835e-01 5.18821418e-01 5.15508890e-01 5.13791680e-01 5.13115168e-01 5.11313260e-01 4.96985734e-01 4.93214488e-01 5.28603315e-01 6.39376521e-01 8.87303352e-01 9.78154302e-01 1.88968843e-03 1.70392066e-03 6.66045904e-01 6.79054856e-01 4.05214787e-01 6.48588538e-02 2.75254492e-02 4.19216342e-02 9.94415954e-02 2.02759042e-01 3.10739577e-01 3.94084692e-01 4.50963676e-01 4.88355547e-01 5.12537658e-01 5.27117729e-01 5.33933759e-01 5.34398079e-01 5.30208826e-01 5.23454607e-01 5.16570449e-01 5.12321055e-01 5.12856841e-01 5.16403019e-01 5.13364851e-01 5.01211107e-01 5.23092270e-01 6.09119594e-01 7.79133439e-01 9.22519326e-01 9.38776672e-01 2.14824220e-03 1.93988997e-03 6.61016881e-01 6.82302594e-01 4.47049499e-01 6.20455891e-02 1.69947166e-02 2.19243225e-02 5.68391345e-02 1.44174963e-01 2.54894286e-01 3.50389123e-01 4.22533572e-01 4.74716961e-01 5.11068761e-01 5.34385681e-01 5.46643496e-01 5.49852073e-01 5.46305895e-01 5.38572490e-01 5.29700696e-01 5.23397267e-01 5.22903681e-01 5.27604997e-01 5.32864571e-01 5.55454493e-01 6.27540708e-01 7.41834521e-01 8.60792100e-01 9.22323287e-01 7.72694409e-01 2.47842562e-03 2.21810373e-03 6.51419938e-01 6.76388443e-01 4.98407006e-01 7.64083266e-02 1.24579482e-02 1.33567704e-02 3.45474072e-02 1.09966092e-01 2.23063692e-01 3.26576173e-01 4.09800380e-01 4.74159747e-01 5.20693779e-01 5.50925136e-01 5.67329764e-01 5.73005795e-01 5.71093142e-01 5.64618886e-01 5.56990921e-01 5.52447915e-01 5.55091619e-01 5.66134036e-01 5.89368641e-01 6.44855857e-01 7.35814691e-01 8.26753378e-01 8.83685529e-01 8.62527013e-01 1.87546372e-01 2.94603594e-03 2.56826822e-03 6.38742507e-01 6.61590874e-01 5.39195716e-01 1.12129837e-01 1.05483355e-02 9.18053649e-03 2.22071167e-02 9.06266868e-02 2.10558876e-01 3.21057171e-01 4.11431879e-01 4.83732641e-01 5.36356747e-01 5.70178568e-01 5.88940024e-01 5.97155690e-01 5.98784208e-01 5.97179830e-01 5.95951140e-01 5.99694431e-01 6.13031328e-01 6.38502061e-01 6.80602014e-01 7.42197037e-01 8.07474256e-01 8.51069868e-01 8.36573064e-01 4.60140556e-01 2.51182634e-02 3.69437714e-03 3.10147810e-03 6.24595761e-01 6.40611291e-01 5.63766539e-01 1.75526783e-01 1.02151856e-02 6.75305678e-03 1.46710072e-02 7.91885704e-02 2.13163331e-01 3.31131339e-01 4.24692214e-01 4.99292850e-01 5.52508116e-01 5.86220145e-01 6.05967343e-01 6.17361188e-01 6.24704063e-01 6.31356657e-01 6.40813172e-01 6.57345712e-01 6.84750438e-01 7.24249423e-01 7.72178173e-01 8.12996566e-01 8.23351443e-01 7.68591046e-01 4.43715185e-01 4.76025641e-02 1.07131181e-02 5.30420663e-03 4.48080804e-03 6.10124707e-01 6.16356075e-01 5.74272633e-01 2.61192322e-01 1.14786504e-02 5.08561870e-03 9.56681371e-03 6.99954405e-02 2.27126092e-01 3.53645504e-01 4.45825219e-01 5.16234457e-01 5.64493597e-01 5.95203817e-01 6.15338624e-01 6.30602002e-01 6.44875646e-01 6.61057770e-01 6.81941569e-01 7.10280240e-01 7.47414112e-01 7.90947676e-01 8.30424964e-01 8.41669202e-01 7.61228919e-01 3.71560305e-01 4.68588769e-02 1.68133546e-02 8.77559185e-03 7.71171134e-03 9.38437041e-03 5.95918953e-01 5.90936542e-01 5.74474454e-01 3.51825684e-01 1.55253718e-02 3.87481693e-03 6.11469056e-03 5.88466451e-02 2.48724788e-01 3.84667188e-01 4.70216364e-01 5.30327976e-01 5.69578767e-01 5.95835030e-01 6.16269410e-01 6.35440648e-01 6.56101882e-01 6.80328012e-01 7.09823489e-01 7.45337605e-01 7.85692871e-01 8.26198220e-01 8.55647683e-01 8.48187685e-01 6.94747984e-01 1.75423056e-01 2.84128860e-02 1.53615568e-02 1.21598942e-02 1.42620578e-02 3.59653533e-02 5.82306445e-01 5.65389454e-01 5.67550540e-01 4.29721266e-01 2.65404787e-02 3.12239677e-03 4.09535598e-03 4.45849933e-02 2.74966300e-01 4.19485837e-01 4.93034214e-01 5.38568914e-01 5.67125857e-01 5.88814139e-01 6.09505475e-01 6.31677806e-01 6.56589389e-01 6.85497940e-01 7.19304442e-01 7.57471025e-01 7.97475040e-01 8.34358573e-01 8.58931422e-01 8.49727154e-01 7.19043493e-01 2.58559227e-01 4.33494374e-02 2.80231349e-02 3.27904113e-02 5.96200563e-02 1.96721494e-01 5.69786787e-01 5.40123761e-01 5.55554390e-01 4.85225290e-01 5.80206923e-02 2.79652444e-03 3.09478934e-03 2.95816436e-02 3.04547906e-01 4.53409642e-01 5.10349214e-01 5.39597929e-01 5.57969928e-01 5.75811923e-01 5.96521974e-01 6.20118618e-01 6.46388650e-01 6.76056027e-01 7.09897161e-01 7.47270644e-01 7.85572350e-01 8.20518792e-01 8.45302582e-01 8.45512748e-01 7.78589189e-01 5.25072098e-01 2.24341482e-01 1.76333353e-01 2.49621928e-01 3.93396169e-01 4.95220274e-01 5.59370816e-01 5.15973270e-01 5.39215684e-01 5.18953025e-01 1.43025920e-01 2.84248404e-03 2.64584157e-03 1.72533263e-02 3.37260425e-01 4.82546359e-01 5.19715250e-01 5.33288240e-01 5.43466389e-01 5.58615923e-01 5.79019606e-01 6.02400422e-01 6.27425909e-01 6.54538155e-01 6.84773982e-01 7.18235672e-01 7.53339767e-01 7.87075877e-01 8.14758718e-01 8.27661633e-01 8.09912503e-01 7.39901900e-01 6.49637222e-01 6.44203067e-01 7.07754433e-01 7.62957633e-01 6.85278237e-01 5.52743793e-01 4.95440423e-01 5.18754900e-01 5.36349714e-01 2.97050923e-01 3.38835595e-03 2.40635895e-03 9.26995371e-03 3.73263627e-01 5.03942311e-01 5.19719899e-01 5.19978762e-01 5.24870574e-01 5.38703918e-01 5.58558941e-01 5.80577135e-01 6.02952003e-01 6.25883520e-01 6.50319457e-01 6.76980019e-01 7.05833137e-01 7.35877037e-01 7.64602304e-01 7.86675394e-01 7.94570744e-01 7.85159707e-01 7.72697389e-01 7.80318141e-01 8.00970197e-01 8.20776641e-01 7.35695779e-01 5.52348316e-01 4.83193547e-01 4.95847315e-01 5.35041690e-01 4.43632841e-01 5.03465766e-03 2.04902701e-03 4.78366157e-03 4.12470341e-01 5.14559627e-01 5.09432554e-01 5.00629008e-01 5.03608584e-01 5.17310202e-01 5.36309183e-01 5.56426167e-01 5.76149166e-01 5.95337570e-01 6.14086151e-01 6.32675409e-01 6.51916385e-01 6.72969103e-01 6.96120203e-01 7.18955517e-01 7.36380458e-01 7.44745731e-01 7.47699797e-01 7.53627837e-01 7.63720214e-01 7.74937749e-01 7.14818299e-01 5.62727451e-01 4.87344086e-01 4.84391302e-01 5.11417627e-01 5.35688281e-01 1.06676109e-02 1.62573648e-03 2.55876174e-03 4.54248071e-01 5.11676371e-01 4.89823192e-01 4.78665531e-01 4.82019901e-01 4.95317757e-01 5.12288213e-01 5.29800415e-01 5.47251701e-01 5.64342201e-01 5.80213487e-01 5.93939662e-01 6.05433226e-01 6.15867734e-01 6.26882672e-01 6.38674140e-01 6.48729682e-01 6.53551817e-01 6.53130651e-01 6.53009236e-01 6.58965409e-01 6.69550240e-01 6.58942699e-01 5.94423354e-01 5.31711698e-01 5.24761736e-01 5.22930145e-01 5.38560629e-01 6.57681152e-02 1.19599083e-03 1.65848318e-03 5.03715575e-01 5.00416040e-01 4.71153051e-01 4.59283143e-01 4.60721225e-01 4.70370710e-01 4.83558536e-01 4.98510689e-01 5.15299678e-01 5.33740938e-01 5.52802503e-01 5.70659637e-01 5.84678471e-01 5.91804564e-01 5.89583755e-01 5.77373981e-01 5.57317972e-01 5.34635901e-01 5.16158283e-01 5.06915033e-01 5.07852972e-01 5.26830137e-01 5.91314614e-01 6.22333765e-01 6.11635804e-01 6.12858534e-01 6.13656342e-01 6.07618451e-01 6.66701972e-01 1.86214142e-03 1.47832336e-03 6.54902637e-01 5.67312717e-01 5.59416115e-01 5.50309598e-01 5.46194255e-01 5.46512902e-01 5.49376070e-01 5.53812981e-01 5.60398221e-01 5.69736421e-01 5.81409216e-01 5.93563080e-01 6.03091121e-01 6.06402099e-01 6.00452900e-01 5.83958685e-01 5.59003353e-01 5.32146335e-01 5.12207568e-01 5.04320145e-01 5.06153047e-01 5.11815608e-01 5.59706450e-01 
