# vtk DataFile Version 2.0
results_case1_non_linear/4_density.vtk, Created by Freefem++ 
ASCII
DATASET UNSTRUCTURED_GRID
POINTS 961 float
0 0 0
0.033333333 0 0
0.066666667 0 0
0.1 0 0
0.13333333 0 0
0.16666667 0 0
0.2 0 0
0.23333333 0 0
0.26666667 0 0
0.3 0 0
0.33333333 0 0
0.36666667 0 0
0.4 0 0
0.43333333 0 0
0.46666667 0 0
0.5 0 0
0.53333333 0 0
0.56666667 0 0
0.6 0 0
0.63333333 0 0
0.66666667 0 0
0.7 0 0
0.73333333 0 0
0.76666667 0 0
0.8 0 0
0.83333333 0 0
0.86666667 0 0
0.9 0 0
0.93333333 0 0
0.96666667 0 0
1 0 0
0 0.033333333 0
0.033333333 0.033333333 0
0.066666667 0.033333333 0
0.1 0.033333333 0
0.13333333 0.033333333 0
0.16666667 0.033333333 0
0.2 0.033333333 0
0.23333333 0.033333333 0
0.26666667 0.033333333 0
0.3 0.033333333 0
0.33333333 0.033333333 0
0.36666667 0.033333333 0
0.4 0.033333333 0
0.43333333 0.033333333 0
0.46666667 0.033333333 0
0.5 0.033333333 0
0.53333333 0.033333333 0
0.56666667 0.033333333 0
0.6 0.033333333 0
0.63333333 0.033333333 0
0.66666667 0.033333333 0
0.7 0.033333333 0
0.73333333 0.033333333 0
0.76666667 0.033333333 0
0.8 0.033333333 0
0.83333333 0.033333333 0
0.86666667 0.033333333 0
0.9 0.033333333 0
0.93333333 0.033333333 0
0.96666667 0.033333333 0
1 0.033333333 0
0 0.066666667 0
0.033333333 0.066666667 0
0.066666667 0.066666667 0
0.1 0.066666667 0
0.13333333 0.066666667 0
0.16666667 0.066666667 0
0.2 0.066666667 0
0.23333333 0.066666667 0
0.26666667 0.066666667 0
0.3 0.066666667 0
0.33333333 0.066666667 0
0.36666667 0.066666667 0
0.4 0.066666667 0
0.43333333 0.066666667 0
0.46666667 0.066666667 0
0.5 0.066666667 0
0.53333333 0.066666667 0
0.56666667 0.066666667 0
0.6 0.066666667 0
0.63333333 0.066666667 0
0.66666667 0.066666667 0
0.7 0.066666667 0
0.73333333 0.066666667 0
0.76666667 0.066666667 0
0.8 0.066666667 0
0.83333333 0.066666667 0
0.86666667 0.066666667 0
0.9 0.066666667 0
0.93333333 0.066666667 0
0.96666667 0.066666667 0
1 0.066666667 0
0 0.1 0
0.033333333 0.1 0
0.066666667 0.1 0
0.1 0.1 0
0.13333333 0.1 0
0.16666667 0.1 0
0.2 0.1 0
0.23333333 0.1 0
0.26666667 0.1 0
0.3 0.1 0
0.33333333 0.1 0
0.36666667 0.1 0
0.4 0.1 0
0.43333333 0.1 0
0.46666667 0.1 0
0.5 0.1 0
0.53333333 0.1 0
0.56666667 0.1 0
0.6 0.1 0
0.63333333 0.1 0
0.66666667 0.1 0
0.7 0.1 0
0.73333333 0.1 0
0.76666667 0.1 0
0.8 0.1 0
0.83333333 0.1 0
0.86666667 0.1 0
0.9 0.1 0
0.93333333 0.1 0
0.96666667 0.1 0
1 0.1 0
0 0.13333333 0
0.033333333 0.13333333 0
0.066666667 0.13333333 0
0.1 0.13333333 0
0.13333333 0.13333333 0
0.16666667 0.13333333 0
0.2 0.13333333 0
0.23333333 0.13333333 0
0.26666667 0.13333333 0
0.3 0.13333333 0
0.33333333 0.13333333 0
0.36666667 0.13333333 0
0.4 0.13333333 0
0.43333333 0.13333333 0
0.46666667 0.13333333 0
0.5 0.13333333 0
0.53333333 0.13333333 0
0.56666667 0.13333333 0
0.6 0.13333333 0
0.63333333 0.13333333 0
0.66666667 0.13333333 0
0.7 0.13333333 0
0.73333333 0.13333333 0
0.76666667 0.13333333 0
0.8 0.13333333 0
0.83333333 0.13333333 0
0.86666667 0.13333333 0
0.9 0.13333333 0
0.93333333 0.13333333 0
0.96666667 0.13333333 0
1 0.13333333 0
0 0.16666667 0
0.033333333 0.16666667 0
0.066666667 0.16666667 0
0.1 0.16666667 0
0.13333333 0.16666667 0
0.16666667 0.16666667 0
0.2 0.16666667 0
0.23333333 0.16666667 0
0.26666667 0.16666667 0
0.3 0.16666667 0
0.33333333 0.16666667 0
0.36666667 0.16666667 0
0.4 0.16666667 0
0.43333333 0.16666667 0
0.46666667 0.16666667 0
0.5 0.16666667 0
0.53333333 0.16666667 0
0.56666667 0.16666667 0
0.6 0.16666667 0
0.63333333 0.16666667 0
0.66666667 0.16666667 0
0.7 0.16666667 0
0.73333333 0.16666667 0
0.76666667 0.16666667 0
0.8 0.16666667 0
0.83333333 0.16666667 0
0.86666667 0.16666667 0
0.9 0.16666667 0
0.93333333 0.16666667 0
0.96666667 0.16666667 0
1 0.16666667 0
0 0.2 0
0.033333333 0.2 0
0.066666667 0.2 0
0.1 0.2 0
0.13333333 0.2 0
0.16666667 0.2 0
0.2 0.2 0
0.23333333 0.2 0
0.26666667 0.2 0
0.3 0.2 0
0.33333333 0.2 0
0.36666667 0.2 0
0.4 0.2 0
0.43333333 0.2 0
0.46666667 0.2 0
0.5 0.2 0
0.53333333 0.2 0
0.56666667 0.2 0
0.6 0.2 0
0.63333333 0.2 0
0.66666667 0.2 0
0.7 0.2 0
0.73333333 0.2 0
0.76666667 0.2 0
0.8 0.2 0
0.83333333 0.2 0
0.86666667 0.2 0
0.9 0.2 0
0.93333333 0.2 0
0.96666667 0.2 0
1 0.2 0
0 0.23333333 0
0.033333333 0.23333333 0
0.066666667 0.23333333 0
0.1 0.23333333 0
0.13333333 0.23333333 0
0.16666667 0.23333333 0
0.2 0.23333333 0
0.23333333 0.23333333 0
0.26666667 0.23333333 0
0.3 0.23333333 0
0.33333333 0.23333333 0
0.36666667 0.23333333 0
0.4 0.23333333 0
0.43333333 0.23333333 0
0.46666667 0.23333333 0
0.5 0.23333333 0
0.53333333 0.23333333 0
0.56666667 0.23333333 0
0.6 0.23333333 0
0.63333333 0.23333333 0
0.66666667 0.23333333 0
0.7 0.23333333 0
0.73333333 0.23333333 0
0.76666667 0.23333333 0
0.8 0.23333333 0
0.83333333 0.23333333 0
0.86666667 0.23333333 0
0.9 0.23333333 0
0.93333333 0.23333333 0
0.96666667 0.23333333 0
1 0.23333333 0
0 0.26666667 0
0.033333333 0.26666667 0
0.066666667 0.26666667 0
0.1 0.26666667 0
0.13333333 0.26666667 0
0.16666667 0.26666667 0
0.2 0.26666667 0
0.23333333 0.26666667 0
0.26666667 0.26666667 0
0.3 0.26666667 0
0.33333333 0.26666667 0
0.36666667 0.26666667 0
0.4 0.26666667 0
0.43333333 0.26666667 0
0.46666667 0.26666667 0
0.5 0.26666667 0
0.53333333 0.26666667 0
0.56666667 0.26666667 0
0.6 0.26666667 0
0.63333333 0.26666667 0
0.66666667 0.26666667 0
0.7 0.26666667 0
0.73333333 0.26666667 0
0.76666667 0.26666667 0
0.8 0.26666667 0
0.83333333 0.26666667 0
0.86666667 0.26666667 0
0.9 0.26666667 0
0.93333333 0.26666667 0
0.96666667 0.26666667 0
1 0.26666667 0
0 0.3 0
0.033333333 0.3 0
0.066666667 0.3 0
0.1 0.3 0
0.13333333 0.3 0
0.16666667 0.3 0
0.2 0.3 0
0.23333333 0.3 0
0.26666667 0.3 0
0.3 0.3 0
0.33333333 0.3 0
0.36666667 0.3 0
0.4 0.3 0
0.43333333 0.3 0
0.46666667 0.3 0
0.5 0.3 0
0.53333333 0.3 0
0.56666667 0.3 0
0.6 0.3 0
0.63333333 0.3 0
0.66666667 0.3 0
0.7 0.3 0
0.73333333 0.3 0
0.76666667 0.3 0
0.8 0.3 0
0.83333333 0.3 0
0.86666667 0.3 0
0.9 0.3 0
0.93333333 0.3 0
0.96666667 0.3 0
1 0.3 0
0 0.33333333 0
0.033333333 0.33333333 0
0.066666667 0.33333333 0
0.1 0.33333333 0
0.13333333 0.33333333 0
0.16666667 0.33333333 0
0.2 0.33333333 0
0.23333333 0.33333333 0
0.26666667 0.33333333 0
0.3 0.33333333 0
0.33333333 0.33333333 0
0.36666667 0.33333333 0
0.4 0.33333333 0
0.43333333 0.33333333 0
0.46666667 0.33333333 0
0.5 0.33333333 0
0.53333333 0.33333333 0
0.56666667 0.33333333 0
0.6 0.33333333 0
0.63333333 0.33333333 0
0.66666667 0.33333333 0
0.7 0.33333333 0
0.73333333 0.33333333 0
0.76666667 0.33333333 0
0.8 0.33333333 0
0.83333333 0.33333333 0
0.86666667 0.33333333 0
0.9 0.33333333 0
0.93333333 0.33333333 0
0.96666667 0.33333333 0
1 0.33333333 0
0 0.36666667 0
0.033333333 0.36666667 0
0.066666667 0.36666667 0
0.1 0.36666667 0
0.13333333 0.36666667 0
0.16666667 0.36666667 0
0.2 0.36666667 0
0.23333333 0.36666667 0
0.26666667 0.36666667 0
0.3 0.36666667 0
0.33333333 0.36666667 0
0.36666667 0.36666667 0
0.4 0.36666667 0
0.43333333 0.36666667 0
0.46666667 0.36666667 0
0.5 0.36666667 0
0.53333333 0.36666667 0
0.56666667 0.36666667 0
0.6 0.36666667 0
0.63333333 0.36666667 0
0.66666667 0.36666667 0
0.7 0.36666667 0
0.73333333 0.36666667 0
0.76666667 0.36666667 0
0.8 0.36666667 0
0.83333333 0.36666667 0
0.86666667 0.36666667 0
0.9 0.36666667 0
0.93333333 0.36666667 0
0.96666667 0.36666667 0
1 0.36666667 0
0 0.4 0
0.033333333 0.4 0
0.066666667 0.4 0
0.1 0.4 0
0.13333333 0.4 0
0.16666667 0.4 0
0.2 0.4 0
0.23333333 0.4 0
0.26666667 0.4 0
0.3 0.4 0
0.33333333 0.4 0
0.36666667 0.4 0
0.4 0.4 0
0.43333333 0.4 0
0.46666667 0.4 0
0.5 0.4 0
0.53333333 0.4 0
0.56666667 0.4 0
0.6 0.4 0
0.63333333 0.4 0
0.66666667 0.4 0
0.7 0.4 0
0.73333333 0.4 0
0.76666667 0.4 0
0.8 0.4 0
0.83333333 0.4 0
0.86666667 0.4 0
0.9 0.4 0
0.93333333 0.4 0
0.96666667 0.4 0
1 0.4 0
0 0.43333333 0
0.033333333 0.43333333 0
0.066666667 0.43333333 0
0.1 0.43333333 0
0.13333333 0.43333333 0
0.16666667 0.43333333 0
0.2 0.43333333 0
0.23333333 0.43333333 0
0.26666667 0.43333333 0
0.3 0.43333333 0
0.33333333 0.43333333 0
0.36666667 0.43333333 0
0.4 0.43333333 0
0.43333333 0.43333333 0
0.46666667 0.43333333 0
0.5 0.43333333 0
0.53333333 0.43333333 0
0.56666667 0.43333333 0
0.6 0.43333333 0
0.63333333 0.43333333 0
0.66666667 0.43333333 0
0.7 0.43333333 0
0.73333333 0.43333333 0
0.76666667 0.43333333 0
0.8 0.43333333 0
0.83333333 0.43333333 0
0.86666667 0.43333333 0
0.9 0.43333333 0
0.93333333 0.43333333 0
0.96666667 0.43333333 0
1 0.43333333 0
0 0.46666667 0
0.033333333 0.46666667 0
0.066666667 0.46666667 0
0.1 0.46666667 0
0.13333333 0.46666667 0
0.16666667 0.46666667 0
0.2 0.46666667 0
0.23333333 0.46666667 0
0.26666667 0.46666667 0
0.3 0.46666667 0
0.33333333 0.46666667 0
0.36666667 0.46666667 0
0.4 0.46666667 0
0.43333333 0.46666667 0
0.46666667 0.46666667 0
0.5 0.46666667 0
0.53333333 0.46666667 0
0.56666667 0.46666667 0
0.6 0.46666667 0
0.63333333 0.46666667 0
0.66666667 0.46666667 0
0.7 0.46666667 0
0.73333333 0.46666667 0
0.76666667 0.46666667 0
0.8 0.46666667 0
0.83333333 0.46666667 0
0.86666667 0.46666667 0
0.9 0.46666667 0
0.93333333 0.46666667 0
0.96666667 0.46666667 0
1 0.46666667 0
0 0.5 0
0.033333333 0.5 0
0.066666667 0.5 0
0.1 0.5 0
0.13333333 0.5 0
0.16666667 0.5 0
0.2 0.5 0
0.23333333 0.5 0
0.26666667 0.5 0
0.3 0.5 0
0.33333333 0.5 0
0.36666667 0.5 0
0.4 0.5 0
0.43333333 0.5 0
0.46666667 0.5 0
0.5 0.5 0
0.53333333 0.5 0
0.56666667 0.5 0
0.6 0.5 0
0.63333333 0.5 0
0.66666667 0.5 0
0.7 0.5 0
0.73333333 0.5 0
0.76666667 0.5 0
0.8 0.5 0
0.83333333 0.5 0
0.86666667 0.5 0
0.9 0.5 0
0.93333333 0.5 0
0.96666667 0.5 0
1 0.5 0
0 0.53333333 0
0.033333333 0.53333333 0
0.066666667 0.53333333 0
0.1 0.53333333 0
0.13333333 0.53333333 0
0.16666667 0.53333333 0
0.2 0.53333333 0
0.23333333 0.53333333 0
0.26666667 0.53333333 0
0.3 0.53333333 0
0.33333333 0.53333333 0
0.36666667 0.53333333 0
0.4 0.53333333 0
0.43333333 0.53333333 0
0.46666667 0.53333333 0
0.5 0.53333333 0
0.53333333 0.53333333 0
0.56666667 0.53333333 0
0.6 0.53333333 0
0.63333333 0.53333333 0
0.66666667 0.53333333 0
0.7 0.53333333 0
0.73333333 0.53333333 0
0.76666667 0.53333333 0
[...]
CELL_DATA 1920
Scalars  Label int 1
LOOKUP_TABLE FreeFempp_table
0
0
0
0
0
0
0
0
0
0
0
0
0
0
0
0
0
0
0
0
0
0
0
0
0
0
0
0
0
0
0
0
0
0
0
0
0
0
0
0
0
0
0
0
0
0
0
0
0
0
0
0
0
0
0
0
0
0
0
0
0
0
0
0
0
0
0
0
0
0
0
0
0
0
0
0
0
0
0
0
0
0
0
0
0
0
0
0
0
0
0
0
0
0
0
0
0
0
0
0
0
0
0
0
0
0
0
0
0
0
0
0
0
0
0
0
0
0
0
0
0
0
0
0
0
0
0
0
0
0
0
0
0
0
0
0
0
0
0
0
0
0
0
0
0
0
0
0
0
0
0
0
0
0
0
0
0
0
0
0
0
0
0
0
0
0
0
0
0
0
0
0
0
0
0
0
0
0
0
0
0
0
0
0
0
0
0
0
0
0
0
0
0
0
0
0
0
0
0
0
0
0
0
0
0
0
0
0
0
0
0
0
0
0
0
0
0
0
0
0
0
0
0
0
0
0
0
0
0
0
0
0
0
0
0
0
0
0
0
0
0
0
0
0
0
0
0
0
0
0
0
0
0
0
0
0
0
0
0
0
0
0
0
0
0
0
0
0
0
0
0
0
0
0
0
0
0
0
0
0
0
0
0
0
0
0
0
0
0
0
0
0
0
0
0
0
0
0
0
0
0
0
0
0
0
0
0
0
0
0
0
0
0
0
0
0
0
0
0
0
0
0
0
0
0
0
0
0
0
0
0
0
0
0
0
0
0
0
0
0
0
0
0
0
0
0
0
0
0
0
0
0
0
0
0
0
0
0
0
0
0
0
0
0
0
0
0
0
0
0
0
0
0
0
0
0
0
0
0
0
0
0
0
0
0
0
0
0
0
0
0
0
0
0
0
0
0
0
0
0
0
0
0
0
0
0
0
0
0
0
0
0
0
0
0
0
0
0
0
0
0
0
0
0
0
0
0
0
0
0
0
0
0
0
0
0
0
0
0
0
0
0
0
0
0
0
0
0
0
0
0
0
0
0
0
0
0
0
0
0
0
0
0
0
0
0
0
0
0
0
0
0
0
0
0
0
0
0
0
0
0
0
0
0
0
0
0
0
0
0
0
0
0
0
0
0
0
0
0
0
0
0
0
0
0
0
0
0
0
0
0
0
0
0
0
0
0
0
0
0
0
0
0
0
0
0
0
0
0
0
0
0
0
0
0
0
0
0
0
0
0
0
0
0
0
0
0
0
0
0
0
0
0
0
0
0
0
0
0
0
0
0
0
0
0
0
0
0
0
0
0
0
0
0
0
0
0
0
0
0
0
0
0
0
0
0
0
0
0
0
0
0
0
0
0
0
0
0
0
0
0
0
0
0
0
0
0
0
0
0
0
0
0
0
0
0
0
0
0
0
0
0
0
0
0
0
0
0
0
0
0
0
0
0
0
0
0
0
0
0
0
0
0
0
0
0
0
0
0
0
0
0
0
0
0
0
0
0
0
0
0
0
0
0
0
0
0
0
0
0
0
0
0
0
0
0
0
0
0
0
0
0
0
0
0
0
0
0
0
0
0
0
0
0
0
0
0
0
0
0
0
0
0
0
0
0
0
0
0
0
0
0
0
0
0
0
0
0
0
0
0
0
0
0
0
0
0
0
0
0
0
0
0
0
0
0
0
0
0
0
0
0
0
0
0
0
0
0
0
0
0
0
0
0
0
0
0
0
0
0
0
0
0
0
0
0
0
0
0
0
0
0
0
0
0
0
0
0
0
0
0
0
0
0
0
0
0
0
0
0
0
0
0
0
0
0
0
0
0
0
0
0
0
0
0
0
0
0
0
0
0
0
0
0
0
0
0
0
0
0
0
0
0
0
0
0
0
0
0
0
0
0
0
0
0
0
0
0
0
0
0
0
0
0
0
0
0
0
0
0
0
0
0
0
0
0
0
0
0
0
0
0
0
0
0
0
0
0
0
0
0
0
0
0
0
0
0
0
0
0
0
0
0
0
0
0
0
0
0
0
0
0
0
0
0
0
0
0
0
0
0
0
0
0
0
0
0
0
0
0
0
0
0
0
0
0
0
0
0
0
0
0
0
0
0
0
0
0
0
0
0
0
0
0
0
0
0
0
0
0
0
0
0
0
0
0
0
0
0
0
0
0
0
0
0
0
0
0
0
0
0
0
0
0
0
0
0
0
0
0
0
0
0
0
0
0
0
0
0
0
0
0
0
0
0
0
0
0
0
0
0
0
0
0
0
0
0
0
0
0
0
0
0
0
0
0
0
0
0
0
0
0
0
0
0
0
0
0
0
0
0
0
0
0
0
0
0
0
0
0
0
0
0
0
0
0
0
0
0
0
0
0
0
0
0
0
0
0
0
0
0
0
0
0
0
0
0
0
0
0
0
0
0
0
0
0
0
0
0
0
0
0
0
0
0
0
0
0
0
0
0
0
0
0
0
0
0
0
0
0
0
0
0
0
0
0
0
0
0
0
0
0
0
0
0
0
0
0
0
0
0
0
0
0
0
0
0
0
0
0
0
0
0
0
0
0
0
0
0
0
0
0
0
0
0
0
0
0
0
0
0
0
0
0
0
0
0
0
0
0
0
0
0
0
0
0
0
0
0
0
0
0
0
0
0
0
0
0
0
0
0
0
0
0
0
0
0
0
0
0
0
0
0
0
0
0
0
0
0
0
0
0
0
0
0
0
0
0
0
0
0
0
0
0
0
0
0
0
0
0
0
0
0
0
0
0
0
0
0
0
0
0
0
0
0
0
0
0
0
0
0
0
0
0
0
0
0
0
0
0
0
0
0
0
0
0
0
0
0
0
0
0
0
0
0
0
0
0
0
0
0
0
0
0
0
0
0
0
0
0
0
0
0
0
0
0
0
0
0
0
0
0
0
0
0
0
0
0
0
0
0
0
0
0
0
0
0
0
0
0
0
0
0
0
0
0
0
0
0
0
0
0
0
0
0
0
0
0
0
0
0
0
0
0
0
0
0
0
0
0
0
0
0
0
0
0
0
0
0
0
0
0
0
0
0
0
0
0
0
0
0
0
0
0
0
0
0
0
0
0
0
0
0
0
0
0
0
0
0
0
0
0
0
0
0
0
0
0
0
0
0
0
0
0
0
0
0
0
0
0
0
0
0
0
0
0
0
0
0
0
0
0
0
0
0
0
0
0
0
0
0
0
0
0
0
0
0
0
0
0
0
0
0
0
0
0
0
0
0
0
0
0
0
0
0
0
0
0
0
0
0
0
0
0
0
0
0
0
0
0
0
0
0
0
0
0
0
0
0
0
0
0
0
0
0
0
0
0
0
0
0
0
0
0
0
0
0
0
0
0
0
0
0
0
0
0
0
0
0
0
0
0
0
0
0
0
0
0
0
0
0
0
0
0
0
0
0
0
0
0
0
0
0
0
0
0
0
0
0
0
0
0
0
0
0
0
0
0
0
0
0
0
0
0
0
0
0
0
0
0
0
0
0
0
0
0
0
0
0
0
0
0
0
0
0
0
0
0
0
0
0
0
0
0
0
0
0
0
0
0
0
0
0
0
0
0
0
0
0
0
0
0
0
0
0
0
0
0
0
0
0
0
0
0
0
0
0
0
0
0
0
0
0
0
0
0
0
0
0
0
0
0
0
0
0
0
0
0
0
0
0
0
0
0
0
0
0
0
0
0
0
0
0
0
0
0
0
0
0
0
0
0
0
0
0
0
0
0
0
0
0
0
0
0
0
0
0
0
0
0
0
0
0
0
0
0
0
0
0
0
0
0
0
0
0
0
0
0
0
0
0
0
0
0
0
0
0
0
0
0
0
0
0
0
0
0
0
0
0
0
0
0
0
0
0
0
0
0
0
0
0
0
0
0
0
0
0
0
0
0
0
0
0
0
0
0
0
0
0
0
0
0
0
0
0
0
0
0
0
0
0
0
0
0
0
0
0
0
0
0
0
0
0
0
0
0
0
0
0
0
0
0
0
0
0
0
0
0
0
0
0
0
0
0
0
0
0
0
0
0
0
0
0
0
0
0
0
0
0
0
0
0
0
0
0
0
0
0
0
0
1
1
1
1
1
1
1
1
1
1
1
1
1
1
1
1
1
1
1
1
1
1
1
1
1
1
1
1
1
1
2
2
2
2
2
2
2
2
2
2
2
2
2
2
2
2
2
2
2
2
2
2
2
2
2
2
2
2
2
2
3
3
3
3
3
3
3
3
3
3
3
3
3
3
3
3
3
3
3
3
3
3
3
3
3
3
3
3
3
3
4
4
4
4
4
4
4
4
4
4
4
4
4
4
4
4
4
4
4
4
4
4
4
4
4
4
4
4
4
4

LOOKUP_TABLE FreeFempp_table 5
1.00000000 0.00000000 0.00000000 1.00000000
1.00000000 1.00000000 0.00000000 1.00000000
1.00000000 0.00000000 1.00000000 1.00000000
0.00000000 1.00000000 0.00000000 1.00000000
0.00000000 1.00000000 1.00000000 1.00000000

POINT_DATA 961
FIELD FieldData 1
Density 1 961 float
5.87829709e-01 5.57586014e-01 5.56877136e-01 5.56473434e-01 5.56134820e-01 5.55780292e-01 5.55428088e-01 5.55108428e-01 5.54759264e-01 5.54590821e-01 5.52853882e-01 4.07393247e-01 1.02300895e-03 1.54538534e-03 6.93033814e-01 8.23894918e-01 8.36775005e-01 7.30510175e-01 5.79847693e-01 5.38644493e-01 5.69400370e-01 6.05026484e-01 6.27770007e-01 6.41031742e-01 6.47200882e-01 6.49640858e-01 6.51068330e-01 6.52321637e-01 6.53541267e-01 6.55242264e-01 6.48450613e-01 5.48124075e-01 4.68159050e-01 4.67755139e-01 4.67675656e-01 4.67470378e-01 4.67112720e-01 4.66650099e-01 4.66116279e-01 4.65756118e-01 4.65843141e-01 4.64067400e-01 4.13235009e-01 1.05641468e-03 8.67034134e-04 6.34295940e-01 8.95440817e-01 9.36137855e-01 8.61959457e-01 6.05669081e-01 4.59152400e-01 4.93048877e-01 5.64463198e-01 6.13257647e-01 6.40684247e-01 6.50805533e-01 6.54294610e-01 6.55808210e-01 6.57647014e-01 6.59945309e-01 6.61965966e-01 6.55219138e-01 2.77722109e-04 2.55905237e-04 2.57577543e-04 2.59408960e-04 2.60532135e-04 2.61350244e-04 2.63554859e-04 2.66780029e-04 2.71230529e-04 2.75816245e-04 2.80694076e-04 2.84729613e-04 2.80853885e-04 2.39146626e-04 5.55235147e-01 8.85709286e-01 9.41313148e-01 8.44655752e-01 5.32873094e-01 4.55098063e-01 5.38031399e-01 6.22420192e-01 6.67977512e-01 6.88115299e-01 6.84913874e-01 6.67398989e-01 6.56803191e-01 6.51133120e-01 6.48826957e-01 6.45671964e-01 6.48832440e-01 3.55247990e-04 2.41258371e-04 2.57684587e-04 2.58223357e-04 2.59645341e-04 2.60437926e-04 2.61510548e-04 2.64154514e-04 2.67759548e-04 2.72307807e-04 2.76755658e-04 2.80706998e-04 2.94917932e-04 1.98828580e-04 1.97850706e-04 8.76016259e-01 9.62327242e-01 7.87465274e-01 2.23713338e-01 3.08049351e-01 5.23584723e-01 6.53005779e-01 6.94937468e-01 7.16267765e-01 7.13548839e-01 6.86103761e-01 6.46845996e-01 6.28789425e-01 6.20647371e-01 6.11883819e-01 6.33885503e-01 3.40781391e-01 1.14232689e-01 6.84757456e-02 5.13216034e-02 5.31706624e-02 7.98310265e-02 1.32916600e-01 2.02603638e-01 2.76264101e-01 3.42817008e-01 3.95273298e-01 4.30501163e-01 4.47159350e-01 4.26813394e-01 1.97441914e-04 2.05008386e-04 9.87735033e-01 8.46592307e-01 2.30649766e-02 3.69788595e-02 1.17303409e-01 3.12835097e-01 3.66657674e-01 3.93269807e-01 4.65152323e-01 5.84571183e-01 6.05989754e-01 5.79787314e-01 5.69090962e-01 5.59594870e-01 6.09256387e-01 4.07380879e-01 1.43326104e-01 7.89049119e-02 5.79716265e-02 5.57486117e-02 7.72094801e-02 1.26353204e-01 1.93000466e-01 2.60405600e-01 3.17424357e-01 3.61906081e-01 3.97424996e-01 4.27511722e-01 4.50439870e-01 4.55959886e-01 2.10133134e-04 2.15963795e-04 9.97998476e-01 3.62251475e-02 1.03402939e-02 4.22344403e-03 2.68141855e-03 2.27784761e-03 2.34566489e-03 3.30444472e-03 8.38845503e-03 3.63381594e-01 5.13191342e-01 5.11865079e-01 5.05250335e-01 5.80153644e-01 5.40646255e-01 2.90374964e-01 1.84392616e-01 1.32448375e-01 1.18338726e-01 1.37575790e-01 1.85622141e-01 2.42899224e-01 2.90785939e-01 3.24290484e-01 3.48050535e-01 3.69376659e-01 3.92554313e-01 4.14221674e-01 4.26823825e-01 4.82784444e-03 2.25527634e-04 3.08406481e-04 9.89793003e-01 1.41684525e-02 4.88012750e-03 2.53816298e-03 1.76593231e-03 1.29651814e-03 8.69558018e-04 6.45354390e-04 5.37843036e-04 2.32054606e-01 4.66157496e-01 4.67187017e-01 5.55619478e-01 7.57150829e-01 6.87853813e-01 5.66973865e-01 4.34162647e-01 3.44439864e-01 3.14027697e-01 3.21567237e-01 3.39508355e-01 3.52442831e-01 3.58341932e-01 3.61213595e-01 3.66000742e-01 3.74594152e-01 3.81799698e-01 3.81259829e-01 2.85261184e-01 3.04764428e-04 3.20671970e-04 9.96896148e-01 3.37091982e-02 1.11080008e-02 6.47745002e-03 4.38729767e-03 2.78727710e-03 1.59253343e-03 8.50377779e-04 3.91986599e-04 3.68841691e-04 2.21836671e-01 4.35137391e-01 5.34239888e-01 8.96630704e-01 9.46358562e-01 9.19828773e-01 8.74414742e-01 7.95998454e-01 7.04885721e-01 6.27111733e-01 5.67755759e-01 5.20492375e-01 4.80985701e-01 4.48489994e-01 4.23590243e-01 4.04855877e-01 3.83993357e-01 3.46848994e-01 3.37037832e-01 3.27749731e-04 2.68206786e-04 4.05376136e-01 8.26068223e-01 6.98369145e-02 7.75902271e-02 1.55726969e-01 1.66169897e-01 1.51706815e-01 1.75787896e-01 7.97117427e-02 3.68519046e-04 3.51018098e-04 2.79719114e-01 4.80576992e-01 9.15388346e-01 9.77976561e-01 9.70654130e-01 9.66927052e-01 9.53586459e-01 9.26735401e-01 8.85579109e-01 8.33299041e-01 7.73970246e-01 7.10988164e-01 6.47427678e-01 5.86022735e-01 5.27742088e-01 4.66342896e-01 3.88485700e-01 3.24777931e-01 7.01724959e-04 2.78517313e-04 6.84793747e-04 6.61201656e-01 9.38301980e-01 7.91557014e-01 6.33159041e-01 5.09315968e-01 4.18026447e-01 3.77087235e-01 3.42326611e-01 1.18213044e-02 3.59516474e-04 5.04505530e-04 1.96025655e-01 8.62301290e-01 9.56199706e-01 8.76856923e-01 9.34937000e-01 9.63412344e-01 9.62768912e-01 9.51581419e-01 9.32972014e-01 9.07644093e-01 8.75790775e-01 8.36964250e-01 7.89577067e-01 7.30655789e-01 6.53649688e-01 5.46700418e-01 4.20584857e-01 3.00368398e-01 2.89002259e-04 2.54976621e-04 2.48171151e-01 8.09117317e-01 9.08886611e-01 8.74545157e-01 7.68368721e-01 5.88846743e-01 4.45775092e-01 3.59529644e-01 1.21922381e-01 5.27765893e-04 5.23425813e-04 1.07829291e-02 8.01773727e-01 8.34878623e-01 1.08632177e-01 1.16997041e-01 7.46446788e-01 9.29928303e-01 9.49254215e-01 9.47135031e-01 9.38160181e-01 9.25653040e-01 9.10842776e-01 8.93203914e-01 8.69840682e-01 8.34143937e-01 7.71131456e-01 6.64461732e-01 5.32500803e-01 2.18444709e-02 2.47963035e-04 2.64250819e-04 4.82132286e-01 7.74876118e-01 8.64400625e-01 8.79201651e-01 8.23289931e-01 6.19281173e-01 2.71873564e-01 2.00618804e-01 6.10933290e-04 5.17623033e-04 3.68794147e-03 7.87863851e-01 7.84132183e-01 3.75682190e-02 1.27783604e-02 7.39344656e-02 6.33589387e-01 8.72200966e-01 9.15903449e-01 9.24776912e-01 9.23561692e-01 9.19509172e-01 9.15541112e-01 9.11775231e-01 9.05868113e-01 8.92105162e-01 8.61466885e-01 8.12963963e-01 6.37659907e-01 1.00849429e-02 2.78355554e-04 2.90710101e-04 5.01217425e-01 7.17624009e-01 8.60367835e-01 9.25747812e-01 8.37821126e-01 3.04713994e-01 2.14655980e-01 6.86273503e-04 5.97961072e-04 3.28938104e-03 7.76567698e-01 8.21987808e-01 7.39848763e-02 6.99703768e-03 1.26030538e-02 1.72789782e-01 6.15585983e-01 7.99096882e-01 8.62036347e-01 8.84433687e-01 8.91810775e-01 8.95189047e-01 9.00083482e-01 9.08109069e-01 9.16614532e-01 9.19285119e-01 9.17874217e-01 9.10038054e-01 7.66754568e-01 1.42650902e-02 3.03879380e-04 3.21417465e-04 2.43660986e-01 5.01302242e-01 7.41803885e-01 2.14814022e-03 1.43025331e-02 5.70614278e-01 7.46566511e-04 6.73663919e-04 4.38374048e-03 7.58768797e-01 8.21057975e-01 2.16827840e-01 5.85155422e-03 5.94086014e-03 3.87404896e-02 3.06677938e-01 5.77246785e-01 7.20808685e-01 7.95106530e-01 8.30198348e-01 8.45717013e-01 8.54085326e-01 8.64692211e-01 8.83785486e-01 9.07750487e-01 9.27572489e-01 9.42726552e-01 9.50954974e-01 8.91284645e-01 1.47381201e-01 3.35978402e-04 3.71287606e-04 1.15646620e-03 2.10175710e-03 2.98345042e-03 4.83952556e-03 9.90407288e-01 8.11812701e-04 7.28056126e-04 5.19801397e-03 7.36605704e-01 8.02914202e-01 3.63988817e-01 6.18251832e-03 3.95215861e-03 1.33155202e-02 1.38835594e-01 3.69163990e-01 5.35563946e-01 6.53131425e-01 7.29998648e-01 7.73957431e-01 7.95885801e-01 8.05570424e-01 8.14827621e-01 8.35791826e-01 8.74161363e-01 9.18176293e-01 9.47534919e-01 9.60144758e-01 9.52200413e-01 7.23046958e-01 4.96153487e-04 6.69807137e-04 1.05141010e-03 1.66393153e-03 3.53546301e-03 9.94068623e-01 8.92368669e-04 7.81311479e-04 5.44425845e-03 7.10769892e-01 7.72850394e-01 4.66048568e-01 7.93212652e-03 2.80502462e-03 6.07175985e-03 6.90419301e-02 2.45944366e-01 3.94699365e-01 5.12233853e-01 6.09114051e-01 6.80982828e-01 7.27707863e-01 7.53220856e-01 7.62111783e-01 7.62667418e-01 7.70319045e-01 8.10489476e-01 8.84343624e-01 9.31308329e-01 9.56754327e-01 9.67849672e-01 9.66621578e-01 3.60718020e-03 2.61474121e-03 2.37795548e-03 4.07899823e-03 9.98138845e-01 9.74618946e-04 8.39682005e-04 5.92329539e-03 6.86096013e-01 7.34837890e-01 5.63137293e-01 1.39043937e-02 2.03343038e-03 3.21611459e-03 3.72641571e-02 1.89018458e-01 3.21107715e-01 4.22742248e-01 5.13564825e-01 5.92048287e-01 6.52625024e-01 6.94622815e-01 7.19149888e-01 7.24871695e-01 7.11490273e-01 6.96432054e-01 7.22905099e-01 8.02759707e-01 8.71518433e-01 9.25622344e-01 9.67937291e-01 9.82354999e-01 9.83307958e-01 7.92803764e-01 4.40022871e-02 9.97688174e-01 1.02664647e-03 9.02581727e-04 7.36043835e-03 6.64089859e-01 6.94160461e-01 6.10176742e-01 4.55118567e-02 1.68402714e-03 1.99104520e-03 2.02010926e-02 1.73405737e-01 2.98849523e-01 3.85150105e-01 4.62992460e-01 5.34953594e-01 5.95298648e-01 6.41355872e-01 6.74113929e-01 6.93797588e-01 6.92149043e-01 6.60595894e-01 6.24753058e-01 6.30846262e-01 6.74034357e-01 7.18407035e-01 7.90029883e-01 8.84095788e-01 9.19946492e-01 8.58361065e-01 8.81088436e-01 9.96097147e-01 1.05833099e-03 9.63447732e-04 1.08914617e-02 6.45338178e-01 6.54671848e-01 6.16579473e-01 2.04963773e-01 1.75036350e-03 1.50504243e-03 9.71700996e-03 1.88696131e-01 3.12406540e-01 3.83127540e-01 4.48052108e-01 5.10706902e-01 5.65904319e-01 6.10192895e-01 6.43332720e-01 6.67381823e-01 6.80759907e-01 6.68555140e-01 6.22996092e-01 5.86332321e-01 5.92330575e-01 5.98621607e-01 5.72116733e-01 5.74070632e-01 6.72369778e-01 8.49097431e-01 9.83903408e-01 9.92295563e-01 1.11945579e-03 1.03037280e-03 1.86787359e-02 6.29550576e-01 6.20049894e-01 6.03521109e-01 4.22004282e-01 2.38591828e-03 1.16576825e-03 3.86748230e-03 2.32577339e-01 3.48112077e-01 4.01038766e-01 4.53822553e-01 5.07527709e-01 5.56907296e-01 5.98492086e-01 6.30955696e-01 6.55248761e-01 6.73811376e-01 6.81689084e-01 6.61498368e-01 6.20818913e-01 6.15535736e-01 6.45766556e-01 6.51296437e-01 6.65635526e-01 8.09480369e-01 9.57112014e-01 9.87073123e-01 8.57962847e-01 1.24584569e-03 1.12781918e-03 3.28282453e-02 6.16585672e-01 5.91644347e-01 5.86076915e-01 5.11393785e-01 5.17416745e-03 8.65573820e-04 1.57332618e-03 2.95510769e-01 3.90091568e-01 4.25976247e-01 4.68315035e-01 5.14112592e-01 5.57928622e-01 5.96539259e-01 6.28348649e-01 6.53492749e-01 6.74796581e-01 6.95174336e-01 7.07715213e-01 7.04358220e-01 7.16691434e-01 7.80112267e-01 8.47084224e-01 8.96086514e-01 9.52977538e-01 9.81021821e-01 9.64330912e-01 6.96196780e-03 1.37928803e-03 1.25033024e-03 6.69033378e-02 6.05893731e-01 5.69060802e-01 5.69189250e-01 5.37076592e-01 5.24172261e-02 7.21337914e-04 9.00491723e-04 3.46306860e-01 4.24931139e-01 4.49472219e-01 4.83815134e-01 5.22742510e-01 5.61242938e-01 5.96451521e-01 6.26978099e-01 6.53183818e-01 6.78151548e-01 7.08088219e-01 7.46519089e-01 7.87947774e-01 8.34199905e-01 8.93510997e-01 9.33473647e-01 9.19067085e-01 7.91298628e-01 1.73651338e-01 7.09197577e-03 2.89463508e-03 2.09635403e-03 1.85263087e-03 1.54283524e-01 5.96304536e-01 5.50190628e-01 5.54919302e-01 5.41856587e-01 3.07920784e-01 6.81104022e-04 7.42922653e-04 3.66458535e-01 4.48674321e-01 4.68167037e-01 4.96229857e-01 5.28784990e-01 5.61850309e-01 5.93042493e-01 6.21322155e-01 6.47619903e-01 6.75607800e-01 7.12312520e-01 7.64780700e-01 8.29291940e-01 8.90037954e-01 9.34792340e-01 9.52585220e-01 8.54552031e-01 2.32329182e-02 6.11034781e-03 4.37457394e-03 3.02364235e-03 3.22349928e-03 6.19870843e-03 3.36779356e-01 5.87157369e-01 5.32821953e-01 5.42077065e-01 5.41601419e-01 4.46833253e-01 6.36117882e-04 6.73145463e-04 3.48395109e-01 4.64080960e-01 4.81777072e-01 5.03733397e-01 5.29650092e-01 5.56738019e-01 5.83188951e-01 6.08227551e-01 6.32954717e-01 6.61081433e-01 6.99315906e-01 7.54824698e-01 8.25624526e-01 8.93180132e-01 9.38622713e-01 9.57128704e-01 9.20487821e-01 2.17633411e-01 7.52335181e-03 4.87529207e-03 6.34197146e-03 1.74067933e-02 1.68344304e-01 5.58060467e-01 5.78806996e-01 5.16269326e-01 5.29356182e-01 5.41343510e-01 4.91221398e-01 6.20891864e-04 6.27754605e-04 2.07889125e-01 4.74182367e-01 4.91226822e-01 5.05918145e-01 5.24231195e-01 5.44602394e-01 5.65675080e-01 5.86657226e-01 6.08112752e-01 6.32681668e-01 6.65631890e-01 7.13616908e-01 7.78628886e-01 8.49723697e-01 9.07783031e-01 9.41953540e-01 9.45784092e-01 8.28517795e-01 3.29263270e-01 2.55448848e-01 5.78922391e-01 8.67883980e-01 9.40306127e-01 8.25692296e-01 5.72584271e-01 5.01860559e-01 5.15042424e-01 5.40710986e-01 5.19383192e-01 7.03028811e-04 5.49092540e-04 2.36687455e-02 4.83254403e-01 4.97328371e-01 5.02574325e-01 5.12354374e-01 5.25730610e-01 5.41266561e-01 5.57812810e-01 5.74968159e-01 5.93517601e-01 6.16023302e-01 6.47044003e-01 6.91302836e-01 7.49017298e-01 8.12996209e-01 8.72425437e-01 9.15673733e-01 9.31861520e-01 9.31406975e-01 9.46129203e-01 9.65653300e-01 9.68927979e-01 9.72169816e-01 9.11890924e-01 5.70848823e-01 4.93733317e-01 5.00333607e-01 5.32022417e-01 5.57284772e-01 1.34398858e-03 4.84893506e-04 1.50916027e-03 4.95974064e-01 4.98532683e-01 4.92612273e-01 4.94665354e-01 5.02142131e-01 5.12852371e-01 5.25249898e-01 5.38249552e-01 5.51053882e-01 5.63285470e-01 5.75712681e-01 5.91112971e-01 6.13894820e-01 6.48134530e-01 6.96175814e-01 7.56547213e-01 8.16849351e-01 8.62613916e-01 8.94704938e-01 9.15337682e-01 9.24391508e-01 9.31465924e-01 8.73941898e-01 5.77927589e-01 5.00088155e-01 4.97533828e-01 5.09996057e-01 5.70754409e-01 2.27844082e-02 4.53005923e-04 5.96011698e-04 5.07121861e-01 4.91230845e-01 4.76820558e-01 4.74488169e-01 4.78349209e-01 4.85477746e-01 4.94457841e-01 5.04383147e-01 5.14058113e-01 5.21450460e-01 5.23919344e-01 5.19636393e-01 5.09456635e-01 4.96905744e-01 4.84791845e-01 4.72927868e-01 4.65763032e-01 4.81205881e-01 5.29456139e-01 6.01334333e-01 6.77724302e-01 7.34273493e-01 7.43027985e-01 6.01828337e-01 5.38711309e-01 5.37134647e-01 5.34208655e-01 5.45947850e-01 5.63213527e-01 4.24035301e-04 4.96613211e-04 5.22815168e-01 4.77186054e-01 4.61054176e-01 4.57931429e-01 4.59498942e-01 4.63384211e-01 4.69326854e-01 4.77597803e-01 4.87851262e-01 4.97969180e-01 5.03174067e-01 4.96069938e-01 4.68144536e-01 4.13103014e-01 3.32587004e-01 2.43858814e-01 1.79864764e-01 1.65223792e-01 1.99424714e-01 2.70352453e-01 3.56340140e-01 4.45496768e-01 6.03606582e-01 6.38906956e-01 6.16255403e-01 6.20330989e-01 6.23973310e-01 6.20476663e-01 6.63038909e-01 6.72860304e-04 5.09787409e-04 6.19319320e-01 5.57706356e-01 5.49396157e-01 5.48536301e-01 5.49608886e-01 5.51128745e-01 5.53324342e-01 5.56950212e-01 5.62476218e-01 5.69304824e-01 5.74946761e-01 5.74364185e-01 5.59690714e-01 5.20804226e-01 4.49171364e-01 3.50654393e-01 2.61016577e-01 2.23653257e-01 2.49651372e-01 3.21914494e-01 4.00371015e-01 4.53509241e-01 5.49096465e-01 
