# vtk DataFile Version 2.0
results_case1_non_linear/iter1.vtk, Created by Freefem++ 
ASCII
DATASET UNSTRUCTURED_GRID
POINTS 961 float
0 0 0
0.033333333 0 0
0.066666667 0 0
0.1 0 0
0.13333333 0 0
0.16666667 0 0
0.2 0 0
0.23333333 0 0
0.26666667 0 0
0.3 0 0
0.33333333 0 0
0.36666667 0 0
0.4 0 0
0.43333333 0 0
0.46666667 0 0
0.5 0 0
0.53333333 0 0
0.56666667 0 0
0.6 0 0
0.63333333 0 0
0.66666667 0 0
0.7 0 0
0.73333333 0 0
0.76666667 0 0
0.8 0 0
0.83333333 0 0
0.86666667 0 0
0.9 0 0
0.93333333 0 0
0.96666667 0 0
1 0 0
0 0.033333333 0
0.033333333 0.033333333 0
0.066666667 0.033333333 0
0.1 0.033333333 0
0.13333333 0.033333333 0
0.16666667 0.033333333 0
0.2 0.033333333 0
0.23333333 0.033333333 0
0.26666667 0.033333333 0
0.3 0.033333333 0
0.33333333 0.033333333 0
0.36666667 0.033333333 0
0.4 0.033333333 0
0.43333333 0.033333333 0
0.46666667 0.033333333 0
0.5 0.033333333 0
0.53333333 0.033333333 0
0.56666667 0.033333333 0
0.6 0.033333333 0
0.63333333 0.033333333 0
0.66666667 0.033333333 0
0.7 0.033333333 0
0.73333333 0.033333333 0
0.76666667 0.033333333 0
0.8 0.033333333 0
0.83333333 0.033333333 0
0.86666667 0.033333333 0
0.9 0.033333333 0
0.93333333 0.033333333 0
0.96666667 0.033333333 0
1 0.033333333 0
0 0.066666667 0
0.033333333 0.066666667 0
0.066666667 0.066666667 0
0.1 0.066666667 0
0.13333333 0.066666667 0
0.16666667 0.066666667 0
0.2 0.066666667 0
0.23333333 0.066666667 0
0.26666667 0.066666667 0
0.3 0.066666667 0
0.33333333 0.066666667 0
0.36666667 0.066666667 0
0.4 0.066666667 0
0.43333333 0.066666667 0
0.46666667 0.066666667 0
0.5 0.066666667 0
0.53333333 0.066666667 0
0.56666667 0.066666667 0
0.6 0.066666667 0
0.63333333 0.066666667 0
0.66666667 0.066666667 0
0.7 0.066666667 0
0.73333333 0.066666667 0
0.76666667 0.066666667 0
0.8 0.066666667 0
0.83333333 0.066666667 0
0.86666667 0.066666667 0
0.9 0.066666667 0
0.93333333 0.066666667 0
0.96666667 0.066666667 0
1 0.066666667 0
0 0.1 0
0.033333333 0.1 0
0.066666667 0.1 0
0.1 0.1 0
0.13333333 0.1 0
0.16666667 0.1 0
0.2 0.1 0
0.23333333 0.1 0
0.26666667 0.1 0
0.3 0.1 0
0.33333333 0.1 0
0.36666667 0.1 0
0.4 0.1 0
0.43333333 0.1 0
0.46666667 0.1 0
0.5 0.1 0
0.53333333 0.1 0
0.56666667 0.1 0
0.6 0.1 0
0.63333333 0.1 0
0.66666667 0.1 0
0.7 0.1 0
0.73333333 0.1 0
0.76666667 0.1 0
0.8 0.1 0
0.83333333 0.1 0
0.86666667 0.1 0
0.9 0.1 0
0.93333333 0.1 0
0.96666667 0.1 0
1 0.1 0
0 0.13333333 0
0.033333333 0.13333333 0
0.066666667 0.13333333 0
0.1 0.13333333 0
0.13333333 0.13333333 0
0.16666667 0.13333333 0
0.2 0.13333333 0
0.23333333 0.13333333 0
0.26666667 0.13333333 0
0.3 0.13333333 0
0.33333333 0.13333333 0
0.36666667 0.13333333 0
0.4 0.13333333 0
0.43333333 0.13333333 0
0.46666667 0.13333333 0
0.5 0.13333333 0
0.53333333 0.13333333 0
0.56666667 0.13333333 0
0.6 0.13333333 0
0.63333333 0.13333333 0
0.66666667 0.13333333 0
0.7 0.13333333 0
0.73333333 0.13333333 0
0.76666667 0.13333333 0
0.8 0.13333333 0
0.83333333 0.13333333 0
0.86666667 0.13333333 0
0.9 0.13333333 0
0.93333333 0.13333333 0
0.96666667 0.13333333 0
1 0.13333333 0
0 0.16666667 0
0.033333333 0.16666667 0
0.066666667 0.16666667 0
0.1 0.16666667 0
0.13333333 0.16666667 0
0.16666667 0.16666667 0
0.2 0.16666667 0
0.23333333 0.16666667 0
0.26666667 0.16666667 0
0.3 0.16666667 0
0.33333333 0.16666667 0
0.36666667 0.16666667 0
0.4 0.16666667 0
0.43333333 0.16666667 0
0.46666667 0.16666667 0
0.5 0.16666667 0
0.53333333 0.16666667 0
0.56666667 0.16666667 0
0.6 0.16666667 0
0.63333333 0.16666667 0
0.66666667 0.16666667 0
0.7 0.16666667 0
0.73333333 0.16666667 0
0.76666667 0.16666667 0
0.8 0.16666667 0
0.83333333 0.16666667 0
0.86666667 0.16666667 0
0.9 0.16666667 0
0.93333333 0.16666667 0
0.96666667 0.16666667 0
1 0.16666667 0
0 0.2 0
0.033333333 0.2 0
0.066666667 0.2 0
0.1 0.2 0
0.13333333 0.2 0
0.16666667 0.2 0
0.2 0.2 0
0.23333333 0.2 0
0.26666667 0.2 0
0.3 0.2 0
0.33333333 0.2 0
0.36666667 0.2 0
0.4 0.2 0
0.43333333 0.2 0
0.46666667 0.2 0
0.5 0.2 0
0.53333333 0.2 0
0.56666667 0.2 0
0.6 0.2 0
0.63333333 0.2 0
0.66666667 0.2 0
0.7 0.2 0
0.73333333 0.2 0
0.76666667 0.2 0
0.8 0.2 0
0.83333333 0.2 0
0.86666667 0.2 0
0.9 0.2 0
0.93333333 0.2 0
0.96666667 0.2 0
1 0.2 0
0 0.23333333 0
0.033333333 0.23333333 0
0.066666667 0.23333333 0
0.1 0.23333333 0
0.13333333 0.23333333 0
0.16666667 0.23333333 0
0.2 0.23333333 0
0.23333333 0.23333333 0
0.26666667 0.23333333 0
0.3 0.23333333 0
0.33333333 0.23333333 0
0.36666667 0.23333333 0
0.4 0.23333333 0
0.43333333 0.23333333 0
0.46666667 0.23333333 0
0.5 0.23333333 0
0.53333333 0.23333333 0
0.56666667 0.23333333 0
0.6 0.23333333 0
0.63333333 0.23333333 0
0.66666667 0.23333333 0
0.7 0.23333333 0
0.73333333 0.23333333 0
0.76666667 0.23333333 0
0.8 0.23333333 0
0.83333333 0.23333333 0
0.86666667 0.23333333 0
0.9 0.23333333 0
0.93333333 0.23333333 0
0.96666667 0.23333333 0
1 0.23333333 0
0 0.26666667 0
0.033333333 0.26666667 0
0.066666667 0.26666667 0
0.1 0.26666667 0
0.13333333 0.26666667 0
0.16666667 0.26666667 0
0.2 0.26666667 0
0.23333333 0.26666667 0
0.26666667 0.26666667 0
0.3 0.26666667 0
0.33333333 0.26666667 0
0.36666667 0.26666667 0
0.4 0.26666667 0
0.43333333 0.26666667 0
0.46666667 0.26666667 0
0.5 0.26666667 0
0.53333333 0.26666667 0
0.56666667 0.26666667 0
0.6 0.26666667 0
0.63333333 0.26666667 0
0.66666667 0.26666667 0
0.7 0.26666667 0
0.73333333 0.26666667 0
0.76666667 0.26666667 0
0.8 0.26666667 0
0.83333333 0.26666667 0
0.86666667 0.26666667 0
0.9 0.26666667 0
0.93333333 0.26666667 0
0.96666667 0.26666667 0
1 0.26666667 0
0 0.3 0
0.033333333 0.3 0
0.066666667 0.3 0
0.1 0.3 0
0.13333333 0.3 0
0.16666667 0.3 0
0.2 0.3 0
0.23333333 0.3 0
0.26666667 0.3 0
0.3 0.3 0
0.33333333 0.3 0
0.36666667 0.3 0
0.4 0.3 0
0.43333333 0.3 0
0.46666667 0.3 0
0.5 0.3 0
0.53333333 0.3 0
0.56666667 0.3 0
0.6 0.3 0
0.63333333 0.3 0
0.66666667 0.3 0
0.7 0.3 0
0.73333333 0.3 0
0.76666667 0.3 0
0.8 0.3 0
0.83333333 0.3 0
0.86666667 0.3 0
0.9 0.3 0
0.93333333 0.3 0
0.96666667 0.3 0
1 0.3 0
0 0.33333333 0
0.033333333 0.33333333 0
0.066666667 0.33333333 0
0.1 0.33333333 0
0.13333333 0.33333333 0
0.16666667 0.33333333 0
0.2 0.33333333 0
0.23333333 0.33333333 0
0.26666667 0.33333333 0
0.3 0.33333333 0
0.33333333 0.33333333 0
0.36666667 0.33333333 0
0.4 0.33333333 0
0.43333333 0.33333333 0
0.46666667 0.33333333 0
0.5 0.33333333 0
0.53333333 0.33333333 0
0.56666667 0.33333333 0
0.6 0.33333333 0
0.63333333 0.33333333 0
0.66666667 0.33333333 0
0.7 0.33333333 0
0.73333333 0.33333333 0
0.76666667 0.33333333 0
0.8 0.33333333 0
0.83333333 0.33333333 0
0.86666667 0.33333333 0
0.9 0.33333333 0
0.93333333 0.33333333 0
0.96666667 0.33333333 0
1 0.33333333 0
0 0.36666667 0
0.033333333 0.36666667 0
0.066666667 0.36666667 0
0.1 0.36666667 0
0.13333333 0.36666667 0
0.16666667 0.36666667 0
0.2 0.36666667 0
0.23333333 0.36666667 0
0.26666667 0.36666667 0
0.3 0.36666667 0
0.33333333 0.36666667 0
0.36666667 0.36666667 0
0.4 0.36666667 0
0.43333333 0.36666667 0
0.46666667 0.36666667 0
0.5 0.36666667 0
0.53333333 0.36666667 0
0.56666667 0.36666667 0
0.6 0.36666667 0
0.63333333 0.36666667 0
0.66666667 0.36666667 0
0.7 0.36666667 0
0.73333333 0.36666667 0
0.76666667 0.36666667 0
0.8 0.36666667 0
0.83333333 0.36666667 0
0.86666667 0.36666667 0
0.9 0.36666667 0
0.93333333 0.36666667 0
0.96666667 0.36666667 0
1 0.36666667 0
0 0.4 0
0.033333333 0.4 0
0.066666667 0.4 0
0.1 0.4 0
0.13333333 0.4 0
0.16666667 0.4 0
0.2 0.4 0
0.23333333 0.4 0
0.26666667 0.4 0
0.3 0.4 0
0.33333333 0.4 0
0.36666667 0.4 0
0.4 0.4 0
0.43333333 0.4 0
0.46666667 0.4 0
0.5 0.4 0
0.53333333 0.4 0
0.56666667 0.4 0
0.6 0.4 0
0.63333333 0.4 0
0.66666667 0.4 0
0.7 0.4 0
0.73333333 0.4 0
0.76666667 0.4 0
0.8 0.4 0
0.83333333 0.4 0
0.86666667 0.4 0
0.9 0.4 0
0.93333333 0.4 0
0.96666667 0.4 0
1 0.4 0
0 0.43333333 0
0.033333333 0.43333333 0
0.066666667 0.43333333 0
0.1 0.43333333 0
0.13333333 0.43333333 0
0.16666667 0.43333333 0
0.2 0.43333333 0
0.23333333 0.43333333 0
0.26666667 0.43333333 0
0.3 0.43333333 0
0.33333333 0.43333333 0
0.36666667 0.43333333 0
0.4 0.43333333 0
0.43333333 0.43333333 0
0.46666667 0.43333333 0
0.5 0.43333333 0
0.53333333 0.43333333 0
0.56666667 0.43333333 0
0.6 0.43333333 0
0.63333333 0.43333333 0
0.66666667 0.43333333 0
0.7 0.43333333 0
0.73333333 0.43333333 0
0.76666667 0.43333333 0
0.8 0.43333333 0
0.83333333 0.43333333 0
0.86666667 0.43333333 0
0.9 0.43333333 0
0.93333333 0.43333333 0
0.96666667 0.43333333 0
1 0.43333333 0
0 0.46666667 0
0.033333333 0.46666667 0
0.066666667 0.46666667 0
0.1 0.46666667 0
0.13333333 0.46666667 0
0.16666667 0.46666667 0
0.2 0.46666667 0
0.23333333 0.46666667 0
0.26666667 0.46666667 0
0.3 0.46666667 0
0.33333333 0.46666667 0
0.36666667 0.46666667 0
0.4 0.46666667 0
0.43333333 0.46666667 0
0.46666667 0.46666667 0
0.5 0.46666667 0
0.53333333 0.46666667 0
0.56666667 0.46666667 0
0.6 0.46666667 0
0.63333333 0.46666667 0
0.66666667 0.46666667 0
0.7 0.46666667 0
0.73333333 0.46666667 0
0.76666667 0.46666667 0
0.8 0.46666667 0
0.83333333 0.46666667 0
0.86666667 0.46666667 0
0.9 0.46666667 0
0.93333333 0.46666667 0
0.96666667 0.46666667 0
1 0.46666667 0
0 0.5 0
0.033333333 0.5 0
0.066666667 0.5 0
0.1 0.5 0
0.13333333 0.5 0
0.16666667 0.5 0
0.2 0.5 0
0.23333333 0.5 0
0.26666667 0.5 0
0.3 0.5 0
0.33333333 0.5 0
0.36666667 0.5 0
0.4 0.5 0
0.43333333 0.5 0
0.46666667 0.5 0
0.5 0.5 0
0.53333333 0.5 0
0.56666667 0.5 0
0.6 0.5 0
0.63333333 0.5 0
0.66666667 0.5 0
0.7 0.5 0
0.73333333 0.5 0
0.76666667 0.5 0
0.8 0.5 0
0.83333333 0.5 0
0.86666667 0.5 0
0.9 0.5 0
0.93333333 0.5 0
0.96666667 0.5 0
1 0.5 0
0 0.53333333 0
0.033333333 0.53333333 0
0.066666667 0.53333333 0
0.1 0.53333333 0
0.13333333 0.53333333 0
0.16666667 0.53333333 0
0.2 0.53333333 0
0.23333333 0.53333333 0
0.26666667 0.53333333 0
0.3 0.53333333 0
0.33333333 0.53333333 0
0.36666667 0.53333333 0
0.4 0.53333333 0
0.43333333 0.53333333 0
0.46666667 0.53333333 0
0.5 0.53333333 0
0.53333333 0.53333333 0
0.56666667 0.53333333 0
0.6 0.53333333 0
0.63333333 0.53333333 0
0.66666667 0.53333333 0
0.7 0.53333333 0
0.73333333 0.53333333 0
0.76666667 0.53333333 0
[...]
CELL_DATA 1920
Scalars  Label int 1
LOOKUP_TABLE FreeFempp_table
0
0
0
0
0
0
0
0
0
0
0
0
0
0
0
0
0
0
0
0
0
0
0
0
0
0
0
0
0
0
0
0
0
0
0
0
0
0
0
0
0
0
0
0
0
0
0
0
0
0
0
0
0
0
0
0
0
0
0
0
0
0
0
0
0
0
0
0
0
0
0
0
0
0
0
0
0
0
0
0
0
0
0
0
0
0
0
0
0
0
0
0
0
0
0
0
0
0
0
0
0
0
0
0
0
0
0
0
0
0
0
0
0
0
0
0
0
0
0
0
0
0
0
0
0
0
0
0
0
0
0
0
0
0
0
0
0
0
0
0
0
0
0
0
0
0
0
0
0
0
0
0
0
0
0
0
0
0
0
0
0
0
0
0
0
0
0
0
0
0
0
0
0
0
0
0
0
0
0
0
0
0
0
0
0
0
0
0
0
0
0
0
0
0
0
0
0
0
0
0
0
0
0
0
0
0
0
0
0
0
0
0
0
0
0
0
0
0
0
0
0
0
0
0
0
0
0
0
0
0
0
0
0
0
0
0
0
0
0
0
0
0
0
0
0
0
0
0
0
0
0
0
0
0
0
0
0
0
0
0
0
0
0
0
0
0
0
0
0
0
0
0
0
0
0
0
0
0
0
0
0
0
0
0
0
0
0
0
0
0
0
0
0
0
0
0
0
0
0
0
0
0
0
0
0
0
0
0
0
0
0
0
0
0
0
0
0
0
0
0
0
0
0
0
0
0
0
0
0
0
0
0
0
0
0
0
0
0
0
0
0
0
0
0
0
0
0
0
0
0
0
0
0
0
0
0
0
0
0
0
0
0
0
0
0
0
0
0
0
0
0
0
0
0
0
0
0
0
0
0
0
0
0
0
0
0
0
0
0
0
0
0
0
0
0
0
0
0
0
0
0
0
0
0
0
0
0
0
0
0
0
0
0
0
0
0
0
0
0
0
0
0
0
0
0
0
0
0
0
0
0
0
0
0
0
0
0
0
0
0
0
0
0
0
0
0
0
0
0
0
0
0
0
0
0
0
0
0
0
0
0
0
0
0
0
0
0
0
0
0
0
0
0
0
0
0
0
0
0
0
0
0
0
0
0
0
0
0
0
0
0
0
0
0
0
0
0
0
0
0
0
0
0
0
0
0
0
0
0
0
0
0
0
0
0
0
0
0
0
0
0
0
0
0
0
0
0
0
0
0
0
0
0
0
0
0
0
0
0
0
0
0
0
0
0
0
0
0
0
0
0
0
0
0
0
0
0
0
0
0
0
0
0
0
0
0
0
0
0
0
0
0
0
0
0
0
0
0
0
0
0
0
0
0
0
0
0
0
0
0
0
0
0
0
0
0
0
0
0
0
0
0
0
0
0
0
0
0
0
0
0
0
0
0
0
0
0
0
0
0
0
0
0
0
0
0
0
0
0
0
0
0
0
0
0
0
0
0
0
0
0
0
0
0
0
0
0
0
0
0
0
0
0
0
0
0
0
0
0
0
0
0
0
0
0
0
0
0
0
0
0
0
0
0
0
0
0
0
0
0
0
0
0
0
0
0
0
0
0
0
0
0
0
0
0
0
0
0
0
0
0
0
0
0
0
0
0
0
0
0
0
0
0
0
0
0
0
0
0
0
0
0
0
0
0
0
0
0
0
0
0
0
0
0
0
0
0
0
0
0
0
0
0
0
0
0
0
0
0
0
0
0
0
0
0
0
0
0
0
0
0
0
0
0
0
0
0
0
0
0
0
0
0
0
0
0
0
0
0
0
0
0
0
0
0
0
0
0
0
0
0
0
0
0
0
0
0
0
0
0
0
0
0
0
0
0
0
0
0
0
0
0
0
0
0
0
0
0
0
0
0
0
0
0
0
0
0
0
0
0
0
0
0
0
0
0
0
0
0
0
0
0
0
0
0
0
0
0
0
0
0
0
0
0
0
0
0
0
0
0
0
0
0
0
0
0
0
0
0
0
0
0
0
0
0
0
0
0
0
0
0
0
0
0
0
0
0
0
0
0
0
0
0
0
0
0
0
0
0
0
0
0
0
0
0
0
0
0
0
0
0
0
0
0
0
0
0
0
0
0
0
0
0
0
0
0
0
0
0
0
0
0
0
0
0
0
0
0
0
0
0
0
0
0
0
0
0
0
0
0
0
0
0
0
0
0
0
0
0
0
0
0
0
0
0
0
0
0
0
0
0
0
0
0
0
0
0
0
0
0
0
0
0
0
0
0
0
0
0
0
0
0
0
0
0
0
0
0
0
0
0
0
0
0
0
0
0
0
0
0
0
0
0
0
0
0
0
0
0
0
0
0
0
0
0
0
0
0
0
0
0
0
0
0
0
0
0
0
0
0
0
0
0
0
0
0
0
0
0
0
0
0
0
0
0
0
0
0
0
0
0
0
0
0
0
0
0
0
0
0
0
0
0
0
0
0
0
0
0
0
0
0
0
0
0
0
0
0
0
0
0
0
0
0
0
0
0
0
0
0
0
0
0
0
0
0
0
0
0
0
0
0
0
0
0
0
0
0
0
0
0
0
0
0
0
0
0
0
0
0
0
0
0
0
0
0
0
0
0
0
0
0
0
0
0
0
0
0
0
0
0
0
0
0
0
0
0
0
0
0
0
0
0
0
0
0
0
0
0
0
0
0
0
0
0
0
0
0
0
0
0
0
0
0
0
0
0
0
0
0
0
0
0
0
0
0
0
0
0
0
0
0
0
0
0
0
0
0
0
0
0
0
0
0
0
0
0
0
0
0
0
0
0
0
0
0
0
0
0
0
0
0
0
0
0
0
0
0
0
0
0
0
0
0
0
0
0
0
0
0
0
0
0
0
0
0
0
0
0
0
0
0
0
0
0
0
0
0
0
0
0
0
0
0
0
0
0
0
0
0
0
0
0
0
0
0
0
0
0
0
0
0
0
0
0
0
0
0
0
0
0
0
0
0
0
0
0
0
0
0
0
0
0
0
0
0
0
0
0
0
0
0
0
0
0
0
0
0
0
0
0
0
0
0
0
0
0
0
0
0
0
0
0
0
0
0
0
0
0
0
0
0
0
0
0
0
0
0
0
0
0
0
0
0
0
0
0
0
0
0
0
0
0
0
0
0
0
0
0
0
0
0
0
0
0
0
0
0
0
0
0
0
0
0
0
0
0
0
0
0
0
0
0
0
0
0
0
0
0
0
0
0
0
0
0
0
0
0
0
0
0
0
0
0
0
0
0
0
0
0
0
0
0
0
0
0
0
0
0
0
0
0
0
0
0
0
0
0
0
0
0
0
0
0
0
0
0
0
0
0
0
0
0
0
0
0
0
0
0
0
0
0
0
0
0
0
0
0
0
0
0
0
0
0
0
0
0
0
0
0
0
0
0
0
0
0
0
0
0
0
0
0
0
0
0
0
0
0
0
0
0
0
0
0
0
0
0
0
0
0
0
0
0
0
0
0
0
0
0
0
0
0
0
0
0
0
0
0
0
0
0
0
0
0
0
0
0
0
0
0
0
0
0
0
0
0
0
0
0
0
0
0
0
0
0
0
0
0
0
0
0
0
0
0
0
0
0
0
0
0
0
0
0
0
0
0
0
0
0
0
0
0
0
0
0
0
0
0
0
0
0
0
0
0
0
0
0
0
0
0
0
0
0
0
0
0
0
0
0
0
0
0
0
0
0
0
0
0
0
0
0
0
0
0
0
0
0
0
0
0
0
0
0
0
0
0
0
0
0
0
0
0
0
0
0
0
0
0
0
0
0
0
0
0
0
0
0
0
0
0
0
0
0
0
0
0
0
0
0
0
0
0
0
0
0
0
0
0
0
0
0
0
0
0
0
0
0
0
0
0
0
0
0
0
0
0
0
0
0
0
0
0
0
0
0
0
0
0
0
0
0
0
0
0
0
0
0
0
0
0
0
0
0
0
0
0
0
0
0
0
0
0
0
0
0
0
0
0
0
0
0
0
0
0
0
0
0
0
0
0
0
0
0
0
0
0
0
0
0
0
0
0
0
0
0
0
0
0
0
0
0
0
0
0
0
0
0
0
0
0
0
0
0
0
0
0
0
0
0
0
1
1
1
1
1
1
1
1
1
1
1
1
1
1
1
1
1
1
1
1
1
1
1
1
1
1
1
1
1
1
2
2
2
2
2
2
2
2
2
2
2
2
2
2
2
2
2
2
2
2
2
2
2
2
2
2
2
2
2
2
3
3
3
3
3
3
3
3
3
3
3
3
3
3
3
3
3
3
3
3
3
3
3
3
3
3
3
3
3
3
4
4
4
4
4
4
4
4
4
4
4
4
4
4
4
4
4
4
4
4
4
4
4
4
4
4
4
4
4
4

LOOKUP_TABLE FreeFempp_table 5
1.00000000 0.00000000 0.00000000 1.00000000
1.00000000 1.00000000 0.00000000 1.00000000
1.00000000 0.00000000 1.00000000 1.00000000
0.00000000 1.00000000 0.00000000 1.00000000
0.00000000 1.00000000 1.00000000 1.00000000

POINT_DATA 961
FIELD FieldData 1
Density 1 961 float
2.19560806e-02 1.56118404e-02 1.24906003e-02 1.04486085e-02 1.03958063e-02 1.08290035e-02 1.14240395e-02 1.21628847e-02 1.36889247e-02 1.98845249e-02 5.71676046e-02 1.41890168e-01 7.26339281e-01 8.99768531e-01 9.11908388e-01 8.85859847e-01 7.86369801e-01 5.01636624e-01 1.86382830e-01 1.16409108e-01 1.00423269e-01 1.17255703e-01 1.90278202e-01 4.21735674e-01 6.43175900e-01 6.91931188e-01 5.98876655e-01 2.46747851e-01 1.97787676e-02 2.29908526e-02 1.99609160e-01 2.13631932e-02 1.20804841e-02 1.29999314e-02 1.13080479e-02 1.04359742e-02 1.03697730e-02 1.06620863e-02 1.10994056e-02 1.14667341e-02 1.04777887e-02 1.09527679e-02 1.56938210e-02 2.76137665e-02 1.30361915e-01 8.72561276e-01 8.92021894e-01 8.34829092e-01 4.69391555e-01 9.02865231e-02 5.11784181e-02 4.66595963e-02 5.00324070e-02 6.06714487e-02 1.69893384e-01 6.88709676e-01 8.27630043e-01 7.00974047e-01 2.90364534e-01 2.38920506e-02 1.17243873e-02 4.44386676e-02 4.51462790e-02 2.46971622e-02 2.34849993e-02 6.26728237e-02 9.92263928e-02 1.25275001e-01 1.42419964e-01 1.49580404e-01 1.32539958e-01 6.27267137e-02 1.88373178e-02 1.33593334e-02 1.17213465e-02 1.36994161e-02 2.00157613e-02 2.98036579e-02 3.72277014e-02 3.91784683e-02 4.04912718e-02 4.67207506e-02 7.02016205e-02 1.00503840e-01 1.75896689e-01 4.54720855e-01 7.82540321e-01 8.27213347e-01 7.42317080e-01 5.62739134e-01 1.37534648e-01 1.38480542e-02 1.90353673e-02 7.06294030e-02 4.22527604e-02 8.41711611e-02 1.86086029e-01 2.56225616e-01 2.97853172e-01 3.29298675e-01 3.52473259e-01 3.62526327e-01 3.46934617e-01 2.79290408e-01 1.42895877e-01 3.98195945e-02 2.00687740e-02 1.57204289e-02 1.72782242e-02 2.23752707e-02 2.84953676e-02 3.33045609e-02 4.65365835e-02 1.55131251e-01 6.26266778e-01 7.54681468e-01 8.07196379e-01 8.42961729e-01 8.33811581e-01 7.53146589e-01 5.82272351e-01 3.58934581e-01 1.66029911e-02 1.77885816e-02 1.06280573e-01 5.62159903e-02 1.25857592e-01 2.52166837e-01 3.25941741e-01 3.67980242e-01 3.93936455e-01 4.09529060e-01 4.13945675e-01 4.03181583e-01 3.71250868e-01 3.13055962e-01 2.29250625e-01 1.40814796e-01 9.30698887e-02 5.24638034e-02 4.34281304e-02 4.33266163e-02 5.17265201e-02 1.07996941e-01 3.91916901e-01 7.01804459e-01 7.74673462e-01 7.95680761e-01 8.04118156e-01 7.90915251e-01 7.34457076e-01 6.09029770e-01 4.30577517e-01 1.72162261e-02 1.88820474e-02 1.76174164e-01 9.28317308e-02 2.05758721e-01 3.43408048e-01 4.10457790e-01 4.47370976e-01 4.66649741e-01 4.76104230e-01 4.78102595e-01 4.71778840e-01 4.55039024e-01 4.26506132e-01 3.85623515e-01 3.30930024e-01 2.67184824e-01 2.03563407e-01 1.63167119e-01 1.44765183e-01 1.44353390e-01 2.31893435e-01 4.89406496e-01 6.79556668e-01 7.50483036e-01 7.76134014e-01 7.85125554e-01 7.77212203e-01 7.38656163e-01 6.41611934e-01 4.42391813e-01 1.78434998e-02 1.94822252e-02 3.76807332e-01 1.36936396e-01 4.27874595e-01 4.96975154e-01 5.36866307e-01 5.54572880e-01 5.60777187e-01 5.61554015e-01 5.59106886e-01 5.53103566e-01 5.42373002e-01 5.26339054e-01 5.05184293e-01 4.78638381e-01 4.45557117e-01 4.03326452e-01 3.61393124e-01 3.26998919e-01 3.23196590e-01 4.00411904e-01 5.42800307e-01 6.60630882e-01 7.24653482e-01 7.55038559e-01 7.67230690e-01 7.64111638e-01 7.39607334e-01 6.66738808e-01 4.37642395e-01 1.85094029e-02 1.97456032e-02 6.37693167e-01 2.60006219e-01 7.37816513e-01 6.71045363e-01 6.74954712e-01 6.67138219e-01 6.57250941e-01 6.46961093e-01 6.36742651e-01 6.25818193e-01 6.13119006e-01 5.98111629e-01 5.80865562e-01 5.61400115e-01 5.39121747e-01 5.13087928e-01 4.86337781e-01 4.65960592e-01 4.68320996e-01 5.14496326e-01 5.91719031e-01 6.63450897e-01 7.11759984e-01 7.39257276e-01 7.51811385e-01 7.52168000e-01 7.38599658e-01 6.85031652e-01 4.35413808e-01 1.93412490e-02 1.99318081e-02 7.68653214e-01 5.49729586e-01 8.71374786e-01 7.85360932e-01 7.71242738e-01 7.49331176e-01 7.29572177e-01 7.11351991e-01 6.94433868e-01 6.78100228e-01 6.61637306e-01 6.44743443e-01 6.27487123e-01 6.09948754e-01 5.92083633e-01 5.74346960e-01 5.59393167e-01 5.52407742e-01 5.61426282e-01 5.91966033e-01 6.35733366e-01 6.77725911e-01 7.09256470e-01 7.29282498e-01 7.39322007e-01 7.40991533e-01 7.33951807e-01 6.93482399e-01 4.39741194e-01 2.04554237e-02 2.03380622e-02 7.85302639e-01 6.96716845e-01 8.94248903e-01 8.28195333e-01 8.11695993e-01 7.88694739e-01 7.67515838e-01 7.47298419e-01 7.28056908e-01 7.09624767e-01 6.91904366e-01 6.75021589e-01 6.59196317e-01 6.44573748e-01 6.31430626e-01 6.20861650e-01 6.15182579e-01 6.17029786e-01 6.28190339e-01 6.47934794e-01 6.71579540e-01 6.93691254e-01 7.11176693e-01 7.23160207e-01 7.29640245e-01 7.30879426e-01 7.25641131e-01 6.90759718e-01 4.46533948e-01 2.19669528e-02 2.11442299e-02 6.80278242e-01 5.95346093e-01 8.57502222e-01 8.12439978e-01 8.04561794e-01 7.89753377e-01 7.73994386e-01 7.57363975e-01 7.40661681e-01 7.24462152e-01 7.09279716e-01 6.95593774e-01 6.83694482e-01 6.73703492e-01 6.66018248e-01 6.61846220e-01 6.62772775e-01 6.69107735e-01 6.79137826e-01 6.90209866e-01 7.00138330e-01 7.08093703e-01 7.14210868e-01 7.18717575e-01 7.21429467e-01 7.21378922e-01 7.15004146e-01 6.78192496e-01 4.41443622e-01 2.40463056e-02 2.25772578e-02 3.65911633e-01 2.60092914e-01 6.64333940e-01 7.13384151e-01 7.46626675e-01 7.55338967e-01 7.53145099e-01 7.45584667e-01 7.35884607e-01 7.25876749e-01 7.16715753e-01 7.09057570e-01 7.03058660e-01 6.98718727e-01 6.96434498e-01 6.97404981e-01 7.02592731e-01 7.10712492e-01 7.18558192e-01 7.23310828e-01 7.24099398e-01 7.21928298e-01 7.18535483e-01 7.15421915e-01 7.13292539e-01 7.10968792e-01 7.02413321e-01 6.56846881e-01 3.95713091e-01 2.69996691e-02 2.50453111e-02 1.56842887e-01 1.43416971e-01 2.66108394e-01 5.09102762e-01 6.36185110e-01 6.89300954e-01 7.09609151e-01 7.16030478e-01 7.16793537e-01 7.15799570e-01 7.15007424e-01 7.15134501e-01 7.16037810e-01 7.17488587e-01 7.20095515e-01 7.24695385e-01 7.32596338e-01 7.41729140e-01 7.48276055e-01 7.49823391e-01 7.45998740e-01 7.37933755e-01 7.27376938e-01 7.16303468e-01 7.06688464e-01 6.98712409e-01 6.84467614e-01 6.19304895e-01 2.93497950e-01 3.13962959e-02 2.93625481e-02 1.13014162e-01 9.64729190e-02 1.36995673e-01 3.47041935e-01 5.24242043e-01 6.13193750e-01 6.54957235e-01 6.75863981e-01 6.87870860e-01 6.96658015e-01 7.04879940e-01 7.13164151e-01 7.20903158e-01 7.27632403e-01 7.34511197e-01 7.42157757e-01 7.51658261e-01 7.62191236e-01 7.69324958e-01 7.70976782e-01 7.67050326e-01 7.58130312e-01 7.44866371e-01 7.28067994e-01 7.09101856e-01 6.88424170e-01 6.56148553e-01 5.50409853e-01 1.88881367e-01 3.78266759e-02 3.69223729e-02 8.00767094e-02 5.92731796e-02 1.22306362e-01 3.04224700e-01 4.68151659e-01 5.57218790e-01 6.06198728e-01 6.35571957e-01 6.55805945e-01 6.72563255e-01 6.88588440e-01 7.04213142e-01 7.18086660e-01 7.29382277e-01 7.40532935e-01 7.48803854e-01 7.62023628e-01 7.73323774e-01 7.82636166e-01 7.86923468e-01 7.86404550e-01 7.81301677e-01 7.71285892e-01 7.55415618e-01 7.31949389e-01 6.96077824e-01 6.30387187e-01 4.68975812e-01 1.41258657e-01 4.62969244e-02 4.84917760e-02 6.06889464e-02 5.36358170e-02 1.30779713e-01 3.27180594e-01 4.56099689e-01 5.28457999e-01 5.72883189e-01 6.03230834e-01 6.26816094e-01 6.48105979e-01 6.69371247e-01 6.90554500e-01 7.09669650e-01 7.25096762e-01 7.36581326e-01 7.46833801e-01 7.62191892e-01 7.76724160e-01 7.88408101e-01 7.96655893e-01 8.01319897e-01 8.02664578e-01 8.00198495e-01 7.92531788e-01 7.76345909e-01 7.42531955e-01 6.64589345e-01 4.81955320e-01 1.54202417e-01 5.20467013e-02 6.39702678e-02 4.70903739e-02 4.49990444e-02 1.76932037e-01 3.62625360e-01 4.57541019e-01 5.14827669e-01 5.52417099e-01 5.79986513e-01 6.03345513e-01 6.26006603e-01 6.49671376e-01 6.73970401e-01 6.96744323e-01 7.15620339e-01 7.31743097e-01 7.44011343e-01 7.60113716e-01 7.73059249e-01 7.86546111e-01 7.98469663e-01 8.08474243e-01 8.16599607e-01 8.22552383e-01 8.25518906e-01 8.23335171e-01 8.10020328e-01 7.69184887e-01 6.60105884e-01 3.71056110e-01 8.33715647e-02 9.66228470e-02 3.66807058e-02 3.71800736e-02 2.30576769e-01 3.86500359e-01 4.59765971e-01 5.06514490e-01 5.38171589e-01 5.62350333e-01 5.84127486e-01 6.06382370e-01 6.30356312e-01 6.55560613e-01 6.79962158e-01 7.01147676e-01 7.18399048e-01 7.33752847e-01 7.48138726e-01 7.61994779e-01 7.76395202e-01 7.90937364e-01 8.05317998e-01 8.19237232e-01 8.32379699e-01 8.44287753e-01 8.53805840e-01 8.58202457e-01 8.52584660e-01 8.27619791e-01 8.08597267e-01 2.03734487e-01 2.21588939e-01 2.95770168e-02 3.09981927e-02 2.50286937e-01 4.07954693e-01 4.64653939e-01 5.00396311e-01 5.25734603e-01 5.46557963e-01 5.66599488e-01 5.87830603e-01 6.10970140e-01 6.35497570e-01 6.59727454e-01 6.81570709e-01 6.99826002e-01 7.15143621e-01 7.29201674e-01 7.42742300e-01 7.57234454e-01 7.73179650e-01 7.90445209e-01 8.08594286e-01 8.27166855e-01 8.45658004e-01 8.62954319e-01 8.76958609e-01 8.85852754e-01 8.86082828e-01 9.17356014e-01 7.62314260e-01 7.37293303e-01 2.46109776e-02 2.65187528e-02 2.52667993e-01 4.36652631e-01 4.75719035e-01 4.96169448e-01 5.13357699e-01 5.30446887e-01 5.48804104e-01 5.68940580e-01 5.90823770e-01 6.13813221e-01 6.36590898e-01 6.57525361e-01 6.75468206e-01 6.90450072e-01 7.03584552e-01 7.16292083e-01 7.30075538e-01 7.45926380e-01 7.63998866e-01 7.83988655e-01 8.05525005e-01 8.28122318e-01 8.50401461e-01 8.69645000e-01 8.83865356e-01 8.89461219e-01 9.37650561e-01 8.43456745e-01 8.91814411e-01 2.09835451e-02 2.32271571e-02 2.60939538e-01 4.72035080e-01 4.91939366e-01 4.93505627e-01 5.00515044e-01 5.13201654e-01 5.29828310e-01 5.48982263e-01 5.69661438e-01 5.90962052e-01 6.11819804e-01 6.31060600e-01 6.47798657e-01 6.61898851e-01 6.74077690e-01 6.85572982e-01 6.97795749e-01 7.11777866e-01 7.27911830e-01 7.46187449e-01 7.66574383e-01 7.88972259e-01 8.12012851e-01 8.31568539e-01 8.42616379e-01 8.40369046e-01 9.09158707e-01 4.84985024e-01 8.70770097e-01 1.84664764e-02 2.06974782e-02 2.83263266e-01 5.09141207e-01 5.09083033e-01 4.90657359e-01 4.86510754e-01 4.94482398e-01 5.09416699e-01 5.27776897e-01 5.47530472e-01 5.67446232e-01 5.86584628e-01 6.04114354e-01 6.19428337e-01 6.32384062e-01 6.43404961e-01 6.53332531e-01 6.63162887e-01 6.73675716e-01 6.85221195e-01 6.97858095e-01 7.11706996e-01 7.27054179e-01 7.42854655e-01 7.52749383e-01 7.42486477e-01 6.96969092e-01 6.78927422e-01 1.72806740e-01 6.07575297e-01 1.70059968e-02 1.88015364e-02 3.21950018e-01 5.41459620e-01 5.21575153e-01 4.84410107e-01 4.70067471e-01 4.74011928e-01 4.87631142e-01 5.05422056e-01 5.24499178e-01 5.43381333e-01 5.61199546e-01 5.77333868e-01 5.91356158e-01 6.03115737e-01 6.12790823e-01 6.20810986e-01 6.27684772e-01 6.33767307e-01 6.39099002e-01 6.43449426e-01 6.46625102e-01 6.48893535e-01 6.49985015e-01 6.43382370e-01 6.08090401e-01 5.17264664e-01 3.46212208e-01 1.29670754e-01 2.34743088e-01 1.63719542e-02 1.75088625e-02 3.73300612e-01 5.61026514e-01 5.23022175e-01 4.71153051e-01 4.50076193e-01 4.51919705e-01 4.64946926e-01 4.82300371e-01 5.00678122e-01 5.18562853e-01 5.35192192e-01 5.50085545e-01 5.62899649e-01 5.73437274e-01 5.81664145e-01 5.87658107e-01 5.91494143e-01 5.93095422e-01 5.92121601e-01 5.87979138e-01 5.80116034e-01 5.68873107e-01 5.55949330e-01 5.40278614e-01 5.08313417e-01 4.35268581e-01 2.64712870e-01 1.00881614e-01 1.54715881e-01 1.62432995e-02 1.66663732e-02 4.26216125e-01 5.61067998e-01 5.07921398e-01 4.49073106e-01 4.27130580e-01 4.29577857e-01 4.42683518e-01 4.59334135e-01 4.76461649e-01 4.92820859e-01 5.07855058e-01 5.21211505e-01 5.32591641e-01 5.41743159e-01 5.48467875e-01 5.52584112e-01 5.53841770e-01 5.51827252e-01 5.45922399e-01 5.35384059e-01 5.19700229e-01 4.99710679e-01 4.79327172e-01 4.64054912e-01 4.52113032e-01 4.21310246e-01 2.75286049e-01 6.85258433e-02 1.30584359e-01 1.63204540e-02 1.61303449e-02 4.74513412e-01 5.40008008e-01 4.75601614e-01 4.21047688e-01 4.04997110e-01 4.10288066e-01 4.23292249e-01 4.38087553e-01 4.52604532e-01 4.66202974e-01 4.78631854e-01 4.89665806e-01 4.99032021e-01 5.06434500e-01 5.11574328e-01 5.14123261e-01 5.13656795e-01 5.09589255e-01 5.01195908e-01 4.87805665e-01 4.69233513e-01 4.46778774e-01 4.25204962e-01 4.13138509e-01 4.17437226e-01 4.23176616e-01 3.12445074e-01 5.16545884e-02 1.06718175e-01 1.60977747e-02 1.55249834e-02 5.44972003e-01 5.08169830e-01 4.36004281e-01 3.96453947e-01 3.90833646e-01 3.98936093e-01 4.09740329e-01 4.20128912e-01 4.29753363e-01 4.38770175e-01 4.47204292e-01 4.54877019e-01 4.61482733e-01 4.66672242e-01 4.70094830e-01 4.71387476e-01 4.70125645e-01 4.65776682e-01 4.57739741e-01 4.45576727e-01 4.29430723e-01 4.10527706e-01 3.92478228e-01 3.83762211e-01 3.96917492e-01 4.33309972e-01 4.13101435e-01 4.59612012e-02 7.68610686e-02 1.87511984e-02 1.32281808e-02 7.12935448e-01 5.14482200e-01 4.15073544e-01 3.89867783e-01 3.92727524e-01 3.99172962e-01 4.02995199e-01 4.05268848e-01 4.07505274e-01 4.10334617e-01 4.13726628e-01 4.17330801e-01 4.20694619e-01 4.23375964e-01 4.24986422e-01 4.25191641e-01 4.23690140e-01 4.20200676e-01 4.14516777e-01 4.06714737e-01 3.97490263e-01 3.88072014e-01 3.79406840e-01 3.75959247e-01 4.02706087e-01 5.13018548e-01 7.09175348e-01 3.99565473e-02 5.12390584e-02 4.44202609e-02 1.27492966e-02 8.44092727e-01 6.75322294e-01 4.55349088e-01 4.11926329e-01 4.09482509e-01 4.05478209e-01 3.97543311e-01 3.89848471e-01 3.84361982e-01 3.81254077e-01 3.79986107e-01 3.79863620e-01 3.80241513e-01 3.80582035e-01 3.80461544e-01 3.79565716e-01 3.77696902e-01 3.74815524e-01 3.71151298e-01 3.67451191e-01 3.65450621e-01 3.68294001e-01 3.79333347e-01 4.01592016e-01 4.91872966e-01 7.65045643e-01 8.03880215e-01 3.66089121e-02 4.22586128e-02 1.24102104e-02 1.08689237e-02 9.19550538e-01 8.45655918e-01 5.40472090e-01 4.24287319e-01 4.10185933e-01 3.98467124e-01 3.84158701e-01 3.71799737e-01 3.62823009e-01 3.56878906e-01 3.53146762e-01 3.50820392e-01 3.49225461e-01 3.47817063e-01 3.46151441e-01 3.43867749e-01 3.40702116e-01 3.36553961e-01 3.31621438e-01 3.26633781e-01 3.23361516e-01 3.26317161e-01 3.49192560e-01 4.38981563e-01 6.99604332e-01 8.50147128e-01 8.91757071e-01 3.07567418e-02 3.60806696e-02 2.83809397e-02 1.81299280e-02 9.52414036e-01 4.77982461e-01 6.00780725e-01 5.72592139e-01 5.82092583e-01 5.85835278e-01 5.83208025e-01 5.78586876e-01 5.74285686e-01 5.70972323e-01 5.68600059e-01 5.66896021e-01 5.65550804e-01 5.64270556e-01 5.62777221e-01 5.60796380e-01 5.58059514e-01 5.54342628e-01 5.49564958e-01 5.43959141e-01 5.38325489e-01 5.34630477e-01 5.38269162e-01 5.63818574e-01 6.40693128e-01 8.00822735e-01 9.36055958e-01 9.63073149e-02 5.71266972e-02 
