# vtk DataFile Version 2.0
results_case1_non_linear/iter4.vtk, Created by Freefem++ 
ASCII
DATASET UNSTRUCTURED_GRID
POINTS 961 float
0 0 0
0.033333333 0 0
0.066666667 0 0
0.1 0 0
0.13333333 0 0
0.16666667 0 0
0.2 0 0
0.23333333 0 0
0.26666667 0 0
0.3 0 0
0.33333333 0 0
0.36666667 0 0
0.4 0 0
0.43333333 0 0
0.46666667 0 0
0.5 0 0
0.53333333 0 0
0.56666667 0 0
0.6 0 0
0.63333333 0 0
0.66666667 0 0
0.7 0 0
0.73333333 0 0
0.76666667 0 0
0.8 0 0
0.83333333 0 0
0.86666667 0 0
0.9 0 0
0.93333333 0 0
0.96666667 0 0
1 0 0
0 0.033333333 0
0.033333333 0.033333333 0
0.066666667 0.033333333 0
0.1 0.033333333 0
0.13333333 0.033333333 0
0.16666667 0.033333333 0
0.2 0.033333333 0
0.23333333 0.033333333 0
0.26666667 0.033333333 0
0.3 0.033333333 0
0.33333333 0.033333333 0
0.36666667 0.033333333 0
0.4 0.033333333 0
0.43333333 0.033333333 0
0.46666667 0.033333333 0
0.5 0.033333333 0
0.53333333 0.033333333 0
0.56666667 0.033333333 0
0.6 0.033333333 0
0.63333333 0.033333333 0
0.66666667 0.033333333 0
0.7 0.033333333 0
0.73333333 0.033333333 0
0.76666667 0.033333333 0
0.8 0.033333333 0
0.83333333 0.033333333 0
0.86666667 0.033333333 0
0.9 0.033333333 0
0.93333333 0.033333333 0
0.96666667 0.033333333 0
1 0.033333333 0
0 0.066666667 0
0.033333333 0.066666667 0
0.066666667 0.066666667 0
0.1 0.066666667 0
0.13333333 0.066666667 0
0.16666667 0.066666667 0
0.2 0.066666667 0
0.23333333 0.066666667 0
0.26666667 0.066666667 0
0.3 0.066666667 0
0.33333333 0.066666667 0
0.36666667 0.066666667 0
0.4 0.066666667 0
0.43333333 0.066666667 0
0.46666667 0.066666667 0
0.5 0.066666667 0
0.53333333 0.066666667 0
0.56666667 0.066666667 0
0.6 0.066666667 0
0.63333333 0.066666667 0
0.66666667 0.066666667 0
0.7 0.066666667 0
0.73333333 0.066666667 0
0.76666667 0.066666667 0
0.8 0.066666667 0
0.83333333 0.066666667 0
0.86666667 0.066666667 0
0.9 0.066666667 0
0.93333333 0.066666667 0
0.96666667 0.066666667 0
1 0.066666667 0
0 0.1 0
0.033333333 0.1 0
0.066666667 0.1 0
0.1 0.1 0
0.13333333 0.1 0
0.16666667 0.1 0
0.2 0.1 0
0.23333333 0.1 0
0.26666667 0.1 0
0.3 0.1 0
0.33333333 0.1 0
0.36666667 0.1 0
0.4 0.1 0
0.43333333 0.1 0
0.46666667 0.1 0
0.5 0.1 0
0.53333333 0.1 0
0.56666667 0.1 0
0.6 0.1 0
0.63333333 0.1 0
0.66666667 0.1 0
0.7 0.1 0
0.73333333 0.1 0
0.76666667 0.1 0
0.8 0.1 0
0.83333333 0.1 0
0.86666667 0.1 0
0.9 0.1 0
0.93333333 0.1 0
0.96666667 0.1 0
1 0.1 0
0 0.13333333 0
0.033333333 0.13333333 0
0.066666667 0.13333333 0
0.1 0.13333333 0
0.13333333 0.13333333 0
0.16666667 0.13333333 0
0.2 0.13333333 0
0.23333333 0.13333333 0
0.26666667 0.13333333 0
0.3 0.13333333 0
0.33333333 0.13333333 0
0.36666667 0.13333333 0
0.4 0.13333333 0
0.43333333 0.13333333 0
0.46666667 0.13333333 0
0.5 0.13333333 0
0.53333333 0.13333333 0
0.56666667 0.13333333 0
0.6 0.13333333 0
0.63333333 0.13333333 0
0.66666667 0.13333333 0
0.7 0.13333333 0
0.73333333 0.13333333 0
0.76666667 0.13333333 0
0.8 0.13333333 0
0.83333333 0.13333333 0
0.86666667 0.13333333 0
0.9 0.13333333 0
0.93333333 0.13333333 0
0.96666667 0.13333333 0
1 0.13333333 0
0 0.16666667 0
0.033333333 0.16666667 0
0.066666667 0.16666667 0
0.1 0.16666667 0
0.13333333 0.16666667 0
0.16666667 0.16666667 0
0.2 0.16666667 0
0.23333333 0.16666667 0
0.26666667 0.16666667 0
0.3 0.16666667 0
0.33333333 0.16666667 0
0.36666667 0.16666667 0
0.4 0.16666667 0
0.43333333 0.16666667 0
0.46666667 0.16666667 0
0.5 0.16666667 0
0.53333333 0.16666667 0
0.56666667 0.16666667 0
0.6 0.16666667 0
0.63333333 0.16666667 0
0.66666667 0.16666667 0
0.7 0.16666667 0
0.73333333 0.16666667 0
0.76666667 0.16666667 0
0.8 0.16666667 0
0.83333333 0.16666667 0
0.86666667 0.16666667 0
0.9 0.16666667 0
0.93333333 0.16666667 0
0.96666667 0.16666667 0
1 0.16666667 0
0 0.2 0
0.033333333 0.2 0
0.066666667 0.2 0
0.1 0.2 0
0.13333333 0.2 0
0.16666667 0.2 0
0.2 0.2 0
0.23333333 0.2 0
0.26666667 0.2 0
0.3 0.2 0
0.33333333 0.2 0
0.36666667 0.2 0
0.4 0.2 0
0.43333333 0.2 0
0.46666667 0.2 0
0.5 0.2 0
0.53333333 0.2 0
0.56666667 0.2 0
0.6 0.2 0
0.63333333 0.2 0
0.66666667 0.2 0
0.7 0.2 0
0.73333333 0.2 0
0.76666667 0.2 0
0.8 0.2 0
0.83333333 0.2 0
0.86666667 0.2 0
0.9 0.2 0
0.93333333 0.2 0
0.96666667 0.2 0
1 0.2 0
0 0.23333333 0
0.033333333 0.23333333 0
0.066666667 0.23333333 0
0.1 0.23333333 0
0.13333333 0.23333333 0
0.16666667 0.23333333 0
0.2 0.23333333 0
0.23333333 0.23333333 0
0.26666667 0.23333333 0
0.3 0.23333333 0
0.33333333 0.23333333 0
0.36666667 0.23333333 0
0.4 0.23333333 0
0.43333333 0.23333333 0
0.46666667 0.23333333 0
0.5 0.23333333 0
0.53333333 0.23333333 0
0.56666667 0.23333333 0
0.6 0.23333333 0
0.63333333 0.23333333 0
0.66666667 0.23333333 0
0.7 0.23333333 0
0.73333333 0.23333333 0
0.76666667 0.23333333 0
0.8 0.23333333 0
0.83333333 0.23333333 0
0.86666667 0.23333333 0
0.9 0.23333333 0
0.93333333 0.23333333 0
0.96666667 0.23333333 0
1 0.23333333 0
0 0.26666667 0
0.033333333 0.26666667 0
0.066666667 0.26666667 0
0.1 0.26666667 0
0.13333333 0.26666667 0
0.16666667 0.26666667 0
0.2 0.26666667 0
0.23333333 0.26666667 0
0.26666667 0.26666667 0
0.3 0.26666667 0
0.33333333 0.26666667 0
0.36666667 0.26666667 0
0.4 0.26666667 0
0.43333333 0.26666667 0
0.46666667 0.26666667 0
0.5 0.26666667 0
0.53333333 0.26666667 0
0.56666667 0.26666667 0
0.6 0.26666667 0
0.63333333 0.26666667 0
0.66666667 0.26666667 0
0.7 0.26666667 0
0.73333333 0.26666667 0
0.76666667 0.26666667 0
0.8 0.26666667 0
0.83333333 0.26666667 0
0.86666667 0.26666667 0
0.9 0.26666667 0
0.93333333 0.26666667 0
0.96666667 0.26666667 0
1 0.26666667 0
0 0.3 0
0.033333333 0.3 0
0.066666667 0.3 0
0.1 0.3 0
0.13333333 0.3 0
0.16666667 0.3 0
0.2 0.3 0
0.23333333 0.3 0
0.26666667 0.3 0
0.3 0.3 0
0.33333333 0.3 0
0.36666667 0.3 0
0.4 0.3 0
0.43333333 0.3 0
0.46666667 0.3 0
0.5 0.3 0
0.53333333 0.3 0
0.56666667 0.3 0
0.6 0.3 0
0.63333333 0.3 0
0.66666667 0.3 0
0.7 0.3 0
0.73333333 0.3 0
0.76666667 0.3 0
0.8 0.3 0
0.83333333 0.3 0
0.86666667 0.3 0
0.9 0.3 0
0.93333333 0.3 0
0.96666667 0.3 0
1 0.3 0
0 0.33333333 0
0.033333333 0.33333333 0
0.066666667 0.33333333 0
0.1 0.33333333 0
0.13333333 0.33333333 0
0.16666667 0.33333333 0
0.2 0.33333333 0
0.23333333 0.33333333 0
0.26666667 0.33333333 0
0.3 0.33333333 0
0.33333333 0.33333333 0
0.36666667 0.33333333 0
0.4 0.33333333 0
0.43333333 0.33333333 0
0.46666667 0.33333333 0
0.5 0.33333333 0
0.53333333 0.33333333 0
0.56666667 0.33333333 0
0.6 0.33333333 0
0.63333333 0.33333333 0
0.66666667 0.33333333 0
0.7 0.33333333 0
0.73333333 0.33333333 0
0.76666667 0.33333333 0
0.8 0.33333333 0
0.83333333 0.33333333 0
0.86666667 0.33333333 0
0.9 0.33333333 0
0.93333333 0.33333333 0
0.96666667 0.33333333 0
1 0.33333333 0
0 0.36666667 0
0.033333333 0.36666667 0
0.066666667 0.36666667 0
0.1 0.36666667 0
0.13333333 0.36666667 0
0.16666667 0.36666667 0
0.2 0.36666667 0
0.23333333 0.36666667 0
0.26666667 0.36666667 0
0.3 0.36666667 0
0.33333333 0.36666667 0
0.36666667 0.36666667 0
0.4 0.36666667 0
0.43333333 0.36666667 0
0.46666667 0.36666667 0
0.5 0.36666667 0
0.53333333 0.36666667 0
0.56666667 0.36666667 0
0.6 0.36666667 0
0.63333333 0.36666667 0
0.66666667 0.36666667 0
0.7 0.36666667 0
0.73333333 0.36666667 0
0.76666667 0.36666667 0
0.8 0.36666667 0
0.83333333 0.36666667 0
0.86666667 0.36666667 0
0.9 0.36666667 0
0.93333333 0.36666667 0
0.96666667 0.36666667 0
1 0.36666667 0
0 0.4 0
0.033333333 0.4 0
0.066666667 0.4 0
0.1 0.4 0
0.13333333 0.4 0
0.16666667 0.4 0
0.2 0.4 0
0.23333333 0.4 0
0.26666667 0.4 0
0.3 0.4 0
0.33333333 0.4 0
0.36666667 0.4 0
0.4 0.4 0
0.43333333 0.4 0
0.46666667 0.4 0
0.5 0.4 0
0.53333333 0.4 0
0.56666667 0.4 0
0.6 0.4 0
0.63333333 0.4 0
0.66666667 0.4 0
0.7 0.4 0
0.73333333 0.4 0
0.76666667 0.4 0
0.8 0.4 0
0.83333333 0.4 0
0.86666667 0.4 0
0.9 0.4 0
0.93333333 0.4 0
0.96666667 0.4 0
1 0.4 0
0 0.43333333 0
0.033333333 0.43333333 0
0.066666667 0.43333333 0
0.1 0.43333333 0
0.13333333 0.43333333 0
0.16666667 0.43333333 0
0.2 0.43333333 0
0.23333333 0.43333333 0
0.26666667 0.43333333 0
0.3 0.43333333 0
0.33333333 0.43333333 0
0.36666667 0.43333333 0
0.4 0.43333333 0
0.43333333 0.43333333 0
0.46666667 0.43333333 0
0.5 0.43333333 0
0.53333333 0.43333333 0
0.56666667 0.43333333 0
0.6 0.43333333 0
0.63333333 0.43333333 0
0.66666667 0.43333333 0
0.7 0.43333333 0
0.73333333 0.43333333 0
0.76666667 0.43333333 0
0.8 0.43333333 0
0.83333333 0.43333333 0
0.86666667 0.43333333 0
0.9 0.43333333 0
0.93333333 0.43333333 0
0.96666667 0.43333333 0
1 0.43333333 0
0 0.46666667 0
0.033333333 0.46666667 0
0.066666667 0.46666667 0
0.1 0.46666667 0
0.13333333 0.46666667 0
0.16666667 0.46666667 0
0.2 0.46666667 0
0.23333333 0.46666667 0
0.26666667 0.46666667 0
0.3 0.46666667 0
0.33333333 0.46666667 0
0.36666667 0.46666667 0
0.4 0.46666667 0
0.43333333 0.46666667 0
0.46666667 0.46666667 0
0.5 0.46666667 0
0.53333333 0.46666667 0
0.56666667 0.46666667 0
0.6 0.46666667 0
0.63333333 0.46666667 0
0.66666667 0.46666667 0
0.7 0.46666667 0
0.73333333 0.46666667 0
0.76666667 0.46666667 0
0.8 0.46666667 0
0.83333333 0.46666667 0
0.86666667 0.46666667 0
0.9 0.46666667 0
0.93333333 0.46666667 0
0.96666667 0.46666667 0
1 0.46666667 0
0 0.5 0
0.033333333 0.5 0
0.066666667 0.5 0
0.1 0.5 0
0.13333333 0.5 0
0.16666667 0.5 0
0.2 0.5 0
0.23333333 0.5 0
0.26666667 0.5 0
0.3 0.5 0
0.33333333 0.5 0
0.36666667 0.5 0
0.4 0.5 0
0.43333333 0.5 0
0.46666667 0.5 0
0.5 0.5 0
0.53333333 0.5 0
0.56666667 0.5 0
0.6 0.5 0
0.63333333 0.5 0
0.66666667 0.5 0
0.7 0.5 0
0.73333333 0.5 0
0.76666667 0.5 0
0.8 0.5 0
0.83333333 0.5 0
0.86666667 0.5 0
0.9 0.5 0
0.93333333 0.5 0
0.96666667 0.5 0
1 0.5 0
0 0.53333333 0
0.033333333 0.53333333 0
0.066666667 0.53333333 0
0.1 0.53333333 0
0.13333333 0.53333333 0
0.16666667 0.53333333 0
0.2 0.53333333 0
0.23333333 0.53333333 0
0.26666667 0.53333333 0
0.3 0.53333333 0
0.33333333 0.53333333 0
0.36666667 0.53333333 0
0.4 0.53333333 0
0.43333333 0.53333333 0
0.46666667 0.53333333 0
0.5 0.53333333 0
0.53333333 0.53333333 0
0.56666667 0.53333333 0
0.6 0.53333333 0
0.63333333 0.53333333 0
0.66666667 0.53333333 0
0.7 0.53333333 0
0.73333333 0.53333333 0
0.76666667 0.53333333 0
[...]
CELL_DATA 1920
Scalars  Label int 1
LOOKUP_TABLE FreeFempp_table
0
0
0
0
0
0
0
0
0
0
0
0
0
0
0
0
0
0
0
0
0
0
0
0
0
0
0
0
0
0
0
0
0
0
0
0
0
0
0
0
0
0
0
0
0
0
0
0
0
0
0
0
0
0
0
0
0
0
0
0
0
0
0
0
0
0
0
0
0
0
0
0
0
0
0
0
0
0
0
0
0
0
0
0
0
0
0
0
0
0
0
0
0
0
0
0
0
0
0
0
0
0
0
0
0
0
0
0
0
0
0
0
0
0
0
0
0
0
0
0
0
0
0
0
0
0
0
0
0
0
0
0
0
0
0
0
0
0
0
0
0
0
0
0
0
0
0
0
0
0
0
0
0
0
0
0
0
0
0
0
0
0
0
0
0
0
0
0
0
0
0
0
0
0
0
0
0
0
0
0
0
0
0
0
0
0
0
0
0
0
0
0
0
0
0
0
0
0
0
0
0
0
0
0
0
0
0
0
0
0
0
0
0
0
0
0
0
0
0
0
0
0
0
0
0
0
0
0
0
0
0
0
0
0
0
0
0
0
0
0
0
0
0
0
0
0
0
0
0
0
0
0
0
0
0
0
0
0
0
0
0
0
0
0
0
0
0
0
0
0
0
0
0
0
0
0
0
0
0
0
0
0
0
0
0
0
0
0
0
0
0
0
0
0
0
0
0
0
0
0
0
0
0
0
0
0
0
0
0
0
0
0
0
0
0
0
0
0
0
0
0
0
0
0
0
0
0
0
0
0
0
0
0
0
0
0
0
0
0
0
0
0
0
0
0
0
0
0
0
0
0
0
0
0
0
0
0
0
0
0
0
0
0
0
0
0
0
0
0
0
0
0
0
0
0
0
0
0
0
0
0
0
0
0
0
0
0
0
0
0
0
0
0
0
0
0
0
0
0
0
0
0
0
0
0
0
0
0
0
0
0
0
0
0
0
0
0
0
0
0
0
0
0
0
0
0
0
0
0
0
0
0
0
0
0
0
0
0
0
0
0
0
0
0
0
0
0
0
0
0
0
0
0
0
0
0
0
0
0
0
0
0
0
0
0
0
0
0
0
0
0
0
0
0
0
0
0
0
0
0
0
0
0
0
0
0
0
0
0
0
0
0
0
0
0
0
0
0
0
0
0
0
0
0
0
0
0
0
0
0
0
0
0
0
0
0
0
0
0
0
0
0
0
0
0
0
0
0
0
0
0
0
0
0
0
0
0
0
0
0
0
0
0
0
0
0
0
0
0
0
0
0
0
0
0
0
0
0
0
0
0
0
0
0
0
0
0
0
0
0
0
0
0
0
0
0
0
0
0
0
0
0
0
0
0
0
0
0
0
0
0
0
0
0
0
0
0
0
0
0
0
0
0
0
0
0
0
0
0
0
0
0
0
0
0
0
0
0
0
0
0
0
0
0
0
0
0
0
0
0
0
0
0
0
0
0
0
0
0
0
0
0
0
0
0
0
0
0
0
0
0
0
0
0
0
0
0
0
0
0
0
0
0
0
0
0
0
0
0
0
0
0
0
0
0
0
0
0
0
0
0
0
0
0
0
0
0
0
0
0
0
0
0
0
0
0
0
0
0
0
0
0
0
0
0
0
0
0
0
0
0
0
0
0
0
0
0
0
0
0
0
0
0
0
0
0
0
0
0
0
0
0
0
0
0
0
0
0
0
0
0
0
0
0
0
0
0
0
0
0
0
0
0
0
0
0
0
0
0
0
0
0
0
0
0
0
0
0
0
0
0
0
0
0
0
0
0
0
0
0
0
0
0
0
0
0
0
0
0
0
0
0
0
0
0
0
0
0
0
0
0
0
0
0
0
0
0
0
0
0
0
0
0
0
0
0
0
0
0
0
0
0
0
0
0
0
0
0
0
0
0
0
0
0
0
0
0
0
0
0
0
0
0
0
0
0
0
0
0
0
0
0
0
0
0
0
0
0
0
0
0
0
0
0
0
0
0
0
0
0
0
0
0
0
0
0
0
0
0
0
0
0
0
0
0
0
0
0
0
0
0
0
0
0
0
0
0
0
0
0
0
0
0
0
0
0
0
0
0
0
0
0
0
0
0
0
0
0
0
0
0
0
0
0
0
0
0
0
0
0
0
0
0
0
0
0
0
0
0
0
0
0
0
0
0
0
0
0
0
0
0
0
0
0
0
0
0
0
0
0
0
0
0
0
0
0
0
0
0
0
0
0
0
0
0
0
0
0
0
0
0
0
0
0
0
0
0
0
0
0
0
0
0
0
0
0
0
0
0
0
0
0
0
0
0
0
0
0
0
0
0
0
0
0
0
0
0
0
0
0
0
0
0
0
0
0
0
0
0
0
0
0
0
0
0
0
0
0
0
0
0
0
0
0
0
0
0
0
0
0
0
0
0
0
0
0
0
0
0
0
0
0
0
0
0
0
0
0
0
0
0
0
0
0
0
0
0
0
0
0
0
0
0
0
0
0
0
0
0
0
0
0
0
0
0
0
0
0
0
0
0
0
0
0
0
0
0
0
0
0
0
0
0
0
0
0
0
0
0
0
0
0
0
0
0
0
0
0
0
0
0
0
0
0
0
0
0
0
0
0
0
0
0
0
0
0
0
0
0
0
0
0
0
0
0
0
0
0
0
0
0
0
0
0
0
0
0
0
0
0
0
0
0
0
0
0
0
0
0
0
0
0
0
0
0
0
0
0
0
0
0
0
0
0
0
0
0
0
0
0
0
0
0
0
0
0
0
0
0
0
0
0
0
0
0
0
0
0
0
0
0
0
0
0
0
0
0
0
0
0
0
0
0
0
0
0
0
0
0
0
0
0
0
0
0
0
0
0
0
0
0
0
0
0
0
0
0
0
0
0
0
0
0
0
0
0
0
0
0
0
0
0
0
0
0
0
0
0
0
0
0
0
0
0
0
0
0
0
0
0
0
0
0
0
0
0
0
0
0
0
0
0
0
0
0
0
0
0
0
0
0
0
0
0
0
0
0
0
0
0
0
0
0
0
0
0
0
0
0
0
0
0
0
0
0
0
0
0
0
0
0
0
0
0
0
0
0
0
0
0
0
0
0
0
0
0
0
0
0
0
0
0
0
0
0
0
0
0
0
0
0
0
0
0
0
0
0
0
0
0
0
0
0
0
0
0
0
0
0
0
0
0
0
0
0
0
0
0
0
0
0
0
0
0
0
0
0
0
0
0
0
0
0
0
0
0
0
0
0
0
0
0
0
0
0
0
0
0
0
0
0
0
0
0
0
0
0
0
0
0
0
0
0
0
0
0
0
0
0
0
0
0
0
0
0
0
0
0
0
0
0
0
0
0
0
0
0
0
0
0
0
0
0
0
0
0
0
0
0
0
0
0
0
0
0
0
0
0
0
0
0
0
0
0
0
0
0
0
0
0
0
0
0
0
0
0
0
0
0
0
0
0
0
0
0
0
0
0
0
0
0
0
0
0
0
0
0
0
0
0
0
0
0
0
0
0
0
0
0
0
0
0
0
0
0
0
0
0
0
0
0
0
0
0
0
0
0
0
0
0
0
0
0
0
0
0
0
0
0
0
0
0
0
0
0
0
0
0
0
0
0
0
0
0
0
0
0
0
0
0
0
0
0
0
0
0
0
0
0
0
0
0
0
0
0
0
0
0
0
0
0
0
0
0
0
0
0
0
0
0
0
0
0
0
0
0
0
0
0
0
0
0
0
0
0
0
0
0
0
0
0
0
0
0
0
0
0
0
0
0
0
0
0
0
0
0
0
0
0
0
0
0
0
0
0
0
0
0
0
0
0
0
0
0
0
0
0
0
0
0
0
0
0
0
0
0
0
0
0
0
0
0
0
0
0
0
0
0
0
0
0
0
0
0
0
0
0
0
0
0
0
0
0
0
0
0
0
0
0
0
0
0
0
0
0
0
0
0
0
0
0
0
0
0
0
0
0
0
0
0
0
0
0
0
0
0
0
0
0
0
0
0
0
0
0
0
0
0
0
0
0
0
0
0
0
0
0
0
0
0
0
0
0
0
0
0
0
0
0
0
0
0
0
0
0
0
0
0
0
0
0
0
0
0
0
0
0
0
0
0
1
1
1
1
1
1
1
1
1
1
1
1
1
1
1
1
1
1
1
1
1
1
1
1
1
1
1
1
1
1
2
2
2
2
2
2
2
2
2
2
2
2
2
2
2
2
2
2
2
2
2
2
2
2
2
2
2
2
2
2
3
3
3
3
3
3
3
3
3
3
3
3
3
3
3
3
3
3
3
3
3
3
3
3
3
3
3
3
3
3
4
4
4
4
4
4
4
4
4
4
4
4
4
4
4
4
4
4
4
4
4
4
4
4
4
4
4
4
4
4

LOOKUP_TABLE FreeFempp_table 5
1.00000000 0.00000000 0.00000000 1.00000000
1.00000000 1.00000000 0.00000000 1.00000000
1.00000000 0.00000000 1.00000000 1.00000000
0.00000000 1.00000000 0.00000000 1.00000000
0.00000000 1.00000000 1.00000000 1.00000000

POINT_DATA 961
FIELD FieldData 1
Density 1 961 float
5.36168106e-02 6.14744686e-02 9.47793871e-02 1.36291444e-01 1.55444831e-01 1.34311661e-01 8.31525400e-02 3.08878310e-02 6.65294379e-03 3.18596535e-03 6.28717989e-03 4.64375243e-02 2.78935045e-01 6.43336236e-01 8.71913612e-01 8.69780064e-01 7.84651399e-01 8.53540719e-01 8.94705355e-01 9.00341094e-01 9.08436596e-01 9.08147097e-01 9.01304305e-01 8.91153574e-01 8.78539681e-01 8.65828872e-01 8.54201138e-01 8.44694436e-01 8.37267458e-01 8.29521894e-01 8.15521955e-01 3.61703825e-03 4.72767465e-03 7.18839653e-03 1.23434924e-02 1.75509229e-02 1.72566958e-02 1.25627732e-02 7.38968607e-03 3.28886253e-03 1.87192706e-03 2.93937558e-03 1.47966556e-02 1.27768204e-01 5.07628083e-01 8.73705029e-01 8.33801746e-01 3.78261268e-01 4.19836938e-01 6.70432091e-01 6.97554111e-01 7.07509756e-01 7.39234209e-01 7.91315496e-01 8.25366795e-01 8.31343710e-01 8.26917291e-01 8.18373382e-01 8.10158789e-01 8.04678679e-01 8.03647101e-01 7.99226701e-01 7.68244790e-04 5.11278631e-04 5.16773085e-04 7.85697484e-04 1.10716035e-03 1.17753958e-03 9.89467022e-04 7.60473486e-04 5.97738486e-04 5.98733022e-04 7.42827775e-04 1.61857554e-03 7.81336147e-03 8.85563120e-02 6.50655687e-01 8.38245153e-01 7.92896897e-02 1.35890432e-02 1.22672906e-02 1.26886573e-02 1.28495051e-02 1.71513185e-02 5.90953268e-02 2.06831366e-01 3.66938621e-01 4.99905735e-01 5.92913508e-01 6.29907012e-01 6.40992939e-01 6.57326579e-01 6.84658885e-01 9.28416848e-03 5.66252042e-03 4.25217580e-03 3.78275779e-03 3.64262727e-03 3.68942088e-03 3.84397921e-03 3.97544121e-03 3.89496982e-03 3.39955161e-03 2.22246698e-03 1.01278443e-03 8.35846702e-04 3.16051231e-03 2.44419947e-02 7.14306533e-01 7.20603883e-01 4.46033254e-02 8.23023450e-03 7.26282410e-03 4.76044789e-03 1.47372601e-03 2.20007962e-03 4.92867734e-03 8.23757425e-03 2.40807179e-02 1.15156330e-01 3.11940074e-01 4.47542578e-01 5.06633341e-01 5.58196664e-01 1.89315051e-01 1.26730755e-01 9.90054905e-02 8.77729207e-02 8.57551023e-02 9.16540027e-02 1.02080137e-01 1.10435896e-01 1.06601551e-01 8.32266808e-02 4.41563129e-02 1.41270114e-02 4.56501171e-03 1.60870177e-03 1.43278390e-03 2.51573995e-02 7.42411852e-01 7.86361933e-01 3.20716292e-01 3.08816880e-01 2.54441530e-01 3.65699381e-02 1.38629777e-02 6.43677358e-03 1.51607476e-03 1.71223166e-03 6.14934694e-03 3.98639962e-02 1.69656083e-01 3.34005386e-01 4.36148763e-01 3.86342913e-01 2.97548532e-01 2.36691281e-01 2.25169539e-01 2.41415188e-01 2.73273736e-01 3.06031942e-01 3.30839574e-01 3.41719657e-01 3.31026256e-01 2.87412465e-01 2.08391219e-01 1.15063317e-01 2.76898369e-02 6.21296884e-03 2.58413190e-03 9.48507246e-03 4.39085066e-02 7.64639854e-01 9.10450816e-01 9.27179158e-01 8.67880404e-01 7.58474767e-01 4.94491309e-01 4.73359451e-02 8.79165437e-03 1.65375602e-03 3.58541985e-03 2.43848860e-02 1.32616863e-01 2.59934694e-01 4.63099718e-01 3.82383287e-01 3.24114978e-01 3.14353704e-01 3.38121176e-01 3.75150114e-01 4.04362679e-01 4.22672302e-01 4.33465600e-01 4.38207924e-01 4.35905933e-01 4.24188673e-01 3.96665454e-01 3.09460700e-01 1.74150407e-01 3.92656028e-02 7.45396316e-03 2.27161823e-03 1.64464116e-02 2.46270090e-01 5.81849217e-01 6.06941462e-01 6.64406836e-01 8.52589130e-01 8.84349406e-01 6.55059934e-01 2.23199446e-02 1.75968301e-03 3.03722057e-03 2.25204304e-02 8.17972273e-02 5.16090035e-01 4.55413699e-01 4.26590204e-01 4.24972475e-01 4.37303066e-01 4.53745693e-01 4.66722399e-01 4.76120085e-01 4.83300596e-01 4.88619238e-01 4.92024183e-01 4.93752837e-01 4.93595332e-01 4.87495482e-01 4.70529169e-01 3.94663393e-01 2.43931606e-01 3.65881547e-02 7.15247123e-03 4.29135840e-03 8.54896568e-03 1.00147389e-02 1.33274784e-02 4.55401391e-02 5.30431271e-01 9.22428429e-01 7.37976134e-01 2.25792825e-02 1.62097532e-03 3.03602708e-03 1.22510083e-02 5.96161604e-01 5.44409931e-01 5.21813035e-01 5.21017551e-01 5.25493026e-01 5.32807827e-01 5.39918780e-01 5.45885444e-01 5.50606787e-01 5.53857982e-01 5.55538714e-01 5.56018829e-01 5.55927396e-01 5.55282891e-01 5.54075599e-01 5.50310612e-01 5.42248607e-01 4.45906281e-01 2.54524499e-01 1.51994005e-02 4.12313920e-03 1.61657762e-03 1.19455042e-03 2.84246891e-03 1.44907413e-02 1.02942236e-01 8.75907898e-01 7.12736547e-01 1.47132920e-02 1.24491297e-03 1.81267585e-03 7.23442078e-01 6.92597449e-01 6.73279941e-01 6.67077661e-01 6.62561476e-01 6.59311891e-01 6.56199217e-01 6.52652740e-01 6.48602545e-01 6.43929720e-01 6.38656497e-01 6.33219659e-01 6.28283083e-01 6.24362648e-01 6.21918082e-01 6.21223271e-01 6.21384084e-01 6.16029561e-01 6.00260735e-01 4.00138378e-01 1.23698346e-01 2.31740773e-02 6.74639549e-03 4.80485102e-03 4.62705269e-03 1.17790606e-02 2.35919401e-01 9.38358307e-01 2.65863866e-01 3.97654669e-03 9.60522564e-04 7.90038884e-01 7.86284208e-01 7.82038152e-01 7.79431343e-01 7.74287403e-01 7.67232895e-01 7.58518994e-01 7.48559713e-01 7.37810135e-01 7.26554513e-01 7.15188622e-01 7.04406977e-01 6.95034921e-01 6.87856555e-01 6.83717668e-01 6.83520615e-01 6.87772334e-01 6.95946693e-01 7.06698418e-01 7.07513452e-01 6.45032287e-01 4.16700631e-01 1.61223188e-01 6.69840947e-02 1.90022662e-02 1.60464346e-02 5.37427366e-02 8.64274263e-01 7.86355257e-01 1.06537007e-02 9.45525186e-04 7.53742874e-01 7.59648800e-01 7.63069510e-01 7.67438769e-01 7.71015942e-01 7.72980332e-01 7.72234619e-01 7.68365562e-01 7.61723220e-01 7.53017962e-01 7.43174493e-01 7.33250201e-01 7.24280357e-01 7.17201710e-01 7.12932885e-01 7.12427318e-01 7.16636837e-01 7.26518333e-01 7.42806792e-01 7.65186787e-01 7.85020471e-01 7.79613137e-01 7.32461691e-01 5.42203188e-01 1.83738559e-01 1.30444929e-01 2.64686346e-01 8.22225869e-01 8.84552658e-01 1.55499838e-02 6.80055702e-04 6.52311027e-01 6.47008598e-01 6.47606313e-01 6.54052615e-01 6.66778624e-01 6.84852540e-01 7.02682436e-01 7.15041220e-01 7.20783949e-01 7.21112430e-01 7.17883527e-01 7.12887704e-01 7.07597494e-01 7.03137815e-01 7.00354636e-01 6.99873388e-01 7.02166915e-01 7.07696259e-01 7.16929138e-01 7.30069160e-01 7.44599938e-01 7.50366688e-01 7.34912813e-01 6.80963993e-01 5.56004584e-01 5.04619062e-01 6.20813787e-01 8.68204594e-01 9.07228112e-01 1.74269900e-02 5.51248377e-04 5.66163421e-01 5.49034417e-01 5.45048714e-01 5.52380621e-01 5.65951824e-01 5.87427378e-01 6.13768280e-01 6.36893690e-01 6.52759910e-01 6.61434531e-01 6.64624870e-01 6.64372087e-01 6.62513018e-01 6.60460532e-01 6.59156919e-01 6.59068584e-01 6.60198152e-01 6.62122846e-01 6.63983822e-01 6.64390266e-01 6.60998762e-01 6.50030434e-01 6.25670552e-01 5.82640469e-01 5.32578886e-01 5.37042975e-01 6.68296218e-01 9.32295382e-01 9.06744242e-01 1.77320912e-02 6.06472429e-04 4.37248200e-01 4.02700305e-01 3.94115090e-01 4.15631801e-01 4.59319711e-01 5.11952877e-01 5.51604390e-01 5.80284297e-01 6.00680411e-01 6.12114489e-01 6.16675854e-01 6.16876662e-01 6.14821434e-01 6.12160265e-01 6.10066056e-01 6.09191835e-01 6.09604180e-01 6.10673487e-01 6.10917866e-01 6.07945502e-01 5.98864377e-01 5.82105517e-01 5.60570121e-01 5.42231500e-01 5.43152928e-01 6.15292847e-01 8.15185189e-01 9.52507317e-01 8.83891761e-01 1.60201415e-02 5.81871194e-04 3.26652616e-01 2.82088459e-01 2.71928400e-01 2.94151634e-01 3.44535679e-01 4.24846590e-01 5.01541197e-01 5.42262077e-01 5.66079736e-01 5.79394519e-01 5.83754182e-01 5.82121432e-01 5.77251315e-01 5.71337283e-01 5.66037714e-01 5.62505364e-01 5.61339498e-01 5.62424660e-01 5.64685822e-01 5.65966964e-01 5.63479185e-01 5.55554986e-01 5.45435786e-01 5.46687841e-01 5.89396060e-01 7.16043055e-01 8.88873637e-01 9.54826593e-01 8.09344411e-01 1.34982029e-02 5.88966126e-04 2.49663651e-01 2.00114176e-01 1.91423610e-01 2.17073664e-01 2.73346126e-01 3.66957873e-01 4.65663582e-01 5.16056836e-01 5.40942788e-01 5.55554271e-01 5.60312450e-01 5.57384253e-01 5.49802601e-01 5.40278792e-01 5.31050026e-01 5.23902774e-01 5.20140231e-01 5.20429015e-01 5.24556935e-01 5.31309366e-01 5.38852334e-01 5.46092987e-01 5.56772828e-01 5.87409377e-01 6.68862820e-01 8.08094323e-01 9.19509709e-01 9.41685975e-01 6.47514582e-01 1.06755029e-02 6.10267802e-04 1.84813157e-01 1.34902447e-01 1.28959775e-01 1.60809025e-01 2.31511474e-01 3.47516567e-01 4.57725465e-01 5.03926635e-01 5.24444997e-01 5.38050354e-01 5.42938650e-01 5.39614856e-01 5.30672669e-01 5.18808246e-01 5.06523192e-01 4.96080816e-01 4.89374459e-01 4.87728715e-01 4.91735280e-01 5.01308382e-01 5.16420305e-01 5.38962901e-01 5.77616572e-01 6.50842965e-01 7.64335632e-01 8.75470698e-01 9.30090487e-01 9.03808475e-01 4.09808040e-01 8.11184384e-03 6.96737552e-04 1.26306519e-01 8.22580457e-02 7.96774849e-02 1.16368860e-01 2.05726594e-01 3.53076547e-01 4.67307061e-01 5.02606869e-01 5.16599417e-01 5.27493954e-01 5.31758368e-01 5.28622448e-01 5.19811988e-01 5.07389903e-01 4.93571430e-01 4.80730027e-01 4.71135437e-01 4.66598302e-01 4.68383729e-01 4.77777719e-01 4.98027593e-01 5.37572861e-01 6.11679792e-01 7.27108777e-01 8.43137860e-01 9.10170436e-01 9.20444667e-01 7.90251434e-01 1.77750915e-01 5.97098889e-03 8.89557821e-04 7.94222802e-02 4.63454239e-02 4.63100858e-02 8.41500908e-02 1.93847567e-01 3.74776959e-01 4.80884224e-01 5.05717337e-01 5.14965355e-01 5.23525596e-01 5.27304769e-01 5.25255084e-01 5.18206716e-01 5.07195175e-01 4.93576229e-01 4.79276508e-01 4.66644078e-01 4.58072424e-01 4.56001967e-01 4.64043736e-01 4.91473734e-01 5.57325959e-01 6.74442828e-01 8.09810817e-01 8.94265592e-01 9.18986022e-01 8.69155109e-01 4.94250417e-01 4.51688990e-02 3.86636425e-03 1.23830128e-03 4.76824827e-02 2.61608958e-02 2.75177937e-02 6.45979196e-02 1.98210716e-01 4.04463023e-01 4.93220329e-01 5.09875238e-01 5.16491294e-01 5.23787439e-01 5.28175890e-01 5.28669357e-01 5.25316536e-01 5.18017113e-01 5.06815672e-01 4.92482990e-01 4.76929665e-01 4.63506371e-01 4.57488894e-01 4.67793405e-01 5.14354825e-01 6.22148991e-01 7.70790637e-01 8.79752755e-01 9.16886330e-01 8.93735409e-01 6.82821929e-01 1.69919714e-01 1.40029602e-02 2.85987090e-03 1.92639942e-03 2.86825374e-02 1.59081277e-02 1.81775521e-02 5.61283939e-02 2.22056642e-01 4.34650600e-01 5.03825366e-01 5.13158441e-01 5.17898679e-01 5.24604619e-01 5.30719340e-01 5.35121202e-01 5.37197471e-01 5.35855114e-01 5.29655457e-01 5.17666876e-01 5.01003742e-01 4.84895647e-01 4.80771154e-01 5.08198082e-01 5.96070170e-01 7.46006608e-01 8.68188977e-01 9.15182650e-01 8.98600936e-01 7.36059308e-01 2.79712081e-01 3.24168392e-02 6.01943722e-03 3.23848287e-03 3.60016013e-03 1.78880449e-02 1.05243502e-02 1.37464283e-02 5.69186732e-02 2.65017629e-01 4.63213474e-01 5.11627793e-01 5.13488352e-01 5.15762508e-01 5.22136867e-01 5.30474842e-01 5.39235651e-01 5.47262669e-01 5.52861929e-01 5.53570926e-01 5.47169745e-01 5.34843743e-01 5.26252747e-01 5.42440832e-01 6.09794319e-01 7.40419924e-01 8.68213117e-01 9.13388729e-01 8.89986694e-01 7.02277839e-01 2.67148882e-01 4.09859605e-02 9.22582578e-03 4.29878524e-03 5.61775826e-03 9.44033824e-03 1.16224578e-02 7.44218566e-03 1.17879091e-02 6.72769994e-02 3.19627076e-01 4.88959014e-01 5.13966858e-01 5.08107543e-01 5.07297575e-01 5.13538599e-01 5.24059296e-01 5.36596954e-01 5.49530625e-01 5.61182737e-01 5.69546640e-01 5.73526084e-01 5.77122152e-01 5.95373333e-01 6.52099848e-01 7.54095256e-01 8.59455705e-01 9.13852513e-01 8.87562811e-01 6.80441618e-01 1.90510392e-01 3.43070477e-02 1.06097953e-02 6.21219911e-03 7.52283633e-03 1.61414333e-02 3.79621685e-02 7.58686010e-03 5.61044645e-03 1.14381844e-02 9.18684378e-02 3.79475355e-01 5.08650899e-01 5.08134663e-01 4.94361788e-01 4.90939915e-01 4.97532308e-01 5.10136366e-01 5.25600791e-01 5.41915119e-01 5.58020473e-01 5.74162841e-01 5.93341947e-01 6.23718321e-01 6.78081036e-01 7.59946585e-01 8.44017327e-01 8.98468971e-01 9.02278543e-01 7.40042925e-01 3.38823557e-01 7.16168880e-02 2.16872785e-02 1.38588566e-02 1.81410592e-02 3.49332877e-02 9.01987925e-02 1.85046643e-01 4.83730575e-03 4.48567374e-03 1.26286652e-02 1.38845503e-01 4.38973755e-01 5.16868532e-01 4.91982281e-01 4.71326709e-01 4.66857165e-01 4.74529982e-01 4.89231497e-01 5.07225454e-01 5.26279688e-01 5.46015561e-01 5.69184124e-01 6.03120387e-01 6.57731771e-01 7.34392464e-01 8.13990414e-01 8.72541010e-01 9.00201499e-01 8.81523967e-01 7.08439052e-01 3.73454541e-01 1.25485465e-01 7.82605410e-02 1.04263589e-01 2.19709530e-01 3.71137500e-01 4.86175567e-01 5.56983471e-01 3.12893395e-03 3.75769241e-03 1.58113223e-02 2.10813612e-01 4.85612661e-01 5.06831229e-01 4.64486510e-01 4.40981090e-01 4.37562972e-01 4.46734309e-01 4.63146567e-01 4.83427763e-01 5.05631626e-01 5.29592633e-01 5.58644593e-01 6.01242006e-01 6.66703761e-01 7.49364674e-01 8.22587430e-01 8.69197667e-01 8.89372528e-01 8.79034877e-01 8.12248170e-01 6.82915747e-01 5.74671805e-01 5.94570816e-01 6.87772393e-01 7.65234292e-01 8.01050544e-01 8.11995327e-01 8.10130060e-01 1.99672044e-03 3.35804489e-03 2.27677189e-02 3.00599366e-01 5.09232402e-01 4.77664530e-01 4.29434657e-01 4.09237772e-01 4.08373773e-01 4.18210745e-01 4.34604049e-01 4.55841839e-01 4.81320053e-01 5.11081457e-01 5.46774983e-01 5.93470097e-01 6.57246649e-01 7.33236372e-01 8.00433457e-01 8.44876468e-01 8.68342340e-01 8.74311805e-01 8.67085874e-01 8.60188305e-01 8.60035837e-01 8.65875423e-01 8.69685292e-01 8.62039506e-01 8.42893243e-01 8.29098225e-01 8.26177895e-01 1.18613534e-03 3.68132000e-03 4.14669700e-02 3.99872780e-01 5.13245702e-01 4.43288237e-01 3.99930269e-01 3.85874301e-01 3.85610849e-01 3.92574549e-01 4.05251801e-01 4.24416959e-01 4.51797932e-01 4.88813549e-01 5.35581410e-01 5.91545284e-01 6.55639172e-01 7.21730411e-01 7.77717590e-01 8.16907465e-01 8.41046572e-01 8.52815688e-01 8.54743123e-01 8.51795971e-01 8.43836308e-01 8.23059022e-01 7.88506150e-01 7.46792674e-01 7.09439218e-01 7.03187108e-01 7.24776149e-01 1.07861485e-03 6.27215439e-03 1.17903836e-01 5.14695764e-01 5.41954219e-01 4.55002427e-01 4.16459948e-01 4.01944637e-01 3.95388693e-01 3.93907249e-01 3.98565799e-01 4.11909580e-01 4.37382549e-01 4.78367299e-01 5.36176562e-01 6.07673943e-01 6.83481932e-01 7.49340951e-01 7.95193791e-01 8.21247697e-01 8.31893265e-01 8.29599440e-01 8.15223038e-01 7.90242851e-01 7.54916191e-01 7.08505929e-01 6.57367229e-01 6.11661196e-01 5.80350161e-01 5.81944168e-01 6.17683351e-01 2.24078097e-03 8.49163625e-03 3.11300904e-01 6.23303592e-01 6.16774023e-01 5.32206416e-01 4.95176315e-01 4.77430254e-01 4.65787083e-01 4.58954066e-01 4.58370924e-01 4.66368496e-01 4.85888213e-01 5.19887984e-01 5.70230544e-01 6.35647655e-01 7.07053661e-01 7.67630100e-01 8.06823552e-01 8.25656533e-01 8.28083873e-01 8.15896928e-01 7.90625691e-01 7.56501079e-01 7.17615664e-01 6.75782561e-01 6.35044336e-01 6.00373030e-01 5.76695263e-01 5.74723005e-01 6.00718439e-01 
