# vtk DataFile Version 2.0
results_case1_non_linear/iter1.vtk, Created by Freefem++ 
ASCII
DATASET UNSTRUCTURED_GRID
POINTS 961 float
0 0 0
0.033333333 0 0
0.066666667 0 0
0.1 0 0
0.13333333 0 0
0.16666667 0 0
0.2 0 0
0.23333333 0 0
0.26666667 0 0
0.3 0 0
0.33333333 0 0
0.36666667 0 0
0.4 0 0
0.43333333 0 0
0.46666667 0 0
0.5 0 0
0.53333333 0 0
0.56666667 0 0
0.6 0 0
0.63333333 0 0
0.66666667 0 0
0.7 0 0
0.73333333 0 0
0.76666667 0 0
0.8 0 0
0.83333333 0 0
0.86666667 0 0
0.9 0 0
0.93333333 0 0
0.96666667 0 0
1 0 0
0 0.033333333 0
0.033333333 0.033333333 0
0.066666667 0.033333333 0
0.1 0.033333333 0
0.13333333 0.033333333 0
0.16666667 0.033333333 0
0.2 0.033333333 0
0.23333333 0.033333333 0
0.26666667 0.033333333 0
0.3 0.033333333 0
0.33333333 0.033333333 0
0.36666667 0.033333333 0
0.4 0.033333333 0
0.43333333 0.033333333 0
0.46666667 0.033333333 0
0.5 0.033333333 0
0.53333333 0.033333333 0
0.56666667 0.033333333 0
0.6 0.033333333 0
0.63333333 0.033333333 0
0.66666667 0.033333333 0
0.7 0.033333333 0
0.73333333 0.033333333 0
0.76666667 0.033333333 0
0.8 0.033333333 0
0.83333333 0.033333333 0
0.86666667 0.033333333 0
0.9 0.033333333 0
0.93333333 0.033333333 0
0.96666667 0.033333333 0
1 0.033333333 0
0 0.066666667 0
0.033333333 0.066666667 0
0.066666667 0.066666667 0
0.1 0.066666667 0
0.13333333 0.066666667 0
0.16666667 0.066666667 0
0.2 0.066666667 0
0.23333333 0.066666667 0
0.26666667 0.066666667 0
0.3 0.066666667 0
0.33333333 0.066666667 0
0.36666667 0.066666667 0
0.4 0.066666667 0
0.43333333 0.066666667 0
0.46666667 0.066666667 0
0.5 0.066666667 0
0.53333333 0.066666667 0
0.56666667 0.066666667 0
0.6 0.066666667 0
0.63333333 0.066666667 0
0.66666667 0.066666667 0
0.7 0.066666667 0
0.73333333 0.066666667 0
0.76666667 0.066666667 0
0.8 0.066666667 0
0.83333333 0.066666667 0
0.86666667 0.066666667 0
0.9 0.066666667 0
0.93333333 0.066666667 0
0.96666667 0.066666667 0
1 0.066666667 0
0 0.1 0
0.033333333 0.1 0
0.066666667 0.1 0
0.1 0.1 0
0.13333333 0.1 0
0.16666667 0.1 0
0.2 0.1 0
0.23333333 0.1 0
0.26666667 0.1 0
0.3 0.1 0
0.33333333 0.1 0
0.36666667 0.1 0
0.4 0.1 0
0.43333333 0.1 0
0.46666667 0.1 0
0.5 0.1 0
0.53333333 0.1 0
0.56666667 0.1 0
0.6 0.1 0
0.63333333 0.1 0
0.66666667 0.1 0
0.7 0.1 0
0.73333333 0.1 0
0.76666667 0.1 0
0.8 0.1 0
0.83333333 0.1 0
0.86666667 0.1 0
0.9 0.1 0
0.93333333 0.1 0
0.96666667 0.1 0
1 0.1 0
0 0.13333333 0
0.033333333 0.13333333 0
0.066666667 0.13333333 0
0.1 0.13333333 0
0.13333333 0.13333333 0
0.16666667 0.13333333 0
0.2 0.13333333 0
0.23333333 0.13333333 0
0.26666667 0.13333333 0
0.3 0.13333333 0
0.33333333 0.13333333 0
0.36666667 0.13333333 0
0.4 0.13333333 0
0.43333333 0.13333333 0
0.46666667 0.13333333 0
0.5 0.13333333 0
0.53333333 0.13333333 0
0.56666667 0.13333333 0
0.6 0.13333333 0
0.63333333 0.13333333 0
0.66666667 0.13333333 0
0.7 0.13333333 0
0.73333333 0.13333333 0
0.76666667 0.13333333 0
0.8 0.13333333 0
0.83333333 0.13333333 0
0.86666667 0.13333333 0
0.9 0.13333333 0
0.93333333 0.13333333 0
0.96666667 0.13333333 0
1 0.13333333 0
0 0.16666667 0
0.033333333 0.16666667 0
0.066666667 0.16666667 0
0.1 0.16666667 0
0.13333333 0.16666667 0
0.16666667 0.16666667 0
0.2 0.16666667 0
0.23333333 0.16666667 0
0.26666667 0.16666667 0
0.3 0.16666667 0
0.33333333 0.16666667 0
0.36666667 0.16666667 0
0.4 0.16666667 0
0.43333333 0.16666667 0
0.46666667 0.16666667 0
0.5 0.16666667 0
0.53333333 0.16666667 0
0.56666667 0.16666667 0
0.6 0.16666667 0
0.63333333 0.16666667 0
0.66666667 0.16666667 0
0.7 0.16666667 0
0.73333333 0.16666667 0
0.76666667 0.16666667 0
0.8 0.16666667 0
0.83333333 0.16666667 0
0.86666667 0.16666667 0
0.9 0.16666667 0
0.93333333 0.16666667 0
0.96666667 0.16666667 0
1 0.16666667 0
0 0.2 0
0.033333333 0.2 0
0.066666667 0.2 0
0.1 0.2 0
0.13333333 0.2 0
0.16666667 0.2 0
0.2 0.2 0
0.23333333 0.2 0
0.26666667 0.2 0
0.3 0.2 0
0.33333333 0.2 0
0.36666667 0.2 0
0.4 0.2 0
0.43333333 0.2 0
0.46666667 0.2 0
0.5 0.2 0
0.53333333 0.2 0
0.56666667 0.2 0
0.6 0.2 0
0.63333333 0.2 0
0.66666667 0.2 0
0.7 0.2 0
0.73333333 0.2 0
0.76666667 0.2 0
0.8 0.2 0
0.83333333 0.2 0
0.86666667 0.2 0
0.9 0.2 0
0.93333333 0.2 0
0.96666667 0.2 0
1 0.2 0
0 0.23333333 0
0.033333333 0.23333333 0
0.066666667 0.23333333 0
0.1 0.23333333 0
0.13333333 0.23333333 0
0.16666667 0.23333333 0
0.2 0.23333333 0
0.23333333 0.23333333 0
0.26666667 0.23333333 0
0.3 0.23333333 0
0.33333333 0.23333333 0
0.36666667 0.23333333 0
0.4 0.23333333 0
0.43333333 0.23333333 0
0.46666667 0.23333333 0
0.5 0.23333333 0
0.53333333 0.23333333 0
0.56666667 0.23333333 0
0.6 0.23333333 0
0.63333333 0.23333333 0
0.66666667 0.23333333 0
0.7 0.23333333 0
0.73333333 0.23333333 0
0.76666667 0.23333333 0
0.8 0.23333333 0
0.83333333 0.23333333 0
0.86666667 0.23333333 0
0.9 0.23333333 0
0.93333333 0.23333333 0
0.96666667 0.23333333 0
1 0.23333333 0
0 0.26666667 0
0.033333333 0.26666667 0
0.066666667 0.26666667 0
0.1 0.26666667 0
0.13333333 0.26666667 0
0.16666667 0.26666667 0
0.2 0.26666667 0
0.23333333 0.26666667 0
0.26666667 0.26666667 0
0.3 0.26666667 0
0.33333333 0.26666667 0
0.36666667 0.26666667 0
0.4 0.26666667 0
0.43333333 0.26666667 0
0.46666667 0.26666667 0
0.5 0.26666667 0
0.53333333 0.26666667 0
0.56666667 0.26666667 0
0.6 0.26666667 0
0.63333333 0.26666667 0
0.66666667 0.26666667 0
0.7 0.26666667 0
0.73333333 0.26666667 0
0.76666667 0.26666667 0
0.8 0.26666667 0
0.83333333 0.26666667 0
0.86666667 0.26666667 0
0.9 0.26666667 0
0.93333333 0.26666667 0
0.96666667 0.26666667 0
1 0.26666667 0
0 0.3 0
0.033333333 0.3 0
0.066666667 0.3 0
0.1 0.3 0
0.13333333 0.3 0
0.16666667 0.3 0
0.2 0.3 0
0.23333333 0.3 0
0.26666667 0.3 0
0.3 0.3 0
0.33333333 0.3 0
0.36666667 0.3 0
0.4 0.3 0
0.43333333 0.3 0
0.46666667 0.3 0
0.5 0.3 0
0.53333333 0.3 0
0.56666667 0.3 0
0.6 0.3 0
0.63333333 0.3 0
0.66666667 0.3 0
0.7 0.3 0
0.73333333 0.3 0
0.76666667 0.3 0
0.8 0.3 0
0.83333333 0.3 0
0.86666667 0.3 0
0.9 0.3 0
0.93333333 0.3 0
0.96666667 0.3 0
1 0.3 0
0 0.33333333 0
0.033333333 0.33333333 0
0.066666667 0.33333333 0
0.1 0.33333333 0
0.13333333 0.33333333 0
0.16666667 0.33333333 0
0.2 0.33333333 0
0.23333333 0.33333333 0
0.26666667 0.33333333 0
0.3 0.33333333 0
0.33333333 0.33333333 0
0.36666667 0.33333333 0
0.4 0.33333333 0
0.43333333 0.33333333 0
0.46666667 0.33333333 0
0.5 0.33333333 0
0.53333333 0.33333333 0
0.56666667 0.33333333 0
0.6 0.33333333 0
0.63333333 0.33333333 0
0.66666667 0.33333333 0
0.7 0.33333333 0
0.73333333 0.33333333 0
0.76666667 0.33333333 0
0.8 0.33333333 0
0.83333333 0.33333333 0
0.86666667 0.33333333 0
0.9 0.33333333 0
0.93333333 0.33333333 0
0.96666667 0.33333333 0
1 0.33333333 0
0 0.36666667 0
0.033333333 0.36666667 0
0.066666667 0.36666667 0
0.1 0.36666667 0
0.13333333 0.36666667 0
0.16666667 0.36666667 0
0.2 0.36666667 0
0.23333333 0.36666667 0
0.26666667 0.36666667 0
0.3 0.36666667 0
0.33333333 0.36666667 0
0.36666667 0.36666667 0
0.4 0.36666667 0
0.43333333 0.36666667 0
0.46666667 0.36666667 0
0.5 0.36666667 0
0.53333333 0.36666667 0
0.56666667 0.36666667 0
0.6 0.36666667 0
0.63333333 0.36666667 0
0.66666667 0.36666667 0
0.7 0.36666667 0
0.73333333 0.36666667 0
0.76666667 0.36666667 0
0.8 0.36666667 0
0.83333333 0.36666667 0
0.86666667 0.36666667 0
0.9 0.36666667 0
0.93333333 0.36666667 0
0.96666667 0.36666667 0
1 0.36666667 0
0 0.4 0
0.033333333 0.4 0
0.066666667 0.4 0
0.1 0.4 0
0.13333333 0.4 0
0.16666667 0.4 0
0.2 0.4 0
0.23333333 0.4 0
0.26666667 0.4 0
0.3 0.4 0
0.33333333 0.4 0
0.36666667 0.4 0
0.4 0.4 0
0.43333333 0.4 0
0.46666667 0.4 0
0.5 0.4 0
0.53333333 0.4 0
0.56666667 0.4 0
0.6 0.4 0
0.63333333 0.4 0
0.66666667 0.4 0
0.7 0.4 0
0.73333333 0.4 0
0.76666667 0.4 0
0.8 0.4 0
0.83333333 0.4 0
0.86666667 0.4 0
0.9 0.4 0
0.93333333 0.4 0
0.96666667 0.4 0
1 0.4 0
0 0.43333333 0
0.033333333 0.43333333 0
0.066666667 0.43333333 0
0.1 0.43333333 0
0.13333333 0.43333333 0
0.16666667 0.43333333 0
0.2 0.43333333 0
0.23333333 0.43333333 0
0.26666667 0.43333333 0
0.3 0.43333333 0
0.33333333 0.43333333 0
0.36666667 0.43333333 0
0.4 0.43333333 0
0.43333333 0.43333333 0
0.46666667 0.43333333 0
0.5 0.43333333 0
0.53333333 0.43333333 0
0.56666667 0.43333333 0
0.6 0.43333333 0
0.63333333 0.43333333 0
0.66666667 0.43333333 0
0.7 0.43333333 0
0.73333333 0.43333333 0
0.76666667 0.43333333 0
0.8 0.43333333 0
0.83333333 0.43333333 0
0.86666667 0.43333333 0
0.9 0.43333333 0
0.93333333 0.43333333 0
0.96666667 0.43333333 0
1 0.43333333 0
0 0.46666667 0
0.033333333 0.46666667 0
0.066666667 0.46666667 0
0.1 0.46666667 0
0.13333333 0.46666667 0
0.16666667 0.46666667 0
0.2 0.46666667 0
0.23333333 0.46666667 0
0.26666667 0.46666667 0
0.3 0.46666667 0
0.33333333 0.46666667 0
0.36666667 0.46666667 0
0.4 0.46666667 0
0.43333333 0.46666667 0
0.46666667 0.46666667 0
0.5 0.46666667 0
0.53333333 0.46666667 0
0.56666667 0.46666667 0
0.6 0.46666667 0
0.63333333 0.46666667 0
0.66666667 0.46666667 0
0.7 0.46666667 0
0.73333333 0.46666667 0
0.76666667 0.46666667 0
0.8 0.46666667 0
0.83333333 0.46666667 0
0.86666667 0.46666667 0
0.9 0.46666667 0
0.93333333 0.46666667 0
0.96666667 0.46666667 0
1 0.46666667 0
0 0.5 0
0.033333333 0.5 0
0.066666667 0.5 0
0.1 0.5 0
0.13333333 0.5 0
0.16666667 0.5 0
0.2 0.5 0
0.23333333 0.5 0
0.26666667 0.5 0
0.3 0.5 0
0.33333333 0.5 0
0.36666667 0.5 0
0.4 0.5 0
0.43333333 0.5 0
0.46666667 0.5 0
0.5 0.5 0
0.53333333 0.5 0
0.56666667 0.5 0
0.6 0.5 0
0.63333333 0.5 0
0.66666667 0.5 0
0.7 0.5 0
0.73333333 0.5 0
0.76666667 0.5 0
0.8 0.5 0
0.83333333 0.5 0
0.86666667 0.5 0
0.9 0.5 0
0.93333333 0.5 0
0.96666667 0.5 0
1 0.5 0
0 0.53333333 0
0.033333333 0.53333333 0
0.066666667 0.53333333 0
0.1 0.53333333 0
0.13333333 0.53333333 0
0.16666667 0.53333333 0
0.2 0.53333333 0
0.23333333 0.53333333 0
0.26666667 0.53333333 0
0.3 0.53333333 0
0.33333333 0.53333333 0
0.36666667 0.53333333 0
0.4 0.53333333 0
0.43333333 0.53333333 0
0.46666667 0.53333333 0
0.5 0.53333333 0
0.53333333 0.53333333 0
0.56666667 0.53333333 0
0.6 0.53333333 0
0.63333333 0.53333333 0
0.66666667 0.53333333 0
0.7 0.53333333 0
0.73333333 0.53333333 0
0.76666667 0.53333333 0
[...]
CELL_DATA 1920
Scalars  Label int 1
LOOKUP_TABLE FreeFempp_table
0
0
0
0
0
0
0
0
0
0
0
0
0
0
0
0
0
0
0
0
0
0
0
0
0
0
0
0
0
0
0
0
0
0
0
0
0
0
0
0
0
0
0
0
0
0
0
0
0
0
0
0
0
0
0
0
0
0
0
0
0
0
0
0
0
0
0
0
0
0
0
0
0
0
0
0
0
0
0
0
0
0
0
0
0
0
0
0
0
0
0
0
0
0
0
0
0
0
0
0
0
0
0
0
0
0
0
0
0
0
0
0
0
0
0
0
0
0
0
0
0
0
0
0
0
0
0
0
0
0
0
0
0
0
0
0
0
0
0
0
0
0
0
0
0
0
0
0
0
0
0
0
0
0
0
0
0
0
0
0
0
0
0
0
0
0
0
0
0
0
0
0
0
0
0
0
0
0
0
0
0
0
0
0
0
0
0
0
0
0
0
0
0
0
0
0
0
0
0
0
0
0
0
0
0
0
0
0
0
0
0
0
0
0
0
0
0
0
0
0
0
0
0
0
0
0
0
0
0
0
0
0
0
0
0
0
0
0
0
0
0
0
0
0
0
0
0
0
0
0
0
0
0
0
0
0
0
0
0
0
0
0
0
0
0
0
0
0
0
0
0
0
0
0
0
0
0
0
0
0
0
0
0
0
0
0
0
0
0
0
0
0
0
0
0
0
0
0
0
0
0
0
0
0
0
0
0
0
0
0
0
0
0
0
0
0
0
0
0
0
0
0
0
0
0
0
0
0
0
0
0
0
0
0
0
0
0
0
0
0
0
0
0
0
0
0
0
0
0
0
0
0
0
0
0
0
0
0
0
0
0
0
0
0
0
0
0
0
0
0
0
0
0
0
0
0
0
0
0
0
0
0
0
0
0
0
0
0
0
0
0
0
0
0
0
0
0
0
0
0
0
0
0
0
0
0
0
0
0
0
0
0
0
0
0
0
0
0
0
0
0
0
0
0
0
0
0
0
0
0
0
0
0
0
0
0
0
0
0
0
0
0
0
0
0
0
0
0
0
0
0
0
0
0
0
0
0
0
0
0
0
0
0
0
0
0
0
0
0
0
0
0
0
0
0
0
0
0
0
0
0
0
0
0
0
0
0
0
0
0
0
0
0
0
0
0
0
0
0
0
0
0
0
0
0
0
0
0
0
0
0
0
0
0
0
0
0
0
0
0
0
0
0
0
0
0
0
0
0
0
0
0
0
0
0
0
0
0
0
0
0
0
0
0
0
0
0
0
0
0
0
0
0
0
0
0
0
0
0
0
0
0
0
0
0
0
0
0
0
0
0
0
0
0
0
0
0
0
0
0
0
0
0
0
0
0
0
0
0
0
0
0
0
0
0
0
0
0
0
0
0
0
0
0
0
0
0
0
0
0
0
0
0
0
0
0
0
0
0
0
0
0
0
0
0
0
0
0
0
0
0
0
0
0
0
0
0
0
0
0
0
0
0
0
0
0
0
0
0
0
0
0
0
0
0
0
0
0
0
0
0
0
0
0
0
0
0
0
0
0
0
0
0
0
0
0
0
0
0
0
0
0
0
0
0
0
0
0
0
0
0
0
0
0
0
0
0
0
0
0
0
0
0
0
0
0
0
0
0
0
0
0
0
0
0
0
0
0
0
0
0
0
0
0
0
0
0
0
0
0
0
0
0
0
0
0
0
0
0
0
0
0
0
0
0
0
0
0
0
0
0
0
0
0
0
0
0
0
0
0
0
0
0
0
0
0
0
0
0
0
0
0
0
0
0
0
0
0
0
0
0
0
0
0
0
0
0
0
0
0
0
0
0
0
0
0
0
0
0
0
0
0
0
0
0
0
0
0
0
0
0
0
0
0
0
0
0
0
0
0
0
0
0
0
0
0
0
0
0
0
0
0
0
0
0
0
0
0
0
0
0
0
0
0
0
0
0
0
0
0
0
0
0
0
0
0
0
0
0
0
0
0
0
0
0
0
0
0
0
0
0
0
0
0
0
0
0
0
0
0
0
0
0
0
0
0
0
0
0
0
0
0
0
0
0
0
0
0
0
0
0
0
0
0
0
0
0
0
0
0
0
0
0
0
0
0
0
0
0
0
0
0
0
0
0
0
0
0
0
0
0
0
0
0
0
0
0
0
0
0
0
0
0
0
0
0
0
0
0
0
0
0
0
0
0
0
0
0
0
0
0
0
0
0
0
0
0
0
0
0
0
0
0
0
0
0
0
0
0
0
0
0
0
0
0
0
0
0
0
0
0
0
0
0
0
0
0
0
0
0
0
0
0
0
0
0
0
0
0
0
0
0
0
0
0
0
0
0
0
0
0
0
0
0
0
0
0
0
0
0
0
0
0
0
0
0
0
0
0
0
0
0
0
0
0
0
0
0
0
0
0
0
0
0
0
0
0
0
0
0
0
0
0
0
0
0
0
0
0
0
0
0
0
0
0
0
0
0
0
0
0
0
0
0
0
0
0
0
0
0
0
0
0
0
0
0
0
0
0
0
0
0
0
0
0
0
0
0
0
0
0
0
0
0
0
0
0
0
0
0
0
0
0
0
0
0
0
0
0
0
0
0
0
0
0
0
0
0
0
0
0
0
0
0
0
0
0
0
0
0
0
0
0
0
0
0
0
0
0
0
0
0
0
0
0
0
0
0
0
0
0
0
0
0
0
0
0
0
0
0
0
0
0
0
0
0
0
0
0
0
0
0
0
0
0
0
0
0
0
0
0
0
0
0
0
0
0
0
0
0
0
0
0
0
0
0
0
0
0
0
0
0
0
0
0
0
0
0
0
0
0
0
0
0
0
0
0
0
0
0
0
0
0
0
0
0
0
0
0
0
0
0
0
0
0
0
0
0
0
0
0
0
0
0
0
0
0
0
0
0
0
0
0
0
0
0
0
0
0
0
0
0
0
0
0
0
0
0
0
0
0
0
0
0
0
0
0
0
0
0
0
0
0
0
0
0
0
0
0
0
0
0
0
0
0
0
0
0
0
0
0
0
0
0
0
0
0
0
0
0
0
0
0
0
0
0
0
0
0
0
0
0
0
0
0
0
0
0
0
0
0
0
0
0
0
0
0
0
0
0
0
0
0
0
0
0
0
0
0
0
0
0
0
0
0
0
0
0
0
0
0
0
0
0
0
0
0
0
0
0
0
0
0
0
0
0
0
0
0
0
0
0
0
0
0
0
0
0
0
0
0
0
0
0
0
0
0
0
0
0
0
0
0
0
0
0
0
0
0
0
0
0
0
0
0
0
0
0
0
0
0
0
0
0
0
0
0
0
0
0
0
0
0
0
0
0
0
0
0
0
0
0
0
0
0
0
0
0
0
0
0
0
0
0
0
0
0
0
0
0
0
0
0
0
0
0
0
0
0
0
0
0
0
0
0
0
0
0
0
0
0
0
0
0
0
0
0
0
0
0
0
0
0
0
0
0
0
0
0
0
0
0
0
0
0
0
0
0
0
0
0
0
0
0
0
0
0
0
0
0
0
0
0
0
0
0
0
0
0
0
0
0
0
0
0
0
0
0
0
0
0
0
0
0
0
0
0
0
0
0
0
0
0
0
0
0
0
0
0
0
0
0
0
0
0
0
0
0
0
0
0
0
0
0
0
0
0
0
0
0
0
0
0
0
0
0
0
0
0
0
0
0
0
0
0
0
0
0
0
0
0
0
0
0
0
0
0
0
0
0
0
0
0
0
0
0
0
0
0
0
0
0
0
0
0
0
0
0
0
0
0
0
0
0
0
0
0
0
0
0
0
0
0
0
0
0
0
0
0
0
0
0
0
0
0
0
0
0
0
0
0
0
0
0
0
0
0
0
0
0
0
0
0
0
0
0
0
0
0
0
0
0
0
0
0
0
0
0
0
0
0
0
0
0
0
0
0
0
0
0
0
0
0
0
0
0
0
0
0
0
0
0
0
0
0
0
0
0
0
0
0
0
0
0
0
0
0
0
0
0
0
0
0
0
0
0
0
0
0
0
0
0
0
0
0
0
0
0
0
0
0
0
0
0
0
0
0
0
0
0
0
0
0
0
0
0
0
0
0
0
0
0
0
0
0
0
0
0
0
0
1
1
1
1
1
1
1
1
1
1
1
1
1
1
1
1
1
1
1
1
1
1
1
1
1
1
1
1
1
1
2
2
2
2
2
2
2
2
2
2
2
2
2
2
2
2
2
2
2
2
2
2
2
2
2
2
2
2
2
2
3
3
3
3
3
3
3
3
3
3
3
3
3
3
3
3
3
3
3
3
3
3
3
3
3
3
3
3
3
3
4
4
4
4
4
4
4
4
4
4
4
4
4
4
4
4
4
4
4
4
4
4
4
4
4
4
4
4
4
4

LOOKUP_TABLE FreeFempp_table 5
1.00000000 0.00000000 0.00000000 1.00000000
1.00000000 1.00000000 0.00000000 1.00000000
1.00000000 0.00000000 1.00000000 1.00000000
0.00000000 1.00000000 0.00000000 1.00000000
0.00000000 1.00000000 1.00000000 1.00000000

POINT_DATA 961
FIELD FieldData 1
Density 1 961 float
2.48910058e-02 2.06146799e-02 3.15550342e-02 3.52296308e-02 3.21915001e-02 2.66995877e-02 1.98916774e-02 1.22049749e-02 6.10071933e-03 4.27359762e-03 6.93707494e-03 2.49441601e-02 7.20878467e-02 1.08040392e-01 1.33405715e-01 1.71466887e-01 2.76967585e-01 5.71417332e-01 8.49862576e-01 9.07024920e-01 8.69844913e-01 8.39571714e-01 9.05251563e-01 9.10157144e-01 8.72548819e-01 8.66802156e-01 8.42523932e-01 7.31931925e-01 7.28292346e-01 7.26912260e-01 5.57021797e-01 5.93653880e-04 1.07787531e-02 1.91992745e-02 2.09232047e-02 1.87257156e-02 1.57240611e-02 1.23008480e-02 8.42414144e-03 4.78539057e-03 2.90015433e-03 3.38833057e-03 8.59824009e-03 3.08949053e-02 4.96336930e-02 6.25403374e-02 7.98542723e-02 1.34569868e-01 4.83847350e-01 9.37909305e-01 9.72133517e-01 9.34462011e-01 7.23211288e-01 6.88647568e-01 8.33430111e-01 8.30173552e-01 8.26211631e-01 8.37172449e-01 7.97752976e-01 8.38087857e-01 7.96589613e-01 6.97442591e-01 3.26818845e-04 1.65746067e-04 6.70734094e-04 5.72970486e-04 5.57830383e-04 5.83412708e-04 6.29841583e-04 6.95462164e-04 7.60969589e-04 7.53675762e-04 6.05151406e-04 5.19164698e-03 7.64991567e-02 9.73729342e-02 1.07027650e-01 1.20551214e-01 1.34734720e-01 3.21736187e-01 8.59946966e-01 5.33073246e-01 1.17498981e-02 5.70704136e-03 3.33243306e-03 2.49287905e-03 2.26424704e-03 3.10693542e-03 7.36738835e-03 9.26457196e-02 3.90310258e-01 4.84973878e-01 5.22902012e-01 3.04890215e-01 6.22531748e-04 7.27247796e-04 6.33502728e-04 5.65905240e-04 5.66209957e-04 5.98667015e-04 6.52773189e-04 7.27085804e-04 7.90940714e-04 3.50656686e-04 2.39750079e-04 4.37471521e-04 5.49426826e-04 9.85886552e-04 9.64073837e-02 1.90511674e-01 1.78371072e-01 7.05848753e-01 1.86644623e-03 1.54121837e-03 1.38878415e-03 1.07234390e-03 1.07220968e-03 1.07195531e-03 1.07161724e-03 1.07161934e-03 1.16208731e-03 3.32912207e-02 2.09789008e-01 3.56470942e-01 2.80806512e-01 1.22967295e-01 5.90143399e-03 6.56491518e-03 1.14990883e-01 1.41480044e-01 1.41336173e-01 1.45975888e-01 1.55608907e-01 1.56232089e-01 4.19413038e-02 7.09736953e-04 5.64375136e-04 3.46174114e-04 3.71808128e-04 4.25890030e-04 6.33336778e-04 1.00066664e-03 1.01938330e-01 7.66456425e-01 1.07373740e-03 1.37642643e-03 1.07239722e-03 1.07223878e-03 1.07190909e-03 1.07118057e-03 1.07015728e-03 1.06921105e-03 1.07027940e-03 4.56209145e-02 2.76050985e-01 2.11525127e-01 8.49760845e-02 6.24951115e-03 4.40423284e-03 5.66137917e-02 1.18970677e-01 1.31783172e-01 1.36715502e-01 1.42571539e-01 1.44086972e-01 1.29196092e-01 1.25674665e-01 1.59676820e-01 1.66175067e-01 9.90344328e-04 6.07156951e-04 4.53754445e-04 5.01100614e-04 4.25718725e-04 7.44624794e-01 9.92173493e-01 5.63286198e-03 3.39262513e-03 2.51816330e-03 2.15135003e-03 1.90183183e-03 1.18725433e-03 1.06909708e-03 1.06607110e-03 1.19804638e-03 2.20452055e-01 1.71356678e-01 5.36924638e-02 1.15999505e-02 5.27167600e-03 2.24043429e-02 9.49391648e-02 1.36953503e-01 1.56147525e-01 1.68259025e-01 1.76522449e-01 1.75788447e-01 1.67652383e-01 1.75070584e-01 1.86112016e-01 1.84179693e-01 1.95480898e-01 1.37019172e-01 1.00870710e-03 1.58186012e-04 1.46736842e-04 8.64602532e-03 9.96685803e-01 6.23494275e-02 1.15792034e-02 1.52309379e-02 1.22237494e-02 1.15927588e-02 2.31113518e-03 1.05899572e-03 1.06780382e-03 2.19410196e-01 2.22460881e-01 6.49868473e-02 3.27774361e-02 1.35515658e-02 2.83130966e-02 1.06007211e-01 1.71347290e-01 2.08895147e-01 2.32112691e-01 2.46490374e-01 2.51481354e-01 2.47957543e-01 2.44136751e-01 2.42840067e-01 2.36173987e-01 2.30339959e-01 2.34642729e-01 2.34534085e-01 1.30387232e-01 3.93263006e-04 6.61774946e-04 1.04501552e-03 9.94890749e-01 7.41291583e-01 5.95596619e-02 4.50004674e-02 2.53849607e-02 8.02776776e-03 1.04797422e-03 1.05820817e-03 2.63530850e-01 4.93277401e-01 2.76871592e-01 1.97413847e-01 1.44400701e-01 1.62007689e-01 2.63297945e-01 3.26812238e-01 3.58350933e-01 3.74649316e-01 3.79899561e-01 3.75701964e-01 3.64341110e-01 3.50521952e-01 3.36542428e-01 3.21033567e-01 3.05827260e-01 2.93492675e-01 2.81215459e-01 2.68680573e-01 2.49236479e-01 8.93147720e-04 9.82140424e-04 1.05215702e-03 9.90698338e-01 9.49097633e-01 4.68020886e-01 8.48640427e-02 1.75317731e-02 1.03590032e-03 1.04616291e-03 2.92341888e-01 7.99570322e-01 8.55769753e-01 8.08793545e-01 7.61062622e-01 7.14570165e-01 6.77367091e-01 6.45360470e-01 6.17813766e-01 5.92987001e-01 5.68077803e-01 5.41777015e-01 5.14539957e-01 4.87661719e-01 4.61436868e-01 4.35655564e-01 4.11148906e-01 3.88021171e-01 3.65567595e-01 3.44644159e-01 3.20877641e-01 2.95064151e-01 1.06017885e-03 1.06667529e-03 1.07999204e-03 9.72806990e-01 9.56964970e-01 8.59694779e-01 7.43847713e-02 1.03112892e-03 1.01576129e-03 1.93337783e-01 8.33412051e-01 9.45890725e-01 9.28545713e-01 9.18080389e-01 8.98945391e-01 8.70115876e-01 8.33264828e-01 7.93780804e-01 7.54692972e-01 7.16903389e-01 6.80546999e-01 6.45994008e-01 6.13507688e-01 5.82832575e-01 5.53770959e-01 5.26303291e-01 4.99836296e-01 4.73789632e-01 4.49006885e-01 4.26346987e-01 4.05684978e-01 3.61769795e-01 1.07979344e-03 1.10240106e-03 1.09686609e-03 5.69508910e-01 9.67736244e-02 9.91895139e-01 1.07434217e-03 9.98710282e-04 1.05953275e-03 5.61752558e-01 8.21739852e-01 8.22330534e-01 8.59218240e-01 8.76070380e-01 8.74887288e-01 8.59191835e-01 8.34441423e-01 8.05003166e-01 7.73669660e-01 7.42187679e-01 7.11843848e-01 6.83390737e-01 6.57035828e-01 6.32735014e-01 6.10084593e-01 5.88276684e-01 5.66756010e-01 5.45704365e-01 5.27484894e-01 5.19278347e-01 5.29619217e-01 4.74931210e-01 1.09437632e-03 1.15453138e-03 1.16402318e-03 1.44761114e-03 2.65182019e-03 7.96694100e-01 1.00886368e-03 1.02405902e-03 1.57987192e-01 1.07761681e-01 1.66431069e-01 3.40006948e-01 5.77536702e-01 7.20435917e-01 7.70519137e-01 7.79336751e-01 7.70216763e-01 7.52716303e-01 7.31510222e-01 7.09450245e-01 6.88336194e-01 6.69182539e-01 6.52380347e-01 6.37595296e-01 6.23917639e-01 6.10409498e-01 5.96517622e-01 5.83192468e-01 5.78045249e-01 5.99894822e-01 6.61565065e-01 6.47288799e-01 2.18513538e-03 1.15550775e-03 1.13279314e-03 1.48162688e-03 9.95036483e-01 1.02838001e-03 1.02752063e-03 5.05208746e-02 1.48958704e-02 1.90863255e-02 4.07166034e-02 1.29562318e-01 3.42292607e-01 5.31446517e-01 6.24940753e-01 6.61104977e-01 6.69434965e-01 6.64123058e-01 6.52504385e-01 6.38909161e-01 6.26053333e-01 6.15491092e-01 6.07633770e-01 6.01921201e-01 5.97140193e-01 5.91592848e-01 5.83380818e-01 5.72884262e-01 5.72448254e-01 6.00856841e-01 7.20574081e-01 8.63949716e-01 4.25360203e-02 1.47569703e-03 1.76729960e-03 9.96421456e-01 1.03334151e-03 1.02902576e-03 2.06880905e-02 6.12307573e-03 6.81121182e-03 1.23471217e-02 3.62451263e-02 1.25360087e-01 2.88319379e-01 4.32608217e-01 5.16897678e-01 5.56392848e-01 5.69646060e-01 5.68430185e-01 5.60107887e-01 5.49698651e-01 5.40698111e-01 5.35207808e-01 5.34027219e-01 5.36670983e-01 5.41266382e-01 5.44050157e-01 5.38596213e-01 5.17088175e-01 4.66335744e-01 4.11359221e-01 4.61863279e-01 8.50244105e-01 6.30511390e-03 3.00336303e-03 9.97797906e-01 1.04517431e-03 1.03597087e-03 8.15461855e-03 3.27971252e-03 3.67098465e-03 7.08901789e-03 2.15708483e-02 7.21233115e-02 1.79157257e-01 3.06166708e-01 4.04264778e-01 4.62465346e-01 4.89542335e-01 4.95864630e-01 4.89556283e-01 4.77018565e-01 4.63555694e-01 4.53460783e-01 4.49810088e-01 4.54190433e-01 4.66329753e-01 4.83474612e-01 4.99212593e-01 5.02053738e-01 4.63352114e-01 3.24137777e-01 9.29917395e-02 7.21277371e-02 2.55706180e-02 3.88382957e-03 9.96824145e-01 1.06277433e-03 1.04761042e-03 3.31312791e-03 2.03800295e-03 2.44745635e-03 5.95963188e-03 2.14462206e-02 6.72003031e-02 1.50931358e-01 2.53885716e-01 3.45452458e-01 4.09186304e-01 4.44311231e-01 4.56270635e-01 4.51376766e-01 4.35694486e-01 4.15255964e-01 3.96048129e-01 3.83473217e-01 3.81527543e-01 3.92037213e-01 4.13953245e-01 4.43141341e-01 4.74453717e-01 5.01990139e-01 5.08825660e-01 2.68495142e-01 5.53620309e-02 4.21822295e-02 4.07308750e-02 9.94224668e-01 1.07383681e-03 1.05675810e-03 1.56444835e-03 1.44505175e-03 1.98378600e-03 7.11061293e-03 3.15594673e-02 8.51267651e-02 1.59480885e-01 2.45408073e-01 3.27060729e-01 3.90570670e-01 4.30579454e-01 4.48089957e-01 4.46601152e-01 4.30438399e-01 4.04817164e-01 3.76164198e-01 3.51588517e-01 3.37400675e-01 3.37292373e-01 3.51091683e-01 3.74846995e-01 4.05036539e-01 4.46000874e-01 5.19953609e-01 5.97642064e-01 2.43983716e-01 1.47719949e-01 9.02092814e-01 9.88988459e-01 1.07172551e-03 1.06194254e-03 1.07367837e-03 1.07325742e-03 2.06057820e-03 1.24671087e-02 5.86257018e-02 1.19151771e-01 1.85318694e-01 2.59071112e-01 3.32392842e-01 3.94126445e-01 4.37480748e-01 4.60836440e-01 4.65303242e-01 4.52978551e-01 4.26871300e-01 3.91815752e-01 3.54972243e-01 3.24489743e-01 3.06448817e-01 3.02693307e-01 3.11391950e-01 3.32235485e-01 3.68281871e-01 4.34159040e-01 5.72642267e-01 6.93582654e-01 6.78296149e-01 9.80735421e-01 9.71220315e-01 1.06918986e-03 1.06601312e-03 1.07524591e-03 1.07413041e-03 2.97522568e-03 3.22831832e-02 1.04329839e-01 1.60230339e-01 2.17329115e-01 2.82431811e-01 3.49433780e-01 4.08990085e-01 4.54492062e-01 4.83350426e-01 4.95354056e-01 4.90912825e-01 4.70490575e-01 4.35441673e-01 3.89696211e-01 3.40362191e-01 2.95520633e-01 2.62953520e-01 2.50758559e-01 2.72158533e-01 3.35291892e-01 4.39723313e-01 6.21467352e-01 8.30578685e-01 9.45779145e-01 9.80150759e-01 1.67299807e-02 1.07073283e-03 1.06903166e-03 1.07756956e-03 1.07606559e-03 6.75223162e-03 8.59001279e-02 1.55914307e-01 1.99950770e-01 2.49324247e-01 3.08093995e-01 3.69846523e-01 4.26680416e-01 4.72933829e-01 5.06078720e-01 5.25559664e-01 5.31121314e-01 5.21590054e-01 4.94633198e-01 4.47931558e-01 3.81563812e-01 3.01958263e-01 2.29926884e-01 1.98285967e-01 2.36503392e-01 3.73374969e-01 5.90834856e-01 8.25191796e-01 9.28092122e-01 9.62276638e-01 9.20234203e-01 1.56989403e-03 1.07143959e-03 1.07081176e-03 1.07985130e-03 1.07832975e-03 2.75578815e-02 1.62594169e-01 2.02274874e-01 2.34486982e-01 2.77998120e-01 3.31177533e-01 3.87562335e-01 4.40707713e-01 4.86136556e-01 5.21776438e-01 5.47233164e-01 5.62409818e-01 5.65851688e-01 5.53161085e-01 5.16025782e-01 4.43622082e-01 3.36215913e-01 2.36814827e-01 2.03450963e-01 2.96684593e-01 5.80797672e-01 8.21273148e-01 9.28427577e-01 9.45788920e-01 9.36484754e-01 1.59909353e-02 1.07214879e-03 1.07163459e-03 1.07174937e-03 1.08218321e-03 1.08056853e-03 9.63908881e-02 2.18292251e-01 2.39157945e-01 2.63369590e-01 3.01409423e-01 3.48177463e-01 3.98081332e-01 4.46244448e-01 4.89220142e-01 5.25235832e-01 5.53969085e-01 5.75698137e-01 5.89650512e-01 5.91626525e-01 5.71600854e-01 5.15029907e-01 4.25989181e-01 3.67311984e-01 4.40081686e-01 7.29619503e-01 8.78350079e-01 9.45434570e-01 9.59154606e-01 9.25936580e-01 3.07501614e-01 1.28122873e-03 1.07151724e-03 1.07148022e-03 1.13132235e-03 1.08486251e-03 1.08299789e-03 1.72567695e-01 2.49540433e-01 2.65619069e-01 2.85810500e-01 3.17308813e-01 3.56013447e-01 3.98048460e-01 4.40002382e-01 4.79097456e-01 5.13497949e-01 5.42655408e-01 5.67405522e-01 5.89426577e-01 6.09856546e-01 6.28219903e-01 6.47633493e-01 6.96406662e-01 8.14934433e-01 9.10302520e-01 9.29727793e-01 9.24161196e-01 9.42959368e-01 6.63592100e-01 1.07234227e-03 1.07140094e-03 1.07120583e-03 1.07184483e-03 1.07195799e-03 7.77547900e-03 1.08802179e-03 1.08583109e-03 2.15597987e-01 2.72878051e-01 2.83687681e-01 2.98937887e-01 3.22320729e-01 3.51897538e-01 3.85404348e-01 4.20488775e-01 4.54780996e-01 4.86268222e-01 5.14038324e-01 5.39485931e-01 5.67814827e-01 6.08781993e-01 6.74088061e-01 7.68044472e-01 8.71373415e-01 9.41868067e-01 9.59213376e-01 6.36604875e-02 2.47313152e-03 1.49974227e-03 1.11258717e-03 1.07210258e-03 1.07172970e-03 1.07114436e-03 1.07186998e-03 2.62060971e-03 2.67824769e-01 1.09173637e-03 1.08918187e-03 2.47260317e-01 2.94547856e-01 2.94185936e-01 3.00356030e-01 3.14489424e-01 3.35075110e-01 3.60374689e-01 3.88526678e-01 4.17568326e-01 4.45623785e-01 4.71523702e-01 4.96421665e-01 5.26816368e-01 5.77499986e-01 6.66776299e-01 7.89388478e-01 8.94919872e-01 9.49529350e-01 9.66042638e-01 9.25447404e-01 5.74970990e-03 2.31693499e-03 1.40770792e-03 1.07244716e-03 1.34565472e-03 8.90527129e-01 9.54984784e-01 9.72240925e-01 8.55643034e-01 1.09598460e-03 1.09312183e-03 2.80220032e-01 3.11097622e-01 2.94340700e-01 2.89625525e-01 2.95182139e-01 3.08094889e-01 3.26111048e-01 3.47518474e-01 3.70991915e-01 3.95409137e-01 4.19841200e-01 4.44399208e-01 4.72879976e-01 5.16887128e-01 5.95521152e-01 7.14921236e-01 8.35811257e-01 9.12659347e-01 9.48826432e-01 9.58978951e-01 9.53102767e-01 9.75969672e-01 9.88967478e-01 9.90926206e-01 9.92246926e-01 9.89792705e-01 9.83101785e-01 9.82001066e-01 9.43562269e-01 1.10042235e-03 1.09763397e-03 3.19436908e-01 3.15469235e-01 2.81144798e-01 2.68538117e-01 2.68708855e-01 2.76191503e-01 2.88077950e-01 3.02958608e-01 3.20455313e-01 3.40747744e-01 3.63961279e-01 3.89734536e-01 4.17862266e-01 4.51065361e-01 4.98622090e-01 5.73421597e-01 6.74675524e-01 7.77285218e-01 8.58206987e-01 9.10072982e-01 9.39717650e-01 9.59603190e-01 9.67882872e-01 9.69713092e-01 9.68832850e-01 9.64959085e-01 9.52395141e-01 9.50263917e-01 8.84227872e-01 1.10405555e-03 1.10243948e-03 3.65667969e-01 2.99496174e-01 2.56282717e-01 2.42807731e-01 2.41599470e-01 2.45676592e-01 2.52333939e-01 2.60892153e-01 2.72004545e-01 2.87165701e-01 3.08039218e-01 3.35438162e-01 3.68094206e-01 4.02300477e-01 4.34336871e-01 4.65119183e-01 5.00949621e-01 5.46041131e-01 5.94153464e-01 6.30112350e-01 6.49143755e-01 6.57817900e-01 6.36540711e-01 6.19463563e-01 6.16059899e-01 6.28546894e-01 6.67211294e-01 7.01309383e-01 6.61130786e-01 1.11296249e-03 1.10725500e-03 4.56091434e-01 2.69593716e-01 2.30557784e-01 2.20882714e-01 2.18847424e-01 2.18996018e-01 2.19978422e-01 2.22182974e-01 2.27129877e-01 2.37199664e-01 2.55369306e-01 2.84597546e-01 3.26151997e-01 3.76357436e-01 4.23551649e-01 4.49773490e-01 4.37546253e-01 3.76975507e-01 2.77689785e-01 1.86768070e-01 1.57253429e-01 1.90673158e-01 2.56709605e-01 3.13293546e-01 3.41056436e-01 3.55117142e-01 3.68486911e-01 3.80811840e-01 4.56703216e-01 1.08932180e-03 1.10254087e-03 7.39642382e-01 3.54760289e-01 3.27472597e-01 3.19428861e-01 3.16754371e-01 3.15203995e-01 3.13654065e-01 3.12622637e-01 3.13507229e-01 3.18236828e-01 3.29007983e-01 3.47803354e-01 3.75416279e-01 4.09827888e-01 4.44299787e-01 4.66287106e-01 4.58228260e-01 4.02021527e-01 2.97349900e-01 1.92402989e-01 1.47272900e-01 1.70733497e-01 2.49592274e-01 3.29834789e-01 3.75033528e-01 3.85125041e-01 3.77959609e-01 3.65921259e-01 3.99672329e-01 
