# vtk DataFile Version 2.0
results_case1_non_linear/iter2.vtk, Created by Freefem++ 
ASCII
DATASET UNSTRUCTURED_GRID
POINTS 961 float
0 0 0
0.033333333 0 0
0.066666667 0 0
0.1 0 0
0.13333333 0 0
0.16666667 0 0
0.2 0 0
0.23333333 0 0
0.26666667 0 0
0.3 0 0
0.33333333 0 0
0.36666667 0 0
0.4 0 0
0.43333333 0 0
0.46666667 0 0
0.5 0 0
0.53333333 0 0
0.56666667 0 0
0.6 0 0
0.63333333 0 0
0.66666667 0 0
0.7 0 0
0.73333333 0 0
0.76666667 0 0
0.8 0 0
0.83333333 0 0
0.86666667 0 0
0.9 0 0
0.93333333 0 0
0.96666667 0 0
1 0 0
0 0.033333333 0
0.033333333 0.033333333 0
0.066666667 0.033333333 0
0.1 0.033333333 0
0.13333333 0.033333333 0
0.16666667 0.033333333 0
0.2 0.033333333 0
0.23333333 0.033333333 0
0.26666667 0.033333333 0
0.3 0.033333333 0
0.33333333 0.033333333 0
0.36666667 0.033333333 0
0.4 0.033333333 0
0.43333333 0.033333333 0
0.46666667 0.033333333 0
0.5 0.033333333 0
0.53333333 0.033333333 0
0.56666667 0.033333333 0
0.6 0.033333333 0
0.63333333 0.033333333 0
0.66666667 0.033333333 0
0.7 0.033333333 0
0.73333333 0.033333333 0
0.76666667 0.033333333 0
0.8 0.033333333 0
0.83333333 0.033333333 0
0.86666667 0.033333333 0
0.9 0.033333333 0
0.93333333 0.033333333 0
0.96666667 0.033333333 0
1 0.033333333 0
0 0.066666667 0
0.033333333 0.066666667 0
0.066666667 0.066666667 0
0.1 0.066666667 0
0.13333333 0.066666667 0
0.16666667 0.066666667 0
0.2 0.066666667 0
0.23333333 0.066666667 0
0.26666667 0.066666667 0
0.3 0.066666667 0
0.33333333 0.066666667 0
0.36666667 0.066666667 0
0.4 0.066666667 0
0.43333333 0.066666667 0
0.46666667 0.066666667 0
0.5 0.066666667 0
0.53333333 0.066666667 0
0.56666667 0.066666667 0
0.6 0.066666667 0
0.63333333 0.066666667 0
0.66666667 0.066666667 0
0.7 0.066666667 0
0.73333333 0.066666667 0
0.76666667 0.066666667 0
0.8 0.066666667 0
0.83333333 0.066666667 0
0.86666667 0.066666667 0
0.9 0.066666667 0
0.93333333 0.066666667 0
0.96666667 0.066666667 0
1 0.066666667 0
0 0.1 0
0.033333333 0.1 0
0.066666667 0.1 0
0.1 0.1 0
0.13333333 0.1 0
0.16666667 0.1 0
0.2 0.1 0
0.23333333 0.1 0
0.26666667 0.1 0
0.3 0.1 0
0.33333333 0.1 0
0.36666667 0.1 0
0.4 0.1 0
0.43333333 0.1 0
0.46666667 0.1 0
0.5 0.1 0
0.53333333 0.1 0
0.56666667 0.1 0
0.6 0.1 0
0.63333333 0.1 0
0.66666667 0.1 0
0.7 0.1 0
0.73333333 0.1 0
0.76666667 0.1 0
0.8 0.1 0
0.83333333 0.1 0
0.86666667 0.1 0
0.9 0.1 0
0.93333333 0.1 0
0.96666667 0.1 0
1 0.1 0
0 0.13333333 0
0.033333333 0.13333333 0
0.066666667 0.13333333 0
0.1 0.13333333 0
0.13333333 0.13333333 0
0.16666667 0.13333333 0
0.2 0.13333333 0
0.23333333 0.13333333 0
0.26666667 0.13333333 0
0.3 0.13333333 0
0.33333333 0.13333333 0
0.36666667 0.13333333 0
0.4 0.13333333 0
0.43333333 0.13333333 0
0.46666667 0.13333333 0
0.5 0.13333333 0
0.53333333 0.13333333 0
0.56666667 0.13333333 0
0.6 0.13333333 0
0.63333333 0.13333333 0
0.66666667 0.13333333 0
0.7 0.13333333 0
0.73333333 0.13333333 0
0.76666667 0.13333333 0
0.8 0.13333333 0
0.83333333 0.13333333 0
0.86666667 0.13333333 0
0.9 0.13333333 0
0.93333333 0.13333333 0
0.96666667 0.13333333 0
1 0.13333333 0
0 0.16666667 0
0.033333333 0.16666667 0
0.066666667 0.16666667 0
0.1 0.16666667 0
0.13333333 0.16666667 0
0.16666667 0.16666667 0
0.2 0.16666667 0
0.23333333 0.16666667 0
0.26666667 0.16666667 0
0.3 0.16666667 0
0.33333333 0.16666667 0
0.36666667 0.16666667 0
0.4 0.16666667 0
0.43333333 0.16666667 0
0.46666667 0.16666667 0
0.5 0.16666667 0
0.53333333 0.16666667 0
0.56666667 0.16666667 0
0.6 0.16666667 0
0.63333333 0.16666667 0
0.66666667 0.16666667 0
0.7 0.16666667 0
0.73333333 0.16666667 0
0.76666667 0.16666667 0
0.8 0.16666667 0
0.83333333 0.16666667 0
0.86666667 0.16666667 0
0.9 0.16666667 0
0.93333333 0.16666667 0
0.96666667 0.16666667 0
1 0.16666667 0
0 0.2 0
0.033333333 0.2 0
0.066666667 0.2 0
0.1 0.2 0
0.13333333 0.2 0
0.16666667 0.2 0
0.2 0.2 0
0.23333333 0.2 0
0.26666667 0.2 0
0.3 0.2 0
0.33333333 0.2 0
0.36666667 0.2 0
0.4 0.2 0
0.43333333 0.2 0
0.46666667 0.2 0
0.5 0.2 0
0.53333333 0.2 0
0.56666667 0.2 0
0.6 0.2 0
0.63333333 0.2 0
0.66666667 0.2 0
0.7 0.2 0
0.73333333 0.2 0
0.76666667 0.2 0
0.8 0.2 0
0.83333333 0.2 0
0.86666667 0.2 0
0.9 0.2 0
0.93333333 0.2 0
0.96666667 0.2 0
1 0.2 0
0 0.23333333 0
0.033333333 0.23333333 0
0.066666667 0.23333333 0
0.1 0.23333333 0
0.13333333 0.23333333 0
0.16666667 0.23333333 0
0.2 0.23333333 0
0.23333333 0.23333333 0
0.26666667 0.23333333 0
0.3 0.23333333 0
0.33333333 0.23333333 0
0.36666667 0.23333333 0
0.4 0.23333333 0
0.43333333 0.23333333 0
0.46666667 0.23333333 0
0.5 0.23333333 0
0.53333333 0.23333333 0
0.56666667 0.23333333 0
0.6 0.23333333 0
0.63333333 0.23333333 0
0.66666667 0.23333333 0
0.7 0.23333333 0
0.73333333 0.23333333 0
0.76666667 0.23333333 0
0.8 0.23333333 0
0.83333333 0.23333333 0
0.86666667 0.23333333 0
0.9 0.23333333 0
0.93333333 0.23333333 0
0.96666667 0.23333333 0
1 0.23333333 0
0 0.26666667 0
0.033333333 0.26666667 0
0.066666667 0.26666667 0
0.1 0.26666667 0
0.13333333 0.26666667 0
0.16666667 0.26666667 0
0.2 0.26666667 0
0.23333333 0.26666667 0
0.26666667 0.26666667 0
0.3 0.26666667 0
0.33333333 0.26666667 0
0.36666667 0.26666667 0
0.4 0.26666667 0
0.43333333 0.26666667 0
0.46666667 0.26666667 0
0.5 0.26666667 0
0.53333333 0.26666667 0
0.56666667 0.26666667 0
0.6 0.26666667 0
0.63333333 0.26666667 0
0.66666667 0.26666667 0
0.7 0.26666667 0
0.73333333 0.26666667 0
0.76666667 0.26666667 0
0.8 0.26666667 0
0.83333333 0.26666667 0
0.86666667 0.26666667 0
0.9 0.26666667 0
0.93333333 0.26666667 0
0.96666667 0.26666667 0
1 0.26666667 0
0 0.3 0
0.033333333 0.3 0
0.066666667 0.3 0
0.1 0.3 0
0.13333333 0.3 0
0.16666667 0.3 0
0.2 0.3 0
0.23333333 0.3 0
0.26666667 0.3 0
0.3 0.3 0
0.33333333 0.3 0
0.36666667 0.3 0
0.4 0.3 0
0.43333333 0.3 0
0.46666667 0.3 0
0.5 0.3 0
0.53333333 0.3 0
0.56666667 0.3 0
0.6 0.3 0
0.63333333 0.3 0
0.66666667 0.3 0
0.7 0.3 0
0.73333333 0.3 0
0.76666667 0.3 0
0.8 0.3 0
0.83333333 0.3 0
0.86666667 0.3 0
0.9 0.3 0
0.93333333 0.3 0
0.96666667 0.3 0
1 0.3 0
0 0.33333333 0
0.033333333 0.33333333 0
0.066666667 0.33333333 0
0.1 0.33333333 0
0.13333333 0.33333333 0
0.16666667 0.33333333 0
0.2 0.33333333 0
0.23333333 0.33333333 0
0.26666667 0.33333333 0
0.3 0.33333333 0
0.33333333 0.33333333 0
0.36666667 0.33333333 0
0.4 0.33333333 0
0.43333333 0.33333333 0
0.46666667 0.33333333 0
0.5 0.33333333 0
0.53333333 0.33333333 0
0.56666667 0.33333333 0
0.6 0.33333333 0
0.63333333 0.33333333 0
0.66666667 0.33333333 0
0.7 0.33333333 0
0.73333333 0.33333333 0
0.76666667 0.33333333 0
0.8 0.33333333 0
0.83333333 0.33333333 0
0.86666667 0.33333333 0
0.9 0.33333333 0
0.93333333 0.33333333 0
0.96666667 0.33333333 0
1 0.33333333 0
0 0.36666667 0
0.033333333 0.36666667 0
0.066666667 0.36666667 0
0.1 0.36666667 0
0.13333333 0.36666667 0
0.16666667 0.36666667 0
0.2 0.36666667 0
0.23333333 0.36666667 0
0.26666667 0.36666667 0
0.3 0.36666667 0
0.33333333 0.36666667 0
0.36666667 0.36666667 0
0.4 0.36666667 0
0.43333333 0.36666667 0
0.46666667 0.36666667 0
0.5 0.36666667 0
0.53333333 0.36666667 0
0.56666667 0.36666667 0
0.6 0.36666667 0
0.63333333 0.36666667 0
0.66666667 0.36666667 0
0.7 0.36666667 0
0.73333333 0.36666667 0
0.76666667 0.36666667 0
0.8 0.36666667 0
0.83333333 0.36666667 0
0.86666667 0.36666667 0
0.9 0.36666667 0
0.93333333 0.36666667 0
0.96666667 0.36666667 0
1 0.36666667 0
0 0.4 0
0.033333333 0.4 0
0.066666667 0.4 0
0.1 0.4 0
0.13333333 0.4 0
0.16666667 0.4 0
0.2 0.4 0
0.23333333 0.4 0
0.26666667 0.4 0
0.3 0.4 0
0.33333333 0.4 0
0.36666667 0.4 0
0.4 0.4 0
0.43333333 0.4 0
0.46666667 0.4 0
0.5 0.4 0
0.53333333 0.4 0
0.56666667 0.4 0
0.6 0.4 0
0.63333333 0.4 0
0.66666667 0.4 0
0.7 0.4 0
0.73333333 0.4 0
0.76666667 0.4 0
0.8 0.4 0
0.83333333 0.4 0
0.86666667 0.4 0
0.9 0.4 0
0.93333333 0.4 0
0.96666667 0.4 0
1 0.4 0
0 0.43333333 0
0.033333333 0.43333333 0
0.066666667 0.43333333 0
0.1 0.43333333 0
0.13333333 0.43333333 0
0.16666667 0.43333333 0
0.2 0.43333333 0
0.23333333 0.43333333 0
0.26666667 0.43333333 0
0.3 0.43333333 0
0.33333333 0.43333333 0
0.36666667 0.43333333 0
0.4 0.43333333 0
0.43333333 0.43333333 0
0.46666667 0.43333333 0
0.5 0.43333333 0
0.53333333 0.43333333 0
0.56666667 0.43333333 0
0.6 0.43333333 0
0.63333333 0.43333333 0
0.66666667 0.43333333 0
0.7 0.43333333 0
0.73333333 0.43333333 0
0.76666667 0.43333333 0
0.8 0.43333333 0
0.83333333 0.43333333 0
0.86666667 0.43333333 0
0.9 0.43333333 0
0.93333333 0.43333333 0
0.96666667 0.43333333 0
1 0.43333333 0
0 0.46666667 0
0.033333333 0.46666667 0
0.066666667 0.46666667 0
0.1 0.46666667 0
0.13333333 0.46666667 0
0.16666667 0.46666667 0
0.2 0.46666667 0
0.23333333 0.46666667 0
0.26666667 0.46666667 0
0.3 0.46666667 0
0.33333333 0.46666667 0
0.36666667 0.46666667 0
0.4 0.46666667 0
0.43333333 0.46666667 0
0.46666667 0.46666667 0
0.5 0.46666667 0
0.53333333 0.46666667 0
0.56666667 0.46666667 0
0.6 0.46666667 0
0.63333333 0.46666667 0
0.66666667 0.46666667 0
0.7 0.46666667 0
0.73333333 0.46666667 0
0.76666667 0.46666667 0
0.8 0.46666667 0
0.83333333 0.46666667 0
0.86666667 0.46666667 0
0.9 0.46666667 0
0.93333333 0.46666667 0
0.96666667 0.46666667 0
1 0.46666667 0
0 0.5 0
0.033333333 0.5 0
0.066666667 0.5 0
0.1 0.5 0
0.13333333 0.5 0
0.16666667 0.5 0
0.2 0.5 0
0.23333333 0.5 0
0.26666667 0.5 0
0.3 0.5 0
0.33333333 0.5 0
0.36666667 0.5 0
0.4 0.5 0
0.43333333 0.5 0
0.46666667 0.5 0
0.5 0.5 0
0.53333333 0.5 0
0.56666667 0.5 0
0.6 0.5 0
0.63333333 0.5 0
0.66666667 0.5 0
0.7 0.5 0
0.73333333 0.5 0
0.76666667 0.5 0
0.8 0.5 0
0.83333333 0.5 0
0.86666667 0.5 0
0.9 0.5 0
0.93333333 0.5 0
0.96666667 0.5 0
1 0.5 0
0 0.53333333 0
0.033333333 0.53333333 0
0.066666667 0.53333333 0
0.1 0.53333333 0
0.13333333 0.53333333 0
0.16666667 0.53333333 0
0.2 0.53333333 0
0.23333333 0.53333333 0
0.26666667 0.53333333 0
0.3 0.53333333 0
0.33333333 0.53333333 0
0.36666667 0.53333333 0
0.4 0.53333333 0
0.43333333 0.53333333 0
0.46666667 0.53333333 0
0.5 0.53333333 0
0.53333333 0.53333333 0
0.56666667 0.53333333 0
0.6 0.53333333 0
0.63333333 0.53333333 0
0.66666667 0.53333333 0
0.7 0.53333333 0
0.73333333 0.53333333 0
0.76666667 0.53333333 0
[...]
CELL_DATA 1920
Scalars  Label int 1
LOOKUP_TABLE FreeFempp_table
0
0
0
0
0
0
0
0
0
0
0
0
0
0
0
0
0
0
0
0
0
0
0
0
0
0
0
0
0
0
0
0
0
0
0
0
0
0
0
0
0
0
0
0
0
0
0
0
0
0
0
0
0
0
0
0
0
0
0
0
0
0
0
0
0
0
0
0
0
0
0
0
0
0
0
0
0
0
0
0
0
0
0
0
0
0
0
0
0
0
0
0
0
0
0
0
0
0
0
0
0
0
0
0
0
0
0
0
0
0
0
0
0
0
0
0
0
0
0
0
0
0
0
0
0
0
0
0
0
0
0
0
0
0
0
0
0
0
0
0
0
0
0
0
0
0
0
0
0
0
0
0
0
0
0
0
0
0
0
0
0
0
0
0
0
0
0
0
0
0
0
0
0
0
0
0
0
0
0
0
0
0
0
0
0
0
0
0
0
0
0
0
0
0
0
0
0
0
0
0
0
0
0
0
0
0
0
0
0
0
0
0
0
0
0
0
0
0
0
0
0
0
0
0
0
0
0
0
0
0
0
0
0
0
0
0
0
0
0
0
0
0
0
0
0
0
0
0
0
0
0
0
0
0
0
0
0
0
0
0
0
0
0
0
0
0
0
0
0
0
0
0
0
0
0
0
0
0
0
0
0
0
0
0
0
0
0
0
0
0
0
0
0
0
0
0
0
0
0
0
0
0
0
0
0
0
0
0
0
0
0
0
0
0
0
0
0
0
0
0
0
0
0
0
0
0
0
0
0
0
0
0
0
0
0
0
0
0
0
0
0
0
0
0
0
0
0
0
0
0
0
0
0
0
0
0
0
0
0
0
0
0
0
0
0
0
0
0
0
0
0
0
0
0
0
0
0
0
0
0
0
0
0
0
0
0
0
0
0
0
0
0
0
0
0
0
0
0
0
0
0
0
0
0
0
0
0
0
0
0
0
0
0
0
0
0
0
0
0
0
0
0
0
0
0
0
0
0
0
0
0
0
0
0
0
0
0
0
0
0
0
0
0
0
0
0
0
0
0
0
0
0
0
0
0
0
0
0
0
0
0
0
0
0
0
0
0
0
0
0
0
0
0
0
0
0
0
0
0
0
0
0
0
0
0
0
0
0
0
0
0
0
0
0
0
0
0
0
0
0
0
0
0
0
0
0
0
0
0
0
0
0
0
0
0
0
0
0
0
0
0
0
0
0
0
0
0
0
0
0
0
0
0
0
0
0
0
0
0
0
0
0
0
0
0
0
0
0
0
0
0
0
0
0
0
0
0
0
0
0
0
0
0
0
0
0
0
0
0
0
0
0
0
0
0
0
0
0
0
0
0
0
0
0
0
0
0
0
0
0
0
0
0
0
0
0
0
0
0
0
0
0
0
0
0
0
0
0
0
0
0
0
0
0
0
0
0
0
0
0
0
0
0
0
0
0
0
0
0
0
0
0
0
0
0
0
0
0
0
0
0
0
0
0
0
0
0
0
0
0
0
0
0
0
0
0
0
0
0
0
0
0
0
0
0
0
0
0
0
0
0
0
0
0
0
0
0
0
0
0
0
0
0
0
0
0
0
0
0
0
0
0
0
0
0
0
0
0
0
0
0
0
0
0
0
0
0
0
0
0
0
0
0
0
0
0
0
0
0
0
0
0
0
0
0
0
0
0
0
0
0
0
0
0
0
0
0
0
0
0
0
0
0
0
0
0
0
0
0
0
0
0
0
0
0
0
0
0
0
0
0
0
0
0
0
0
0
0
0
0
0
0
0
0
0
0
0
0
0
0
0
0
0
0
0
0
0
0
0
0
0
0
0
0
0
0
0
0
0
0
0
0
0
0
0
0
0
0
0
0
0
0
0
0
0
0
0
0
0
0
0
0
0
0
0
0
0
0
0
0
0
0
0
0
0
0
0
0
0
0
0
0
0
0
0
0
0
0
0
0
0
0
0
0
0
0
0
0
0
0
0
0
0
0
0
0
0
0
0
0
0
0
0
0
0
0
0
0
0
0
0
0
0
0
0
0
0
0
0
0
0
0
0
0
0
0
0
0
0
0
0
0
0
0
0
0
0
0
0
0
0
0
0
0
0
0
0
0
0
0
0
0
0
0
0
0
0
0
0
0
0
0
0
0
0
0
0
0
0
0
0
0
0
0
0
0
0
0
0
0
0
0
0
0
0
0
0
0
0
0
0
0
0
0
0
0
0
0
0
0
0
0
0
0
0
0
0
0
0
0
0
0
0
0
0
0
0
0
0
0
0
0
0
0
0
0
0
0
0
0
0
0
0
0
0
0
0
0
0
0
0
0
0
0
0
0
0
0
0
0
0
0
0
0
0
0
0
0
0
0
0
0
0
0
0
0
0
0
0
0
0
0
0
0
0
0
0
0
0
0
0
0
0
0
0
0
0
0
0
0
0
0
0
0
0
0
0
0
0
0
0
0
0
0
0
0
0
0
0
0
0
0
0
0
0
0
0
0
0
0
0
0
0
0
0
0
0
0
0
0
0
0
0
0
0
0
0
0
0
0
0
0
0
0
0
0
0
0
0
0
0
0
0
0
0
0
0
0
0
0
0
0
0
0
0
0
0
0
0
0
0
0
0
0
0
0
0
0
0
0
0
0
0
0
0
0
0
0
0
0
0
0
0
0
0
0
0
0
0
0
0
0
0
0
0
0
0
0
0
0
0
0
0
0
0
0
0
0
0
0
0
0
0
0
0
0
0
0
0
0
0
0
0
0
0
0
0
0
0
0
0
0
0
0
0
0
0
0
0
0
0
0
0
0
0
0
0
0
0
0
0
0
0
0
0
0
0
0
0
0
0
0
0
0
0
0
0
0
0
0
0
0
0
0
0
0
0
0
0
0
0
0
0
0
0
0
0
0
0
0
0
0
0
0
0
0
0
0
0
0
0
0
0
0
0
0
0
0
0
0
0
0
0
0
0
0
0
0
0
0
0
0
0
0
0
0
0
0
0
0
0
0
0
0
0
0
0
0
0
0
0
0
0
0
0
0
0
0
0
0
0
0
0
0
0
0
0
0
0
0
0
0
0
0
0
0
0
0
0
0
0
0
0
0
0
0
0
0
0
0
0
0
0
0
0
0
0
0
0
0
0
0
0
0
0
0
0
0
0
0
0
0
0
0
0
0
0
0
0
0
0
0
0
0
0
0
0
0
0
0
0
0
0
0
0
0
0
0
0
0
0
0
0
0
0
0
0
0
0
0
0
0
0
0
0
0
0
0
0
0
0
0
0
0
0
0
0
0
0
0
0
0
0
0
0
0
0
0
0
0
0
0
0
0
0
0
0
0
0
0
0
0
0
0
0
0
0
0
0
0
0
0
0
0
0
0
0
0
0
0
0
0
0
0
0
0
0
0
0
0
0
0
0
0
0
0
0
0
0
0
0
0
0
0
0
0
0
0
0
0
0
0
0
0
0
0
0
0
0
0
0
0
0
0
0
0
0
0
0
0
0
0
0
0
0
0
0
0
0
0
0
0
0
0
0
0
0
0
0
0
0
0
0
0
0
0
0
0
0
0
0
0
0
0
0
0
0
0
0
0
0
0
0
0
0
0
0
0
0
0
0
0
0
0
0
0
0
0
0
0
0
0
0
0
0
0
0
0
0
0
0
0
0
0
0
0
0
0
0
0
0
0
0
0
0
0
0
0
0
0
0
0
0
0
0
0
0
0
0
0
0
0
0
0
0
0
0
0
0
0
0
0
0
0
0
0
0
0
0
0
0
0
0
0
0
0
0
0
0
0
0
0
0
0
0
0
0
0
0
0
0
0
0
0
0
0
0
0
0
0
0
0
0
0
0
0
0
0
0
0
0
0
0
0
0
0
0
0
0
0
0
0
0
0
0
0
0
0
0
0
0
0
0
0
0
0
0
0
0
0
0
0
0
0
0
0
0
0
0
0
0
0
0
0
0
0
0
0
0
0
0
0
0
0
0
0
0
0
0
0
0
0
0
0
0
0
0
0
0
0
0
0
0
0
0
0
0
0
0
0
0
0
0
0
0
0
0
0
0
0
0
0
0
0
0
0
0
0
0
0
0
0
0
0
0
0
0
0
0
0
1
1
1
1
1
1
1
1
1
1
1
1
1
1
1
1
1
1
1
1
1
1
1
1
1
1
1
1
1
1
2
2
2
2
2
2
2
2
2
2
2
2
2
2
2
2
2
2
2
2
2
2
2
2
2
2
2
2
2
2
3
3
3
3
3
3
3
3
3
3
3
3
3
3
3
3
3
3
3
3
3
3
3
3
3
3
3
3
3
3
4
4
4
4
4
4
4
4
4
4
4
4
4
4
4
4
4
4
4
4
4
4
4
4
4
4
4
4
4
4

LOOKUP_TABLE FreeFempp_table 5
1.00000000 0.00000000 0.00000000 1.00000000
1.00000000 1.00000000 0.00000000 1.00000000
1.00000000 0.00000000 1.00000000 1.00000000
0.00000000 1.00000000 0.00000000 1.00000000
0.00000000 1.00000000 1.00000000 1.00000000

POINT_DATA 961
FIELD FieldData 1
Density 1 961 float
9.73925926e-03 9.17179417e-03 8.72186478e-03 8.80715903e-03 9.06965137e-03 1.00827264e-02 1.09568294e-02 1.06836185e-02 1.04913041e-02 1.37013532e-02 3.22078049e-01 4.60387707e-01 5.05280554e-01 5.33483505e-01 5.44824481e-01 5.43596566e-01 5.31732440e-01 5.06664932e-01 4.77649868e-01 4.60496753e-01 4.42106783e-01 3.92730623e-01 3.33687097e-01 3.22384864e-01 3.73950094e-01 5.54978609e-01 9.25814450e-01 9.68464732e-01 1.23052066e-02 1.79745816e-02 5.82442641e-01 1.22797843e-02 8.22986756e-03 8.87936726e-03 8.77279229e-03 8.91344342e-03 9.57057998e-03 1.08595043e-02 1.10562881e-02 1.10466704e-02 8.73651728e-03 9.94140003e-03 1.06209451e-02 1.25747388e-02 1.59500651e-02 1.13516465e-01 2.39558443e-01 2.59691000e-01 2.15297610e-01 1.82823330e-01 1.85150370e-01 1.72081009e-01 1.18397847e-01 8.57077539e-02 8.54196027e-02 1.05026886e-01 1.98197648e-01 8.02087247e-01 9.85436320e-01 1.26122721e-02 8.39080010e-03 2.00741589e-01 2.81460673e-01 4.16454561e-02 4.02974971e-02 1.01673774e-01 1.67261675e-01 2.15707064e-01 2.53586918e-01 2.71590143e-01 2.20275998e-01 6.33728206e-02 1.22530069e-02 1.10725909e-02 1.03780255e-02 1.09964926e-02 9.13355593e-03 1.26138777e-02 1.57850254e-02 1.75996535e-02 2.01009139e-02 2.26125605e-02 2.37127040e-02 2.81163435e-02 3.91352288e-02 4.81332913e-02 6.33838549e-02 1.05962403e-01 6.11691356e-01 9.60422456e-01 5.90126812e-01 9.12066363e-03 1.24638993e-02 3.44453365e-01 5.52586727e-02 3.25565934e-02 6.58888817e-02 1.52351320e-01 2.16700077e-01 2.66063631e-01 3.04585040e-01 3.30086499e-01 3.42721939e-01 3.64364952e-01 3.55677247e-01 2.60330677e-01 1.18988566e-01 1.65979285e-02 1.16083389e-02 1.43958759e-02 1.58493184e-02 1.76184420e-02 1.33522581e-02 2.30854657e-02 1.41438581e-02 1.98356267e-02 4.09794524e-02 5.22665568e-02 7.89501145e-02 4.82076675e-01 9.40915585e-01 7.50421464e-01 1.17118154e-02 1.14889257e-02 3.72600824e-01 8.07734057e-02 3.27845514e-02 5.25161102e-02 1.55346438e-01 2.41156995e-01 3.03030699e-01 3.50732058e-01 3.89221996e-01 4.18215036e-01 4.43224937e-01 4.79189038e-01 5.10089874e-01 5.28242469e-01 5.17793715e-01 4.38819170e-01 3.13965350e-01 1.78151861e-01 1.20151415e-01 1.35346159e-01 1.32787570e-01 5.74063286e-02 3.56358774e-02 4.95764688e-02 6.42533004e-02 9.50911567e-02 5.01765370e-01 9.31794286e-01 7.99760163e-01 1.18336957e-02 1.15591409e-02 3.92869800e-01 1.12746939e-01 4.76970226e-02 6.18667752e-02 1.72013462e-01 2.78153539e-01 3.56982559e-01 4.17749554e-01 4.65205938e-01 5.00477314e-01 5.25772393e-01 5.48929036e-01 5.75122774e-01 5.99047899e-01 6.19768977e-01 6.36163592e-01 6.32479191e-01 6.00012600e-01 5.52330375e-01 5.16839504e-01 4.74308848e-01 3.44264030e-01 2.26568505e-01 1.91960245e-01 1.73897967e-01 2.36700907e-01 6.45712495e-01 9.34387982e-01 8.47761691e-01 1.22067891e-02 1.18552502e-02 4.35140312e-01 1.65926963e-01 1.04136273e-01 1.26668692e-01 2.37285078e-01 3.52703065e-01 4.39527750e-01 5.03754258e-01 5.49186110e-01 5.79026580e-01 5.97418249e-01 6.10653877e-01 6.22840941e-01 6.32474065e-01 6.39051855e-01 6.45412207e-01 6.52113378e-01 6.53566182e-01 6.48491621e-01 6.33592010e-01 5.99592507e-01 5.35213232e-01 4.61706996e-01 4.10008788e-01 3.78022522e-01 4.56619501e-01 7.67204344e-01 9.40560520e-01 8.79969239e-01 1.27298106e-02 1.22229503e-02 5.31626940e-01 2.87256777e-01 2.38581672e-01 2.83347666e-01 3.81718516e-01 4.87224758e-01 5.61357021e-01 6.11089885e-01 6.41025782e-01 6.56019330e-01 6.61057532e-01 6.61184371e-01 6.59516573e-01 6.56230450e-01 6.52168572e-01 6.49581254e-01 6.49582982e-01 6.49968386e-01 6.47527575e-01 6.37562573e-01 6.14364386e-01 5.75222969e-01 5.30163527e-01 4.95594203e-01 4.94379044e-01 5.93633533e-01 8.20083916e-01 9.40816760e-01 8.88285458e-01 1.34001179e-02 1.27271684e-02 6.94386780e-01 5.66025257e-01 5.44466615e-01 5.62844932e-01 6.33820534e-01 6.82345092e-01 7.11848021e-01 7.27129698e-01 7.30419993e-01 7.25667596e-01 7.16044486e-01 7.04398036e-01 6.92403316e-01 6.80514753e-01 6.69868588e-01 6.62480652e-01 6.58865690e-01 6.56911492e-01 6.53625369e-01 6.45290494e-01 6.28500223e-01 6.01865530e-01 5.70130885e-01 5.46884775e-01 5.62315285e-01 6.67982519e-01 8.46421242e-01 9.37879443e-01 8.78275454e-01 1.42049603e-02 1.33210234e-02 8.39787066e-01 8.62118423e-01 8.53119373e-01 8.51370335e-01 8.44697356e-01 8.30990851e-01 8.21350396e-01 8.09708416e-01 7.95369029e-01 7.78781831e-01 7.60652542e-01 7.42110312e-01 7.24043489e-01 7.07076132e-01 6.92466676e-01 6.81852698e-01 6.75647974e-01 6.72387421e-01 6.69527650e-01 6.63978100e-01 6.52734458e-01 6.34028912e-01 6.10266745e-01 5.93946040e-01 6.16215765e-01 7.17706084e-01 8.63763571e-01 9.33092654e-01 8.46987784e-01 1.53138191e-02 1.40033364e-02 8.66305351e-01 9.32355285e-01 9.21745479e-01 9.04375613e-01 8.87894034e-01 8.71966302e-01 8.59014988e-01 8.43834043e-01 8.27050745e-01 8.08739007e-01 7.89261878e-01 7.69294739e-01 7.49536335e-01 7.30800509e-01 7.14431524e-01 7.02026665e-01 6.94344521e-01 6.90663338e-01 6.89036191e-01 6.86680257e-01 6.80472314e-01 6.67934597e-01 6.50047183e-01 6.38046622e-01 6.61826789e-01 7.54485607e-01 8.76269877e-01 9.26430523e-01 7.77371705e-01 1.74794421e-02 1.50994211e-02 7.89185166e-01 8.88278365e-01 8.72470558e-01 8.62742543e-01 8.58081758e-01 8.52559805e-01 8.47205341e-01 8.38264048e-01 8.26724231e-01 8.12705994e-01 7.96808958e-01 7.79791117e-01 7.62419224e-01 7.45636344e-01 7.30730474e-01 7.19112456e-01 7.11744428e-01 7.08572984e-01 7.08440602e-01 7.09098756e-01 7.07424343e-01 7.00403512e-01 6.88036740e-01 6.79949939e-01 7.03285992e-01 7.85479069e-01 8.85650694e-01 9.15159822e-01 6.17156684e-01 2.17074603e-02 1.77699868e-02 6.30428672e-01 6.70235157e-01 6.92243040e-01 7.24387825e-01 7.63639331e-01 7.89494038e-01 8.01349699e-01 8.03600252e-01 8.00334036e-01 7.93287694e-01 7.83692241e-01 7.72505105e-01 7.60561645e-01 7.48909771e-01 7.38657653e-01 7.30910063e-01 7.26291239e-01 7.24981546e-01 7.26575315e-01 7.29772449e-01 7.32143342e-01 7.30734706e-01 7.24801004e-01 7.21889615e-01 7.44736314e-01 8.14299524e-01 8.89305413e-01 8.83033156e-01 3.00886571e-01 2.67859660e-02 2.27006190e-02 4.53441560e-01 3.14810187e-01 3.57921362e-01 4.64054674e-01 5.99713266e-01 6.91342831e-01 7.35152483e-01 7.52739429e-01 7.58256972e-01 7.58223653e-01 7.55492806e-01 7.51366317e-01 7.46600986e-01 7.42069423e-01 7.38501668e-01 7.36637652e-01 7.36846507e-01 7.39073813e-01 7.43268490e-01 7.48923242e-01 7.54788816e-01 7.59018779e-01 7.60841012e-01 7.64818907e-01 7.86243081e-01 8.36853802e-01 8.76664400e-01 7.76662171e-01 9.06599388e-02 3.14989388e-02 2.85892710e-02 3.29113334e-01 1.15424119e-01 1.24901757e-01 2.15974376e-01 4.11379755e-01 5.79221606e-01 6.64262891e-01 6.99522376e-01 7.12997496e-01 7.18116105e-01 7.20569968e-01 7.22553611e-01 7.24855781e-01 7.27944255e-01 7.31785297e-01 7.36804366e-01 7.42878735e-01 7.49981284e-01 7.57873952e-01 7.66558945e-01 7.75741458e-01 7.85062194e-01 7.94777155e-01 8.06844115e-01 8.25291038e-01 8.46990108e-01 8.24629724e-01 5.02883136e-01 5.49988672e-02 3.83447260e-02 4.19408344e-02 2.07822502e-01 6.55229837e-02 6.54249489e-02 1.23405047e-01 3.00915271e-01 4.90421951e-01 5.99906862e-01 6.50019467e-01 6.71397865e-01 6.80924773e-01 6.86764181e-01 6.92627728e-01 6.99958622e-01 7.09173143e-01 7.19962060e-01 7.31940448e-01 7.44395971e-01 7.57063627e-01 7.69652367e-01 7.82291412e-01 7.95195639e-01 8.09148431e-01 8.25463593e-01 8.44411790e-01 8.58546436e-01 8.42547834e-01 6.87414527e-01 1.97420597e-01 4.40305732e-02 4.41326983e-02 6.90265149e-02 9.46062803e-02 4.91031855e-02 5.20745181e-02 1.17676228e-01 2.86681831e-01 4.51703161e-01 5.53942204e-01 6.07926786e-01 6.35011733e-01 6.48991048e-01 6.57869697e-01 6.66158974e-01 6.76200211e-01 6.88932478e-01 7.04235077e-01 7.21567273e-01 7.39883780e-01 7.58511901e-01 7.76713729e-01 7.94653296e-01 8.12545300e-01 8.31300795e-01 8.52082193e-01 8.73348832e-01 8.82194459e-01 8.27726781e-01 4.85146016e-01 9.42325443e-02 4.78991494e-02 5.38187325e-02 1.89253673e-01 5.62594309e-02 4.12200838e-02 5.00483960e-02 1.66371882e-01 3.36423010e-01 4.54905301e-01 5.30567050e-01 5.77243984e-01 6.05274796e-01 6.22319579e-01 6.34022892e-01 6.44283116e-01 6.55665457e-01 6.69650555e-01 6.86807156e-01 7.06818640e-01 7.28891313e-01 7.52153337e-01 7.75874913e-01 7.99827158e-01 8.23880136e-01 8.48210037e-01 8.72422516e-01 8.93247783e-01 8.98576736e-01 8.41272354e-01 5.19255221e-01 1.32591337e-01 7.64608681e-02 9.13890600e-02 3.36457759e-01 3.68165635e-02 3.55329700e-02 6.14739023e-02 2.50425369e-01 3.96674275e-01 4.73197758e-01 5.22636175e-01 5.57822585e-01 5.82871616e-01 6.00736022e-01 6.14330053e-01 6.26190126e-01 6.38354123e-01 6.52325690e-01 6.69052780e-01 6.88949168e-01 7.11825013e-01 7.37242520e-01 7.64617980e-01 7.93488741e-01 8.23257685e-01 8.53177071e-01 8.81453454e-01 9.04106915e-01 9.13722157e-01 8.90090764e-01 7.63421714e-01 5.11166990e-01 4.83348608e-01 5.65561771e-01 5.70733845e-01 2.74225511e-02 2.92315707e-02 9.33332518e-02 3.35219800e-01 4.41864222e-01 4.89226699e-01 5.20591557e-01 5.45707583e-01 5.66412687e-01 5.83458424e-01 5.97817719e-01 6.10685110e-01 6.23295307e-01 6.36782050e-01 6.52073264e-01 6.69875503e-01 6.90703094e-01 7.14847624e-01 7.42358506e-01 7.73003638e-01 8.06051314e-01 8.40050220e-01 8.72333229e-01 8.99238467e-01 9.17753816e-01 9.25523460e-01 9.22248185e-01 9.09871578e-01 9.21369016e-01 8.74256253e-01 8.57260704e-01 2.24534497e-02 2.51655318e-02 1.60336807e-01 4.02081817e-01 4.71217066e-01 4.98959482e-01 5.18680692e-01 5.36505640e-01 5.53337455e-01 5.69014788e-01 5.83418965e-01 5.96752822e-01 6.09505177e-01 6.22325361e-01 6.35900080e-01 6.50893748e-01 6.67983830e-01 6.87913239e-01 7.11387634e-01 7.38872647e-01 7.70245016e-01 8.04321706e-01 8.38187575e-01 8.67899656e-01 8.91758263e-01 9.11471128e-01 9.32442904e-01 9.54459667e-01 9.65516269e-01 9.83752370e-01 9.46572602e-01 1.69937592e-02 2.07989737e-02 2.39663020e-01 4.51825559e-01 4.89146948e-01 5.02847373e-01 5.14676392e-01 5.27470589e-01 5.41444659e-01 5.55911183e-01 5.70120394e-01 5.83617330e-01 5.96319079e-01 6.08438373e-01 6.20365977e-01 6.32585108e-01 6.45655870e-01 6.60251796e-01 6.77137852e-01 6.97020710e-01 7.20312059e-01 7.46710837e-01 7.74011016e-01 7.97554553e-01 8.13986123e-01 8.23957622e-01 8.31633389e-01 8.25516045e-01 8.24335039e-01 8.31170559e-01 8.68895233e-01 1.36080962e-02 1.64471678e-02 3.09838712e-01 4.88931924e-01 5.00200093e-01 5.02441227e-01 5.08311749e-01 5.17587841e-01 5.29614151e-01 5.43233693e-01 5.57255685e-01 5.70787668e-01 5.83346605e-01 5.94811797e-01 6.05313480e-01 6.15133882e-01 6.24654114e-01 6.34334803e-01 6.44665658e-01 6.56036079e-01 6.68595016e-01 6.82080030e-01 6.94429994e-01 6.99075580e-01 6.87401235e-01 6.56660855e-01 6.01329088e-01 5.07449448e-01 4.11701441e-01 3.75292003e-01 5.85298479e-01 1.30721619e-02 1.44763226e-02 3.75162780e-01 5.14434576e-01 5.05603015e-01 4.98616606e-01 4.99955922e-01 5.06888628e-01 5.17721534e-01 5.30826688e-01 5.44693947e-01 5.58156371e-01 5.70478976e-01 5.81313729e-01 5.90593398e-01 5.98428905e-01 6.05040312e-01 6.10708058e-01 6.15690172e-01 6.20059431e-01 6.23541534e-01 6.25532746e-01 6.24189198e-01 6.12018287e-01 5.75470090e-01 5.08948147e-01 4.14182484e-01 2.79540271e-01 1.73708588e-01 1.71724752e-01 4.02614892e-01 1.30344313e-02 1.39413225e-02 4.29992884e-01 5.29029250e-01 5.05610049e-01 4.92043465e-01 4.90450144e-01 4.96155739e-01 5.06432533e-01 5.19229889e-01 5.32856762e-01 5.46030343e-01 5.57900071e-01 5.67988753e-01 5.76093435e-01 5.82189798e-01 5.86363435e-01 5.88755131e-01 5.89475214e-01 5.88427484e-01 5.85089922e-01 5.78553617e-01 5.67511499e-01 5.45972228e-01 4.96658146e-01 4.07220006e-01 2.84903973e-01 1.44456342e-01 7.20134974e-02 9.38943624e-02 3.17148864e-01 1.24657974e-02 1.34812323e-02 4.67058897e-01 5.34876585e-01 5.01186907e-01 4.83903885e-01 4.81258720e-01 4.86828476e-01 4.97007430e-01 5.09476900e-01 5.22545815e-01 5.34985602e-01 5.45963705e-01 5.54965019e-01 5.61703920e-01 5.66047430e-01 5.67958236e-01 5.67448139e-01 5.64504147e-01 5.58927238e-01 5.50067365e-01 5.36756337e-01 5.17907560e-01 4.91322100e-01 4.41792935e-01 3.43484730e-01 2.04211399e-01 7.29652047e-02 3.59567367e-02 6.42534867e-02 2.75117159e-01 1.22233648e-02 1.30927591e-02 4.83920485e-01 5.34591258e-01 4.93915141e-01 4.76173460e-01 4.74529058e-01 4.80837703e-01 4.90987539e-01 5.02708972e-01 5.14549732e-01 5.25511801e-01 5.34902096e-01 5.42242229e-01 5.47201395e-01 5.49548328e-01 5.49116611e-01 5.45772970e-01 5.39363861e-01 5.29588044e-01 5.15730143e-01 4.96391207e-01 4.70128030e-01 4.37345862e-01 3.95269394e-01 3.09166878e-01 1.69046849e-01 5.29134423e-02 3.33677307e-02 5.88140637e-02 2.71869481e-01 1.06733534e-02 1.36848995e-02 4.89251912e-01 5.29595613e-01 4.86269146e-01 4.71856833e-01 4.72959131e-01 4.80129927e-01 4.89549309e-01 4.99501407e-01 5.09039104e-01 5.17530322e-01 5.24488449e-01 5.29499292e-01 5.32187760e-01 5.32204747e-01 5.29222250e-01 5.22924900e-01 5.12982726e-01 4.98971820e-01 4.80166525e-01 4.55123663e-01 4.21685696e-01 3.79829615e-01 3.35193455e-01 2.79398203e-01 1.58193722e-01 6.17448427e-02 4.22360860e-02 5.92504181e-02 2.84843832e-01 5.67842089e-03 1.10013559e-02 4.88522679e-01 5.20955026e-01 4.82827812e-01 4.75328028e-01 4.79059100e-01 4.85493600e-01 4.92359936e-01 4.98968780e-01 5.04980087e-01 5.10098577e-01 5.13985455e-01 5.16232193e-01 5.16359568e-01 5.13829529e-01 5.08066356e-01 4.98481572e-01 4.84499127e-01 4.65568066e-01 4.41107601e-01 4.10198182e-01 3.70859653e-01 3.20728600e-01 2.62601793e-01 2.08825901e-01 1.46715969e-01 7.21692890e-02 5.01706637e-02 5.74026257e-02 2.68107146e-01 5.96548710e-03 5.80665749e-03 5.62606514e-01 5.27793944e-01 4.97535706e-01 4.93097007e-01 4.94186103e-01 4.95893389e-01 4.97793496e-01 4.99838054e-01 5.01873732e-01 5.03622413e-01 5.04670322e-01 5.04449606e-01 5.02225459e-01 4.97094840e-01 4.88002032e-01 4.73778397e-01 4.53222841e-01 4.25248176e-01 3.89111459e-01 3.44663233e-01 2.92242408e-01 2.31629580e-01 1.63748831e-01 1.02275491e-01 7.55351856e-02 7.18711391e-02 6.63549379e-02 3.63759361e-02 1.87215462e-01 3.70860696e-02 9.34883673e-03 8.03417563e-01 6.30413830e-01 6.19529128e-01 6.09055996e-01 6.03061795e-01 5.99818230e-01 5.98239124e-01 5.97624600e-01 5.97551703e-01 5.97705603e-01 5.97768486e-01 5.97353101e-01 5.95962286e-01 5.92961609e-01 5.87558866e-01 5.78785360e-01 5.65477073e-01 5.46257913e-01 5.19539595e-01 4.83554721e-01 4.36341166e-01 3.74692023e-01 2.91090876e-01 1.86486959e-01 1.12051800e-01 1.18065283e-01 2.74531633e-01 8.18801299e-02 7.93939084e-02 
