# vtk DataFile Version 2.0
results_case1_non_linear/iter4.vtk, Created by Freefem++ 
ASCII
DATASET UNSTRUCTURED_GRID
POINTS 961 float
0 0 0
0.033333333 0 0
0.066666667 0 0
0.1 0 0
0.13333333 0 0
0.16666667 0 0
0.2 0 0
0.23333333 0 0
0.26666667 0 0
0.3 0 0
0.33333333 0 0
0.36666667 0 0
0.4 0 0
0.43333333 0 0
0.46666667 0 0
0.5 0 0
0.53333333 0 0
0.56666667 0 0
0.6 0 0
0.63333333 0 0
0.66666667 0 0
0.7 0 0
0.73333333 0 0
0.76666667 0 0
0.8 0 0
0.83333333 0 0
0.86666667 0 0
0.9 0 0
0.93333333 0 0
0.96666667 0 0
1 0 0
0 0.033333333 0
0.033333333 0.033333333 0
0.066666667 0.033333333 0
0.1 0.033333333 0
0.13333333 0.033333333 0
0.16666667 0.033333333 0
0.2 0.033333333 0
0.23333333 0.033333333 0
0.26666667 0.033333333 0
0.3 0.033333333 0
0.33333333 0.033333333 0
0.36666667 0.033333333 0
0.4 0.033333333 0
0.43333333 0.033333333 0
0.46666667 0.033333333 0
0.5 0.033333333 0
0.53333333 0.033333333 0
0.56666667 0.033333333 0
0.6 0.033333333 0
0.63333333 0.033333333 0
0.66666667 0.033333333 0
0.7 0.033333333 0
0.73333333 0.033333333 0
0.76666667 0.033333333 0
0.8 0.033333333 0
0.83333333 0.033333333 0
0.86666667 0.033333333 0
0.9 0.033333333 0
0.93333333 0.033333333 0
0.96666667 0.033333333 0
1 0.033333333 0
0 0.066666667 0
0.033333333 0.066666667 0
0.066666667 0.066666667 0
0.1 0.066666667 0
0.13333333 0.066666667 0
0.16666667 0.066666667 0
0.2 0.066666667 0
0.23333333 0.066666667 0
0.26666667 0.066666667 0
0.3 0.066666667 0
0.33333333 0.066666667 0
0.36666667 0.066666667 0
0.4 0.066666667 0
0.43333333 0.066666667 0
0.46666667 0.066666667 0
0.5 0.066666667 0
0.53333333 0.066666667 0
0.56666667 0.066666667 0
0.6 0.066666667 0
0.63333333 0.066666667 0
0.66666667 0.066666667 0
0.7 0.066666667 0
0.73333333 0.066666667 0
0.76666667 0.066666667 0
0.8 0.066666667 0
0.83333333 0.066666667 0
0.86666667 0.066666667 0
0.9 0.066666667 0
0.93333333 0.066666667 0
0.96666667 0.066666667 0
1 0.066666667 0
0 0.1 0
0.033333333 0.1 0
0.066666667 0.1 0
0.1 0.1 0
0.13333333 0.1 0
0.16666667 0.1 0
0.2 0.1 0
0.23333333 0.1 0
0.26666667 0.1 0
0.3 0.1 0
0.33333333 0.1 0
0.36666667 0.1 0
0.4 0.1 0
0.43333333 0.1 0
0.46666667 0.1 0
0.5 0.1 0
0.53333333 0.1 0
0.56666667 0.1 0
0.6 0.1 0
0.63333333 0.1 0
0.66666667 0.1 0
0.7 0.1 0
0.73333333 0.1 0
0.76666667 0.1 0
0.8 0.1 0
0.83333333 0.1 0
0.86666667 0.1 0
0.9 0.1 0
0.93333333 0.1 0
0.96666667 0.1 0
1 0.1 0
0 0.13333333 0
0.033333333 0.13333333 0
0.066666667 0.13333333 0
0.1 0.13333333 0
0.13333333 0.13333333 0
0.16666667 0.13333333 0
0.2 0.13333333 0
0.23333333 0.13333333 0
0.26666667 0.13333333 0
0.3 0.13333333 0
0.33333333 0.13333333 0
0.36666667 0.13333333 0
0.4 0.13333333 0
0.43333333 0.13333333 0
0.46666667 0.13333333 0
0.5 0.13333333 0
0.53333333 0.13333333 0
0.56666667 0.13333333 0
0.6 0.13333333 0
0.63333333 0.13333333 0
0.66666667 0.13333333 0
0.7 0.13333333 0
0.73333333 0.13333333 0
0.76666667 0.13333333 0
0.8 0.13333333 0
0.83333333 0.13333333 0
0.86666667 0.13333333 0
0.9 0.13333333 0
0.93333333 0.13333333 0
0.96666667 0.13333333 0
1 0.13333333 0
0 0.16666667 0
0.033333333 0.16666667 0
0.066666667 0.16666667 0
0.1 0.16666667 0
0.13333333 0.16666667 0
0.16666667 0.16666667 0
0.2 0.16666667 0
0.23333333 0.16666667 0
0.26666667 0.16666667 0
0.3 0.16666667 0
0.33333333 0.16666667 0
0.36666667 0.16666667 0
0.4 0.16666667 0
0.43333333 0.16666667 0
0.46666667 0.16666667 0
0.5 0.16666667 0
0.53333333 0.16666667 0
0.56666667 0.16666667 0
0.6 0.16666667 0
0.63333333 0.16666667 0
0.66666667 0.16666667 0
0.7 0.16666667 0
0.73333333 0.16666667 0
0.76666667 0.16666667 0
0.8 0.16666667 0
0.83333333 0.16666667 0
0.86666667 0.16666667 0
0.9 0.16666667 0
0.93333333 0.16666667 0
0.96666667 0.16666667 0
1 0.16666667 0
0 0.2 0
0.033333333 0.2 0
0.066666667 0.2 0
0.1 0.2 0
0.13333333 0.2 0
0.16666667 0.2 0
0.2 0.2 0
0.23333333 0.2 0
0.26666667 0.2 0
0.3 0.2 0
0.33333333 0.2 0
0.36666667 0.2 0
0.4 0.2 0
0.43333333 0.2 0
0.46666667 0.2 0
0.5 0.2 0
0.53333333 0.2 0
0.56666667 0.2 0
0.6 0.2 0
0.63333333 0.2 0
0.66666667 0.2 0
0.7 0.2 0
0.73333333 0.2 0
0.76666667 0.2 0
0.8 0.2 0
0.83333333 0.2 0
0.86666667 0.2 0
0.9 0.2 0
0.93333333 0.2 0
0.96666667 0.2 0
1 0.2 0
0 0.23333333 0
0.033333333 0.23333333 0
0.066666667 0.23333333 0
0.1 0.23333333 0
0.13333333 0.23333333 0
0.16666667 0.23333333 0
0.2 0.23333333 0
0.23333333 0.23333333 0
0.26666667 0.23333333 0
0.3 0.23333333 0
0.33333333 0.23333333 0
0.36666667 0.23333333 0
0.4 0.23333333 0
0.43333333 0.23333333 0
0.46666667 0.23333333 0
0.5 0.23333333 0
0.53333333 0.23333333 0
0.56666667 0.23333333 0
0.6 0.23333333 0
0.63333333 0.23333333 0
0.66666667 0.23333333 0
0.7 0.23333333 0
0.73333333 0.23333333 0
0.76666667 0.23333333 0
0.8 0.23333333 0
0.83333333 0.23333333 0
0.86666667 0.23333333 0
0.9 0.23333333 0
0.93333333 0.23333333 0
0.96666667 0.23333333 0
1 0.23333333 0
0 0.26666667 0
0.033333333 0.26666667 0
0.066666667 0.26666667 0
0.1 0.26666667 0
0.13333333 0.26666667 0
0.16666667 0.26666667 0
0.2 0.26666667 0
0.23333333 0.26666667 0
0.26666667 0.26666667 0
0.3 0.26666667 0
0.33333333 0.26666667 0
0.36666667 0.26666667 0
0.4 0.26666667 0
0.43333333 0.26666667 0
0.46666667 0.26666667 0
0.5 0.26666667 0
0.53333333 0.26666667 0
0.56666667 0.26666667 0
0.6 0.26666667 0
0.63333333 0.26666667 0
0.66666667 0.26666667 0
0.7 0.26666667 0
0.73333333 0.26666667 0
0.76666667 0.26666667 0
0.8 0.26666667 0
0.83333333 0.26666667 0
0.86666667 0.26666667 0
0.9 0.26666667 0
0.93333333 0.26666667 0
0.96666667 0.26666667 0
1 0.26666667 0
0 0.3 0
0.033333333 0.3 0
0.066666667 0.3 0
0.1 0.3 0
0.13333333 0.3 0
0.16666667 0.3 0
0.2 0.3 0
0.23333333 0.3 0
0.26666667 0.3 0
0.3 0.3 0
0.33333333 0.3 0
0.36666667 0.3 0
0.4 0.3 0
0.43333333 0.3 0
0.46666667 0.3 0
0.5 0.3 0
0.53333333 0.3 0
0.56666667 0.3 0
0.6 0.3 0
0.63333333 0.3 0
0.66666667 0.3 0
0.7 0.3 0
0.73333333 0.3 0
0.76666667 0.3 0
0.8 0.3 0
0.83333333 0.3 0
0.86666667 0.3 0
0.9 0.3 0
0.93333333 0.3 0
0.96666667 0.3 0
1 0.3 0
0 0.33333333 0
0.033333333 0.33333333 0
0.066666667 0.33333333 0
0.1 0.33333333 0
0.13333333 0.33333333 0
0.16666667 0.33333333 0
0.2 0.33333333 0
0.23333333 0.33333333 0
0.26666667 0.33333333 0
0.3 0.33333333 0
0.33333333 0.33333333 0
0.36666667 0.33333333 0
0.4 0.33333333 0
0.43333333 0.33333333 0
0.46666667 0.33333333 0
0.5 0.33333333 0
0.53333333 0.33333333 0
0.56666667 0.33333333 0
0.6 0.33333333 0
0.63333333 0.33333333 0
0.66666667 0.33333333 0
0.7 0.33333333 0
0.73333333 0.33333333 0
0.76666667 0.33333333 0
0.8 0.33333333 0
0.83333333 0.33333333 0
0.86666667 0.33333333 0
0.9 0.33333333 0
0.93333333 0.33333333 0
0.96666667 0.33333333 0
1 0.33333333 0
0 0.36666667 0
0.033333333 0.36666667 0
0.066666667 0.36666667 0
0.1 0.36666667 0
0.13333333 0.36666667 0
0.16666667 0.36666667 0
0.2 0.36666667 0
0.23333333 0.36666667 0
0.26666667 0.36666667 0
0.3 0.36666667 0
0.33333333 0.36666667 0
0.36666667 0.36666667 0
0.4 0.36666667 0
0.43333333 0.36666667 0
0.46666667 0.36666667 0
0.5 0.36666667 0
0.53333333 0.36666667 0
0.56666667 0.36666667 0
0.6 0.36666667 0
0.63333333 0.36666667 0
0.66666667 0.36666667 0
0.7 0.36666667 0
0.73333333 0.36666667 0
0.76666667 0.36666667 0
0.8 0.36666667 0
0.83333333 0.36666667 0
0.86666667 0.36666667 0
0.9 0.36666667 0
0.93333333 0.36666667 0
0.96666667 0.36666667 0
1 0.36666667 0
0 0.4 0
0.033333333 0.4 0
0.066666667 0.4 0
0.1 0.4 0
0.13333333 0.4 0
0.16666667 0.4 0
0.2 0.4 0
0.23333333 0.4 0
0.26666667 0.4 0
0.3 0.4 0
0.33333333 0.4 0
0.36666667 0.4 0
0.4 0.4 0
0.43333333 0.4 0
0.46666667 0.4 0
0.5 0.4 0
0.53333333 0.4 0
0.56666667 0.4 0
0.6 0.4 0
0.63333333 0.4 0
0.66666667 0.4 0
0.7 0.4 0
0.73333333 0.4 0
0.76666667 0.4 0
0.8 0.4 0
0.83333333 0.4 0
0.86666667 0.4 0
0.9 0.4 0
0.93333333 0.4 0
0.96666667 0.4 0
1 0.4 0
0 0.43333333 0
0.033333333 0.43333333 0
0.066666667 0.43333333 0
0.1 0.43333333 0
0.13333333 0.43333333 0
0.16666667 0.43333333 0
0.2 0.43333333 0
0.23333333 0.43333333 0
0.26666667 0.43333333 0
0.3 0.43333333 0
0.33333333 0.43333333 0
0.36666667 0.43333333 0
0.4 0.43333333 0
0.43333333 0.43333333 0
0.46666667 0.43333333 0
0.5 0.43333333 0
0.53333333 0.43333333 0
0.56666667 0.43333333 0
0.6 0.43333333 0
0.63333333 0.43333333 0
0.66666667 0.43333333 0
0.7 0.43333333 0
0.73333333 0.43333333 0
0.76666667 0.43333333 0
0.8 0.43333333 0
0.83333333 0.43333333 0
0.86666667 0.43333333 0
0.9 0.43333333 0
0.93333333 0.43333333 0
0.96666667 0.43333333 0
1 0.43333333 0
0 0.46666667 0
0.033333333 0.46666667 0
0.066666667 0.46666667 0
0.1 0.46666667 0
0.13333333 0.46666667 0
0.16666667 0.46666667 0
0.2 0.46666667 0
0.23333333 0.46666667 0
0.26666667 0.46666667 0
0.3 0.46666667 0
0.33333333 0.46666667 0
0.36666667 0.46666667 0
0.4 0.46666667 0
0.43333333 0.46666667 0
0.46666667 0.46666667 0
0.5 0.46666667 0
0.53333333 0.46666667 0
0.56666667 0.46666667 0
0.6 0.46666667 0
0.63333333 0.46666667 0
0.66666667 0.46666667 0
0.7 0.46666667 0
0.73333333 0.46666667 0
0.76666667 0.46666667 0
0.8 0.46666667 0
0.83333333 0.46666667 0
0.86666667 0.46666667 0
0.9 0.46666667 0
0.93333333 0.46666667 0
0.96666667 0.46666667 0
1 0.46666667 0
0 0.5 0
0.033333333 0.5 0
0.066666667 0.5 0
0.1 0.5 0
0.13333333 0.5 0
0.16666667 0.5 0
0.2 0.5 0
0.23333333 0.5 0
0.26666667 0.5 0
0.3 0.5 0
0.33333333 0.5 0
0.36666667 0.5 0
0.4 0.5 0
0.43333333 0.5 0
0.46666667 0.5 0
0.5 0.5 0
0.53333333 0.5 0
0.56666667 0.5 0
0.6 0.5 0
0.63333333 0.5 0
0.66666667 0.5 0
0.7 0.5 0
0.73333333 0.5 0
0.76666667 0.5 0
0.8 0.5 0
0.83333333 0.5 0
0.86666667 0.5 0
0.9 0.5 0
0.93333333 0.5 0
0.96666667 0.5 0
1 0.5 0
0 0.53333333 0
0.033333333 0.53333333 0
0.066666667 0.53333333 0
0.1 0.53333333 0
0.13333333 0.53333333 0
0.16666667 0.53333333 0
0.2 0.53333333 0
0.23333333 0.53333333 0
0.26666667 0.53333333 0
0.3 0.53333333 0
0.33333333 0.53333333 0
0.36666667 0.53333333 0
0.4 0.53333333 0
0.43333333 0.53333333 0
0.46666667 0.53333333 0
0.5 0.53333333 0
0.53333333 0.53333333 0
0.56666667 0.53333333 0
0.6 0.53333333 0
0.63333333 0.53333333 0
0.66666667 0.53333333 0
0.7 0.53333333 0
0.73333333 0.53333333 0
0.76666667 0.53333333 0
[...]
CELL_DATA 1920
Scalars  Label int 1
LOOKUP_TABLE FreeFempp_table
0
0
0
0
0
0
0
0
0
0
0
0
0
0
0
0
0
0
0
0
0
0
0
0
0
0
0
0
0
0
0
0
0
0
0
0
0
0
0
0
0
0
0
0
0
0
0
0
0
0
0
0
0
0
0
0
0
0
0
0
0
0
0
0
0
0
0
0
0
0
0
0
0
0
0
0
0
0
0
0
0
0
0
0
0
0
0
0
0
0
0
0
0
0
0
0
0
0
0
0
0
0
0
0
0
0
0
0
0
0
0
0
0
0
0
0
0
0
0
0
0
0
0
0
0
0
0
0
0
0
0
0
0
0
0
0
0
0
0
0
0
0
0
0
0
0
0
0
0
0
0
0
0
0
0
0
0
0
0
0
0
0
0
0
0
0
0
0
0
0
0
0
0
0
0
0
0
0
0
0
0
0
0
0
0
0
0
0
0
0
0
0
0
0
0
0
0
0
0
0
0
0
0
0
0
0
0
0
0
0
0
0
0
0
0
0
0
0
0
0
0
0
0
0
0
0
0
0
0
0
0
0
0
0
0
0
0
0
0
0
0
0
0
0
0
0
0
0
0
0
0
0
0
0
0
0
0
0
0
0
0
0
0
0
0
0
0
0
0
0
0
0
0
0
0
0
0
0
0
0
0
0
0
0
0
0
0
0
0
0
0
0
0
0
0
0
0
0
0
0
0
0
0
0
0
0
0
0
0
0
0
0
0
0
0
0
0
0
0
0
0
0
0
0
0
0
0
0
0
0
0
0
0
0
0
0
0
0
0
0
0
0
0
0
0
0
0
0
0
0
0
0
0
0
0
0
0
0
0
0
0
0
0
0
0
0
0
0
0
0
0
0
0
0
0
0
0
0
0
0
0
0
0
0
0
0
0
0
0
0
0
0
0
0
0
0
0
0
0
0
0
0
0
0
0
0
0
0
0
0
0
0
0
0
0
0
0
0
0
0
0
0
0
0
0
0
0
0
0
0
0
0
0
0
0
0
0
0
0
0
0
0
0
0
0
0
0
0
0
0
0
0
0
0
0
0
0
0
0
0
0
0
0
0
0
0
0
0
0
0
0
0
0
0
0
0
0
0
0
0
0
0
0
0
0
0
0
0
0
0
0
0
0
0
0
0
0
0
0
0
0
0
0
0
0
0
0
0
0
0
0
0
0
0
0
0
0
0
0
0
0
0
0
0
0
0
0
0
0
0
0
0
0
0
0
0
0
0
0
0
0
0
0
0
0
0
0
0
0
0
0
0
0
0
0
0
0
0
0
0
0
0
0
0
0
0
0
0
0
0
0
0
0
0
0
0
0
0
0
0
0
0
0
0
0
0
0
0
0
0
0
0
0
0
0
0
0
0
0
0
0
0
0
0
0
0
0
0
0
0
0
0
0
0
0
0
0
0
0
0
0
0
0
0
0
0
0
0
0
0
0
0
0
0
0
0
0
0
0
0
0
0
0
0
0
0
0
0
0
0
0
0
0
0
0
0
0
0
0
0
0
0
0
0
0
0
0
0
0
0
0
0
0
0
0
0
0
0
0
0
0
0
0
0
0
0
0
0
0
0
0
0
0
0
0
0
0
0
0
0
0
0
0
0
0
0
0
0
0
0
0
0
0
0
0
0
0
0
0
0
0
0
0
0
0
0
0
0
0
0
0
0
0
0
0
0
0
0
0
0
0
0
0
0
0
0
0
0
0
0
0
0
0
0
0
0
0
0
0
0
0
0
0
0
0
0
0
0
0
0
0
0
0
0
0
0
0
0
0
0
0
0
0
0
0
0
0
0
0
0
0
0
0
0
0
0
0
0
0
0
0
0
0
0
0
0
0
0
0
0
0
0
0
0
0
0
0
0
0
0
0
0
0
0
0
0
0
0
0
0
0
0
0
0
0
0
0
0
0
0
0
0
0
0
0
0
0
0
0
0
0
0
0
0
0
0
0
0
0
0
0
0
0
0
0
0
0
0
0
0
0
0
0
0
0
0
0
0
0
0
0
0
0
0
0
0
0
0
0
0
0
0
0
0
0
0
0
0
0
0
0
0
0
0
0
0
0
0
0
0
0
0
0
0
0
0
0
0
0
0
0
0
0
0
0
0
0
0
0
0
0
0
0
0
0
0
0
0
0
0
0
0
0
0
0
0
0
0
0
0
0
0
0
0
0
0
0
0
0
0
0
0
0
0
0
0
0
0
0
0
0
0
0
0
0
0
0
0
0
0
0
0
0
0
0
0
0
0
0
0
0
0
0
0
0
0
0
0
0
0
0
0
0
0
0
0
0
0
0
0
0
0
0
0
0
0
0
0
0
0
0
0
0
0
0
0
0
0
0
0
0
0
0
0
0
0
0
0
0
0
0
0
0
0
0
0
0
0
0
0
0
0
0
0
0
0
0
0
0
0
0
0
0
0
0
0
0
0
0
0
0
0
0
0
0
0
0
0
0
0
0
0
0
0
0
0
0
0
0
0
0
0
0
0
0
0
0
0
0
0
0
0
0
0
0
0
0
0
0
0
0
0
0
0
0
0
0
0
0
0
0
0
0
0
0
0
0
0
0
0
0
0
0
0
0
0
0
0
0
0
0
0
0
0
0
0
0
0
0
0
0
0
0
0
0
0
0
0
0
0
0
0
0
0
0
0
0
0
0
0
0
0
0
0
0
0
0
0
0
0
0
0
0
0
0
0
0
0
0
0
0
0
0
0
0
0
0
0
0
0
0
0
0
0
0
0
0
0
0
0
0
0
0
0
0
0
0
0
0
0
0
0
0
0
0
0
0
0
0
0
0
0
0
0
0
0
0
0
0
0
0
0
0
0
0
0
0
0
0
0
0
0
0
0
0
0
0
0
0
0
0
0
0
0
0
0
0
0
0
0
0
0
0
0
0
0
0
0
0
0
0
0
0
0
0
0
0
0
0
0
0
0
0
0
0
0
0
0
0
0
0
0
0
0
0
0
0
0
0
0
0
0
0
0
0
0
0
0
0
0
0
0
0
0
0
0
0
0
0
0
0
0
0
0
0
0
0
0
0
0
0
0
0
0
0
0
0
0
0
0
0
0
0
0
0
0
0
0
0
0
0
0
0
0
0
0
0
0
0
0
0
0
0
0
0
0
0
0
0
0
0
0
0
0
0
0
0
0
0
0
0
0
0
0
0
0
0
0
0
0
0
0
0
0
0
0
0
0
0
0
0
0
0
0
0
0
0
0
0
0
0
0
0
0
0
0
0
0
0
0
0
0
0
0
0
0
0
0
0
0
0
0
0
0
0
0
0
0
0
0
0
0
0
0
0
0
0
0
0
0
0
0
0
0
0
0
0
0
0
0
0
0
0
0
0
0
0
0
0
0
0
0
0
0
0
0
0
0
0
0
0
0
0
0
0
0
0
0
0
0
0
0
0
0
0
0
0
0
0
0
0
0
0
0
0
0
0
0
0
0
0
0
0
0
0
0
0
0
0
0
0
0
0
0
0
0
0
0
0
0
0
0
0
0
0
0
0
0
0
0
0
0
0
0
0
0
0
0
0
0
0
0
0
0
0
0
0
0
0
0
0
0
0
0
0
0
0
0
0
0
0
0
0
0
0
0
0
0
0
0
0
0
0
0
0
0
0
0
0
0
0
0
0
0
0
0
0
0
0
0
0
0
0
0
0
0
0
0
0
0
0
0
0
0
0
0
0
0
0
0
0
0
0
0
0
0
0
0
0
0
0
0
0
0
0
0
0
0
0
0
0
0
0
0
0
0
0
0
0
0
0
0
0
0
0
0
0
0
0
0
0
0
0
0
0
0
0
0
0
0
0
0
0
0
0
0
0
0
0
0
0
0
0
0
0
0
0
0
0
0
0
0
0
0
0
0
0
0
0
0
0
0
0
0
0
0
0
0
0
0
0
0
0
0
0
0
0
0
0
0
0
0
0
0
0
0
0
0
0
0
0
0
0
0
0
0
0
0
0
0
0
0
0
0
0
0
0
0
0
0
0
0
0
0
0
0
0
0
0
0
0
0
0
0
0
0
0
0
0
0
0
0
0
0
0
0
0
0
0
0
0
0
0
0
0
0
0
0
0
0
1
1
1
1
1
1
1
1
1
1
1
1
1
1
1
1
1
1
1
1
1
1
1
1
1
1
1
1
1
1
2
2
2
2
2
2
2
2
2
2
2
2
2
2
2
2
2
2
2
2
2
2
2
2
2
2
2
2
2
2
3
3
3
3
3
3
3
3
3
3
3
3
3
3
3
3
3
3
3
3
3
3
3
3
3
3
3
3
3
3
4
4
4
4
4
4
4
4
4
4
4
4
4
4
4
4
4
4
4
4
4
4
4
4
4
4
4
4
4
4

LOOKUP_TABLE FreeFempp_table 5
1.00000000 0.00000000 0.00000000 1.00000000
1.00000000 1.00000000 0.00000000 1.00000000
1.00000000 0.00000000 1.00000000 1.00000000
0.00000000 1.00000000 0.00000000 1.00000000
0.00000000 1.00000000 1.00000000 1.00000000

POINT_DATA 961
FIELD FieldData 1
Density 1 961 float
2.73496062e-01 2.41216063e-01 2.39133492e-01 2.41147652e-01 2.42362782e-01 2.34421134e-01 2.10641354e-01 1.98662698e-01 1.75477594e-01 1.22957110e-01 1.06123179e-01 1.26777232e-01 2.23790735e-01 3.48528266e-01 3.94470245e-01 3.97046894e-01 3.70231152e-01 3.28848302e-01 2.91556656e-01 2.63059467e-01 2.21657291e-01 1.63828030e-01 1.19062729e-01 1.13431916e-01 1.62030548e-01 4.07926857e-01 8.67937982e-01 8.64886522e-01 1.98359713e-02 2.00070255e-02 1.85708657e-01 9.47667286e-02 1.03087321e-01 1.22928716e-01 1.31717533e-01 1.33353293e-01 9.72834080e-02 5.88521548e-02 4.08847108e-02 3.66156176e-02 3.91969644e-02 4.48332094e-02 5.18944599e-02 5.59186675e-02 4.99688908e-02 4.42759022e-02 3.96600962e-02 3.96290272e-02 4.75378484e-02 6.06184192e-02 7.03049600e-02 7.29369298e-02 7.26896971e-02 7.24374652e-02 7.36241266e-02 9.36184004e-02 1.59281984e-01 8.56772184e-01 8.91962230e-01 2.87590250e-02 8.76319967e-03 3.78441624e-02 2.11453214e-02 1.68754663e-02 1.79104209e-02 1.73156299e-02 1.60210654e-02 1.52535122e-02 1.49685666e-02 1.39313936e-02 1.26559418e-02 1.23535646e-02 1.33684427e-02 1.58635955e-02 1.65976007e-02 1.88255012e-02 2.05388945e-02 1.72144100e-02 1.52451470e-02 1.47731462e-02 1.62365567e-02 2.01370083e-02 2.62660887e-02 3.39245722e-02 4.29451019e-02 5.29175140e-02 7.43871853e-02 1.29983395e-01 8.24663162e-01 9.15452421e-01 7.90413916e-02 1.10280551e-02 1.82177220e-02 1.30114928e-02 9.16690193e-03 9.78499651e-03 9.24845971e-03 8.35181773e-03 7.97573291e-03 8.79055727e-03 1.00276517e-02 1.06273312e-02 1.04503138e-02 1.00194430e-02 8.74344353e-03 7.54375616e-03 9.35809780e-03 1.33609623e-02 1.54983746e-02 1.58756785e-02 1.50146056e-02 1.40513983e-02 1.40683614e-02 1.56058241e-02 1.94368102e-02 2.58117057e-02 3.38049643e-02 5.07488288e-02 1.12185165e-01 7.81286776e-01 9.07208502e-01 5.24082601e-01 1.18817464e-02 1.41788749e-02 1.99009962e-02 1.10172303e-02 1.23150032e-02 1.19077563e-02 1.14515703e-02 1.13078449e-02 1.23745920e-02 1.45201972e-02 1.74838491e-02 2.05668416e-02 2.13978663e-02 1.82663668e-02 1.26930922e-02 1.09763807e-02 1.38945961e-02 1.95894055e-02 2.97768582e-02 4.22499254e-02 4.52935025e-02 3.96845900e-02 3.39862183e-02 3.18004861e-02 3.06690019e-02 2.79263314e-02 3.39738838e-02 7.90375695e-02 7.42799878e-01 9.00108337e-01 7.01633573e-01 1.19874189e-02 1.29003422e-02 4.32260558e-02 2.29699798e-02 2.77478211e-02 3.05008888e-02 3.44116427e-02 4.05040272e-02 5.14761358e-02 6.57055378e-02 8.87958184e-02 1.20860308e-01 1.47185698e-01 1.93506598e-01 2.85316139e-01 3.51813614e-01 3.69198829e-01 3.57052565e-01 3.50525916e-01 3.43494803e-01 3.17845404e-01 2.83925414e-01 2.44086996e-01 1.68308064e-01 1.07070446e-01 4.95640747e-02 3.00460681e-02 4.53693718e-02 4.20805335e-01 8.75258863e-01 7.47095644e-01 1.08652255e-02 1.17249256e-02 9.61265266e-02 5.13419919e-02 5.59971184e-02 6.25146478e-02 7.87839815e-02 1.07427664e-01 1.37441769e-01 1.66724846e-01 2.07085729e-01 2.54624069e-01 3.00546110e-01 3.69895995e-01 4.28209037e-01 4.44093466e-01 4.45186079e-01 4.40377682e-01 4.35021877e-01 4.32945490e-01 4.35882121e-01 4.33007240e-01 4.18204635e-01 3.89261484e-01 2.91644186e-01 1.67151406e-01 5.55126071e-02 4.01138142e-02 1.02086261e-01 8.37381244e-01 7.75927305e-01 1.00782504e-02 1.07003674e-02 1.86898768e-01 8.66180956e-02 8.09107348e-02 9.43317562e-02 1.29392222e-01 1.82642668e-01 2.37626582e-01 3.03722888e-01 3.81297827e-01 4.48174983e-01 4.98969913e-01 5.39063275e-01 5.51073432e-01 5.36818445e-01 5.14783800e-01 4.92460579e-01 4.71149206e-01 4.53734249e-01 4.43970203e-01 4.38804269e-01 4.29371893e-01 4.03278559e-01 3.21665019e-01 2.51117289e-01 1.34502292e-01 6.98388517e-02 9.22093689e-02 7.74072170e-01 8.03805113e-01 1.00174574e-02 1.01806894e-02 3.15240532e-01 1.17383555e-01 1.06234781e-01 1.44757941e-01 2.46060520e-01 3.81472260e-01 4.94212717e-01 5.77250779e-01 6.27528846e-01 6.50945485e-01 6.58417523e-01 6.54879034e-01 6.38311803e-01 6.11867607e-01 5.81712902e-01 5.51498950e-01 5.23220181e-01 4.98184264e-01 4.77908105e-01 4.61182326e-01 4.42345828e-01 4.08514589e-01 3.43257487e-01 3.13058853e-01 2.37687469e-01 1.48678780e-01 1.10135444e-01 7.29790628e-01 8.14250767e-01 1.09319286e-02 1.05317440e-02 6.93633020e-01 4.14533526e-01 3.71194273e-01 5.14589071e-01 6.51628137e-01 7.22349346e-01 7.56691754e-01 7.70241320e-01 7.70183563e-01 7.61329114e-01 7.46755183e-01 7.27235377e-01 7.02498019e-01 6.73818052e-01 6.43118799e-01 6.12241268e-01 5.83197355e-01 5.57565510e-01 5.35688102e-01 5.15829027e-01 4.93876606e-01 4.62685913e-01 4.26171809e-01 4.36922520e-01 4.05869633e-01 2.20565200e-01 1.45627126e-01 7.45431542e-01 8.15992892e-01 1.27462428e-02 1.17978491e-02 8.81892860e-01 8.99997234e-01 8.90923560e-01 8.83887470e-01 8.74564886e-01 8.64376843e-01 8.54052365e-01 8.41736853e-01 8.27159047e-01 8.10611069e-01 7.92151690e-01 7.71329463e-01 7.47714877e-01 7.21465349e-01 6.93296194e-01 6.64673924e-01 6.37621939e-01 6.13853276e-01 5.93711853e-01 5.75637102e-01 5.57077229e-01 5.36756456e-01 5.30337393e-01 5.52360535e-01 5.41565955e-01 3.26232046e-01 3.15265536e-01 8.30165625e-01 8.08811009e-01 1.52078075e-02 1.37876458e-02 8.73753726e-01 9.38660860e-01 9.27845001e-01 9.21016514e-01 9.07647610e-01 8.90248418e-01 8.73338103e-01 8.57387364e-01 8.42107534e-01 8.26785386e-01 8.10840845e-01 7.93612361e-01 7.74470091e-01 7.53036916e-01 7.29436934e-01 7.04578578e-01 6.80068791e-01 6.57502770e-01 6.37561977e-01 6.19493246e-01 6.02041781e-01 5.86511135e-01 5.82926095e-01 5.75962603e-01 5.47842145e-01 4.81528431e-01 6.95130527e-01 9.03204858e-01 7.70115077e-01 1.78080834e-02 1.61626227e-02 6.13717377e-01 7.43355393e-01 7.16880202e-01 7.64300346e-01 8.09595048e-01 8.28754783e-01 8.32564056e-01 8.29497755e-01 8.23022544e-01 8.14533532e-01 8.04915547e-01 7.94243336e-01 7.82060683e-01 7.67858505e-01 7.51300514e-01 7.32512474e-01 7.11997688e-01 6.90591931e-01 6.69008851e-01 6.47397459e-01 6.25625610e-01 6.04714632e-01 5.85198462e-01 5.52698553e-01 5.49001217e-01 6.47223711e-01 8.23309362e-01 9.19017434e-01 3.31096619e-01 2.03516912e-02 1.83743276e-02 3.14477205e-01 1.78352892e-01 1.81660309e-01 2.26439700e-01 3.35431308e-01 5.39402843e-01 6.86681867e-01 7.42632508e-01 7.60793090e-01 7.66066015e-01 7.67612219e-01 7.67930150e-01 7.66858757e-01 7.63646841e-01 7.57510960e-01 7.47975588e-01 7.34733045e-01 7.17566252e-01 6.96530044e-01 6.71812713e-01 6.44029260e-01 6.14365458e-01 5.82160354e-01 5.52174032e-01 6.03107870e-01 7.65077651e-01 8.72099161e-01 8.88207912e-01 1.19024009e-01 2.51806937e-02 2.13974304e-02 2.15143666e-01 1.04349993e-01 9.75236967e-02 1.19419493e-01 1.82598338e-01 3.32809687e-01 5.30195653e-01 6.29076123e-01 6.63029552e-01 6.78724051e-01 6.92585945e-01 7.07757473e-01 7.22756028e-01 7.35433102e-01 7.43941426e-01 7.47475743e-01 7.45347798e-01 7.37152636e-01 7.22260535e-01 7.00306654e-01 6.71583951e-01 6.38235450e-01 6.06676638e-01 6.02646828e-01 6.99698329e-01 8.34092379e-01 8.98093581e-01 7.99209774e-01 7.29952306e-02 3.64847183e-02 3.27305980e-02 1.43634453e-01 8.14335942e-02 7.47696757e-02 9.85343009e-02 1.72356144e-01 3.54335397e-01 5.22884548e-01 5.69706321e-01 5.74238360e-01 5.80094874e-01 5.96588433e-01 6.21905506e-01 6.51505351e-01 6.80949450e-01 7.06663907e-01 7.26447642e-01 7.38957465e-01 7.43785322e-01 7.40526557e-01 7.28907287e-01 7.09239304e-01 6.85033023e-01 6.68385506e-01 6.87103689e-01 7.75224447e-01 8.67974102e-01 8.92318666e-01 2.55124122e-01 6.47155941e-02 4.71378788e-02 6.16072677e-02 9.26261842e-02 6.34565502e-02 6.40171096e-02 9.46956798e-02 2.41069242e-01 5.74069500e-01 6.16441369e-01 5.68224549e-01 5.26426375e-01 5.10615587e-01 5.18128455e-01 5.41445851e-01 5.74172139e-01 6.11381292e-01 6.48871958e-01 6.83172345e-01 7.11375892e-01 7.31943667e-01 7.44103670e-01 7.48328149e-01 7.46100724e-01 7.42215991e-01 7.47304261e-01 7.73946464e-01 8.21944892e-01 8.77056301e-01 7.55842328e-01 1.25455037e-01 7.02521950e-02 6.17210232e-02 1.12774156e-01 6.41618073e-02 4.50360216e-02 5.99266775e-02 1.02503926e-01 4.18836981e-01 7.31719911e-01 7.12442338e-01 6.09612703e-01 5.21423101e-01 4.81612384e-01 4.75109220e-01 4.88184959e-01 5.13219893e-01 5.46096444e-01 5.84068835e-01 6.24338269e-01 6.63736880e-01 6.99201405e-01 7.28531301e-01 7.51285017e-01 7.68952608e-01 7.85535634e-01 8.06533217e-01 8.34099174e-01 8.59206676e-01 8.52020919e-01 4.64735657e-01 1.12087756e-01 9.86759812e-02 1.10275328e-01 2.24894643e-01 5.16248085e-02 2.97562256e-02 5.31164594e-02 1.41214013e-01 5.74568033e-01 7.53845870e-01 7.30307221e-01 6.28130555e-01 5.21703660e-01 4.67561901e-01 4.51291472e-01 4.54574794e-01 4.69322532e-01 4.92506325e-01 5.22928238e-01 5.59817553e-01 6.01863503e-01 6.46837711e-01 6.91515446e-01 7.32752979e-01 7.68739283e-01 7.99957037e-01 8.28194261e-01 8.54405642e-01 8.75112534e-01 8.78307879e-01 7.82786608e-01 4.63422269e-01 5.82269371e-01 8.36885095e-01 6.35113657e-01 5.75495958e-02 2.00114101e-02 4.08228040e-02 2.26565555e-01 6.20879531e-01 7.23372102e-01 6.88058794e-01 5.89553058e-01 4.93177801e-01 4.42079931e-01 4.23967123e-01 4.22047824e-01 4.29309487e-01 4.43885773e-01 4.65606093e-01 4.94920671e-01 5.32541931e-01 5.78701437e-01 6.31840825e-01 6.87568903e-01 7.39552319e-01 7.82921255e-01 8.16717863e-01 8.43639433e-01 8.67933035e-01 8.92019749e-01 9.19424653e-01 9.49011922e-01 9.60652471e-01 9.56390202e-01 9.10274923e-01 9.19375196e-02 1.59420166e-02 2.53837258e-02 3.18272263e-01 5.99197924e-01 6.40811384e-01 5.86957514e-01 5.04189372e-01 4.37878102e-01 4.01602149e-01 3.86170596e-01 3.81925911e-01 3.84650826e-01 3.93349946e-01 4.08179551e-01 4.29972142e-01 4.60258573e-01 5.00832796e-01 5.52347720e-01 6.12336576e-01 6.74162090e-01 7.29279101e-01 7.72152305e-01 8.03563654e-01 8.28746319e-01 8.51514816e-01 8.72386396e-01 8.79601300e-01 8.76968622e-01 8.70152891e-01 8.96209478e-01 1.60665303e-01 1.50989182e-02 1.84183791e-02 3.60308409e-01 5.34204423e-01 5.01677752e-01 4.46538091e-01 4.04204071e-01 3.74565154e-01 3.54865134e-01 3.42854977e-01 3.37109417e-01 3.36848259e-01 3.41623545e-01 3.51335227e-01 3.66668731e-01 3.89343262e-01 4.21467125e-01 4.63829547e-01 5.14486074e-01 5.69658697e-01 6.24896407e-01 6.73478782e-01 7.09009886e-01 7.30859935e-01 7.37566888e-01 6.95862472e-01 4.48719352e-01 1.51868790e-01 2.23127171e-01 6.58216655e-01 2.08795726e-01 1.47702787e-02 1.65789314e-02 3.86321962e-01 4.93984669e-01 3.75278533e-01 3.32120329e-01 3.23860645e-01 3.18376392e-01 3.09531033e-01 3.00067663e-01 2.93581635e-01 2.91521758e-01 2.93627411e-01 2.99355954e-01 3.09105694e-01 3.24689358e-01 3.48327816e-01 3.79658222e-01 4.13280100e-01 4.43398863e-01 4.71103370e-01 4.94231313e-01 4.95698214e-01 4.66880113e-01 4.25242752e-01 3.19084167e-01 1.58623517e-01 8.41333866e-02 8.28468353e-02 2.12062225e-01 2.14258656e-01 1.39343394e-02 1.54479854e-02 4.56592500e-01 5.08437872e-01 3.01460207e-01 2.59132206e-01 2.65857965e-01 2.71534026e-01 2.68706471e-01 2.61913240e-01 2.56141067e-01 2.53410965e-01 2.53466278e-01 2.55560458e-01 2.60003686e-01 2.68859833e-01 2.84828097e-01 3.06767941e-01 3.23721498e-01 3.21971327e-01 3.07418972e-01 2.91796029e-01 2.57959902e-01 2.06849098e-01 1.70426622e-01 1.41115546e-01 1.16641097e-01 8.78610685e-02 7.37826005e-02 1.21111050e-01 2.29599878e-01 1.31485816e-02 1.45306122e-02 5.34271955e-01 4.65874165e-01 2.30941132e-01 1.99564427e-01 2.17656210e-01 2.31974751e-01 2.35307246e-01 2.32603922e-01 2.28645653e-01 2.25446835e-01 2.22977698e-01 2.20736787e-01 2.19283581e-01 2.21148357e-01 2.30039701e-01 2.45986372e-01 2.54869372e-01 2.32176006e-01 1.89483419e-01 1.65705666e-01 1.54199064e-01 1.26929790e-01 1.00166179e-01 8.94362926e-02 8.94710720e-02 7.58002922e-02 7.40691796e-02 9.74604934e-02 2.44419783e-01 1.31669985e-02 1.37001052e-02 5.24822652e-01 3.15381497e-01 1.52832881e-01 1.47732377e-01 1.79193720e-01 2.03584179e-01 2.14103803e-01 2.15748996e-01 2.13027120e-01 2.08202928e-01 2.01913357e-01 1.94269285e-01 1.86191380e-01 1.80590555e-01 1.82331190e-01 1.94855034e-01 2.08707631e-01 1.90617427e-01 1.38187572e-01 1.09535471e-01 1.17952920e-01 1.24090292e-01 9.25333351e-02 7.20059201e-02 7.17687011e-02 6.01175204e-02 7.39462897e-02 1.08516909e-01 1.05552319e-02 9.13694128e-03 9.56602488e-03 2.85841376e-01 1.61291137e-01 9.94398445e-02 1.16581999e-01 1.61167443e-01 1.93776220e-01 2.08627373e-01 2.11804748e-01 2.07932919e-01 1.99845627e-01 1.89088300e-01 1.76359832e-01 1.62529990e-01 1.50087878e-01 1.44081876e-01 1.50962129e-01 1.72205165e-01 1.82844222e-01 1.41557306e-01 9.34916437e-02 8.54046345e-02 1.14619046e-01 1.24343529e-01 9.15096328e-02 7.14784935e-02 5.70110045e-02 6.49240091e-02 1.10072434e-01 4.91131237e-03 1.16168913e-02 1.03689283e-02 7.22546829e-03 1.04324438e-01 9.02110487e-02 1.21817812e-01 1.76599681e-01 2.07565725e-01 2.18182877e-01 2.17982769e-01 2.11072266e-01 1.99989319e-01 1.86361268e-01 1.70798361e-01 1.53615952e-01 1.36192471e-01 1.22480005e-01 1.19520955e-01 1.35973856e-01 1.71734691e-01 1.85016662e-01 1.32507741e-01 6.83949590e-02 5.61646670e-02 1.08044937e-01 1.93099082e-01 7.32518584e-02 6.83734342e-02 6.01915307e-02 9.33849066e-02 8.19429476e-03 1.10624535e-02 6.43442929e-01 1.36637762e-01 1.48644045e-01 1.43267006e-01 1.78058624e-01 2.26289690e-01 2.37464204e-01 2.36115932e-01 2.32904956e-01 2.28082791e-01 2.21139923e-01 2.11779088e-01 1.99286729e-01 1.82895973e-01 1.62659153e-01 1.40655980e-01 1.22652739e-01 1.18220650e-01 1.39861166e-01 2.03870341e-01 2.82873362e-01 1.66302472e-01 4.19657938e-02 2.86720674e-02 3.08879197e-01 4.48603705e-02 4.85983752e-02 5.27361594e-02 8.19785520e-02 6.70864573e-03 1.14201065e-02 4.84040946e-01 4.01897691e-02 6.61353022e-02 2.04865798e-01 2.44955748e-01 2.80494750e-01 2.83370823e-01 2.85324126e-01 2.93808192e-01 3.06540966e-01 3.19523424e-01 3.28128725e-01 3.28164905e-01 3.16791654e-01 2.92822689e-01 2.57497966e-01 2.16094449e-01 1.78175867e-01 1.53596237e-01 1.49484426e-01 1.75926119e-01 2.09112749e-01 1.45992160e-01 3.09164338e-02 1.40918255e-01 5.24707615e-01 1.31037578e-01 5.48732691e-02 1.03653453e-01 2.11926121e-02 5.67106158e-03 3.67820889e-01 3.55641022e-02 1.91430021e-02 3.30246121e-01 3.39161187e-01 4.14991260e-01 4.49804097e-01 4.87823427e-01 5.29059887e-01 5.66851139e-01 5.96369803e-01 6.16309166e-01 6.27817452e-01 6.32355928e-01 6.30308390e-01 6.20109677e-01 5.97274244e-01 5.53013921e-01 4.74282414e-01 3.58704060e-01 2.52613902e-01 2.23436907e-01 3.66350442e-01 7.62732565e-01 4.96416725e-02 1.78795353e-01 2.44237185e-01 1.34196013e-01 7.57443368e-01 
