# vtk DataFile Version 2.0
results_case1_non_linear/iter5.vtk, Created by Freefem++ 
ASCII
DATASET UNSTRUCTURED_GRID
POINTS 961 float
0 0 0
0.033333333 0 0
0.066666667 0 0
0.1 0 0
0.13333333 0 0
0.16666667 0 0
0.2 0 0
0.23333333 0 0
0.26666667 0 0
0.3 0 0
0.33333333 0 0
0.36666667 0 0
0.4 0 0
0.43333333 0 0
0.46666667 0 0
0.5 0 0
0.53333333 0 0
0.56666667 0 0
0.6 0 0
0.63333333 0 0
0.66666667 0 0
0.7 0 0
0.73333333 0 0
0.76666667 0 0
0.8 0 0
0.83333333 0 0
0.86666667 0 0
0.9 0 0
0.93333333 0 0
0.96666667 0 0
1 0 0
0 0.033333333 0
0.033333333 0.033333333 0
0.066666667 0.033333333 0
0.1 0.033333333 0
0.13333333 0.033333333 0
0.16666667 0.033333333 0
0.2 0.033333333 0
0.23333333 0.033333333 0
0.26666667 0.033333333 0
0.3 0.033333333 0
0.33333333 0.033333333 0
0.36666667 0.033333333 0
0.4 0.033333333 0
0.43333333 0.033333333 0
0.46666667 0.033333333 0
0.5 0.033333333 0
0.53333333 0.033333333 0
0.56666667 0.033333333 0
0.6 0.033333333 0
0.63333333 0.033333333 0
0.66666667 0.033333333 0
0.7 0.033333333 0
0.73333333 0.033333333 0
0.76666667 0.033333333 0
0.8 0.033333333 0
0.83333333 0.033333333 0
0.86666667 0.033333333 0
0.9 0.033333333 0
0.93333333 0.033333333 0
0.96666667 0.033333333 0
1 0.033333333 0
0 0.066666667 0
0.033333333 0.066666667 0
0.066666667 0.066666667 0
0.1 0.066666667 0
0.13333333 0.066666667 0
0.16666667 0.066666667 0
0.2 0.066666667 0
0.23333333 0.066666667 0
0.26666667 0.066666667 0
0.3 0.066666667 0
0.33333333 0.066666667 0
0.36666667 0.066666667 0
0.4 0.066666667 0
0.43333333 0.066666667 0
0.46666667 0.066666667 0
0.5 0.066666667 0
0.53333333 0.066666667 0
0.56666667 0.066666667 0
0.6 0.066666667 0
0.63333333 0.066666667 0
0.66666667 0.066666667 0
0.7 0.066666667 0
0.73333333 0.066666667 0
0.76666667 0.066666667 0
0.8 0.066666667 0
0.83333333 0.066666667 0
0.86666667 0.066666667 0
0.9 0.066666667 0
0.93333333 0.066666667 0
0.96666667 0.066666667 0
1 0.066666667 0
0 0.1 0
0.033333333 0.1 0
0.066666667 0.1 0
0.1 0.1 0
0.13333333 0.1 0
0.16666667 0.1 0
0.2 0.1 0
0.23333333 0.1 0
0.26666667 0.1 0
0.3 0.1 0
0.33333333 0.1 0
0.36666667 0.1 0
0.4 0.1 0
0.43333333 0.1 0
0.46666667 0.1 0
0.5 0.1 0
0.53333333 0.1 0
0.56666667 0.1 0
0.6 0.1 0
0.63333333 0.1 0
0.66666667 0.1 0
0.7 0.1 0
0.73333333 0.1 0
0.76666667 0.1 0
0.8 0.1 0
0.83333333 0.1 0
0.86666667 0.1 0
0.9 0.1 0
0.93333333 0.1 0
0.96666667 0.1 0
1 0.1 0
0 0.13333333 0
0.033333333 0.13333333 0
0.066666667 0.13333333 0
0.1 0.13333333 0
0.13333333 0.13333333 0
0.16666667 0.13333333 0
0.2 0.13333333 0
0.23333333 0.13333333 0
0.26666667 0.13333333 0
0.3 0.13333333 0
0.33333333 0.13333333 0
0.36666667 0.13333333 0
0.4 0.13333333 0
0.43333333 0.13333333 0
0.46666667 0.13333333 0
0.5 0.13333333 0
0.53333333 0.13333333 0
0.56666667 0.13333333 0
0.6 0.13333333 0
0.63333333 0.13333333 0
0.66666667 0.13333333 0
0.7 0.13333333 0
0.73333333 0.13333333 0
0.76666667 0.13333333 0
0.8 0.13333333 0
0.83333333 0.13333333 0
0.86666667 0.13333333 0
0.9 0.13333333 0
0.93333333 0.13333333 0
0.96666667 0.13333333 0
1 0.13333333 0
0 0.16666667 0
0.033333333 0.16666667 0
0.066666667 0.16666667 0
0.1 0.16666667 0
0.13333333 0.16666667 0
0.16666667 0.16666667 0
0.2 0.16666667 0
0.23333333 0.16666667 0
0.26666667 0.16666667 0
0.3 0.16666667 0
0.33333333 0.16666667 0
0.36666667 0.16666667 0
0.4 0.16666667 0
0.43333333 0.16666667 0
0.46666667 0.16666667 0
0.5 0.16666667 0
0.53333333 0.16666667 0
0.56666667 0.16666667 0
0.6 0.16666667 0
0.63333333 0.16666667 0
0.66666667 0.16666667 0
0.7 0.16666667 0
0.73333333 0.16666667 0
0.76666667 0.16666667 0
0.8 0.16666667 0
0.83333333 0.16666667 0
0.86666667 0.16666667 0
0.9 0.16666667 0
0.93333333 0.16666667 0
0.96666667 0.16666667 0
1 0.16666667 0
0 0.2 0
0.033333333 0.2 0
0.066666667 0.2 0
0.1 0.2 0
0.13333333 0.2 0
0.16666667 0.2 0
0.2 0.2 0
0.23333333 0.2 0
0.26666667 0.2 0
0.3 0.2 0
0.33333333 0.2 0
0.36666667 0.2 0
0.4 0.2 0
0.43333333 0.2 0
0.46666667 0.2 0
0.5 0.2 0
0.53333333 0.2 0
0.56666667 0.2 0
0.6 0.2 0
0.63333333 0.2 0
0.66666667 0.2 0
0.7 0.2 0
0.73333333 0.2 0
0.76666667 0.2 0
0.8 0.2 0
0.83333333 0.2 0
0.86666667 0.2 0
0.9 0.2 0
0.93333333 0.2 0
0.96666667 0.2 0
1 0.2 0
0 0.23333333 0
0.033333333 0.23333333 0
0.066666667 0.23333333 0
0.1 0.23333333 0
0.13333333 0.23333333 0
0.16666667 0.23333333 0
0.2 0.23333333 0
0.23333333 0.23333333 0
0.26666667 0.23333333 0
0.3 0.23333333 0
0.33333333 0.23333333 0
0.36666667 0.23333333 0
0.4 0.23333333 0
0.43333333 0.23333333 0
0.46666667 0.23333333 0
0.5 0.23333333 0
0.53333333 0.23333333 0
0.56666667 0.23333333 0
0.6 0.23333333 0
0.63333333 0.23333333 0
0.66666667 0.23333333 0
0.7 0.23333333 0
0.73333333 0.23333333 0
0.76666667 0.23333333 0
0.8 0.23333333 0
0.83333333 0.23333333 0
0.86666667 0.23333333 0
0.9 0.23333333 0
0.93333333 0.23333333 0
0.96666667 0.23333333 0
1 0.23333333 0
0 0.26666667 0
0.033333333 0.26666667 0
0.066666667 0.26666667 0
0.1 0.26666667 0
0.13333333 0.26666667 0
0.16666667 0.26666667 0
0.2 0.26666667 0
0.23333333 0.26666667 0
0.26666667 0.26666667 0
0.3 0.26666667 0
0.33333333 0.26666667 0
0.36666667 0.26666667 0
0.4 0.26666667 0
0.43333333 0.26666667 0
0.46666667 0.26666667 0
0.5 0.26666667 0
0.53333333 0.26666667 0
0.56666667 0.26666667 0
0.6 0.26666667 0
0.63333333 0.26666667 0
0.66666667 0.26666667 0
0.7 0.26666667 0
0.73333333 0.26666667 0
0.76666667 0.26666667 0
0.8 0.26666667 0
0.83333333 0.26666667 0
0.86666667 0.26666667 0
0.9 0.26666667 0
0.93333333 0.26666667 0
0.96666667 0.26666667 0
1 0.26666667 0
0 0.3 0
0.033333333 0.3 0
0.066666667 0.3 0
0.1 0.3 0
0.13333333 0.3 0
0.16666667 0.3 0
0.2 0.3 0
0.23333333 0.3 0
0.26666667 0.3 0
0.3 0.3 0
0.33333333 0.3 0
0.36666667 0.3 0
0.4 0.3 0
0.43333333 0.3 0
0.46666667 0.3 0
0.5 0.3 0
0.53333333 0.3 0
0.56666667 0.3 0
0.6 0.3 0
0.63333333 0.3 0
0.66666667 0.3 0
0.7 0.3 0
0.73333333 0.3 0
0.76666667 0.3 0
0.8 0.3 0
0.83333333 0.3 0
0.86666667 0.3 0
0.9 0.3 0
0.93333333 0.3 0
0.96666667 0.3 0
1 0.3 0
0 0.33333333 0
0.033333333 0.33333333 0
0.066666667 0.33333333 0
0.1 0.33333333 0
0.13333333 0.33333333 0
0.16666667 0.33333333 0
0.2 0.33333333 0
0.23333333 0.33333333 0
0.26666667 0.33333333 0
0.3 0.33333333 0
0.33333333 0.33333333 0
0.36666667 0.33333333 0
0.4 0.33333333 0
0.43333333 0.33333333 0
0.46666667 0.33333333 0
0.5 0.33333333 0
0.53333333 0.33333333 0
0.56666667 0.33333333 0
0.6 0.33333333 0
0.63333333 0.33333333 0
0.66666667 0.33333333 0
0.7 0.33333333 0
0.73333333 0.33333333 0
0.76666667 0.33333333 0
0.8 0.33333333 0
0.83333333 0.33333333 0
0.86666667 0.33333333 0
0.9 0.33333333 0
0.93333333 0.33333333 0
0.96666667 0.33333333 0
1 0.33333333 0
0 0.36666667 0
0.033333333 0.36666667 0
0.066666667 0.36666667 0
0.1 0.36666667 0
0.13333333 0.36666667 0
0.16666667 0.36666667 0
0.2 0.36666667 0
0.23333333 0.36666667 0
0.26666667 0.36666667 0
0.3 0.36666667 0
0.33333333 0.36666667 0
0.36666667 0.36666667 0
0.4 0.36666667 0
0.43333333 0.36666667 0
0.46666667 0.36666667 0
0.5 0.36666667 0
0.53333333 0.36666667 0
0.56666667 0.36666667 0
0.6 0.36666667 0
0.63333333 0.36666667 0
0.66666667 0.36666667 0
0.7 0.36666667 0
0.73333333 0.36666667 0
0.76666667 0.36666667 0
0.8 0.36666667 0
0.83333333 0.36666667 0
0.86666667 0.36666667 0
0.9 0.36666667 0
0.93333333 0.36666667 0
0.96666667 0.36666667 0
1 0.36666667 0
0 0.4 0
0.033333333 0.4 0
0.066666667 0.4 0
0.1 0.4 0
0.13333333 0.4 0
0.16666667 0.4 0
0.2 0.4 0
0.23333333 0.4 0
0.26666667 0.4 0
0.3 0.4 0
0.33333333 0.4 0
0.36666667 0.4 0
0.4 0.4 0
0.43333333 0.4 0
0.46666667 0.4 0
0.5 0.4 0
0.53333333 0.4 0
0.56666667 0.4 0
0.6 0.4 0
0.63333333 0.4 0
0.66666667 0.4 0
0.7 0.4 0
0.73333333 0.4 0
0.76666667 0.4 0
0.8 0.4 0
0.83333333 0.4 0
0.86666667 0.4 0
0.9 0.4 0
0.93333333 0.4 0
0.96666667 0.4 0
1 0.4 0
0 0.43333333 0
0.033333333 0.43333333 0
0.066666667 0.43333333 0
0.1 0.43333333 0
0.13333333 0.43333333 0
0.16666667 0.43333333 0
0.2 0.43333333 0
0.23333333 0.43333333 0
0.26666667 0.43333333 0
0.3 0.43333333 0
0.33333333 0.43333333 0
0.36666667 0.43333333 0
0.4 0.43333333 0
0.43333333 0.43333333 0
0.46666667 0.43333333 0
0.5 0.43333333 0
0.53333333 0.43333333 0
0.56666667 0.43333333 0
0.6 0.43333333 0
0.63333333 0.43333333 0
0.66666667 0.43333333 0
0.7 0.43333333 0
0.73333333 0.43333333 0
0.76666667 0.43333333 0
0.8 0.43333333 0
0.83333333 0.43333333 0
0.86666667 0.43333333 0
0.9 0.43333333 0
0.93333333 0.43333333 0
0.96666667 0.43333333 0
1 0.43333333 0
0 0.46666667 0
0.033333333 0.46666667 0
0.066666667 0.46666667 0
0.1 0.46666667 0
0.13333333 0.46666667 0
0.16666667 0.46666667 0
0.2 0.46666667 0
0.23333333 0.46666667 0
0.26666667 0.46666667 0
0.3 0.46666667 0
0.33333333 0.46666667 0
0.36666667 0.46666667 0
0.4 0.46666667 0
0.43333333 0.46666667 0
0.46666667 0.46666667 0
0.5 0.46666667 0
0.53333333 0.46666667 0
0.56666667 0.46666667 0
0.6 0.46666667 0
0.63333333 0.46666667 0
0.66666667 0.46666667 0
0.7 0.46666667 0
0.73333333 0.46666667 0
0.76666667 0.46666667 0
0.8 0.46666667 0
0.83333333 0.46666667 0
0.86666667 0.46666667 0
0.9 0.46666667 0
0.93333333 0.46666667 0
0.96666667 0.46666667 0
1 0.46666667 0
0 0.5 0
0.033333333 0.5 0
0.066666667 0.5 0
0.1 0.5 0
0.13333333 0.5 0
0.16666667 0.5 0
0.2 0.5 0
0.23333333 0.5 0
0.26666667 0.5 0
0.3 0.5 0
0.33333333 0.5 0
0.36666667 0.5 0
0.4 0.5 0
0.43333333 0.5 0
0.46666667 0.5 0
0.5 0.5 0
0.53333333 0.5 0
0.56666667 0.5 0
0.6 0.5 0
0.63333333 0.5 0
0.66666667 0.5 0
0.7 0.5 0
0.73333333 0.5 0
0.76666667 0.5 0
0.8 0.5 0
0.83333333 0.5 0
0.86666667 0.5 0
0.9 0.5 0
0.93333333 0.5 0
0.96666667 0.5 0
1 0.5 0
0 0.53333333 0
0.033333333 0.53333333 0
0.066666667 0.53333333 0
0.1 0.53333333 0
0.13333333 0.53333333 0
0.16666667 0.53333333 0
0.2 0.53333333 0
0.23333333 0.53333333 0
0.26666667 0.53333333 0
0.3 0.53333333 0
0.33333333 0.53333333 0
0.36666667 0.53333333 0
0.4 0.53333333 0
0.43333333 0.53333333 0
0.46666667 0.53333333 0
0.5 0.53333333 0
0.53333333 0.53333333 0
0.56666667 0.53333333 0
0.6 0.53333333 0
0.63333333 0.53333333 0
0.66666667 0.53333333 0
0.7 0.53333333 0
0.73333333 0.53333333 0
0.76666667 0.53333333 0
[...]
CELL_DATA 1920
Scalars  Label int 1
LOOKUP_TABLE FreeFempp_table
0
0
0
0
0
0
0
0
0
0
0
0
0
0
0
0
0
0
0
0
0
0
0
0
0
0
0
0
0
0
0
0
0
0
0
0
0
0
0
0
0
0
0
0
0
0
0
0
0
0
0
0
0
0
0
0
0
0
0
0
0
0
0
0
0
0
0
0
0
0
0
0
0
0
0
0
0
0
0
0
0
0
0
0
0
0
0
0
0
0
0
0
0
0
0
0
0
0
0
0
0
0
0
0
0
0
0
0
0
0
0
0
0
0
0
0
0
0
0
0
0
0
0
0
0
0
0
0
0
0
0
0
0
0
0
0
0
0
0
0
0
0
0
0
0
0
0
0
0
0
0
0
0
0
0
0
0
0
0
0
0
0
0
0
0
0
0
0
0
0
0
0
0
0
0
0
0
0
0
0
0
0
0
0
0
0
0
0
0
0
0
0
0
0
0
0
0
0
0
0
0
0
0
0
0
0
0
0
0
0
0
0
0
0
0
0
0
0
0
0
0
0
0
0
0
0
0
0
0
0
0
0
0
0
0
0
0
0
0
0
0
0
0
0
0
0
0
0
0
0
0
0
0
0
0
0
0
0
0
0
0
0
0
0
0
0
0
0
0
0
0
0
0
0
0
0
0
0
0
0
0
0
0
0
0
0
0
0
0
0
0
0
0
0
0
0
0
0
0
0
0
0
0
0
0
0
0
0
0
0
0
0
0
0
0
0
0
0
0
0
0
0
0
0
0
0
0
0
0
0
0
0
0
0
0
0
0
0
0
0
0
0
0
0
0
0
0
0
0
0
0
0
0
0
0
0
0
0
0
0
0
0
0
0
0
0
0
0
0
0
0
0
0
0
0
0
0
0
0
0
0
0
0
0
0
0
0
0
0
0
0
0
0
0
0
0
0
0
0
0
0
0
0
0
0
0
0
0
0
0
0
0
0
0
0
0
0
0
0
0
0
0
0
0
0
0
0
0
0
0
0
0
0
0
0
0
0
0
0
0
0
0
0
0
0
0
0
0
0
0
0
0
0
0
0
0
0
0
0
0
0
0
0
0
0
0
0
0
0
0
0
0
0
0
0
0
0
0
0
0
0
0
0
0
0
0
0
0
0
0
0
0
0
0
0
0
0
0
0
0
0
0
0
0
0
0
0
0
0
0
0
0
0
0
0
0
0
0
0
0
0
0
0
0
0
0
0
0
0
0
0
0
0
0
0
0
0
0
0
0
0
0
0
0
0
0
0
0
0
0
0
0
0
0
0
0
0
0
0
0
0
0
0
0
0
0
0
0
0
0
0
0
0
0
0
0
0
0
0
0
0
0
0
0
0
0
0
0
0
0
0
0
0
0
0
0
0
0
0
0
0
0
0
0
0
0
0
0
0
0
0
0
0
0
0
0
0
0
0
0
0
0
0
0
0
0
0
0
0
0
0
0
0
0
0
0
0
0
0
0
0
0
0
0
0
0
0
0
0
0
0
0
0
0
0
0
0
0
0
0
0
0
0
0
0
0
0
0
0
0
0
0
0
0
0
0
0
0
0
0
0
0
0
0
0
0
0
0
0
0
0
0
0
0
0
0
0
0
0
0
0
0
0
0
0
0
0
0
0
0
0
0
0
0
0
0
0
0
0
0
0
0
0
0
0
0
0
0
0
0
0
0
0
0
0
0
0
0
0
0
0
0
0
0
0
0
0
0
0
0
0
0
0
0
0
0
0
0
0
0
0
0
0
0
0
0
0
0
0
0
0
0
0
0
0
0
0
0
0
0
0
0
0
0
0
0
0
0
0
0
0
0
0
0
0
0
0
0
0
0
0
0
0
0
0
0
0
0
0
0
0
0
0
0
0
0
0
0
0
0
0
0
0
0
0
0
0
0
0
0
0
0
0
0
0
0
0
0
0
0
0
0
0
0
0
0
0
0
0
0
0
0
0
0
0
0
0
0
0
0
0
0
0
0
0
0
0
0
0
0
0
0
0
0
0
0
0
0
0
0
0
0
0
0
0
0
0
0
0
0
0
0
0
0
0
0
0
0
0
0
0
0
0
0
0
0
0
0
0
0
0
0
0
0
0
0
0
0
0
0
0
0
0
0
0
0
0
0
0
0
0
0
0
0
0
0
0
0
0
0
0
0
0
0
0
0
0
0
0
0
0
0
0
0
0
0
0
0
0
0
0
0
0
0
0
0
0
0
0
0
0
0
0
0
0
0
0
0
0
0
0
0
0
0
0
0
0
0
0
0
0
0
0
0
0
0
0
0
0
0
0
0
0
0
0
0
0
0
0
0
0
0
0
0
0
0
0
0
0
0
0
0
0
0
0
0
0
0
0
0
0
0
0
0
0
0
0
0
0
0
0
0
0
0
0
0
0
0
0
0
0
0
0
0
0
0
0
0
0
0
0
0
0
0
0
0
0
0
0
0
0
0
0
0
0
0
0
0
0
0
0
0
0
0
0
0
0
0
0
0
0
0
0
0
0
0
0
0
0
0
0
0
0
0
0
0
0
0
0
0
0
0
0
0
0
0
0
0
0
0
0
0
0
0
0
0
0
0
0
0
0
0
0
0
0
0
0
0
0
0
0
0
0
0
0
0
0
0
0
0
0
0
0
0
0
0
0
0
0
0
0
0
0
0
0
0
0
0
0
0
0
0
0
0
0
0
0
0
0
0
0
0
0
0
0
0
0
0
0
0
0
0
0
0
0
0
0
0
0
0
0
0
0
0
0
0
0
0
0
0
0
0
0
0
0
0
0
0
0
0
0
0
0
0
0
0
0
0
0
0
0
0
0
0
0
0
0
0
0
0
0
0
0
0
0
0
0
0
0
0
0
0
0
0
0
0
0
0
0
0
0
0
0
0
0
0
0
0
0
0
0
0
0
0
0
0
0
0
0
0
0
0
0
0
0
0
0
0
0
0
0
0
0
0
0
0
0
0
0
0
0
0
0
0
0
0
0
0
0
0
0
0
0
0
0
0
0
0
0
0
0
0
0
0
0
0
0
0
0
0
0
0
0
0
0
0
0
0
0
0
0
0
0
0
0
0
0
0
0
0
0
0
0
0
0
0
0
0
0
0
0
0
0
0
0
0
0
0
0
0
0
0
0
0
0
0
0
0
0
0
0
0
0
0
0
0
0
0
0
0
0
0
0
0
0
0
0
0
0
0
0
0
0
0
0
0
0
0
0
0
0
0
0
0
0
0
0
0
0
0
0
0
0
0
0
0
0
0
0
0
0
0
0
0
0
0
0
0
0
0
0
0
0
0
0
0
0
0
0
0
0
0
0
0
0
0
0
0
0
0
0
0
0
0
0
0
0
0
0
0
0
0
0
0
0
0
0
0
0
0
0
0
0
0
0
0
0
0
0
0
0
0
0
0
0
0
0
0
0
0
0
0
0
0
0
0
0
0
0
0
0
0
0
0
0
0
0
0
0
0
0
0
0
0
0
0
0
0
0
0
0
0
0
0
0
0
0
0
0
0
0
0
0
0
0
0
0
0
0
0
0
0
0
0
0
0
0
0
0
0
0
0
0
0
0
0
0
0
0
0
0
0
0
0
0
0
0
0
0
0
0
0
0
0
0
0
0
0
0
0
0
0
0
0
0
0
0
0
0
0
0
0
0
0
0
0
0
0
0
0
0
0
0
0
0
0
0
0
0
0
0
0
0
0
0
0
0
0
0
0
0
0
0
0
0
0
0
0
0
0
0
0
0
0
0
0
0
0
0
0
0
0
0
0
0
0
0
0
0
0
0
0
0
0
0
0
0
0
0
0
0
0
0
0
0
0
0
0
0
0
0
0
0
0
0
0
0
0
0
0
0
0
0
0
0
0
0
0
0
0
0
0
0
0
0
0
0
0
0
0
0
0
0
0
0
0
0
0
0
0
0
0
0
0
0
0
0
0
0
0
0
0
0
0
0
0
0
0
0
0
0
0
0
0
0
0
0
0
0
0
0
0
0
0
0
0
0
0
0
0
0
0
0
0
0
0
0
0
0
0
0
0
0
0
0
0
0
0
0
0
0
0
0
0
0
0
0
0
0
0
0
0
0
0
0
0
0
0
0
0
1
1
1
1
1
1
1
1
1
1
1
1
1
1
1
1
1
1
1
1
1
1
1
1
1
1
1
1
1
1
2
2
2
2
2
2
2
2
2
2
2
2
2
2
2
2
2
2
2
2
2
2
2
2
2
2
2
2
2
2
3
3
3
3
3
3
3
3
3
3
3
3
3
3
3
3
3
3
3
3
3
3
3
3
3
3
3
3
3
3
4
4
4
4
4
4
4
4
4
4
4
4
4
4
4
4
4
4
4
4
4
4
4
4
4
4
4
4
4
4

LOOKUP_TABLE FreeFempp_table 5
1.00000000 0.00000000 0.00000000 1.00000000
1.00000000 1.00000000 0.00000000 1.00000000
1.00000000 0.00000000 1.00000000 1.00000000
0.00000000 1.00000000 0.00000000 1.00000000
0.00000000 1.00000000 1.00000000 1.00000000

POINT_DATA 961
FIELD FieldData 1
Density 1 961 float
9.50214341e-02 7.34410435e-02 7.20899776e-02 7.30712041e-02 7.35302940e-02 6.87743798e-02 5.63186854e-02 5.06037176e-02 4.09612693e-02 2.50328109e-02 2.11518425e-02 2.59811934e-02 6.28968403e-02 1.64644748e-01 2.23705977e-01 2.27424219e-01 1.91073626e-01 1.43530682e-01 1.09023876e-01 8.73835012e-02 6.22249544e-02 3.71520631e-02 2.38757003e-02 2.25200113e-02 3.63170914e-02 2.35777438e-01 9.28809941e-01 9.01457310e-01 1.00004347e-02 1.05205029e-02 4.61557731e-02 1.90979689e-02 2.03753319e-02 2.45622136e-02 2.63527483e-02 2.63439212e-02 1.86853576e-02 1.29332142e-02 1.11228405e-02 1.08825536e-02 1.11506889e-02 1.15759587e-02 1.19148539e-02 1.20171579e-02 1.14824511e-02 1.12567917e-02 1.10106124e-02 1.11126183e-02 1.20205404e-02 1.36624584e-02 1.49631109e-02 1.52547229e-02 1.50506431e-02 1.47440676e-02 1.47256441e-02 1.83651466e-02 3.40658501e-02 9.22901094e-01 8.90972018e-01 8.73231981e-03 1.30073708e-02 1.11206947e-02 1.07221650e-02 1.11969989e-02 1.11800786e-02 1.14200981e-02 1.16721457e-02 1.16679929e-02 1.14505878e-02 1.15293069e-02 1.20229721e-02 1.23997796e-02 1.22174257e-02 1.14379711e-02 1.03363125e-02 9.69844777e-03 9.90510825e-03 1.03571480e-02 1.08748470e-02 1.11421105e-02 1.09580457e-02 1.05518559e-02 1.04352357e-02 1.07297655e-02 1.13442857e-02 1.22001590e-02 1.51498718e-02 2.66333446e-02 9.10416067e-01 9.31279242e-01 1.33210225e-02 1.39243267e-02 1.08075822e-02 1.20769823e-02 1.52191306e-02 1.54922092e-02 1.64283812e-02 1.76633522e-02 1.86538920e-02 1.82602350e-02 1.66820474e-02 1.55251641e-02 1.50292665e-02 1.47288889e-02 1.43738380e-02 1.38594648e-02 1.31788310e-02 1.21807856e-02 1.14413816e-02 1.11995805e-02 1.13583170e-02 1.16416328e-02 1.16476091e-02 1.13111585e-02 1.09075597e-02 1.07783414e-02 1.08248154e-02 1.20442705e-02 2.29229368e-02 8.86507630e-01 9.46759880e-01 3.82929415e-01 1.49116507e-02 1.33911762e-02 1.13917347e-02 1.44113870e-02 1.40774120e-02 1.43722035e-02 1.42805707e-02 1.35174077e-02 1.24385515e-02 1.14904596e-02 1.10016391e-02 1.09678563e-02 1.10456469e-02 1.10344673e-02 1.12654613e-02 1.12831006e-02 1.08686974e-02 1.04040233e-02 1.06508564e-02 1.18453763e-02 1.22059416e-02 1.15428260e-02 1.09745422e-02 1.08529357e-02 1.10059744e-02 1.09146768e-02 1.09596057e-02 1.66485906e-02 8.62308502e-01 9.56182957e-01 7.38843322e-01 1.33789489e-02 1.42092435e-02 1.17489640e-02 1.05555803e-02 1.08027952e-02 1.08060325e-02 1.08754402e-02 1.13086021e-02 1.24519104e-02 1.39780743e-02 1.73036382e-02 2.38220003e-02 3.12130377e-02 4.84494455e-02 1.03777103e-01 1.68974847e-01 1.90348789e-01 1.75406232e-01 1.67625099e-01 1.59483299e-01 1.32709071e-01 1.02941610e-01 7.51445442e-02 3.91316898e-02 2.17880271e-02 1.23726893e-02 1.06225722e-02 1.23887984e-02 3.25046062e-01 9.60003614e-01 8.17919433e-01 1.11936806e-02 1.28403772e-02 1.92989875e-02 1.17937336e-02 1.25495056e-02 1.31933428e-02 1.51870865e-02 2.01768279e-02 2.76832338e-02 3.77120525e-02 5.51792644e-02 8.26431289e-02 1.18271716e-01 1.93025112e-01 2.77852952e-01 3.03997964e-01 3.05450231e-01 2.96872914e-01 2.87490159e-01 2.83622742e-01 2.88142771e-01 2.83127159e-01 2.59178907e-01 2.16333941e-01 1.09080411e-01 3.85898650e-02 1.32067921e-02 1.19267497e-02 2.99604274e-02 9.66253161e-01 8.68273258e-01 8.53334740e-03 1.02397315e-02 4.70939912e-02 1.81954261e-02 1.72666684e-02 1.94127746e-02 2.75219623e-02 4.57461700e-02 7.42543191e-02 1.25235438e-01 2.14670449e-01 3.19592535e-01 4.13017154e-01 4.90973234e-01 5.13000727e-01 4.82320756e-01 4.36694026e-01 3.91819865e-01 3.50722790e-01 3.18637103e-01 3.01222891e-01 2.92186677e-01 2.76414663e-01 2.35785291e-01 1.35869935e-01 7.92608559e-02 2.81420350e-02 1.61662884e-02 2.87142396e-02 9.55647886e-01 9.09431159e-01 6.92635681e-03 7.80381216e-03 1.47028506e-01 3.01726200e-02 2.82042827e-02 3.90349962e-02 9.32850689e-02 2.44702414e-01 4.42649841e-01 6.00879550e-01 6.86270118e-01 7.19259560e-01 7.25873649e-01 7.15502501e-01 6.83425844e-01 6.32245898e-01 5.71525216e-01 5.09038150e-01 4.50539798e-01 3.99947107e-01 3.60481918e-01 3.29353660e-01 2.96147466e-01 2.41749719e-01 1.57163173e-01 1.26754165e-01 7.00610727e-02 3.34602743e-02 3.44861187e-02 9.35771167e-01 9.25001085e-01 7.15042837e-03 6.89899456e-03 8.47774684e-01 4.56537277e-01 4.19115275e-01 6.68487549e-01 8.36269557e-01 8.83641779e-01 8.94776642e-01 8.92345309e-01 8.82510245e-01 8.67320180e-01 8.47220719e-01 8.20734859e-01 7.85145462e-01 7.39803731e-01 6.86157227e-01 6.27431154e-01 5.68904400e-01 5.15729666e-01 4.70114887e-01 4.29282814e-01 3.85498643e-01 3.26859236e-01 2.65231282e-01 2.83084363e-01 2.31712475e-01 6.09421358e-02 4.59116511e-02 9.36872363e-01 9.24980700e-01 8.66283569e-03 7.76001532e-03 9.53378558e-01 9.85064566e-01 9.91302550e-01 9.86671329e-01 9.73796308e-01 9.59072053e-01 9.45553482e-01 9.32477713e-01 9.18904424e-01 9.04042959e-01 8.86864424e-01 8.65827441e-01 8.39172781e-01 8.05576503e-01 7.64614940e-01 7.17801929e-01 6.69042528e-01 6.23032451e-01 5.82187533e-01 5.44594407e-01 5.05648375e-01 4.63367879e-01 4.49854046e-01 4.94417220e-01 4.66768026e-01 1.34699509e-01 1.58041254e-01 9.56335187e-01 9.08207774e-01 9.97771975e-03 9.34453215e-03 9.09926891e-01 9.47184384e-01 9.51612830e-01 9.52056587e-01 9.47551727e-01 9.40884531e-01 9.33556139e-01 9.25428629e-01 9.16539073e-01 9.06505108e-01 8.94756079e-01 8.80394399e-01 8.62261951e-01 8.39142382e-01 8.10161114e-01 7.75570989e-01 7.37382531e-01 6.98746800e-01 6.62041068e-01 6.27026677e-01 5.92053175e-01 5.60368478e-01 5.52748263e-01 5.39811075e-01 4.85380799e-01 3.62166435e-01 7.86353648e-01 9.61692035e-01 8.56458962e-01 1.04313930e-02 1.03630237e-02 5.90114355e-01 7.61108220e-01 7.36816287e-01 7.96076715e-01 8.46103847e-01 8.73018444e-01 8.86635125e-01 8.91130686e-01 8.90446603e-01 8.86705518e-01 8.80970597e-01 8.73325288e-01 8.63187134e-01 8.49709332e-01 8.31973851e-01 8.09383512e-01 7.81815827e-01 7.49915779e-01 7.14685798e-01 6.76656425e-01 6.36086106e-01 5.95656395e-01 5.57520926e-01 4.95215476e-01 4.93756115e-01 6.91662669e-01 9.14419413e-01 9.58955407e-01 1.33961037e-01 1.04264617e-02 1.06053548e-02 1.29295453e-01 4.24755663e-02 4.48215120e-02 6.55482039e-02 1.45012766e-01 4.46959734e-01 7.13954508e-01 7.97823668e-01 8.23450267e-01 8.32376719e-01 8.36708546e-01 8.39568198e-01 8.40788722e-01 8.39417994e-01 8.34347606e-01 8.24625373e-01 8.09219718e-01 7.86892056e-01 7.56510198e-01 7.17091501e-01 6.68708622e-01 6.13487661e-01 5.51587641e-01 4.95883018e-01 6.04346097e-01 8.59910250e-01 9.42841470e-01 9.46313024e-01 2.34980248e-02 1.05983336e-02 1.06216939e-02 5.94706759e-02 2.21230779e-02 2.11221334e-02 2.66069043e-02 4.87107635e-02 1.56429872e-01 4.56454784e-01 6.32438481e-01 6.88091338e-01 7.12885678e-01 7.34584093e-01 7.58329332e-01 7.81553566e-01 8.00948739e-01 8.14223886e-01 8.20739031e-01 8.19820583e-01 8.10678005e-01 7.91537285e-01 7.60107994e-01 7.14450359e-01 6.56425476e-01 5.98943293e-01 5.95804691e-01 7.70758212e-01 9.19095397e-01 9.54829991e-01 8.86479139e-01 1.57855488e-02 1.15390457e-02 1.12076513e-02 3.16139385e-02 1.79879796e-02 1.70461889e-02 2.15245690e-02 4.36198525e-02 1.85141861e-01 4.61057991e-01 5.34330249e-01 5.33163190e-01 5.40026367e-01 5.68694890e-01 6.14987612e-01 6.68822289e-01 7.20060468e-01 7.61918783e-01 7.92030811e-01 8.10305774e-01 8.17707539e-01 8.14342022e-01 7.99402058e-01 7.71824419e-01 7.35237598e-01 7.09808230e-01 7.43318141e-01 8.61875176e-01 9.39153135e-01 9.54400182e-01 8.22319537e-02 1.50747634e-02 1.27134928e-02 1.46131385e-02 1.93881262e-02 1.53402342e-02 1.54026812e-02 2.02281028e-02 7.43479207e-02 5.56797028e-01 6.38694882e-01 5.37590504e-01 4.46356714e-01 4.10020798e-01 4.20148224e-01 4.62652147e-01 5.26052117e-01 5.98805487e-01 6.69255197e-01 7.28839993e-01 7.73336709e-01 8.02978575e-01 8.19389462e-01 8.24922979e-01 8.22082758e-01 8.17029953e-01 8.23340416e-01 8.53523135e-01 8.99136841e-01 9.43007767e-01 8.74875307e-01 2.92762220e-02 1.64818242e-02 1.46350218e-02 2.37102434e-02 1.44865001e-02 1.27740493e-02 1.47428801e-02 2.14031171e-02 2.60017902e-01 8.21307003e-01 7.95949101e-01 6.21816814e-01 4.41093951e-01 3.59103978e-01 3.42725992e-01 3.63624781e-01 4.09600973e-01 4.74000245e-01 5.50142407e-01 6.29001021e-01 7.00890779e-01 7.59134710e-01 8.01861703e-01 8.31279755e-01 8.51527870e-01 8.68131816e-01 8.86275291e-01 9.06048656e-01 9.20491576e-01 9.18453634e-01 3.47951323e-01 2.67731156e-02 2.14453544e-02 2.31535006e-02 6.40749559e-02 1.24218743e-02 1.11451903e-02 1.35296984e-02 3.07754055e-02 5.53673625e-01 8.47547650e-01 8.19628537e-01 6.57912374e-01 4.44171757e-01 3.35970759e-01 3.03025961e-01 3.05717438e-01 3.30238253e-01 3.72648805e-01 4.31842834e-01 5.06233573e-01 5.90817034e-01 6.76470876e-01 7.52569914e-01 8.12522113e-01 8.55917335e-01 8.86598766e-01 9.08800900e-01 9.24811244e-01 9.33660984e-01 9.29279387e-01 8.29253972e-01 2.69359976e-01 4.90795165e-01 8.74137521e-01 6.34120345e-01 1.26898494e-02 1.06791193e-02 1.19629717e-02 6.51313514e-02 6.43849730e-01 8.10213268e-01 7.60434449e-01 5.84232271e-01 3.89707953e-01 2.93830007e-01 2.60780543e-01 2.55183250e-01 2.65366644e-01 2.88979828e-01 3.26912433e-01 3.81654024e-01 4.56129372e-01 5.50259829e-01 6.55255437e-01 7.53024757e-01 8.27774704e-01 8.76989007e-01 9.07434642e-01 9.27002847e-01 9.41113651e-01 9.51670170e-01 9.59019363e-01 9.58949685e-01 9.53787923e-01 9.54359770e-01 9.37071264e-01 1.76542569e-02 1.06951967e-02 1.05205933e-02 1.33012488e-01 6.01405799e-01 6.81440592e-01 5.79688847e-01 4.12743747e-01 2.90236115e-01 2.31788039e-01 2.08011761e-01 2.00638622e-01 2.03428835e-01 2.15178251e-01 2.36717939e-01 2.70660520e-01 3.22063625e-01 3.98016453e-01 5.02470255e-01 6.25221848e-01 7.39388287e-01 8.22898507e-01 8.75066698e-01 9.07315195e-01 9.30506527e-01 9.51311290e-01 9.74001527e-01 9.91446137e-01 9.94985044e-01 9.84448850e-01 9.64738846e-01 3.51955071e-02 1.04617914e-02 1.03870071e-02 1.79283574e-01 4.71087426e-01 4.11097348e-01 3.07527930e-01 2.37627551e-01 1.95606470e-01 1.70714602e-01 1.56400770e-01 1.49682313e-01 1.49302751e-01 1.54685572e-01 1.65900871e-01 1.84289858e-01 2.13492736e-01 2.60137826e-01 3.31995487e-01 4.31234926e-01 5.47588110e-01 6.60983086e-01 7.51260936e-01 8.11721802e-01 8.50287557e-01 8.73218358e-01 8.59021842e-01 5.04994750e-01 7.13676140e-02 1.20181777e-01 7.98631489e-01 5.42744957e-02 1.00223469e-02 1.02550900e-02 2.14280218e-01 3.97329211e-01 2.06689641e-01 1.49977446e-01 1.37829855e-01 1.31059602e-01 1.22768961e-01 1.14868604e-01 1.10012762e-01 1.09054901e-01 1.11610815e-01 1.17158890e-01 1.25972718e-01 1.40028954e-01 1.63480327e-01 2.00821534e-01 2.50754774e-01 3.04153860e-01 3.57130200e-01 4.03940767e-01 4.11779374e-01 3.65062416e-01 3.01193506e-01 1.56897023e-01 4.22233827e-02 1.64299253e-02 1.90485828e-02 6.75552264e-02 5.68775944e-02 9.69087798e-03 1.00068264e-02 3.27161133e-01 4.35200095e-01 1.28968194e-01 8.81636292e-02 8.76748934e-02 8.97091478e-02 8.83199498e-02 8.52874741e-02 8.32119584e-02 8.30921084e-02 8.46306309e-02 8.71473849e-02 9.04218182e-02 9.54698846e-02 1.04858525e-01 1.20974414e-01 1.39437512e-01 1.44616947e-01 1.32292494e-01 1.14209846e-01 8.47026929e-02 5.30605204e-02 4.17268686e-02 4.05883454e-02 2.88923942e-02 1.23236924e-02 1.67694595e-02 3.85549366e-02 6.49251714e-02 9.40812659e-03 9.76296049e-03 4.81119335e-01 3.64363551e-01 7.45503828e-02 5.29093295e-02 5.65951392e-02 6.24765381e-02 6.59683868e-02 6.72860369e-02 6.79113641e-02 6.86880052e-02 6.95571974e-02 7.00447708e-02 6.98832124e-02 6.96352720e-02 7.10239634e-02 7.61328191e-02 8.41421708e-02 8.44496414e-02 6.84547648e-02 4.97783609e-02 3.15792710e-02 1.21057183e-02 1.02249859e-02 1.88686140e-02 1.88193470e-02 9.46378987e-03 1.36056757e-02 3.58897299e-02 7.33313486e-02 9.32395644e-03 9.58814286e-03 4.77746010e-01 1.50812894e-01 3.61297838e-02 3.10230199e-02 3.87617350e-02 4.83933352e-02 5.57456203e-02 5.98697327e-02 6.15891814e-02 6.19276501e-02 6.13829829e-02 6.00374639e-02 5.78584298e-02 5.50730750e-02 5.26056476e-02 5.20720258e-02 5.52928038e-02 6.24420755e-02 6.02565818e-02 4.63656783e-02 2.35811640e-02 5.63178444e-03 6.90621510e-03 1.47198131e-02 1.41507378e-02 9.68742371e-03 1.42487036e-02 3.67046595e-02 4.28991579e-03 4.55467124e-03 2.19686562e-03 1.95752054e-01 5.80548048e-02 2.19804179e-02 2.38204952e-02 3.59623209e-02 4.84663583e-02 5.71221299e-02 6.06715716e-02 6.03855774e-02 5.81168942e-02 5.51597252e-02 5.21874949e-02 4.94561791e-02 4.68959324e-02 4.43407707e-02 4.21639383e-02 4.12240848e-02 4.30803001e-02 4.80894931e-02 4.62705046e-02 2.61818748e-02 4.23999270e-03 6.50806725e-03 5.05071133e-02 2.63382513e-02 1.57076567e-02 2.40928344e-02 4.05152850e-02 4.79840906e-03 2.98251188e-03 2.55824788e-03 3.06171142e-02 4.62741219e-02 2.27111615e-02 3.33225988e-02 5.19065484e-02 6.33435696e-02 6.63468838e-02 6.47285953e-02 6.04219958e-02 5.50881438e-02 4.98221666e-02 4.51905131e-02 4.16389480e-02 3.96752469e-02 3.95408757e-02 4.03607227e-02 4.03229259e-02 3.92919295e-02 4.12404202e-02 3.69772092e-02 2.27963533e-02 7.12272385e-03 5.45155024e-03 6.32029623e-02 2.00278684e-02 3.53671350e-02 4.29078154e-02 4.96698283e-02 4.88927737e-02 4.43123886e-03 6.82786822e-01 1.76787488e-02 3.79843861e-02 6.36044145e-02 6.51392341e-02 8.15163106e-02 7.92474970e-02 7.42691159e-02 7.04170465e-02 6.66705072e-02 6.24910444e-02 5.77632561e-02 5.23917452e-02 4.65863384e-02 4.11998741e-02 3.76813412e-02 3.74602526e-02 4.00250144e-02 4.34279330e-02 5.50528392e-02 8.59886482e-02 3.82937007e-02 9.86431725e-03 6.88000442e-03 1.26347184e-01 5.98662393e-03 5.03240991e-03 2.57970858e-02 3.87557745e-02 5.20557240e-02 1.02460742e-01 3.71047854e-01 1.87675108e-03 1.27287291e-03 4.46936637e-02 7.47926533e-02 9.92588475e-02 1.00668535e-01 1.02325112e-01 1.09542079e-01 1.20895326e-01 1.33298129e-01 1.42067254e-01 1.42334223e-01 1.31513879e-01 1.10965006e-01 8.62295404e-02 6.49184212e-02 5.22063822e-02 4.73858379e-02 4.94148247e-02 6.51889667e-02 5.51034659e-02 2.99703181e-02 9.71930847e-03 5.76426573e-02 4.47583765e-01 2.41137366e-03 7.11867493e-03 3.46887261e-02 5.87257463e-03 4.01059305e-03 1.86762363e-01 4.39002831e-03 3.10259010e-03 1.21215612e-01 1.49951100e-01 2.46288151e-01 3.01933676e-01 3.70374024e-01 4.52840954e-01 5.31944096e-01 5.93366683e-01 6.33832812e-01 6.56927168e-01 6.66674256e-01 6.64523959e-01 6.47910118e-01 6.08350933e-01 5.29333770e-01 3.96792799e-01 2.56486535e-01 1.69416294e-01 1.11200288e-01 2.00620025e-01 8.57955158e-01 1.81872454e-02 7.48433769e-02 3.51855392e-03 5.10823913e-03 8.48283350e-01 
