# vtk DataFile Version 2.0
results_case1_non_linear/iter1.vtk, Created by Freefem++ 
ASCII
DATASET UNSTRUCTURED_GRID
POINTS 961 float
0 0 0
0.033333333 0 0
0.066666667 0 0
0.1 0 0
0.13333333 0 0
0.16666667 0 0
0.2 0 0
0.23333333 0 0
0.26666667 0 0
0.3 0 0
0.33333333 0 0
0.36666667 0 0
0.4 0 0
0.43333333 0 0
0.46666667 0 0
0.5 0 0
0.53333333 0 0
0.56666667 0 0
0.6 0 0
0.63333333 0 0
0.66666667 0 0
0.7 0 0
0.73333333 0 0
0.76666667 0 0
0.8 0 0
0.83333333 0 0
0.86666667 0 0
0.9 0 0
0.93333333 0 0
0.96666667 0 0
1 0 0
0 0.033333333 0
0.033333333 0.033333333 0
0.066666667 0.033333333 0
0.1 0.033333333 0
0.13333333 0.033333333 0
0.16666667 0.033333333 0
0.2 0.033333333 0
0.23333333 0.033333333 0
0.26666667 0.033333333 0
0.3 0.033333333 0
0.33333333 0.033333333 0
0.36666667 0.033333333 0
0.4 0.033333333 0
0.43333333 0.033333333 0
0.46666667 0.033333333 0
0.5 0.033333333 0
0.53333333 0.033333333 0
0.56666667 0.033333333 0
0.6 0.033333333 0
0.63333333 0.033333333 0
0.66666667 0.033333333 0
0.7 0.033333333 0
0.73333333 0.033333333 0
0.76666667 0.033333333 0
0.8 0.033333333 0
0.83333333 0.033333333 0
0.86666667 0.033333333 0
0.9 0.033333333 0
0.93333333 0.033333333 0
0.96666667 0.033333333 0
1 0.033333333 0
0 0.066666667 0
0.033333333 0.066666667 0
0.066666667 0.066666667 0
0.1 0.066666667 0
0.13333333 0.066666667 0
0.16666667 0.066666667 0
0.2 0.066666667 0
0.23333333 0.066666667 0
0.26666667 0.066666667 0
0.3 0.066666667 0
0.33333333 0.066666667 0
0.36666667 0.066666667 0
0.4 0.066666667 0
0.43333333 0.066666667 0
0.46666667 0.066666667 0
0.5 0.066666667 0
0.53333333 0.066666667 0
0.56666667 0.066666667 0
0.6 0.066666667 0
0.63333333 0.066666667 0
0.66666667 0.066666667 0
0.7 0.066666667 0
0.73333333 0.066666667 0
0.76666667 0.066666667 0
0.8 0.066666667 0
0.83333333 0.066666667 0
0.86666667 0.066666667 0
0.9 0.066666667 0
0.93333333 0.066666667 0
0.96666667 0.066666667 0
1 0.066666667 0
0 0.1 0
0.033333333 0.1 0
0.066666667 0.1 0
0.1 0.1 0
0.13333333 0.1 0
0.16666667 0.1 0
0.2 0.1 0
0.23333333 0.1 0
0.26666667 0.1 0
0.3 0.1 0
0.33333333 0.1 0
0.36666667 0.1 0
0.4 0.1 0
0.43333333 0.1 0
0.46666667 0.1 0
0.5 0.1 0
0.53333333 0.1 0
0.56666667 0.1 0
0.6 0.1 0
0.63333333 0.1 0
0.66666667 0.1 0
0.7 0.1 0
0.73333333 0.1 0
0.76666667 0.1 0
0.8 0.1 0
0.83333333 0.1 0
0.86666667 0.1 0
0.9 0.1 0
0.93333333 0.1 0
0.96666667 0.1 0
1 0.1 0
0 0.13333333 0
0.033333333 0.13333333 0
0.066666667 0.13333333 0
0.1 0.13333333 0
0.13333333 0.13333333 0
0.16666667 0.13333333 0
0.2 0.13333333 0
0.23333333 0.13333333 0
0.26666667 0.13333333 0
0.3 0.13333333 0
0.33333333 0.13333333 0
0.36666667 0.13333333 0
0.4 0.13333333 0
0.43333333 0.13333333 0
0.46666667 0.13333333 0
0.5 0.13333333 0
0.53333333 0.13333333 0
0.56666667 0.13333333 0
0.6 0.13333333 0
0.63333333 0.13333333 0
0.66666667 0.13333333 0
0.7 0.13333333 0
0.73333333 0.13333333 0
0.76666667 0.13333333 0
0.8 0.13333333 0
0.83333333 0.13333333 0
0.86666667 0.13333333 0
0.9 0.13333333 0
0.93333333 0.13333333 0
0.96666667 0.13333333 0
1 0.13333333 0
0 0.16666667 0
0.033333333 0.16666667 0
0.066666667 0.16666667 0
0.1 0.16666667 0
0.13333333 0.16666667 0
0.16666667 0.16666667 0
0.2 0.16666667 0
0.23333333 0.16666667 0
0.26666667 0.16666667 0
0.3 0.16666667 0
0.33333333 0.16666667 0
0.36666667 0.16666667 0
0.4 0.16666667 0
0.43333333 0.16666667 0
0.46666667 0.16666667 0
0.5 0.16666667 0
0.53333333 0.16666667 0
0.56666667 0.16666667 0
0.6 0.16666667 0
0.63333333 0.16666667 0
0.66666667 0.16666667 0
0.7 0.16666667 0
0.73333333 0.16666667 0
0.76666667 0.16666667 0
0.8 0.16666667 0
0.83333333 0.16666667 0
0.86666667 0.16666667 0
0.9 0.16666667 0
0.93333333 0.16666667 0
0.96666667 0.16666667 0
1 0.16666667 0
0 0.2 0
0.033333333 0.2 0
0.066666667 0.2 0
0.1 0.2 0
0.13333333 0.2 0
0.16666667 0.2 0
0.2 0.2 0
0.23333333 0.2 0
0.26666667 0.2 0
0.3 0.2 0
0.33333333 0.2 0
0.36666667 0.2 0
0.4 0.2 0
0.43333333 0.2 0
0.46666667 0.2 0
0.5 0.2 0
0.53333333 0.2 0
0.56666667 0.2 0
0.6 0.2 0
0.63333333 0.2 0
0.66666667 0.2 0
0.7 0.2 0
0.73333333 0.2 0
0.76666667 0.2 0
0.8 0.2 0
0.83333333 0.2 0
0.86666667 0.2 0
0.9 0.2 0
0.93333333 0.2 0
0.96666667 0.2 0
1 0.2 0
0 0.23333333 0
0.033333333 0.23333333 0
0.066666667 0.23333333 0
0.1 0.23333333 0
0.13333333 0.23333333 0
0.16666667 0.23333333 0
0.2 0.23333333 0
0.23333333 0.23333333 0
0.26666667 0.23333333 0
0.3 0.23333333 0
0.33333333 0.23333333 0
0.36666667 0.23333333 0
0.4 0.23333333 0
0.43333333 0.23333333 0
0.46666667 0.23333333 0
0.5 0.23333333 0
0.53333333 0.23333333 0
0.56666667 0.23333333 0
0.6 0.23333333 0
0.63333333 0.23333333 0
0.66666667 0.23333333 0
0.7 0.23333333 0
0.73333333 0.23333333 0
0.76666667 0.23333333 0
0.8 0.23333333 0
0.83333333 0.23333333 0
0.86666667 0.23333333 0
0.9 0.23333333 0
0.93333333 0.23333333 0
0.96666667 0.23333333 0
1 0.23333333 0
0 0.26666667 0
0.033333333 0.26666667 0
0.066666667 0.26666667 0
0.1 0.26666667 0
0.13333333 0.26666667 0
0.16666667 0.26666667 0
0.2 0.26666667 0
0.23333333 0.26666667 0
0.26666667 0.26666667 0
0.3 0.26666667 0
0.33333333 0.26666667 0
0.36666667 0.26666667 0
0.4 0.26666667 0
0.43333333 0.26666667 0
0.46666667 0.26666667 0
0.5 0.26666667 0
0.53333333 0.26666667 0
0.56666667 0.26666667 0
0.6 0.26666667 0
0.63333333 0.26666667 0
0.66666667 0.26666667 0
0.7 0.26666667 0
0.73333333 0.26666667 0
0.76666667 0.26666667 0
0.8 0.26666667 0
0.83333333 0.26666667 0
0.86666667 0.26666667 0
0.9 0.26666667 0
0.93333333 0.26666667 0
0.96666667 0.26666667 0
1 0.26666667 0
0 0.3 0
0.033333333 0.3 0
0.066666667 0.3 0
0.1 0.3 0
0.13333333 0.3 0
0.16666667 0.3 0
0.2 0.3 0
0.23333333 0.3 0
0.26666667 0.3 0
0.3 0.3 0
0.33333333 0.3 0
0.36666667 0.3 0
0.4 0.3 0
0.43333333 0.3 0
0.46666667 0.3 0
0.5 0.3 0
0.53333333 0.3 0
0.56666667 0.3 0
0.6 0.3 0
0.63333333 0.3 0
0.66666667 0.3 0
0.7 0.3 0
0.73333333 0.3 0
0.76666667 0.3 0
0.8 0.3 0
0.83333333 0.3 0
0.86666667 0.3 0
0.9 0.3 0
0.93333333 0.3 0
0.96666667 0.3 0
1 0.3 0
0 0.33333333 0
0.033333333 0.33333333 0
0.066666667 0.33333333 0
0.1 0.33333333 0
0.13333333 0.33333333 0
0.16666667 0.33333333 0
0.2 0.33333333 0
0.23333333 0.33333333 0
0.26666667 0.33333333 0
0.3 0.33333333 0
0.33333333 0.33333333 0
0.36666667 0.33333333 0
0.4 0.33333333 0
0.43333333 0.33333333 0
0.46666667 0.33333333 0
0.5 0.33333333 0
0.53333333 0.33333333 0
0.56666667 0.33333333 0
0.6 0.33333333 0
0.63333333 0.33333333 0
0.66666667 0.33333333 0
0.7 0.33333333 0
0.73333333 0.33333333 0
0.76666667 0.33333333 0
0.8 0.33333333 0
0.83333333 0.33333333 0
0.86666667 0.33333333 0
0.9 0.33333333 0
0.93333333 0.33333333 0
0.96666667 0.33333333 0
1 0.33333333 0
0 0.36666667 0
0.033333333 0.36666667 0
0.066666667 0.36666667 0
0.1 0.36666667 0
0.13333333 0.36666667 0
0.16666667 0.36666667 0
0.2 0.36666667 0
0.23333333 0.36666667 0
0.26666667 0.36666667 0
0.3 0.36666667 0
0.33333333 0.36666667 0
0.36666667 0.36666667 0
0.4 0.36666667 0
0.43333333 0.36666667 0
0.46666667 0.36666667 0
0.5 0.36666667 0
0.53333333 0.36666667 0
0.56666667 0.36666667 0
0.6 0.36666667 0
0.63333333 0.36666667 0
0.66666667 0.36666667 0
0.7 0.36666667 0
0.73333333 0.36666667 0
0.76666667 0.36666667 0
0.8 0.36666667 0
0.83333333 0.36666667 0
0.86666667 0.36666667 0
0.9 0.36666667 0
0.93333333 0.36666667 0
0.96666667 0.36666667 0
1 0.36666667 0
0 0.4 0
0.033333333 0.4 0
0.066666667 0.4 0
0.1 0.4 0
0.13333333 0.4 0
0.16666667 0.4 0
0.2 0.4 0
0.23333333 0.4 0
0.26666667 0.4 0
0.3 0.4 0
0.33333333 0.4 0
0.36666667 0.4 0
0.4 0.4 0
0.43333333 0.4 0
0.46666667 0.4 0
0.5 0.4 0
0.53333333 0.4 0
0.56666667 0.4 0
0.6 0.4 0
0.63333333 0.4 0
0.66666667 0.4 0
0.7 0.4 0
0.73333333 0.4 0
0.76666667 0.4 0
0.8 0.4 0
0.83333333 0.4 0
0.86666667 0.4 0
0.9 0.4 0
0.93333333 0.4 0
0.96666667 0.4 0
1 0.4 0
0 0.43333333 0
0.033333333 0.43333333 0
0.066666667 0.43333333 0
0.1 0.43333333 0
0.13333333 0.43333333 0
0.16666667 0.43333333 0
0.2 0.43333333 0
0.23333333 0.43333333 0
0.26666667 0.43333333 0
0.3 0.43333333 0
0.33333333 0.43333333 0
0.36666667 0.43333333 0
0.4 0.43333333 0
0.43333333 0.43333333 0
0.46666667 0.43333333 0
0.5 0.43333333 0
0.53333333 0.43333333 0
0.56666667 0.43333333 0
0.6 0.43333333 0
0.63333333 0.43333333 0
0.66666667 0.43333333 0
0.7 0.43333333 0
0.73333333 0.43333333 0
0.76666667 0.43333333 0
0.8 0.43333333 0
0.83333333 0.43333333 0
0.86666667 0.43333333 0
0.9 0.43333333 0
0.93333333 0.43333333 0
0.96666667 0.43333333 0
1 0.43333333 0
0 0.46666667 0
0.033333333 0.46666667 0
0.066666667 0.46666667 0
0.1 0.46666667 0
0.13333333 0.46666667 0
0.16666667 0.46666667 0
0.2 0.46666667 0
0.23333333 0.46666667 0
0.26666667 0.46666667 0
0.3 0.46666667 0
0.33333333 0.46666667 0
0.36666667 0.46666667 0
0.4 0.46666667 0
0.43333333 0.46666667 0
0.46666667 0.46666667 0
0.5 0.46666667 0
0.53333333 0.46666667 0
0.56666667 0.46666667 0
0.6 0.46666667 0
0.63333333 0.46666667 0
0.66666667 0.46666667 0
0.7 0.46666667 0
0.73333333 0.46666667 0
0.76666667 0.46666667 0
0.8 0.46666667 0
0.83333333 0.46666667 0
0.86666667 0.46666667 0
0.9 0.46666667 0
0.93333333 0.46666667 0
0.96666667 0.46666667 0
1 0.46666667 0
0 0.5 0
0.033333333 0.5 0
0.066666667 0.5 0
0.1 0.5 0
0.13333333 0.5 0
0.16666667 0.5 0
0.2 0.5 0
0.23333333 0.5 0
0.26666667 0.5 0
0.3 0.5 0
0.33333333 0.5 0
0.36666667 0.5 0
0.4 0.5 0
0.43333333 0.5 0
0.46666667 0.5 0
0.5 0.5 0
0.53333333 0.5 0
0.56666667 0.5 0
0.6 0.5 0
0.63333333 0.5 0
0.66666667 0.5 0
0.7 0.5 0
0.73333333 0.5 0
0.76666667 0.5 0
0.8 0.5 0
0.83333333 0.5 0
0.86666667 0.5 0
0.9 0.5 0
0.93333333 0.5 0
0.96666667 0.5 0
1 0.5 0
0 0.53333333 0
0.033333333 0.53333333 0
0.066666667 0.53333333 0
0.1 0.53333333 0
0.13333333 0.53333333 0
0.16666667 0.53333333 0
0.2 0.53333333 0
0.23333333 0.53333333 0
0.26666667 0.53333333 0
0.3 0.53333333 0
0.33333333 0.53333333 0
0.36666667 0.53333333 0
0.4 0.53333333 0
0.43333333 0.53333333 0
0.46666667 0.53333333 0
0.5 0.53333333 0
0.53333333 0.53333333 0
0.56666667 0.53333333 0
0.6 0.53333333 0
0.63333333 0.53333333 0
0.66666667 0.53333333 0
0.7 0.53333333 0
0.73333333 0.53333333 0
0.76666667 0.53333333 0
[...]
CELL_DATA 1920
Scalars  Label int 1
LOOKUP_TABLE FreeFempp_table
0
0
0
0
0
0
0
0
0
0
0
0
0
0
0
0
0
0
0
0
0
0
0
0
0
0
0
0
0
0
0
0
0
0
0
0
0
0
0
0
0
0
0
0
0
0
0
0
0
0
0
0
0
0
0
0
0
0
0
0
0
0
0
0
0
0
0
0
0
0
0
0
0
0
0
0
0
0
0
0
0
0
0
0
0
0
0
0
0
0
0
0
0
0
0
0
0
0
0
0
0
0
0
0
0
0
0
0
0
0
0
0
0
0
0
0
0
0
0
0
0
0
0
0
0
0
0
0
0
0
0
0
0
0
0
0
0
0
0
0
0
0
0
0
0
0
0
0
0
0
0
0
0
0
0
0
0
0
0
0
0
0
0
0
0
0
0
0
0
0
0
0
0
0
0
0
0
0
0
0
0
0
0
0
0
0
0
0
0
0
0
0
0
0
0
0
0
0
0
0
0
0
0
0
0
0
0
0
0
0
0
0
0
0
0
0
0
0
0
0
0
0
0
0
0
0
0
0
0
0
0
0
0
0
0
0
0
0
0
0
0
0
0
0
0
0
0
0
0
0
0
0
0
0
0
0
0
0
0
0
0
0
0
0
0
0
0
0
0
0
0
0
0
0
0
0
0
0
0
0
0
0
0
0
0
0
0
0
0
0
0
0
0
0
0
0
0
0
0
0
0
0
0
0
0
0
0
0
0
0
0
0
0
0
0
0
0
0
0
0
0
0
0
0
0
0
0
0
0
0
0
0
0
0
0
0
0
0
0
0
0
0
0
0
0
0
0
0
0
0
0
0
0
0
0
0
0
0
0
0
0
0
0
0
0
0
0
0
0
0
0
0
0
0
0
0
0
0
0
0
0
0
0
0
0
0
0
0
0
0
0
0
0
0
0
0
0
0
0
0
0
0
0
0
0
0
0
0
0
0
0
0
0
0
0
0
0
0
0
0
0
0
0
0
0
0
0
0
0
0
0
0
0
0
0
0
0
0
0
0
0
0
0
0
0
0
0
0
0
0
0
0
0
0
0
0
0
0
0
0
0
0
0
0
0
0
0
0
0
0
0
0
0
0
0
0
0
0
0
0
0
0
0
0
0
0
0
0
0
0
0
0
0
0
0
0
0
0
0
0
0
0
0
0
0
0
0
0
0
0
0
0
0
0
0
0
0
0
0
0
0
0
0
0
0
0
0
0
0
0
0
0
0
0
0
0
0
0
0
0
0
0
0
0
0
0
0
0
0
0
0
0
0
0
0
0
0
0
0
0
0
0
0
0
0
0
0
0
0
0
0
0
0
0
0
0
0
0
0
0
0
0
0
0
0
0
0
0
0
0
0
0
0
0
0
0
0
0
0
0
0
0
0
0
0
0
0
0
0
0
0
0
0
0
0
0
0
0
0
0
0
0
0
0
0
0
0
0
0
0
0
0
0
0
0
0
0
0
0
0
0
0
0
0
0
0
0
0
0
0
0
0
0
0
0
0
0
0
0
0
0
0
0
0
0
0
0
0
0
0
0
0
0
0
0
0
0
0
0
0
0
0
0
0
0
0
0
0
0
0
0
0
0
0
0
0
0
0
0
0
0
0
0
0
0
0
0
0
0
0
0
0
0
0
0
0
0
0
0
0
0
0
0
0
0
0
0
0
0
0
0
0
0
0
0
0
0
0
0
0
0
0
0
0
0
0
0
0
0
0
0
0
0
0
0
0
0
0
0
0
0
0
0
0
0
0
0
0
0
0
0
0
0
0
0
0
0
0
0
0
0
0
0
0
0
0
0
0
0
0
0
0
0
0
0
0
0
0
0
0
0
0
0
0
0
0
0
0
0
0
0
0
0
0
0
0
0
0
0
0
0
0
0
0
0
0
0
0
0
0
0
0
0
0
0
0
0
0
0
0
0
0
0
0
0
0
0
0
0
0
0
0
0
0
0
0
0
0
0
0
0
0
0
0
0
0
0
0
0
0
0
0
0
0
0
0
0
0
0
0
0
0
0
0
0
0
0
0
0
0
0
0
0
0
0
0
0
0
0
0
0
0
0
0
0
0
0
0
0
0
0
0
0
0
0
0
0
0
0
0
0
0
0
0
0
0
0
0
0
0
0
0
0
0
0
0
0
0
0
0
0
0
0
0
0
0
0
0
0
0
0
0
0
0
0
0
0
0
0
0
0
0
0
0
0
0
0
0
0
0
0
0
0
0
0
0
0
0
0
0
0
0
0
0
0
0
0
0
0
0
0
0
0
0
0
0
0
0
0
0
0
0
0
0
0
0
0
0
0
0
0
0
0
0
0
0
0
0
0
0
0
0
0
0
0
0
0
0
0
0
0
0
0
0
0
0
0
0
0
0
0
0
0
0
0
0
0
0
0
0
0
0
0
0
0
0
0
0
0
0
0
0
0
0
0
0
0
0
0
0
0
0
0
0
0
0
0
0
0
0
0
0
0
0
0
0
0
0
0
0
0
0
0
0
0
0
0
0
0
0
0
0
0
0
0
0
0
0
0
0
0
0
0
0
0
0
0
0
0
0
0
0
0
0
0
0
0
0
0
0
0
0
0
0
0
0
0
0
0
0
0
0
0
0
0
0
0
0
0
0
0
0
0
0
0
0
0
0
0
0
0
0
0
0
0
0
0
0
0
0
0
0
0
0
0
0
0
0
0
0
0
0
0
0
0
0
0
0
0
0
0
0
0
0
0
0
0
0
0
0
0
0
0
0
0
0
0
0
0
0
0
0
0
0
0
0
0
0
0
0
0
0
0
0
0
0
0
0
0
0
0
0
0
0
0
0
0
0
0
0
0
0
0
0
0
0
0
0
0
0
0
0
0
0
0
0
0
0
0
0
0
0
0
0
0
0
0
0
0
0
0
0
0
0
0
0
0
0
0
0
0
0
0
0
0
0
0
0
0
0
0
0
0
0
0
0
0
0
0
0
0
0
0
0
0
0
0
0
0
0
0
0
0
0
0
0
0
0
0
0
0
0
0
0
0
0
0
0
0
0
0
0
0
0
0
0
0
0
0
0
0
0
0
0
0
0
0
0
0
0
0
0
0
0
0
0
0
0
0
0
0
0
0
0
0
0
0
0
0
0
0
0
0
0
0
0
0
0
0
0
0
0
0
0
0
0
0
0
0
0
0
0
0
0
0
0
0
0
0
0
0
0
0
0
0
0
0
0
0
0
0
0
0
0
0
0
0
0
0
0
0
0
0
0
0
0
0
0
0
0
0
0
0
0
0
0
0
0
0
0
0
0
0
0
0
0
0
0
0
0
0
0
0
0
0
0
0
0
0
0
0
0
0
0
0
0
0
0
0
0
0
0
0
0
0
0
0
0
0
0
0
0
0
0
0
0
0
0
0
0
0
0
0
0
0
0
0
0
0
0
0
0
0
0
0
0
0
0
0
0
0
0
0
0
0
0
0
0
0
0
0
0
0
0
0
0
0
0
0
0
0
0
0
0
0
0
0
0
0
0
0
0
0
0
0
0
0
0
0
0
0
0
0
0
0
0
0
0
0
0
0
0
0
0
0
0
0
0
0
0
0
0
0
0
0
0
0
0
0
0
0
0
0
0
0
0
0
0
0
0
0
0
0
0
0
0
0
0
0
0
0
0
0
0
0
0
0
0
0
0
0
0
0
0
0
0
0
0
0
0
0
0
0
0
0
0
0
0
0
0
0
0
0
0
0
0
0
0
0
0
0
0
0
0
0
0
0
0
0
0
0
0
0
0
0
0
0
0
0
0
0
0
0
0
0
0
0
0
0
0
0
0
0
0
0
0
0
0
0
0
0
0
0
0
0
0
0
0
0
0
0
0
0
0
0
0
0
0
0
0
0
0
0
0
0
0
0
0
0
0
0
0
0
0
0
0
0
0
0
0
0
0
0
0
0
0
0
0
0
0
0
0
0
0
0
0
0
0
0
0
0
0
0
0
0
0
0
0
0
0
0
0
0
0
0
0
0
0
0
0
0
0
0
0
0
0
0
0
0
0
0
0
0
0
0
0
0
0
0
0
0
0
0
0
0
0
0
0
0
0
0
0
0
0
0
0
0
0
0
0
1
1
1
1
1
1
1
1
1
1
1
1
1
1
1
1
1
1
1
1
1
1
1
1
1
1
1
1
1
1
2
2
2
2
2
2
2
2
2
2
2
2
2
2
2
2
2
2
2
2
2
2
2
2
2
2
2
2
2
2
3
3
3
3
3
3
3
3
3
3
3
3
3
3
3
3
3
3
3
3
3
3
3
3
3
3
3
3
3
3
4
4
4
4
4
4
4
4
4
4
4
4
4
4
4
4
4
4
4
4
4
4
4
4
4
4
4
4
4
4

LOOKUP_TABLE FreeFempp_table 5
1.00000000 0.00000000 0.00000000 1.00000000
1.00000000 1.00000000 0.00000000 1.00000000
1.00000000 0.00000000 1.00000000 1.00000000
0.00000000 1.00000000 0.00000000 1.00000000
0.00000000 1.00000000 1.00000000 1.00000000

POINT_DATA 961
FIELD FieldData 1
Density 1 961 float
4.81679499e-01 4.57724929e-01 4.78098661e-01 4.81801271e-01 4.78662223e-01 4.70234334e-01 4.44617987e-01 2.94665188e-01 1.32873682e-02 4.15112171e-03 8.60185642e-03 2.18902618e-01 4.30511117e-01 4.74462450e-01 5.31566560e-01 6.87604308e-01 8.09515893e-01 7.65131474e-01 7.20251977e-01 7.79817581e-01 7.74518490e-01 7.59236753e-01 7.49289870e-01 7.33483970e-01 7.13817060e-01 6.95516229e-01 6.81580007e-01 6.70081735e-01 6.64522648e-01 6.66203618e-01 6.30680501e-01 6.95866824e-04 3.07331383e-01 3.93737376e-01 3.97701919e-01 3.93305302e-01 3.85512978e-01 3.63462597e-01 2.56518602e-01 1.72224212e-02 3.60227097e-03 3.81171796e-03 9.27408636e-02 3.40176702e-01 3.84245157e-01 4.21762884e-01 6.38025820e-01 8.84628236e-01 7.44147897e-01 4.52553540e-01 7.42464840e-01 8.07583749e-01 8.04966807e-01 8.05551231e-01 8.00747752e-01 7.84585357e-01 7.61757016e-01 7.35912025e-01 7.14442015e-01 7.02951729e-01 6.95936263e-01 6.63575649e-01 4.82816540e-04 4.07569751e-04 6.39565056e-04 6.34101452e-04 6.42513798e-04 6.51982438e-04 6.55820360e-04 6.57402852e-04 6.65356405e-04 6.87545864e-04 6.08660863e-04 4.19757925e-02 3.44818532e-01 4.01547253e-01 3.97005200e-01 4.68904823e-01 8.50147665e-01 2.15871055e-02 6.94806920e-03 1.43655352e-02 1.89719517e-02 4.14948389e-02 1.25895396e-01 2.91284472e-01 4.57331330e-01 5.60594916e-01 6.02434337e-01 6.09449625e-01 6.11225009e-01 6.02123737e-01 6.21874690e-01 4.56976235e-01 6.03834691e-04 6.59180223e-04 6.24324428e-04 6.36942452e-04 6.45455439e-04 6.52492745e-04 6.52834016e-04 6.59388839e-04 6.99677272e-04 4.35289665e-04 4.35524824e-04 6.01059350e-04 8.23890499e-04 5.87108138e-04 3.04410607e-01 6.42715454e-01 9.48193729e-01 9.06384178e-03 8.69031250e-03 4.70903004e-03 3.03904386e-03 2.54768389e-03 2.82762200e-03 4.89630923e-03 3.44245583e-02 2.21294403e-01 4.30543005e-01 4.83216435e-01 4.93553102e-01 5.62706411e-01 4.46577638e-01 2.63639748e-01 1.94132909e-01 2.23644435e-01 2.65615821e-01 3.00549924e-01 3.32534552e-01 3.60657573e-01 3.82999778e-01 3.94430876e-01 3.52487773e-01 6.48834568e-04 6.65338361e-04 5.27491677e-04 4.41082579e-04 4.07515123e-04 1.01349666e-03 1.55105593e-03 9.96099651e-01 2.86606159e-02 1.04510989e-02 4.64281673e-03 2.95877946e-03 2.16567772e-03 1.74008659e-03 1.61214103e-03 8.84544104e-03 1.33042946e-01 3.05741996e-01 3.69181097e-01 4.87101763e-01 4.56205279e-01 2.94670016e-01 2.36569911e-01 2.45363653e-01 2.77663440e-01 3.09846580e-01 3.39081198e-01 3.63790900e-01 3.83856535e-01 3.99356544e-01 4.05611187e-01 4.00959492e-01 4.00319368e-01 3.74104708e-01 1.04720987e-01 5.44422830e-04 7.61402189e-04 7.11423228e-04 6.84197468e-04 9.83016014e-01 4.22862619e-01 2.61318237e-01 1.58680841e-01 3.11429091e-02 5.05093578e-03 1.31571025e-03 1.14656612e-03 6.99326908e-03 1.23382702e-01 2.20813036e-01 3.30416113e-01 4.96890754e-01 3.59271914e-01 3.41970026e-01 3.45164061e-01 3.59036356e-01 3.80027294e-01 3.98747832e-01 4.14635122e-01 4.27746952e-01 4.38760519e-01 4.46303487e-01 4.47145790e-01 4.46576536e-01 4.53047961e-01 4.50744331e-01 4.39199150e-01 3.82332265e-01 3.02215642e-03 6.05065143e-04 5.68615040e-04 9.57792580e-01 9.30308342e-01 9.10817623e-01 8.24132562e-01 4.52470750e-01 3.32212523e-02 1.14253059e-03 1.00902433e-03 1.25360219e-02 1.61141664e-01 2.69519746e-01 5.48769474e-01 4.51528162e-01 4.47185397e-01 4.47515041e-01 4.52326298e-01 4.63531941e-01 4.73556697e-01 4.82755005e-01 4.90946651e-01 4.97921288e-01 5.02596200e-01 5.03759205e-01 5.03130436e-01 5.03108859e-01 5.01786232e-01 4.99953002e-01 4.94080514e-01 4.79440957e-01 4.48327869e-01 6.20880804e-04 6.90262008e-04 7.91265190e-01 8.58390510e-01 8.19946527e-01 8.83623660e-01 7.92117238e-01 1.36204492e-02 1.01459085e-03 1.57851074e-03 1.22546785e-01 3.02874029e-01 6.07879281e-01 5.64081252e-01 5.62944472e-01 5.58499813e-01 5.56829989e-01 5.58609486e-01 5.60111284e-01 5.62020719e-01 5.63876748e-01 5.65039158e-01 5.64730823e-01 5.62683523e-01 5.59813559e-01 5.56940019e-01 5.53942680e-01 5.51336467e-01 5.48161387e-01 5.41303515e-01 5.27866662e-01 5.08706331e-01 7.39608600e-04 8.29132739e-04 4.93222056e-03 3.70675102e-02 5.09124510e-02 7.92782784e-01 9.87364531e-01 1.16534322e-03 7.96722888e-04 3.82175967e-02 4.50552464e-01 6.57710135e-01 6.71276569e-01 6.67308331e-01 6.59949780e-01 6.52619243e-01 6.45477951e-01 6.39212251e-01 6.34071231e-01 6.29415631e-01 6.24727905e-01 6.19584739e-01 6.14081383e-01 6.08807206e-01 6.04172409e-01 6.00503087e-01 5.98315775e-01 5.97258449e-01 5.96370757e-01 5.93728721e-01 5.87509453e-01 5.58658004e-01 1.06950395e-03 1.30786654e-03 1.84660277e-03 1.10386536e-02 1.32901892e-02 9.61663544e-01 3.85946572e-01 7.76125875e-04 1.11998105e-03 4.69367236e-01 6.72718823e-01 7.19196379e-01 7.11950898e-01 7.05817521e-01 6.98817313e-01 6.90853894e-01 6.82837844e-01 6.75262570e-01 6.67916358e-01 6.60592079e-01 6.53173447e-01 6.45917892e-01 6.39306962e-01 6.33728147e-01 6.29642606e-01 6.27581775e-01 6.27759933e-01 6.30506396e-01 6.36122465e-01 6.45415902e-01 6.61284268e-01 6.41216695e-01 3.85517045e-03 1.91251317e-03 1.91396417e-03 1.00937979e-02 1.43984621e-02 9.95260715e-01 1.28232501e-03 7.50146166e-04 3.67443830e-01 6.41103506e-01 6.91757858e-01 6.87442243e-01 6.88492537e-01 6.88163102e-01 6.86111450e-01 6.82751775e-01 6.78523958e-01 6.73497617e-01 6.67668879e-01 6.61176026e-01 6.54445708e-01 6.48001909e-01 6.42282844e-01 6.37725234e-01 6.34750724e-01 6.33780658e-01 6.35692179e-01 6.42027438e-01 6.55593514e-01 6.81006432e-01 7.27061749e-01 7.53877938e-01 1.52381241e-01 8.65406729e-03 7.73064978e-03 5.11075603e-03 2.41256058e-01 9.87288773e-01 6.89219334e-04 9.28730762e-04 5.69724083e-01 5.74566424e-01 5.84724724e-01 6.02196872e-01 6.20356917e-01 6.35121167e-01 6.45388901e-01 6.51432455e-01 6.53740644e-01 6.52937353e-01 6.49811089e-01 6.45270467e-01 6.40136659e-01 6.35017335e-01 6.30331874e-01 6.26312852e-01 6.23144805e-01 6.21365011e-01 6.22239709e-01 6.28444493e-01 6.44985676e-01 6.79356098e-01 7.61949003e-01 8.31585288e-01 6.49374187e-01 8.34882185e-02 7.63217080e-03 9.47794504e-03 9.69528437e-01 1.78805820e-03 1.25460105e-03 4.79208082e-01 4.10876244e-01 4.28637892e-01 4.62328523e-01 5.05081236e-01 5.47653198e-01 5.82063258e-01 6.05916619e-01 6.20116234e-01 6.26832068e-01 6.28328383e-01 6.26541376e-01 6.22941315e-01 6.18541777e-01 6.13973498e-01 6.09530747e-01 6.05284989e-01 6.01272047e-01 5.97617745e-01 5.94794929e-01 5.94090998e-01 5.98592818e-01 6.21681869e-01 7.03817010e-01 7.78640449e-01 5.40228486e-01 1.03763670e-01 2.07570359e-01 9.74690735e-01 1.82430050e-03 1.68323424e-03 3.82274121e-01 2.43573174e-01 2.52812773e-01 2.97858804e-01 3.64455581e-01 4.40649450e-01 5.07227421e-01 5.54380476e-01 5.83084643e-01 5.98226249e-01 6.04413807e-01 6.05034590e-01 6.02399349e-01 5.98049581e-01 5.93007326e-01 5.87936103e-01 5.83267093e-01 5.79237878e-01 5.75725913e-01 5.71889043e-01 5.65582037e-01 5.53360343e-01 5.34080446e-01 5.23790538e-01 5.42733192e-01 5.69808066e-01 4.96555716e-01 7.75214732e-01 9.82311308e-01 1.98777416e-03 1.83282839e-03 2.93154746e-01 1.24416180e-01 1.19160369e-01 1.57558888e-01 2.31602117e-01 3.35394681e-01 4.35853630e-01 5.07845402e-01 5.50954759e-01 5.73827505e-01 5.84001482e-01 5.86413682e-01 5.84150255e-01 5.79190612e-01 5.72891295e-01 5.66293538e-01 5.60313523e-01 5.55756450e-01 5.53079486e-01 5.51907837e-01 5.50215602e-01 5.43434262e-01 5.25481999e-01 4.99303758e-01 4.86897230e-01 5.25229216e-01 6.33300483e-01 8.65233362e-01 9.67568576e-01 2.15518940e-03 2.00228579e-03 2.16474518e-01 6.09458685e-02 5.23333251e-02 7.72875473e-02 1.42839327e-01 2.58245498e-01 3.83500338e-01 4.75101501e-01 5.29126346e-01 5.57650268e-01 5.70727885e-01 5.74455798e-01 5.72424412e-01 5.66859722e-01 5.59284687e-01 5.50940812e-01 5.43062329e-01 5.36917508e-01 5.33560574e-01 5.33436477e-01 5.36008060e-01 5.39529562e-01 5.41177928e-01 5.40153563e-01 5.50052762e-01 6.04732394e-01 7.37320960e-01 8.88823509e-01 9.18956637e-01 2.35376786e-03 2.18603830e-03 1.45710200e-01 3.02031226e-02 2.59426553e-02 4.19864431e-02 1.01705477e-01 2.23451495e-01 3.61584395e-01 4.61461633e-01 5.19460082e-01 5.50249636e-01 5.64861774e-01 5.69595039e-01 5.68048298e-01 5.62449038e-01 5.54345846e-01 5.45032620e-01 5.35869241e-01 5.28429389e-01 5.24314821e-01 5.24773359e-01 5.30527055e-01 5.41935205e-01 5.59124410e-01 5.82609951e-01 6.20351970e-01 6.86562955e-01 8.02535295e-01 8.94001365e-01 7.99725294e-01 2.60690926e-03 2.40328861e-03 8.03262591e-02 1.69400033e-02 1.65752452e-02 2.90998593e-02 9.48689431e-02 2.30207682e-01 3.71394843e-01 4.66200978e-01 5.20064533e-01 5.49251795e-01 5.63950002e-01 5.69554806e-01 5.69046140e-01 5.64325511e-01 5.56856215e-01 5.47968805e-01 5.39041877e-01 5.31674862e-01 5.27762949e-01 5.29282451e-01 5.38086832e-01 5.55864811e-01 5.82748234e-01 6.18933618e-01 6.73594356e-01 7.55333543e-01 8.42790186e-01 8.72354686e-01 4.74072039e-01 2.91288109e-03 2.65440950e-03 3.49460877e-02 1.21504590e-02 1.27856769e-02 2.78219376e-02 1.17107049e-01 2.73926079e-01 4.04523313e-01 4.82490003e-01 5.26162207e-01 5.50924718e-01 5.64707994e-01 5.71321785e-01 5.72678506e-01 5.70025980e-01 5.64571500e-01 5.57720900e-01 5.51000774e-01 5.45851946e-01 5.43751538e-01 5.46706200e-01 5.57461500e-01 5.79193711e-01 6.12408161e-01 6.56819344e-01 7.23973513e-01 8.04038823e-01 8.54000866e-01 7.54424810e-01 4.97589409e-02 3.41894338e-03 2.94523383e-03 1.60999764e-02 1.01439431e-02 1.12005547e-02 3.68607640e-02 1.73889861e-01 3.43017101e-01 4.46187586e-01 5.01222312e-01 5.32494187e-01 5.51888406e-01 5.64500034e-01 5.72420299e-01 5.76434910e-01 5.77018619e-01 5.74928045e-01 5.71509719e-01 5.68604052e-01 5.67828834e-01 5.69936693e-01 5.75748920e-01 5.88473976e-01 6.12559736e-01 6.48915589e-01 6.99372411e-01 7.70856440e-01 8.27471077e-01 8.08560371e-01 2.83688843e-01 1.52963325e-02 4.92828107e-03 3.88469943e-03 8.99979472e-03 8.61192215e-03 1.16858874e-02 6.58439919e-02 2.65842617e-01 4.15008128e-01 4.82431859e-01 5.15499294e-01 5.35542428e-01 5.50190926e-01 5.61938763e-01 5.71381807e-01 5.78449845e-01 5.83078504e-01 5.85634708e-01 5.87206542e-01 5.89650691e-01 5.94917357e-01 6.03723645e-01 6.15964770e-01 6.34206474e-01 6.62461460e-01 6.98319972e-01 7.45973170e-01 8.01133811e-01 8.01042974e-01 5.11474788e-01 2.50530764e-02 8.67158547e-03 6.97012199e-03 7.40579609e-03 5.05643943e-03 6.22652564e-03 1.50345555e-02 1.34434387e-01 3.69159102e-01 4.70866352e-01 5.06282687e-01 5.22375703e-01 5.34075975e-01 5.45421541e-01 5.56878865e-01 5.67929149e-01 5.78028202e-01 5.86945117e-01 5.94880700e-01 6.02524936e-01 6.11088634e-01 6.22313857e-01 6.38301194e-01 6.61060631e-01 6.92702591e-01 7.32551396e-01 7.68004715e-01 7.82766581e-01 7.50902176e-01 4.89670038e-01 3.47525924e-02 1.23820268e-02 8.61168280e-03 9.16758925e-03 1.84393656e-02 3.39469686e-03 4.14968934e-03 2.44920570e-02 2.48736396e-01 4.52054113e-01 5.05122960e-01 5.17023742e-01 5.21782935e-01 5.28363943e-01 5.38025737e-01 5.49759388e-01 5.62355518e-01 5.75092494e-01 5.87765515e-01 6.00526690e-01 6.13777280e-01 6.28313601e-01 6.45970523e-01 6.70838892e-01 7.06726968e-01 7.51776338e-01 7.95521975e-01 8.18551242e-01 7.75590718e-01 2.97571331e-01 1.79868340e-02 1.33371009e-02 1.13933636e-02 1.19180214e-02 1.86046958e-02 1.39475852e-01 2.70656357e-03 3.11018620e-03 5.85312359e-02 3.74577016e-01 5.03511488e-01 5.19946098e-01 5.16488135e-01 5.14886200e-01 5.19187272e-01 5.28455913e-01 5.40740550e-01 5.54573596e-01 5.69248319e-01 5.84611773e-01 6.00834250e-01 6.18366241e-01 6.38217032e-01 6.62466347e-01 6.94776893e-01 7.36503065e-01 7.83957779e-01 8.09660792e-01 8.22798729e-01 7.29551315e-01 2.66500950e-01 3.08253579e-02 1.42441010e-02 1.58091951e-02 2.94194855e-02 1.52205616e-01 4.26263094e-01 2.35689618e-03 2.59181019e-03 1.47124574e-01 4.69479352e-01 5.27517319e-01 5.18925428e-01 5.07037044e-01 5.03222823e-01 5.07309437e-01 5.16781807e-01 5.29398024e-01 5.43880284e-01 5.59698820e-01 5.76723337e-01 5.95110655e-01 6.15436435e-01 6.38892472e-01 6.67274058e-01 7.02266037e-01 7.44410574e-01 7.87232578e-01 8.23219895e-01 8.15413654e-01 7.49280632e-01 4.49896455e-01 1.54249296e-01 1.62840277e-01 3.79844904e-01 6.16605222e-01 7.00244009e-01 6.37489796e-01 2.14002235e-03 2.29756813e-03 2.75652647e-01 5.23800731e-01 5.29552996e-01 5.05804658e-01 4.91500765e-01 4.88576144e-01 4.93410826e-01 5.02799213e-01 5.14970481e-01 5.29276609e-01 5.45546710e-01 5.63666701e-01 5.83584726e-01 6.05620623e-01 6.30674243e-01 6.59887075e-01 6.93712294e-01 7.30998695e-01 7.68974006e-01 7.99362779e-01 8.15201223e-01 7.97502398e-01 7.20892966e-01 6.81788146e-01 7.52519727e-01 8.14989209e-01 8.20132792e-01 8.17960501e-01 7.26700127e-01 1.98198645e-03 2.11070478e-03 3.95364076e-01 5.44821262e-01 5.13667226e-01 4.85001385e-01 4.73458260e-01 4.73033041e-01 4.78243887e-01 4.86387074e-01 4.96829361e-01 5.09873629e-01 5.25924087e-01 5.45032322e-01 5.66814482e-01 5.90725183e-01 6.16469562e-01 6.44058108e-01 6.73299551e-01 7.03477800e-01 7.33590961e-01 7.62014925e-01 7.82849371e-01 7.89862275e-01 7.83231616e-01 7.86269188e-01 7.97743022e-01 7.97653317e-01 7.92216420e-01 7.94918537e-01 7.24882126e-01 1.80311617e-03 1.98528031e-03 4.87455428e-01 5.36559641e-01 4.87156630e-01 4.63645488e-01 4.57792729e-01 4.59224045e-01 4.62988675e-01 4.67959046e-01 4.74835753e-01 4.84856337e-01 4.99141812e-01 5.18294692e-01 5.42074800e-01 5.69275796e-01 5.98041236e-01 6.26568496e-01 6.53645277e-01 6.78754032e-01 7.02028334e-01 7.23589778e-01 7.42292047e-01 7.52703786e-01 7.50328958e-01 7.39958584e-01 7.25325048e-01 7.12019444e-01 7.07436860e-01 7.13665187e-01 6.82046950e-01 1.62186299e-03 1.80672342e-03 5.63536584e-01 5.14989197e-01 4.68853980e-01 4.52879727e-01 4.48589176e-01 4.46749181e-01 4.44954783e-01 4.43719953e-01 4.44621831e-01 4.49555308e-01 4.60405171e-01 4.78743523e-01 5.05377531e-01 5.39751053e-01 5.79476237e-01 6.20530128e-01 6.58322692e-01 6.88967645e-01 7.09976256e-01 7.20521331e-01 7.21711874e-01 7.14708209e-01 6.99829996e-01 6.79368079e-01 6.57018542e-01 6.37552321e-01 6.23853981e-01 6.22842014e-01 6.34224951e-01 2.98808888e-03 2.13589612e-03 7.31536865e-01 5.67763984e-01 5.49417377e-01 5.37348568e-01 5.30780196e-01 5.26112258e-01 5.21835387e-01 5.18034637e-01 5.15585244e-01 5.15743136e-01 5.19862771e-01 5.29104948e-01 5.44115424e-01 5.64709067e-01 5.89653611e-01 6.16679549e-01 6.42745912e-01 6.64441705e-01 6.78470731e-01 6.82554603e-01 6.76593482e-01 6.62592292e-01 6.44963562e-01 6.29189134e-01 6.17730618e-01 6.08159423e-01 5.98661244e-01 5.91170967e-01 6.03045166e-01 
