# vtk DataFile Version 2.0
results_case1_non_linear/iter3.vtk, Created by Freefem++ 
ASCII
DATASET UNSTRUCTURED_GRID
POINTS 961 float
0 0 0
0.033333333 0 0
0.066666667 0 0
0.1 0 0
0.13333333 0 0
0.16666667 0 0
0.2 0 0
0.23333333 0 0
0.26666667 0 0
0.3 0 0
0.33333333 0 0
0.36666667 0 0
0.4 0 0
0.43333333 0 0
0.46666667 0 0
0.5 0 0
0.53333333 0 0
0.56666667 0 0
0.6 0 0
0.63333333 0 0
0.66666667 0 0
0.7 0 0
0.73333333 0 0
0.76666667 0 0
0.8 0 0
0.83333333 0 0
0.86666667 0 0
0.9 0 0
0.93333333 0 0
0.96666667 0 0
1 0 0
0 0.033333333 0
0.033333333 0.033333333 0
0.066666667 0.033333333 0
0.1 0.033333333 0
0.13333333 0.033333333 0
0.16666667 0.033333333 0
0.2 0.033333333 0
0.23333333 0.033333333 0
0.26666667 0.033333333 0
0.3 0.033333333 0
0.33333333 0.033333333 0
0.36666667 0.033333333 0
0.4 0.033333333 0
0.43333333 0.033333333 0
0.46666667 0.033333333 0
0.5 0.033333333 0
0.53333333 0.033333333 0
0.56666667 0.033333333 0
0.6 0.033333333 0
0.63333333 0.033333333 0
0.66666667 0.033333333 0
0.7 0.033333333 0
0.73333333 0.033333333 0
0.76666667 0.033333333 0
0.8 0.033333333 0
0.83333333 0.033333333 0
0.86666667 0.033333333 0
0.9 0.033333333 0
0.93333333 0.033333333 0
0.96666667 0.033333333 0
1 0.033333333 0
0 0.066666667 0
0.033333333 0.066666667 0
0.066666667 0.066666667 0
0.1 0.066666667 0
0.13333333 0.066666667 0
0.16666667 0.066666667 0
0.2 0.066666667 0
0.23333333 0.066666667 0
0.26666667 0.066666667 0
0.3 0.066666667 0
0.33333333 0.066666667 0
0.36666667 0.066666667 0
0.4 0.066666667 0
0.43333333 0.066666667 0
0.46666667 0.066666667 0
0.5 0.066666667 0
0.53333333 0.066666667 0
0.56666667 0.066666667 0
0.6 0.066666667 0
0.63333333 0.066666667 0
0.66666667 0.066666667 0
0.7 0.066666667 0
0.73333333 0.066666667 0
0.76666667 0.066666667 0
0.8 0.066666667 0
0.83333333 0.066666667 0
0.86666667 0.066666667 0
0.9 0.066666667 0
0.93333333 0.066666667 0
0.96666667 0.066666667 0
1 0.066666667 0
0 0.1 0
0.033333333 0.1 0
0.066666667 0.1 0
0.1 0.1 0
0.13333333 0.1 0
0.16666667 0.1 0
0.2 0.1 0
0.23333333 0.1 0
0.26666667 0.1 0
0.3 0.1 0
0.33333333 0.1 0
0.36666667 0.1 0
0.4 0.1 0
0.43333333 0.1 0
0.46666667 0.1 0
0.5 0.1 0
0.53333333 0.1 0
0.56666667 0.1 0
0.6 0.1 0
0.63333333 0.1 0
0.66666667 0.1 0
0.7 0.1 0
0.73333333 0.1 0
0.76666667 0.1 0
0.8 0.1 0
0.83333333 0.1 0
0.86666667 0.1 0
0.9 0.1 0
0.93333333 0.1 0
0.96666667 0.1 0
1 0.1 0
0 0.13333333 0
0.033333333 0.13333333 0
0.066666667 0.13333333 0
0.1 0.13333333 0
0.13333333 0.13333333 0
0.16666667 0.13333333 0
0.2 0.13333333 0
0.23333333 0.13333333 0
0.26666667 0.13333333 0
0.3 0.13333333 0
0.33333333 0.13333333 0
0.36666667 0.13333333 0
0.4 0.13333333 0
0.43333333 0.13333333 0
0.46666667 0.13333333 0
0.5 0.13333333 0
0.53333333 0.13333333 0
0.56666667 0.13333333 0
0.6 0.13333333 0
0.63333333 0.13333333 0
0.66666667 0.13333333 0
0.7 0.13333333 0
0.73333333 0.13333333 0
0.76666667 0.13333333 0
0.8 0.13333333 0
0.83333333 0.13333333 0
0.86666667 0.13333333 0
0.9 0.13333333 0
0.93333333 0.13333333 0
0.96666667 0.13333333 0
1 0.13333333 0
0 0.16666667 0
0.033333333 0.16666667 0
0.066666667 0.16666667 0
0.1 0.16666667 0
0.13333333 0.16666667 0
0.16666667 0.16666667 0
0.2 0.16666667 0
0.23333333 0.16666667 0
0.26666667 0.16666667 0
0.3 0.16666667 0
0.33333333 0.16666667 0
0.36666667 0.16666667 0
0.4 0.16666667 0
0.43333333 0.16666667 0
0.46666667 0.16666667 0
0.5 0.16666667 0
0.53333333 0.16666667 0
0.56666667 0.16666667 0
0.6 0.16666667 0
0.63333333 0.16666667 0
0.66666667 0.16666667 0
0.7 0.16666667 0
0.73333333 0.16666667 0
0.76666667 0.16666667 0
0.8 0.16666667 0
0.83333333 0.16666667 0
0.86666667 0.16666667 0
0.9 0.16666667 0
0.93333333 0.16666667 0
0.96666667 0.16666667 0
1 0.16666667 0
0 0.2 0
0.033333333 0.2 0
0.066666667 0.2 0
0.1 0.2 0
0.13333333 0.2 0
0.16666667 0.2 0
0.2 0.2 0
0.23333333 0.2 0
0.26666667 0.2 0
0.3 0.2 0
0.33333333 0.2 0
0.36666667 0.2 0
0.4 0.2 0
0.43333333 0.2 0
0.46666667 0.2 0
0.5 0.2 0
0.53333333 0.2 0
0.56666667 0.2 0
0.6 0.2 0
0.63333333 0.2 0
0.66666667 0.2 0
0.7 0.2 0
0.73333333 0.2 0
0.76666667 0.2 0
0.8 0.2 0
0.83333333 0.2 0
0.86666667 0.2 0
0.9 0.2 0
0.93333333 0.2 0
0.96666667 0.2 0
1 0.2 0
0 0.23333333 0
0.033333333 0.23333333 0
0.066666667 0.23333333 0
0.1 0.23333333 0
0.13333333 0.23333333 0
0.16666667 0.23333333 0
0.2 0.23333333 0
0.23333333 0.23333333 0
0.26666667 0.23333333 0
0.3 0.23333333 0
0.33333333 0.23333333 0
0.36666667 0.23333333 0
0.4 0.23333333 0
0.43333333 0.23333333 0
0.46666667 0.23333333 0
0.5 0.23333333 0
0.53333333 0.23333333 0
0.56666667 0.23333333 0
0.6 0.23333333 0
0.63333333 0.23333333 0
0.66666667 0.23333333 0
0.7 0.23333333 0
0.73333333 0.23333333 0
0.76666667 0.23333333 0
0.8 0.23333333 0
0.83333333 0.23333333 0
0.86666667 0.23333333 0
0.9 0.23333333 0
0.93333333 0.23333333 0
0.96666667 0.23333333 0
1 0.23333333 0
0 0.26666667 0
0.033333333 0.26666667 0
0.066666667 0.26666667 0
0.1 0.26666667 0
0.13333333 0.26666667 0
0.16666667 0.26666667 0
0.2 0.26666667 0
0.23333333 0.26666667 0
0.26666667 0.26666667 0
0.3 0.26666667 0
0.33333333 0.26666667 0
0.36666667 0.26666667 0
0.4 0.26666667 0
0.43333333 0.26666667 0
0.46666667 0.26666667 0
0.5 0.26666667 0
0.53333333 0.26666667 0
0.56666667 0.26666667 0
0.6 0.26666667 0
0.63333333 0.26666667 0
0.66666667 0.26666667 0
0.7 0.26666667 0
0.73333333 0.26666667 0
0.76666667 0.26666667 0
0.8 0.26666667 0
0.83333333 0.26666667 0
0.86666667 0.26666667 0
0.9 0.26666667 0
0.93333333 0.26666667 0
0.96666667 0.26666667 0
1 0.26666667 0
0 0.3 0
0.033333333 0.3 0
0.066666667 0.3 0
0.1 0.3 0
0.13333333 0.3 0
0.16666667 0.3 0
0.2 0.3 0
0.23333333 0.3 0
0.26666667 0.3 0
0.3 0.3 0
0.33333333 0.3 0
0.36666667 0.3 0
0.4 0.3 0
0.43333333 0.3 0
0.46666667 0.3 0
0.5 0.3 0
0.53333333 0.3 0
0.56666667 0.3 0
0.6 0.3 0
0.63333333 0.3 0
0.66666667 0.3 0
0.7 0.3 0
0.73333333 0.3 0
0.76666667 0.3 0
0.8 0.3 0
0.83333333 0.3 0
0.86666667 0.3 0
0.9 0.3 0
0.93333333 0.3 0
0.96666667 0.3 0
1 0.3 0
0 0.33333333 0
0.033333333 0.33333333 0
0.066666667 0.33333333 0
0.1 0.33333333 0
0.13333333 0.33333333 0
0.16666667 0.33333333 0
0.2 0.33333333 0
0.23333333 0.33333333 0
0.26666667 0.33333333 0
0.3 0.33333333 0
0.33333333 0.33333333 0
0.36666667 0.33333333 0
0.4 0.33333333 0
0.43333333 0.33333333 0
0.46666667 0.33333333 0
0.5 0.33333333 0
0.53333333 0.33333333 0
0.56666667 0.33333333 0
0.6 0.33333333 0
0.63333333 0.33333333 0
0.66666667 0.33333333 0
0.7 0.33333333 0
0.73333333 0.33333333 0
0.76666667 0.33333333 0
0.8 0.33333333 0
0.83333333 0.33333333 0
0.86666667 0.33333333 0
0.9 0.33333333 0
0.93333333 0.33333333 0
0.96666667 0.33333333 0
1 0.33333333 0
0 0.36666667 0
0.033333333 0.36666667 0
0.066666667 0.36666667 0
0.1 0.36666667 0
0.13333333 0.36666667 0
0.16666667 0.36666667 0
0.2 0.36666667 0
0.23333333 0.36666667 0
0.26666667 0.36666667 0
0.3 0.36666667 0
0.33333333 0.36666667 0
0.36666667 0.36666667 0
0.4 0.36666667 0
0.43333333 0.36666667 0
0.46666667 0.36666667 0
0.5 0.36666667 0
0.53333333 0.36666667 0
0.56666667 0.36666667 0
0.6 0.36666667 0
0.63333333 0.36666667 0
0.66666667 0.36666667 0
0.7 0.36666667 0
0.73333333 0.36666667 0
0.76666667 0.36666667 0
0.8 0.36666667 0
0.83333333 0.36666667 0
0.86666667 0.36666667 0
0.9 0.36666667 0
0.93333333 0.36666667 0
0.96666667 0.36666667 0
1 0.36666667 0
0 0.4 0
0.033333333 0.4 0
0.066666667 0.4 0
0.1 0.4 0
0.13333333 0.4 0
0.16666667 0.4 0
0.2 0.4 0
0.23333333 0.4 0
0.26666667 0.4 0
0.3 0.4 0
0.33333333 0.4 0
0.36666667 0.4 0
0.4 0.4 0
0.43333333 0.4 0
0.46666667 0.4 0
0.5 0.4 0
0.53333333 0.4 0
0.56666667 0.4 0
0.6 0.4 0
0.63333333 0.4 0
0.66666667 0.4 0
0.7 0.4 0
0.73333333 0.4 0
0.76666667 0.4 0
0.8 0.4 0
0.83333333 0.4 0
0.86666667 0.4 0
0.9 0.4 0
0.93333333 0.4 0
0.96666667 0.4 0
1 0.4 0
0 0.43333333 0
0.033333333 0.43333333 0
0.066666667 0.43333333 0
0.1 0.43333333 0
0.13333333 0.43333333 0
0.16666667 0.43333333 0
0.2 0.43333333 0
0.23333333 0.43333333 0
0.26666667 0.43333333 0
0.3 0.43333333 0
0.33333333 0.43333333 0
0.36666667 0.43333333 0
0.4 0.43333333 0
0.43333333 0.43333333 0
0.46666667 0.43333333 0
0.5 0.43333333 0
0.53333333 0.43333333 0
0.56666667 0.43333333 0
0.6 0.43333333 0
0.63333333 0.43333333 0
0.66666667 0.43333333 0
0.7 0.43333333 0
0.73333333 0.43333333 0
0.76666667 0.43333333 0
0.8 0.43333333 0
0.83333333 0.43333333 0
0.86666667 0.43333333 0
0.9 0.43333333 0
0.93333333 0.43333333 0
0.96666667 0.43333333 0
1 0.43333333 0
0 0.46666667 0
0.033333333 0.46666667 0
0.066666667 0.46666667 0
0.1 0.46666667 0
0.13333333 0.46666667 0
0.16666667 0.46666667 0
0.2 0.46666667 0
0.23333333 0.46666667 0
0.26666667 0.46666667 0
0.3 0.46666667 0
0.33333333 0.46666667 0
0.36666667 0.46666667 0
0.4 0.46666667 0
0.43333333 0.46666667 0
0.46666667 0.46666667 0
0.5 0.46666667 0
0.53333333 0.46666667 0
0.56666667 0.46666667 0
0.6 0.46666667 0
0.63333333 0.46666667 0
0.66666667 0.46666667 0
0.7 0.46666667 0
0.73333333 0.46666667 0
0.76666667 0.46666667 0
0.8 0.46666667 0
0.83333333 0.46666667 0
0.86666667 0.46666667 0
0.9 0.46666667 0
0.93333333 0.46666667 0
0.96666667 0.46666667 0
1 0.46666667 0
0 0.5 0
0.033333333 0.5 0
0.066666667 0.5 0
0.1 0.5 0
0.13333333 0.5 0
0.16666667 0.5 0
0.2 0.5 0
0.23333333 0.5 0
0.26666667 0.5 0
0.3 0.5 0
0.33333333 0.5 0
0.36666667 0.5 0
0.4 0.5 0
0.43333333 0.5 0
0.46666667 0.5 0
0.5 0.5 0
0.53333333 0.5 0
0.56666667 0.5 0
0.6 0.5 0
0.63333333 0.5 0
0.66666667 0.5 0
0.7 0.5 0
0.73333333 0.5 0
0.76666667 0.5 0
0.8 0.5 0
0.83333333 0.5 0
0.86666667 0.5 0
0.9 0.5 0
0.93333333 0.5 0
0.96666667 0.5 0
1 0.5 0
0 0.53333333 0
0.033333333 0.53333333 0
0.066666667 0.53333333 0
0.1 0.53333333 0
0.13333333 0.53333333 0
0.16666667 0.53333333 0
0.2 0.53333333 0
0.23333333 0.53333333 0
0.26666667 0.53333333 0
0.3 0.53333333 0
0.33333333 0.53333333 0
0.36666667 0.53333333 0
0.4 0.53333333 0
0.43333333 0.53333333 0
0.46666667 0.53333333 0
0.5 0.53333333 0
0.53333333 0.53333333 0
0.56666667 0.53333333 0
0.6 0.53333333 0
0.63333333 0.53333333 0
0.66666667 0.53333333 0
0.7 0.53333333 0
0.73333333 0.53333333 0
0.76666667 0.53333333 0
[...]
CELL_DATA 1920
Scalars  Label int 1
LOOKUP_TABLE FreeFempp_table
0
0
0
0
0
0
0
0
0
0
0
0
0
0
0
0
0
0
0
0
0
0
0
0
0
0
0
0
0
0
0
0
0
0
0
0
0
0
0
0
0
0
0
0
0
0
0
0
0
0
0
0
0
0
0
0
0
0
0
0
0
0
0
0
0
0
0
0
0
0
0
0
0
0
0
0
0
0
0
0
0
0
0
0
0
0
0
0
0
0
0
0
0
0
0
0
0
0
0
0
0
0
0
0
0
0
0
0
0
0
0
0
0
0
0
0
0
0
0
0
0
0
0
0
0
0
0
0
0
0
0
0
0
0
0
0
0
0
0
0
0
0
0
0
0
0
0
0
0
0
0
0
0
0
0
0
0
0
0
0
0
0
0
0
0
0
0
0
0
0
0
0
0
0
0
0
0
0
0
0
0
0
0
0
0
0
0
0
0
0
0
0
0
0
0
0
0
0
0
0
0
0
0
0
0
0
0
0
0
0
0
0
0
0
0
0
0
0
0
0
0
0
0
0
0
0
0
0
0
0
0
0
0
0
0
0
0
0
0
0
0
0
0
0
0
0
0
0
0
0
0
0
0
0
0
0
0
0
0
0
0
0
0
0
0
0
0
0
0
0
0
0
0
0
0
0
0
0
0
0
0
0
0
0
0
0
0
0
0
0
0
0
0
0
0
0
0
0
0
0
0
0
0
0
0
0
0
0
0
0
0
0
0
0
0
0
0
0
0
0
0
0
0
0
0
0
0
0
0
0
0
0
0
0
0
0
0
0
0
0
0
0
0
0
0
0
0
0
0
0
0
0
0
0
0
0
0
0
0
0
0
0
0
0
0
0
0
0
0
0
0
0
0
0
0
0
0
0
0
0
0
0
0
0
0
0
0
0
0
0
0
0
0
0
0
0
0
0
0
0
0
0
0
0
0
0
0
0
0
0
0
0
0
0
0
0
0
0
0
0
0
0
0
0
0
0
0
0
0
0
0
0
0
0
0
0
0
0
0
0
0
0
0
0
0
0
0
0
0
0
0
0
0
0
0
0
0
0
0
0
0
0
0
0
0
0
0
0
0
0
0
0
0
0
0
0
0
0
0
0
0
0
0
0
0
0
0
0
0
0
0
0
0
0
0
0
0
0
0
0
0
0
0
0
0
0
0
0
0
0
0
0
0
0
0
0
0
0
0
0
0
0
0
0
0
0
0
0
0
0
0
0
0
0
0
0
0
0
0
0
0
0
0
0
0
0
0
0
0
0
0
0
0
0
0
0
0
0
0
0
0
0
0
0
0
0
0
0
0
0
0
0
0
0
0
0
0
0
0
0
0
0
0
0
0
0
0
0
0
0
0
0
0
0
0
0
0
0
0
0
0
0
0
0
0
0
0
0
0
0
0
0
0
0
0
0
0
0
0
0
0
0
0
0
0
0
0
0
0
0
0
0
0
0
0
0
0
0
0
0
0
0
0
0
0
0
0
0
0
0
0
0
0
0
0
0
0
0
0
0
0
0
0
0
0
0
0
0
0
0
0
0
0
0
0
0
0
0
0
0
0
0
0
0
0
0
0
0
0
0
0
0
0
0
0
0
0
0
0
0
0
0
0
0
0
0
0
0
0
0
0
0
0
0
0
0
0
0
0
0
0
0
0
0
0
0
0
0
0
0
0
0
0
0
0
0
0
0
0
0
0
0
0
0
0
0
0
0
0
0
0
0
0
0
0
0
0
0
0
0
0
0
0
0
0
0
0
0
0
0
0
0
0
0
0
0
0
0
0
0
0
0
0
0
0
0
0
0
0
0
0
0
0
0
0
0
0
0
0
0
0
0
0
0
0
0
0
0
0
0
0
0
0
0
0
0
0
0
0
0
0
0
0
0
0
0
0
0
0
0
0
0
0
0
0
0
0
0
0
0
0
0
0
0
0
0
0
0
0
0
0
0
0
0
0
0
0
0
0
0
0
0
0
0
0
0
0
0
0
0
0
0
0
0
0
0
0
0
0
0
0
0
0
0
0
0
0
0
0
0
0
0
0
0
0
0
0
0
0
0
0
0
0
0
0
0
0
0
0
0
0
0
0
0
0
0
0
0
0
0
0
0
0
0
0
0
0
0
0
0
0
0
0
0
0
0
0
0
0
0
0
0
0
0
0
0
0
0
0
0
0
0
0
0
0
0
0
0
0
0
0
0
0
0
0
0
0
0
0
0
0
0
0
0
0
0
0
0
0
0
0
0
0
0
0
0
0
0
0
0
0
0
0
0
0
0
0
0
0
0
0
0
0
0
0
0
0
0
0
0
0
0
0
0
0
0
0
0
0
0
0
0
0
0
0
0
0
0
0
0
0
0
0
0
0
0
0
0
0
0
0
0
0
0
0
0
0
0
0
0
0
0
0
0
0
0
0
0
0
0
0
0
0
0
0
0
0
0
0
0
0
0
0
0
0
0
0
0
0
0
0
0
0
0
0
0
0
0
0
0
0
0
0
0
0
0
0
0
0
0
0
0
0
0
0
0
0
0
0
0
0
0
0
0
0
0
0
0
0
0
0
0
0
0
0
0
0
0
0
0
0
0
0
0
0
0
0
0
0
0
0
0
0
0
0
0
0
0
0
0
0
0
0
0
0
0
0
0
0
0
0
0
0
0
0
0
0
0
0
0
0
0
0
0
0
0
0
0
0
0
0
0
0
0
0
0
0
0
0
0
0
0
0
0
0
0
0
0
0
0
0
0
0
0
0
0
0
0
0
0
0
0
0
0
0
0
0
0
0
0
0
0
0
0
0
0
0
0
0
0
0
0
0
0
0
0
0
0
0
0
0
0
0
0
0
0
0
0
0
0
0
0
0
0
0
0
0
0
0
0
0
0
0
0
0
0
0
0
0
0
0
0
0
0
0
0
0
0
0
0
0
0
0
0
0
0
0
0
0
0
0
0
0
0
0
0
0
0
0
0
0
0
0
0
0
0
0
0
0
0
0
0
0
0
0
0
0
0
0
0
0
0
0
0
0
0
0
0
0
0
0
0
0
0
0
0
0
0
0
0
0
0
0
0
0
0
0
0
0
0
0
0
0
0
0
0
0
0
0
0
0
0
0
0
0
0
0
0
0
0
0
0
0
0
0
0
0
0
0
0
0
0
0
0
0
0
0
0
0
0
0
0
0
0
0
0
0
0
0
0
0
0
0
0
0
0
0
0
0
0
0
0
0
0
0
0
0
0
0
0
0
0
0
0
0
0
0
0
0
0
0
0
0
0
0
0
0
0
0
0
0
0
0
0
0
0
0
0
0
0
0
0
0
0
0
0
0
0
0
0
0
0
0
0
0
0
0
0
0
0
0
0
0
0
0
0
0
0
0
0
0
0
0
0
0
0
0
0
0
0
0
0
0
0
0
0
0
0
0
0
0
0
0
0
0
0
0
0
0
0
0
0
0
0
0
0
0
0
0
0
0
0
0
0
0
0
0
0
0
0
0
0
0
0
0
0
0
0
0
0
0
0
0
0
0
0
0
0
0
0
0
0
0
0
0
0
0
0
0
0
0
0
0
0
0
0
0
0
0
0
0
0
0
0
0
0
0
0
0
0
0
0
0
0
0
0
0
0
0
0
0
0
0
0
0
0
0
0
0
0
0
0
0
0
0
0
0
0
0
0
0
0
0
0
0
0
0
0
0
0
0
0
0
0
0
0
0
0
0
0
0
0
0
0
0
0
0
0
0
0
0
0
0
0
0
0
0
0
0
0
0
0
0
0
0
0
0
0
0
0
0
0
0
0
0
0
0
0
0
0
0
0
0
0
0
0
0
0
0
0
0
0
0
0
0
0
0
0
0
0
0
0
0
0
0
0
0
0
0
0
0
0
0
0
0
0
0
0
0
0
0
0
0
0
0
0
0
0
0
0
0
0
0
0
0
0
0
0
0
0
0
0
0
0
0
0
0
0
0
0
0
0
0
0
0
0
0
0
0
0
0
0
0
0
0
0
0
0
0
0
0
0
0
0
0
0
0
0
0
0
0
0
0
0
0
0
0
0
0
0
0
0
0
0
0
0
0
0
0
0
0
0
0
0
0
0
0
0
0
0
1
1
1
1
1
1
1
1
1
1
1
1
1
1
1
1
1
1
1
1
1
1
1
1
1
1
1
1
1
1
2
2
2
2
2
2
2
2
2
2
2
2
2
2
2
2
2
2
2
2
2
2
2
2
2
2
2
2
2
2
3
3
3
3
3
3
3
3
3
3
3
3
3
3
3
3
3
3
3
3
3
3
3
3
3
3
3
3
3
3
4
4
4
4
4
4
4
4
4
4
4
4
4
4
4
4
4
4
4
4
4
4
4
4
4
4
4
4
4
4

LOOKUP_TABLE FreeFempp_table 5
1.00000000 0.00000000 0.00000000 1.00000000
1.00000000 1.00000000 0.00000000 1.00000000
1.00000000 0.00000000 1.00000000 1.00000000
0.00000000 1.00000000 0.00000000 1.00000000
0.00000000 1.00000000 1.00000000 1.00000000

POINT_DATA 961
FIELD FieldData 1
Density 1 961 float
3.33057455e-04 3.31536401e-04 3.28901602e-04 3.28077644e-04 3.28076276e-04 3.28341208e-04 3.28626396e-04 3.28821538e-04 3.28808383e-04 3.28514900e-04 3.28074442e-04 3.27752205e-04 3.27465212e-04 3.72627313e-04 5.09242935e-04 8.51606659e-04 4.91677830e-03 9.75751042e-01 9.99715865e-01 9.99773324e-01 9.99773204e-01 9.99677062e-01 9.99773145e-01 9.99773145e-01 9.99773145e-01 9.99769390e-01 9.99688745e-01 9.98700619e-01 9.98632729e-01 9.98607039e-01 9.64924395e-01 3.39535880e-04 3.39491788e-04 3.32432857e-04 3.29808710e-04 3.29468166e-04 3.29941016e-04 3.30547744e-04 3.31048417e-04 3.31198622e-04 3.30778857e-04 3.29878152e-04 3.29215167e-04 3.28723429e-04 3.28216120e-04 3.27452755e-04 3.26591486e-04 5.16605796e-04 7.29703546e-01 9.99773681e-01 9.99774158e-01 9.99773502e-01 9.98532116e-01 9.97557223e-01 9.99650776e-01 9.99636710e-01 9.99618173e-01 9.99667108e-01 9.99453247e-01 9.99670744e-01 9.99444842e-01 9.97863173e-01 3.34696291e-04 3.39857012e-04 3.31533258e-04 3.29105824e-04 3.29159637e-04 3.29911709e-04 3.30637646e-04 3.31274554e-04 3.31556774e-04 3.31149116e-04 3.29950009e-04 3.29406903e-04 3.29303119e-04 3.31560819e-04 3.70387745e-04 4.33619338e-04 5.17946784e-04 1.32035967e-02 9.99754250e-01 9.32776988e-01 3.27140413e-04 3.26648966e-04 3.26617650e-04 3.26637964e-04 3.26650770e-04 3.26651760e-04 3.26627603e-04 3.26594833e-04 8.85429084e-02 7.37303913e-01 9.09337521e-01 8.89364071e-03 3.29068047e-04 3.28872993e-04 3.27651767e-04 3.27803282e-04 3.28404916e-04 3.28839873e-04 3.29201197e-04 3.29622009e-04 3.30007490e-04 3.29767470e-04 3.29510076e-04 3.30281036e-04 3.32545635e-04 3.34907003e-04 3.34604265e-04 1.12769392e-03 9.41404258e-04 9.98125851e-01 3.32028139e-04 3.27647867e-04 3.26643989e-04 3.26681446e-04 3.26730747e-04 3.26761859e-04 3.26786103e-04 3.26785201e-04 3.26789799e-04 3.26709705e-04 1.50765292e-03 3.28464136e-02 5.31195477e-03 4.45988873e-04 3.26961337e-04 3.26863752e-04 4.04696533e-04 5.66480216e-04 5.65545750e-04 6.01314707e-04 6.84613013e-04 6.90663001e-04 3.27648042e-04 3.27941816e-04 3.28656053e-04 3.32123716e-04 3.38907237e-04 3.52734118e-04 3.49971408e-04 3.39023711e-04 3.48444650e-04 9.99194086e-01 3.28743219e-04 3.26713780e-04 3.26711917e-04 3.26768670e-04 3.26793466e-04 3.26840352e-04 3.26869573e-04 3.26901150e-04 3.26940411e-04 3.26799578e-04 4.82934387e-03 1.55022065e-03 3.26568057e-04 3.26655718e-04 3.26747511e-04 3.26824869e-04 4.25022154e-04 4.99307818e-04 5.31934318e-04 5.74212696e-04 5.85702423e-04 4.82562638e-04 4.61493328e-04 7.22591183e-04 7.91269878e-04 3.29299975e-04 3.39532417e-04 3.58302088e-04 3.77991411e-04 3.69160087e-04 9.98908818e-01 9.99775410e-01 3.31410993e-04 3.26743262e-04 3.26847890e-04 3.26844864e-04 3.26954672e-04 3.27035814e-04 3.27141519e-04 3.27250862e-04 3.27162677e-04 1.78776961e-03 8.51559395e-04 3.26700683e-04 3.26574955e-04 3.26696318e-04 3.26742302e-04 3.26833833e-04 5.33516984e-04 6.88824570e-04 8.14492174e-04 9.15794808e-04 9.05982452e-04 8.07088800e-04 8.96426791e-04 1.05168321e-03 1.02077809e-03 1.20250485e-03 5.24737639e-04 3.30252282e-04 3.54038581e-04 3.97803989e-04 3.31851130e-04 9.99792039e-01 3.31596879e-04 3.26984329e-04 3.26915382e-04 3.27211019e-04 3.27359303e-04 3.27620743e-04 3.27866204e-04 3.27254966e-04 1.75795215e-03 1.84661523e-03 3.26710200e-04 3.26488633e-04 3.26590758e-04 3.26628069e-04 3.63404077e-04 8.50592798e-04 1.48669654e-03 2.16589216e-03 2.77517270e-03 3.03364126e-03 2.84796976e-03 2.66180956e-03 2.60140118e-03 2.31665419e-03 2.09346018e-03 2.23089312e-03 2.15081871e-03 4.45930724e-04 3.33080941e-04 3.53155570e-04 3.32594733e-04 9.99774575e-01 9.98857796e-01 3.26674606e-04 3.27111018e-04 3.27967398e-04 3.28708731e-04 3.29649338e-04 3.27685033e-04 3.78867378e-03 7.89652407e-01 4.90627345e-03 1.24544359e-03 5.87636256e-04 7.46050151e-04 3.77166714e-03 1.49654439e-02 3.46360169e-02 5.54777160e-02 6.48232549e-02 5.72302751e-02 4.10815440e-02 2.78519988e-02 1.91672370e-02 1.29762301e-02 9.07179527e-03 6.89286459e-03 5.30006457e-03 4.06076293e-03 2.77410960e-03 3.14837525e-04 3.27179732e-04 3.30528565e-04 9.99772966e-01 9.99772966e-01 6.04978919e-01 3.27956426e-04 3.31448507e-04 3.34370241e-04 3.30719718e-04 6.75217994e-03 9.99465525e-01 9.99735832e-01 9.99524772e-01 9.99121904e-01 9.98338878e-01 9.97082829e-01 9.94978249e-01 9.91495430e-01 9.85504091e-01 9.73636210e-01 9.46938574e-01 8.84772420e-01 7.55487680e-01 5.47252595e-01 3.21062952e-01 1.64746031e-01 8.25736895e-02 4.24682312e-02 2.36627683e-02 1.28777223e-02 7.14468351e-03 3.29174916e-04 3.36424011e-04 3.34257842e-04 9.99773264e-01 9.99773502e-01 9.99750078e-01 3.38691258e-04 3.44400847e-04 3.45980632e-04 1.17611350e-03 9.99650717e-01 9.99772549e-01 9.99772668e-01 9.99772787e-01 9.99772906e-01 9.99772966e-01 9.99650300e-01 9.99424756e-01 9.99044478e-01 9.98393416e-01 9.97227013e-01 9.95035648e-01 9.90711331e-01 9.81645942e-01 9.61734593e-01 9.17838454e-01 8.24693441e-01 6.53739750e-01 4.34497505e-01 2.52556294e-01 1.40223548e-01 3.81281152e-02 3.34076612e-04 3.47762456e-04 3.40226165e-04 9.74764645e-01 3.36091238e-04 9.99816537e-01 3.45017994e-04 3.90294183e-04 3.40490107e-04 9.69002843e-01 9.99595761e-01 9.99598742e-01 9.99746382e-01 9.99772668e-01 9.99772727e-01 9.99746382e-01 9.99655247e-01 9.99501050e-01 9.99255002e-01 9.98869658e-01 9.98272002e-01 9.97348428e-01 9.95912194e-01 9.93656099e-01 9.90023553e-01 9.83848572e-01 9.72736299e-01 9.52390015e-01 9.20582473e-01 8.99463654e-01 9.25227642e-01 6.62940085e-01 3.42100684e-04 3.64180800e-04 3.46782850e-04 3.28151276e-04 3.35629389e-04 9.99446690e-01 4.18723503e-04 3.95569368e-04 7.05826911e-04 3.70893598e-04 7.93623796e-04 2.10063569e-02 9.79167342e-01 9.98472214e-01 9.99223769e-01 9.99307513e-01 9.99220669e-01 9.99018729e-01 9.98691559e-01 9.98210907e-01 9.97545004e-01 9.96668339e-01 9.95567918e-01 9.94210780e-01 9.92474437e-01 9.90092218e-01 9.86614287e-01 9.81806099e-01 9.79415476e-01 9.87580001e-01 9.96215522e-01 9.95151281e-01 3.42217041e-04 3.50627815e-04 3.31924239e-04 3.27744609e-04 9.99773800e-01 3.92416026e-04 4.01848665e-04 3.26560345e-04 3.26565001e-04 3.26562586e-04 3.26558453e-04 4.84620949e-04 2.23077945e-02 9.29087996e-01 9.92625296e-01 9.96186852e-01 9.96682048e-01 9.96376157e-01 9.95577693e-01 9.94350672e-01 9.92784381e-01 9.91084039e-01 9.89494622e-01 9.88119721e-01 9.86799002e-01 9.85038698e-01 9.81888175e-01 9.76639152e-01 9.76385772e-01 9.87838447e-01 9.98475492e-01 9.99760866e-01 3.31716350e-04 3.29936040e-04 3.25925212e-04 9.99767661e-01 3.74803029e-04 3.87898210e-04 3.26568901e-04 3.26581649e-04 3.26580077e-04 3.26573645e-04 3.26563226e-04 4.59495641e-04 6.20357320e-03 2.97591776e-01 8.92346144e-01 9.64316249e-01 9.74659860e-01 9.73872066e-01 9.67641532e-01 9.57310200e-01 9.45331633e-01 9.36237633e-01 9.34075117e-01 9.38810229e-01 9.46188569e-01 9.50184286e-01 9.42043185e-01 8.92990172e-01 5.90903103e-01 1.66109547e-01 5.50996661e-01 9.99716759e-01 3.28554452e-04 3.25558300e-04 9.99761283e-01 3.57382756e-04 3.71160306e-04 3.26576992e-04 3.26594163e-04 3.26591660e-04 3.26585723e-04 3.26580426e-04 3.26564739e-04 9.50790301e-04 9.15629044e-03 1.34546205e-01 5.56456804e-01 7.67390668e-01 8.04187417e-01 7.67499149e-01 6.79495990e-01 5.66256583e-01 4.74877983e-01 4.41852927e-01 4.81514037e-01 5.90764403e-01 7.27293074e-01 8.21665883e-01 8.35380912e-01 5.64517796e-01 1.40154455e-02 3.26583511e-04 3.26584617e-04 3.27067130e-04 3.25434230e-04 9.99757648e-01 3.44811560e-04 3.56973062e-04 3.26593581e-04 3.26619716e-04 3.26614390e-04 3.26606678e-04 3.26595007e-04 3.26577720e-04 6.41201623e-04 3.16837803e-03 2.42626667e-02 1.55575007e-01 3.93011570e-01 5.00274181e-01 4.55813378e-01 3.21307719e-01 1.85555980e-01 1.05209179e-01 7.21109286e-02 6.80405498e-02 9.32688862e-02 1.78775415e-01 3.83008540e-01 6.59174204e-01 8.35012794e-01 8.64157021e-01 4.16763918e-03 3.26605310e-04 3.27166315e-04 3.26480687e-04 9.99763131e-01 3.39101360e-04 3.47938039e-04 3.26624606e-04 3.26667505e-04 3.26655689e-04 3.26639158e-04 3.26604757e-04 3.26575129e-04 7.20406650e-04 2.72242306e-03 1.50584141e-02 8.92258286e-02 2.82364905e-01 4.26231027e-01 4.12987888e-01 2.81266063e-01 1.36692345e-01 5.79823330e-02 2.86692567e-02 1.95969995e-02 1.95440259e-02 2.82878987e-02 5.57895936e-02 1.37635455e-01 4.07745689e-01 9.01286840e-01 9.86936927e-01 2.65900511e-03 6.16157253e-04 9.99775231e-01 9.99771416e-01 3.38126090e-04 3.42811603e-04 3.26682639e-04 3.26751702e-04 3.26727779e-04 3.26671492e-04 3.26598034e-04 4.25332488e-04 1.03999290e-03 3.48502607e-03 1.72270816e-02 9.93088782e-02 3.35614741e-01 5.41694283e-01 5.81518650e-01 4.70236152e-01 2.56059855e-01 9.25866291e-02 3.14845107e-02 1.41221704e-02 9.21194255e-03 8.46534967e-03 1.03228772e-02 1.71542130e-02 4.60177027e-02 3.09200615e-01 9.76469278e-01 9.97737110e-01 9.97136235e-01 9.99773085e-01 9.99771953e-01 3.37242207e-04 3.39305145e-04 3.26797075e-04 3.26924084e-04 3.26803740e-04 3.26673529e-04 3.56249890e-04 7.27712817e-04 1.69849989e-03 5.49070956e-03 2.70317998e-02 1.54705614e-01 4.84169215e-01 7.26311803e-01 8.01340044e-01 7.75712490e-01 6.26317441e-01 3.19249392e-01 8.68810043e-02 2.11775508e-02 7.22898357e-03 3.74667114e-03 2.99407938e-03 4.47157212e-03 1.85593870e-02 3.54103744e-01 9.92099404e-01 9.99638557e-01 9.99773085e-01 9.99772191e-01 3.26285110e-04 3.33456381e-04 3.36496159e-04 3.27082700e-04 3.27286136e-04 3.26901849e-04 3.26554029e-04 6.85571344e-04 1.29365781e-03 2.91725178e-03 9.56604350e-03 4.81746979e-02 2.54896432e-01 6.46785140e-01 8.53082359e-01 9.16050732e-01 9.28371429e-01 9.05895829e-01 7.97355294e-01 4.24882233e-01 6.80971891e-02 8.32854677e-03 2.08758609e-03 1.26215722e-03 2.33304827e-03 5.34477383e-02 9.84777033e-01 9.99613225e-01 9.99772966e-01 9.99772787e-01 9.99772727e-01 3.26737354e-04 3.28108581e-04 3.30625713e-04 3.28356808e-04 3.27991380e-04 3.27099202e-04 7.51684536e-04 1.33943150e-03 2.25078454e-03 5.01619745e-03 1.66972782e-02 8.15115198e-02 3.62275839e-01 7.45431960e-01 9.06430840e-01 9.54331398e-01 9.69510019e-01 9.72091377e-01 9.61093247e-01 8.89565051e-01 3.87131542e-01 1.90107673e-02 2.34550121e-03 1.36567454e-03 7.41607463e-03 9.80726302e-01 9.99593496e-01 9.99772966e-01 9.99772847e-01 9.99772787e-01 3.26514739e-04 3.27053887e-04 3.27367045e-04 3.27144895e-04 3.32989090e-04 3.30295647e-04 3.27219779e-04 1.72363920e-03 2.43631308e-03 3.76782124e-03 8.21790379e-03 2.61112750e-02 1.11829370e-01 4.10012603e-01 7.65385032e-01 9.15284455e-01 9.61933494e-01 9.78192270e-01 9.84351039e-01 9.85045075e-01 9.75867391e-01 8.86393547e-01 2.50310540e-01 4.47647385e-02 3.56969327e-01 9.98655438e-01 9.99772727e-01 9.99772966e-01 9.99772966e-01 9.99772966e-01 9.43513494e-03 3.26689653e-04 3.27055721e-04 3.27233429e-04 3.26867419e-04 3.43896769e-04 3.37061210e-04 8.66597693e-04 2.92515568e-03 3.93126812e-03 5.86962188e-03 1.18503589e-02 3.24167982e-02 1.11722499e-01 3.56380403e-01 6.95385337e-01 8.81248474e-01 9.48208928e-01 9.73180056e-01 9.84271049e-01 9.89974499e-01 9.93081272e-01 9.95179653e-01 9.97830212e-01 9.99559939e-01 9.99772787e-01 9.99775231e-01 9.99773622e-01 9.99773204e-01 9.96343791e-01 3.27235815e-04 3.28188355e-04 3.28261260e-04 3.27145855e-04 3.26894020e-04 3.26705020e-04 3.63067462e-04 3.50510469e-04 1.65373343e-03 4.52605961e-03 5.61872823e-03 7.76949478e-03 1.33770816e-02 2.89176181e-02 7.64089897e-02 2.15213567e-01 4.86826897e-01 7.46319950e-01 8.83084774e-01 9.43439186e-01 9.73457694e-01 9.89744902e-01 9.96924281e-01 9.99198377e-01 9.99773026e-01 9.99773026e-01 9.99773860e-01 3.28161521e-04 3.27367219e-04 3.26766167e-04 3.26919544e-04 3.27385700e-04 3.27921967e-04 3.28372320e-04 3.27489484e-04 3.26594454e-04 4.11002617e-03 3.92585236e-04 3.72857088e-04 2.81393668e-03 7.06652785e-03 7.00935721e-03 8.02111812e-03 1.10880556e-02 1.84514113e-02 3.66798639e-02 8.39236453e-02 1.98242486e-01 4.04575080e-01 6.35152400e-01 8.07205379e-01 9.19044256e-01 9.79133606e-01 9.96532679e-01 9.99391377e-01 9.99772906e-01 9.99772847e-01 9.99773085e-01 9.99775290e-01 3.27031390e-04 3.26616399e-04 3.26605717e-04 3.26762092e-04 3.26657115e-04 9.99772727e-01 9.99772787e-01 9.99772727e-01 9.99735177e-01 4.30423592e-04 4.05628030e-04 5.24994219e-03 1.02368789e-02 7.03753391e-03 6.36508875e-03 7.16900546e-03 9.56244115e-03 1.47068081e-02 2.56618839e-02 4.98234369e-02 1.03225261e-01 2.11371183e-01 3.93909276e-01 6.46409214e-01 8.92311335e-01 9.86311197e-01 9.98347044e-01 9.99661267e-01 9.99772966e-01 9.99772906e-01 9.99773145e-01 9.99773324e-01 9.99772966e-01 9.99772429e-01 9.99772131e-01 9.99771893e-01 9.99772370e-01 9.99772668e-01 9.99772668e-01 9.99772906e-01 4.65812220e-04 4.43883939e-04 1.24917282e-02 1.13468105e-02 5.34236943e-03 4.16173972e-03 4.17436846e-03 4.83587058e-03 6.16957108e-03 8.51979293e-03 1.28063457e-02 2.14068703e-02 4.06376645e-02 8.70376453e-02 1.99941501e-01 4.53193247e-01 8.18696082e-01 9.76942658e-01 9.96954620e-01 9.99289572e-01 9.99743879e-01 9.99773264e-01 9.99773085e-01 9.99772906e-01 9.99772668e-01 9.99772549e-01 9.99772549e-01 9.99772608e-01 9.99772787e-01 9.99772847e-01 9.99772966e-01 4.88463906e-04 4.73931257e-04 4.26853783e-02 7.87903182e-03 3.30518535e-03 2.59555620e-03 2.53989734e-03 2.72888108e-03 3.07737966e-03 3.60644539e-03 4.46255971e-03 6.06007827e-03 9.56035592e-03 1.86337139e-02 4.57947440e-02 1.26934439e-01 3.10842186e-01 5.80189347e-01 8.30186725e-01 9.52852368e-01 9.85894799e-01 9.93338883e-01 9.95313942e-01 9.95970666e-01 9.94098067e-01 9.91775870e-01 9.91187036e-01 9.93126094e-01 9.96558130e-01 9.97983277e-01 9.96188641e-01 4.95040556e-04 4.90572362e-04 4.98881996e-01 4.25246591e-03 2.10770755e-03 1.79641752e-03 1.73756899e-03 1.74200896e-03 1.77128217e-03 1.83788210e-03 1.99518469e-03 2.36411998e-03 3.25864204e-03 5.74356876e-03 1.47251170e-02 5.83547950e-02 2.34277368e-01 4.41576689e-01 3.36331785e-01 5.94512932e-02 4.98926919e-03 1.06729765e-03 6.89195469e-04 1.12527062e-03 3.33627244e-03 1.07912747e-02 2.15729047e-02 3.16256396e-02 4.63094674e-02 6.66067526e-02 5.04397333e-01 3.82003665e-04 4.36407689e-04 9.98829544e-01 3.13153714e-02 1.52118336e-02 1.24864392e-02 1.17122661e-02 1.12903761e-02 1.08867008e-02 1.06282877e-02 1.08527485e-02 1.21431518e-02 1.58203319e-02 2.58671716e-02 5.67514263e-02 1.58577502e-01 3.93049926e-01 5.90403318e-01 5.18314481e-01 1.25921160e-01 7.53155956e-03 1.16420002e-03 6.07649272e-04 8.34159204e-04 2.93300906e-03 1.61410850e-02 5.60904332e-02 7.57599026e-02 6.11775741e-02 4.29868288e-02 1.17315903e-01 
