# vtk DataFile Version 2.0
results_case1_non_linear/iter2.vtk, Created by Freefem++ 
ASCII
DATASET UNSTRUCTURED_GRID
POINTS 961 float
0 0 0
0.033333333 0 0
0.066666667 0 0
0.1 0 0
0.13333333 0 0
0.16666667 0 0
0.2 0 0
0.23333333 0 0
0.26666667 0 0
0.3 0 0
0.33333333 0 0
0.36666667 0 0
0.4 0 0
0.43333333 0 0
0.46666667 0 0
0.5 0 0
0.53333333 0 0
0.56666667 0 0
0.6 0 0
0.63333333 0 0
0.66666667 0 0
0.7 0 0
0.73333333 0 0
0.76666667 0 0
0.8 0 0
0.83333333 0 0
0.86666667 0 0
0.9 0 0
0.93333333 0 0
0.96666667 0 0
1 0 0
0 0.033333333 0
0.033333333 0.033333333 0
0.066666667 0.033333333 0
0.1 0.033333333 0
0.13333333 0.033333333 0
0.16666667 0.033333333 0
0.2 0.033333333 0
0.23333333 0.033333333 0
0.26666667 0.033333333 0
0.3 0.033333333 0
0.33333333 0.033333333 0
0.36666667 0.033333333 0
0.4 0.033333333 0
0.43333333 0.033333333 0
0.46666667 0.033333333 0
0.5 0.033333333 0
0.53333333 0.033333333 0
0.56666667 0.033333333 0
0.6 0.033333333 0
0.63333333 0.033333333 0
0.66666667 0.033333333 0
0.7 0.033333333 0
0.73333333 0.033333333 0
0.76666667 0.033333333 0
0.8 0.033333333 0
0.83333333 0.033333333 0
0.86666667 0.033333333 0
0.9 0.033333333 0
0.93333333 0.033333333 0
0.96666667 0.033333333 0
1 0.033333333 0
0 0.066666667 0
0.033333333 0.066666667 0
0.066666667 0.066666667 0
0.1 0.066666667 0
0.13333333 0.066666667 0
0.16666667 0.066666667 0
0.2 0.066666667 0
0.23333333 0.066666667 0
0.26666667 0.066666667 0
0.3 0.066666667 0
0.33333333 0.066666667 0
0.36666667 0.066666667 0
0.4 0.066666667 0
0.43333333 0.066666667 0
0.46666667 0.066666667 0
0.5 0.066666667 0
0.53333333 0.066666667 0
0.56666667 0.066666667 0
0.6 0.066666667 0
0.63333333 0.066666667 0
0.66666667 0.066666667 0
0.7 0.066666667 0
0.73333333 0.066666667 0
0.76666667 0.066666667 0
0.8 0.066666667 0
0.83333333 0.066666667 0
0.86666667 0.066666667 0
0.9 0.066666667 0
0.93333333 0.066666667 0
0.96666667 0.066666667 0
1 0.066666667 0
0 0.1 0
0.033333333 0.1 0
0.066666667 0.1 0
0.1 0.1 0
0.13333333 0.1 0
0.16666667 0.1 0
0.2 0.1 0
0.23333333 0.1 0
0.26666667 0.1 0
0.3 0.1 0
0.33333333 0.1 0
0.36666667 0.1 0
0.4 0.1 0
0.43333333 0.1 0
0.46666667 0.1 0
0.5 0.1 0
0.53333333 0.1 0
0.56666667 0.1 0
0.6 0.1 0
0.63333333 0.1 0
0.66666667 0.1 0
0.7 0.1 0
0.73333333 0.1 0
0.76666667 0.1 0
0.8 0.1 0
0.83333333 0.1 0
0.86666667 0.1 0
0.9 0.1 0
0.93333333 0.1 0
0.96666667 0.1 0
1 0.1 0
0 0.13333333 0
0.033333333 0.13333333 0
0.066666667 0.13333333 0
0.1 0.13333333 0
0.13333333 0.13333333 0
0.16666667 0.13333333 0
0.2 0.13333333 0
0.23333333 0.13333333 0
0.26666667 0.13333333 0
0.3 0.13333333 0
0.33333333 0.13333333 0
0.36666667 0.13333333 0
0.4 0.13333333 0
0.43333333 0.13333333 0
0.46666667 0.13333333 0
0.5 0.13333333 0
0.53333333 0.13333333 0
0.56666667 0.13333333 0
0.6 0.13333333 0
0.63333333 0.13333333 0
0.66666667 0.13333333 0
0.7 0.13333333 0
0.73333333 0.13333333 0
0.76666667 0.13333333 0
0.8 0.13333333 0
0.83333333 0.13333333 0
0.86666667 0.13333333 0
0.9 0.13333333 0
0.93333333 0.13333333 0
0.96666667 0.13333333 0
1 0.13333333 0
0 0.16666667 0
0.033333333 0.16666667 0
0.066666667 0.16666667 0
0.1 0.16666667 0
0.13333333 0.16666667 0
0.16666667 0.16666667 0
0.2 0.16666667 0
0.23333333 0.16666667 0
0.26666667 0.16666667 0
0.3 0.16666667 0
0.33333333 0.16666667 0
0.36666667 0.16666667 0
0.4 0.16666667 0
0.43333333 0.16666667 0
0.46666667 0.16666667 0
0.5 0.16666667 0
0.53333333 0.16666667 0
0.56666667 0.16666667 0
0.6 0.16666667 0
0.63333333 0.16666667 0
0.66666667 0.16666667 0
0.7 0.16666667 0
0.73333333 0.16666667 0
0.76666667 0.16666667 0
0.8 0.16666667 0
0.83333333 0.16666667 0
0.86666667 0.16666667 0
0.9 0.16666667 0
0.93333333 0.16666667 0
0.96666667 0.16666667 0
1 0.16666667 0
0 0.2 0
0.033333333 0.2 0
0.066666667 0.2 0
0.1 0.2 0
0.13333333 0.2 0
0.16666667 0.2 0
0.2 0.2 0
0.23333333 0.2 0
0.26666667 0.2 0
0.3 0.2 0
0.33333333 0.2 0
0.36666667 0.2 0
0.4 0.2 0
0.43333333 0.2 0
0.46666667 0.2 0
0.5 0.2 0
0.53333333 0.2 0
0.56666667 0.2 0
0.6 0.2 0
0.63333333 0.2 0
0.66666667 0.2 0
0.7 0.2 0
0.73333333 0.2 0
0.76666667 0.2 0
0.8 0.2 0
0.83333333 0.2 0
0.86666667 0.2 0
0.9 0.2 0
0.93333333 0.2 0
0.96666667 0.2 0
1 0.2 0
0 0.23333333 0
0.033333333 0.23333333 0
0.066666667 0.23333333 0
0.1 0.23333333 0
0.13333333 0.23333333 0
0.16666667 0.23333333 0
0.2 0.23333333 0
0.23333333 0.23333333 0
0.26666667 0.23333333 0
0.3 0.23333333 0
0.33333333 0.23333333 0
0.36666667 0.23333333 0
0.4 0.23333333 0
0.43333333 0.23333333 0
0.46666667 0.23333333 0
0.5 0.23333333 0
0.53333333 0.23333333 0
0.56666667 0.23333333 0
0.6 0.23333333 0
0.63333333 0.23333333 0
0.66666667 0.23333333 0
0.7 0.23333333 0
0.73333333 0.23333333 0
0.76666667 0.23333333 0
0.8 0.23333333 0
0.83333333 0.23333333 0
0.86666667 0.23333333 0
0.9 0.23333333 0
0.93333333 0.23333333 0
0.96666667 0.23333333 0
1 0.23333333 0
0 0.26666667 0
0.033333333 0.26666667 0
0.066666667 0.26666667 0
0.1 0.26666667 0
0.13333333 0.26666667 0
0.16666667 0.26666667 0
0.2 0.26666667 0
0.23333333 0.26666667 0
0.26666667 0.26666667 0
0.3 0.26666667 0
0.33333333 0.26666667 0
0.36666667 0.26666667 0
0.4 0.26666667 0
0.43333333 0.26666667 0
0.46666667 0.26666667 0
0.5 0.26666667 0
0.53333333 0.26666667 0
0.56666667 0.26666667 0
0.6 0.26666667 0
0.63333333 0.26666667 0
0.66666667 0.26666667 0
0.7 0.26666667 0
0.73333333 0.26666667 0
0.76666667 0.26666667 0
0.8 0.26666667 0
0.83333333 0.26666667 0
0.86666667 0.26666667 0
0.9 0.26666667 0
0.93333333 0.26666667 0
0.96666667 0.26666667 0
1 0.26666667 0
0 0.3 0
0.033333333 0.3 0
0.066666667 0.3 0
0.1 0.3 0
0.13333333 0.3 0
0.16666667 0.3 0
0.2 0.3 0
0.23333333 0.3 0
0.26666667 0.3 0
0.3 0.3 0
0.33333333 0.3 0
0.36666667 0.3 0
0.4 0.3 0
0.43333333 0.3 0
0.46666667 0.3 0
0.5 0.3 0
0.53333333 0.3 0
0.56666667 0.3 0
0.6 0.3 0
0.63333333 0.3 0
0.66666667 0.3 0
0.7 0.3 0
0.73333333 0.3 0
0.76666667 0.3 0
0.8 0.3 0
0.83333333 0.3 0
0.86666667 0.3 0
0.9 0.3 0
0.93333333 0.3 0
0.96666667 0.3 0
1 0.3 0
0 0.33333333 0
0.033333333 0.33333333 0
0.066666667 0.33333333 0
0.1 0.33333333 0
0.13333333 0.33333333 0
0.16666667 0.33333333 0
0.2 0.33333333 0
0.23333333 0.33333333 0
0.26666667 0.33333333 0
0.3 0.33333333 0
0.33333333 0.33333333 0
0.36666667 0.33333333 0
0.4 0.33333333 0
0.43333333 0.33333333 0
0.46666667 0.33333333 0
0.5 0.33333333 0
0.53333333 0.33333333 0
0.56666667 0.33333333 0
0.6 0.33333333 0
0.63333333 0.33333333 0
0.66666667 0.33333333 0
0.7 0.33333333 0
0.73333333 0.33333333 0
0.76666667 0.33333333 0
0.8 0.33333333 0
0.83333333 0.33333333 0
0.86666667 0.33333333 0
0.9 0.33333333 0
0.93333333 0.33333333 0
0.96666667 0.33333333 0
1 0.33333333 0
0 0.36666667 0
0.033333333 0.36666667 0
0.066666667 0.36666667 0
0.1 0.36666667 0
0.13333333 0.36666667 0
0.16666667 0.36666667 0
0.2 0.36666667 0
0.23333333 0.36666667 0
0.26666667 0.36666667 0
0.3 0.36666667 0
0.33333333 0.36666667 0
0.36666667 0.36666667 0
0.4 0.36666667 0
0.43333333 0.36666667 0
0.46666667 0.36666667 0
0.5 0.36666667 0
0.53333333 0.36666667 0
0.56666667 0.36666667 0
0.6 0.36666667 0
0.63333333 0.36666667 0
0.66666667 0.36666667 0
0.7 0.36666667 0
0.73333333 0.36666667 0
0.76666667 0.36666667 0
0.8 0.36666667 0
0.83333333 0.36666667 0
0.86666667 0.36666667 0
0.9 0.36666667 0
0.93333333 0.36666667 0
0.96666667 0.36666667 0
1 0.36666667 0
0 0.4 0
0.033333333 0.4 0
0.066666667 0.4 0
0.1 0.4 0
0.13333333 0.4 0
0.16666667 0.4 0
0.2 0.4 0
0.23333333 0.4 0
0.26666667 0.4 0
0.3 0.4 0
0.33333333 0.4 0
0.36666667 0.4 0
0.4 0.4 0
0.43333333 0.4 0
0.46666667 0.4 0
0.5 0.4 0
0.53333333 0.4 0
0.56666667 0.4 0
0.6 0.4 0
0.63333333 0.4 0
0.66666667 0.4 0
0.7 0.4 0
0.73333333 0.4 0
0.76666667 0.4 0
0.8 0.4 0
0.83333333 0.4 0
0.86666667 0.4 0
0.9 0.4 0
0.93333333 0.4 0
0.96666667 0.4 0
1 0.4 0
0 0.43333333 0
0.033333333 0.43333333 0
0.066666667 0.43333333 0
0.1 0.43333333 0
0.13333333 0.43333333 0
0.16666667 0.43333333 0
0.2 0.43333333 0
0.23333333 0.43333333 0
0.26666667 0.43333333 0
0.3 0.43333333 0
0.33333333 0.43333333 0
0.36666667 0.43333333 0
0.4 0.43333333 0
0.43333333 0.43333333 0
0.46666667 0.43333333 0
0.5 0.43333333 0
0.53333333 0.43333333 0
0.56666667 0.43333333 0
0.6 0.43333333 0
0.63333333 0.43333333 0
0.66666667 0.43333333 0
0.7 0.43333333 0
0.73333333 0.43333333 0
0.76666667 0.43333333 0
0.8 0.43333333 0
0.83333333 0.43333333 0
0.86666667 0.43333333 0
0.9 0.43333333 0
0.93333333 0.43333333 0
0.96666667 0.43333333 0
1 0.43333333 0
0 0.46666667 0
0.033333333 0.46666667 0
0.066666667 0.46666667 0
0.1 0.46666667 0
0.13333333 0.46666667 0
0.16666667 0.46666667 0
0.2 0.46666667 0
0.23333333 0.46666667 0
0.26666667 0.46666667 0
0.3 0.46666667 0
0.33333333 0.46666667 0
0.36666667 0.46666667 0
0.4 0.46666667 0
0.43333333 0.46666667 0
0.46666667 0.46666667 0
0.5 0.46666667 0
0.53333333 0.46666667 0
0.56666667 0.46666667 0
0.6 0.46666667 0
0.63333333 0.46666667 0
0.66666667 0.46666667 0
0.7 0.46666667 0
0.73333333 0.46666667 0
0.76666667 0.46666667 0
0.8 0.46666667 0
0.83333333 0.46666667 0
0.86666667 0.46666667 0
0.9 0.46666667 0
0.93333333 0.46666667 0
0.96666667 0.46666667 0
1 0.46666667 0
0 0.5 0
0.033333333 0.5 0
0.066666667 0.5 0
0.1 0.5 0
0.13333333 0.5 0
0.16666667 0.5 0
0.2 0.5 0
0.23333333 0.5 0
0.26666667 0.5 0
0.3 0.5 0
0.33333333 0.5 0
0.36666667 0.5 0
0.4 0.5 0
0.43333333 0.5 0
0.46666667 0.5 0
0.5 0.5 0
0.53333333 0.5 0
0.56666667 0.5 0
0.6 0.5 0
0.63333333 0.5 0
0.66666667 0.5 0
0.7 0.5 0
0.73333333 0.5 0
0.76666667 0.5 0
0.8 0.5 0
0.83333333 0.5 0
0.86666667 0.5 0
0.9 0.5 0
0.93333333 0.5 0
0.96666667 0.5 0
1 0.5 0
0 0.53333333 0
0.033333333 0.53333333 0
0.066666667 0.53333333 0
0.1 0.53333333 0
0.13333333 0.53333333 0
0.16666667 0.53333333 0
0.2 0.53333333 0
0.23333333 0.53333333 0
0.26666667 0.53333333 0
0.3 0.53333333 0
0.33333333 0.53333333 0
0.36666667 0.53333333 0
0.4 0.53333333 0
0.43333333 0.53333333 0
0.46666667 0.53333333 0
0.5 0.53333333 0
0.53333333 0.53333333 0
0.56666667 0.53333333 0
0.6 0.53333333 0
0.63333333 0.53333333 0
0.66666667 0.53333333 0
0.7 0.53333333 0
0.73333333 0.53333333 0
0.76666667 0.53333333 0
[...]
CELL_DATA 1920
Scalars  Label int 1
LOOKUP_TABLE FreeFempp_table
0
0
0
0
0
0
0
0
0
0
0
0
0
0
0
0
0
0
0
0
0
0
0
0
0
0
0
0
0
0
0
0
0
0
0
0
0
0
0
0
0
0
0
0
0
0
0
0
0
0
0
0
0
0
0
0
0
0
0
0
0
0
0
0
0
0
0
0
0
0
0
0
0
0
0
0
0
0
0
0
0
0
0
0
0
0
0
0
0
0
0
0
0
0
0
0
0
0
0
0
0
0
0
0
0
0
0
0
0
0
0
0
0
0
0
0
0
0
0
0
0
0
0
0
0
0
0
0
0
0
0
0
0
0
0
0
0
0
0
0
0
0
0
0
0
0
0
0
0
0
0
0
0
0
0
0
0
0
0
0
0
0
0
0
0
0
0
0
0
0
0
0
0
0
0
0
0
0
0
0
0
0
0
0
0
0
0
0
0
0
0
0
0
0
0
0
0
0
0
0
0
0
0
0
0
0
0
0
0
0
0
0
0
0
0
0
0
0
0
0
0
0
0
0
0
0
0
0
0
0
0
0
0
0
0
0
0
0
0
0
0
0
0
0
0
0
0
0
0
0
0
0
0
0
0
0
0
0
0
0
0
0
0
0
0
0
0
0
0
0
0
0
0
0
0
0
0
0
0
0
0
0
0
0
0
0
0
0
0
0
0
0
0
0
0
0
0
0
0
0
0
0
0
0
0
0
0
0
0
0
0
0
0
0
0
0
0
0
0
0
0
0
0
0
0
0
0
0
0
0
0
0
0
0
0
0
0
0
0
0
0
0
0
0
0
0
0
0
0
0
0
0
0
0
0
0
0
0
0
0
0
0
0
0
0
0
0
0
0
0
0
0
0
0
0
0
0
0
0
0
0
0
0
0
0
0
0
0
0
0
0
0
0
0
0
0
0
0
0
0
0
0
0
0
0
0
0
0
0
0
0
0
0
0
0
0
0
0
0
0
0
0
0
0
0
0
0
0
0
0
0
0
0
0
0
0
0
0
0
0
0
0
0
0
0
0
0
0
0
0
0
0
0
0
0
0
0
0
0
0
0
0
0
0
0
0
0
0
0
0
0
0
0
0
0
0
0
0
0
0
0
0
0
0
0
0
0
0
0
0
0
0
0
0
0
0
0
0
0
0
0
0
0
0
0
0
0
0
0
0
0
0
0
0
0
0
0
0
0
0
0
0
0
0
0
0
0
0
0
0
0
0
0
0
0
0
0
0
0
0
0
0
0
0
0
0
0
0
0
0
0
0
0
0
0
0
0
0
0
0
0
0
0
0
0
0
0
0
0
0
0
0
0
0
0
0
0
0
0
0
0
0
0
0
0
0
0
0
0
0
0
0
0
0
0
0
0
0
0
0
0
0
0
0
0
0
0
0
0
0
0
0
0
0
0
0
0
0
0
0
0
0
0
0
0
0
0
0
0
0
0
0
0
0
0
0
0
0
0
0
0
0
0
0
0
0
0
0
0
0
0
0
0
0
0
0
0
0
0
0
0
0
0
0
0
0
0
0
0
0
0
0
0
0
0
0
0
0
0
0
0
0
0
0
0
0
0
0
0
0
0
0
0
0
0
0
0
0
0
0
0
0
0
0
0
0
0
0
0
0
0
0
0
0
0
0
0
0
0
0
0
0
0
0
0
0
0
0
0
0
0
0
0
0
0
0
0
0
0
0
0
0
0
0
0
0
0
0
0
0
0
0
0
0
0
0
0
0
0
0
0
0
0
0
0
0
0
0
0
0
0
0
0
0
0
0
0
0
0
0
0
0
0
0
0
0
0
0
0
0
0
0
0
0
0
0
0
0
0
0
0
0
0
0
0
0
0
0
0
0
0
0
0
0
0
0
0
0
0
0
0
0
0
0
0
0
0
0
0
0
0
0
0
0
0
0
0
0
0
0
0
0
0
0
0
0
0
0
0
0
0
0
0
0
0
0
0
0
0
0
0
0
0
0
0
0
0
0
0
0
0
0
0
0
0
0
0
0
0
0
0
0
0
0
0
0
0
0
0
0
0
0
0
0
0
0
0
0
0
0
0
0
0
0
0
0
0
0
0
0
0
0
0
0
0
0
0
0
0
0
0
0
0
0
0
0
0
0
0
0
0
0
0
0
0
0
0
0
0
0
0
0
0
0
0
0
0
0
0
0
0
0
0
0
0
0
0
0
0
0
0
0
0
0
0
0
0
0
0
0
0
0
0
0
0
0
0
0
0
0
0
0
0
0
0
0
0
0
0
0
0
0
0
0
0
0
0
0
0
0
0
0
0
0
0
0
0
0
0
0
0
0
0
0
0
0
0
0
0
0
0
0
0
0
0
0
0
0
0
0
0
0
0
0
0
0
0
0
0
0
0
0
0
0
0
0
0
0
0
0
0
0
0
0
0
0
0
0
0
0
0
0
0
0
0
0
0
0
0
0
0
0
0
0
0
0
0
0
0
0
0
0
0
0
0
0
0
0
0
0
0
0
0
0
0
0
0
0
0
0
0
0
0
0
0
0
0
0
0
0
0
0
0
0
0
0
0
0
0
0
0
0
0
0
0
0
0
0
0
0
0
0
0
0
0
0
0
0
0
0
0
0
0
0
0
0
0
0
0
0
0
0
0
0
0
0
0
0
0
0
0
0
0
0
0
0
0
0
0
0
0
0
0
0
0
0
0
0
0
0
0
0
0
0
0
0
0
0
0
0
0
0
0
0
0
0
0
0
0
0
0
0
0
0
0
0
0
0
0
0
0
0
0
0
0
0
0
0
0
0
0
0
0
0
0
0
0
0
0
0
0
0
0
0
0
0
0
0
0
0
0
0
0
0
0
0
0
0
0
0
0
0
0
0
0
0
0
0
0
0
0
0
0
0
0
0
0
0
0
0
0
0
0
0
0
0
0
0
0
0
0
0
0
0
0
0
0
0
0
0
0
0
0
0
0
0
0
0
0
0
0
0
0
0
0
0
0
0
0
0
0
0
0
0
0
0
0
0
0
0
0
0
0
0
0
0
0
0
0
0
0
0
0
0
0
0
0
0
0
0
0
0
0
0
0
0
0
0
0
0
0
0
0
0
0
0
0
0
0
0
0
0
0
0
0
0
0
0
0
0
0
0
0
0
0
0
0
0
0
0
0
0
0
0
0
0
0
0
0
0
0
0
0
0
0
0
0
0
0
0
0
0
0
0
0
0
0
0
0
0
0
0
0
0
0
0
0
0
0
0
0
0
0
0
0
0
0
0
0
0
0
0
0
0
0
0
0
0
0
0
0
0
0
0
0
0
0
0
0
0
0
0
0
0
0
0
0
0
0
0
0
0
0
0
0
0
0
0
0
0
0
0
0
0
0
0
0
0
0
0
0
0
0
0
0
0
0
0
0
0
0
0
0
0
0
0
0
0
0
0
0
0
0
0
0
0
0
0
0
0
0
0
0
0
0
0
0
0
0
0
0
0
0
0
0
0
0
0
0
0
0
0
0
0
0
0
0
0
0
0
0
0
0
0
0
0
0
0
0
0
0
0
0
0
0
0
0
0
0
0
0
0
0
0
0
0
0
0
0
0
0
0
0
0
0
0
0
0
0
0
0
0
0
0
0
0
0
0
0
0
0
0
0
0
0
0
0
0
0
0
0
0
0
0
0
0
0
0
0
0
0
0
0
0
0
0
0
0
0
0
0
0
0
0
0
0
0
0
0
0
0
0
0
0
0
0
0
0
0
0
0
0
0
0
0
0
0
0
0
0
0
0
0
0
0
0
0
0
0
0
0
0
0
0
0
0
0
0
0
0
0
0
0
0
0
0
0
0
0
0
0
0
0
0
0
0
0
0
0
0
0
0
0
0
0
0
0
0
0
0
0
0
0
0
0
0
0
0
0
0
0
0
0
0
0
0
0
0
0
0
0
0
0
0
0
0
0
0
0
0
0
0
0
0
0
0
0
0
0
0
0
0
0
0
0
0
0
0
0
0
0
0
0
0
0
0
0
0
0
0
0
0
0
0
0
0
0
0
0
0
0
0
0
0
0
0
0
0
0
0
0
0
0
0
0
0
0
0
0
0
0
0
0
0
0
0
0
0
0
0
1
1
1
1
1
1
1
1
1
1
1
1
1
1
1
1
1
1
1
1
1
1
1
1
1
1
1
1
1
1
2
2
2
2
2
2
2
2
2
2
2
2
2
2
2
2
2
2
2
2
2
2
2
2
2
2
2
2
2
2
3
3
3
3
3
3
3
3
3
3
3
3
3
3
3
3
3
3
3
3
3
3
3
3
3
3
3
3
3
3
4
4
4
4
4
4
4
4
4
4
4
4
4
4
4
4
4
4
4
4
4
4
4
4
4
4
4
4
4
4

LOOKUP_TABLE FreeFempp_table 5
1.00000000 0.00000000 0.00000000 1.00000000
1.00000000 1.00000000 0.00000000 1.00000000
1.00000000 0.00000000 1.00000000 1.00000000
0.00000000 1.00000000 0.00000000 1.00000000
0.00000000 1.00000000 1.00000000 1.00000000

POINT_DATA 961
FIELD FieldData 1
Density 1 961 float
1.66999002e-03 1.37899106e-03 2.18681921e-03 2.48370436e-03 2.23645009e-03 1.81399286e-03 1.33217673e-03 8.44783324e-04 6.35297387e-04 6.34966884e-04 6.36190991e-04 1.68997096e-03 6.35875016e-03 1.22356545e-02 1.81757975e-02 3.10561974e-02 1.10785052e-01 7.79812455e-01 9.87319589e-01 9.94333088e-01 9.90225673e-01 9.85596716e-01 9.94168520e-01 9.94615793e-01 9.90578234e-01 9.89818990e-01 9.86111283e-01 9.52245533e-01 9.50395823e-01 9.49706554e-01 7.51962245e-01 5.78859414e-04 7.28256360e-04 1.27104879e-03 1.38901093e-03 1.24007592e-03 1.04637514e-03 8.39411747e-04 6.28773181e-04 6.29290706e-04 6.29029586e-04 6.27528003e-04 6.41789695e-04 2.13689217e-03 3.79237346e-03 5.18240733e-03 7.42536550e-03 1.84922870e-02 5.76198995e-01 9.96783674e-01 9.98761773e-01 9.96546328e-01 9.47731853e-01 9.25811887e-01 9.84457254e-01 9.83858049e-01 9.83073294e-01 9.85162914e-01 9.76489186e-01 9.85322893e-01 9.76170123e-01 9.32045758e-01 5.85038215e-04 5.53938444e-04 6.05616835e-04 6.02079090e-04 5.97856240e-04 6.03136665e-04 6.12044649e-04 6.20327948e-04 6.24074775e-04 6.21160376e-04 6.03148423e-04 6.13073818e-04 6.92758663e-03 1.01982662e-02 1.20269433e-02 1.49430390e-02 1.85346194e-02 1.75854638e-01 9.88852739e-01 7.00552344e-01 8.23639159e-04 6.40366983e-04 6.40363200e-04 6.40356098e-04 6.40349695e-04 6.40349404e-04 6.40356506e-04 9.41231567e-03 3.21820855e-01 5.79196930e-01 6.76315486e-01 1.48642808e-01 6.24924549e-04 6.24173903e-04 6.18199061e-04 6.06822956e-04 6.07572787e-04 6.15512719e-04 6.24794920e-04 6.30596420e-04 6.28868875e-04 6.00276049e-04 5.25829964e-04 4.68164944e-04 4.76536923e-04 6.08454226e-04 1.00249592e-02 3.98387648e-02 3.40268351e-02 9.37529504e-01 6.40037004e-04 6.40264945e-04 6.40362734e-04 6.40352024e-04 6.40339043e-04 6.40323095e-04 6.40308484e-04 6.40287122e-04 6.40306098e-04 2.33163498e-03 5.08323945e-02 2.42986351e-01 1.15476221e-01 1.55178476e-02 6.37765101e-04 6.39396370e-04 1.36910221e-02 2.04623584e-02 2.04210766e-02 2.18327828e-02 2.50112712e-02 2.52255872e-02 3.06248479e-03 6.14619465e-04 5.31543104e-04 4.18321404e-04 3.86654137e-04 3.79497302e-04 4.44778474e-04 6.11352094e-04 1.10532809e-02 9.66776133e-01 6.40537764e-04 6.40358950e-04 6.40350743e-04 6.40337646e-04 6.40315120e-04 6.40287530e-04 6.40239567e-04 6.40182407e-04 6.40254759e-04 3.40963295e-03 1.09695457e-01 5.19199856e-02 8.18486419e-03 6.40343933e-04 6.40281185e-04 4.51979088e-03 1.45829841e-02 1.77426022e-02 1.90895610e-02 2.07910035e-02 2.12504510e-02 1.70667395e-02 1.61751825e-02 2.64474042e-02 2.88980044e-02 6.11080264e-04 4.73346619e-04 3.60159494e-04 3.48507630e-04 2.83015077e-04 9.58094001e-01 9.99459505e-01 6.40653947e-04 6.40364888e-04 6.40354992e-04 6.40336657e-04 6.40296144e-04 6.40215469e-04 6.40130893e-04 6.40115642e-04 6.40319311e-04 5.79073317e-02 3.10116056e-02 4.21030214e-03 8.14714120e-04 6.40329439e-04 1.51119987e-03 9.80049185e-03 1.91570036e-02 2.52016522e-02 2.97478251e-02 3.32203470e-02 3.28983627e-02 2.95025203e-02 3.25821266e-02 3.76607776e-02 3.67246531e-02 4.24479544e-02 1.91477239e-02 6.02401968e-04 1.14275019e-04 1.37743104e-04 6.25161862e-04 9.99459267e-01 5.16177947e-03 8.13564169e-04 1.03461137e-03 8.51381919e-04 8.14219820e-04 6.40058424e-04 6.39896782e-04 6.40231592e-04 5.71781099e-02 5.93219772e-02 5.47405891e-03 2.28994363e-03 9.31319373e-04 1.94183039e-03 1.18372319e-02 3.10100168e-02 5.02673090e-02 6.65879250e-02 7.87719786e-02 8.34138766e-02 8.01108852e-02 7.66533837e-02 7.55083933e-02 6.98477551e-02 6.51872754e-02 6.85894489e-02 6.84861243e-02 1.73091386e-02 3.24834633e-04 5.13668929e-04 6.12854376e-04 9.99459088e-01 9.56646502e-01 4.84426040e-03 3.34969652e-03 1.72418170e-03 6.40156621e-04 6.39148173e-04 6.39994221e-04 9.55532640e-02 6.01445794e-01 1.10650249e-01 4.35264595e-02 2.13450156e-02 2.73232702e-02 9.53104272e-02 1.84777319e-01 2.47043267e-01 2.83826858e-01 2.96293527e-01 2.86305219e-01 2.60218412e-01 2.30467498e-01 2.02697456e-01 1.74690694e-01 1.50077671e-01 1.32129565e-01 1.15980268e-01 1.01152569e-01 8.12870488e-02 6.26307563e-04 6.16242702e-04 6.35501288e-04 9.99459267e-01 9.97506022e-01 5.32786608e-01 8.16626474e-03 1.18221110e-03 6.36933139e-04 6.39130711e-04 1.30535081e-01 9.76962924e-01 9.88236248e-01 9.79256451e-01 9.64835644e-01 9.42851543e-01 9.17026639e-01 8.86908650e-01 8.53738964e-01 8.17185402e-01 7.73570120e-01 7.19746053e-01 6.56030118e-01 5.86549759e-01 5.14625788e-01 4.42662567e-01 3.75762343e-01 3.16107988e-01 2.62946457e-01 2.18483165e-01 1.74396142e-01 1.34302929e-01 6.34254597e-04 6.39650389e-04 6.43930573e-04 9.98795390e-01 9.97970641e-01 9.88823891e-01 6.67293323e-03 6.34546217e-04 6.33152202e-04 4.13386635e-02 9.84471560e-01 9.97306943e-01 9.96116817e-01 9.95295584e-01 9.93560910e-01 9.90258038e-01 9.84441459e-01 9.75413799e-01 9.62367415e-01 9.44205821e-01 9.19599473e-01 8.87602150e-01 8.47884893e-01 8.00275207e-01 7.45278180e-01 6.84479177e-01 6.18703425e-01 5.48837245e-01 4.79896158e-01 4.16926891e-01 3.61242473e-01 2.54439384e-01 6.43584703e-04 6.52375224e-04 6.47204346e-04 7.76827276e-01 1.01448363e-02 9.99476075e-01 6.41046383e-04 6.27722300e-04 6.37074525e-04 7.61386216e-01 9.82158244e-01 9.82281864e-01 9.88751769e-01 9.91019607e-01 9.90871489e-01 9.88745809e-01 9.84662116e-01 9.78340328e-01 9.69312608e-01 9.57058430e-01 9.41252828e-01 9.21830952e-01 8.98878157e-01 8.72628629e-01 8.43084395e-01 8.09494436e-01 7.71064401e-01 7.28291750e-01 6.87268913e-01 6.67647898e-01 6.92203641e-01 5.51955581e-01 6.48800051e-04 6.59314799e-04 6.54501317e-04 6.42763975e-04 6.44200307e-04 9.76177514e-01 6.30726106e-04 6.32571813e-04 2.58548129e-02 1.21877957e-02 2.90301722e-02 2.09420308e-01 7.91037858e-01 9.46201503e-01 9.68249202e-01 9.71155465e-01 9.68142688e-01 9.61572528e-01 9.52001512e-01 9.39807534e-01 9.25576925e-01 9.10115421e-01 8.94254506e-01 8.78309667e-01 8.61746192e-01 8.43549490e-01 8.22814584e-01 8.00911605e-01 7.91911900e-01 8.28046441e-01 9.03188884e-01 8.89000773e-01 6.45405089e-04 6.53940719e-04 6.49514783e-04 6.42481551e-04 9.99459445e-01 6.31866220e-04 6.33759773e-04 3.88635648e-03 1.01421622e-03 1.28486683e-03 2.96067144e-03 1.71648227e-02 2.13864282e-01 6.96520984e-01 8.63059223e-01 9.02780771e-01 9.10339952e-01 9.05580759e-01 8.94382715e-01 8.79809558e-01 8.64455521e-01 8.50618422e-01 8.39574039e-01 8.31129193e-01 8.23788047e-01 8.14953923e-01 8.01240146e-01 7.82586992e-01 7.81786084e-01 8.29507709e-01 9.46274102e-01 9.89412546e-01 3.13007785e-03 6.45287277e-04 6.44730288e-04 9.99459445e-01 6.30125229e-04 6.31018367e-04 1.39297033e-03 6.40374317e-04 6.40375190e-04 8.58788029e-04 2.57449038e-03 1.61023680e-02 1.25143930e-01 4.34235722e-01 6.61860168e-01 7.50657499e-01 7.76548266e-01 7.74257004e-01 7.58117795e-01 7.36806095e-01 7.17386723e-01 7.05100179e-01 7.02414870e-01 7.08405375e-01 7.18641043e-01 7.24735081e-01 7.12748468e-01 6.62363470e-01 5.28284490e-01 3.76485884e-01 5.15785277e-01 9.87365246e-01 6.42695406e-04 6.46108820e-04 9.99462783e-01 6.31647941e-04 6.30229071e-04 6.40390790e-04 6.40373037e-04 6.40374667e-04 6.40371291e-04 1.45345880e-03 6.36770204e-03 3.43950912e-02 1.50608867e-01 3.57586801e-01 5.17503142e-01 5.91595709e-01 6.08344078e-01 5.91633201e-01 5.57717144e-01 5.20537198e-01 4.92370576e-01 4.82160628e-01 4.94406253e-01 5.28239429e-01 5.75285733e-01 6.17108941e-01 6.24484837e-01 5.19990623e-01 1.80101857e-01 9.47412662e-03 6.36934023e-03 1.74085121e-03 6.48201210e-04 9.99471247e-01 6.36326266e-04 6.32139912e-04 6.40395505e-04 6.40376937e-04 6.40376820e-04 6.40372687e-04 1.44482474e-03 5.74296713e-03 2.34250855e-02 8.57261419e-02 2.20119521e-01 3.70553285e-01 4.66788352e-01 5.00219405e-01 4.86540705e-01 4.42780912e-01 3.86778414e-01 3.36332768e-01 3.04938346e-01 3.00213218e-01 3.26157838e-01 3.83270234e-01 4.63517129e-01 5.50674379e-01 6.24281645e-01 6.41705275e-01 1.01010695e-01 4.38971166e-03 3.09586781e-03 2.97097256e-03 9.99477327e-01 6.40899292e-04 6.34865894e-04 6.40409533e-04 6.40397076e-04 6.40384504e-04 6.40376064e-04 2.19280878e-03 8.20842013e-03 2.63906661e-02 7.77888000e-02 1.85222983e-01 3.22473377e-01 4.28602517e-01 4.77342308e-01 4.73180175e-01 4.28212374e-01 3.59022826e-01 2.87388235e-01 2.32676566e-01 2.04328343e-01 2.04120606e-01 2.31640235e-01 2.84280360e-01 3.59587967e-01 4.71466988e-01 6.69194937e-01 8.24501157e-01 7.65619427e-02 2.24081967e-02 9.93874848e-01 9.99462306e-01 6.40685670e-04 6.36592798e-04 6.40440092e-04 6.40443817e-04 6.40402781e-04 8.65890062e-04 4.74100513e-03 1.46266613e-02 3.72796282e-02 9.09050927e-02 1.94912016e-01 3.31434220e-01 4.47734147e-01 5.12947500e-01 5.25374830e-01 4.91002291e-01 4.18373793e-01 3.25589418e-01 2.39789754e-01 1.80671006e-01 1.51032999e-01 1.45355746e-01 1.58766270e-01 1.94620356e-01 2.69088954e-01 4.38452840e-01 7.82046378e-01 9.29393649e-01 9.17894661e-01 9.99159098e-01 9.98719692e-01 6.39413076e-04 6.38048688e-04 6.40547019e-04 6.40504644e-04 6.40432409e-04 2.25030934e-03 1.15111666e-02 2.66659074e-02 5.57496957e-02 1.17522024e-01 2.28215739e-01 3.70025247e-01 4.95235980e-01 5.74928939e-01 6.06977344e-01 5.95221043e-01 5.39734125e-01 4.42052007e-01 3.20272207e-01 2.10036859e-01 1.34967864e-01 9.49502140e-02 8.27286243e-02 1.05138056e-01 2.00343043e-01 4.53995079e-01 8.58584762e-01 9.83933747e-01 9.97300744e-01 9.99133706e-01 1.13192527e-03 6.39980542e-04 6.39260572e-04 6.41002145e-04 6.40688871e-04 6.40438579e-04 8.32768623e-03 2.51206011e-02 4.49528173e-02 8.13791305e-02 1.53579488e-01 2.72675365e-01 4.17854518e-01 5.46482146e-01 6.34767056e-01 6.82713270e-01 6.95722103e-01 6.73227131e-01 6.05067253e-01 4.76878017e-01 3.00288379e-01 1.44268215e-01 6.48823306e-02 4.40214910e-02 7.01352209e-02 2.80874819e-01 8.13721180e-01 9.82867301e-01 9.96083081e-01 9.98260498e-01 9.95472312e-01 6.40846090e-04 6.40216516e-04 6.40009530e-04 6.41859311e-04 6.41320134e-04 1.88504229e-03 2.75451671e-02 4.62861322e-02 6.84821233e-02 1.12039685e-01 1.92675248e-01 3.14978510e-01 4.56718534e-01 5.82445443e-01 6.73684478e-01 7.31555760e-01 7.62639046e-01 7.69316673e-01 7.44003832e-01 6.59679830e-01 4.64847684e-01 2.02085584e-01 7.03895912e-02 4.69770506e-02 1.36632934e-01 7.96739519e-01 9.82055306e-01 9.96107996e-01 9.97300684e-01 9.96686876e-01 1.08309614e-03 6.40383980e-04 6.40306331e-04 6.40315935e-04 6.42713916e-04 6.42164261e-04 1.00547019e-02 5.64091057e-02 7.23442137e-02 9.53958109e-02 1.43458933e-01 2.25640893e-01 3.41529876e-01 4.72174853e-01 5.90711951e-01 6.81947708e-01 7.45679319e-01 7.87672758e-01 8.11756492e-01 8.14986467e-01 7.80170500e-01 6.57237649e-01 4.15975571e-01 2.66918719e-01 4.54989374e-01 9.51048553e-01 9.91296053e-01 9.97277915e-01 9.98090327e-01 9.95920002e-01 1.52636349e-01 6.40415761e-04 6.40300626e-04 6.40271581e-04 6.40346727e-04 6.43517822e-04 6.42977073e-04 3.15175466e-02 8.15839842e-02 9.78166610e-02 1.21848859e-01 1.68410435e-01 2.42015973e-01 3.41444492e-01 4.54750121e-01 5.63372672e-01 6.53439939e-01 7.21667707e-01 7.72294521e-01 8.11390579e-01 8.42752457e-01 8.67142856e-01 8.89339507e-01 9.31335986e-01 9.80676830e-01 9.94629145e-01 9.96204257e-01 9.95782614e-01 9.97119606e-01 9.05089438e-01 6.40375598e-04 6.40233746e-04 6.40179147e-04 6.40308135e-04 6.40309881e-04 6.40356913e-04 6.44386513e-04 6.43790467e-04 5.45770489e-02 1.05969459e-01 1.19121075e-01 1.39851198e-01 1.76907584e-01 2.33322382e-01 3.09653610e-01 4.00921166e-01 4.96039391e-01 5.82799017e-01 6.54783130e-01 7.14686453e-01 7.73075044e-01 8.41219127e-01 9.14321482e-01 9.67382252e-01 9.90422070e-01 9.97048199e-01 9.98093426e-01 5.32087777e-03 6.40348357e-04 6.40376064e-04 6.40354410e-04 6.40341721e-04 6.40295562e-04 6.40174025e-04 6.40266167e-04 6.40374084e-04 1.00214668e-01 6.45395950e-04 6.44702406e-04 7.94658735e-02 1.33618996e-01 1.33111820e-01 1.41913116e-01 1.63763151e-01 1.99918151e-01 2.51441479e-01 3.17367196e-01 3.93000960e-01 4.70440954e-01 5.42597711e-01 6.09790087e-01 6.85691237e-01 7.90916502e-01 9.07977581e-01 9.74180460e-01 9.93153036e-01 9.97531831e-01 9.98457730e-01 9.95882690e-01 6.40378741e-04 6.40409940e-04 6.40401791e-04 6.40388578e-04 6.40406623e-04 9.92690444e-01 9.97854590e-01 9.98767018e-01 9.88218427e-01 6.46585366e-04 6.45776454e-04 1.14759117e-01 1.58313215e-01 1.33326381e-01 1.26878396e-01 1.34496376e-01 1.53578624e-01 1.83532789e-01 2.24292815e-01 2.75307268e-01 3.34692597e-01 3.99167240e-01 4.67028469e-01 5.46345353e-01 6.61820054e-01 8.21238995e-01 9.43066537e-01 9.84914660e-01 9.94836211e-01 9.97489035e-01 9.98080373e-01 9.97745275e-01 9.98943090e-01 9.99459028e-01 9.99459088e-01 9.99459088e-01 9.99459028e-01 9.99258339e-01 9.99211669e-01 9.97158587e-01 6.47948240e-04 6.47053763e-04 1.71984196e-01 1.65378451e-01 1.15912467e-01 1.01026073e-01 1.01215273e-01 1.09861128e-01 1.24813214e-01 1.45752847e-01 1.73704416e-01 2.10796461e-01 2.59365708e-01 3.20386589e-01 3.93812001e-01 4.85673606e-01 6.15561366e-01 7.83548415e-01 9.14822161e-01 9.70500588e-01 9.88602102e-01 9.94609058e-01 9.96906281e-01 9.98114824e-01 9.98551667e-01 9.98643279e-01 9.98599470e-01 9.98401582e-01 9.97703731e-01 9.97576475e-01 9.91990745e-01 6.49366528e-04 6.48553541e-04 2.63204157e-01 1.40664026e-01 8.80921409e-02 7.54828453e-02 7.44295195e-02 7.80315250e-02 8.42258260e-02 9.27838534e-02 1.04952395e-01 1.23612829e-01 1.53494447e-01 2.00606838e-01 2.68679261e-01 3.52459669e-01 4.39022154e-01 5.24894297e-01 6.21624768e-01 7.29043901e-01 8.19101334e-01 8.69515777e-01 8.90977800e-01 8.99672568e-01 8.77116323e-01 8.55962813e-01 8.51399064e-01 8.67565215e-01 9.08377707e-01 9.34644759e-01 9.02801752e-01 6.52019400e-04 6.50269387e-04 4.99740750e-01 1.02211528e-01 6.53674453e-02 5.82069419e-02 5.67881688e-02 5.68908118e-02 5.75730540e-02 5.91290630e-02 6.27500489e-02 7.07002506e-02 8.71843472e-02 1.20279089e-01 1.83610842e-01 2.87852466e-01 4.09295171e-01 4.82072920e-01 4.47960377e-01 2.89363384e-01 1.11698769e-01 3.80021781e-02 2.56008077e-02 3.99579518e-02 8.85222852e-02 1.61810815e-01 2.11385429e-01 2.40099236e-01 2.69569516e-01 2.98489958e-01 5.01434922e-01 6.45075168e-04 6.48799003e-04 9.55886781e-01 2.39351362e-01 1.85962409e-01 1.71966031e-01 1.67487949e-01 1.64932102e-01 1.62406042e-01 1.60741061e-01 1.62168503e-01 1.69960558e-01 1.88725024e-01 2.24879876e-01 2.85628438e-01 3.72255772e-01 4.66755599e-01 5.28125167e-01 5.05702555e-01 3.51764143e-01 1.37597784e-01 4.08569947e-02 2.22490765e-02 3.07607464e-02 8.16309452e-02 1.90206170e-01 2.84701943e-01 3.08956802e-01 2.91642338e-01 2.63748199e-01 3.45636010e-01 
