# vtk DataFile Version 2.0
results_case1_non_linear/iter10.vtk, Created by Freefem++ 
ASCII
DATASET UNSTRUCTURED_GRID
POINTS 961 float
0 0 0
0.033333333 0 0
0.066666667 0 0
0.1 0 0
0.13333333 0 0
0.16666667 0 0
0.2 0 0
0.23333333 0 0
0.26666667 0 0
0.3 0 0
0.33333333 0 0
0.36666667 0 0
0.4 0 0
0.43333333 0 0
0.46666667 0 0
0.5 0 0
0.53333333 0 0
0.56666667 0 0
0.6 0 0
0.63333333 0 0
0.66666667 0 0
0.7 0 0
0.73333333 0 0
0.76666667 0 0
0.8 0 0
0.83333333 0 0
0.86666667 0 0
0.9 0 0
0.93333333 0 0
0.96666667 0 0
1 0 0
0 0.033333333 0
0.033333333 0.033333333 0
0.066666667 0.033333333 0
0.1 0.033333333 0
0.13333333 0.033333333 0
0.16666667 0.033333333 0
0.2 0.033333333 0
0.23333333 0.033333333 0
0.26666667 0.033333333 0
0.3 0.033333333 0
0.33333333 0.033333333 0
0.36666667 0.033333333 0
0.4 0.033333333 0
0.43333333 0.033333333 0
0.46666667 0.033333333 0
0.5 0.033333333 0
0.53333333 0.033333333 0
0.56666667 0.033333333 0
0.6 0.033333333 0
0.63333333 0.033333333 0
0.66666667 0.033333333 0
0.7 0.033333333 0
0.73333333 0.033333333 0
0.76666667 0.033333333 0
0.8 0.033333333 0
0.83333333 0.033333333 0
0.86666667 0.033333333 0
0.9 0.033333333 0
0.93333333 0.033333333 0
0.96666667 0.033333333 0
1 0.033333333 0
0 0.066666667 0
0.033333333 0.066666667 0
0.066666667 0.066666667 0
0.1 0.066666667 0
0.13333333 0.066666667 0
0.16666667 0.066666667 0
0.2 0.066666667 0
0.23333333 0.066666667 0
0.26666667 0.066666667 0
0.3 0.066666667 0
0.33333333 0.066666667 0
0.36666667 0.066666667 0
0.4 0.066666667 0
0.43333333 0.066666667 0
0.46666667 0.066666667 0
0.5 0.066666667 0
0.53333333 0.066666667 0
0.56666667 0.066666667 0
0.6 0.066666667 0
0.63333333 0.066666667 0
0.66666667 0.066666667 0
0.7 0.066666667 0
0.73333333 0.066666667 0
0.76666667 0.066666667 0
0.8 0.066666667 0
0.83333333 0.066666667 0
0.86666667 0.066666667 0
0.9 0.066666667 0
0.93333333 0.066666667 0
0.96666667 0.066666667 0
1 0.066666667 0
0 0.1 0
0.033333333 0.1 0
0.066666667 0.1 0
0.1 0.1 0
0.13333333 0.1 0
0.16666667 0.1 0
0.2 0.1 0
0.23333333 0.1 0
0.26666667 0.1 0
0.3 0.1 0
0.33333333 0.1 0
0.36666667 0.1 0
0.4 0.1 0
0.43333333 0.1 0
0.46666667 0.1 0
0.5 0.1 0
0.53333333 0.1 0
0.56666667 0.1 0
0.6 0.1 0
0.63333333 0.1 0
0.66666667 0.1 0
0.7 0.1 0
0.73333333 0.1 0
0.76666667 0.1 0
0.8 0.1 0
0.83333333 0.1 0
0.86666667 0.1 0
0.9 0.1 0
0.93333333 0.1 0
0.96666667 0.1 0
1 0.1 0
0 0.13333333 0
0.033333333 0.13333333 0
0.066666667 0.13333333 0
0.1 0.13333333 0
0.13333333 0.13333333 0
0.16666667 0.13333333 0
0.2 0.13333333 0
0.23333333 0.13333333 0
0.26666667 0.13333333 0
0.3 0.13333333 0
0.33333333 0.13333333 0
0.36666667 0.13333333 0
0.4 0.13333333 0
0.43333333 0.13333333 0
0.46666667 0.13333333 0
0.5 0.13333333 0
0.53333333 0.13333333 0
0.56666667 0.13333333 0
0.6 0.13333333 0
0.63333333 0.13333333 0
0.66666667 0.13333333 0
0.7 0.13333333 0
0.73333333 0.13333333 0
0.76666667 0.13333333 0
0.8 0.13333333 0
0.83333333 0.13333333 0
0.86666667 0.13333333 0
0.9 0.13333333 0
0.93333333 0.13333333 0
0.96666667 0.13333333 0
1 0.13333333 0
0 0.16666667 0
0.033333333 0.16666667 0
0.066666667 0.16666667 0
0.1 0.16666667 0
0.13333333 0.16666667 0
0.16666667 0.16666667 0
0.2 0.16666667 0
0.23333333 0.16666667 0
0.26666667 0.16666667 0
0.3 0.16666667 0
0.33333333 0.16666667 0
0.36666667 0.16666667 0
0.4 0.16666667 0
0.43333333 0.16666667 0
0.46666667 0.16666667 0
0.5 0.16666667 0
0.53333333 0.16666667 0
0.56666667 0.16666667 0
0.6 0.16666667 0
0.63333333 0.16666667 0
0.66666667 0.16666667 0
0.7 0.16666667 0
0.73333333 0.16666667 0
0.76666667 0.16666667 0
0.8 0.16666667 0
0.83333333 0.16666667 0
0.86666667 0.16666667 0
0.9 0.16666667 0
0.93333333 0.16666667 0
0.96666667 0.16666667 0
1 0.16666667 0
0 0.2 0
0.033333333 0.2 0
0.066666667 0.2 0
0.1 0.2 0
0.13333333 0.2 0
0.16666667 0.2 0
0.2 0.2 0
0.23333333 0.2 0
0.26666667 0.2 0
0.3 0.2 0
0.33333333 0.2 0
0.36666667 0.2 0
0.4 0.2 0
0.43333333 0.2 0
0.46666667 0.2 0
0.5 0.2 0
0.53333333 0.2 0
0.56666667 0.2 0
0.6 0.2 0
0.63333333 0.2 0
0.66666667 0.2 0
0.7 0.2 0
0.73333333 0.2 0
0.76666667 0.2 0
0.8 0.2 0
0.83333333 0.2 0
0.86666667 0.2 0
0.9 0.2 0
0.93333333 0.2 0
0.96666667 0.2 0
1 0.2 0
0 0.23333333 0
0.033333333 0.23333333 0
0.066666667 0.23333333 0
0.1 0.23333333 0
0.13333333 0.23333333 0
0.16666667 0.23333333 0
0.2 0.23333333 0
0.23333333 0.23333333 0
0.26666667 0.23333333 0
0.3 0.23333333 0
0.33333333 0.23333333 0
0.36666667 0.23333333 0
0.4 0.23333333 0
0.43333333 0.23333333 0
0.46666667 0.23333333 0
0.5 0.23333333 0
0.53333333 0.23333333 0
0.56666667 0.23333333 0
0.6 0.23333333 0
0.63333333 0.23333333 0
0.66666667 0.23333333 0
0.7 0.23333333 0
0.73333333 0.23333333 0
0.76666667 0.23333333 0
0.8 0.23333333 0
0.83333333 0.23333333 0
0.86666667 0.23333333 0
0.9 0.23333333 0
0.93333333 0.23333333 0
0.96666667 0.23333333 0
1 0.23333333 0
0 0.26666667 0
0.033333333 0.26666667 0
0.066666667 0.26666667 0
0.1 0.26666667 0
0.13333333 0.26666667 0
0.16666667 0.26666667 0
0.2 0.26666667 0
0.23333333 0.26666667 0
0.26666667 0.26666667 0
0.3 0.26666667 0
0.33333333 0.26666667 0
0.36666667 0.26666667 0
0.4 0.26666667 0
0.43333333 0.26666667 0
0.46666667 0.26666667 0
0.5 0.26666667 0
0.53333333 0.26666667 0
0.56666667 0.26666667 0
0.6 0.26666667 0
0.63333333 0.26666667 0
0.66666667 0.26666667 0
0.7 0.26666667 0
0.73333333 0.26666667 0
0.76666667 0.26666667 0
0.8 0.26666667 0
0.83333333 0.26666667 0
0.86666667 0.26666667 0
0.9 0.26666667 0
0.93333333 0.26666667 0
0.96666667 0.26666667 0
1 0.26666667 0
0 0.3 0
0.033333333 0.3 0
0.066666667 0.3 0
0.1 0.3 0
0.13333333 0.3 0
0.16666667 0.3 0
0.2 0.3 0
0.23333333 0.3 0
0.26666667 0.3 0
0.3 0.3 0
0.33333333 0.3 0
0.36666667 0.3 0
0.4 0.3 0
0.43333333 0.3 0
0.46666667 0.3 0
0.5 0.3 0
0.53333333 0.3 0
0.56666667 0.3 0
0.6 0.3 0
0.63333333 0.3 0
0.66666667 0.3 0
0.7 0.3 0
0.73333333 0.3 0
0.76666667 0.3 0
0.8 0.3 0
0.83333333 0.3 0
0.86666667 0.3 0
0.9 0.3 0
0.93333333 0.3 0
0.96666667 0.3 0
1 0.3 0
0 0.33333333 0
0.033333333 0.33333333 0
0.066666667 0.33333333 0
0.1 0.33333333 0
0.13333333 0.33333333 0
0.16666667 0.33333333 0
0.2 0.33333333 0
0.23333333 0.33333333 0
0.26666667 0.33333333 0
0.3 0.33333333 0
0.33333333 0.33333333 0
0.36666667 0.33333333 0
0.4 0.33333333 0
0.43333333 0.33333333 0
0.46666667 0.33333333 0
0.5 0.33333333 0
0.53333333 0.33333333 0
0.56666667 0.33333333 0
0.6 0.33333333 0
0.63333333 0.33333333 0
0.66666667 0.33333333 0
0.7 0.33333333 0
0.73333333 0.33333333 0
0.76666667 0.33333333 0
0.8 0.33333333 0
0.83333333 0.33333333 0
0.86666667 0.33333333 0
0.9 0.33333333 0
0.93333333 0.33333333 0
0.96666667 0.33333333 0
1 0.33333333 0
0 0.36666667 0
0.033333333 0.36666667 0
0.066666667 0.36666667 0
0.1 0.36666667 0
0.13333333 0.36666667 0
0.16666667 0.36666667 0
0.2 0.36666667 0
0.23333333 0.36666667 0
0.26666667 0.36666667 0
0.3 0.36666667 0
0.33333333 0.36666667 0
0.36666667 0.36666667 0
0.4 0.36666667 0
0.43333333 0.36666667 0
0.46666667 0.36666667 0
0.5 0.36666667 0
0.53333333 0.36666667 0
0.56666667 0.36666667 0
0.6 0.36666667 0
0.63333333 0.36666667 0
0.66666667 0.36666667 0
0.7 0.36666667 0
0.73333333 0.36666667 0
0.76666667 0.36666667 0
0.8 0.36666667 0
0.83333333 0.36666667 0
0.86666667 0.36666667 0
0.9 0.36666667 0
0.93333333 0.36666667 0
0.96666667 0.36666667 0
1 0.36666667 0
0 0.4 0
0.033333333 0.4 0
0.066666667 0.4 0
0.1 0.4 0
0.13333333 0.4 0
0.16666667 0.4 0
0.2 0.4 0
0.23333333 0.4 0
0.26666667 0.4 0
0.3 0.4 0
0.33333333 0.4 0
0.36666667 0.4 0
0.4 0.4 0
0.43333333 0.4 0
0.46666667 0.4 0
0.5 0.4 0
0.53333333 0.4 0
0.56666667 0.4 0
0.6 0.4 0
0.63333333 0.4 0
0.66666667 0.4 0
0.7 0.4 0
0.73333333 0.4 0
0.76666667 0.4 0
0.8 0.4 0
0.83333333 0.4 0
0.86666667 0.4 0
0.9 0.4 0
0.93333333 0.4 0
0.96666667 0.4 0
1 0.4 0
0 0.43333333 0
0.033333333 0.43333333 0
0.066666667 0.43333333 0
0.1 0.43333333 0
0.13333333 0.43333333 0
0.16666667 0.43333333 0
0.2 0.43333333 0
0.23333333 0.43333333 0
0.26666667 0.43333333 0
0.3 0.43333333 0
0.33333333 0.43333333 0
0.36666667 0.43333333 0
0.4 0.43333333 0
0.43333333 0.43333333 0
0.46666667 0.43333333 0
0.5 0.43333333 0
0.53333333 0.43333333 0
0.56666667 0.43333333 0
0.6 0.43333333 0
0.63333333 0.43333333 0
0.66666667 0.43333333 0
0.7 0.43333333 0
0.73333333 0.43333333 0
0.76666667 0.43333333 0
0.8 0.43333333 0
0.83333333 0.43333333 0
0.86666667 0.43333333 0
0.9 0.43333333 0
0.93333333 0.43333333 0
0.96666667 0.43333333 0
1 0.43333333 0
0 0.46666667 0
0.033333333 0.46666667 0
0.066666667 0.46666667 0
0.1 0.46666667 0
0.13333333 0.46666667 0
0.16666667 0.46666667 0
0.2 0.46666667 0
0.23333333 0.46666667 0
0.26666667 0.46666667 0
0.3 0.46666667 0
0.33333333 0.46666667 0
0.36666667 0.46666667 0
0.4 0.46666667 0
0.43333333 0.46666667 0
0.46666667 0.46666667 0
0.5 0.46666667 0
0.53333333 0.46666667 0
0.56666667 0.46666667 0
0.6 0.46666667 0
0.63333333 0.46666667 0
0.66666667 0.46666667 0
0.7 0.46666667 0
0.73333333 0.46666667 0
0.76666667 0.46666667 0
0.8 0.46666667 0
0.83333333 0.46666667 0
0.86666667 0.46666667 0
0.9 0.46666667 0
0.93333333 0.46666667 0
0.96666667 0.46666667 0
1 0.46666667 0
0 0.5 0
0.033333333 0.5 0
0.066666667 0.5 0
0.1 0.5 0
0.13333333 0.5 0
0.16666667 0.5 0
0.2 0.5 0
0.23333333 0.5 0
0.26666667 0.5 0
0.3 0.5 0
0.33333333 0.5 0
0.36666667 0.5 0
0.4 0.5 0
0.43333333 0.5 0
0.46666667 0.5 0
0.5 0.5 0
0.53333333 0.5 0
0.56666667 0.5 0
0.6 0.5 0
0.63333333 0.5 0
0.66666667 0.5 0
0.7 0.5 0
0.73333333 0.5 0
0.76666667 0.5 0
0.8 0.5 0
0.83333333 0.5 0
0.86666667 0.5 0
0.9 0.5 0
0.93333333 0.5 0
0.96666667 0.5 0
1 0.5 0
0 0.53333333 0
0.033333333 0.53333333 0
0.066666667 0.53333333 0
0.1 0.53333333 0
0.13333333 0.53333333 0
0.16666667 0.53333333 0
0.2 0.53333333 0
0.23333333 0.53333333 0
0.26666667 0.53333333 0
0.3 0.53333333 0
0.33333333 0.53333333 0
0.36666667 0.53333333 0
0.4 0.53333333 0
0.43333333 0.53333333 0
0.46666667 0.53333333 0
0.5 0.53333333 0
0.53333333 0.53333333 0
0.56666667 0.53333333 0
0.6 0.53333333 0
0.63333333 0.53333333 0
0.66666667 0.53333333 0
0.7 0.53333333 0
0.73333333 0.53333333 0
0.76666667 0.53333333 0
[...]
CELL_DATA 1920
Scalars  Label int 1
LOOKUP_TABLE FreeFempp_table
0
0
0
0
0
0
0
0
0
0
0
0
0
0
0
0
0
0
0
0
0
0
0
0
0
0
0
0
0
0
0
0
0
0
0
0
0
0
0
0
0
0
0
0
0
0
0
0
0
0
0
0
0
0
0
0
0
0
0
0
0
0
0
0
0
0
0
0
0
0
0
0
0
0
0
0
0
0
0
0
0
0
0
0
0
0
0
0
0
0
0
0
0
0
0
0
0
0
0
0
0
0
0
0
0
0
0
0
0
0
0
0
0
0
0
0
0
0
0
0
0
0
0
0
0
0
0
0
0
0
0
0
0
0
0
0
0
0
0
0
0
0
0
0
0
0
0
0
0
0
0
0
0
0
0
0
0
0
0
0
0
0
0
0
0
0
0
0
0
0
0
0
0
0
0
0
0
0
0
0
0
0
0
0
0
0
0
0
0
0
0
0
0
0
0
0
0
0
0
0
0
0
0
0
0
0
0
0
0
0
0
0
0
0
0
0
0
0
0
0
0
0
0
0
0
0
0
0
0
0
0
0
0
0
0
0
0
0
0
0
0
0
0
0
0
0
0
0
0
0
0
0
0
0
0
0
0
0
0
0
0
0
0
0
0
0
0
0
0
0
0
0
0
0
0
0
0
0
0
0
0
0
0
0
0
0
0
0
0
0
0
0
0
0
0
0
0
0
0
0
0
0
0
0
0
0
0
0
0
0
0
0
0
0
0
0
0
0
0
0
0
0
0
0
0
0
0
0
0
0
0
0
0
0
0
0
0
0
0
0
0
0
0
0
0
0
0
0
0
0
0
0
0
0
0
0
0
0
0
0
0
0
0
0
0
0
0
0
0
0
0
0
0
0
0
0
0
0
0
0
0
0
0
0
0
0
0
0
0
0
0
0
0
0
0
0
0
0
0
0
0
0
0
0
0
0
0
0
0
0
0
0
0
0
0
0
0
0
0
0
0
0
0
0
0
0
0
0
0
0
0
0
0
0
0
0
0
0
0
0
0
0
0
0
0
0
0
0
0
0
0
0
0
0
0
0
0
0
0
0
0
0
0
0
0
0
0
0
0
0
0
0
0
0
0
0
0
0
0
0
0
0
0
0
0
0
0
0
0
0
0
0
0
0
0
0
0
0
0
0
0
0
0
0
0
0
0
0
0
0
0
0
0
0
0
0
0
0
0
0
0
0
0
0
0
0
0
0
0
0
0
0
0
0
0
0
0
0
0
0
0
0
0
0
0
0
0
0
0
0
0
0
0
0
0
0
0
0
0
0
0
0
0
0
0
0
0
0
0
0
0
0
0
0
0
0
0
0
0
0
0
0
0
0
0
0
0
0
0
0
0
0
0
0
0
0
0
0
0
0
0
0
0
0
0
0
0
0
0
0
0
0
0
0
0
0
0
0
0
0
0
0
0
0
0
0
0
0
0
0
0
0
0
0
0
0
0
0
0
0
0
0
0
0
0
0
0
0
0
0
0
0
0
0
0
0
0
0
0
0
0
0
0
0
0
0
0
0
0
0
0
0
0
0
0
0
0
0
0
0
0
0
0
0
0
0
0
0
0
0
0
0
0
0
0
0
0
0
0
0
0
0
0
0
0
0
0
0
0
0
0
0
0
0
0
0
0
0
0
0
0
0
0
0
0
0
0
0
0
0
0
0
0
0
0
0
0
0
0
0
0
0
0
0
0
0
0
0
0
0
0
0
0
0
0
0
0
0
0
0
0
0
0
0
0
0
0
0
0
0
0
0
0
0
0
0
0
0
0
0
0
0
0
0
0
0
0
0
0
0
0
0
0
0
0
0
0
0
0
0
0
0
0
0
0
0
0
0
0
0
0
0
0
0
0
0
0
0
0
0
0
0
0
0
0
0
0
0
0
0
0
0
0
0
0
0
0
0
0
0
0
0
0
0
0
0
0
0
0
0
0
0
0
0
0
0
0
0
0
0
0
0
0
0
0
0
0
0
0
0
0
0
0
0
0
0
0
0
0
0
0
0
0
0
0
0
0
0
0
0
0
0
0
0
0
0
0
0
0
0
0
0
0
0
0
0
0
0
0
0
0
0
0
0
0
0
0
0
0
0
0
0
0
0
0
0
0
0
0
0
0
0
0
0
0
0
0
0
0
0
0
0
0
0
0
0
0
0
0
0
0
0
0
0
0
0
0
0
0
0
0
0
0
0
0
0
0
0
0
0
0
0
0
0
0
0
0
0
0
0
0
0
0
0
0
0
0
0
0
0
0
0
0
0
0
0
0
0
0
0
0
0
0
0
0
0
0
0
0
0
0
0
0
0
0
0
0
0
0
0
0
0
0
0
0
0
0
0
0
0
0
0
0
0
0
0
0
0
0
0
0
0
0
0
0
0
0
0
0
0
0
0
0
0
0
0
0
0
0
0
0
0
0
0
0
0
0
0
0
0
0
0
0
0
0
0
0
0
0
0
0
0
0
0
0
0
0
0
0
0
0
0
0
0
0
0
0
0
0
0
0
0
0
0
0
0
0
0
0
0
0
0
0
0
0
0
0
0
0
0
0
0
0
0
0
0
0
0
0
0
0
0
0
0
0
0
0
0
0
0
0
0
0
0
0
0
0
0
0
0
0
0
0
0
0
0
0
0
0
0
0
0
0
0
0
0
0
0
0
0
0
0
0
0
0
0
0
0
0
0
0
0
0
0
0
0
0
0
0
0
0
0
0
0
0
0
0
0
0
0
0
0
0
0
0
0
0
0
0
0
0
0
0
0
0
0
0
0
0
0
0
0
0
0
0
0
0
0
0
0
0
0
0
0
0
0
0
0
0
0
0
0
0
0
0
0
0
0
0
0
0
0
0
0
0
0
0
0
0
0
0
0
0
0
0
0
0
0
0
0
0
0
0
0
0
0
0
0
0
0
0
0
0
0
0
0
0
0
0
0
0
0
0
0
0
0
0
0
0
0
0
0
0
0
0
0
0
0
0
0
0
0
0
0
0
0
0
0
0
0
0
0
0
0
0
0
0
0
0
0
0
0
0
0
0
0
0
0
0
0
0
0
0
0
0
0
0
0
0
0
0
0
0
0
0
0
0
0
0
0
0
0
0
0
0
0
0
0
0
0
0
0
0
0
0
0
0
0
0
0
0
0
0
0
0
0
0
0
0
0
0
0
0
0
0
0
0
0
0
0
0
0
0
0
0
0
0
0
0
0
0
0
0
0
0
0
0
0
0
0
0
0
0
0
0
0
0
0
0
0
0
0
0
0
0
0
0
0
0
0
0
0
0
0
0
0
0
0
0
0
0
0
0
0
0
0
0
0
0
0
0
0
0
0
0
0
0
0
0
0
0
0
0
0
0
0
0
0
0
0
0
0
0
0
0
0
0
0
0
0
0
0
0
0
0
0
0
0
0
0
0
0
0
0
0
0
0
0
0
0
0
0
0
0
0
0
0
0
0
0
0
0
0
0
0
0
0
0
0
0
0
0
0
0
0
0
0
0
0
0
0
0
0
0
0
0
0
0
0
0
0
0
0
0
0
0
0
0
0
0
0
0
0
0
0
0
0
0
0
0
0
0
0
0
0
0
0
0
0
0
0
0
0
0
0
0
0
0
0
0
0
0
0
0
0
0
0
0
0
0
0
0
0
0
0
0
0
0
0
0
0
0
0
0
0
0
0
0
0
0
0
0
0
0
0
0
0
0
0
0
0
0
0
0
0
0
0
0
0
0
0
0
0
0
0
0
0
0
0
0
0
0
0
0
0
0
0
0
0
0
0
0
0
0
0
0
0
0
0
0
0
0
0
0
0
0
0
0
0
0
0
0
0
0
0
0
0
0
0
0
0
0
0
0
0
0
0
0
0
0
0
0
0
0
0
0
0
0
0
0
0
0
0
0
0
0
0
0
0
0
0
0
0
0
0
0
0
0
0
0
0
0
0
0
0
0
0
0
0
0
0
0
0
0
0
0
0
0
0
0
0
0
0
0
0
0
0
0
0
0
0
0
0
0
0
0
0
0
0
0
0
0
0
0
0
0
0
0
0
0
0
0
0
0
0
0
0
0
0
0
0
0
0
0
0
0
0
0
0
0
1
1
1
1
1
1
1
1
1
1
1
1
1
1
1
1
1
1
1
1
1
1
1
1
1
1
1
1
1
1
2
2
2
2
2
2
2
2
2
2
2
2
2
2
2
2
2
2
2
2
2
2
2
2
2
2
2
2
2
2
3
3
3
3
3
3
3
3
3
3
3
3
3
3
3
3
3
3
3
3
3
3
3
3
3
3
3
3
3
3
4
4
4
4
4
4
4
4
4
4
4
4
4
4
4
4
4
4
4
4
4
4
4
4
4
4
4
4
4
4

LOOKUP_TABLE FreeFempp_table 5
1.00000000 0.00000000 0.00000000 1.00000000
1.00000000 1.00000000 0.00000000 1.00000000
1.00000000 0.00000000 1.00000000 1.00000000
0.00000000 1.00000000 0.00000000 1.00000000
0.00000000 1.00000000 1.00000000 1.00000000

POINT_DATA 961
FIELD FieldData 1
Density 1 961 float
4.76748675e-01 4.66580242e-01 4.68581825e-01 4.70553666e-01 4.72141117e-01 4.72996414e-01 4.72853392e-01 4.71701831e-01 4.69977915e-01 4.68413919e-01 4.67707247e-01 4.65540081e-01 3.59824121e-01 1.99061576e-02 2.77504921e-02 3.75259370e-01 7.23432124e-01 5.60084999e-01 4.86224532e-01 5.41969538e-01 5.85347295e-01 5.59616029e-01 5.38896680e-01 5.27044654e-01 5.20716071e-01 5.16170382e-01 5.13216794e-01 5.11381567e-01 5.10220289e-01 5.11030495e-01 5.03606677e-01 4.69651431e-01 4.39253926e-01 4.41164494e-01 4.43226069e-01 4.45313215e-01 4.46855038e-01 4.47319120e-01 4.46357429e-01 4.44048226e-01 4.40908611e-01 4.37653542e-01 4.33123797e-01 3.52243096e-01 1.83515847e-02 1.50362961e-02 1.87017620e-01 8.66060674e-01 6.77590191e-01 4.54507858e-01 5.56532979e-01 6.89049959e-01 6.57059491e-01 5.97980142e-01 5.70035100e-01 5.49888849e-01 5.36771595e-01 5.28462589e-01 5.23768246e-01 5.21511078e-01 5.22134185e-01 5.11443317e-01 4.85141426e-01 4.50478464e-01 4.49172318e-01 4.49370503e-01 4.50455576e-01 4.51798975e-01 4.52567786e-01 4.51467156e-01 4.47736382e-01 4.42373037e-01 4.36059564e-01 4.21474189e-01 3.31774026e-01 2.31931452e-02 1.80082880e-02 1.00032419e-01 8.31036448e-01 5.77902675e-01 9.12940130e-02 1.76792458e-01 2.28739768e-01 2.35524639e-01 5.75888216e-01 5.73884785e-01 5.51928222e-01 5.31413376e-01 5.18381596e-01 5.13061583e-01 5.10937452e-01 5.10138631e-01 5.07237077e-01 4.60911334e-01 4.35854793e-01 4.45471108e-01 4.51496542e-01 4.53885108e-01 4.53073502e-01 4.46124107e-01 4.21330214e-01 3.55362803e-01 2.38223329e-01 1.25782132e-01 7.14778230e-02 4.67826054e-02 2.11325493e-02 1.53124155e-02 7.06493929e-02 6.80515766e-01 7.30393708e-01 9.27445740e-02 6.99162558e-02 4.04468551e-02 2.56576352e-02 2.88312901e-02 6.20172508e-02 3.36494952e-01 5.18063188e-01 5.05688787e-01 4.95958000e-01 4.94087517e-01 4.92719024e-01 4.99414653e-01 8.62942785e-02 1.34570062e-01 2.28637949e-01 2.94089556e-01 3.32515895e-01 3.43571573e-01 3.09570223e-01 1.87669590e-01 4.71124835e-02 1.37400879e-02 7.81226298e-03 5.52552287e-03 5.49722230e-03 6.19073957e-03 4.94252238e-03 3.81870009e-03 3.72776002e-01 7.99321711e-01 3.65076244e-01 6.13677539e-02 5.15027493e-02 2.82485206e-02 1.51952002e-02 1.24322278e-02 1.15289409e-02 1.36055604e-01 4.56651866e-01 4.75826412e-01 4.72627789e-01 4.72412556e-01 4.89978701e-01 4.85403277e-03 3.96357989e-03 4.09176620e-03 4.62291855e-03 6.58352301e-03 8.50509852e-03 8.99436697e-03 8.46471917e-03 7.52228033e-03 7.91997649e-03 8.44600424e-03 6.50751963e-03 5.36630349e-03 6.04512310e-03 6.71760458e-03 2.47004908e-03 2.37090909e-03 4.53984916e-01 7.54718602e-01 3.03423464e-01 1.00008622e-01 1.01464234e-01 5.10849059e-02 1.99886840e-02 8.56551994e-03 7.63116824e-03 8.20482075e-02 4.32897657e-01 4.56445485e-01 4.55605805e-01 4.81739968e-01 7.50667695e-03 3.52364313e-03 4.06680396e-03 3.87137686e-03 4.41503292e-03 6.03148853e-03 7.32297869e-03 7.75815267e-03 7.37743452e-03 7.43111735e-03 9.14700422e-03 1.86580252e-02 7.61323571e-02 2.48185158e-01 3.17793578e-01 1.01630598e-01 2.81181559e-03 2.80557340e-03 4.45257843e-01 8.37033808e-01 6.91514492e-01 4.44859952e-01 3.76253575e-01 3.54037017e-01 1.38331443e-01 7.06569431e-03 6.47411589e-03 8.21161419e-02 4.35865372e-01 4.48140383e-01 4.76794064e-01 4.16978657e-01 2.71382093e-01 1.59208804e-01 7.26876482e-02 3.00143082e-02 1.58310458e-02 1.17876334e-02 1.15749296e-02 1.49167655e-02 2.67849229e-02 6.78376630e-02 1.85158864e-01 3.24329853e-01 4.07441914e-01 4.34187949e-01 4.28929836e-01 3.30446482e-01 2.71113776e-03 3.07258544e-03 3.21848691e-02 6.04481459e-01 8.02399158e-01 7.09508836e-01 6.75669372e-01 5.94773293e-01 2.79056728e-01 6.10617315e-03 5.54262195e-03 1.47516280e-01 4.42800701e-01 4.73935038e-01 5.08444905e-01 5.00888467e-01 4.93662089e-01 4.82065767e-01 4.68793035e-01 4.45244312e-01 4.07459289e-01 3.68336201e-01 3.46920848e-01 3.47493410e-01 3.67396146e-01 4.00265247e-01 4.33905900e-01 4.52102125e-01 4.55421984e-01 4.55521464e-01 4.54140782e-01 4.01915312e-01 3.67083913e-03 4.57047252e-03 6.80662738e-03 4.04665656e-02 6.89142585e-01 7.09204435e-01 7.20859289e-01 7.96295941e-01 1.97302341e-01 5.83409937e-03 7.03554694e-03 3.36102039e-01 4.69484776e-01 5.27620375e-01 5.34911573e-01 5.23859382e-01 5.11690617e-01 4.97883141e-01 4.87450957e-01 4.80324537e-01 4.76564407e-01 4.77043539e-01 4.80415553e-01 4.83283490e-01 4.85283434e-01 4.83746737e-01 4.79313374e-01 4.76822793e-01 4.77541924e-01 4.77862060e-01 4.86129552e-01 4.42396820e-01 8.83983169e-03 5.73830260e-03 6.57043839e-03 9.60539561e-03 2.06729591e-01 2.15704337e-01 2.73543686e-01 8.23204637e-01 1.65599622e-02 7.10845599e-03 1.67372543e-02 4.44137424e-01 5.47671854e-01 5.75950980e-01 5.64769506e-01 5.58524847e-01 5.49100399e-01 5.37570298e-01 5.26608407e-01 5.17862678e-01 5.12354791e-01 5.09706557e-01 5.08869112e-01 5.08369029e-01 5.07271409e-01 5.05122781e-01 5.02889991e-01 5.02103209e-01 5.02401710e-01 5.01829684e-01 5.02763689e-01 5.17341018e-01 3.54679495e-01 1.16493637e-02 8.47156253e-03 8.85409303e-03 1.79938544e-02 5.72079122e-02 1.37457356e-01 9.46541131e-01 6.81697764e-03 5.60158445e-03 1.94109529e-01 5.55170357e-01 6.02722049e-01 5.92981577e-01 5.90384126e-01 5.83206475e-01 5.72839081e-01 5.61368823e-01 5.50680339e-01 5.41828215e-01 5.35582125e-01 5.31667352e-01 5.29181123e-01 5.27468264e-01 5.25924921e-01 5.24246752e-01 5.22788286e-01 5.22597253e-01 5.23691595e-01 5.24921238e-01 5.29289305e-01 5.31498551e-01 5.00400841e-01 1.38687745e-01 1.23775816e-02 1.35147860e-02 1.35929259e-02 5.15718572e-02 7.52160132e-01 6.55475780e-02 5.53605892e-03 8.40484723e-03 5.49329400e-01 6.03560746e-01 5.96147120e-01 5.95065892e-01 5.90032279e-01 5.80927968e-01 5.69085121e-01 5.58321297e-01 5.50307810e-01 5.45210660e-01 5.42085707e-01 5.39752007e-01 5.37471473e-01 5.35079002e-01 5.32750726e-01 5.30840814e-01 5.30131638e-01 5.31855583e-01 5.36628246e-01 5.44877410e-01 5.58979273e-01 5.73586702e-01 5.99795580e-01 4.94070739e-01 2.01211303e-01 1.30533680e-01 6.89186230e-02 2.00572982e-01 9.23093379e-01 9.61601920e-03 9.10973363e-03 5.35753071e-01 5.83134592e-01 5.72169125e-01 5.62791228e-01 5.62806487e-01 5.62675595e-01 5.52273035e-01 5.42479634e-01 5.36305547e-01 5.34404457e-01 5.34402311e-01 5.34038842e-01 5.32258213e-01 5.29259562e-01 5.25846958e-01 5.22682190e-01 5.20370066e-01 5.19969404e-01 5.22804439e-01 5.29013515e-01 5.39090693e-01 5.54228842e-01 5.82366407e-01 6.43381119e-01 6.49111569e-01 3.61639589e-01 1.17862269e-01 1.10319547e-01 9.57571864e-01 1.07247047e-02 9.70041845e-03 5.20859957e-01 5.51999211e-01 5.26009679e-01 4.87243176e-01 4.87694740e-01 5.05557299e-01 5.14849007e-01 5.14258385e-01 5.08482337e-01 5.10983944e-01 5.15286744e-01 5.17706811e-01 5.17050922e-01 5.13980269e-01 5.09948075e-01 5.05779922e-01 5.02064884e-01 4.99853879e-01 5.00440538e-01 5.04077852e-01 5.09425640e-01 5.15630007e-01 5.24898648e-01 5.48611879e-01 5.69341302e-01 5.01936555e-01 4.13291156e-01 5.45967162e-01 8.90079618e-01 1.17741413e-02 1.05851339e-02 5.10117471e-01 5.23781419e-01 4.75969821e-01 3.80434096e-01 3.59499961e-01 4.05581564e-01 4.49691236e-01 4.72489387e-01 4.82088685e-01 4.85393256e-01 4.93648022e-01 4.98678207e-01 4.99515206e-01 4.97377455e-01 4.93772298e-01 4.89611715e-01 4.85448182e-01 4.83560890e-01 4.82696742e-01 4.85486060e-01 4.89323914e-01 4.91787225e-01 4.91946936e-01 4.90631700e-01 4.74056274e-01 4.49105889e-01 4.91336346e-01 6.69537902e-01 8.41732502e-01 1.24369524e-02 1.15981242e-02 5.05190790e-01 5.07912576e-01 4.46891159e-01 2.91893601e-01 2.26543128e-01 2.81812459e-01 3.63675952e-01 4.21101153e-01 4.51599956e-01 4.64719981e-01 4.75309908e-01 4.82810140e-01 4.85607445e-01 4.85182464e-01 4.83089119e-01 4.79539424e-01 4.75733221e-01 4.73203957e-01 4.73020941e-01 4.74346966e-01 4.75593865e-01 4.76611137e-01 4.76244420e-01 4.72368300e-01 4.65436190e-01 4.68344033e-01 5.43290019e-01 7.11813152e-01 7.74140358e-01 1.22795487e-02 1.18102115e-02 5.03944278e-01 5.02855659e-01 4.45425302e-01 2.52228439e-01 1.45405889e-01 1.82589263e-01 2.76684821e-01 3.66080701e-01 4.20643926e-01 4.50501144e-01 4.62951601e-01 4.72619504e-01 4.77943987e-01 4.80144411e-01 4.79565382e-01 4.76789117e-01 4.73189861e-01 4.70085949e-01 4.68136460e-01 4.67284471e-01 4.66813445e-01 4.67865497e-01 4.72149223e-01 4.76849407e-01 4.86704409e-01 5.24396658e-01 6.13972545e-01 7.28170395e-01 6.82344913e-01 1.43526606e-02 1.26437685e-02 5.03636837e-01 5.02092957e-01 4.57043469e-01 2.51476139e-01 1.01379119e-01 1.19250230e-01 2.07716286e-01 3.18403721e-01 3.95053089e-01 4.37578052e-01 4.57559735e-01 4.68874097e-01 4.76705909e-01 4.81617242e-01 4.83262569e-01 4.81879085e-01 4.78513449e-01 4.74719256e-01 4.70928729e-01 4.67177749e-01 4.64602381e-01 4.67641354e-01 4.79006410e-01 4.99567181e-01 5.25580347e-01 5.78784108e-01 6.59785151e-01 7.15536773e-01 4.93110418e-01 1.75498687e-02 1.53587814e-02 5.02765119e-01 5.01221478e-01 4.68321979e-01 2.71274209e-01 7.55082369e-02 8.18719417e-02 1.57687604e-01 2.85117418e-01 3.80459875e-01 4.31091875e-01 4.54259604e-01 4.70028549e-01 4.80671585e-01 4.87623245e-01 4.90992576e-01 4.91416425e-01 4.88708913e-01 4.84597445e-01 4.79991972e-01 4.74761307e-01 4.72914994e-01 4.79590565e-01 4.95704651e-01 5.24205863e-01 5.66340208e-01 6.25502944e-01 6.80885375e-01 6.48048162e-01 1.86546803e-01 2.11830195e-02 1.81557424e-02 5.00970602e-01 4.98760134e-01 4.75816011e-01 2.99388021e-01 6.01244010e-02 6.12642430e-02 1.23513833e-01 2.69553900e-01 3.79823923e-01 4.31338340e-01 4.55572933e-01 4.73362774e-01 4.87096101e-01 4.95634377e-01 4.99942601e-01 5.01391292e-01 5.00410557e-01 4.97424096e-01 4.93891835e-01 4.91141468e-01 4.92379874e-01 5.02652049e-01 5.26404679e-01 5.56224704e-01 6.01745725e-01 6.53344631e-01 6.63017273e-01 4.33579952e-01 7.55596161e-02 2.78124176e-02 2.31131036e-02 4.98355597e-01 4.94708300e-01 4.80012357e-01 3.29531789e-01 4.96399254e-02 4.86900322e-02 1.01934679e-01 2.72731364e-01 3.92572999e-01 4.36540544e-01 4.57569987e-01 4.77350652e-01 4.93131310e-01 5.03003538e-01 5.08131444e-01 5.10820389e-01 5.12076497e-01 5.11752427e-01 5.11810422e-01 5.13950646e-01 5.19505322e-01 5.34869194e-01 5.61708391e-01 5.93996942e-01 6.26345158e-01 6.42989457e-01 5.11172473e-01 1.42493129e-01 4.54903618e-02 3.61170806e-02 3.60494256e-02 4.94909018e-01 4.89340812e-01 4.81715947e-01 3.58359039e-01 4.18337919e-02 4.00879681e-02 8.83220211e-02 2.93153226e-01 4.13222879e-01 4.43504930e-01 4.60654289e-01 4.80544508e-01 4.96921867e-01 5.07731616e-01 5.13933718e-01 5.18055618e-01 5.22014380e-01 5.25308430e-01 5.30236661e-01 5.38814425e-01 5.52091241e-01 5.73467553e-01 6.00013733e-01 6.17991269e-01 6.04437768e-01 4.99808103e-01 1.73576415e-01 7.70359561e-02 4.54486981e-02 4.60430495e-02 8.69209170e-02 4.90441710e-01 4.82481271e-01 4.81498748e-01 3.84970456e-01 3.65562253e-02 3.39324176e-02 7.87614509e-02 3.26622486e-01 4.33339566e-01 4.49201941e-01 4.64215964e-01 4.82180864e-01 4.97657031e-01 5.08801520e-01 5.16338289e-01 5.22021711e-01 5.28532267e-01 5.35573423e-01 5.45350850e-01 5.59254050e-01 5.80762148e-01 6.06851757e-01 6.27976775e-01 6.15182757e-01 5.06487668e-01 2.30991721e-01 1.05724193e-01 6.77737743e-02 6.28686547e-02 8.17913488e-02 2.61900932e-01 4.85339820e-01 4.74038094e-01 4.79179025e-01 4.11399335e-01 3.38283293e-02 2.93379147e-02 7.00316578e-02 3.67059380e-01 4.47327793e-01 4.53929871e-01 4.66350734e-01 4.81954962e-01 4.95470464e-01 5.06177306e-01 5.14878094e-01 5.22421479e-01 5.30559957e-01 5.40713370e-01 5.53828478e-01 5.72066426e-01 5.96865594e-01 6.26840174e-01 6.42651618e-01 6.11638486e-01 4.57627356e-01 2.00016066e-01 1.07966289e-01 9.16655511e-02 1.14928827e-01 2.14127615e-01 4.09341872e-01 4.80984777e-01 4.65136200e-01 4.74823058e-01 4.39720243e-01 3.43750007e-02 2.54910234e-02 5.89294210e-02 4.07535434e-01 4.54623014e-01 4.57803845e-01 4.66455609e-01 4.78734285e-01 4.90353525e-01 5.00290394e-01 5.09551406e-01 5.18703282e-01 5.28424501e-01 5.40109515e-01 5.54976881e-01 5.74233234e-01 5.98383725e-01 6.25846326e-01 6.40167058e-01 6.15753949e-01 5.01021981e-01 2.87134916e-01 1.90232575e-01 2.16889873e-01 3.20904881e-01 4.28665966e-01 4.73707765e-01 4.76419449e-01 4.57225651e-01 4.69644427e-01 4.69244808e-01 4.05504853e-02 2.08681952e-02 4.35605086e-02 4.39844042e-01 4.59010422e-01 4.59487110e-01 4.63876069e-01 4.72394407e-01 4.82114464e-01 4.91650641e-01 5.00645638e-01 5.10681033e-01 5.21537721e-01 5.33704042e-01 5.48311412e-01 5.66190779e-01 5.87058008e-01 6.08564496e-01 6.23002827e-01 6.15776360e-01 5.64422131e-01 4.74118501e-01 4.39378113e-01 4.88768697e-01 5.47078848e-01 5.67613840e-01 5.24523318e-01 4.74032909e-01 4.49419856e-01 4.63586599e-01 4.87966388e-01 5.96705712e-02 1.51159856e-02 2.69426815e-02 4.56891894e-01 4.58505630e-01 4.56582636e-01 4.58191067e-01 4.62858081e-01 4.70995486e-01 4.79547977e-01 4.88784343e-01 4.99083996e-01 5.10111690e-01 5.22747993e-01 5.36556244e-01 5.51880300e-01 5.68372846e-01 5.85126042e-01 5.99260747e-01 6.04925752e-01 5.94346464e-01 5.72098017e-01 5.65471709e-01 5.80897689e-01 5.91493309e-01 5.95290244e-01 5.45909882e-01 4.76897389e-01 4.49917614e-01 4.55755651e-01 4.90219355e-01 1.23081520e-01 1.17986547e-02 1.60306767e-02 4.61966008e-01 4.54760522e-01 4.49560255e-01 4.48666573e-01 4.51449484e-01 4.57647651e-01 4.64733660e-01 4.73093778e-01 4.83286709e-01 4.94911462e-01 5.08613348e-01 5.22401989e-01 5.37018239e-01 5.51018953e-01 5.63766122e-01 5.75297773e-01 5.84225535e-01 5.86756706e-01 5.81045389e-01 5.72861314e-01 5.67947686e-01 5.65737665e-01 5.67480564e-01 5.37916839e-01 4.90325689e-01 4.68582243e-01 4.67684865e-01 4.74373162e-01 3.71228725e-01 9.64089297e-03 1.20858047e-02 4.65519726e-01 4.49435532e-01 4.40858036e-01 4.38855141e-01 4.39318150e-01 4.41424668e-01 4.46777135e-01 4.53612119e-01 4.63900447e-01 4.76838261e-01 4.92660940e-01 5.10954857e-01 5.29702723e-01 5.47363997e-01 5.59726894e-01 5.65930128e-01 5.66115022e-01 5.60774744e-01 5.52818179e-01 5.42965889e-01 5.33458769e-01 5.26620090e-01 5.26215911e-01 5.20230353e-01 5.01936376e-01 4.99187678e-01 4.99822855e-01 4.99816477e-01 3.28213841e-01 1.70954242e-02 1.21483887e-02 5.13055086e-01 4.75425631e-01 4.69370812e-01 4.66745496e-01 4.65729743e-01 4.65406299e-01 4.67239559e-01 4.70278472e-01 4.75465089e-01 4.82766926e-01 4.91839588e-01 5.02139866e-01 5.14329791e-01 5.25444567e-01 5.33536375e-01 5.35900831e-01 5.31879008e-01 5.23743033e-01 5.15390158e-01 5.09575903e-01 5.06174088e-01 5.03628552e-01 5.01234651e-01 5.02985001e-01 
