# vtk DataFile Version 2.0
results_case1_non_linear/2_density.vtk, Created by Freefem++ 
ASCII
DATASET UNSTRUCTURED_GRID
POINTS 961 float
0 0 0
0.033333333 0 0
0.066666667 0 0
0.1 0 0
0.13333333 0 0
0.16666667 0 0
0.2 0 0
0.23333333 0 0
0.26666667 0 0
0.3 0 0
0.33333333 0 0
0.36666667 0 0
0.4 0 0
0.43333333 0 0
0.46666667 0 0
0.5 0 0
0.53333333 0 0
0.56666667 0 0
0.6 0 0
0.63333333 0 0
0.66666667 0 0
0.7 0 0
0.73333333 0 0
0.76666667 0 0
0.8 0 0
0.83333333 0 0
0.86666667 0 0
0.9 0 0
0.93333333 0 0
0.96666667 0 0
1 0 0
0 0.033333333 0
0.033333333 0.033333333 0
0.066666667 0.033333333 0
0.1 0.033333333 0
0.13333333 0.033333333 0
0.16666667 0.033333333 0
0.2 0.033333333 0
0.23333333 0.033333333 0
0.26666667 0.033333333 0
0.3 0.033333333 0
0.33333333 0.033333333 0
0.36666667 0.033333333 0
0.4 0.033333333 0
0.43333333 0.033333333 0
0.46666667 0.033333333 0
0.5 0.033333333 0
0.53333333 0.033333333 0
0.56666667 0.033333333 0
0.6 0.033333333 0
0.63333333 0.033333333 0
0.66666667 0.033333333 0
0.7 0.033333333 0
0.73333333 0.033333333 0
0.76666667 0.033333333 0
0.8 0.033333333 0
0.83333333 0.033333333 0
0.86666667 0.033333333 0
0.9 0.033333333 0
0.93333333 0.033333333 0
0.96666667 0.033333333 0
1 0.033333333 0
0 0.066666667 0
0.033333333 0.066666667 0
0.066666667 0.066666667 0
0.1 0.066666667 0
0.13333333 0.066666667 0
0.16666667 0.066666667 0
0.2 0.066666667 0
0.23333333 0.066666667 0
0.26666667 0.066666667 0
0.3 0.066666667 0
0.33333333 0.066666667 0
0.36666667 0.066666667 0
0.4 0.066666667 0
0.43333333 0.066666667 0
0.46666667 0.066666667 0
0.5 0.066666667 0
0.53333333 0.066666667 0
0.56666667 0.066666667 0
0.6 0.066666667 0
0.63333333 0.066666667 0
0.66666667 0.066666667 0
0.7 0.066666667 0
0.73333333 0.066666667 0
0.76666667 0.066666667 0
0.8 0.066666667 0
0.83333333 0.066666667 0
0.86666667 0.066666667 0
0.9 0.066666667 0
0.93333333 0.066666667 0
0.96666667 0.066666667 0
1 0.066666667 0
0 0.1 0
0.033333333 0.1 0
0.066666667 0.1 0
0.1 0.1 0
0.13333333 0.1 0
0.16666667 0.1 0
0.2 0.1 0
0.23333333 0.1 0
0.26666667 0.1 0
0.3 0.1 0
0.33333333 0.1 0
0.36666667 0.1 0
0.4 0.1 0
0.43333333 0.1 0
0.46666667 0.1 0
0.5 0.1 0
0.53333333 0.1 0
0.56666667 0.1 0
0.6 0.1 0
0.63333333 0.1 0
0.66666667 0.1 0
0.7 0.1 0
0.73333333 0.1 0
0.76666667 0.1 0
0.8 0.1 0
0.83333333 0.1 0
0.86666667 0.1 0
0.9 0.1 0
0.93333333 0.1 0
0.96666667 0.1 0
1 0.1 0
0 0.13333333 0
0.033333333 0.13333333 0
0.066666667 0.13333333 0
0.1 0.13333333 0
0.13333333 0.13333333 0
0.16666667 0.13333333 0
0.2 0.13333333 0
0.23333333 0.13333333 0
0.26666667 0.13333333 0
0.3 0.13333333 0
0.33333333 0.13333333 0
0.36666667 0.13333333 0
0.4 0.13333333 0
0.43333333 0.13333333 0
0.46666667 0.13333333 0
0.5 0.13333333 0
0.53333333 0.13333333 0
0.56666667 0.13333333 0
0.6 0.13333333 0
0.63333333 0.13333333 0
0.66666667 0.13333333 0
0.7 0.13333333 0
0.73333333 0.13333333 0
0.76666667 0.13333333 0
0.8 0.13333333 0
0.83333333 0.13333333 0
0.86666667 0.13333333 0
0.9 0.13333333 0
0.93333333 0.13333333 0
0.96666667 0.13333333 0
1 0.13333333 0
0 0.16666667 0
0.033333333 0.16666667 0
0.066666667 0.16666667 0
0.1 0.16666667 0
0.13333333 0.16666667 0
0.16666667 0.16666667 0
0.2 0.16666667 0
0.23333333 0.16666667 0
0.26666667 0.16666667 0
0.3 0.16666667 0
0.33333333 0.16666667 0
0.36666667 0.16666667 0
0.4 0.16666667 0
0.43333333 0.16666667 0
0.46666667 0.16666667 0
0.5 0.16666667 0
0.53333333 0.16666667 0
0.56666667 0.16666667 0
0.6 0.16666667 0
0.63333333 0.16666667 0
0.66666667 0.16666667 0
0.7 0.16666667 0
0.73333333 0.16666667 0
0.76666667 0.16666667 0
0.8 0.16666667 0
0.83333333 0.16666667 0
0.86666667 0.16666667 0
0.9 0.16666667 0
0.93333333 0.16666667 0
0.96666667 0.16666667 0
1 0.16666667 0
0 0.2 0
0.033333333 0.2 0
0.066666667 0.2 0
0.1 0.2 0
0.13333333 0.2 0
0.16666667 0.2 0
0.2 0.2 0
0.23333333 0.2 0
0.26666667 0.2 0
0.3 0.2 0
0.33333333 0.2 0
0.36666667 0.2 0
0.4 0.2 0
0.43333333 0.2 0
0.46666667 0.2 0
0.5 0.2 0
0.53333333 0.2 0
0.56666667 0.2 0
0.6 0.2 0
0.63333333 0.2 0
0.66666667 0.2 0
0.7 0.2 0
0.73333333 0.2 0
0.76666667 0.2 0
0.8 0.2 0
0.83333333 0.2 0
0.86666667 0.2 0
0.9 0.2 0
0.93333333 0.2 0
0.96666667 0.2 0
1 0.2 0
0 0.23333333 0
0.033333333 0.23333333 0
0.066666667 0.23333333 0
0.1 0.23333333 0
0.13333333 0.23333333 0
0.16666667 0.23333333 0
0.2 0.23333333 0
0.23333333 0.23333333 0
0.26666667 0.23333333 0
0.3 0.23333333 0
0.33333333 0.23333333 0
0.36666667 0.23333333 0
0.4 0.23333333 0
0.43333333 0.23333333 0
0.46666667 0.23333333 0
0.5 0.23333333 0
0.53333333 0.23333333 0
0.56666667 0.23333333 0
0.6 0.23333333 0
0.63333333 0.23333333 0
0.66666667 0.23333333 0
0.7 0.23333333 0
0.73333333 0.23333333 0
0.76666667 0.23333333 0
0.8 0.23333333 0
0.83333333 0.23333333 0
0.86666667 0.23333333 0
0.9 0.23333333 0
0.93333333 0.23333333 0
0.96666667 0.23333333 0
1 0.23333333 0
0 0.26666667 0
0.033333333 0.26666667 0
0.066666667 0.26666667 0
0.1 0.26666667 0
0.13333333 0.26666667 0
0.16666667 0.26666667 0
0.2 0.26666667 0
0.23333333 0.26666667 0
0.26666667 0.26666667 0
0.3 0.26666667 0
0.33333333 0.26666667 0
0.36666667 0.26666667 0
0.4 0.26666667 0
0.43333333 0.26666667 0
0.46666667 0.26666667 0
0.5 0.26666667 0
0.53333333 0.26666667 0
0.56666667 0.26666667 0
0.6 0.26666667 0
0.63333333 0.26666667 0
0.66666667 0.26666667 0
0.7 0.26666667 0
0.73333333 0.26666667 0
0.76666667 0.26666667 0
0.8 0.26666667 0
0.83333333 0.26666667 0
0.86666667 0.26666667 0
0.9 0.26666667 0
0.93333333 0.26666667 0
0.96666667 0.26666667 0
1 0.26666667 0
0 0.3 0
0.033333333 0.3 0
0.066666667 0.3 0
0.1 0.3 0
0.13333333 0.3 0
0.16666667 0.3 0
0.2 0.3 0
0.23333333 0.3 0
0.26666667 0.3 0
0.3 0.3 0
0.33333333 0.3 0
0.36666667 0.3 0
0.4 0.3 0
0.43333333 0.3 0
0.46666667 0.3 0
0.5 0.3 0
0.53333333 0.3 0
0.56666667 0.3 0
0.6 0.3 0
0.63333333 0.3 0
0.66666667 0.3 0
0.7 0.3 0
0.73333333 0.3 0
0.76666667 0.3 0
0.8 0.3 0
0.83333333 0.3 0
0.86666667 0.3 0
0.9 0.3 0
0.93333333 0.3 0
0.96666667 0.3 0
1 0.3 0
0 0.33333333 0
0.033333333 0.33333333 0
0.066666667 0.33333333 0
0.1 0.33333333 0
0.13333333 0.33333333 0
0.16666667 0.33333333 0
0.2 0.33333333 0
0.23333333 0.33333333 0
0.26666667 0.33333333 0
0.3 0.33333333 0
0.33333333 0.33333333 0
0.36666667 0.33333333 0
0.4 0.33333333 0
0.43333333 0.33333333 0
0.46666667 0.33333333 0
0.5 0.33333333 0
0.53333333 0.33333333 0
0.56666667 0.33333333 0
0.6 0.33333333 0
0.63333333 0.33333333 0
0.66666667 0.33333333 0
0.7 0.33333333 0
0.73333333 0.33333333 0
0.76666667 0.33333333 0
0.8 0.33333333 0
0.83333333 0.33333333 0
0.86666667 0.33333333 0
0.9 0.33333333 0
0.93333333 0.33333333 0
0.96666667 0.33333333 0
1 0.33333333 0
0 0.36666667 0
0.033333333 0.36666667 0
0.066666667 0.36666667 0
0.1 0.36666667 0
0.13333333 0.36666667 0
0.16666667 0.36666667 0
0.2 0.36666667 0
0.23333333 0.36666667 0
0.26666667 0.36666667 0
0.3 0.36666667 0
0.33333333 0.36666667 0
0.36666667 0.36666667 0
0.4 0.36666667 0
0.43333333 0.36666667 0
0.46666667 0.36666667 0
0.5 0.36666667 0
0.53333333 0.36666667 0
0.56666667 0.36666667 0
0.6 0.36666667 0
0.63333333 0.36666667 0
0.66666667 0.36666667 0
0.7 0.36666667 0
0.73333333 0.36666667 0
0.76666667 0.36666667 0
0.8 0.36666667 0
0.83333333 0.36666667 0
0.86666667 0.36666667 0
0.9 0.36666667 0
0.93333333 0.36666667 0
0.96666667 0.36666667 0
1 0.36666667 0
0 0.4 0
0.033333333 0.4 0
0.066666667 0.4 0
0.1 0.4 0
0.13333333 0.4 0
0.16666667 0.4 0
0.2 0.4 0
0.23333333 0.4 0
0.26666667 0.4 0
0.3 0.4 0
0.33333333 0.4 0
0.36666667 0.4 0
0.4 0.4 0
0.43333333 0.4 0
0.46666667 0.4 0
0.5 0.4 0
0.53333333 0.4 0
0.56666667 0.4 0
0.6 0.4 0
0.63333333 0.4 0
0.66666667 0.4 0
0.7 0.4 0
0.73333333 0.4 0
0.76666667 0.4 0
0.8 0.4 0
0.83333333 0.4 0
0.86666667 0.4 0
0.9 0.4 0
0.93333333 0.4 0
0.96666667 0.4 0
1 0.4 0
0 0.43333333 0
0.033333333 0.43333333 0
0.066666667 0.43333333 0
0.1 0.43333333 0
0.13333333 0.43333333 0
0.16666667 0.43333333 0
0.2 0.43333333 0
0.23333333 0.43333333 0
0.26666667 0.43333333 0
0.3 0.43333333 0
0.33333333 0.43333333 0
0.36666667 0.43333333 0
0.4 0.43333333 0
0.43333333 0.43333333 0
0.46666667 0.43333333 0
0.5 0.43333333 0
0.53333333 0.43333333 0
0.56666667 0.43333333 0
0.6 0.43333333 0
0.63333333 0.43333333 0
0.66666667 0.43333333 0
0.7 0.43333333 0
0.73333333 0.43333333 0
0.76666667 0.43333333 0
0.8 0.43333333 0
0.83333333 0.43333333 0
0.86666667 0.43333333 0
0.9 0.43333333 0
0.93333333 0.43333333 0
0.96666667 0.43333333 0
1 0.43333333 0
0 0.46666667 0
0.033333333 0.46666667 0
0.066666667 0.46666667 0
0.1 0.46666667 0
0.13333333 0.46666667 0
0.16666667 0.46666667 0
0.2 0.46666667 0
0.23333333 0.46666667 0
0.26666667 0.46666667 0
0.3 0.46666667 0
0.33333333 0.46666667 0
0.36666667 0.46666667 0
0.4 0.46666667 0
0.43333333 0.46666667 0
0.46666667 0.46666667 0
0.5 0.46666667 0
0.53333333 0.46666667 0
0.56666667 0.46666667 0
0.6 0.46666667 0
0.63333333 0.46666667 0
0.66666667 0.46666667 0
0.7 0.46666667 0
0.73333333 0.46666667 0
0.76666667 0.46666667 0
0.8 0.46666667 0
0.83333333 0.46666667 0
0.86666667 0.46666667 0
0.9 0.46666667 0
0.93333333 0.46666667 0
0.96666667 0.46666667 0
1 0.46666667 0
0 0.5 0
0.033333333 0.5 0
0.066666667 0.5 0
0.1 0.5 0
0.13333333 0.5 0
0.16666667 0.5 0
0.2 0.5 0
0.23333333 0.5 0
0.26666667 0.5 0
0.3 0.5 0
0.33333333 0.5 0
0.36666667 0.5 0
0.4 0.5 0
0.43333333 0.5 0
0.46666667 0.5 0
0.5 0.5 0
0.53333333 0.5 0
0.56666667 0.5 0
0.6 0.5 0
0.63333333 0.5 0
0.66666667 0.5 0
0.7 0.5 0
0.73333333 0.5 0
0.76666667 0.5 0
0.8 0.5 0
0.83333333 0.5 0
0.86666667 0.5 0
0.9 0.5 0
0.93333333 0.5 0
0.96666667 0.5 0
1 0.5 0
0 0.53333333 0
0.033333333 0.53333333 0
0.066666667 0.53333333 0
0.1 0.53333333 0
0.13333333 0.53333333 0
0.16666667 0.53333333 0
0.2 0.53333333 0
0.23333333 0.53333333 0
0.26666667 0.53333333 0
0.3 0.53333333 0
0.33333333 0.53333333 0
0.36666667 0.53333333 0
0.4 0.53333333 0
0.43333333 0.53333333 0
0.46666667 0.53333333 0
0.5 0.53333333 0
0.53333333 0.53333333 0
0.56666667 0.53333333 0
0.6 0.53333333 0
0.63333333 0.53333333 0
0.66666667 0.53333333 0
0.7 0.53333333 0
0.73333333 0.53333333 0
0.76666667 0.53333333 0
[...]
CELL_DATA 1920
Scalars  Label int 1
LOOKUP_TABLE FreeFempp_table
0
0
0
0
0
0
0
0
0
0
0
0
0
0
0
0
0
0
0
0
0
0
0
0
0
0
0
0
0
0
0
0
0
0
0
0
0
0
0
0
0
0
0
0
0
0
0
0
0
0
0
0
0
0
0
0
0
0
0
0
0
0
0
0
0
0
0
0
0
0
0
0
0
0
0
0
0
0
0
0
0
0
0
0
0
0
0
0
0
0
0
0
0
0
0
0
0
0
0
0
0
0
0
0
0
0
0
0
0
0
0
0
0
0
0
0
0
0
0
0
0
0
0
0
0
0
0
0
0
0
0
0
0
0
0
0
0
0
0
0
0
0
0
0
0
0
0
0
0
0
0
0
0
0
0
0
0
0
0
0
0
0
0
0
0
0
0
0
0
0
0
0
0
0
0
0
0
0
0
0
0
0
0
0
0
0
0
0
0
0
0
0
0
0
0
0
0
0
0
0
0
0
0
0
0
0
0
0
0
0
0
0
0
0
0
0
0
0
0
0
0
0
0
0
0
0
0
0
0
0
0
0
0
0
0
0
0
0
0
0
0
0
0
0
0
0
0
0
0
0
0
0
0
0
0
0
0
0
0
0
0
0
0
0
0
0
0
0
0
0
0
0
0
0
0
0
0
0
0
0
0
0
0
0
0
0
0
0
0
0
0
0
0
0
0
0
0
0
0
0
0
0
0
0
0
0
0
0
0
0
0
0
0
0
0
0
0
0
0
0
0
0
0
0
0
0
0
0
0
0
0
0
0
0
0
0
0
0
0
0
0
0
0
0
0
0
0
0
0
0
0
0
0
0
0
0
0
0
0
0
0
0
0
0
0
0
0
0
0
0
0
0
0
0
0
0
0
0
0
0
0
0
0
0
0
0
0
0
0
0
0
0
0
0
0
0
0
0
0
0
0
0
0
0
0
0
0
0
0
0
0
0
0
0
0
0
0
0
0
0
0
0
0
0
0
0
0
0
0
0
0
0
0
0
0
0
0
0
0
0
0
0
0
0
0
0
0
0
0
0
0
0
0
0
0
0
0
0
0
0
0
0
0
0
0
0
0
0
0
0
0
0
0
0
0
0
0
0
0
0
0
0
0
0
0
0
0
0
0
0
0
0
0
0
0
0
0
0
0
0
0
0
0
0
0
0
0
0
0
0
0
0
0
0
0
0
0
0
0
0
0
0
0
0
0
0
0
0
0
0
0
0
0
0
0
0
0
0
0
0
0
0
0
0
0
0
0
0
0
0
0
0
0
0
0
0
0
0
0
0
0
0
0
0
0
0
0
0
0
0
0
0
0
0
0
0
0
0
0
0
0
0
0
0
0
0
0
0
0
0
0
0
0
0
0
0
0
0
0
0
0
0
0
0
0
0
0
0
0
0
0
0
0
0
0
0
0
0
0
0
0
0
0
0
0
0
0
0
0
0
0
0
0
0
0
0
0
0
0
0
0
0
0
0
0
0
0
0
0
0
0
0
0
0
0
0
0
0
0
0
0
0
0
0
0
0
0
0
0
0
0
0
0
0
0
0
0
0
0
0
0
0
0
0
0
0
0
0
0
0
0
0
0
0
0
0
0
0
0
0
0
0
0
0
0
0
0
0
0
0
0
0
0
0
0
0
0
0
0
0
0
0
0
0
0
0
0
0
0
0
0
0
0
0
0
0
0
0
0
0
0
0
0
0
0
0
0
0
0
0
0
0
0
0
0
0
0
0
0
0
0
0
0
0
0
0
0
0
0
0
0
0
0
0
0
0
0
0
0
0
0
0
0
0
0
0
0
0
0
0
0
0
0
0
0
0
0
0
0
0
0
0
0
0
0
0
0
0
0
0
0
0
0
0
0
0
0
0
0
0
0
0
0
0
0
0
0
0
0
0
0
0
0
0
0
0
0
0
0
0
0
0
0
0
0
0
0
0
0
0
0
0
0
0
0
0
0
0
0
0
0
0
0
0
0
0
0
0
0
0
0
0
0
0
0
0
0
0
0
0
0
0
0
0
0
0
0
0
0
0
0
0
0
0
0
0
0
0
0
0
0
0
0
0
0
0
0
0
0
0
0
0
0
0
0
0
0
0
0
0
0
0
0
0
0
0
0
0
0
0
0
0
0
0
0
0
0
0
0
0
0
0
0
0
0
0
0
0
0
0
0
0
0
0
0
0
0
0
0
0
0
0
0
0
0
0
0
0
0
0
0
0
0
0
0
0
0
0
0
0
0
0
0
0
0
0
0
0
0
0
0
0
0
0
0
0
0
0
0
0
0
0
0
0
0
0
0
0
0
0
0
0
0
0
0
0
0
0
0
0
0
0
0
0
0
0
0
0
0
0
0
0
0
0
0
0
0
0
0
0
0
0
0
0
0
0
0
0
0
0
0
0
0
0
0
0
0
0
0
0
0
0
0
0
0
0
0
0
0
0
0
0
0
0
0
0
0
0
0
0
0
0
0
0
0
0
0
0
0
0
0
0
0
0
0
0
0
0
0
0
0
0
0
0
0
0
0
0
0
0
0
0
0
0
0
0
0
0
0
0
0
0
0
0
0
0
0
0
0
0
0
0
0
0
0
0
0
0
0
0
0
0
0
0
0
0
0
0
0
0
0
0
0
0
0
0
0
0
0
0
0
0
0
0
0
0
0
0
0
0
0
0
0
0
0
0
0
0
0
0
0
0
0
0
0
0
0
0
0
0
0
0
0
0
0
0
0
0
0
0
0
0
0
0
0
0
0
0
0
0
0
0
0
0
0
0
0
0
0
0
0
0
0
0
0
0
0
0
0
0
0
0
0
0
0
0
0
0
0
0
0
0
0
0
0
0
0
0
0
0
0
0
0
0
0
0
0
0
0
0
0
0
0
0
0
0
0
0
0
0
0
0
0
0
0
0
0
0
0
0
0
0
0
0
0
0
0
0
0
0
0
0
0
0
0
0
0
0
0
0
0
0
0
0
0
0
0
0
0
0
0
0
0
0
0
0
0
0
0
0
0
0
0
0
0
0
0
0
0
0
0
0
0
0
0
0
0
0
0
0
0
0
0
0
0
0
0
0
0
0
0
0
0
0
0
0
0
0
0
0
0
0
0
0
0
0
0
0
0
0
0
0
0
0
0
0
0
0
0
0
0
0
0
0
0
0
0
0
0
0
0
0
0
0
0
0
0
0
0
0
0
0
0
0
0
0
0
0
0
0
0
0
0
0
0
0
0
0
0
0
0
0
0
0
0
0
0
0
0
0
0
0
0
0
0
0
0
0
0
0
0
0
0
0
0
0
0
0
0
0
0
0
0
0
0
0
0
0
0
0
0
0
0
0
0
0
0
0
0
0
0
0
0
0
0
0
0
0
0
0
0
0
0
0
0
0
0
0
0
0
0
0
0
0
0
0
0
0
0
0
0
0
0
0
0
0
0
0
0
0
0
0
0
0
0
0
0
0
0
0
0
0
0
0
0
0
0
0
0
0
0
0
0
0
0
0
0
0
0
0
0
0
0
0
0
0
0
0
0
0
0
0
0
0
0
0
0
0
0
0
0
0
0
0
0
0
0
0
0
0
0
0
0
0
0
0
0
0
0
0
0
0
0
0
0
0
0
0
0
0
0
0
0
0
0
0
0
0
0
0
0
0
0
0
0
0
0
0
0
0
0
0
0
0
0
0
0
0
0
0
0
0
0
0
0
0
0
0
0
0
0
0
0
0
0
0
0
0
0
0
0
0
0
0
0
0
0
0
0
0
0
0
0
0
0
0
0
0
0
0
0
0
0
0
0
0
0
0
0
0
0
0
0
0
0
0
0
0
0
0
0
0
0
0
0
0
0
0
0
0
0
0
0
0
0
0
0
0
0
0
0
0
0
0
0
0
0
0
0
0
0
0
0
0
0
0
0
0
0
0
0
0
0
0
0
0
0
0
0
0
0
0
0
0
0
0
0
0
0
0
0
0
0
0
0
0
0
0
0
0
0
0
0
0
0
0
0
0
0
0
0
0
0
0
0
0
0
0
0
0
0
0
0
0
0
0
0
0
0
0
0
0
0
0
0
0
0
0
0
0
0
0
0
0
0
0
0
0
0
0
1
1
1
1
1
1
1
1
1
1
1
1
1
1
1
1
1
1
1
1
1
1
1
1
1
1
1
1
1
1
2
2
2
2
2
2
2
2
2
2
2
2
2
2
2
2
2
2
2
2
2
2
2
2
2
2
2
2
2
2
3
3
3
3
3
3
3
3
3
3
3
3
3
3
3
3
3
3
3
3
3
3
3
3
3
3
3
3
3
3
4
4
4
4
4
4
4
4
4
4
4
4
4
4
4
4
4
4
4
4
4
4
4
4
4
4
4
4
4
4

LOOKUP_TABLE FreeFempp_table 5
1.00000000 0.00000000 0.00000000 1.00000000
1.00000000 1.00000000 0.00000000 1.00000000
1.00000000 0.00000000 1.00000000 1.00000000
0.00000000 1.00000000 0.00000000 1.00000000
0.00000000 1.00000000 1.00000000 1.00000000

POINT_DATA 961
FIELD FieldData 1
Density 1 961 float
1.76576838e-01 1.75554961e-01 1.72801122e-01 1.69961900e-01 1.68144986e-01 1.69363439e-01 1.76518008e-01 1.91049859e-01 2.10003302e-01 2.29346409e-01 2.49175668e-01 2.68986464e-01 2.86945254e-01 3.02536160e-01 3.15937489e-01 3.28237385e-01 3.40985507e-01 3.55840981e-01 3.74447584e-01 3.94753635e-01 4.00303483e-01 3.78745258e-01 3.55620325e-01 3.45371455e-01 3.36344361e-01 3.30247611e-01 3.31049830e-01 3.36099356e-01 3.42175543e-01 3.46578449e-01 3.46262395e-01 1.82470575e-01 1.81743801e-01 1.79128379e-01 1.76099092e-01 1.73642620e-01 1.73665494e-01 1.78840935e-01 1.90882623e-01 2.07723767e-01 2.25276828e-01 2.44390190e-01 2.64775723e-01 2.83189833e-01 2.99274981e-01 3.12910616e-01 3.25177222e-01 3.37617546e-01 3.51917684e-01 3.69563341e-01 3.89444739e-01 3.96511704e-01 3.71550918e-01 3.38198334e-01 3.22902411e-01 3.13800484e-01 3.09803784e-01 3.13327551e-01 3.21916789e-01 3.30648452e-01 3.36980551e-01 3.38808864e-01 2.15301350e-01 2.13184595e-01 2.09895864e-01 2.05461219e-01 2.00028554e-01 1.95904866e-01 1.96466103e-01 2.02130556e-01 2.11303338e-01 2.21864745e-01 2.35404760e-01 2.54972756e-01 2.73784220e-01 2.91388184e-01 3.05899411e-01 3.18526238e-01 3.30418974e-01 3.43295872e-01 3.58655751e-01 3.76735091e-01 3.85459810e-01 3.58834565e-01 3.16247702e-01 2.88291782e-01 2.71531701e-01 2.64193505e-01 2.68181115e-01 2.82474309e-01 2.97040284e-01 3.07804674e-01 3.12179536e-01 2.78221548e-01 2.75376558e-01 2.71202385e-01 2.65287012e-01 2.56336182e-01 2.45724395e-01 2.40678102e-01 2.40543127e-01 2.42311388e-01 2.43041798e-01 2.44153559e-01 2.50630647e-01 2.61764050e-01 2.78717458e-01 2.93890595e-01 3.07715565e-01 3.19210410e-01 3.30310017e-01 3.42458367e-01 3.57575536e-01 3.69895071e-01 3.52188885e-01 3.05772692e-01 2.70011634e-01 2.46221364e-01 2.32135504e-01 2.29144335e-01 2.38792136e-01 2.56307900e-01 2.70448118e-01 2.76483178e-01 3.39806736e-01 3.38756204e-01 3.35809052e-01 3.31571877e-01 3.25619638e-01 3.18437964e-01 3.13190222e-01 3.10364336e-01 3.07140172e-01 2.99509048e-01 2.85265386e-01 2.75384516e-01 2.70087332e-01 2.71901369e-01 2.78931528e-01 2.91960418e-01 3.02882969e-01 3.12554151e-01 3.21175933e-01 3.32381070e-01 3.47531050e-01 3.46945524e-01 3.08834761e-01 2.68794209e-01 2.41209209e-01 2.20302165e-01 2.08108798e-01 2.07866699e-01 2.20069841e-01 2.35291436e-01 2.41970196e-01 3.82353246e-01 3.83062899e-01 3.82484734e-01 3.81438643e-01 3.80237401e-01 3.79216880e-01 3.78942907e-01 3.78712714e-01 3.76490980e-01 3.69570524e-01 3.55425179e-01 3.35881352e-01 3.12874466e-01 2.96254933e-01 2.85543352e-01 2.82732904e-01 2.85413295e-01 2.92350471e-01 2.97613412e-01 3.04910690e-01 3.19197148e-01 3.34212452e-01 3.21786225e-01 2.83925563e-01 2.53421903e-01 2.26601288e-01 2.03568906e-01 1.91814139e-01 1.94657519e-01 2.07140133e-01 2.13475004e-01 3.97377491e-01 3.99100542e-01 4.00468796e-01 4.02458727e-01 4.05974716e-01 4.11265820e-01 4.17979330e-01 4.24506068e-01 4.28560019e-01 4.28020477e-01 4.21288997e-01 4.07507420e-01 3.85541260e-01 3.57928663e-01 3.27937305e-01 3.05346608e-01 2.90306509e-01 2.82753527e-01 2.80191779e-01 2.83088684e-01 2.92420030e-01 3.08419585e-01 3.19794059e-01 3.05451810e-01 2.76941866e-01 2.45840430e-01 2.12447733e-01 1.87593490e-01 1.80358991e-01 1.86842710e-01 1.91689759e-01 3.85850191e-01 3.87204617e-01 3.89054537e-01 3.93058419e-01 4.00627434e-01 4.12193656e-01 4.26964343e-01 4.42380071e-01 4.55266535e-01 4.63426530e-01 4.65787083e-01 4.61759567e-01 4.50364649e-01 4.30570185e-01 4.01627958e-01 3.65913153e-01 3.31672400e-01 3.05976689e-01 2.89450228e-01 2.80530483e-01 2.78629810e-01 2.84580380e-01 2.96949089e-01 3.03732604e-01 2.92998850e-01 2.66986728e-01 2.27978602e-01 1.90883845e-01 1.73554227e-01 1.72555327e-01 1.75182268e-01 3.56305331e-01 3.56062293e-01 3.57031614e-01 3.62121820e-01 3.73154879e-01 3.90549183e-01 4.13143873e-01 4.37614828e-01 4.59590077e-01 4.76287723e-01 4.86969531e-01 4.91738975e-01 4.90507275e-01 4.82457489e-01 4.66230750e-01 4.40606803e-01 4.06356484e-01 3.66991580e-01 3.35543871e-01 3.11483145e-01 2.93883115e-01 2.84338057e-01 2.81524390e-01 2.82868207e-01 2.84153968e-01 2.75373995e-01 2.44313821e-01 1.99132085e-01 1.72653243e-01 1.64063603e-01 1.63971782e-01 3.19284856e-01 3.17303509e-01 3.17446083e-01 3.24248105e-01 3.39238793e-01 3.62166315e-01 3.91145080e-01 4.22500372e-01 4.51386720e-01 4.74529207e-01 4.91297334e-01 5.02282858e-01 5.08089721e-01 5.08745193e-01 5.03545105e-01 4.91456181e-01 4.71659482e-01 4.44201350e-01 4.13511187e-01 3.80074412e-01 3.45802963e-01 3.19124162e-01 2.98619419e-01 2.84315556e-01 2.74859458e-01 2.67620057e-01 2.54799932e-01 2.12412417e-01 1.78125709e-01 1.63067013e-01 1.60289332e-01 2.82559097e-01 2.79338330e-01 2.79797316e-01 2.89564162e-01 3.09494376e-01 3.38090062e-01 3.72237295e-01 4.07880962e-01 4.40438658e-01 4.66973156e-01 4.87088621e-01 5.01583517e-01 5.11330783e-01 5.16829789e-01 5.18052697e-01 5.14638186e-01 5.06121099e-01 4.92273599e-01 4.73767787e-01 4.49993491e-01 4.20824260e-01 3.88252467e-01 3.53017509e-01 3.22196484e-01 2.96379179e-01 2.76250124e-01 2.61281133e-01 2.33596370e-01 1.91151187e-01 1.69542044e-01 1.64678186e-01 2.50568897e-01 2.46736109e-01 2.48745248e-01 2.62627393e-01 2.88342446e-01 3.22734207e-01 3.61070156e-01 3.98854464e-01 4.32248175e-01 4.59453940e-01 4.80574936e-01 4.96469587e-01 5.07991731e-01 5.15741587e-01 5.19973338e-01 5.20681977e-01 5.17789006e-01 5.11287093e-01 5.01388431e-01 4.87859637e-01 4.70318794e-01 4.48335946e-01 4.21583086e-01 3.90152037e-01 3.51368964e-01 3.16501051e-01 2.91000336e-01 2.62678713e-01 2.10062593e-01 1.81581333e-01 1.75348327e-01 2.25381136e-01 2.21471205e-01 2.25940496e-01 2.44651929e-01 2.76667237e-01 3.16603482e-01 3.57962519e-01 3.95993114e-01 4.28309500e-01 4.54476893e-01 4.75113183e-01 4.91076797e-01 5.03121197e-01 5.11818469e-01 5.17505527e-01 5.20269573e-01 5.20046294e-01 5.16770065e-01 5.10569096e-01 5.01793146e-01 4.90923524e-01 4.77962375e-01 4.62357700e-01 4.41941410e-01 4.10262614e-01 3.71014029e-01 3.35328788e-01 2.86033809e-01 2.27156907e-01 1.95722342e-01 1.89487100e-01 2.07333818e-01 2.03821883e-01 2.11118057e-01 2.35062346e-01 2.73423016e-01 3.18052351e-01 3.60802442e-01 3.97695214e-01 4.28011179e-01 4.52420533e-01 4.71886516e-01 4.87260669e-01 4.99237597e-01 5.08377850e-01 5.15076280e-01 5.19487441e-01 5.21514058e-01 5.20897090e-01 5.17414629e-01 5.11229932e-01 5.03147840e-01 4.94123995e-01 4.84282702e-01 4.71665233e-01 4.50543880e-01 4.15875316e-01 3.64740551e-01 2.93530464e-01 2.37828657e-01 2.10352659e-01 2.05895007e-01 1.95413679e-01 1.92675680e-01 2.02971175e-01 2.32365564e-01 2.76535034e-01 3.24146837e-01 3.66812527e-01 4.01935071e-01 4.30095822e-01 4.52650279e-01 4.70766336e-01 4.85328674e-01 4.97051060e-01 5.06543756e-01 5.14292896e-01 5.20563662e-01 5.25309622e-01 5.28160095e-01 5.28528988e-01 5.26018322e-01 5.21018207e-01 5.14637649e-01 5.07241964e-01 4.96683180e-01 4.77209330e-01 4.38483030e-01 3.76045048e-01 2.99326211e-01 2.49060839e-01 2.28294700e-01 2.26602197e-01 1.87941447e-01 1.86285913e-01 1.99798286e-01 2.34661907e-01 2.83356041e-01 3.32168728e-01 3.73830080e-01 4.07099932e-01 4.33312625e-01 4.54161555e-01 4.70964313e-01 4.84691203e-01 4.96140778e-01 5.06028295e-01 5.14974415e-01 5.23406327e-01 5.31415939e-01 5.38644314e-01 5.44256568e-01 5.47204494e-01 5.46806455e-01 5.42861402e-01 5.34621179e-01 5.19086182e-01 4.90457118e-01 4.40822065e-01 3.70286971e-01 3.05454522e-01 2.66973525e-01 2.54332066e-01 2.55730450e-01 1.82967573e-01 1.82779998e-01 1.99764207e-01 2.39976510e-01 2.91535407e-01 3.40347648e-01 3.80605221e-01 4.12135720e-01 4.36625957e-01 4.55927074e-01 4.71482545e-01 4.84379917e-01 4.95536596e-01 5.05803525e-01 5.15968621e-01 5.26664257e-01 5.38185656e-01 5.50263762e-01 5.61855137e-01 5.71097255e-01 5.75504065e-01 5.71820676e-01 5.55659235e-01 5.26340783e-01 4.85496312e-01 4.29230005e-01 3.66837889e-01 3.19419712e-01 2.96262830e-01 2.93946296e-01 2.98068762e-01 1.78564817e-01 1.80489168e-01 2.01134384e-01 2.46296838e-01 2.99578696e-01 3.47755879e-01 3.86520863e-01 4.16399777e-01 4.39278394e-01 4.57100958e-01 4.71417874e-01 4.83434290e-01 4.94187027e-01 5.04662395e-01 5.15817583e-01 5.28490484e-01 5.43168187e-01 5.59616864e-01 5.76440930e-01 5.90743721e-01 5.98086774e-01 5.92434883e-01 5.65947711e-01 5.17240942e-01 4.68713522e-01 4.21848357e-01 3.79613668e-01 3.51323515e-01 3.42526168e-01 3.50095391e-01 3.55484307e-01 1.73905253e-01 1.78561404e-01 2.02908576e-01 2.52193779e-01 3.06718200e-01 3.54048967e-01 3.91307145e-01 4.19534862e-01 4.40798610e-01 4.57122356e-01 4.70140725e-01 4.81151491e-01 4.91283923e-01 5.01627684e-01 5.13268530e-01 5.27190149e-01 5.43985307e-01 5.63356280e-01 5.83523929e-01 6.00877106e-01 6.10233188e-01 6.05396748e-01 5.79529405e-01 5.31408727e-01 4.84602213e-01 4.49230462e-01 4.23656195e-01 4.09470916e-01 4.09613818e-01 4.20188934e-01 4.24547404e-01 1.70442909e-01 1.77551210e-01 2.05233246e-01 2.57648379e-01 3.12976301e-01 3.59293729e-01 3.94927472e-01 4.21407461e-01 4.40981597e-01 4.55739200e-01 4.67364490e-01 4.77205604e-01 4.86438394e-01 4.96200770e-01 5.07634401e-01 5.21774709e-01 5.39223909e-01 5.59601605e-01 5.80961168e-01 5.99625468e-01 6.10825717e-01 6.09744847e-01 5.92501700e-01 5.59884846e-01 5.27017832e-01 5.06347120e-01 4.94721174e-01 4.88421530e-01 4.88188803e-01 4.91856784e-01 4.92606491e-01 1.69734612e-01 1.78533658e-01 2.08856240e-01 2.63417423e-01 3.18855196e-01 3.63767892e-01 3.97504032e-01 4.22065765e-01 4.39854085e-01 4.52983081e-01 4.63136643e-01 4.71661150e-01 4.79725301e-01 4.88452017e-01 4.98959601e-01 5.12246549e-01 5.28863013e-01 5.48394859e-01 5.68993688e-01 5.87411225e-01 5.99816501e-01 6.02931738e-01 5.95054924e-01 5.78004777e-01 5.59919596e-01 5.47888875e-01 5.41440427e-01 5.38702011e-01 5.38761914e-01 5.39688766e-01 5.39114714e-01 1.71983004e-01 1.81987971e-01 2.14475647e-01 2.70216763e-01 3.24838936e-01 3.67743433e-01 3.99224460e-01 4.21689421e-01 4.37628001e-01 4.49117094e-01 4.57782060e-01 4.64914382e-01 4.71624643e-01 4.78964806e-01 4.87965733e-01 4.99528468e-01 5.14127135e-01 5.31372905e-01 5.49675047e-01 5.66398084e-01 5.78678489e-01 5.84395170e-01 5.82830489e-01 5.75429440e-01 5.66301882e-01 5.59261858e-01 5.55228233e-01 5.54137051e-01 5.55387616e-01 5.57018280e-01 5.57158828e-01 1.76962763e-01 1.88065380e-01 2.22708598e-01 2.78529048e-01 3.31188500e-01 3.71380925e-01 4.00273442e-01 4.20536578e-01 4.34645414e-01 4.44568843e-01 4.51819807e-01 4.57590789e-01 4.62894648e-01 4.68672842e-01 4.75829214e-01 4.85138237e-01 4.96999621e-01 5.11094272e-01 5.26149094e-01 5.40132284e-01 5.50982714e-01 5.57376623e-01 5.59034526e-01 5.56875587e-01 5.52983642e-01 5.49526751e-01 5.47842085e-01 5.48461318e-01 5.50944865e-01 5.53614259e-01 5.54548442e-01 1.84299439e-01 1.96771249e-01 2.34034047e-01 2.88484573e-01 3.37862760e-01 3.74698877e-01 4.00809407e-01 4.18907523e-01 4.31325406e-01 4.39858824e-01 4.45869952e-01 4.50424045e-01 4.54412758e-01 4.58646476e-01 4.63885784e-01 4.70773399e-01 4.79647458e-01 4.90285814e-01 5.01742780e-01 5.12523174e-01 5.21187246e-01 5.26971638e-01 5.29882610e-01 5.30550182e-01 5.30145049e-01 5.29923558e-01 5.30811489e-01 5.33188581e-01 5.36658823e-01 5.39942861e-01 5.41301906e-01 1.92997649e-01 2.07057923e-01 2.47705147e-01 2.99371034e-01 3.44394118e-01 3.77577037e-01 4.00976330e-01 4.17127877e-01 4.28118587e-01 4.35531437e-01 4.40561265e-01 4.44135934e-01 4.47018564e-01 4.49884534e-01 4.53352422e-01 4.57941234e-01 4.63941216e-01 4.71236289e-01 4.79191452e-01 4.86775756e-01 4.93018061e-01 4.97528970e-01 5.00536680e-01 5.02557635e-01 5.04308939e-01 5.06566703e-01 5.09790361e-01 5.13901591e-01 5.18301070e-01 5.22026658e-01 5.23690641e-01 2.01568976e-01 2.16869622e-01 2.60323614e-01 3.09246957e-01 3.49976569e-01 3.79846752e-01 4.00935322e-01 4.15533423e-01 4.25460696e-01 4.32086855e-01 4.36444789e-01 4.39330250e-01 4.41383451e-01 4.43152934e-01 4.45127338e-01 4.47715551e-01 4.51167852e-01 4.55463946e-01 4.60240781e-01 4.64862853e-01 4.68719363e-01 4.71642107e-01 4.73999441e-01 4.76302445e-01 4.78989601e-01 4.82543916e-01 4.87257004e-01 4.92781997e-01 4.98187929e-01 5.02508044e-01 5.04546285e-01 2.09028199e-01 2.25049183e-01 2.69875973e-01 3.16788733e-01 3.54174018e-01 3.81498188e-01 4.00895983e-01 4.14441019e-01 4.23718035e-01 4.29911792e-01 4.33914661e-01 4.36406195e-01 4.37917948e-01 4.38887417e-01 4.39690799e-01 4.40641910e-01 4.41952556e-01 4.43672925e-01 4.45654541e-01 4.47589725e-01 4.49173957e-01 4.50387418e-01 4.51656282e-01 4.53547597e-01 4.56360608e-01 4.60271984e-01 4.65512335e-01 4.71875191e-01 4.78276670e-01 4.83373374e-01 4.85804796e-01 2.15146601e-01 2.31632233e-01 2.77171731e-01 3.22324514e-01 3.57217938e-01 3.82762432e-01 4.01115596e-01 4.14111793e-01 4.23131377e-01 4.29212421e-01 4.33136702e-01 4.35489684e-01 4.36713010e-01 4.37151819e-01 4.37088907e-01 4.36757416e-01 4.36330169e-01 4.35898334e-01 4.35466439e-01 4.34987307e-01 4.34444040e-01 4.33986574e-01 4.34064984e-01 4.35282141e-01 4.37923133e-01 4.41854477e-01 4.47005689e-01 4.53397214e-01 4.60341096e-01 4.66231197e-01 4.69082743e-01 2.19968781e-01 2.36797720e-01 2.82909691e-01 3.26544374e-01 3.59595865e-01 3.84026289e-01 4.01872694e-01 4.14713144e-01 4.23761249e-01 4.29950744e-01 4.33984756e-01 4.36378151e-01 4.37502712e-01 4.37630147e-01 4.36968029e-01 4.35682267e-01 4.33907539e-01 4.31754708e-01 4.29332793e-01 4.26795006e-01 4.24390167e-01 4.22491282e-01 4.21603709e-01 4.22277957e-01 4.24776614e-01 4.28794682e-01 4.33790237e-01 4.39579457e-01 4.46060836e-01 4.52246368e-01 4.55528051e-01 2.23700956e-01 2.40537390e-01 2.87473202e-01 3.29981178e-01 3.61839682e-01 3.85687023e-01 4.03355062e-01 4.16225553e-01 4.25408125e-01 4.31774139e-01 4.35977250e-01 4.38486546e-01 4.39627409e-01 4.39622253e-01 4.38625842e-01 4.36754435e-01 4.34110373e-01 4.30810541e-01 4.27028596e-01 4.23052728e-01 4.19331014e-01 4.16446954e-01 4.15004402e-01 4.15463269e-01 4.17942911e-01 4.22067314e-01 4.27072316e-01 4.32275623e-01 4.37540948e-01 4.42823172e-01 4.46201593e-01 2.27056190e-01 2.41446704e-01 2.89409071e-01 3.32192570e-01 3.63513499e-01 3.87122571e-01 4.04719263e-01 4.17603344e-01 4.26843643e-01 4.33286607e-01 4.37567621e-01 4.40140337e-01 4.41315711e-01 4.41300899e-01 4.40233797e-01 4.38213319e-01 4.35328722e-01 4.31694955e-01 4.27501500e-01 4.23073500e-01 4.18918073e-01 4.15696204e-01 4.14074659e-01 4.14499164e-01 4.16998059e-01 4.21132982e-01 4.26137179e-01 4.31196839e-01 4.35851783e-01 4.40110147e-01 4.42876458e-01 
