# vtk DataFile Version 2.0
results_case1_non_linear/2_density.vtk, Created by Freefem++ 
ASCII
DATASET UNSTRUCTURED_GRID
POINTS 961 float
0 0 0
0.033333333 0 0
0.066666667 0 0
0.1 0 0
0.13333333 0 0
0.16666667 0 0
0.2 0 0
0.23333333 0 0
0.26666667 0 0
0.3 0 0
0.33333333 0 0
0.36666667 0 0
0.4 0 0
0.43333333 0 0
0.46666667 0 0
0.5 0 0
0.53333333 0 0
0.56666667 0 0
0.6 0 0
0.63333333 0 0
0.66666667 0 0
0.7 0 0
0.73333333 0 0
0.76666667 0 0
0.8 0 0
0.83333333 0 0
0.86666667 0 0
0.9 0 0
0.93333333 0 0
0.96666667 0 0
1 0 0
0 0.033333333 0
0.033333333 0.033333333 0
0.066666667 0.033333333 0
0.1 0.033333333 0
0.13333333 0.033333333 0
0.16666667 0.033333333 0
0.2 0.033333333 0
0.23333333 0.033333333 0
0.26666667 0.033333333 0
0.3 0.033333333 0
0.33333333 0.033333333 0
0.36666667 0.033333333 0
0.4 0.033333333 0
0.43333333 0.033333333 0
0.46666667 0.033333333 0
0.5 0.033333333 0
0.53333333 0.033333333 0
0.56666667 0.033333333 0
0.6 0.033333333 0
0.63333333 0.033333333 0
0.66666667 0.033333333 0
0.7 0.033333333 0
0.73333333 0.033333333 0
0.76666667 0.033333333 0
0.8 0.033333333 0
0.83333333 0.033333333 0
0.86666667 0.033333333 0
0.9 0.033333333 0
0.93333333 0.033333333 0
0.96666667 0.033333333 0
1 0.033333333 0
0 0.066666667 0
0.033333333 0.066666667 0
0.066666667 0.066666667 0
0.1 0.066666667 0
0.13333333 0.066666667 0
0.16666667 0.066666667 0
0.2 0.066666667 0
0.23333333 0.066666667 0
0.26666667 0.066666667 0
0.3 0.066666667 0
0.33333333 0.066666667 0
0.36666667 0.066666667 0
0.4 0.066666667 0
0.43333333 0.066666667 0
0.46666667 0.066666667 0
0.5 0.066666667 0
0.53333333 0.066666667 0
0.56666667 0.066666667 0
0.6 0.066666667 0
0.63333333 0.066666667 0
0.66666667 0.066666667 0
0.7 0.066666667 0
0.73333333 0.066666667 0
0.76666667 0.066666667 0
0.8 0.066666667 0
0.83333333 0.066666667 0
0.86666667 0.066666667 0
0.9 0.066666667 0
0.93333333 0.066666667 0
0.96666667 0.066666667 0
1 0.066666667 0
0 0.1 0
0.033333333 0.1 0
0.066666667 0.1 0
0.1 0.1 0
0.13333333 0.1 0
0.16666667 0.1 0
0.2 0.1 0
0.23333333 0.1 0
0.26666667 0.1 0
0.3 0.1 0
0.33333333 0.1 0
0.36666667 0.1 0
0.4 0.1 0
0.43333333 0.1 0
0.46666667 0.1 0
0.5 0.1 0
0.53333333 0.1 0
0.56666667 0.1 0
0.6 0.1 0
0.63333333 0.1 0
0.66666667 0.1 0
0.7 0.1 0
0.73333333 0.1 0
0.76666667 0.1 0
0.8 0.1 0
0.83333333 0.1 0
0.86666667 0.1 0
0.9 0.1 0
0.93333333 0.1 0
0.96666667 0.1 0
1 0.1 0
0 0.13333333 0
0.033333333 0.13333333 0
0.066666667 0.13333333 0
0.1 0.13333333 0
0.13333333 0.13333333 0
0.16666667 0.13333333 0
0.2 0.13333333 0
0.23333333 0.13333333 0
0.26666667 0.13333333 0
0.3 0.13333333 0
0.33333333 0.13333333 0
0.36666667 0.13333333 0
0.4 0.13333333 0
0.43333333 0.13333333 0
0.46666667 0.13333333 0
0.5 0.13333333 0
0.53333333 0.13333333 0
0.56666667 0.13333333 0
0.6 0.13333333 0
0.63333333 0.13333333 0
0.66666667 0.13333333 0
0.7 0.13333333 0
0.73333333 0.13333333 0
0.76666667 0.13333333 0
0.8 0.13333333 0
0.83333333 0.13333333 0
0.86666667 0.13333333 0
0.9 0.13333333 0
0.93333333 0.13333333 0
0.96666667 0.13333333 0
1 0.13333333 0
0 0.16666667 0
0.033333333 0.16666667 0
0.066666667 0.16666667 0
0.1 0.16666667 0
0.13333333 0.16666667 0
0.16666667 0.16666667 0
0.2 0.16666667 0
0.23333333 0.16666667 0
0.26666667 0.16666667 0
0.3 0.16666667 0
0.33333333 0.16666667 0
0.36666667 0.16666667 0
0.4 0.16666667 0
0.43333333 0.16666667 0
0.46666667 0.16666667 0
0.5 0.16666667 0
0.53333333 0.16666667 0
0.56666667 0.16666667 0
0.6 0.16666667 0
0.63333333 0.16666667 0
0.66666667 0.16666667 0
0.7 0.16666667 0
0.73333333 0.16666667 0
0.76666667 0.16666667 0
0.8 0.16666667 0
0.83333333 0.16666667 0
0.86666667 0.16666667 0
0.9 0.16666667 0
0.93333333 0.16666667 0
0.96666667 0.16666667 0
1 0.16666667 0
0 0.2 0
0.033333333 0.2 0
0.066666667 0.2 0
0.1 0.2 0
0.13333333 0.2 0
0.16666667 0.2 0
0.2 0.2 0
0.23333333 0.2 0
0.26666667 0.2 0
0.3 0.2 0
0.33333333 0.2 0
0.36666667 0.2 0
0.4 0.2 0
0.43333333 0.2 0
0.46666667 0.2 0
0.5 0.2 0
0.53333333 0.2 0
0.56666667 0.2 0
0.6 0.2 0
0.63333333 0.2 0
0.66666667 0.2 0
0.7 0.2 0
0.73333333 0.2 0
0.76666667 0.2 0
0.8 0.2 0
0.83333333 0.2 0
0.86666667 0.2 0
0.9 0.2 0
0.93333333 0.2 0
0.96666667 0.2 0
1 0.2 0
0 0.23333333 0
0.033333333 0.23333333 0
0.066666667 0.23333333 0
0.1 0.23333333 0
0.13333333 0.23333333 0
0.16666667 0.23333333 0
0.2 0.23333333 0
0.23333333 0.23333333 0
0.26666667 0.23333333 0
0.3 0.23333333 0
0.33333333 0.23333333 0
0.36666667 0.23333333 0
0.4 0.23333333 0
0.43333333 0.23333333 0
0.46666667 0.23333333 0
0.5 0.23333333 0
0.53333333 0.23333333 0
0.56666667 0.23333333 0
0.6 0.23333333 0
0.63333333 0.23333333 0
0.66666667 0.23333333 0
0.7 0.23333333 0
0.73333333 0.23333333 0
0.76666667 0.23333333 0
0.8 0.23333333 0
0.83333333 0.23333333 0
0.86666667 0.23333333 0
0.9 0.23333333 0
0.93333333 0.23333333 0
0.96666667 0.23333333 0
1 0.23333333 0
0 0.26666667 0
0.033333333 0.26666667 0
0.066666667 0.26666667 0
0.1 0.26666667 0
0.13333333 0.26666667 0
0.16666667 0.26666667 0
0.2 0.26666667 0
0.23333333 0.26666667 0
0.26666667 0.26666667 0
0.3 0.26666667 0
0.33333333 0.26666667 0
0.36666667 0.26666667 0
0.4 0.26666667 0
0.43333333 0.26666667 0
0.46666667 0.26666667 0
0.5 0.26666667 0
0.53333333 0.26666667 0
0.56666667 0.26666667 0
0.6 0.26666667 0
0.63333333 0.26666667 0
0.66666667 0.26666667 0
0.7 0.26666667 0
0.73333333 0.26666667 0
0.76666667 0.26666667 0
0.8 0.26666667 0
0.83333333 0.26666667 0
0.86666667 0.26666667 0
0.9 0.26666667 0
0.93333333 0.26666667 0
0.96666667 0.26666667 0
1 0.26666667 0
0 0.3 0
0.033333333 0.3 0
0.066666667 0.3 0
0.1 0.3 0
0.13333333 0.3 0
0.16666667 0.3 0
0.2 0.3 0
0.23333333 0.3 0
0.26666667 0.3 0
0.3 0.3 0
0.33333333 0.3 0
0.36666667 0.3 0
0.4 0.3 0
0.43333333 0.3 0
0.46666667 0.3 0
0.5 0.3 0
0.53333333 0.3 0
0.56666667 0.3 0
0.6 0.3 0
0.63333333 0.3 0
0.66666667 0.3 0
0.7 0.3 0
0.73333333 0.3 0
0.76666667 0.3 0
0.8 0.3 0
0.83333333 0.3 0
0.86666667 0.3 0
0.9 0.3 0
0.93333333 0.3 0
0.96666667 0.3 0
1 0.3 0
0 0.33333333 0
0.033333333 0.33333333 0
0.066666667 0.33333333 0
0.1 0.33333333 0
0.13333333 0.33333333 0
0.16666667 0.33333333 0
0.2 0.33333333 0
0.23333333 0.33333333 0
0.26666667 0.33333333 0
0.3 0.33333333 0
0.33333333 0.33333333 0
0.36666667 0.33333333 0
0.4 0.33333333 0
0.43333333 0.33333333 0
0.46666667 0.33333333 0
0.5 0.33333333 0
0.53333333 0.33333333 0
0.56666667 0.33333333 0
0.6 0.33333333 0
0.63333333 0.33333333 0
0.66666667 0.33333333 0
0.7 0.33333333 0
0.73333333 0.33333333 0
0.76666667 0.33333333 0
0.8 0.33333333 0
0.83333333 0.33333333 0
0.86666667 0.33333333 0
0.9 0.33333333 0
0.93333333 0.33333333 0
0.96666667 0.33333333 0
1 0.33333333 0
0 0.36666667 0
0.033333333 0.36666667 0
0.066666667 0.36666667 0
0.1 0.36666667 0
0.13333333 0.36666667 0
0.16666667 0.36666667 0
0.2 0.36666667 0
0.23333333 0.36666667 0
0.26666667 0.36666667 0
0.3 0.36666667 0
0.33333333 0.36666667 0
0.36666667 0.36666667 0
0.4 0.36666667 0
0.43333333 0.36666667 0
0.46666667 0.36666667 0
0.5 0.36666667 0
0.53333333 0.36666667 0
0.56666667 0.36666667 0
0.6 0.36666667 0
0.63333333 0.36666667 0
0.66666667 0.36666667 0
0.7 0.36666667 0
0.73333333 0.36666667 0
0.76666667 0.36666667 0
0.8 0.36666667 0
0.83333333 0.36666667 0
0.86666667 0.36666667 0
0.9 0.36666667 0
0.93333333 0.36666667 0
0.96666667 0.36666667 0
1 0.36666667 0
0 0.4 0
0.033333333 0.4 0
0.066666667 0.4 0
0.1 0.4 0
0.13333333 0.4 0
0.16666667 0.4 0
0.2 0.4 0
0.23333333 0.4 0
0.26666667 0.4 0
0.3 0.4 0
0.33333333 0.4 0
0.36666667 0.4 0
0.4 0.4 0
0.43333333 0.4 0
0.46666667 0.4 0
0.5 0.4 0
0.53333333 0.4 0
0.56666667 0.4 0
0.6 0.4 0
0.63333333 0.4 0
0.66666667 0.4 0
0.7 0.4 0
0.73333333 0.4 0
0.76666667 0.4 0
0.8 0.4 0
0.83333333 0.4 0
0.86666667 0.4 0
0.9 0.4 0
0.93333333 0.4 0
0.96666667 0.4 0
1 0.4 0
0 0.43333333 0
0.033333333 0.43333333 0
0.066666667 0.43333333 0
0.1 0.43333333 0
0.13333333 0.43333333 0
0.16666667 0.43333333 0
0.2 0.43333333 0
0.23333333 0.43333333 0
0.26666667 0.43333333 0
0.3 0.43333333 0
0.33333333 0.43333333 0
0.36666667 0.43333333 0
0.4 0.43333333 0
0.43333333 0.43333333 0
0.46666667 0.43333333 0
0.5 0.43333333 0
0.53333333 0.43333333 0
0.56666667 0.43333333 0
0.6 0.43333333 0
0.63333333 0.43333333 0
0.66666667 0.43333333 0
0.7 0.43333333 0
0.73333333 0.43333333 0
0.76666667 0.43333333 0
0.8 0.43333333 0
0.83333333 0.43333333 0
0.86666667 0.43333333 0
0.9 0.43333333 0
0.93333333 0.43333333 0
0.96666667 0.43333333 0
1 0.43333333 0
0 0.46666667 0
0.033333333 0.46666667 0
0.066666667 0.46666667 0
0.1 0.46666667 0
0.13333333 0.46666667 0
0.16666667 0.46666667 0
0.2 0.46666667 0
0.23333333 0.46666667 0
0.26666667 0.46666667 0
0.3 0.46666667 0
0.33333333 0.46666667 0
0.36666667 0.46666667 0
0.4 0.46666667 0
0.43333333 0.46666667 0
0.46666667 0.46666667 0
0.5 0.46666667 0
0.53333333 0.46666667 0
0.56666667 0.46666667 0
0.6 0.46666667 0
0.63333333 0.46666667 0
0.66666667 0.46666667 0
0.7 0.46666667 0
0.73333333 0.46666667 0
0.76666667 0.46666667 0
0.8 0.46666667 0
0.83333333 0.46666667 0
0.86666667 0.46666667 0
0.9 0.46666667 0
0.93333333 0.46666667 0
0.96666667 0.46666667 0
1 0.46666667 0
0 0.5 0
0.033333333 0.5 0
0.066666667 0.5 0
0.1 0.5 0
0.13333333 0.5 0
0.16666667 0.5 0
0.2 0.5 0
0.23333333 0.5 0
0.26666667 0.5 0
0.3 0.5 0
0.33333333 0.5 0
0.36666667 0.5 0
0.4 0.5 0
0.43333333 0.5 0
0.46666667 0.5 0
0.5 0.5 0
0.53333333 0.5 0
0.56666667 0.5 0
0.6 0.5 0
0.63333333 0.5 0
0.66666667 0.5 0
0.7 0.5 0
0.73333333 0.5 0
0.76666667 0.5 0
0.8 0.5 0
0.83333333 0.5 0
0.86666667 0.5 0
0.9 0.5 0
0.93333333 0.5 0
0.96666667 0.5 0
1 0.5 0
0 0.53333333 0
0.033333333 0.53333333 0
0.066666667 0.53333333 0
0.1 0.53333333 0
0.13333333 0.53333333 0
0.16666667 0.53333333 0
0.2 0.53333333 0
0.23333333 0.53333333 0
0.26666667 0.53333333 0
0.3 0.53333333 0
0.33333333 0.53333333 0
0.36666667 0.53333333 0
0.4 0.53333333 0
0.43333333 0.53333333 0
0.46666667 0.53333333 0
0.5 0.53333333 0
0.53333333 0.53333333 0
0.56666667 0.53333333 0
0.6 0.53333333 0
0.63333333 0.53333333 0
0.66666667 0.53333333 0
0.7 0.53333333 0
0.73333333 0.53333333 0
0.76666667 0.53333333 0
[...]
CELL_DATA 1920
Scalars  Label int 1
LOOKUP_TABLE FreeFempp_table
0
0
0
0
0
0
0
0
0
0
0
0
0
0
0
0
0
0
0
0
0
0
0
0
0
0
0
0
0
0
0
0
0
0
0
0
0
0
0
0
0
0
0
0
0
0
0
0
0
0
0
0
0
0
0
0
0
0
0
0
0
0
0
0
0
0
0
0
0
0
0
0
0
0
0
0
0
0
0
0
0
0
0
0
0
0
0
0
0
0
0
0
0
0
0
0
0
0
0
0
0
0
0
0
0
0
0
0
0
0
0
0
0
0
0
0
0
0
0
0
0
0
0
0
0
0
0
0
0
0
0
0
0
0
0
0
0
0
0
0
0
0
0
0
0
0
0
0
0
0
0
0
0
0
0
0
0
0
0
0
0
0
0
0
0
0
0
0
0
0
0
0
0
0
0
0
0
0
0
0
0
0
0
0
0
0
0
0
0
0
0
0
0
0
0
0
0
0
0
0
0
0
0
0
0
0
0
0
0
0
0
0
0
0
0
0
0
0
0
0
0
0
0
0
0
0
0
0
0
0
0
0
0
0
0
0
0
0
0
0
0
0
0
0
0
0
0
0
0
0
0
0
0
0
0
0
0
0
0
0
0
0
0
0
0
0
0
0
0
0
0
0
0
0
0
0
0
0
0
0
0
0
0
0
0
0
0
0
0
0
0
0
0
0
0
0
0
0
0
0
0
0
0
0
0
0
0
0
0
0
0
0
0
0
0
0
0
0
0
0
0
0
0
0
0
0
0
0
0
0
0
0
0
0
0
0
0
0
0
0
0
0
0
0
0
0
0
0
0
0
0
0
0
0
0
0
0
0
0
0
0
0
0
0
0
0
0
0
0
0
0
0
0
0
0
0
0
0
0
0
0
0
0
0
0
0
0
0
0
0
0
0
0
0
0
0
0
0
0
0
0
0
0
0
0
0
0
0
0
0
0
0
0
0
0
0
0
0
0
0
0
0
0
0
0
0
0
0
0
0
0
0
0
0
0
0
0
0
0
0
0
0
0
0
0
0
0
0
0
0
0
0
0
0
0
0
0
0
0
0
0
0
0
0
0
0
0
0
0
0
0
0
0
0
0
0
0
0
0
0
0
0
0
0
0
0
0
0
0
0
0
0
0
0
0
0
0
0
0
0
0
0
0
0
0
0
0
0
0
0
0
0
0
0
0
0
0
0
0
0
0
0
0
0
0
0
0
0
0
0
0
0
0
0
0
0
0
0
0
0
0
0
0
0
0
0
0
0
0
0
0
0
0
0
0
0
0
0
0
0
0
0
0
0
0
0
0
0
0
0
0
0
0
0
0
0
0
0
0
0
0
0
0
0
0
0
0
0
0
0
0
0
0
0
0
0
0
0
0
0
0
0
0
0
0
0
0
0
0
0
0
0
0
0
0
0
0
0
0
0
0
0
0
0
0
0
0
0
0
0
0
0
0
0
0
0
0
0
0
0
0
0
0
0
0
0
0
0
0
0
0
0
0
0
0
0
0
0
0
0
0
0
0
0
0
0
0
0
0
0
0
0
0
0
0
0
0
0
0
0
0
0
0
0
0
0
0
0
0
0
0
0
0
0
0
0
0
0
0
0
0
0
0
0
0
0
0
0
0
0
0
0
0
0
0
0
0
0
0
0
0
0
0
0
0
0
0
0
0
0
0
0
0
0
0
0
0
0
0
0
0
0
0
0
0
0
0
0
0
0
0
0
0
0
0
0
0
0
0
0
0
0
0
0
0
0
0
0
0
0
0
0
0
0
0
0
0
0
0
0
0
0
0
0
0
0
0
0
0
0
0
0
0
0
0
0
0
0
0
0
0
0
0
0
0
0
0
0
0
0
0
0
0
0
0
0
0
0
0
0
0
0
0
0
0
0
0
0
0
0
0
0
0
0
0
0
0
0
0
0
0
0
0
0
0
0
0
0
0
0
0
0
0
0
0
0
0
0
0
0
0
0
0
0
0
0
0
0
0
0
0
0
0
0
0
0
0
0
0
0
0
0
0
0
0
0
0
0
0
0
0
0
0
0
0
0
0
0
0
0
0
0
0
0
0
0
0
0
0
0
0
0
0
0
0
0
0
0
0
0
0
0
0
0
0
0
0
0
0
0
0
0
0
0
0
0
0
0
0
0
0
0
0
0
0
0
0
0
0
0
0
0
0
0
0
0
0
0
0
0
0
0
0
0
0
0
0
0
0
0
0
0
0
0
0
0
0
0
0
0
0
0
0
0
0
0
0
0
0
0
0
0
0
0
0
0
0
0
0
0
0
0
0
0
0
0
0
0
0
0
0
0
0
0
0
0
0
0
0
0
0
0
0
0
0
0
0
0
0
0
0
0
0
0
0
0
0
0
0
0
0
0
0
0
0
0
0
0
0
0
0
0
0
0
0
0
0
0
0
0
0
0
0
0
0
0
0
0
0
0
0
0
0
0
0
0
0
0
0
0
0
0
0
0
0
0
0
0
0
0
0
0
0
0
0
0
0
0
0
0
0
0
0
0
0
0
0
0
0
0
0
0
0
0
0
0
0
0
0
0
0
0
0
0
0
0
0
0
0
0
0
0
0
0
0
0
0
0
0
0
0
0
0
0
0
0
0
0
0
0
0
0
0
0
0
0
0
0
0
0
0
0
0
0
0
0
0
0
0
0
0
0
0
0
0
0
0
0
0
0
0
0
0
0
0
0
0
0
0
0
0
0
0
0
0
0
0
0
0
0
0
0
0
0
0
0
0
0
0
0
0
0
0
0
0
0
0
0
0
0
0
0
0
0
0
0
0
0
0
0
0
0
0
0
0
0
0
0
0
0
0
0
0
0
0
0
0
0
0
0
0
0
0
0
0
0
0
0
0
0
0
0
0
0
0
0
0
0
0
0
0
0
0
0
0
0
0
0
0
0
0
0
0
0
0
0
0
0
0
0
0
0
0
0
0
0
0
0
0
0
0
0
0
0
0
0
0
0
0
0
0
0
0
0
0
0
0
0
0
0
0
0
0
0
0
0
0
0
0
0
0
0
0
0
0
0
0
0
0
0
0
0
0
0
0
0
0
0
0
0
0
0
0
0
0
0
0
0
0
0
0
0
0
0
0
0
0
0
0
0
0
0
0
0
0
0
0
0
0
0
0
0
0
0
0
0
0
0
0
0
0
0
0
0
0
0
0
0
0
0
0
0
0
0
0
0
0
0
0
0
0
0
0
0
0
0
0
0
0
0
0
0
0
0
0
0
0
0
0
0
0
0
0
0
0
0
0
0
0
0
0
0
0
0
0
0
0
0
0
0
0
0
0
0
0
0
0
0
0
0
0
0
0
0
0
0
0
0
0
0
0
0
0
0
0
0
0
0
0
0
0
0
0
0
0
0
0
0
0
0
0
0
0
0
0
0
0
0
0
0
0
0
0
0
0
0
0
0
0
0
0
0
0
0
0
0
0
0
0
0
0
0
0
0
0
0
0
0
0
0
0
0
0
0
0
0
0
0
0
0
0
0
0
0
0
0
0
0
0
0
0
0
0
0
0
0
0
0
0
0
0
0
0
0
0
0
0
0
0
0
0
0
0
0
0
0
0
0
0
0
0
0
0
0
0
0
0
0
0
0
0
0
0
0
0
0
0
0
0
0
0
0
0
0
0
0
0
0
0
0
0
0
0
0
0
0
0
0
0
0
0
0
0
0
0
0
0
0
0
0
0
0
0
0
0
0
0
0
0
0
0
0
0
0
0
0
0
0
0
0
0
0
0
0
0
0
0
0
0
0
0
0
0
0
0
0
0
0
0
0
0
0
0
0
0
0
0
0
0
0
0
0
0
0
0
0
0
0
0
0
0
0
0
0
0
0
0
0
0
0
0
0
0
0
0
0
0
0
0
0
0
0
0
0
0
0
0
0
0
0
0
0
0
0
0
0
0
0
0
0
0
0
0
0
0
0
0
0
0
0
0
0
0
0
0
0
0
0
0
0
0
0
0
0
0
0
0
0
0
0
0
0
0
0
0
0
0
0
0
0
0
0
0
0
0
0
0
0
0
0
0
0
0
0
0
0
0
0
0
0
0
0
0
0
0
0
0
0
0
0
1
1
1
1
1
1
1
1
1
1
1
1
1
1
1
1
1
1
1
1
1
1
1
1
1
1
1
1
1
1
2
2
2
2
2
2
2
2
2
2
2
2
2
2
2
2
2
2
2
2
2
2
2
2
2
2
2
2
2
2
3
3
3
3
3
3
3
3
3
3
3
3
3
3
3
3
3
3
3
3
3
3
3
3
3
3
3
3
3
3
4
4
4
4
4
4
4
4
4
4
4
4
4
4
4
4
4
4
4
4
4
4
4
4
4
4
4
4
4
4

LOOKUP_TABLE FreeFempp_table 5
1.00000000 0.00000000 0.00000000 1.00000000
1.00000000 1.00000000 0.00000000 1.00000000
1.00000000 0.00000000 1.00000000 1.00000000
0.00000000 1.00000000 0.00000000 1.00000000
0.00000000 1.00000000 1.00000000 1.00000000

POINT_DATA 961
FIELD FieldData 1
Density 1 961 float
3.82686645e-01 2.83533245e-01 2.40181252e-01 2.22954348e-01 2.09497660e-01 1.92642972e-01 1.70142263e-01 1.41167268e-01 1.05886482e-01 7.59821236e-02 7.61563927e-02 1.33517176e-01 2.36713812e-01 3.13667595e-01 3.61624479e-01 4.08377290e-01 4.72335815e-01 5.72157145e-01 6.99118853e-01 7.87686825e-01 8.05030763e-01 7.75013864e-01 7.13558912e-01 6.83838606e-01 7.29046583e-01 7.67843246e-01 7.61310339e-01 7.48580337e-01 7.17675149e-01 6.76621795e-01 6.38122022e-01 2.85544962e-01 2.03307390e-01 1.60625502e-01 1.48716807e-01 1.40503302e-01 1.30203292e-01 1.16113834e-01 9.79343876e-02 7.58520588e-02 5.46457805e-02 4.86963280e-02 9.11403149e-02 2.02417463e-01 2.75844783e-01 3.12854707e-01 3.56999487e-01 4.25703168e-01 5.45006096e-01 7.18281329e-01 8.35082710e-01 8.40351462e-01 7.78261900e-01 6.67072117e-01 5.80139518e-01 5.95609069e-01 6.55548215e-01 6.74701035e-01 6.78740919e-01 6.86232626e-01 6.71436071e-01 6.43298388e-01 2.57981811e-02 2.34808978e-02 1.76154822e-02 1.68158934e-02 1.62023250e-02 1.53067596e-02 1.40689667e-02 1.24414507e-02 1.04130981e-02 8.91865138e-03 9.59813409e-03 2.93943528e-02 1.64909676e-01 2.33532891e-01 2.58087993e-01 3.22556973e-01 3.97169292e-01 4.85552639e-01 6.65621996e-01 7.72269845e-01 6.84447229e-01 5.18987417e-01 3.09113950e-01 2.41301268e-01 2.37409920e-01 2.58159906e-01 2.80015975e-01 3.34241211e-01 4.61468905e-01 5.46056688e-01 5.71294546e-01 2.80309226e-02 1.78252719e-02 1.53766721e-02 1.71566475e-02 1.97399966e-02 2.16539260e-02 2.36429702e-02 2.58417241e-02 2.81166546e-02 2.94851456e-02 1.85487457e-02 3.87112261e-03 1.69725399e-02 2.78622005e-02 3.93297151e-02 1.31624386e-01 2.91591376e-01 3.87491971e-01 5.81783175e-01 6.61802769e-01 2.09624261e-01 9.21422914e-02 6.20336235e-02 6.44011870e-02 6.64705262e-02 6.76302016e-02 7.59907067e-02 1.07280493e-01 2.20161274e-01 3.99133772e-01 4.91012812e-01 2.49581546e-01 1.65915802e-01 1.30738348e-01 1.40981570e-01 1.68917835e-01 1.97469056e-01 2.25240737e-01 2.54039973e-01 2.81605154e-01 2.92464674e-01 2.24081740e-01 5.17476201e-02 3.24572138e-02 2.80013476e-02 1.32733909e-02 1.21793868e-02 2.97879819e-02 6.51979446e-02 3.84375840e-01 7.12821245e-01 4.77045715e-01 7.71658272e-02 1.92385912e-02 2.06831526e-02 2.11474523e-02 2.00340766e-02 2.16305573e-02 3.07447407e-02 7.75103197e-02 2.45661765e-01 4.26110536e-01 3.56707454e-01 2.57699013e-01 1.89827979e-01 1.92818806e-01 2.29688406e-01 2.71389991e-01 3.08836460e-01 3.41538787e-01 3.68999600e-01 3.84743780e-01 3.73800695e-01 3.14410806e-01 3.05288911e-01 3.01924437e-01 1.66980103e-01 5.04934005e-02 2.36710049e-02 6.35234360e-03 5.33632562e-02 3.85755688e-01 7.63833940e-01 3.23478907e-01 6.09558634e-02 2.19177566e-02 1.63687933e-02 1.23023177e-02 1.00420164e-02 1.01192323e-02 2.27446128e-02 1.20838873e-01 3.57797921e-01 4.43908125e-01 3.57802391e-01 2.89680064e-01 2.82185853e-01 3.09409469e-01 3.44238997e-01 3.74763250e-01 3.98741573e-01 4.17024702e-01 4.29475486e-01 4.32379216e-01 4.28030610e-01 4.37098563e-01 4.47534204e-01 4.17946041e-01 3.64548892e-01 2.84975767e-01 6.63303211e-02 2.88278963e-02 3.23832259e-02 1.53222710e-01 7.05354631e-01 3.08023393e-01 6.94883987e-02 3.48781645e-02 2.60077305e-02 1.72754209e-02 8.65189731e-03 7.68725574e-03 5.53647093e-02 2.80458540e-01 5.91078162e-01 5.49785435e-01 5.04738033e-01 4.85990554e-01 4.84661847e-01 4.90910441e-01 4.98001486e-01 5.03902435e-01 5.08491516e-01 5.11651933e-01 5.11639953e-01 5.08019149e-01 5.04842818e-01 5.02195001e-01 4.95806634e-01 4.89552349e-01 4.80530709e-01 4.04715180e-01 2.99833357e-01 5.37878275e-02 1.31594390e-02 1.15727112e-01 6.66709781e-01 4.39633906e-01 1.73451632e-01 1.30995005e-01 8.72343406e-02 3.14688943e-02 9.00128949e-03 2.09493563e-02 1.29232123e-01 7.31053531e-01 7.48318076e-01 7.32394695e-01 7.13208556e-01 6.91980004e-01 6.70606315e-01 6.50860786e-01 6.34057820e-01 6.20427310e-01 6.09130800e-01 5.98528922e-01 5.87653518e-01 5.77138603e-01 5.67313850e-01 5.57493389e-01 5.47395110e-01 5.35294235e-01 5.17810225e-01 4.99008060e-01 3.55843425e-01 5.68400212e-02 1.59136560e-02 1.06016308e-01 6.76733136e-01 7.16935515e-01 4.91548568e-01 3.62185925e-01 1.47934049e-01 4.19335216e-02 7.52110966e-03 1.61789469e-02 7.57002056e-01 8.07589710e-01 8.09858799e-01 8.04160833e-01 7.93543518e-01 7.76395142e-01 7.54616320e-01 7.31503904e-01 7.09631622e-01 6.89919889e-01 6.72078311e-01 6.55700147e-01 6.40758336e-01 6.27144217e-01 6.14538789e-01 6.02486491e-01 5.89658976e-01 5.74241340e-01 5.56027353e-01 5.27709901e-01 3.83417159e-01 9.01657566e-02 2.49264706e-02 1.00181736e-01 6.12693608e-01 5.96133113e-01 1.28495798e-01 2.08095551e-01 2.37128839e-01 2.34097969e-02 5.70254168e-03 6.31159842e-01 6.90899372e-01 7.12928951e-01 7.35697031e-01 7.59071410e-01 7.71454513e-01 7.70884216e-01 7.60703623e-01 7.45542645e-01 7.28695512e-01 7.11867094e-01 6.95889294e-01 6.81202710e-01 6.67956471e-01 6.56129360e-01 6.45439804e-01 6.34994030e-01 6.23367190e-01 6.09122455e-01 5.91866136e-01 5.66914856e-01 4.42868471e-01 1.49302959e-01 2.89667249e-02 4.81476896e-02 9.05986279e-02 3.05111893e-02 1.09306611e-01 6.09685063e-01 5.98752983e-02 5.68280881e-03 4.28944737e-01 4.11171496e-01 4.26319063e-01 4.75208342e-01 5.51334620e-01 6.29548073e-01 6.86232150e-01 7.15135157e-01 7.23892272e-01 7.21295834e-01 7.13123679e-01 7.02684760e-01 6.91851318e-01 6.81693733e-01 6.72827840e-01 6.65433705e-01 6.59161329e-01 6.53187096e-01 6.46297097e-01 6.37703359e-01 6.28900111e-01 6.14074945e-01 5.00362575e-01 1.64153293e-01 2.74855811e-02 8.63094255e-03 7.87564553e-03 9.79651883e-02 6.70232117e-01 7.57313371e-02 2.58084130e-03 3.09556633e-01 2.33811840e-01 2.14112997e-01 2.39382342e-01 2.96767265e-01 3.91359478e-01 5.05339086e-01 5.97186267e-01 6.50854111e-01 6.75511956e-01 6.83334947e-01 6.82386935e-01 6.77337408e-01 6.70921922e-01 6.64813817e-01 6.59969211e-01 6.56779230e-01 6.55202985e-01 6.54811978e-01 6.55156672e-01 6.57195151e-01 6.63384140e-01 6.63138509e-01 5.44071078e-01 1.87382400e-01 3.06289475e-02 1.87868699e-02 1.42398283e-01 7.83757806e-01 8.68740901e-02 1.70381588e-03 2.43434221e-01 1.49984017e-01 1.19011119e-01 1.32946938e-01 1.70534000e-01 2.38015696e-01 3.42864275e-01 4.61728036e-01 5.54963589e-01 6.10507190e-01 6.37963057e-01 6.48649633e-01 6.50127888e-01 6.46992326e-01 6.42117023e-01 6.37362957e-01 6.33954406e-01 6.32706463e-01 6.34120226e-01 6.38509810e-01 6.46595001e-01 6.60781980e-01 6.83857620e-01 6.90922618e-01 5.23910284e-01 1.53221890e-01 6.65212497e-02 2.96021521e-01 8.33279371e-01 9.58079994e-02 1.40196818e-03 1.83038995e-01 9.66853574e-02 6.96109459e-02 8.22588205e-02 1.19265676e-01 1.80770874e-01 2.69570470e-01 3.79530281e-01 4.81487125e-01 5.53218603e-01 5.95037758e-01 6.15857422e-01 6.23505533e-01 6.23270273e-01 6.18664145e-01 6.12158775e-01 6.05633080e-01 6.00616634e-01 5.98380983e-01 5.99939167e-01 6.06136203e-01 6.18600667e-01 6.42433226e-01 6.76978946e-01 6.32987261e-01 2.59165376e-01 6.81853741e-02 2.31359154e-01 8.31716955e-01 9.43672583e-02 1.01295253e-03 1.18572108e-01 6.08427338e-02 4.41892222e-02 6.00109287e-02 1.04577072e-01 1.75190046e-01 2.63150662e-01 3.61073345e-01 4.51794535e-01 5.20806909e-01 5.66101551e-01 5.92283785e-01 6.04616821e-01 6.07262373e-01 6.03327334e-01 5.95266759e-01 5.85229874e-01 5.75244904e-01 5.67217529e-01 5.62747121e-01 5.62886059e-01 5.68675160e-01 5.84981859e-01 6.26250207e-01 6.75837576e-01 5.29290497e-01 1.26641721e-01 1.83890924e-01 7.99632728e-01 9.26712155e-02 1.49578287e-03 6.41659275e-02 3.75462696e-02 3.18557173e-02 5.54566868e-02 1.17738597e-01 2.07433298e-01 3.00219834e-01 3.85259569e-01 4.56941068e-01 5.12566984e-01 5.52730978e-01 5.79240382e-01 5.94164610e-01 5.99546611e-01 5.97275257e-01 5.89159071e-01 5.77138186e-01 5.63465953e-01 5.50675392e-01 5.41172862e-01 5.36451697e-01 5.36682665e-01 5.43659031e-01 5.71663797e-01 6.38744116e-01 6.46920979e-01 3.48343462e-01 2.70544618e-01 7.52105176e-01 8.65425989e-02 1.82183774e-03 3.29804458e-02 2.43227910e-02 2.76557393e-02 6.61723390e-02 1.60277203e-01 2.70602554e-01 3.58864188e-01 4.25395966e-01 4.77048248e-01 5.18007159e-01 5.50307572e-01 5.74347913e-01 5.90104818e-01 5.97812414e-01 5.98011792e-01 5.91518104e-01 5.79565704e-01 5.64072847e-01 5.47759295e-01 5.33756196e-01 5.24525344e-01 5.20558596e-01 5.20818770e-01 5.30834973e-01 5.72083652e-01 6.32957578e-01 6.26430690e-01 6.67694569e-01 7.84122825e-01 8.44254270e-02 2.67034839e-03 1.87749080e-02 1.78367421e-02 3.06608249e-02 9.76127461e-02 2.31980339e-01 3.45650822e-01 4.14700121e-01 4.61218685e-01 4.97358769e-01 5.27569652e-01 5.53300083e-01 5.74342430e-01 5.89944124e-01 5.99465847e-01 6.02528751e-01 5.98993242e-01 5.89059174e-01 5.73591530e-01 5.54535329e-01 5.35028517e-01 5.18941402e-01 5.10253489e-01 5.11579096e-01 5.24085164e-01 5.61071694e-01 6.47009134e-01 7.69930899e-01 8.40744853e-01 7.34569430e-01 7.59679228e-02 2.94726086e-03 1.17307287e-02 1.47867296e-02 4.25557457e-02 1.59818962e-01 3.19112509e-01 4.10425782e-01 4.55144316e-01 4.86247450e-01 5.12713850e-01 5.36440790e-01 5.57761967e-01 5.76271594e-01 5.91272712e-01 6.02046072e-01 6.07902050e-01 6.08117580e-01 6.01937532e-01 5.88868797e-01 5.69467366e-01 5.46458423e-01 5.25486231e-01 5.16085148e-01 5.29475689e-01 5.68295598e-01 6.33411765e-01 7.35096812e-01 8.31621289e-01 8.03996921e-01 3.21033359e-01 3.78097929e-02 2.10912153e-03 7.55655067e-03 1.53197469e-02 7.00164288e-02 2.51384407e-01 3.98339629e-01 4.54968333e-01 4.80551690e-01 5.02126813e-01 5.22980690e-01 5.42854548e-01 5.61269283e-01 5.77757478e-01 5.91898143e-01 6.03295267e-01 6.11482501e-01 6.15753710e-01 6.15019858e-01 6.08013988e-01 5.94465435e-01 5.77465355e-01 5.65021932e-01 5.70026934e-01 6.04375839e-01 6.64547801e-01 7.38542497e-01 8.08548391e-01 8.04181755e-01 6.07915223e-01 1.02190271e-01 1.32172452e-02 5.38381282e-03 5.17449295e-03 2.18112282e-02 1.33412540e-01 3.50547522e-01 4.53271776e-01 4.80382740e-01 4.95323777e-01 5.11607587e-01 5.28942943e-01 5.46132505e-01 5.62318027e-01 5.77014744e-01 5.90040624e-01 6.01428986e-01 6.11303389e-01 6.19665265e-01 6.26136303e-01 6.30034029e-01 6.31699681e-01 6.35456860e-01 6.49767160e-01 6.78649187e-01 7.10512102e-01 7.36168921e-01 7.68231034e-01 7.61330485e-01 5.86257696e-01 1.41885996e-01 2.88995169e-02 9.20725707e-03 1.34700891e-02 4.29338356e-03 3.13619897e-02 2.47979745e-01 4.31765109e-01 4.82550979e-01 4.92717385e-01 5.03234565e-01 5.16434371e-01 5.31068623e-01 5.45874000e-01 5.59951246e-01 5.72834790e-01 5.84483981e-01 5.95299602e-01 6.06141329e-01 6.18238091e-01 6.32895708e-01 6.51212335e-01 6.74617529e-01 7.06291914e-01 7.47521102e-01 7.77553499e-01 7.14458823e-01 5.51705778e-01 4.91491318e-01 4.22596365e-01 1.29362479e-01 3.35126631e-02 9.93879605e-03 2.31541432e-02 4.33322452e-02 3.93740507e-03 3.66959348e-02 3.33544672e-01 4.75899845e-01 4.93570805e-01 4.98176754e-01 5.06655574e-01 5.17402768e-01 5.29436827e-01 5.41770518e-01 5.53629160e-01 5.64582765e-01 5.74632227e-01 5.84372044e-01 5.95231771e-01 6.09645903e-01 6.30803525e-01 6.61642969e-01 7.03340411e-01 7.53820360e-01 8.04194987e-01 8.25001061e-01 6.84761763e-01 1.63649604e-01 6.84994981e-02 5.64655326e-02 2.86407676e-02 1.46755669e-02 3.11027728e-02 9.08047184e-02 2.10056588e-01 3.61874723e-03 3.82116400e-02 3.66700113e-01 4.90732938e-01 4.96183485e-01 4.99987066e-01 5.06439805e-01 5.14621496e-01 5.23954213e-01 5.33715725e-01 5.43275714e-01 5.52239358e-01 5.60573101e-01 5.68832636e-01 5.78553736e-01 5.92694581e-01 6.15606844e-01 6.51606023e-01 7.01701164e-01 7.60205865e-01 8.14382792e-01 8.44156206e-01 7.92509139e-01 4.37036067e-01 1.25167444e-01 9.25046653e-02 9.36509371e-02 1.05796039e-01 1.75306723e-01 4.65738177e-01 5.61938524e-01 3.29600275e-03 3.84188481e-02 3.76562178e-01 4.94940400e-01 4.95773613e-01 4.98312950e-01 5.02368331e-01 5.07978082e-01 5.14726162e-01 5.22029757e-01 5.29374421e-01 5.36424518e-01 5.43103576e-01 5.49751878e-01 5.57480752e-01 5.68734825e-01 5.87647200e-01 6.19094014e-01 6.65428877e-01 7.22382307e-01 7.79004037e-01 8.22122097e-01 8.33970428e-01 7.76851594e-01 6.82891250e-01 7.16717064e-01 8.02838027e-01 8.26371133e-01 8.38686645e-01 8.64612639e-01 8.38428080e-01 2.97226664e-03 3.84793654e-02 3.81966978e-01 4.96584296e-01 4.92782205e-01 4.92714167e-01 4.94449347e-01 4.97886032e-01 5.02469301e-01 5.07643163e-01 5.13003469e-01 5.18338084e-01 5.23605645e-01 5.28928339e-01 5.34731567e-01 5.42164862e-01 5.53696871e-01 5.73146760e-01 6.03980720e-01 6.46108389e-01 6.94630027e-01 7.42912471e-01 7.83800304e-01 8.08209598e-01 8.26152384e-01 8.62645209e-01 8.90828669e-01 8.93525302e-01 8.89004409e-01 8.84554684e-01 8.54490340e-01 2.59245164e-03 3.85416262e-02 3.86897385e-01 4.95944589e-01 4.86533135e-01 4.83683854e-01 4.83745843e-01 4.85697150e-01 4.88675982e-01 4.92126822e-01 4.95789379e-01 4.99649495e-01 5.03821015e-01 5.08381069e-01 5.13246536e-01 5.18261313e-01 5.23654282e-01 5.30694008e-01 5.41715741e-01 5.58690786e-01 5.81358194e-01 6.07713044e-01 6.36456907e-01 6.66340232e-01 6.97059274e-01 7.29825914e-01 7.53819823e-01 7.60070622e-01 7.61282682e-01 7.64460564e-01 7.46324658e-01 2.00808421e-03 3.88275385e-02 3.93251359e-01 4.91730571e-01 4.76901203e-01 4.72537845e-01 4.71967071e-01 4.73126024e-01 4.74971235e-01 4.77046430e-01 4.79290724e-01 4.81928617e-01 4.85315233e-01 4.89700049e-01 4.94926333e-01 5.00183463e-01 5.04038692e-01 5.04950583e-01 5.02082169e-01 4.95574325e-01 4.85486060e-01 4.70766097e-01 4.52654928e-01 4.41502273e-01 4.51532871e-01 4.82585907e-01 5.21848142e-01 5.58249950e-01 5.88198245e-01 6.12135410e-01 6.19107962e-01 2.83304043e-03 4.16116454e-02 4.15640056e-01 4.96199250e-01 4.75488961e-01 4.71310705e-01 4.70910162e-01 4.71604168e-01 4.72511977e-01 4.73408997e-01 4.74440575e-01 4.76018280e-01 4.78701532e-01 4.82987434e-01 4.88973379e-01 4.95931327e-01 5.01938522e-01 5.03791988e-01 4.97386843e-01 4.78511631e-01 4.43887204e-01 3.93276900e-01 3.35656106e-01 2.95197755e-01 2.95843810e-01 3.36412638e-01 3.95687759e-01 4.50861216e-01 4.92459118e-01 5.25175869e-01 5.48127055e-01 9.35401674e-03 4.15179692e-02 4.49987620e-01 5.34089029e-01 4.98837560e-01 4.95678633e-01 4.95768845e-01 4.96378928e-01 4.96903867e-01 4.97274190e-01 4.97689426e-01 4.98540670e-01 5.00340879e-01 5.03585339e-01 5.08496225e-01 5.14661670e-01 5.20654023e-01 5.23758888e-01 5.19940376e-01 5.04149914e-01 4.71299559e-01 4.19164866e-01 3.55599970e-01 3.05721879e-01 2.98147470e-01 3.37079883e-01 3.99543822e-01 4.55861658e-01 4.93774921e-01 5.18638730e-01 5.37491262e-01 
