# vtk DataFile Version 2.0
results_case1_non_linear/iter5.vtk, Created by Freefem++ 
ASCII
DATASET UNSTRUCTURED_GRID
POINTS 961 float
0 0 0
0.033333333 0 0
0.066666667 0 0
0.1 0 0
0.13333333 0 0
0.16666667 0 0
0.2 0 0
0.23333333 0 0
0.26666667 0 0
0.3 0 0
0.33333333 0 0
0.36666667 0 0
0.4 0 0
0.43333333 0 0
0.46666667 0 0
0.5 0 0
0.53333333 0 0
0.56666667 0 0
0.6 0 0
0.63333333 0 0
0.66666667 0 0
0.7 0 0
0.73333333 0 0
0.76666667 0 0
0.8 0 0
0.83333333 0 0
0.86666667 0 0
0.9 0 0
0.93333333 0 0
0.96666667 0 0
1 0 0
0 0.033333333 0
0.033333333 0.033333333 0
0.066666667 0.033333333 0
0.1 0.033333333 0
0.13333333 0.033333333 0
0.16666667 0.033333333 0
0.2 0.033333333 0
0.23333333 0.033333333 0
0.26666667 0.033333333 0
0.3 0.033333333 0
0.33333333 0.033333333 0
0.36666667 0.033333333 0
0.4 0.033333333 0
0.43333333 0.033333333 0
0.46666667 0.033333333 0
0.5 0.033333333 0
0.53333333 0.033333333 0
0.56666667 0.033333333 0
0.6 0.033333333 0
0.63333333 0.033333333 0
0.66666667 0.033333333 0
0.7 0.033333333 0
0.73333333 0.033333333 0
0.76666667 0.033333333 0
0.8 0.033333333 0
0.83333333 0.033333333 0
0.86666667 0.033333333 0
0.9 0.033333333 0
0.93333333 0.033333333 0
0.96666667 0.033333333 0
1 0.033333333 0
0 0.066666667 0
0.033333333 0.066666667 0
0.066666667 0.066666667 0
0.1 0.066666667 0
0.13333333 0.066666667 0
0.16666667 0.066666667 0
0.2 0.066666667 0
0.23333333 0.066666667 0
0.26666667 0.066666667 0
0.3 0.066666667 0
0.33333333 0.066666667 0
0.36666667 0.066666667 0
0.4 0.066666667 0
0.43333333 0.066666667 0
0.46666667 0.066666667 0
0.5 0.066666667 0
0.53333333 0.066666667 0
0.56666667 0.066666667 0
0.6 0.066666667 0
0.63333333 0.066666667 0
0.66666667 0.066666667 0
0.7 0.066666667 0
0.73333333 0.066666667 0
0.76666667 0.066666667 0
0.8 0.066666667 0
0.83333333 0.066666667 0
0.86666667 0.066666667 0
0.9 0.066666667 0
0.93333333 0.066666667 0
0.96666667 0.066666667 0
1 0.066666667 0
0 0.1 0
0.033333333 0.1 0
0.066666667 0.1 0
0.1 0.1 0
0.13333333 0.1 0
0.16666667 0.1 0
0.2 0.1 0
0.23333333 0.1 0
0.26666667 0.1 0
0.3 0.1 0
0.33333333 0.1 0
0.36666667 0.1 0
0.4 0.1 0
0.43333333 0.1 0
0.46666667 0.1 0
0.5 0.1 0
0.53333333 0.1 0
0.56666667 0.1 0
0.6 0.1 0
0.63333333 0.1 0
0.66666667 0.1 0
0.7 0.1 0
0.73333333 0.1 0
0.76666667 0.1 0
0.8 0.1 0
0.83333333 0.1 0
0.86666667 0.1 0
0.9 0.1 0
0.93333333 0.1 0
0.96666667 0.1 0
1 0.1 0
0 0.13333333 0
0.033333333 0.13333333 0
0.066666667 0.13333333 0
0.1 0.13333333 0
0.13333333 0.13333333 0
0.16666667 0.13333333 0
0.2 0.13333333 0
0.23333333 0.13333333 0
0.26666667 0.13333333 0
0.3 0.13333333 0
0.33333333 0.13333333 0
0.36666667 0.13333333 0
0.4 0.13333333 0
0.43333333 0.13333333 0
0.46666667 0.13333333 0
0.5 0.13333333 0
0.53333333 0.13333333 0
0.56666667 0.13333333 0
0.6 0.13333333 0
0.63333333 0.13333333 0
0.66666667 0.13333333 0
0.7 0.13333333 0
0.73333333 0.13333333 0
0.76666667 0.13333333 0
0.8 0.13333333 0
0.83333333 0.13333333 0
0.86666667 0.13333333 0
0.9 0.13333333 0
0.93333333 0.13333333 0
0.96666667 0.13333333 0
1 0.13333333 0
0 0.16666667 0
0.033333333 0.16666667 0
0.066666667 0.16666667 0
0.1 0.16666667 0
0.13333333 0.16666667 0
0.16666667 0.16666667 0
0.2 0.16666667 0
0.23333333 0.16666667 0
0.26666667 0.16666667 0
0.3 0.16666667 0
0.33333333 0.16666667 0
0.36666667 0.16666667 0
0.4 0.16666667 0
0.43333333 0.16666667 0
0.46666667 0.16666667 0
0.5 0.16666667 0
0.53333333 0.16666667 0
0.56666667 0.16666667 0
0.6 0.16666667 0
0.63333333 0.16666667 0
0.66666667 0.16666667 0
0.7 0.16666667 0
0.73333333 0.16666667 0
0.76666667 0.16666667 0
0.8 0.16666667 0
0.83333333 0.16666667 0
0.86666667 0.16666667 0
0.9 0.16666667 0
0.93333333 0.16666667 0
0.96666667 0.16666667 0
1 0.16666667 0
0 0.2 0
0.033333333 0.2 0
0.066666667 0.2 0
0.1 0.2 0
0.13333333 0.2 0
0.16666667 0.2 0
0.2 0.2 0
0.23333333 0.2 0
0.26666667 0.2 0
0.3 0.2 0
0.33333333 0.2 0
0.36666667 0.2 0
0.4 0.2 0
0.43333333 0.2 0
0.46666667 0.2 0
0.5 0.2 0
0.53333333 0.2 0
0.56666667 0.2 0
0.6 0.2 0
0.63333333 0.2 0
0.66666667 0.2 0
0.7 0.2 0
0.73333333 0.2 0
0.76666667 0.2 0
0.8 0.2 0
0.83333333 0.2 0
0.86666667 0.2 0
0.9 0.2 0
0.93333333 0.2 0
0.96666667 0.2 0
1 0.2 0
0 0.23333333 0
0.033333333 0.23333333 0
0.066666667 0.23333333 0
0.1 0.23333333 0
0.13333333 0.23333333 0
0.16666667 0.23333333 0
0.2 0.23333333 0
0.23333333 0.23333333 0
0.26666667 0.23333333 0
0.3 0.23333333 0
0.33333333 0.23333333 0
0.36666667 0.23333333 0
0.4 0.23333333 0
0.43333333 0.23333333 0
0.46666667 0.23333333 0
0.5 0.23333333 0
0.53333333 0.23333333 0
0.56666667 0.23333333 0
0.6 0.23333333 0
0.63333333 0.23333333 0
0.66666667 0.23333333 0
0.7 0.23333333 0
0.73333333 0.23333333 0
0.76666667 0.23333333 0
0.8 0.23333333 0
0.83333333 0.23333333 0
0.86666667 0.23333333 0
0.9 0.23333333 0
0.93333333 0.23333333 0
0.96666667 0.23333333 0
1 0.23333333 0
0 0.26666667 0
0.033333333 0.26666667 0
0.066666667 0.26666667 0
0.1 0.26666667 0
0.13333333 0.26666667 0
0.16666667 0.26666667 0
0.2 0.26666667 0
0.23333333 0.26666667 0
0.26666667 0.26666667 0
0.3 0.26666667 0
0.33333333 0.26666667 0
0.36666667 0.26666667 0
0.4 0.26666667 0
0.43333333 0.26666667 0
0.46666667 0.26666667 0
0.5 0.26666667 0
0.53333333 0.26666667 0
0.56666667 0.26666667 0
0.6 0.26666667 0
0.63333333 0.26666667 0
0.66666667 0.26666667 0
0.7 0.26666667 0
0.73333333 0.26666667 0
0.76666667 0.26666667 0
0.8 0.26666667 0
0.83333333 0.26666667 0
0.86666667 0.26666667 0
0.9 0.26666667 0
0.93333333 0.26666667 0
0.96666667 0.26666667 0
1 0.26666667 0
0 0.3 0
0.033333333 0.3 0
0.066666667 0.3 0
0.1 0.3 0
0.13333333 0.3 0
0.16666667 0.3 0
0.2 0.3 0
0.23333333 0.3 0
0.26666667 0.3 0
0.3 0.3 0
0.33333333 0.3 0
0.36666667 0.3 0
0.4 0.3 0
0.43333333 0.3 0
0.46666667 0.3 0
0.5 0.3 0
0.53333333 0.3 0
0.56666667 0.3 0
0.6 0.3 0
0.63333333 0.3 0
0.66666667 0.3 0
0.7 0.3 0
0.73333333 0.3 0
0.76666667 0.3 0
0.8 0.3 0
0.83333333 0.3 0
0.86666667 0.3 0
0.9 0.3 0
0.93333333 0.3 0
0.96666667 0.3 0
1 0.3 0
0 0.33333333 0
0.033333333 0.33333333 0
0.066666667 0.33333333 0
0.1 0.33333333 0
0.13333333 0.33333333 0
0.16666667 0.33333333 0
0.2 0.33333333 0
0.23333333 0.33333333 0
0.26666667 0.33333333 0
0.3 0.33333333 0
0.33333333 0.33333333 0
0.36666667 0.33333333 0
0.4 0.33333333 0
0.43333333 0.33333333 0
0.46666667 0.33333333 0
0.5 0.33333333 0
0.53333333 0.33333333 0
0.56666667 0.33333333 0
0.6 0.33333333 0
0.63333333 0.33333333 0
0.66666667 0.33333333 0
0.7 0.33333333 0
0.73333333 0.33333333 0
0.76666667 0.33333333 0
0.8 0.33333333 0
0.83333333 0.33333333 0
0.86666667 0.33333333 0
0.9 0.33333333 0
0.93333333 0.33333333 0
0.96666667 0.33333333 0
1 0.33333333 0
0 0.36666667 0
0.033333333 0.36666667 0
0.066666667 0.36666667 0
0.1 0.36666667 0
0.13333333 0.36666667 0
0.16666667 0.36666667 0
0.2 0.36666667 0
0.23333333 0.36666667 0
0.26666667 0.36666667 0
0.3 0.36666667 0
0.33333333 0.36666667 0
0.36666667 0.36666667 0
0.4 0.36666667 0
0.43333333 0.36666667 0
0.46666667 0.36666667 0
0.5 0.36666667 0
0.53333333 0.36666667 0
0.56666667 0.36666667 0
0.6 0.36666667 0
0.63333333 0.36666667 0
0.66666667 0.36666667 0
0.7 0.36666667 0
0.73333333 0.36666667 0
0.76666667 0.36666667 0
0.8 0.36666667 0
0.83333333 0.36666667 0
0.86666667 0.36666667 0
0.9 0.36666667 0
0.93333333 0.36666667 0
0.96666667 0.36666667 0
1 0.36666667 0
0 0.4 0
0.033333333 0.4 0
0.066666667 0.4 0
0.1 0.4 0
0.13333333 0.4 0
0.16666667 0.4 0
0.2 0.4 0
0.23333333 0.4 0
0.26666667 0.4 0
0.3 0.4 0
0.33333333 0.4 0
0.36666667 0.4 0
0.4 0.4 0
0.43333333 0.4 0
0.46666667 0.4 0
0.5 0.4 0
0.53333333 0.4 0
0.56666667 0.4 0
0.6 0.4 0
0.63333333 0.4 0
0.66666667 0.4 0
0.7 0.4 0
0.73333333 0.4 0
0.76666667 0.4 0
0.8 0.4 0
0.83333333 0.4 0
0.86666667 0.4 0
0.9 0.4 0
0.93333333 0.4 0
0.96666667 0.4 0
1 0.4 0
0 0.43333333 0
0.033333333 0.43333333 0
0.066666667 0.43333333 0
0.1 0.43333333 0
0.13333333 0.43333333 0
0.16666667 0.43333333 0
0.2 0.43333333 0
0.23333333 0.43333333 0
0.26666667 0.43333333 0
0.3 0.43333333 0
0.33333333 0.43333333 0
0.36666667 0.43333333 0
0.4 0.43333333 0
0.43333333 0.43333333 0
0.46666667 0.43333333 0
0.5 0.43333333 0
0.53333333 0.43333333 0
0.56666667 0.43333333 0
0.6 0.43333333 0
0.63333333 0.43333333 0
0.66666667 0.43333333 0
0.7 0.43333333 0
0.73333333 0.43333333 0
0.76666667 0.43333333 0
0.8 0.43333333 0
0.83333333 0.43333333 0
0.86666667 0.43333333 0
0.9 0.43333333 0
0.93333333 0.43333333 0
0.96666667 0.43333333 0
1 0.43333333 0
0 0.46666667 0
0.033333333 0.46666667 0
0.066666667 0.46666667 0
0.1 0.46666667 0
0.13333333 0.46666667 0
0.16666667 0.46666667 0
0.2 0.46666667 0
0.23333333 0.46666667 0
0.26666667 0.46666667 0
0.3 0.46666667 0
0.33333333 0.46666667 0
0.36666667 0.46666667 0
0.4 0.46666667 0
0.43333333 0.46666667 0
0.46666667 0.46666667 0
0.5 0.46666667 0
0.53333333 0.46666667 0
0.56666667 0.46666667 0
0.6 0.46666667 0
0.63333333 0.46666667 0
0.66666667 0.46666667 0
0.7 0.46666667 0
0.73333333 0.46666667 0
0.76666667 0.46666667 0
0.8 0.46666667 0
0.83333333 0.46666667 0
0.86666667 0.46666667 0
0.9 0.46666667 0
0.93333333 0.46666667 0
0.96666667 0.46666667 0
1 0.46666667 0
0 0.5 0
0.033333333 0.5 0
0.066666667 0.5 0
0.1 0.5 0
0.13333333 0.5 0
0.16666667 0.5 0
0.2 0.5 0
0.23333333 0.5 0
0.26666667 0.5 0
0.3 0.5 0
0.33333333 0.5 0
0.36666667 0.5 0
0.4 0.5 0
0.43333333 0.5 0
0.46666667 0.5 0
0.5 0.5 0
0.53333333 0.5 0
0.56666667 0.5 0
0.6 0.5 0
0.63333333 0.5 0
0.66666667 0.5 0
0.7 0.5 0
0.73333333 0.5 0
0.76666667 0.5 0
0.8 0.5 0
0.83333333 0.5 0
0.86666667 0.5 0
0.9 0.5 0
0.93333333 0.5 0
0.96666667 0.5 0
1 0.5 0
0 0.53333333 0
0.033333333 0.53333333 0
0.066666667 0.53333333 0
0.1 0.53333333 0
0.13333333 0.53333333 0
0.16666667 0.53333333 0
0.2 0.53333333 0
0.23333333 0.53333333 0
0.26666667 0.53333333 0
0.3 0.53333333 0
0.33333333 0.53333333 0
0.36666667 0.53333333 0
0.4 0.53333333 0
0.43333333 0.53333333 0
0.46666667 0.53333333 0
0.5 0.53333333 0
0.53333333 0.53333333 0
0.56666667 0.53333333 0
0.6 0.53333333 0
0.63333333 0.53333333 0
0.66666667 0.53333333 0
0.7 0.53333333 0
0.73333333 0.53333333 0
0.76666667 0.53333333 0
[...]
CELL_DATA 1920
Scalars  Label int 1
LOOKUP_TABLE FreeFempp_table
0
0
0
0
0
0
0
0
0
0
0
0
0
0
0
0
0
0
0
0
0
0
0
0
0
0
0
0
0
0
0
0
0
0
0
0
0
0
0
0
0
0
0
0
0
0
0
0
0
0
0
0
0
0
0
0
0
0
0
0
0
0
0
0
0
0
0
0
0
0
0
0
0
0
0
0
0
0
0
0
0
0
0
0
0
0
0
0
0
0
0
0
0
0
0
0
0
0
0
0
0
0
0
0
0
0
0
0
0
0
0
0
0
0
0
0
0
0
0
0
0
0
0
0
0
0
0
0
0
0
0
0
0
0
0
0
0
0
0
0
0
0
0
0
0
0
0
0
0
0
0
0
0
0
0
0
0
0
0
0
0
0
0
0
0
0
0
0
0
0
0
0
0
0
0
0
0
0
0
0
0
0
0
0
0
0
0
0
0
0
0
0
0
0
0
0
0
0
0
0
0
0
0
0
0
0
0
0
0
0
0
0
0
0
0
0
0
0
0
0
0
0
0
0
0
0
0
0
0
0
0
0
0
0
0
0
0
0
0
0
0
0
0
0
0
0
0
0
0
0
0
0
0
0
0
0
0
0
0
0
0
0
0
0
0
0
0
0
0
0
0
0
0
0
0
0
0
0
0
0
0
0
0
0
0
0
0
0
0
0
0
0
0
0
0
0
0
0
0
0
0
0
0
0
0
0
0
0
0
0
0
0
0
0
0
0
0
0
0
0
0
0
0
0
0
0
0
0
0
0
0
0
0
0
0
0
0
0
0
0
0
0
0
0
0
0
0
0
0
0
0
0
0
0
0
0
0
0
0
0
0
0
0
0
0
0
0
0
0
0
0
0
0
0
0
0
0
0
0
0
0
0
0
0
0
0
0
0
0
0
0
0
0
0
0
0
0
0
0
0
0
0
0
0
0
0
0
0
0
0
0
0
0
0
0
0
0
0
0
0
0
0
0
0
0
0
0
0
0
0
0
0
0
0
0
0
0
0
0
0
0
0
0
0
0
0
0
0
0
0
0
0
0
0
0
0
0
0
0
0
0
0
0
0
0
0
0
0
0
0
0
0
0
0
0
0
0
0
0
0
0
0
0
0
0
0
0
0
0
0
0
0
0
0
0
0
0
0
0
0
0
0
0
0
0
0
0
0
0
0
0
0
0
0
0
0
0
0
0
0
0
0
0
0
0
0
0
0
0
0
0
0
0
0
0
0
0
0
0
0
0
0
0
0
0
0
0
0
0
0
0
0
0
0
0
0
0
0
0
0
0
0
0
0
0
0
0
0
0
0
0
0
0
0
0
0
0
0
0
0
0
0
0
0
0
0
0
0
0
0
0
0
0
0
0
0
0
0
0
0
0
0
0
0
0
0
0
0
0
0
0
0
0
0
0
0
0
0
0
0
0
0
0
0
0
0
0
0
0
0
0
0
0
0
0
0
0
0
0
0
0
0
0
0
0
0
0
0
0
0
0
0
0
0
0
0
0
0
0
0
0
0
0
0
0
0
0
0
0
0
0
0
0
0
0
0
0
0
0
0
0
0
0
0
0
0
0
0
0
0
0
0
0
0
0
0
0
0
0
0
0
0
0
0
0
0
0
0
0
0
0
0
0
0
0
0
0
0
0
0
0
0
0
0
0
0
0
0
0
0
0
0
0
0
0
0
0
0
0
0
0
0
0
0
0
0
0
0
0
0
0
0
0
0
0
0
0
0
0
0
0
0
0
0
0
0
0
0
0
0
0
0
0
0
0
0
0
0
0
0
0
0
0
0
0
0
0
0
0
0
0
0
0
0
0
0
0
0
0
0
0
0
0
0
0
0
0
0
0
0
0
0
0
0
0
0
0
0
0
0
0
0
0
0
0
0
0
0
0
0
0
0
0
0
0
0
0
0
0
0
0
0
0
0
0
0
0
0
0
0
0
0
0
0
0
0
0
0
0
0
0
0
0
0
0
0
0
0
0
0
0
0
0
0
0
0
0
0
0
0
0
0
0
0
0
0
0
0
0
0
0
0
0
0
0
0
0
0
0
0
0
0
0
0
0
0
0
0
0
0
0
0
0
0
0
0
0
0
0
0
0
0
0
0
0
0
0
0
0
0
0
0
0
0
0
0
0
0
0
0
0
0
0
0
0
0
0
0
0
0
0
0
0
0
0
0
0
0
0
0
0
0
0
0
0
0
0
0
0
0
0
0
0
0
0
0
0
0
0
0
0
0
0
0
0
0
0
0
0
0
0
0
0
0
0
0
0
0
0
0
0
0
0
0
0
0
0
0
0
0
0
0
0
0
0
0
0
0
0
0
0
0
0
0
0
0
0
0
0
0
0
0
0
0
0
0
0
0
0
0
0
0
0
0
0
0
0
0
0
0
0
0
0
0
0
0
0
0
0
0
0
0
0
0
0
0
0
0
0
0
0
0
0
0
0
0
0
0
0
0
0
0
0
0
0
0
0
0
0
0
0
0
0
0
0
0
0
0
0
0
0
0
0
0
0
0
0
0
0
0
0
0
0
0
0
0
0
0
0
0
0
0
0
0
0
0
0
0
0
0
0
0
0
0
0
0
0
0
0
0
0
0
0
0
0
0
0
0
0
0
0
0
0
0
0
0
0
0
0
0
0
0
0
0
0
0
0
0
0
0
0
0
0
0
0
0
0
0
0
0
0
0
0
0
0
0
0
0
0
0
0
0
0
0
0
0
0
0
0
0
0
0
0
0
0
0
0
0
0
0
0
0
0
0
0
0
0
0
0
0
0
0
0
0
0
0
0
0
0
0
0
0
0
0
0
0
0
0
0
0
0
0
0
0
0
0
0
0
0
0
0
0
0
0
0
0
0
0
0
0
0
0
0
0
0
0
0
0
0
0
0
0
0
0
0
0
0
0
0
0
0
0
0
0
0
0
0
0
0
0
0
0
0
0
0
0
0
0
0
0
0
0
0
0
0
0
0
0
0
0
0
0
0
0
0
0
0
0
0
0
0
0
0
0
0
0
0
0
0
0
0
0
0
0
0
0
0
0
0
0
0
0
0
0
0
0
0
0
0
0
0
0
0
0
0
0
0
0
0
0
0
0
0
0
0
0
0
0
0
0
0
0
0
0
0
0
0
0
0
0
0
0
0
0
0
0
0
0
0
0
0
0
0
0
0
0
0
0
0
0
0
0
0
0
0
0
0
0
0
0
0
0
0
0
0
0
0
0
0
0
0
0
0
0
0
0
0
0
0
0
0
0
0
0
0
0
0
0
0
0
0
0
0
0
0
0
0
0
0
0
0
0
0
0
0
0
0
0
0
0
0
0
0
0
0
0
0
0
0
0
0
0
0
0
0
0
0
0
0
0
0
0
0
0
0
0
0
0
0
0
0
0
0
0
0
0
0
0
0
0
0
0
0
0
0
0
0
0
0
0
0
0
0
0
0
0
0
0
0
0
0
0
0
0
0
0
0
0
0
0
0
0
0
0
0
0
0
0
0
0
0
0
0
0
0
0
0
0
0
0
0
0
0
0
0
0
0
0
0
0
0
0
0
0
0
0
0
0
0
0
0
0
0
0
0
0
0
0
0
0
0
0
0
0
0
0
0
0
0
0
0
0
0
0
0
0
0
0
0
0
0
0
0
0
0
0
0
0
0
0
0
0
0
0
0
0
0
0
0
0
0
0
0
0
0
0
0
0
0
0
0
0
0
0
0
0
0
0
0
0
0
0
0
0
0
0
0
0
0
0
0
0
0
0
0
0
0
0
0
0
0
0
0
0
0
0
0
0
0
0
0
0
0
0
0
0
0
0
0
0
0
0
0
0
0
0
0
0
0
0
0
0
0
0
0
0
0
0
0
0
0
0
0
0
0
0
0
0
0
0
0
0
0
0
0
0
0
0
0
0
0
0
0
0
0
0
0
0
0
0
0
0
0
0
0
0
0
0
0
0
0
0
0
0
0
0
0
0
0
0
0
0
0
0
0
0
0
0
0
0
0
0
0
0
0
0
0
0
0
0
0
0
0
0
0
0
0
0
0
0
0
0
0
0
0
0
0
0
0
0
0
0
0
0
0
0
0
0
0
0
1
1
1
1
1
1
1
1
1
1
1
1
1
1
1
1
1
1
1
1
1
1
1
1
1
1
1
1
1
1
2
2
2
2
2
2
2
2
2
2
2
2
2
2
2
2
2
2
2
2
2
2
2
2
2
2
2
2
2
2
3
3
3
3
3
3
3
3
3
3
3
3
3
3
3
3
3
3
3
3
3
3
3
3
3
3
3
3
3
3
4
4
4
4
4
4
4
4
4
4
4
4
4
4
4
4
4
4
4
4
4
4
4
4
4
4
4
4
4
4

LOOKUP_TABLE FreeFempp_table 5
1.00000000 0.00000000 0.00000000 1.00000000
1.00000000 1.00000000 0.00000000 1.00000000
1.00000000 0.00000000 1.00000000 1.00000000
0.00000000 1.00000000 0.00000000 1.00000000
0.00000000 1.00000000 1.00000000 1.00000000

POINT_DATA 961
FIELD FieldData 1
Density 1 961 float
2.38495661e-04 2.24743213e-04 2.25532378e-04 2.25901516e-04 2.26455129e-04 2.27380267e-04 2.28821242e-04 2.30889564e-04 2.33621395e-04 2.36973312e-04 2.40829235e-04 2.45002884e-04 2.49286415e-04 2.53486622e-04 2.57449428e-04 2.61069858e-04 2.64284608e-04 2.67051917e-04 2.69327313e-04 2.71057623e-04 2.72302248e-04 2.73487531e-04 2.74680642e-04 2.75701925e-04 2.76142149e-04 2.75714294e-04 9.96317089e-01 9.95915115e-01 1.26117026e-04 1.16436291e-04 1.97001282e-04 2.22063245e-04 1.86742778e-04 1.87873244e-04 1.88363978e-04 1.88991005e-04 1.90103354e-04 1.91960862e-04 1.94795444e-04 1.98743262e-04 2.03823947e-04 2.09942227e-04 2.16857530e-04 2.24245756e-04 2.31760147e-04 2.39084780e-04 2.45973497e-04 2.52259721e-04 2.57838285e-04 2.62627436e-04 2.66501302e-04 2.69144133e-04 2.70704448e-04 2.72358273e-04 2.74196762e-04 2.75200902e-04 2.75226630e-04 9.96478915e-01 9.95359063e-01 1.26452593e-04 1.01250567e-04 1.26167608e-04 2.22458184e-04 1.86389792e-04 1.86634381e-04 1.86508012e-04 1.86820893e-04 1.87646845e-04 1.89285129e-04 1.92040126e-04 1.96070410e-04 2.01396237e-04 2.07909645e-04 2.15297317e-04 2.23163472e-04 2.31100072e-04 2.38752371e-04 2.45869160e-04 2.52312806e-04 2.58037791e-04 2.63059163e-04 2.67408584e-04 2.70954304e-04 2.71622877e-04 2.69048294e-04 2.71480298e-04 2.74816935e-04 2.74850026e-04 2.81991088e-04 9.96498168e-01 1.75194873e-04 1.09094770e-04 1.14139046e-04 2.23821640e-04 1.88251885e-04 1.88366786e-04 1.87762940e-04 1.87470796e-04 1.87646714e-04 1.88714985e-04 1.91124214e-04 1.95055210e-04 2.00524140e-04 2.07409685e-04 2.15247448e-04 2.23531461e-04 2.31776401e-04 2.39591245e-04 2.46741809e-04 2.53148901e-04 2.58852990e-04 2.63990514e-04 2.68815056e-04 2.73795478e-04 2.79264525e-04 2.74110091e-04 2.71556753e-04 2.78152002e-04 2.81433284e-04 2.83079542e-04 9.96991932e-01 9.96436715e-01 1.06502172e-04 1.03281287e-04 2.25767668e-04 1.90849969e-04 1.90879975e-04 1.89898215e-04 1.88851351e-04 1.88023143e-04 1.88169477e-04 1.90010760e-04 1.93733649e-04 1.99379458e-04 2.06849232e-04 2.15362379e-04 2.24253236e-04 2.32924183e-04 2.40931025e-04 2.48070108e-04 2.54339364e-04 2.59857043e-04 2.64811999e-04 2.69470474e-04 2.74266960e-04 2.80211301e-04 2.80777866e-04 9.96356726e-01 2.84145965e-04 2.87512958e-04 2.83916161e-04 9.97393012e-01 9.96660531e-01 1.04214567e-04 1.04027109e-04 2.28152407e-04 1.94176202e-04 1.94228356e-04 1.92978143e-04 1.91056897e-04 1.88828446e-04 1.87656042e-04 1.88668870e-04 1.91982021e-04 1.97811198e-04 2.06207886e-04 2.15685577e-04 2.25408046e-04 2.34624764e-04 2.42813636e-04 2.49833887e-04 2.55797233e-04 2.60898669e-04 2.65322800e-04 2.69207172e-04 2.72601930e-04 2.75338243e-04 2.76241393e-04 2.71989586e-04 2.79289059e-04 2.91859265e-04 2.85263202e-04 3.09925032e-04 9.97179925e-01 1.04421735e-04 1.04285180e-04 2.30751873e-04 1.98084992e-04 1.98513066e-04 1.97326633e-04 1.94451495e-04 1.90348364e-04 1.87525715e-04 1.87441125e-04 1.89834958e-04 1.95705856e-04 2.05614298e-04 2.16360349e-04 2.27146083e-04 2.37005515e-04 2.45293777e-04 2.52016238e-04 2.57486274e-04 2.62019661e-04 2.65831593e-04 2.69036129e-04 2.71643075e-04 2.73526588e-04 2.74226069e-04 2.72604753e-04 2.73246755e-04 2.81197019e-04 2.83464673e-04 9.97031450e-01 9.96937037e-01 1.05085397e-04 1.04869949e-04 2.33284431e-04 2.02170355e-04 2.03546573e-04 2.03373245e-04 1.99707181e-04 1.93006519e-04 1.88622886e-04 1.87559242e-04 1.87649770e-04 1.92866719e-04 2.05408200e-04 2.17536537e-04 2.29595942e-04 2.40175461e-04 2.48382043e-04 2.54547369e-04 2.59331748e-04 2.63213704e-04 2.66450108e-04 2.69175973e-04 2.71458470e-04 2.73352809e-04 2.74865568e-04 2.75863538e-04 2.75880942e-04 2.75145256e-04 2.77104817e-04 9.96634781e-01 9.96486366e-01 1.05565858e-04 1.05489009e-04 2.35637272e-04 2.05915028e-04 2.08217956e-04 2.11005361e-04 2.09275400e-04 1.98997994e-04 1.92990206e-04 1.93589527e-04 1.88770166e-04 1.89900951e-04 2.06597600e-04 2.19076086e-04 2.32658975e-04 2.44127514e-04 2.51967547e-04 2.57238804e-04 2.61161535e-04 2.64364731e-04 2.67086580e-04 2.69453536e-04 2.71563156e-04 2.73567333e-04 2.75671919e-04 2.78345484e-04 2.81236920e-04 2.76037405e-04 2.72062607e-04 9.96525764e-01 9.96423364e-01 1.05534906e-04 1.05726249e-04 2.39192421e-04 2.10562052e-04 2.12740852e-04 2.16915243e-04 2.26646633e-04 2.31990125e-04 2.29425816e-04 2.30560792e-04 2.30010686e-04 2.17769426e-04 2.13592022e-04 2.19636495e-04 2.35372441e-04 2.48545053e-04 2.55715830e-04 2.59729626e-04 2.62701273e-04 2.65286450e-04 2.67563330e-04 2.69589014e-04 2.71442404e-04 2.73304788e-04 2.75118568e-04 2.77281390e-04 2.79449800e-04 2.77813233e-04 9.43541586e-01 9.96414542e-01 9.96373355e-01 1.04963940e-04 1.05332627e-04 2.67336029e-04 2.46662734e-04 2.44672818e-04 2.44430616e-04 2.47721968e-04 2.59495515e-04 1.02179463e-03 9.14209902e-01 9.44437683e-01 2.16155425e-01 3.03378969e-04 2.32984021e-04 2.35528016e-04 2.52657395e-04 2.59049906e-04 2.61509558e-04 2.63661263e-04 2.65861425e-04 2.67816620e-04 2.69508513e-04 2.71000870e-04 2.72654492e-04 2.74349761e-04 2.75105936e-04 2.75012251e-04 2.72612844e-04 9.96293247e-01 9.96366560e-01 9.96335208e-01 1.04227438e-04 1.04576218e-04 9.96592939e-01 9.96866047e-01 9.96731699e-01 9.96621132e-01 9.96541262e-01 9.96488392e-01 9.96436596e-01 9.96475577e-01 9.96480465e-01 9.95813310e-01 9.83463228e-01 5.87418675e-04 2.47729506e-04 2.56031781e-04 2.61370849e-04 2.62024376e-04 2.63859576e-04 2.66176998e-04 2.67987169e-04 2.69330776e-04 2.70374905e-04 2.71752797e-04 2.73560203e-04 2.76216480e-04 2.72621837e-04 2.65123323e-04 9.96206820e-01 9.96354163e-01 9.96320546e-01 1.03570746e-04 1.03895785e-04 9.96429145e-01 9.96618986e-01 9.96605277e-01 9.96561587e-01 9.96504426e-01 9.96461034e-01 9.96428728e-01 9.96404648e-01 9.96450722e-01 9.96472061e-01 9.94770110e-01 2.68986404e-01 2.17725290e-04 2.60893605e-04 2.61664973e-04 2.60643865e-04 2.63302005e-04 2.66535499e-04 2.68463453e-04 2.69139739e-04 2.69479264e-04 2.70569028e-04 2.71023484e-04 2.73857120e-04 2.72345933e-04 4.34232295e-01 9.96132135e-01 9.96352196e-01 9.96313572e-01 1.02934893e-04 1.03252562e-04 9.96680379e-01 9.97897029e-01 9.96854782e-01 9.96144354e-01 9.96312678e-01 9.96353924e-01 9.96366858e-01 9.96374846e-01 9.96416152e-01 9.96622324e-01 9.95867372e-01 9.16678488e-01 2.30218357e-04 2.63729977e-04 2.59495631e-04 2.57594249e-04 2.62893358e-04 2.67527183e-04 2.69706448e-04 2.69942102e-04 2.67782307e-04 2.70755612e-04 2.73147307e-04 2.74010730e-04 3.25207686e-04 9.95359361e-01 9.96292293e-01 9.96318042e-01 3.56609235e-04 1.06294836e-04 1.02235084e-04 2.16832472e-04 2.22235103e-04 2.66952993e-04 9.97455478e-01 9.96248782e-01 9.96299982e-01 9.96304572e-01 9.96288002e-01 9.96461093e-01 9.96726215e-01 9.96574283e-01 9.91469800e-01 3.05768033e-03 2.29605896e-04 2.63726222e-04 2.67336989e-04 2.65895069e-04 2.70536460e-04 2.70770834e-04 2.72712263e-04 2.72215781e-04 2.71896861e-04 2.35360974e-04 2.11176486e-03 9.92192745e-01 9.96507287e-01 9.96446073e-01 9.96540785e-01 2.01554329e-04 1.31781446e-04 1.17605392e-04 1.79232171e-04 1.43857324e-04 1.51849410e-04 1.75787427e-04 2.46986077e-04 9.82670426e-01 9.96776938e-01 9.96678591e-01 9.96702611e-01 9.96711850e-01 9.96693850e-01 9.96702850e-01 9.96056616e-01 9.78826702e-01 8.35570157e-01 1.21092185e-01 4.82728938e-04 2.26233722e-04 2.78152555e-04 2.59457127e-04 2.25663069e-04 3.07935085e-02 9.89390731e-01 9.96002734e-01 9.96490777e-01 9.96856451e-01 9.96810734e-01 1.07435556e-03 1.99787071e-04 1.49631625e-04 1.60667303e-04 1.72121610e-04 1.38773248e-04 1.40339995e-04 1.34842121e-04 1.58300580e-04 2.04796452e-04 1.86630350e-04 7.32928574e-01 9.86058354e-01 9.84776437e-01 9.63600338e-01 9.76547718e-01 9.96694744e-01 9.95791972e-01 9.96295631e-01 9.96564865e-01 9.97714460e-01 7.89551854e-01 1.52043309e-02 7.98507631e-01 9.94620621e-01 9.96404827e-01 9.96525347e-01 9.96388733e-01 9.96432960e-01 9.96850669e-01 4.64712046e-02 2.67835101e-04 2.21735711e-04 1.77839087e-04 1.99534523e-04 1.70319807e-04 1.37306488e-04 1.35600465e-04 1.33544032e-04 1.48823397e-04 1.80758652e-04 1.95603949e-04 1.89514933e-04 2.58369895e-04 2.95428472e-04 2.34022416e-04 2.38900437e-04 1.38255570e-03 9.82090712e-01 9.96306717e-01 9.95318949e-01 9.95627522e-01 9.97259796e-01 9.96931016e-01 9.96769249e-01 9.96613264e-01 9.96343791e-01 9.96364117e-01 9.96377647e-01 9.96442318e-01 9.96640325e-01 2.99637584e-04 2.61931389e-04 2.36081425e-04 2.15390624e-04 2.30777106e-04 1.73233799e-04 1.38761243e-04 1.35855458e-04 1.32675021e-04 1.36978444e-04 1.56035123e-04 1.63570701e-04 1.28864340e-04 2.22570598e-04 2.71630823e-04 2.48177588e-04 2.32552455e-04 2.76857871e-04 2.74066959e-04 2.68251082e-04 1.69858639e-03 8.25150192e-01 9.95341003e-01 9.96671736e-01 9.96727645e-01 9.96369064e-01 9.96377110e-01 9.96389568e-01 9.96386886e-01 9.96398807e-01 9.96637702e-01 2.79068947e-04 2.63987167e-04 2.48868513e-04 2.40167778e-04 2.49819161e-04 1.77968599e-04 1.42012534e-04 1.39107113e-04 1.35771086e-04 1.34098038e-04 1.37371899e-04 1.33356894e-04 1.27550331e-04 1.41459066e-04 2.02889933e-04 1.88897407e-04 1.78335395e-04 2.03370932e-04 3.30234383e-04 3.37654841e-04 2.40769165e-04 5.14160201e-04 9.76623118e-01 9.96205032e-01 9.96567726e-01 9.96381521e-01 9.96390104e-01 9.96398807e-01 9.96399701e-01 9.96396720e-01 9.96516049e-01 9.90731955e-01 2.60926812e-04 2.57550273e-04 2.56593397e-04 2.60481582e-04 1.81992102e-04 1.45219208e-04 1.42135745e-04 1.39776559e-04 1.39116964e-04 1.39992087e-04 1.32671354e-04 1.19631339e-04 1.35040129e-04 1.80481889e-04 1.70320302e-04 1.81992320e-04 2.44186376e-04 3.66536638e-04 4.13086556e-04 3.09220544e-04 1.95536180e-04 5.79175949e-01 9.95460987e-01 9.96536255e-01 9.96378005e-01 9.96395111e-01 9.96415377e-01 9.96439755e-01 9.96465743e-01 9.96509552e-01 9.96604562e-01 9.95322406e-01 9.57651377e-01 9.89061832e-01 7.39991605e-01 1.84781835e-04 1.47446743e-04 1.43105630e-04 1.40884018e-04 1.41821249e-04 1.43108322e-04 1.39753320e-04 1.32433619e-04 1.47876926e-04 1.40586009e-04 1.50488238e-04 1.78707400e-04 2.92783545e-04 4.68547019e-04 6.06140064e-04 8.50380224e-04 3.78103345e-04 2.87411734e-04 9.86825526e-01 9.96329010e-01 9.96393263e-01 9.96399283e-01 9.96431231e-01 9.96473074e-01 9.96524334e-01 9.96590316e-01 9.96722102e-01 9.96863425e-01 9.96776998e-01 9.96779740e-01 9.96635675e-01 1.86704972e-04 1.48864463e-04 1.41929777e-04 1.38883915e-04 1.40837190e-04 1.44265548e-04 1.45897982e-04 1.49848318e-04 1.52066961e-04 1.52557026e-04 1.43301062e-04 1.67347433e-04 3.71584669e-04 7.36945134e-04 8.73519515e-04 1.02417590e-03 1.14292011e-03 3.85678577e-04 3.46791872e-04 9.89521980e-01 9.96361732e-01 9.96409535e-01 9.96427774e-01 9.96477127e-01 9.96533751e-01 9.96601164e-01 9.96599495e-01 9.69961107e-01 7.69489646e-01 9.95143890e-01 9.96597946e-01 1.87531594e-04 1.49612184e-04 1.39181255e-04 1.32616668e-04 1.36316681e-04 1.44176578e-04 1.48726671e-04 1.64355122e-04 1.78656584e-04 1.88801467e-04 1.69454623e-04 1.77112699e-04 3.99419892e-04 1.37615239e-03 1.16714695e-03 1.06446410e-03 9.89482622e-04 7.74906192e-04 3.39871738e-04 2.32864521e-04 2.19656840e-01 9.94763553e-01 9.96363342e-01 9.96506095e-01 9.96505678e-01 9.96437907e-01 9.93675411e-01 2.49777164e-04 2.81046581e-04 2.90354772e-04 9.96353328e-01 1.86282748e-04 1.49978106e-04 1.37000985e-04 1.22413578e-04 1.30401269e-04 1.47481143e-04 1.53967267e-04 1.84759541e-04 2.58761953e-04 3.83372681e-04 4.03925456e-04 2.49863893e-04 3.27507762e-04 1.08253793e-03 1.18783291e-03 9.00167855e-04 8.29437398e-04 7.11645582e-04 4.71774838e-04 3.34253069e-04 2.74974125e-04 2.41762056e-04 2.50585872e-04 2.60048895e-04 2.74410791e-04 3.04429501e-04 3.92890681e-04 3.48933012e-04 3.13467579e-04 5.87758201e-04 4.38608025e-04 1.93857762e-04 1.57760500e-04 1.38583942e-04 1.15015551e-04 1.22163969e-04 1.71087071e-04 1.68971135e-04 2.25352138e-04 5.17669658e-04 9.37933510e-04 1.35896367e-03 7.90557067e-04 3.18310107e-04 5.96338126e-04 8.05286225e-04 6.89555251e-04 6.79281016e-04 6.13347453e-04 4.84754652e-04 3.36073048e-04 2.60641333e-04 2.07219244e-04 2.32401508e-04 2.47617398e-04 2.73649406e-04 3.19627870e-04 4.04853286e-04 5.22752234e-04 3.43757682e-04 4.99698333e-04 5.65887894e-04 3.87099019e-04 1.96700756e-04 1.35774782e-04 1.12465947e-04 1.14152630e-04 2.02684430e-04 2.23615280e-04 2.74054240e-04 1.11180346e-03 2.19536107e-03 1.94873486e-03 1.34635379e-03 4.69288934e-04 3.83572828e-04 6.20012986e-04 6.01683103e-04 5.80680033e-04 5.13643026e-04 4.16516792e-04 3.19817249e-04 2.58561864e-04 2.23524330e-04 2.33381899e-04 2.52411439e-04 2.80741398e-04 3.25115660e-04 3.83985316e-04 4.22226964e-04 3.54939315e-04 3.74556053e-04 3.70973168e-04 7.50949606e-03 1.25120554e-04 1.12331953e-04 1.10653185e-04 1.15947842e-04 2.91813514e-04 1.20449578e-03 3.48029891e-04 8.74900434e-04 2.17975420e-03 1.62966922e-03 9.17424855e-04 4.48431994e-04 3.06513073e-04 4.31599183e-04 4.77074034e-04 4.54771274e-04 3.93621507e-04 3.37240199e-04 2.77982675e-04 2.37860600e-04 2.22668648e-04 2.36961641e-04 2.58029759e-04 2.81730085e-04 3.11936048e-04 3.42266809e-04 3.51791648e-04 3.22388601e-04 3.22772568e-04 3.13778582e-04 1.02924205e-04 1.25124949e-04 1.04655475e-04 1.20656645e-04 1.50592925e-04 2.21233442e-03 3.08462139e-03 1.46857766e-03 4.03924496e-04 1.18219573e-03 1.03352254e-03 6.25529152e-04 3.89371038e-04 2.97880819e-04 3.17477097e-04 3.34312033e-04 3.25998903e-04 3.00041283e-04 2.70294084e-04 2.42980052e-04 2.23672323e-04 2.18861634e-04 2.33336861e-04 2.54730519e-04 2.74324033e-04 2.92661513e-04 3.06968403e-04 3.08695715e-04 2.93951249e-04 2.88443902e-04 2.86739465e-04 1.10734931e-04 1.01713791e-04 1.02591155e-04 4.11308691e-04 2.28418299e-04 9.96431470e-01 9.42753628e-04 1.34358148e-03 3.03414039e-04 1.09852653e-03 1.02960260e-03 5.87771239e-04 3.71096336e-04 2.83159548e-04 2.57620675e-04 2.48198194e-04 2.40747308e-04 2.31524929e-04 2.23628042e-04 2.18741348e-04 2.16828514e-04 2.19140042e-04 2.29489204e-04 2.45335017e-04 2.61531561e-04 2.75797123e-04 2.85484450e-04 2.86538911e-04 2.78287334e-04 2.68526957e-04 2.71898258e-04 1.03578066e-04 1.11808185e-04 1.62845775e-01 3.46364075e-04 9.78523135e-01 2.74976308e-04 4.29140520e-04 8.20442045e-04 2.89311633e-04 4.66992962e-04 5.92505967e-04 4.36947099e-04 3.27481743e-04 2.77365325e-04 2.55779538e-04 2.43713526e-04 2.37043962e-04 2.32814113e-04 2.31034632e-04 2.33109080e-04 2.37258209e-04 2.41571121e-04 2.45697098e-04 2.51024932e-04 2.58305983e-04 2.66371644e-04 2.72738776e-04 2.74812832e-04 2.71956553e-04 2.67609226e-04 2.67120893e-04 
