# vtk DataFile Version 2.0
results_case1_non_linear/2_density.vtk, Created by Freefem++ 
ASCII
DATASET UNSTRUCTURED_GRID
POINTS 961 float
0 0 0
0.033333333 0 0
0.066666667 0 0
0.1 0 0
0.13333333 0 0
0.16666667 0 0
0.2 0 0
0.23333333 0 0
0.26666667 0 0
0.3 0 0
0.33333333 0 0
0.36666667 0 0
0.4 0 0
0.43333333 0 0
0.46666667 0 0
0.5 0 0
0.53333333 0 0
0.56666667 0 0
0.6 0 0
0.63333333 0 0
0.66666667 0 0
0.7 0 0
0.73333333 0 0
0.76666667 0 0
0.8 0 0
0.83333333 0 0
0.86666667 0 0
0.9 0 0
0.93333333 0 0
0.96666667 0 0
1 0 0
0 0.033333333 0
0.033333333 0.033333333 0
0.066666667 0.033333333 0
0.1 0.033333333 0
0.13333333 0.033333333 0
0.16666667 0.033333333 0
0.2 0.033333333 0
0.23333333 0.033333333 0
0.26666667 0.033333333 0
0.3 0.033333333 0
0.33333333 0.033333333 0
0.36666667 0.033333333 0
0.4 0.033333333 0
0.43333333 0.033333333 0
0.46666667 0.033333333 0
0.5 0.033333333 0
0.53333333 0.033333333 0
0.56666667 0.033333333 0
0.6 0.033333333 0
0.63333333 0.033333333 0
0.66666667 0.033333333 0
0.7 0.033333333 0
0.73333333 0.033333333 0
0.76666667 0.033333333 0
0.8 0.033333333 0
0.83333333 0.033333333 0
0.86666667 0.033333333 0
0.9 0.033333333 0
0.93333333 0.033333333 0
0.96666667 0.033333333 0
1 0.033333333 0
0 0.066666667 0
0.033333333 0.066666667 0
0.066666667 0.066666667 0
0.1 0.066666667 0
0.13333333 0.066666667 0
0.16666667 0.066666667 0
0.2 0.066666667 0
0.23333333 0.066666667 0
0.26666667 0.066666667 0
0.3 0.066666667 0
0.33333333 0.066666667 0
0.36666667 0.066666667 0
0.4 0.066666667 0
0.43333333 0.066666667 0
0.46666667 0.066666667 0
0.5 0.066666667 0
0.53333333 0.066666667 0
0.56666667 0.066666667 0
0.6 0.066666667 0
0.63333333 0.066666667 0
0.66666667 0.066666667 0
0.7 0.066666667 0
0.73333333 0.066666667 0
0.76666667 0.066666667 0
0.8 0.066666667 0
0.83333333 0.066666667 0
0.86666667 0.066666667 0
0.9 0.066666667 0
0.93333333 0.066666667 0
0.96666667 0.066666667 0
1 0.066666667 0
0 0.1 0
0.033333333 0.1 0
0.066666667 0.1 0
0.1 0.1 0
0.13333333 0.1 0
0.16666667 0.1 0
0.2 0.1 0
0.23333333 0.1 0
0.26666667 0.1 0
0.3 0.1 0
0.33333333 0.1 0
0.36666667 0.1 0
0.4 0.1 0
0.43333333 0.1 0
0.46666667 0.1 0
0.5 0.1 0
0.53333333 0.1 0
0.56666667 0.1 0
0.6 0.1 0
0.63333333 0.1 0
0.66666667 0.1 0
0.7 0.1 0
0.73333333 0.1 0
0.76666667 0.1 0
0.8 0.1 0
0.83333333 0.1 0
0.86666667 0.1 0
0.9 0.1 0
0.93333333 0.1 0
0.96666667 0.1 0
1 0.1 0
0 0.13333333 0
0.033333333 0.13333333 0
0.066666667 0.13333333 0
0.1 0.13333333 0
0.13333333 0.13333333 0
0.16666667 0.13333333 0
0.2 0.13333333 0
0.23333333 0.13333333 0
0.26666667 0.13333333 0
0.3 0.13333333 0
0.33333333 0.13333333 0
0.36666667 0.13333333 0
0.4 0.13333333 0
0.43333333 0.13333333 0
0.46666667 0.13333333 0
0.5 0.13333333 0
0.53333333 0.13333333 0
0.56666667 0.13333333 0
0.6 0.13333333 0
0.63333333 0.13333333 0
0.66666667 0.13333333 0
0.7 0.13333333 0
0.73333333 0.13333333 0
0.76666667 0.13333333 0
0.8 0.13333333 0
0.83333333 0.13333333 0
0.86666667 0.13333333 0
0.9 0.13333333 0
0.93333333 0.13333333 0
0.96666667 0.13333333 0
1 0.13333333 0
0 0.16666667 0
0.033333333 0.16666667 0
0.066666667 0.16666667 0
0.1 0.16666667 0
0.13333333 0.16666667 0
0.16666667 0.16666667 0
0.2 0.16666667 0
0.23333333 0.16666667 0
0.26666667 0.16666667 0
0.3 0.16666667 0
0.33333333 0.16666667 0
0.36666667 0.16666667 0
0.4 0.16666667 0
0.43333333 0.16666667 0
0.46666667 0.16666667 0
0.5 0.16666667 0
0.53333333 0.16666667 0
0.56666667 0.16666667 0
0.6 0.16666667 0
0.63333333 0.16666667 0
0.66666667 0.16666667 0
0.7 0.16666667 0
0.73333333 0.16666667 0
0.76666667 0.16666667 0
0.8 0.16666667 0
0.83333333 0.16666667 0
0.86666667 0.16666667 0
0.9 0.16666667 0
0.93333333 0.16666667 0
0.96666667 0.16666667 0
1 0.16666667 0
0 0.2 0
0.033333333 0.2 0
0.066666667 0.2 0
0.1 0.2 0
0.13333333 0.2 0
0.16666667 0.2 0
0.2 0.2 0
0.23333333 0.2 0
0.26666667 0.2 0
0.3 0.2 0
0.33333333 0.2 0
0.36666667 0.2 0
0.4 0.2 0
0.43333333 0.2 0
0.46666667 0.2 0
0.5 0.2 0
0.53333333 0.2 0
0.56666667 0.2 0
0.6 0.2 0
0.63333333 0.2 0
0.66666667 0.2 0
0.7 0.2 0
0.73333333 0.2 0
0.76666667 0.2 0
0.8 0.2 0
0.83333333 0.2 0
0.86666667 0.2 0
0.9 0.2 0
0.93333333 0.2 0
0.96666667 0.2 0
1 0.2 0
0 0.23333333 0
0.033333333 0.23333333 0
0.066666667 0.23333333 0
0.1 0.23333333 0
0.13333333 0.23333333 0
0.16666667 0.23333333 0
0.2 0.23333333 0
0.23333333 0.23333333 0
0.26666667 0.23333333 0
0.3 0.23333333 0
0.33333333 0.23333333 0
0.36666667 0.23333333 0
0.4 0.23333333 0
0.43333333 0.23333333 0
0.46666667 0.23333333 0
0.5 0.23333333 0
0.53333333 0.23333333 0
0.56666667 0.23333333 0
0.6 0.23333333 0
0.63333333 0.23333333 0
0.66666667 0.23333333 0
0.7 0.23333333 0
0.73333333 0.23333333 0
0.76666667 0.23333333 0
0.8 0.23333333 0
0.83333333 0.23333333 0
0.86666667 0.23333333 0
0.9 0.23333333 0
0.93333333 0.23333333 0
0.96666667 0.23333333 0
1 0.23333333 0
0 0.26666667 0
0.033333333 0.26666667 0
0.066666667 0.26666667 0
0.1 0.26666667 0
0.13333333 0.26666667 0
0.16666667 0.26666667 0
0.2 0.26666667 0
0.23333333 0.26666667 0
0.26666667 0.26666667 0
0.3 0.26666667 0
0.33333333 0.26666667 0
0.36666667 0.26666667 0
0.4 0.26666667 0
0.43333333 0.26666667 0
0.46666667 0.26666667 0
0.5 0.26666667 0
0.53333333 0.26666667 0
0.56666667 0.26666667 0
0.6 0.26666667 0
0.63333333 0.26666667 0
0.66666667 0.26666667 0
0.7 0.26666667 0
0.73333333 0.26666667 0
0.76666667 0.26666667 0
0.8 0.26666667 0
0.83333333 0.26666667 0
0.86666667 0.26666667 0
0.9 0.26666667 0
0.93333333 0.26666667 0
0.96666667 0.26666667 0
1 0.26666667 0
0 0.3 0
0.033333333 0.3 0
0.066666667 0.3 0
0.1 0.3 0
0.13333333 0.3 0
0.16666667 0.3 0
0.2 0.3 0
0.23333333 0.3 0
0.26666667 0.3 0
0.3 0.3 0
0.33333333 0.3 0
0.36666667 0.3 0
0.4 0.3 0
0.43333333 0.3 0
0.46666667 0.3 0
0.5 0.3 0
0.53333333 0.3 0
0.56666667 0.3 0
0.6 0.3 0
0.63333333 0.3 0
0.66666667 0.3 0
0.7 0.3 0
0.73333333 0.3 0
0.76666667 0.3 0
0.8 0.3 0
0.83333333 0.3 0
0.86666667 0.3 0
0.9 0.3 0
0.93333333 0.3 0
0.96666667 0.3 0
1 0.3 0
0 0.33333333 0
0.033333333 0.33333333 0
0.066666667 0.33333333 0
0.1 0.33333333 0
0.13333333 0.33333333 0
0.16666667 0.33333333 0
0.2 0.33333333 0
0.23333333 0.33333333 0
0.26666667 0.33333333 0
0.3 0.33333333 0
0.33333333 0.33333333 0
0.36666667 0.33333333 0
0.4 0.33333333 0
0.43333333 0.33333333 0
0.46666667 0.33333333 0
0.5 0.33333333 0
0.53333333 0.33333333 0
0.56666667 0.33333333 0
0.6 0.33333333 0
0.63333333 0.33333333 0
0.66666667 0.33333333 0
0.7 0.33333333 0
0.73333333 0.33333333 0
0.76666667 0.33333333 0
0.8 0.33333333 0
0.83333333 0.33333333 0
0.86666667 0.33333333 0
0.9 0.33333333 0
0.93333333 0.33333333 0
0.96666667 0.33333333 0
1 0.33333333 0
0 0.36666667 0
0.033333333 0.36666667 0
0.066666667 0.36666667 0
0.1 0.36666667 0
0.13333333 0.36666667 0
0.16666667 0.36666667 0
0.2 0.36666667 0
0.23333333 0.36666667 0
0.26666667 0.36666667 0
0.3 0.36666667 0
0.33333333 0.36666667 0
0.36666667 0.36666667 0
0.4 0.36666667 0
0.43333333 0.36666667 0
0.46666667 0.36666667 0
0.5 0.36666667 0
0.53333333 0.36666667 0
0.56666667 0.36666667 0
0.6 0.36666667 0
0.63333333 0.36666667 0
0.66666667 0.36666667 0
0.7 0.36666667 0
0.73333333 0.36666667 0
0.76666667 0.36666667 0
0.8 0.36666667 0
0.83333333 0.36666667 0
0.86666667 0.36666667 0
0.9 0.36666667 0
0.93333333 0.36666667 0
0.96666667 0.36666667 0
1 0.36666667 0
0 0.4 0
0.033333333 0.4 0
0.066666667 0.4 0
0.1 0.4 0
0.13333333 0.4 0
0.16666667 0.4 0
0.2 0.4 0
0.23333333 0.4 0
0.26666667 0.4 0
0.3 0.4 0
0.33333333 0.4 0
0.36666667 0.4 0
0.4 0.4 0
0.43333333 0.4 0
0.46666667 0.4 0
0.5 0.4 0
0.53333333 0.4 0
0.56666667 0.4 0
0.6 0.4 0
0.63333333 0.4 0
0.66666667 0.4 0
0.7 0.4 0
0.73333333 0.4 0
0.76666667 0.4 0
0.8 0.4 0
0.83333333 0.4 0
0.86666667 0.4 0
0.9 0.4 0
0.93333333 0.4 0
0.96666667 0.4 0
1 0.4 0
0 0.43333333 0
0.033333333 0.43333333 0
0.066666667 0.43333333 0
0.1 0.43333333 0
0.13333333 0.43333333 0
0.16666667 0.43333333 0
0.2 0.43333333 0
0.23333333 0.43333333 0
0.26666667 0.43333333 0
0.3 0.43333333 0
0.33333333 0.43333333 0
0.36666667 0.43333333 0
0.4 0.43333333 0
0.43333333 0.43333333 0
0.46666667 0.43333333 0
0.5 0.43333333 0
0.53333333 0.43333333 0
0.56666667 0.43333333 0
0.6 0.43333333 0
0.63333333 0.43333333 0
0.66666667 0.43333333 0
0.7 0.43333333 0
0.73333333 0.43333333 0
0.76666667 0.43333333 0
0.8 0.43333333 0
0.83333333 0.43333333 0
0.86666667 0.43333333 0
0.9 0.43333333 0
0.93333333 0.43333333 0
0.96666667 0.43333333 0
1 0.43333333 0
0 0.46666667 0
0.033333333 0.46666667 0
0.066666667 0.46666667 0
0.1 0.46666667 0
0.13333333 0.46666667 0
0.16666667 0.46666667 0
0.2 0.46666667 0
0.23333333 0.46666667 0
0.26666667 0.46666667 0
0.3 0.46666667 0
0.33333333 0.46666667 0
0.36666667 0.46666667 0
0.4 0.46666667 0
0.43333333 0.46666667 0
0.46666667 0.46666667 0
0.5 0.46666667 0
0.53333333 0.46666667 0
0.56666667 0.46666667 0
0.6 0.46666667 0
0.63333333 0.46666667 0
0.66666667 0.46666667 0
0.7 0.46666667 0
0.73333333 0.46666667 0
0.76666667 0.46666667 0
0.8 0.46666667 0
0.83333333 0.46666667 0
0.86666667 0.46666667 0
0.9 0.46666667 0
0.93333333 0.46666667 0
0.96666667 0.46666667 0
1 0.46666667 0
0 0.5 0
0.033333333 0.5 0
0.066666667 0.5 0
0.1 0.5 0
0.13333333 0.5 0
0.16666667 0.5 0
0.2 0.5 0
0.23333333 0.5 0
0.26666667 0.5 0
0.3 0.5 0
0.33333333 0.5 0
0.36666667 0.5 0
0.4 0.5 0
0.43333333 0.5 0
0.46666667 0.5 0
0.5 0.5 0
0.53333333 0.5 0
0.56666667 0.5 0
0.6 0.5 0
0.63333333 0.5 0
0.66666667 0.5 0
0.7 0.5 0
0.73333333 0.5 0
0.76666667 0.5 0
0.8 0.5 0
0.83333333 0.5 0
0.86666667 0.5 0
0.9 0.5 0
0.93333333 0.5 0
0.96666667 0.5 0
1 0.5 0
0 0.53333333 0
0.033333333 0.53333333 0
0.066666667 0.53333333 0
0.1 0.53333333 0
0.13333333 0.53333333 0
0.16666667 0.53333333 0
0.2 0.53333333 0
0.23333333 0.53333333 0
0.26666667 0.53333333 0
0.3 0.53333333 0
0.33333333 0.53333333 0
0.36666667 0.53333333 0
0.4 0.53333333 0
0.43333333 0.53333333 0
0.46666667 0.53333333 0
0.5 0.53333333 0
0.53333333 0.53333333 0
0.56666667 0.53333333 0
0.6 0.53333333 0
0.63333333 0.53333333 0
0.66666667 0.53333333 0
0.7 0.53333333 0
0.73333333 0.53333333 0
0.76666667 0.53333333 0
[...]
CELL_DATA 1920
Scalars  Label int 1
LOOKUP_TABLE FreeFempp_table
0
0
0
0
0
0
0
0
0
0
0
0
0
0
0
0
0
0
0
0
0
0
0
0
0
0
0
0
0
0
0
0
0
0
0
0
0
0
0
0
0
0
0
0
0
0
0
0
0
0
0
0
0
0
0
0
0
0
0
0
0
0
0
0
0
0
0
0
0
0
0
0
0
0
0
0
0
0
0
0
0
0
0
0
0
0
0
0
0
0
0
0
0
0
0
0
0
0
0
0
0
0
0
0
0
0
0
0
0
0
0
0
0
0
0
0
0
0
0
0
0
0
0
0
0
0
0
0
0
0
0
0
0
0
0
0
0
0
0
0
0
0
0
0
0
0
0
0
0
0
0
0
0
0
0
0
0
0
0
0
0
0
0
0
0
0
0
0
0
0
0
0
0
0
0
0
0
0
0
0
0
0
0
0
0
0
0
0
0
0
0
0
0
0
0
0
0
0
0
0
0
0
0
0
0
0
0
0
0
0
0
0
0
0
0
0
0
0
0
0
0
0
0
0
0
0
0
0
0
0
0
0
0
0
0
0
0
0
0
0
0
0
0
0
0
0
0
0
0
0
0
0
0
0
0
0
0
0
0
0
0
0
0
0
0
0
0
0
0
0
0
0
0
0
0
0
0
0
0
0
0
0
0
0
0
0
0
0
0
0
0
0
0
0
0
0
0
0
0
0
0
0
0
0
0
0
0
0
0
0
0
0
0
0
0
0
0
0
0
0
0
0
0
0
0
0
0
0
0
0
0
0
0
0
0
0
0
0
0
0
0
0
0
0
0
0
0
0
0
0
0
0
0
0
0
0
0
0
0
0
0
0
0
0
0
0
0
0
0
0
0
0
0
0
0
0
0
0
0
0
0
0
0
0
0
0
0
0
0
0
0
0
0
0
0
0
0
0
0
0
0
0
0
0
0
0
0
0
0
0
0
0
0
0
0
0
0
0
0
0
0
0
0
0
0
0
0
0
0
0
0
0
0
0
0
0
0
0
0
0
0
0
0
0
0
0
0
0
0
0
0
0
0
0
0
0
0
0
0
0
0
0
0
0
0
0
0
0
0
0
0
0
0
0
0
0
0
0
0
0
0
0
0
0
0
0
0
0
0
0
0
0
0
0
0
0
0
0
0
0
0
0
0
0
0
0
0
0
0
0
0
0
0
0
0
0
0
0
0
0
0
0
0
0
0
0
0
0
0
0
0
0
0
0
0
0
0
0
0
0
0
0
0
0
0
0
0
0
0
0
0
0
0
0
0
0
0
0
0
0
0
0
0
0
0
0
0
0
0
0
0
0
0
0
0
0
0
0
0
0
0
0
0
0
0
0
0
0
0
0
0
0
0
0
0
0
0
0
0
0
0
0
0
0
0
0
0
0
0
0
0
0
0
0
0
0
0
0
0
0
0
0
0
0
0
0
0
0
0
0
0
0
0
0
0
0
0
0
0
0
0
0
0
0
0
0
0
0
0
0
0
0
0
0
0
0
0
0
0
0
0
0
0
0
0
0
0
0
0
0
0
0
0
0
0
0
0
0
0
0
0
0
0
0
0
0
0
0
0
0
0
0
0
0
0
0
0
0
0
0
0
0
0
0
0
0
0
0
0
0
0
0
0
0
0
0
0
0
0
0
0
0
0
0
0
0
0
0
0
0
0
0
0
0
0
0
0
0
0
0
0
0
0
0
0
0
0
0
0
0
0
0
0
0
0
0
0
0
0
0
0
0
0
0
0
0
0
0
0
0
0
0
0
0
0
0
0
0
0
0
0
0
0
0
0
0
0
0
0
0
0
0
0
0
0
0
0
0
0
0
0
0
0
0
0
0
0
0
0
0
0
0
0
0
0
0
0
0
0
0
0
0
0
0
0
0
0
0
0
0
0
0
0
0
0
0
0
0
0
0
0
0
0
0
0
0
0
0
0
0
0
0
0
0
0
0
0
0
0
0
0
0
0
0
0
0
0
0
0
0
0
0
0
0
0
0
0
0
0
0
0
0
0
0
0
0
0
0
0
0
0
0
0
0
0
0
0
0
0
0
0
0
0
0
0
0
0
0
0
0
0
0
0
0
0
0
0
0
0
0
0
0
0
0
0
0
0
0
0
0
0
0
0
0
0
0
0
0
0
0
0
0
0
0
0
0
0
0
0
0
0
0
0
0
0
0
0
0
0
0
0
0
0
0
0
0
0
0
0
0
0
0
0
0
0
0
0
0
0
0
0
0
0
0
0
0
0
0
0
0
0
0
0
0
0
0
0
0
0
0
0
0
0
0
0
0
0
0
0
0
0
0
0
0
0
0
0
0
0
0
0
0
0
0
0
0
0
0
0
0
0
0
0
0
0
0
0
0
0
0
0
0
0
0
0
0
0
0
0
0
0
0
0
0
0
0
0
0
0
0
0
0
0
0
0
0
0
0
0
0
0
0
0
0
0
0
0
0
0
0
0
0
0
0
0
0
0
0
0
0
0
0
0
0
0
0
0
0
0
0
0
0
0
0
0
0
0
0
0
0
0
0
0
0
0
0
0
0
0
0
0
0
0
0
0
0
0
0
0
0
0
0
0
0
0
0
0
0
0
0
0
0
0
0
0
0
0
0
0
0
0
0
0
0
0
0
0
0
0
0
0
0
0
0
0
0
0
0
0
0
0
0
0
0
0
0
0
0
0
0
0
0
0
0
0
0
0
0
0
0
0
0
0
0
0
0
0
0
0
0
0
0
0
0
0
0
0
0
0
0
0
0
0
0
0
0
0
0
0
0
0
0
0
0
0
0
0
0
0
0
0
0
0
0
0
0
0
0
0
0
0
0
0
0
0
0
0
0
0
0
0
0
0
0
0
0
0
0
0
0
0
0
0
0
0
0
0
0
0
0
0
0
0
0
0
0
0
0
0
0
0
0
0
0
0
0
0
0
0
0
0
0
0
0
0
0
0
0
0
0
0
0
0
0
0
0
0
0
0
0
0
0
0
0
0
0
0
0
0
0
0
0
0
0
0
0
0
0
0
0
0
0
0
0
0
0
0
0
0
0
0
0
0
0
0
0
0
0
0
0
0
0
0
0
0
0
0
0
0
0
0
0
0
0
0
0
0
0
0
0
0
0
0
0
0
0
0
0
0
0
0
0
0
0
0
0
0
0
0
0
0
0
0
0
0
0
0
0
0
0
0
0
0
0
0
0
0
0
0
0
0
0
0
0
0
0
0
0
0
0
0
0
0
0
0
0
0
0
0
0
0
0
0
0
0
0
0
0
0
0
0
0
0
0
0
0
0
0
0
0
0
0
0
0
0
0
0
0
0
0
0
0
0
0
0
0
0
0
0
0
0
0
0
0
0
0
0
0
0
0
0
0
0
0
0
0
0
0
0
0
0
0
0
0
0
0
0
0
0
0
0
0
0
0
0
0
0
0
0
0
0
0
0
0
0
0
0
0
0
0
0
0
0
0
0
0
0
0
0
0
0
0
0
0
0
0
0
0
0
0
0
0
0
0
0
0
0
0
0
0
0
0
0
0
0
0
0
0
0
0
0
0
0
0
0
0
0
0
0
0
0
0
0
0
0
0
0
0
0
0
0
0
0
0
0
0
0
0
0
0
0
0
0
0
0
0
0
0
0
0
0
0
0
0
0
0
0
0
0
0
0
0
0
0
0
0
0
0
0
0
0
0
0
0
0
0
0
0
0
0
0
0
0
0
0
0
0
0
0
0
0
0
0
0
0
0
0
0
0
0
0
0
0
0
0
0
0
0
0
0
0
0
0
0
0
0
0
0
0
0
0
0
0
0
0
0
0
0
0
0
0
0
0
0
0
0
0
0
0
0
0
0
0
0
0
0
0
0
0
0
0
0
0
0
0
0
0
0
0
0
0
0
0
0
0
0
0
0
0
0
0
0
0
0
0
0
0
0
0
0
0
0
0
0
0
0
0
0
0
0
0
0
0
0
0
0
0
0
0
0
0
0
0
0
0
0
0
0
0
0
0
0
0
0
0
0
0
0
0
0
0
0
0
0
0
0
0
0
0
0
0
0
0
0
0
0
0
0
0
0
0
0
0
0
0
0
0
0
0
0
1
1
1
1
1
1
1
1
1
1
1
1
1
1
1
1
1
1
1
1
1
1
1
1
1
1
1
1
1
1
2
2
2
2
2
2
2
2
2
2
2
2
2
2
2
2
2
2
2
2
2
2
2
2
2
2
2
2
2
2
3
3
3
3
3
3
3
3
3
3
3
3
3
3
3
3
3
3
3
3
3
3
3
3
3
3
3
3
3
3
4
4
4
4
4
4
4
4
4
4
4
4
4
4
4
4
4
4
4
4
4
4
4
4
4
4
4
4
4
4

LOOKUP_TABLE FreeFempp_table 5
1.00000000 0.00000000 0.00000000 1.00000000
1.00000000 1.00000000 0.00000000 1.00000000
1.00000000 0.00000000 1.00000000 1.00000000
0.00000000 1.00000000 0.00000000 1.00000000
0.00000000 1.00000000 1.00000000 1.00000000

POINT_DATA 961
FIELD FieldData 1
Density 1 961 float
2.67880976e-01 3.52230847e-01 3.96250159e-01 4.04432595e-01 4.00352955e-01 3.88826787e-01 3.45960230e-01 1.73150167e-01 2.18938179e-02 5.42581081e-03 1.39400782e-02 1.18883975e-01 3.01252156e-01 3.75953615e-01 4.65114951e-01 6.77834749e-01 7.86730707e-01 6.99550748e-01 7.00307429e-01 7.68491149e-01 7.61415899e-01 7.42791116e-01 7.28500366e-01 7.14463234e-01 6.98871255e-01 6.81922317e-01 6.65601015e-01 6.51467443e-01 6.43332481e-01 6.34891748e-01 6.16755188e-01 3.38600203e-02 1.42208442e-01 2.23962322e-01 2.36727014e-01 2.33661622e-01 2.25297093e-01 2.00968608e-01 1.19764000e-01 2.07072254e-02 4.36274568e-03 8.95717088e-03 7.83500150e-02 2.63914049e-01 3.35814387e-01 3.92976493e-01 6.25906050e-01 7.45782673e-01 4.57898974e-01 3.78777802e-01 5.83795488e-01 6.44903123e-01 6.57185256e-01 6.77996397e-01 6.91106319e-01 6.90866530e-01 6.82616651e-01 6.70020282e-01 6.55999064e-01 6.45536602e-01 6.37902319e-01 6.24437034e-01 7.83167221e-03 6.64708065e-03 1.08430889e-02 1.09446179e-02 1.07831396e-02 1.05939414e-02 1.00992415e-02 8.24632403e-03 3.24294344e-03 1.15126057e-03 3.99413193e-03 3.54083776e-02 1.63103119e-01 2.21172363e-01 2.59941369e-01 4.54732507e-01 6.65441811e-01 9.77164581e-02 3.45151089e-02 4.02507707e-02 5.45387641e-02 8.63833651e-02 1.58340231e-01 2.53198951e-01 3.42421949e-01 4.38221335e-01 5.14676630e-01 5.42957544e-01 5.51089466e-01 5.55430114e-01 5.70856929e-01 1.34757727e-01 1.92764923e-02 7.15467567e-03 7.05519551e-03 8.34109448e-03 9.22179129e-03 9.75123700e-03 1.01484815e-02 1.04422001e-02 1.12430714e-02 7.35927280e-03 3.70250549e-03 9.23765544e-03 1.28185824e-02 2.27538534e-02 1.62014067e-01 4.43234503e-01 4.38081473e-01 6.81139976e-02 1.11063113e-02 6.01057382e-03 6.23777416e-03 8.91902763e-03 1.25494879e-02 2.02388391e-02 6.11295886e-02 1.99766174e-01 3.51017118e-01 4.13284719e-01 4.41053122e-01 4.82642144e-01 3.12664449e-01 1.62336126e-01 8.30994844e-02 9.20522735e-02 1.29495829e-01 1.61703750e-01 1.82151571e-01 1.98984534e-01 2.13805288e-01 2.18535200e-01 1.54972181e-01 2.23940108e-02 1.24800103e-02 7.39782769e-03 1.39084447e-03 7.12822704e-03 1.74576249e-02 5.56878559e-02 6.38880014e-01 1.04384206e-01 2.39173695e-02 1.76754501e-02 1.19401440e-02 5.52686350e-03 2.77642976e-03 5.59949782e-03 2.61450782e-02 1.22695610e-01 2.60887444e-01 3.28133702e-01 3.87451649e-01 3.40186477e-01 2.32337594e-01 1.49580881e-01 1.43010616e-01 1.92870766e-01 2.49728411e-01 2.85175472e-01 3.09420288e-01 3.29769641e-01 3.44154269e-01 3.38717222e-01 2.61441022e-01 2.26796657e-01 1.69028699e-01 2.47708783e-02 1.34550957e-02 8.56406428e-03 3.61550087e-03 5.32620847e-02 6.37270570e-01 4.44388241e-01 3.89678359e-01 2.70960838e-01 8.79105479e-02 1.96404736e-02 5.18346624e-03 4.12415434e-03 2.08799038e-02 1.05162129e-01 2.13629112e-01 2.80353516e-01 3.77156138e-01 2.89306790e-01 2.30174944e-01 2.17928559e-01 2.49271899e-01 2.95921504e-01 3.28585058e-01 3.49104613e-01 3.64766598e-01 3.77131224e-01 3.83731663e-01 3.81526351e-01 3.87126476e-01 3.86389583e-01 3.03326100e-01 2.55092084e-01 1.84993014e-01 3.28667425e-02 1.25135658e-02 4.92333509e-02 6.64182901e-01 8.12247038e-01 7.94076145e-01 6.81309700e-01 3.35998952e-01 5.70635945e-02 6.60245726e-03 4.06238716e-03 2.80430503e-02 1.37801632e-01 2.19666153e-01 4.48448658e-01 3.81252706e-01 3.45672756e-01 3.42790514e-01 3.56856108e-01 3.82842600e-01 4.04818326e-01 4.19760197e-01 4.30817783e-01 4.39322352e-01 4.44630057e-01 4.46037799e-01 4.46266890e-01 4.45729792e-01 4.40104783e-01 4.40587103e-01 4.27019894e-01 3.23824674e-01 1.77435130e-01 2.18747165e-02 3.57681736e-02 3.30982774e-01 5.56921840e-01 5.97002447e-01 6.26824975e-01 4.74761993e-01 6.44871294e-02 3.99596849e-03 9.48227383e-03 1.03054680e-01 2.22088888e-01 5.60403943e-01 5.26664436e-01 5.07625878e-01 5.03792405e-01 5.03742337e-01 5.07956982e-01 5.12250423e-01 5.15469909e-01 5.17665625e-01 5.18632114e-01 5.17828286e-01 5.15044093e-01 5.11136889e-01 5.06858349e-01 5.02279043e-01 4.98700589e-01 4.93256718e-01 4.78503019e-01 4.36805457e-01 2.28159204e-01 2.19733343e-02 1.16059938e-02 2.22807769e-02 4.87090908e-02 9.34872478e-02 5.65133989e-01 7.21212506e-01 2.30055079e-02 5.93419047e-03 7.24294558e-02 2.51225084e-01 6.72050953e-01 6.82575822e-01 6.75574780e-01 6.65464759e-01 6.52383983e-01 6.38532996e-01 6.25512362e-01 6.14562452e-01 6.05252206e-01 5.96692145e-01 5.88219583e-01 5.79678714e-01 5.71427345e-01 5.63850105e-01 5.57312369e-01 5.52357495e-01 5.48614383e-01 5.45065820e-01 5.38834512e-01 5.01013458e-01 2.87531942e-01 2.56969314e-02 4.60314797e-03 5.40278945e-03 2.43223887e-02 1.27199590e-01 7.49854624e-01 8.29527825e-02 4.30415152e-03 3.31312008e-02 2.18475655e-01 7.14727044e-01 7.51865745e-01 7.51863837e-01 7.41712034e-01 7.28086412e-01 7.11613357e-01 6.94088697e-01 6.77495182e-01 6.62351310e-01 6.48420274e-01 6.35404408e-01 6.23276412e-01 6.12250209e-01 6.02559745e-01 5.94517350e-01 5.88502645e-01 5.84687769e-01 5.83478153e-01 5.85719347e-01 5.89768767e-01 5.74497521e-01 3.82782459e-01 6.23739064e-02 1.21708205e-02 8.75832420e-03 4.28695045e-02 1.71179757e-01 7.19993830e-01 6.18679002e-02 1.35405278e-02 1.15240887e-01 6.59509003e-01 7.06138074e-01 7.15632558e-01 7.15845168e-01 7.14442730e-01 7.08651721e-01 6.99154079e-01 6.87613606e-01 6.75230324e-01 6.62608325e-01 6.50084019e-01 6.38010085e-01 6.26752853e-01 6.16592944e-01 6.07784927e-01 6.00586414e-01 5.95334351e-01 5.92906952e-01 5.95003128e-01 6.03849471e-01 6.20563567e-01 6.34958744e-01 5.34776688e-01 1.98812589e-01 2.29722857e-02 1.00265974e-02 2.09110342e-02 2.25962579e-01 7.39607811e-01 2.23641656e-02 8.65415856e-03 5.19955277e-01 5.33349991e-01 5.52717328e-01 5.77387691e-01 6.06522620e-01 6.30052805e-01 6.44484818e-01 6.50351286e-01 6.49794698e-01 6.44923747e-01 6.37406290e-01 6.28554225e-01 6.19342685e-01 6.10404491e-01 6.02111459e-01 5.94661117e-01 5.88274360e-01 5.83590448e-01 5.81971645e-01 5.85738242e-01 5.98552763e-01 6.27580285e-01 6.78769886e-01 6.68167889e-01 3.31760883e-01 3.77870873e-02 1.62774436e-02 6.22085184e-02 7.02235460e-01 3.40818241e-02 1.25293573e-03 3.75530064e-01 3.38380039e-01 3.45625818e-01 3.82424891e-01 4.35821295e-01 4.94985849e-01 5.46246707e-01 5.81394136e-01 6.00908220e-01 6.08868361e-01 6.09334648e-01 6.05415821e-01 5.99276721e-01 5.92317998e-01 5.85371494e-01 5.78853607e-01 5.72945714e-01 5.67797124e-01 5.63638806e-01 5.60998261e-01 5.61438620e-01 5.69923043e-01 6.02301478e-01 6.74073875e-01 6.94690585e-01 4.32297349e-01 1.19156033e-01 1.20795831e-01 7.16281593e-01 3.25385481e-02 5.50086901e-04 2.65571147e-01 1.98691085e-01 1.89083442e-01 2.22290948e-01 2.80624866e-01 3.58835071e-01 4.40728784e-01 5.05728066e-01 5.47161579e-01 5.69170952e-01 5.78083038e-01 5.78990161e-01 5.75416505e-01 5.69697261e-01 5.63348949e-01 5.57317793e-01 5.52143991e-01 5.48007667e-01 5.44586539e-01 5.40846944e-01 5.35084009e-01 5.26138544e-01 5.18295467e-01 5.30410826e-01 5.74578166e-01 5.86173773e-01 5.07277250e-01 6.15350068e-01 8.38326573e-01 3.69395167e-02 8.72306351e-04 1.87149078e-01 1.15247123e-01 9.91088152e-02 1.23559810e-01 1.76674351e-01 2.60496855e-01 3.60210121e-01 4.46087271e-01 5.03952801e-01 5.36841094e-01 5.52353740e-01 5.56841195e-01 5.54701924e-01 5.48917830e-01 5.41574001e-01 5.34192324e-01 5.27909696e-01 5.23483217e-01 5.21092355e-01 5.19982398e-01 5.17986774e-01 5.11271119e-01 4.96178359e-01 4.78004724e-01 4.77929264e-01 5.20661712e-01 6.26307726e-01 8.28241587e-01 8.52597892e-01 3.58172767e-02 8.01542716e-04 1.25178024e-01 6.48152307e-02 5.14448397e-02 7.12047890e-02 1.20660961e-01 2.06907883e-01 3.16292703e-01 4.12684828e-01 4.78327274e-01 5.16665637e-01 5.35903513e-01 5.42582870e-01 5.41160762e-01 5.34721792e-01 5.25576115e-01 5.15638471e-01 5.06622612e-01 5.00024438e-01 4.96905804e-01 4.97592062e-01 5.01305461e-01 5.05659699e-01 5.06649077e-01 5.03283560e-01 5.09275854e-01 5.61581850e-01 6.98302627e-01 8.57825458e-01 7.89937437e-01 3.05274371e-02 8.66457587e-04 7.55331367e-02 3.55465822e-02 2.76844762e-02 4.51413617e-02 9.67372656e-02 1.91737920e-01 3.08038175e-01 4.05228019e-01 4.69743967e-01 5.07998228e-01 5.28204143e-01 5.36073506e-01 5.35356522e-01 5.28720081e-01 5.18341660e-01 5.06287396e-01 4.94716734e-01 4.85834360e-01 4.81554359e-01 4.83116716e-01 4.90907997e-01 5.04162848e-01 5.20871103e-01 5.40726483e-01 5.73713422e-01 6.44327879e-01 7.67879725e-01 8.51414502e-01 6.56751335e-01 2.50263344e-02 1.14766555e-03 4.04005758e-02 2.03249808e-02 1.72394048e-02 3.49616408e-02 9.58305970e-02 2.08769843e-01 3.28906298e-01 4.17219877e-01 4.73204553e-01 5.07153094e-01 5.26341617e-01 5.34932435e-01 5.35473824e-01 5.29845297e-01 5.19814730e-01 5.07384241e-01 4.94952381e-01 4.85196799e-01 4.80589598e-01 4.82905835e-01 4.93358731e-01 5.12561619e-01 5.40171266e-01 5.77954471e-01 6.34570062e-01 7.20106781e-01 8.09772491e-01 7.94116318e-01 3.92259002e-01 1.82408169e-02 1.43383746e-03 2.01798454e-02 1.26735587e-02 1.33145181e-02 3.57210860e-02 1.17672972e-01 2.53632337e-01 3.67583245e-01 4.38643217e-01 4.82074469e-01 5.09688735e-01 5.26933312e-01 5.36265314e-01 5.38934588e-01 5.35868645e-01 5.28227985e-01 5.17766714e-01 5.06916225e-01 4.98441815e-01 4.94749635e-01 4.97610033e-01 5.09007037e-01 5.31546772e-01 5.67962885e-01 6.21716440e-01 6.94045544e-01 7.72229135e-01 8.00442398e-01 6.18105114e-01 9.82340947e-02 9.14948434e-03 1.77428394e-03 1.08994516e-02 8.93027987e-03 1.30495429e-02 4.76880856e-02 1.66928038e-01 3.16572368e-01 4.09683377e-01 4.59836751e-01 4.90642279e-01 5.11991501e-01 5.27301610e-01 5.37657022e-01 5.43277025e-01 5.44248939e-01 5.41059196e-01 5.35002470e-01 5.28268218e-01 5.23364425e-01 5.22244453e-01 5.26565433e-01 5.39271772e-01 5.64231932e-01 6.07684016e-01 6.74556732e-01 7.48195529e-01 7.87021637e-01 6.98828697e-01 2.85815924e-01 3.03347502e-02 5.04712947e-03 3.16802901e-03 6.56430796e-03 7.00950529e-03 1.59444399e-02 7.73951411e-02 2.42404014e-01 3.80262733e-01 4.43689048e-01 4.75033045e-01 4.95618284e-01 5.11970758e-01 5.25890529e-01 5.37555158e-01 5.46591341e-01 5.52613854e-01 5.55591166e-01 5.56144595e-01 5.55694818e-01 5.56168020e-01 5.59650302e-01 5.69417894e-01 5.89997828e-01 6.22130036e-01 6.68633938e-01 7.29788363e-01 7.66063750e-01 7.01966226e-01 3.92022610e-01 5.60007989e-02 1.05245933e-02 5.04338695e-03 6.04766933e-03 4.20751702e-03 6.01128861e-03 2.29623318e-02 1.34347603e-01 3.27306032e-01 4.29600626e-01 4.65124756e-01 4.82533187e-01 4.95899051e-01 5.08877456e-01 5.22109687e-01 5.35203993e-01 5.47559500e-01 5.58689177e-01 5.68300128e-01 5.76334357e-01 5.83216846e-01 5.90542495e-01 6.01981401e-01 6.23990178e-01 6.61336720e-01 7.02540159e-01 7.25552022e-01 7.01581538e-01 5.98359883e-01 3.62413883e-01 6.91127628e-02 1.52803324e-02 5.94404852e-03 9.05119907e-03 1.56798046e-02 2.87387730e-03 6.27646223e-03 3.80801968e-02 2.15373352e-01 3.99498969e-01 4.59638596e-01 4.74643469e-01 4.82726455e-01 4.91541982e-01 5.02659678e-01 5.15786707e-01 5.30150652e-01 5.45107663e-01 5.60265839e-01 5.75385988e-01 5.90340972e-01 6.05566204e-01 6.23389781e-01 6.48990870e-01 6.87911272e-01 7.37039685e-01 7.69904435e-01 7.23098576e-01 4.79000568e-01 1.12039253e-01 3.52772586e-02 1.34896198e-02 7.44223688e-03 1.05463378e-02 2.70212814e-02 6.98692054e-02 2.19369656e-03 8.06232449e-03 7.25149885e-02 3.04539651e-01 4.48023379e-01 4.72536623e-01 4.74087775e-01 4.76500094e-01 4.82985765e-01 4.93394941e-01 5.06680489e-01 5.21871507e-01 5.38372517e-01 5.55953562e-01 5.74714959e-01 5.95184267e-01 6.18680894e-01 6.47876263e-01 6.86264634e-01 7.33325243e-01 7.81152308e-01 7.99148023e-01 7.13597000e-01 3.21481526e-01 6.10325113e-02 2.02300120e-02 1.63672380e-02 2.57825311e-02 5.01706526e-02 1.35405228e-01 2.66180903e-01 1.86618429e-03 1.04868934e-02 1.32457495e-01 3.84838074e-01 4.72862631e-01 4.71693903e-01 4.65125144e-01 4.64937150e-01 4.70793217e-01 4.81076568e-01 4.94364142e-01 5.09780109e-01 5.26879966e-01 5.45547366e-01 5.66146731e-01 5.89823306e-01 6.18536413e-01 6.54338956e-01 6.97738469e-01 7.45145142e-01 7.87601590e-01 8.09854329e-01 7.57454038e-01 4.91560549e-01 1.56356663e-01 9.94236544e-02 1.47359207e-01 3.25642705e-01 5.24743259e-01 6.20242536e-01 6.21032417e-01 1.66172569e-03 1.24928160e-02 1.98895380e-01 4.40697938e-01 4.77468073e-01 4.59985048e-01 4.49864388e-01 4.49571699e-01 4.55678433e-01 4.65683371e-01 4.78374004e-01 4.93350267e-01 5.10473192e-01 5.29633343e-01 5.50988257e-01 5.75457871e-01 6.04795218e-01 6.40470982e-01 6.81736290e-01 7.24829674e-01 7.63748229e-01 7.90954888e-01 7.91338980e-01 7.31414437e-01 6.28154755e-01 6.48011684e-01 7.46600926e-01 8.08264911e-01 8.25411975e-01 8.14754307e-01 7.66462266e-01 1.48392457e-03 1.39430547e-02 2.54232258e-01 4.68611628e-01 4.66279536e-01 4.40935731e-01 4.31444377e-01 4.32509333e-01 4.38655376e-01 4.47461247e-01 4.58501488e-01 4.72163349e-01 4.88823533e-01 5.08451343e-01 5.30656874e-01 5.55153072e-01 5.82250714e-01 6.12626016e-01 6.46204472e-01 6.81504369e-01 7.16221750e-01 7.47143924e-01 7.68805504e-01 7.74962127e-01 7.74400234e-01 7.96824753e-01 8.21558774e-01 8.23514700e-01 8.08954179e-01 7.89300859e-01 7.46164918e-01 1.19852391e-03 1.49723906e-02 2.97488928e-01 4.73467797e-01 4.45525289e-01 4.20012593e-01 4.13527191e-01 4.15419668e-01 4.20060605e-01 4.26030129e-01 4.33916569e-01 4.44937825e-01 4.60185885e-01 4.80154485e-01 5.04409552e-01 5.31558275e-01 5.59737206e-01 5.87421417e-01 6.13887787e-01 6.39063716e-01 6.62965596e-01 6.84820652e-01 7.01952159e-01 7.09410965e-01 7.06798792e-01 7.03063667e-01 6.97811127e-01 6.88317299e-01 6.81002736e-01 6.80122375e-01 6.65731609e-01 1.37780746e-03 1.69155803e-02 3.48969340e-01 4.82060105e-01 4.41689819e-01 4.19917285e-01 4.14672107e-01 4.14509207e-01 4.15317506e-01 4.16782558e-01 4.20078993e-01 4.26860631e-01 4.38800901e-01 4.57198888e-01 4.82442766e-01 5.13404846e-01 5.47170162e-01 5.79591691e-01 6.06565058e-01 6.25129223e-01 6.33726716e-01 6.32243872e-01 6.22958302e-01 6.09647274e-01 5.95671892e-01 5.83994269e-01 5.75302839e-01 5.69319308e-01 5.66366851e-01 5.72089612e-01 5.82773566e-01 3.73109337e-03 1.73452776e-02 4.17704880e-01 5.38363218e-01 4.81079966e-01 4.62359279e-01 4.56774592e-01 4.54649568e-01 4.53150541e-01 4.52164888e-01 4.52668041e-01 4.56055313e-01 4.63824689e-01 4.77244824e-01 4.96894479e-01 5.22133529e-01 5.50741732e-01 5.79054177e-01 6.02686524e-01 6.17475986e-01 6.20260298e-01 6.09951019e-01 5.89594305e-01 5.66807210e-01 5.50175965e-01 5.43119490e-01 5.42237639e-01 5.41988611e-01 5.39981604e-01 5.40715337e-01 5.49723983e-01 
