# vtk DataFile Version 2.0
results/11_density.vtk, Created by Freefem++ 
ASCII
DATASET UNSTRUCTURED_GRID
POINTS 961 float
0 0 0
0.033333333 0 0
0.066666667 0 0
0.1 0 0
0.13333333 0 0
0.16666667 0 0
0.2 0 0
0.23333333 0 0
0.26666667 0 0
0.3 0 0
0.33333333 0 0
0.36666667 0 0
0.4 0 0
0.43333333 0 0
0.46666667 0 0
0.5 0 0
0.53333333 0 0
0.56666667 0 0
0.6 0 0
0.63333333 0 0
0.66666667 0 0
0.7 0 0
0.73333333 0 0
0.76666667 0 0
0.8 0 0
0.83333333 0 0
0.86666667 0 0
0.9 0 0
0.93333333 0 0
0.96666667 0 0
1 0 0
0 0.033333333 0
0.033333333 0.033333333 0
0.066666667 0.033333333 0
0.1 0.033333333 0
0.13333333 0.033333333 0
0.16666667 0.033333333 0
0.2 0.033333333 0
0.23333333 0.033333333 0
0.26666667 0.033333333 0
0.3 0.033333333 0
0.33333333 0.033333333 0
0.36666667 0.033333333 0
0.4 0.033333333 0
0.43333333 0.033333333 0
0.46666667 0.033333333 0
0.5 0.033333333 0
0.53333333 0.033333333 0
0.56666667 0.033333333 0
0.6 0.033333333 0
0.63333333 0.033333333 0
0.66666667 0.033333333 0
0.7 0.033333333 0
0.73333333 0.033333333 0
0.76666667 0.033333333 0
0.8 0.033333333 0
0.83333333 0.033333333 0
0.86666667 0.033333333 0
0.9 0.033333333 0
0.93333333 0.033333333 0
0.96666667 0.033333333 0
1 0.033333333 0
0 0.066666667 0
0.033333333 0.066666667 0
0.066666667 0.066666667 0
0.1 0.066666667 0
0.13333333 0.066666667 0
0.16666667 0.066666667 0
0.2 0.066666667 0
0.23333333 0.066666667 0
0.26666667 0.066666667 0
0.3 0.066666667 0
0.33333333 0.066666667 0
0.36666667 0.066666667 0
0.4 0.066666667 0
0.43333333 0.066666667 0
0.46666667 0.066666667 0
0.5 0.066666667 0
0.53333333 0.066666667 0
0.56666667 0.066666667 0
0.6 0.066666667 0
0.63333333 0.066666667 0
0.66666667 0.066666667 0
0.7 0.066666667 0
0.73333333 0.066666667 0
0.76666667 0.066666667 0
0.8 0.066666667 0
0.83333333 0.066666667 0
0.86666667 0.066666667 0
0.9 0.066666667 0
0.93333333 0.066666667 0
0.96666667 0.066666667 0
1 0.066666667 0
0 0.1 0
0.033333333 0.1 0
0.066666667 0.1 0
0.1 0.1 0
0.13333333 0.1 0
0.16666667 0.1 0
0.2 0.1 0
0.23333333 0.1 0
0.26666667 0.1 0
0.3 0.1 0
0.33333333 0.1 0
0.36666667 0.1 0
0.4 0.1 0
0.43333333 0.1 0
0.46666667 0.1 0
0.5 0.1 0
0.53333333 0.1 0
0.56666667 0.1 0
0.6 0.1 0
0.63333333 0.1 0
0.66666667 0.1 0
0.7 0.1 0
0.73333333 0.1 0
0.76666667 0.1 0
0.8 0.1 0
0.83333333 0.1 0
0.86666667 0.1 0
0.9 0.1 0
0.93333333 0.1 0
0.96666667 0.1 0
1 0.1 0
0 0.13333333 0
0.033333333 0.13333333 0
0.066666667 0.13333333 0
0.1 0.13333333 0
0.13333333 0.13333333 0
0.16666667 0.13333333 0
0.2 0.13333333 0
0.23333333 0.13333333 0
0.26666667 0.13333333 0
0.3 0.13333333 0
0.33333333 0.13333333 0
0.36666667 0.13333333 0
0.4 0.13333333 0
0.43333333 0.13333333 0
0.46666667 0.13333333 0
0.5 0.13333333 0
0.53333333 0.13333333 0
0.56666667 0.13333333 0
0.6 0.13333333 0
0.63333333 0.13333333 0
0.66666667 0.13333333 0
0.7 0.13333333 0
0.73333333 0.13333333 0
0.76666667 0.13333333 0
0.8 0.13333333 0
0.83333333 0.13333333 0
0.86666667 0.13333333 0
0.9 0.13333333 0
0.93333333 0.13333333 0
0.96666667 0.13333333 0
1 0.13333333 0
0 0.16666667 0
0.033333333 0.16666667 0
0.066666667 0.16666667 0
0.1 0.16666667 0
0.13333333 0.16666667 0
0.16666667 0.16666667 0
0.2 0.16666667 0
0.23333333 0.16666667 0
0.26666667 0.16666667 0
0.3 0.16666667 0
0.33333333 0.16666667 0
0.36666667 0.16666667 0
0.4 0.16666667 0
0.43333333 0.16666667 0
0.46666667 0.16666667 0
0.5 0.16666667 0
0.53333333 0.16666667 0
0.56666667 0.16666667 0
0.6 0.16666667 0
0.63333333 0.16666667 0
0.66666667 0.16666667 0
0.7 0.16666667 0
0.73333333 0.16666667 0
0.76666667 0.16666667 0
0.8 0.16666667 0
0.83333333 0.16666667 0
0.86666667 0.16666667 0
0.9 0.16666667 0
0.93333333 0.16666667 0
0.96666667 0.16666667 0
1 0.16666667 0
0 0.2 0
0.033333333 0.2 0
0.066666667 0.2 0
0.1 0.2 0
0.13333333 0.2 0
0.16666667 0.2 0
0.2 0.2 0
0.23333333 0.2 0
0.26666667 0.2 0
0.3 0.2 0
0.33333333 0.2 0
0.36666667 0.2 0
0.4 0.2 0
0.43333333 0.2 0
0.46666667 0.2 0
0.5 0.2 0
0.53333333 0.2 0
0.56666667 0.2 0
0.6 0.2 0
0.63333333 0.2 0
0.66666667 0.2 0
0.7 0.2 0
0.73333333 0.2 0
0.76666667 0.2 0
0.8 0.2 0
0.83333333 0.2 0
0.86666667 0.2 0
0.9 0.2 0
0.93333333 0.2 0
0.96666667 0.2 0
1 0.2 0
0 0.23333333 0
0.033333333 0.23333333 0
0.066666667 0.23333333 0
0.1 0.23333333 0
0.13333333 0.23333333 0
0.16666667 0.23333333 0
0.2 0.23333333 0
0.23333333 0.23333333 0
0.26666667 0.23333333 0
0.3 0.23333333 0
0.33333333 0.23333333 0
0.36666667 0.23333333 0
0.4 0.23333333 0
0.43333333 0.23333333 0
0.46666667 0.23333333 0
0.5 0.23333333 0
0.53333333 0.23333333 0
0.56666667 0.23333333 0
0.6 0.23333333 0
0.63333333 0.23333333 0
0.66666667 0.23333333 0
0.7 0.23333333 0
0.73333333 0.23333333 0
0.76666667 0.23333333 0
0.8 0.23333333 0
0.83333333 0.23333333 0
0.86666667 0.23333333 0
0.9 0.23333333 0
0.93333333 0.23333333 0
0.96666667 0.23333333 0
1 0.23333333 0
0 0.26666667 0
0.033333333 0.26666667 0
0.066666667 0.26666667 0
0.1 0.26666667 0
0.13333333 0.26666667 0
0.16666667 0.26666667 0
0.2 0.26666667 0
0.23333333 0.26666667 0
0.26666667 0.26666667 0
0.3 0.26666667 0
0.33333333 0.26666667 0
0.36666667 0.26666667 0
0.4 0.26666667 0
0.43333333 0.26666667 0
0.46666667 0.26666667 0
0.5 0.26666667 0
0.53333333 0.26666667 0
0.56666667 0.26666667 0
0.6 0.26666667 0
0.63333333 0.26666667 0
0.66666667 0.26666667 0
0.7 0.26666667 0
0.73333333 0.26666667 0
0.76666667 0.26666667 0
0.8 0.26666667 0
0.83333333 0.26666667 0
0.86666667 0.26666667 0
0.9 0.26666667 0
0.93333333 0.26666667 0
0.96666667 0.26666667 0
1 0.26666667 0
0 0.3 0
0.033333333 0.3 0
0.066666667 0.3 0
0.1 0.3 0
0.13333333 0.3 0
0.16666667 0.3 0
0.2 0.3 0
0.23333333 0.3 0
0.26666667 0.3 0
0.3 0.3 0
0.33333333 0.3 0
0.36666667 0.3 0
0.4 0.3 0
0.43333333 0.3 0
0.46666667 0.3 0
0.5 0.3 0
0.53333333 0.3 0
0.56666667 0.3 0
0.6 0.3 0
0.63333333 0.3 0
0.66666667 0.3 0
0.7 0.3 0
0.73333333 0.3 0
0.76666667 0.3 0
0.8 0.3 0
0.83333333 0.3 0
0.86666667 0.3 0
0.9 0.3 0
0.93333333 0.3 0
0.96666667 0.3 0
1 0.3 0
0 0.33333333 0
0.033333333 0.33333333 0
0.066666667 0.33333333 0
0.1 0.33333333 0
0.13333333 0.33333333 0
0.16666667 0.33333333 0
0.2 0.33333333 0
0.23333333 0.33333333 0
0.26666667 0.33333333 0
0.3 0.33333333 0
0.33333333 0.33333333 0
0.36666667 0.33333333 0
0.4 0.33333333 0
0.43333333 0.33333333 0
0.46666667 0.33333333 0
0.5 0.33333333 0
0.53333333 0.33333333 0
0.56666667 0.33333333 0
0.6 0.33333333 0
0.63333333 0.33333333 0
0.66666667 0.33333333 0
0.7 0.33333333 0
0.73333333 0.33333333 0
0.76666667 0.33333333 0
0.8 0.33333333 0
0.83333333 0.33333333 0
0.86666667 0.33333333 0
0.9 0.33333333 0
0.93333333 0.33333333 0
0.96666667 0.33333333 0
1 0.33333333 0
0 0.36666667 0
0.033333333 0.36666667 0
0.066666667 0.36666667 0
0.1 0.36666667 0
0.13333333 0.36666667 0
0.16666667 0.36666667 0
0.2 0.36666667 0
0.23333333 0.36666667 0
0.26666667 0.36666667 0
0.3 0.36666667 0
0.33333333 0.36666667 0
0.36666667 0.36666667 0
0.4 0.36666667 0
0.43333333 0.36666667 0
0.46666667 0.36666667 0
0.5 0.36666667 0
0.53333333 0.36666667 0
0.56666667 0.36666667 0
0.6 0.36666667 0
0.63333333 0.36666667 0
0.66666667 0.36666667 0
0.7 0.36666667 0
0.73333333 0.36666667 0
0.76666667 0.36666667 0
0.8 0.36666667 0
0.83333333 0.36666667 0
0.86666667 0.36666667 0
0.9 0.36666667 0
0.93333333 0.36666667 0
0.96666667 0.36666667 0
1 0.36666667 0
0 0.4 0
0.033333333 0.4 0
0.066666667 0.4 0
0.1 0.4 0
0.13333333 0.4 0
0.16666667 0.4 0
0.2 0.4 0
0.23333333 0.4 0
0.26666667 0.4 0
0.3 0.4 0
0.33333333 0.4 0
0.36666667 0.4 0
0.4 0.4 0
0.43333333 0.4 0
0.46666667 0.4 0
0.5 0.4 0
0.53333333 0.4 0
0.56666667 0.4 0
0.6 0.4 0
0.63333333 0.4 0
0.66666667 0.4 0
0.7 0.4 0
0.73333333 0.4 0
0.76666667 0.4 0
0.8 0.4 0
0.83333333 0.4 0
0.86666667 0.4 0
0.9 0.4 0
0.93333333 0.4 0
0.96666667 0.4 0
1 0.4 0
0 0.43333333 0
0.033333333 0.43333333 0
0.066666667 0.43333333 0
0.1 0.43333333 0
0.13333333 0.43333333 0
0.16666667 0.43333333 0
0.2 0.43333333 0
0.23333333 0.43333333 0
0.26666667 0.43333333 0
0.3 0.43333333 0
0.33333333 0.43333333 0
0.36666667 0.43333333 0
0.4 0.43333333 0
0.43333333 0.43333333 0
0.46666667 0.43333333 0
0.5 0.43333333 0
0.53333333 0.43333333 0
0.56666667 0.43333333 0
0.6 0.43333333 0
0.63333333 0.43333333 0
0.66666667 0.43333333 0
0.7 0.43333333 0
0.73333333 0.43333333 0
0.76666667 0.43333333 0
0.8 0.43333333 0
0.83333333 0.43333333 0
0.86666667 0.43333333 0
0.9 0.43333333 0
0.93333333 0.43333333 0
0.96666667 0.43333333 0
1 0.43333333 0
0 0.46666667 0
0.033333333 0.46666667 0
0.066666667 0.46666667 0
0.1 0.46666667 0
0.13333333 0.46666667 0
0.16666667 0.46666667 0
0.2 0.46666667 0
0.23333333 0.46666667 0
0.26666667 0.46666667 0
0.3 0.46666667 0
0.33333333 0.46666667 0
0.36666667 0.46666667 0
0.4 0.46666667 0
0.43333333 0.46666667 0
0.46666667 0.46666667 0
0.5 0.46666667 0
0.53333333 0.46666667 0
0.56666667 0.46666667 0
0.6 0.46666667 0
0.63333333 0.46666667 0
0.66666667 0.46666667 0
0.7 0.46666667 0
0.73333333 0.46666667 0
0.76666667 0.46666667 0
0.8 0.46666667 0
0.83333333 0.46666667 0
0.86666667 0.46666667 0
0.9 0.46666667 0
0.93333333 0.46666667 0
0.96666667 0.46666667 0
1 0.46666667 0
0 0.5 0
0.033333333 0.5 0
0.066666667 0.5 0
0.1 0.5 0
0.13333333 0.5 0
0.16666667 0.5 0
0.2 0.5 0
0.23333333 0.5 0
0.26666667 0.5 0
0.3 0.5 0
0.33333333 0.5 0
0.36666667 0.5 0
0.4 0.5 0
0.43333333 0.5 0
0.46666667 0.5 0
0.5 0.5 0
0.53333333 0.5 0
0.56666667 0.5 0
0.6 0.5 0
0.63333333 0.5 0
0.66666667 0.5 0
0.7 0.5 0
0.73333333 0.5 0
0.76666667 0.5 0
0.8 0.5 0
0.83333333 0.5 0
0.86666667 0.5 0
0.9 0.5 0
0.93333333 0.5 0
0.96666667 0.5 0
1 0.5 0
0 0.53333333 0
0.033333333 0.53333333 0
0.066666667 0.53333333 0
0.1 0.53333333 0
0.13333333 0.53333333 0
0.16666667 0.53333333 0
0.2 0.53333333 0
0.23333333 0.53333333 0
0.26666667 0.53333333 0
0.3 0.53333333 0
0.33333333 0.53333333 0
0.36666667 0.53333333 0
0.4 0.53333333 0
0.43333333 0.53333333 0
0.46666667 0.53333333 0
0.5 0.53333333 0
0.53333333 0.53333333 0
0.56666667 0.53333333 0
0.6 0.53333333 0
0.63333333 0.53333333 0
0.66666667 0.53333333 0
0.7 0.53333333 0
0.73333333 0.53333333 0
0.76666667 0.53333333 0
0.8 0.53333333 0
[...]
CELL_DATA 1920
Scalars  Label int 1
LOOKUP_TABLE FreeFempp_table
0
0
0
0
0
0
0
0
0
0
0
0
0
0
0
0
0
0
0
0
0
0
0
0
0
0
0
0
0
0
0
0
0
0
0
0
0
0
0
0
0
0
0
0
0
0
0
0
0
0
0
0
0
0
0
0
0
0
0
0
0
0
0
0
0
0
0
0
0
0
0
0
0
0
0
0
0
0
0
0
0
0
0
0
0
0
0
0
0
0
0
0
0
0
0
0
0
0
0
0
0
0
0
0
0
0
0
0
0
0
0
0
0
0
0
0
0
0
0
0
0
0
0
0
0
0
0
0
0
0
0
0
0
0
0
0
0
0
0
0
0
0
0
0
0
0
0
0
0
0
0
0
0
0
0
0
0
0
0
0
0
0
0
0
0
0
0
0
0
0
0
0
0
0
0
0
0
0
0
0
0
0
0
0
0
0
0
0
0
0
0
0
0
0
0
0
0
0
0
0
0
0
0
0
0
0
0
0
0
0
0
0
0
0
0
0
0
0
0
0
0
0
0
0
0
0
0
0
0
0
0
0
0
0
0
0
0
0
0
0
0
0
0
0
0
0
0
0
0
0
0
0
0
0
0
0
0
0
0
0
0
0
0
0
0
0
0
0
0
0
0
0
0
0
0
0
0
0
0
0
0
0
0
0
0
0
0
0
0
0
0
0
0
0
0
0
0
0
0
0
0
0
0
0
0
0
0
0
0
0
0
0
0
0
0
0
0
0
0
0
0
0
0
0
0
0
0
0
0
0
0
0
0
0
0
0
0
0
0
0
0
0
0
0
0
0
0
0
0
0
0
0
0
0
0
0
0
0
0
0
0
0
0
0
0
0
0
0
0
0
0
0
0
0
0
0
0
0
0
0
0
0
0
0
0
0
0
0
0
0
0
0
0
0
0
0
0
0
0
0
0
0
0
0
0
0
0
0
0
0
0
0
0
0
0
0
0
0
0
0
0
0
0
0
0
0
0
0
0
0
0
0
0
0
0
0
0
0
0
0
0
0
0
0
0
0
0
0
0
0
0
0
0
0
0
0
0
0
0
0
0
0
0
0
0
0
0
0
0
0
0
0
0
0
0
0
0
0
0
0
0
0
0
0
0
0
0
0
0
0
0
0
0
0
0
0
0
0
0
0
0
0
0
0
0
0
0
0
0
0
0
0
0
0
0
0
0
0
0
0
0
0
0
0
0
0
0
0
0
0
0
0
0
0
0
0
0
0
0
0
0
0
0
0
0
0
0
0
0
0
0
0
0
0
0
0
0
0
0
0
0
0
0
0
0
0
0
0
0
0
0
0
0
0
0
0
0
0
0
0
0
0
0
0
0
0
0
0
0
0
0
0
0
0
0
0
0
0
0
0
0
0
0
0
0
0
0
0
0
0
0
0
0
0
0
0
0
0
0
0
0
0
0
0
0
0
0
0
0
0
0
0
0
0
0
0
0
0
0
0
0
0
0
0
0
0
0
0
0
0
0
0
0
0
0
0
0
0
0
0
0
0
0
0
0
0
0
0
0
0
0
0
0
0
0
0
0
0
0
0
0
0
0
0
0
0
0
0
0
0
0
0
0
0
0
0
0
0
0
0
0
0
0
0
0
0
0
0
0
0
0
0
0
0
0
0
0
0
0
0
0
0
0
0
0
0
0
0
0
0
0
0
0
0
0
0
0
0
0
0
0
0
0
0
0
0
0
0
0
0
0
0
0
0
0
0
0
0
0
0
0
0
0
0
0
0
0
0
0
0
0
0
0
0
0
0
0
0
0
0
0
0
0
0
0
0
0
0
0
0
0
0
0
0
0
0
0
0
0
0
0
0
0
0
0
0
0
0
0
0
0
0
0
0
0
0
0
0
0
0
0
0
0
0
0
0
0
0
0
0
0
0
0
0
0
0
0
0
0
0
0
0
0
0
0
0
0
0
0
0
0
0
0
0
0
0
0
0
0
0
0
0
0
0
0
0
0
0
0
0
0
0
0
0
0
0
0
0
0
0
0
0
0
0
0
0
0
0
0
0
0
0
0
0
0
0
0
0
0
0
0
0
0
0
0
0
0
0
0
0
0
0
0
0
0
0
0
0
0
0
0
0
0
0
0
0
0
0
0
0
0
0
0
0
0
0
0
0
0
0
0
0
0
0
0
0
0
0
0
0
0
0
0
0
0
0
0
0
0
0
0
0
0
0
0
0
0
0
0
0
0
0
0
0
0
0
0
0
0
0
0
0
0
0
0
0
0
0
0
0
0
0
0
0
0
0
0
0
0
0
0
0
0
0
0
0
0
0
0
0
0
0
0
0
0
0
0
0
0
0
0
0
0
0
0
0
0
0
0
0
0
0
0
0
0
0
0
0
0
0
0
0
0
0
0
0
0
0
0
0
0
0
0
0
0
0
0
0
0
0
0
0
0
0
0
0
0
0
0
0
0
0
0
0
0
0
0
0
0
0
0
0
0
0
0
0
0
0
0
0
0
0
0
0
0
0
0
0
0
0
0
0
0
0
0
0
0
0
0
0
0
0
0
0
0
0
0
0
0
0
0
0
0
0
0
0
0
0
0
0
0
0
0
0
0
0
0
0
0
0
0
0
0
0
0
0
0
0
0
0
0
0
0
0
0
0
0
0
0
0
0
0
0
0
0
0
0
0
0
0
0
0
0
0
0
0
0
0
0
0
0
0
0
0
0
0
0
0
0
0
0
0
0
0
0
0
0
0
0
0
0
0
0
0
0
0
0
0
0
0
0
0
0
0
0
0
0
0
0
0
0
0
0
0
0
0
0
0
0
0
0
0
0
0
0
0
0
0
0
0
0
0
0
0
0
0
0
0
0
0
0
0
0
0
0
0
0
0
0
0
0
0
0
0
0
0
0
0
0
0
0
0
0
0
0
0
0
0
0
0
0
0
0
0
0
0
0
0
0
0
0
0
0
0
0
0
0
0
0
0
0
0
0
0
0
0
0
0
0
0
0
0
0
0
0
0
0
0
0
0
0
0
0
0
0
0
0
0
0
0
0
0
0
0
0
0
0
0
0
0
0
0
0
0
0
0
0
0
0
0
0
0
0
0
0
0
0
0
0
0
0
0
0
0
0
0
0
0
0
0
0
0
0
0
0
0
0
0
0
0
0
0
0
0
0
0
0
0
0
0
0
0
0
0
0
0
0
0
0
0
0
0
0
0
0
0
0
0
0
0
0
0
0
0
0
0
0
0
0
0
0
0
0
0
0
0
0
0
0
0
0
0
0
0
0
0
0
0
0
0
0
0
0
0
0
0
0
0
0
0
0
0
0
0
0
0
0
0
0
0
0
0
0
0
0
0
0
0
0
0
0
0
0
0
0
0
0
0
0
0
0
0
0
0
0
0
0
0
0
0
0
0
0
0
0
0
0
0
0
0
0
0
0
0
0
0
0
0
0
0
0
0
0
0
0
0
0
0
0
0
0
0
0
0
0
0
0
0
0
0
0
0
0
0
0
0
0
0
0
0
0
0
0
0
0
0
0
0
0
0
0
0
0
0
0
0
0
0
0
0
0
0
0
0
0
0
0
0
0
0
0
0
0
0
0
0
0
0
0
0
0
0
0
0
0
0
0
0
0
0
0
0
0
0
0
0
0
0
0
0
0
0
0
0
0
0
0
0
0
0
0
0
0
0
0
0
0
0
0
0
0
0
0
0
0
0
0
0
0
0
0
0
0
0
0
0
0
0
0
0
0
0
0
0
0
0
0
0
0
0
0
0
0
0
0
0
0
0
0
0
0
0
0
0
0
0
0
0
0
0
0
0
0
0
0
0
0
0
0
0
0
0
0
0
0
0
0
0
0
0
0
0
0
0
0
0
0
0
0
0
0
0
0
0
0
0
0
0
0
0
0
0
0
0
0
0
0
0
0
0
0
0
0
0
0
0
0
0
0
0
0
0
0
0
0
0
0
0
0
0
0
0
0
0
0
0
0
0
0
0
0
0
0
0
0
0
0
0
0
0
0
0
0
0
0
0
0
0
0
0
0
0
0
0
0
0
0
0
0
0
0
0
0
0
0
0
0
0
0
0
0
0
0
0
0
0
0
0
0
0
1
1
1
1
1
1
1
1
1
1
1
1
1
1
1
1
1
1
1
1
1
1
1
1
1
1
1
1
1
1
2
2
2
2
2
2
2
2
2
2
2
2
2
2
2
2
2
2
2
2
2
2
2
2
2
2
2
2
2
2
3
3
3
3
3
3
3
3
3
3
3
3
3
3
3
3
3
3
3
3
3
3
3
3
3
3
3
3
3
3
4
4
4
4
4
4
4
4
4
4
4
4
4
4
4
4
4
4
4
4
4
4
4
4
4
4
4
4
4
4

LOOKUP_TABLE FreeFempp_table 5
1.00000000 0.00000000 0.00000000 1.00000000
1.00000000 1.00000000 0.00000000 1.00000000
1.00000000 0.00000000 1.00000000 1.00000000
0.00000000 1.00000000 0.00000000 1.00000000
0.00000000 1.00000000 1.00000000 1.00000000

POINT_DATA 961
FIELD FieldData 1
Density 1 961 float
5.94501615e-01 5.63570619e-01 5.57910681e-01 5.54913342e-01 5.52737296e-01 5.50165653e-01 5.43714046e-01 4.59342331e-01 1.28843278e-01 7.13519659e-03 9.64684878e-03 1.74006194e-01 4.64930534e-01 4.94502544e-01 5.68351448e-01 4.08114254e-01 2.61622578e-01 4.50146407e-01 8.04623842e-01 8.29890311e-01 8.63275468e-01 8.05311739e-01 7.45961070e-01 7.02387750e-01 6.80529058e-01 6.68104649e-01 6.57621264e-01 6.48441494e-01 6.41234338e-01 6.32350922e-01 6.16050541e-01 4.24335152e-01 4.08546507e-01 4.01428223e-01 3.98216903e-01 3.95813644e-01 3.92998755e-01 3.85058016e-01 3.36215645e-01 1.37296692e-01 8.96547828e-03 3.63439089e-03 8.46679807e-02 4.33691323e-01 4.50565398e-01 3.75980735e-01 5.48411012e-01 8.38964283e-02 2.24068202e-02 4.24829349e-02 7.96017870e-02 5.38652122e-01 6.84528232e-01 7.10905731e-01 7.33716667e-01 7.03550518e-01 6.87686801e-01 6.75768077e-01 6.64930940e-01 6.54786885e-01 6.44800365e-01 6.27017260e-01 9.90565773e-03 1.31993638e-02 1.27635822e-02 1.27779022e-02 1.27989249e-02 1.28270751e-02 1.27900671e-02 1.23087950e-02 8.24815128e-03 6.33516931e-04 -5.95725374e-04 1.71776563e-02 2.98765630e-01 3.51612628e-01 1.68634191e-01 2.30215952e-01 8.40920806e-01 9.82291847e-02 9.61326528e-03 -1.15858088e-03 9.88115650e-03 2.14793943e-02 4.38025407e-02 4.38771367e-01 6.27260089e-01 6.27880871e-01 6.23285711e-01 6.16323709e-01 6.05842113e-01 5.97712100e-01 6.00232422e-01 2.40967348e-02 2.14375928e-02 2.04705186e-02 1.99202541e-02 1.91212725e-02 1.81888882e-02 1.72102768e-02 1.63237005e-02 1.56828966e-02 1.56889446e-02 1.79987866e-02 1.12398015e-02 9.49529558e-03 1.42014595e-02 8.85499921e-03 1.82609297e-02 3.96405727e-01 8.62088323e-01 2.88522005e-01 6.59681782e-02 3.98732685e-02 3.74511145e-02 1.98737532e-02 2.50586960e-02 3.57697755e-01 5.45857787e-01 5.45141160e-01 5.36213934e-01 5.18277109e-01 5.08840144e-01 5.38679302e-01 6.96522474e-01 7.37039447e-01 7.31911004e-01 7.16197371e-01 6.93661869e-01 6.64633870e-01 6.30487323e-01 5.94814837e-01 5.62796295e-01 5.38793385e-01 5.21205008e-01 4.14708346e-01 4.27898392e-02 1.95996128e-02 1.88550726e-02 1.11897970e-02 7.69636547e-03 3.24091986e-02 6.69814125e-02 8.00757170e-01 8.37279022e-01 8.17714870e-01 7.60733843e-01 5.86381108e-02 2.49713305e-02 3.61652136e-01 4.97696906e-01 4.65980172e-01 4.23505992e-01 4.01117146e-01 4.55173731e-01 8.17942739e-01 8.85733426e-01 8.89171839e-01 8.88390660e-01 8.87812614e-01 8.85673404e-01 8.80869746e-01 8.72695744e-01 8.60479176e-01 8.44295144e-01 8.25692952e-01 8.07106793e-01 7.29209423e-01 6.71518147e-01 6.22519553e-01 4.77024585e-01 4.52109203e-02 2.10115053e-02 9.98901762e-03 2.39109024e-02 4.55445722e-02 4.83638048e-02 1.12312734e-01 6.70507193e-01 6.11595325e-02 2.54672635e-02 3.28771651e-01 4.05460238e-01 3.23583990e-01 2.80943394e-01 3.41414005e-01 7.65804946e-01 8.40948761e-01 8.46768856e-01 8.52378607e-01 8.60954940e-01 8.68401110e-01 8.74987543e-01 8.81941080e-01 8.88674021e-01 8.91769886e-01 8.88438225e-01 8.79682720e-01 8.69871318e-01 8.66624117e-01 8.46640944e-01 8.19547653e-01 7.26234972e-01 6.35991156e-01 4.73694801e-01 4.66518663e-02 1.15693975e-02 -3.47851368e-04 3.63069307e-03 6.80996999e-02 8.10653508e-01 7.71101341e-02 2.21382976e-02 1.98926941e-01 1.81887403e-01 1.53555855e-01 1.96869731e-01 6.61906600e-01 7.20706999e-01 7.22265959e-01 7.12051749e-01 6.91523969e-01 6.58198357e-01 6.29106820e-01 6.33253515e-01 6.88280284e-01 7.66959906e-01 8.23373199e-01 8.49948466e-01 8.59452784e-01 8.60827744e-01 8.54270756e-01 8.42085123e-01 8.30093920e-01 8.21870148e-01 7.92464018e-01 6.77365363e-01 4.72375780e-01 4.99193743e-02 1.76422782e-02 2.89327535e-03 1.05123892e-01 8.42958689e-01 2.55939271e-02 9.93271824e-03 2.45743152e-02 4.13603410e-02 6.49508685e-02 5.68418443e-01 5.67952931e-01 5.27333140e-01 4.39875722e-01 3.22904348e-01 2.18185782e-01 1.61396861e-01 1.54079065e-01 2.09852532e-01 3.67293805e-01 5.61407447e-01 6.94675624e-01 7.65771508e-01 8.02152872e-01 8.17770422e-01 8.20588291e-01 8.16163838e-01 8.08423877e-01 7.96324313e-01 7.85753250e-01 7.75687993e-01 6.53721392e-01 3.60450089e-01 1.90924630e-02 4.09986451e-02 7.65632868e-01 3.85681614e-02 -3.90004367e-04 2.12013093e-03 4.53349343e-03 8.33166018e-03 5.28090477e-01 4.59434301e-01 3.23842824e-01 1.75742343e-01 8.54126215e-02 4.99420948e-02 4.09363359e-02 5.09727821e-02 8.87153521e-02 1.84209779e-01 3.57172221e-01 5.20756483e-01 6.30109370e-01 7.02763796e-01 7.49039292e-01 7.74157763e-01 7.83802450e-01 7.82062590e-01 7.72986889e-01 7.63458908e-01 7.55929768e-01 7.46367991e-01 6.46190345e-01 6.43255487e-02 5.51149547e-02 8.91920269e-01 4.16202582e-02 4.23403777e-04 5.82231022e-03 3.93696548e-03 3.59857478e-03 5.24093270e-01 3.87654930e-01 1.50115788e-01 4.99235913e-02 2.38897894e-02 1.85518116e-02 2.50051226e-02 4.77775186e-02 1.01720661e-01 2.03096181e-01 3.39267194e-01 4.62061971e-01 5.52257121e-01 6.24619842e-01 6.84347928e-01 7.27988899e-01 7.53970623e-01 7.63010681e-01 7.57903874e-01 7.43975341e-01 7.25215137e-01 7.02709436e-01 6.49107993e-01 2.46475413e-01 1.02571301e-01 9.01173949e-01 4.56701852e-02 3.51030473e-03 3.88881527e-02 2.74541341e-02 1.81539785e-02 5.07690012e-01 3.09766769e-01 4.87796851e-02 1.48568321e-02 1.00178430e-02 1.56244254e-02 3.85503434e-02 1.01263613e-01 2.15615079e-01 3.26611012e-01 4.04915214e-01 4.70436513e-01 5.35585999e-01 5.99116087e-01 6.57017827e-01 7.05796719e-01 7.41782784e-01 7.61603296e-01 7.64143050e-01 7.51040161e-01 7.25257695e-01 6.91171408e-01 6.57421231e-01 5.64738333e-01 5.09374321e-01 9.12962556e-01 4.33363840e-02 5.45314420e-03 8.28484669e-02 7.93857723e-02 7.34071210e-02 4.27043676e-01 1.71290517e-01 1.89501103e-02 5.91445854e-03 9.43076331e-03 3.09391022e-02 1.07489400e-01 2.52859861e-01 3.70526493e-01 4.31877166e-01 4.64030743e-01 4.98374909e-01 5.48995137e-01 6.07710481e-01 6.62616789e-01 7.10076869e-01 7.49197602e-01 7.76248991e-01 7.86469579e-01 7.77517974e-01 7.51792371e-01 7.21006751e-01 7.11971939e-01 7.45662034e-01 8.42251182e-01 9.17087734e-01 3.99091318e-02 7.12490035e-03 1.20231181e-01 1.27414763e-01 1.37549639e-01 3.36707592e-01 4.65319306e-02 6.80664228e-03 4.28627525e-03 1.92314293e-02 9.34756249e-02 2.68814117e-01 3.98374736e-01 4.58869755e-01 4.87858415e-01 5.07397056e-01 5.33218265e-01 5.74458659e-01 6.26416266e-01 6.78600967e-01 7.26083755e-01 7.68081486e-01 8.01295519e-01 8.19169521e-01 8.16602349e-01 7.94569492e-01 7.67489135e-01 7.70879686e-01 8.21577489e-01 8.87898564e-01 8.70367169e-01 3.38422395e-02 9.04724561e-03 1.60922945e-01 1.77931115e-01 2.04963192e-01 3.23243052e-01 2.49003600e-02 2.68778298e-03 8.33885372e-03 5.36203459e-02 2.47668013e-01 4.07205790e-01 4.70299184e-01 5.00404179e-01 5.23616195e-01 5.42702854e-01 5.64053237e-01 5.95484555e-01 6.37671292e-01 6.86385155e-01 7.37870574e-01 7.88191199e-01 8.30369055e-01 8.55950356e-01 8.59819710e-01 8.41983974e-01 8.11883628e-01 8.01589489e-01 8.31649423e-01 8.51093471e-01 7.42238462e-01 2.75337920e-02 1.14697842e-02 2.07124323e-01 2.31413946e-01 2.70869702e-01 3.26900750e-01 2.08332203e-02 2.12778314e-03 2.00642589e-02 1.73368335e-01 3.91752720e-01 4.75668937e-01 5.03510296e-01 5.28019130e-01 5.49115419e-01 5.64462423e-01 5.78783035e-01 5.98652482e-01 6.28574908e-01 6.72392488e-01 7.32013166e-01 7.99228370e-01 8.55806589e-01 8.88608396e-01 8.96446586e-01 8.81456554e-01 8.44703197e-01 7.96174586e-01 7.50989616e-01 6.50519371e-01 4.23308432e-01 2.05828585e-02 1.36890002e-02 2.39157811e-01 2.75079012e-01 3.19897026e-01 3.30332547e-01 1.90547537e-02 4.77668270e-03 5.43480888e-02 3.29248220e-01 4.74072874e-01 5.06284177e-01 5.26570499e-01 5.47254026e-01 5.61402738e-01 5.68488121e-01 5.71624577e-01 5.75565398e-01 5.87302148e-01 6.20562017e-01 6.90851390e-01 7.87333608e-01 8.68172526e-01 9.10973370e-01 9.23303306e-01 9.12247956e-01 8.71872306e-01 7.69942045e-01 5.39119244e-01 2.23575860e-01 6.50149509e-02 9.77687072e-03 1.24211079e-02 1.97417423e-01 2.89575338e-01 3.45889837e-01 3.14667106e-01 1.82362795e-02 1.12119336e-02 1.99009091e-01 4.41774637e-01 5.12213290e-01 5.25997519e-01 5.43429315e-01 5.55944264e-01 5.59960067e-01 5.55248678e-01 5.42630374e-01 5.24111509e-01 5.06782293e-01 5.14815331e-01 5.90003788e-01 7.29241252e-01 8.48333716e-01 9.12779927e-01 9.41681802e-01 9.42839324e-01 9.12114143e-01 7.98085928e-01 4.20170128e-01 7.67610371e-02 1.61007233e-02 8.20351392e-03 1.29790073e-02 8.70557576e-02 2.76102960e-01 3.68026435e-01 1.86947003e-01 1.51177039e-02 1.45020634e-02 3.48818749e-01 5.08732438e-01 5.29125214e-01 5.40903687e-01 5.52102804e-01 5.54621696e-01 5.47318220e-01 5.29103339e-01 4.98499632e-01 4.54037666e-01 4.00083035e-01 3.64869207e-01 4.06377316e-01 5.33825397e-01 6.41812980e-01 7.37482131e-01 9.02631402e-01 9.66662288e-01 9.59569991e-01 9.02984440e-01 6.25064552e-01 1.26835287e-01 1.99521575e-02 2.11449675e-02 3.67223695e-02 9.10762101e-02 3.20586145e-01 4.43333715e-01 1.85041800e-02 4.61897580e-03 1.53847011e-02 3.93452942e-01 5.34591913e-01 5.40512204e-01 5.50727308e-01 5.53481638e-01 5.46126723e-01 5.28111994e-01 4.97839242e-01 4.52532053e-01 3.88543189e-01 3.07653248e-01 2.34870180e-01 2.15289772e-01 2.27722645e-01 1.24402791e-01 5.32775633e-02 1.64064676e-01 8.67755890e-01 9.74838257e-01 9.65593576e-01 8.97755802e-01 5.77419758e-01 1.55258790e-01 8.68123025e-02 1.43165588e-01 1.76582500e-01 4.26538825e-01 5.89448154e-01 3.16718197e-03 9.05968715e-04 1.87771525e-02 4.09242958e-01 5.48802793e-01 5.51610470e-01 5.55987179e-01 5.49820721e-01 5.33747375e-01 5.07486820e-01 4.69766140e-01 4.18107331e-01 3.49267721e-01 2.64187157e-01 1.81734040e-01 1.39508471e-01 1.46903500e-01 9.80408266e-02 1.37263546e-02 7.08014797e-03 6.03966750e-02 7.65404403e-01 9.52725768e-01 9.54583168e-01 9.15526927e-01 7.92467177e-01 5.95414758e-01 6.14910960e-01 5.74378729e-01 7.11387157e-01 7.92861283e-01 1.82223856e-04 4.65608295e-03 3.98876183e-02 4.32339162e-01 5.62986732e-01 5.59300303e-01 5.55950463e-01 5.42137206e-01 5.19777656e-01 4.89074528e-01 4.49545652e-01 3.99835557e-01 3.38107169e-01 2.64675975e-01 1.89618692e-01 1.39600754e-01 1.45900980e-01 2.06477299e-01 1.57444194e-01 3.37779671e-02 1.01338290e-02 3.80040184e-02 4.56285864e-01 8.26436818e-01 8.93559873e-01 8.99658918e-01 8.91497254e-01 9.24214125e-01 9.66660619e-01 9.81076419e-01 9.66910720e-01 -1.48319697e-04 1.48781575e-02 2.61093974e-01 5.20782173e-01 5.74845016e-01 5.61422467e-01 5.50834239e-01 5.31725526e-01 5.06165028e-01 4.74764407e-01 4.37757850e-01 3.94806623e-01 3.45228702e-01 2.89155602e-01 2.30883047e-01 1.84833005e-01 1.79428503e-01 2.61903763e-01 4.38021988e-01 4.45658892e-01 1.36463046e-01 1.81025881e-02 2.17760727e-02 1.88564599e-01 5.35409689e-01 7.14435279e-01 7.76596904e-01 8.23757350e-01 9.00832474e-01 9.52021301e-01 9.53967571e-01 -1.01276739e-04 1.77128017e-02 4.12135929e-01 5.77683151e-01 5.75472534e-01 5.60516238e-01 5.44100702e-01 5.21616101e-01 4.95190501e-01 4.65553492e-01 4.33260828e-01 3.98533404e-01 3.61391038e-01 3.22229505e-01 2.83520997e-01 2.53496617e-01 2.51692951e-01 3.14074159e-01 4.71188247e-01 6.28316760e-01 5.75252652e-01 2.34107181e-01 2.16678530e-02 1.26394667e-02 7.88204968e-02 3.97941172e-01 6.52501345e-01 7.00347364e-01 6.31013274e-01 6.22323334e-01 7.17269659e-01 -7.44109930e-05 1.82305146e-02 4.41738993e-01 5.86911023e-01 5.74952126e-01 5.60031772e-01 5.38765788e-01 5.14313638e-01 4.88529265e-01 4.61941481e-01 4.35019881e-01 4.08147097e-01 3.81715238e-01 3.56471777e-01 3.34558666e-01 3.21709365e-01 3.30313027e-01 3.79905492e-01 4.81410742e-01 5.97990215e-01 6.51765466e-01 5.70045829e-01 2.64925927e-01 2.27100011e-02 7.46695977e-03 4.38783541e-02 4.33320075e-01 7.33039260e-01 6.65134430e-01 4.06114966e-01 4.03430372e-01 -2.07648525e-04 1.85860898e-02 4.56751198e-01 5.93614280e-01 5.74897468e-01 5.56727946e-01 5.33530951e-01 5.09764731e-01 4.86516148e-01 4.64028418e-01 4.42578882e-01 4.22571868e-01 4.04600769e-01 3.89637589e-01 3.79602671e-01 3.78404737e-01 3.92822027e-01 4.31026816e-01 4.94989157e-01 5.69380939e-01 6.23427689e-01 6.26911879e-01 5.41938543e-01 2.69073725e-01 2.32593548e-02 5.62089821e-03 3.58441845e-02 4.59064573e-01 7.52089620e-01 5.60680151e-01 4.20039445e-01 -4.08686581e-04 1.89043228e-02 4.73686129e-01 5.99576354e-01 5.70292652e-01 5.49193859e-01 5.27796328e-01 5.07954240e-01 4.89433378e-01 4.72087651e-01 4.56057578e-01 4.41774637e-01 4.29945350e-01 4.21602488e-01 4.18299139e-01 4.22353536e-01 4.36658680e-01 4.63399619e-01 5.01949310e-01 5.47423840e-01 5.89561939e-01 6.10982358e-01 5.88969409e-01 4.86433417e-01 2.27338135e-01 2.18145046e-02 6.20688964e-03 3.27270217e-02 4.41233903e-01 7.12735593e-01 6.08479083e-01 -4.52680571e-04 2.00140830e-02 4.94601041e-01 6.00894332e-01 5.60143411e-01 5.39285600e-01 5.23349166e-01 5.10255218e-01 4.98268753e-01 4.86815125e-01 4.75928694e-01 4.66038913e-01 4.57873374e-01 4.52418625e-01 4.50899541e-01 4.54677284e-01 4.64829713e-01 4.81363595e-01 5.03007770e-01 5.28465927e-01 5.56475163e-01 5.80624044e-01 5.80820262e-01 5.14948666e-01 3.36480409e-01 1.19267650e-01 2.26864256e-02 7.59483175e-03 3.22298817e-02 4.73584682e-01 7.11193979e-01 -8.77713610e-04 2.05328222e-02 5.19157231e-01 5.94344914e-01 5.45145750e-01 5.30184031e-01 5.23108602e-01 5.18539846e-01 5.13952553e-01 5.08488953e-01 5.01951516e-01 4.94551361e-01 4.86865968e-01 4.79852080e-01 4.74829942e-01 4.73363668e-01 4.76898849e-01 4.86015946e-01 4.99744058e-01 5.16167700e-01 5.34088969e-01 5.52443564e-01 5.62991977e-01 5.33128262e-01 3.97480041e-01 1.91527963e-01 8.63805190e-02 6.50013834e-02 3.00914291e-02 7.02326447e-02 6.12792492e-01 -1.17605610e-03 2.27612406e-02 5.69975853e-01 5.94931722e-01 5.39492607e-01 5.32924235e-01 5.34088194e-01 5.36733687e-01 5.38499236e-01 5.38269460e-01 5.35313129e-01 5.29223859e-01 5.20053685e-01 5.08544981e-01 4.96378630e-01 4.86280143e-01 4.81692553e-01 4.85615373e-01 4.98602539e-01 5.17430425e-01 5.36552310e-01 5.51238656e-01 5.58251321e-01 5.51816761e-01 5.16300559e-01 4.34753031e-01 3.55039030e-01 4.01000202e-01 6.09932184e-01 1.25048339e-01 5.28674483e-01 4.28503891e-03 2.43828036e-02 6.40845656e-01 6.35637581e-01 5.57304263e-01 5.55389643e-01 5.57333529e-01 5.60919225e-01 5.64205766e-01 5.66044629e-01 5.65546453e-01 5.62050760e-01 5.55230618e-01 5.45329690e-01 5.33500493e-01 5.22106171e-01 5.14650345e-01 5.14818728e-01 5.24376988e-01 5.41012108e-01 5.58565557e-01 5.70064008e-01 5.70290565e-01 5.57369471e-01 5.38730800e-01 5.34527898e-01 5.63026488e-01 6.14341557e-01 6.79118514e-01 3.56202066e-01 2.87366122e-01 
