# vtk DataFile Version 2.0
results/12_density.vtk, Created by Freefem++ 
ASCII
DATASET UNSTRUCTURED_GRID
POINTS 961 float
0 0 0
0.033333333 0 0
0.066666667 0 0
0.1 0 0
0.13333333 0 0
0.16666667 0 0
0.2 0 0
0.23333333 0 0
0.26666667 0 0
0.3 0 0
0.33333333 0 0
0.36666667 0 0
0.4 0 0
0.43333333 0 0
0.46666667 0 0
0.5 0 0
0.53333333 0 0
0.56666667 0 0
0.6 0 0
0.63333333 0 0
0.66666667 0 0
0.7 0 0
0.73333333 0 0
0.76666667 0 0
0.8 0 0
0.83333333 0 0
0.86666667 0 0
0.9 0 0
0.93333333 0 0
0.96666667 0 0
1 0 0
0 0.033333333 0
0.033333333 0.033333333 0
0.066666667 0.033333333 0
0.1 0.033333333 0
0.13333333 0.033333333 0
0.16666667 0.033333333 0
0.2 0.033333333 0
0.23333333 0.033333333 0
0.26666667 0.033333333 0
0.3 0.033333333 0
0.33333333 0.033333333 0
0.36666667 0.033333333 0
0.4 0.033333333 0
0.43333333 0.033333333 0
0.46666667 0.033333333 0
0.5 0.033333333 0
0.53333333 0.033333333 0
0.56666667 0.033333333 0
0.6 0.033333333 0
0.63333333 0.033333333 0
0.66666667 0.033333333 0
0.7 0.033333333 0
0.73333333 0.033333333 0
0.76666667 0.033333333 0
0.8 0.033333333 0
0.83333333 0.033333333 0
0.86666667 0.033333333 0
0.9 0.033333333 0
0.93333333 0.033333333 0
0.96666667 0.033333333 0
1 0.033333333 0
0 0.066666667 0
0.033333333 0.066666667 0
0.066666667 0.066666667 0
0.1 0.066666667 0
0.13333333 0.066666667 0
0.16666667 0.066666667 0
0.2 0.066666667 0
0.23333333 0.066666667 0
0.26666667 0.066666667 0
0.3 0.066666667 0
0.33333333 0.066666667 0
0.36666667 0.066666667 0
0.4 0.066666667 0
0.43333333 0.066666667 0
0.46666667 0.066666667 0
0.5 0.066666667 0
0.53333333 0.066666667 0
0.56666667 0.066666667 0
0.6 0.066666667 0
0.63333333 0.066666667 0
0.66666667 0.066666667 0
0.7 0.066666667 0
0.73333333 0.066666667 0
0.76666667 0.066666667 0
0.8 0.066666667 0
0.83333333 0.066666667 0
0.86666667 0.066666667 0
0.9 0.066666667 0
0.93333333 0.066666667 0
0.96666667 0.066666667 0
1 0.066666667 0
0 0.1 0
0.033333333 0.1 0
0.066666667 0.1 0
0.1 0.1 0
0.13333333 0.1 0
0.16666667 0.1 0
0.2 0.1 0
0.23333333 0.1 0
0.26666667 0.1 0
0.3 0.1 0
0.33333333 0.1 0
0.36666667 0.1 0
0.4 0.1 0
0.43333333 0.1 0
0.46666667 0.1 0
0.5 0.1 0
0.53333333 0.1 0
0.56666667 0.1 0
0.6 0.1 0
0.63333333 0.1 0
0.66666667 0.1 0
0.7 0.1 0
0.73333333 0.1 0
0.76666667 0.1 0
0.8 0.1 0
0.83333333 0.1 0
0.86666667 0.1 0
0.9 0.1 0
0.93333333 0.1 0
0.96666667 0.1 0
1 0.1 0
0 0.13333333 0
0.033333333 0.13333333 0
0.066666667 0.13333333 0
0.1 0.13333333 0
0.13333333 0.13333333 0
0.16666667 0.13333333 0
0.2 0.13333333 0
0.23333333 0.13333333 0
0.26666667 0.13333333 0
0.3 0.13333333 0
0.33333333 0.13333333 0
0.36666667 0.13333333 0
0.4 0.13333333 0
0.43333333 0.13333333 0
0.46666667 0.13333333 0
0.5 0.13333333 0
0.53333333 0.13333333 0
0.56666667 0.13333333 0
0.6 0.13333333 0
0.63333333 0.13333333 0
0.66666667 0.13333333 0
0.7 0.13333333 0
0.73333333 0.13333333 0
0.76666667 0.13333333 0
0.8 0.13333333 0
0.83333333 0.13333333 0
0.86666667 0.13333333 0
0.9 0.13333333 0
0.93333333 0.13333333 0
0.96666667 0.13333333 0
1 0.13333333 0
0 0.16666667 0
0.033333333 0.16666667 0
0.066666667 0.16666667 0
0.1 0.16666667 0
0.13333333 0.16666667 0
0.16666667 0.16666667 0
0.2 0.16666667 0
0.23333333 0.16666667 0
0.26666667 0.16666667 0
0.3 0.16666667 0
0.33333333 0.16666667 0
0.36666667 0.16666667 0
0.4 0.16666667 0
0.43333333 0.16666667 0
0.46666667 0.16666667 0
0.5 0.16666667 0
0.53333333 0.16666667 0
0.56666667 0.16666667 0
0.6 0.16666667 0
0.63333333 0.16666667 0
0.66666667 0.16666667 0
0.7 0.16666667 0
0.73333333 0.16666667 0
0.76666667 0.16666667 0
0.8 0.16666667 0
0.83333333 0.16666667 0
0.86666667 0.16666667 0
0.9 0.16666667 0
0.93333333 0.16666667 0
0.96666667 0.16666667 0
1 0.16666667 0
0 0.2 0
0.033333333 0.2 0
0.066666667 0.2 0
0.1 0.2 0
0.13333333 0.2 0
0.16666667 0.2 0
0.2 0.2 0
0.23333333 0.2 0
0.26666667 0.2 0
0.3 0.2 0
0.33333333 0.2 0
0.36666667 0.2 0
0.4 0.2 0
0.43333333 0.2 0
0.46666667 0.2 0
0.5 0.2 0
0.53333333 0.2 0
0.56666667 0.2 0
0.6 0.2 0
0.63333333 0.2 0
0.66666667 0.2 0
0.7 0.2 0
0.73333333 0.2 0
0.76666667 0.2 0
0.8 0.2 0
0.83333333 0.2 0
0.86666667 0.2 0
0.9 0.2 0
0.93333333 0.2 0
0.96666667 0.2 0
1 0.2 0
0 0.23333333 0
0.033333333 0.23333333 0
0.066666667 0.23333333 0
0.1 0.23333333 0
0.13333333 0.23333333 0
0.16666667 0.23333333 0
0.2 0.23333333 0
0.23333333 0.23333333 0
0.26666667 0.23333333 0
0.3 0.23333333 0
0.33333333 0.23333333 0
0.36666667 0.23333333 0
0.4 0.23333333 0
0.43333333 0.23333333 0
0.46666667 0.23333333 0
0.5 0.23333333 0
0.53333333 0.23333333 0
0.56666667 0.23333333 0
0.6 0.23333333 0
0.63333333 0.23333333 0
0.66666667 0.23333333 0
0.7 0.23333333 0
0.73333333 0.23333333 0
0.76666667 0.23333333 0
0.8 0.23333333 0
0.83333333 0.23333333 0
0.86666667 0.23333333 0
0.9 0.23333333 0
0.93333333 0.23333333 0
0.96666667 0.23333333 0
1 0.23333333 0
0 0.26666667 0
0.033333333 0.26666667 0
0.066666667 0.26666667 0
0.1 0.26666667 0
0.13333333 0.26666667 0
0.16666667 0.26666667 0
0.2 0.26666667 0
0.23333333 0.26666667 0
0.26666667 0.26666667 0
0.3 0.26666667 0
0.33333333 0.26666667 0
0.36666667 0.26666667 0
0.4 0.26666667 0
0.43333333 0.26666667 0
0.46666667 0.26666667 0
0.5 0.26666667 0
0.53333333 0.26666667 0
0.56666667 0.26666667 0
0.6 0.26666667 0
0.63333333 0.26666667 0
0.66666667 0.26666667 0
0.7 0.26666667 0
0.73333333 0.26666667 0
0.76666667 0.26666667 0
0.8 0.26666667 0
0.83333333 0.26666667 0
0.86666667 0.26666667 0
0.9 0.26666667 0
0.93333333 0.26666667 0
0.96666667 0.26666667 0
1 0.26666667 0
0 0.3 0
0.033333333 0.3 0
0.066666667 0.3 0
0.1 0.3 0
0.13333333 0.3 0
0.16666667 0.3 0
0.2 0.3 0
0.23333333 0.3 0
0.26666667 0.3 0
0.3 0.3 0
0.33333333 0.3 0
0.36666667 0.3 0
0.4 0.3 0
0.43333333 0.3 0
0.46666667 0.3 0
0.5 0.3 0
0.53333333 0.3 0
0.56666667 0.3 0
0.6 0.3 0
0.63333333 0.3 0
0.66666667 0.3 0
0.7 0.3 0
0.73333333 0.3 0
0.76666667 0.3 0
0.8 0.3 0
0.83333333 0.3 0
0.86666667 0.3 0
0.9 0.3 0
0.93333333 0.3 0
0.96666667 0.3 0
1 0.3 0
0 0.33333333 0
0.033333333 0.33333333 0
0.066666667 0.33333333 0
0.1 0.33333333 0
0.13333333 0.33333333 0
0.16666667 0.33333333 0
0.2 0.33333333 0
0.23333333 0.33333333 0
0.26666667 0.33333333 0
0.3 0.33333333 0
0.33333333 0.33333333 0
0.36666667 0.33333333 0
0.4 0.33333333 0
0.43333333 0.33333333 0
0.46666667 0.33333333 0
0.5 0.33333333 0
0.53333333 0.33333333 0
0.56666667 0.33333333 0
0.6 0.33333333 0
0.63333333 0.33333333 0
0.66666667 0.33333333 0
0.7 0.33333333 0
0.73333333 0.33333333 0
0.76666667 0.33333333 0
0.8 0.33333333 0
0.83333333 0.33333333 0
0.86666667 0.33333333 0
0.9 0.33333333 0
0.93333333 0.33333333 0
0.96666667 0.33333333 0
1 0.33333333 0
0 0.36666667 0
0.033333333 0.36666667 0
0.066666667 0.36666667 0
0.1 0.36666667 0
0.13333333 0.36666667 0
0.16666667 0.36666667 0
0.2 0.36666667 0
0.23333333 0.36666667 0
0.26666667 0.36666667 0
0.3 0.36666667 0
0.33333333 0.36666667 0
0.36666667 0.36666667 0
0.4 0.36666667 0
0.43333333 0.36666667 0
0.46666667 0.36666667 0
0.5 0.36666667 0
0.53333333 0.36666667 0
0.56666667 0.36666667 0
0.6 0.36666667 0
0.63333333 0.36666667 0
0.66666667 0.36666667 0
0.7 0.36666667 0
0.73333333 0.36666667 0
0.76666667 0.36666667 0
0.8 0.36666667 0
0.83333333 0.36666667 0
0.86666667 0.36666667 0
0.9 0.36666667 0
0.93333333 0.36666667 0
0.96666667 0.36666667 0
1 0.36666667 0
0 0.4 0
0.033333333 0.4 0
0.066666667 0.4 0
0.1 0.4 0
0.13333333 0.4 0
0.16666667 0.4 0
0.2 0.4 0
0.23333333 0.4 0
0.26666667 0.4 0
0.3 0.4 0
0.33333333 0.4 0
0.36666667 0.4 0
0.4 0.4 0
0.43333333 0.4 0
0.46666667 0.4 0
0.5 0.4 0
0.53333333 0.4 0
0.56666667 0.4 0
0.6 0.4 0
0.63333333 0.4 0
0.66666667 0.4 0
0.7 0.4 0
0.73333333 0.4 0
0.76666667 0.4 0
0.8 0.4 0
0.83333333 0.4 0
0.86666667 0.4 0
0.9 0.4 0
0.93333333 0.4 0
0.96666667 0.4 0
1 0.4 0
0 0.43333333 0
0.033333333 0.43333333 0
0.066666667 0.43333333 0
0.1 0.43333333 0
0.13333333 0.43333333 0
0.16666667 0.43333333 0
0.2 0.43333333 0
0.23333333 0.43333333 0
0.26666667 0.43333333 0
0.3 0.43333333 0
0.33333333 0.43333333 0
0.36666667 0.43333333 0
0.4 0.43333333 0
0.43333333 0.43333333 0
0.46666667 0.43333333 0
0.5 0.43333333 0
0.53333333 0.43333333 0
0.56666667 0.43333333 0
0.6 0.43333333 0
0.63333333 0.43333333 0
0.66666667 0.43333333 0
0.7 0.43333333 0
0.73333333 0.43333333 0
0.76666667 0.43333333 0
0.8 0.43333333 0
0.83333333 0.43333333 0
0.86666667 0.43333333 0
0.9 0.43333333 0
0.93333333 0.43333333 0
0.96666667 0.43333333 0
1 0.43333333 0
0 0.46666667 0
0.033333333 0.46666667 0
0.066666667 0.46666667 0
0.1 0.46666667 0
0.13333333 0.46666667 0
0.16666667 0.46666667 0
0.2 0.46666667 0
0.23333333 0.46666667 0
0.26666667 0.46666667 0
0.3 0.46666667 0
0.33333333 0.46666667 0
0.36666667 0.46666667 0
0.4 0.46666667 0
0.43333333 0.46666667 0
0.46666667 0.46666667 0
0.5 0.46666667 0
0.53333333 0.46666667 0
0.56666667 0.46666667 0
0.6 0.46666667 0
0.63333333 0.46666667 0
0.66666667 0.46666667 0
0.7 0.46666667 0
0.73333333 0.46666667 0
0.76666667 0.46666667 0
0.8 0.46666667 0
0.83333333 0.46666667 0
0.86666667 0.46666667 0
0.9 0.46666667 0
0.93333333 0.46666667 0
0.96666667 0.46666667 0
1 0.46666667 0
0 0.5 0
0.033333333 0.5 0
0.066666667 0.5 0
0.1 0.5 0
0.13333333 0.5 0
0.16666667 0.5 0
0.2 0.5 0
0.23333333 0.5 0
0.26666667 0.5 0
0.3 0.5 0
0.33333333 0.5 0
0.36666667 0.5 0
0.4 0.5 0
0.43333333 0.5 0
0.46666667 0.5 0
0.5 0.5 0
0.53333333 0.5 0
0.56666667 0.5 0
0.6 0.5 0
0.63333333 0.5 0
0.66666667 0.5 0
0.7 0.5 0
0.73333333 0.5 0
0.76666667 0.5 0
0.8 0.5 0
0.83333333 0.5 0
0.86666667 0.5 0
0.9 0.5 0
0.93333333 0.5 0
0.96666667 0.5 0
1 0.5 0
0 0.53333333 0
0.033333333 0.53333333 0
0.066666667 0.53333333 0
0.1 0.53333333 0
0.13333333 0.53333333 0
0.16666667 0.53333333 0
0.2 0.53333333 0
0.23333333 0.53333333 0
0.26666667 0.53333333 0
0.3 0.53333333 0
0.33333333 0.53333333 0
0.36666667 0.53333333 0
0.4 0.53333333 0
0.43333333 0.53333333 0
0.46666667 0.53333333 0
0.5 0.53333333 0
0.53333333 0.53333333 0
0.56666667 0.53333333 0
0.6 0.53333333 0
0.63333333 0.53333333 0
0.66666667 0.53333333 0
0.7 0.53333333 0
0.73333333 0.53333333 0
0.76666667 0.53333333 0
0.8 0.53333333 0
[...]
CELL_DATA 1920
Scalars  Label int 1
LOOKUP_TABLE FreeFempp_table
0
0
0
0
0
0
0
0
0
0
0
0
0
0
0
0
0
0
0
0
0
0
0
0
0
0
0
0
0
0
0
0
0
0
0
0
0
0
0
0
0
0
0
0
0
0
0
0
0
0
0
0
0
0
0
0
0
0
0
0
0
0
0
0
0
0
0
0
0
0
0
0
0
0
0
0
0
0
0
0
0
0
0
0
0
0
0
0
0
0
0
0
0
0
0
0
0
0
0
0
0
0
0
0
0
0
0
0
0
0
0
0
0
0
0
0
0
0
0
0
0
0
0
0
0
0
0
0
0
0
0
0
0
0
0
0
0
0
0
0
0
0
0
0
0
0
0
0
0
0
0
0
0
0
0
0
0
0
0
0
0
0
0
0
0
0
0
0
0
0
0
0
0
0
0
0
0
0
0
0
0
0
0
0
0
0
0
0
0
0
0
0
0
0
0
0
0
0
0
0
0
0
0
0
0
0
0
0
0
0
0
0
0
0
0
0
0
0
0
0
0
0
0
0
0
0
0
0
0
0
0
0
0
0
0
0
0
0
0
0
0
0
0
0
0
0
0
0
0
0
0
0
0
0
0
0
0
0
0
0
0
0
0
0
0
0
0
0
0
0
0
0
0
0
0
0
0
0
0
0
0
0
0
0
0
0
0
0
0
0
0
0
0
0
0
0
0
0
0
0
0
0
0
0
0
0
0
0
0
0
0
0
0
0
0
0
0
0
0
0
0
0
0
0
0
0
0
0
0
0
0
0
0
0
0
0
0
0
0
0
0
0
0
0
0
0
0
0
0
0
0
0
0
0
0
0
0
0
0
0
0
0
0
0
0
0
0
0
0
0
0
0
0
0
0
0
0
0
0
0
0
0
0
0
0
0
0
0
0
0
0
0
0
0
0
0
0
0
0
0
0
0
0
0
0
0
0
0
0
0
0
0
0
0
0
0
0
0
0
0
0
0
0
0
0
0
0
0
0
0
0
0
0
0
0
0
0
0
0
0
0
0
0
0
0
0
0
0
0
0
0
0
0
0
0
0
0
0
0
0
0
0
0
0
0
0
0
0
0
0
0
0
0
0
0
0
0
0
0
0
0
0
0
0
0
0
0
0
0
0
0
0
0
0
0
0
0
0
0
0
0
0
0
0
0
0
0
0
0
0
0
0
0
0
0
0
0
0
0
0
0
0
0
0
0
0
0
0
0
0
0
0
0
0
0
0
0
0
0
0
0
0
0
0
0
0
0
0
0
0
0
0
0
0
0
0
0
0
0
0
0
0
0
0
0
0
0
0
0
0
0
0
0
0
0
0
0
0
0
0
0
0
0
0
0
0
0
0
0
0
0
0
0
0
0
0
0
0
0
0
0
0
0
0
0
0
0
0
0
0
0
0
0
0
0
0
0
0
0
0
0
0
0
0
0
0
0
0
0
0
0
0
0
0
0
0
0
0
0
0
0
0
0
0
0
0
0
0
0
0
0
0
0
0
0
0
0
0
0
0
0
0
0
0
0
0
0
0
0
0
0
0
0
0
0
0
0
0
0
0
0
0
0
0
0
0
0
0
0
0
0
0
0
0
0
0
0
0
0
0
0
0
0
0
0
0
0
0
0
0
0
0
0
0
0
0
0
0
0
0
0
0
0
0
0
0
0
0
0
0
0
0
0
0
0
0
0
0
0
0
0
0
0
0
0
0
0
0
0
0
0
0
0
0
0
0
0
0
0
0
0
0
0
0
0
0
0
0
0
0
0
0
0
0
0
0
0
0
0
0
0
0
0
0
0
0
0
0
0
0
0
0
0
0
0
0
0
0
0
0
0
0
0
0
0
0
0
0
0
0
0
0
0
0
0
0
0
0
0
0
0
0
0
0
0
0
0
0
0
0
0
0
0
0
0
0
0
0
0
0
0
0
0
0
0
0
0
0
0
0
0
0
0
0
0
0
0
0
0
0
0
0
0
0
0
0
0
0
0
0
0
0
0
0
0
0
0
0
0
0
0
0
0
0
0
0
0
0
0
0
0
0
0
0
0
0
0
0
0
0
0
0
0
0
0
0
0
0
0
0
0
0
0
0
0
0
0
0
0
0
0
0
0
0
0
0
0
0
0
0
0
0
0
0
0
0
0
0
0
0
0
0
0
0
0
0
0
0
0
0
0
0
0
0
0
0
0
0
0
0
0
0
0
0
0
0
0
0
0
0
0
0
0
0
0
0
0
0
0
0
0
0
0
0
0
0
0
0
0
0
0
0
0
0
0
0
0
0
0
0
0
0
0
0
0
0
0
0
0
0
0
0
0
0
0
0
0
0
0
0
0
0
0
0
0
0
0
0
0
0
0
0
0
0
0
0
0
0
0
0
0
0
0
0
0
0
0
0
0
0
0
0
0
0
0
0
0
0
0
0
0
0
0
0
0
0
0
0
0
0
0
0
0
0
0
0
0
0
0
0
0
0
0
0
0
0
0
0
0
0
0
0
0
0
0
0
0
0
0
0
0
0
0
0
0
0
0
0
0
0
0
0
0
0
0
0
0
0
0
0
0
0
0
0
0
0
0
0
0
0
0
0
0
0
0
0
0
0
0
0
0
0
0
0
0
0
0
0
0
0
0
0
0
0
0
0
0
0
0
0
0
0
0
0
0
0
0
0
0
0
0
0
0
0
0
0
0
0
0
0
0
0
0
0
0
0
0
0
0
0
0
0
0
0
0
0
0
0
0
0
0
0
0
0
0
0
0
0
0
0
0
0
0
0
0
0
0
0
0
0
0
0
0
0
0
0
0
0
0
0
0
0
0
0
0
0
0
0
0
0
0
0
0
0
0
0
0
0
0
0
0
0
0
0
0
0
0
0
0
0
0
0
0
0
0
0
0
0
0
0
0
0
0
0
0
0
0
0
0
0
0
0
0
0
0
0
0
0
0
0
0
0
0
0
0
0
0
0
0
0
0
0
0
0
0
0
0
0
0
0
0
0
0
0
0
0
0
0
0
0
0
0
0
0
0
0
0
0
0
0
0
0
0
0
0
0
0
0
0
0
0
0
0
0
0
0
0
0
0
0
0
0
0
0
0
0
0
0
0
0
0
0
0
0
0
0
0
0
0
0
0
0
0
0
0
0
0
0
0
0
0
0
0
0
0
0
0
0
0
0
0
0
0
0
0
0
0
0
0
0
0
0
0
0
0
0
0
0
0
0
0
0
0
0
0
0
0
0
0
0
0
0
0
0
0
0
0
0
0
0
0
0
0
0
0
0
0
0
0
0
0
0
0
0
0
0
0
0
0
0
0
0
0
0
0
0
0
0
0
0
0
0
0
0
0
0
0
0
0
0
0
0
0
0
0
0
0
0
0
0
0
0
0
0
0
0
0
0
0
0
0
0
0
0
0
0
0
0
0
0
0
0
0
0
0
0
0
0
0
0
0
0
0
0
0
0
0
0
0
0
0
0
0
0
0
0
0
0
0
0
0
0
0
0
0
0
0
0
0
0
0
0
0
0
0
0
0
0
0
0
0
0
0
0
0
0
0
0
0
0
0
0
0
0
0
0
0
0
0
0
0
0
0
0
0
0
0
0
0
0
0
0
0
0
0
0
0
0
0
0
0
0
0
0
0
0
0
0
0
0
0
0
0
0
0
0
0
0
0
0
0
0
0
0
0
0
0
0
0
0
0
0
0
0
0
0
0
0
0
0
0
0
0
0
0
0
0
0
0
0
0
0
0
0
0
0
0
0
0
0
0
0
0
0
0
0
0
0
0
0
0
0
0
0
0
0
0
0
0
0
0
0
0
0
0
0
0
0
0
0
0
0
0
0
0
0
0
0
0
0
0
0
0
0
0
0
0
0
0
0
0
0
0
0
0
0
0
0
0
0
0
0
0
0
0
0
0
0
0
0
0
0
0
0
0
0
0
0
0
0
0
0
0
0
0
0
0
0
0
0
0
0
0
0
0
0
0
0
0
0
0
0
0
0
0
0
0
0
0
0
0
0
0
0
0
0
0
0
0
0
0
0
0
0
0
0
0
0
0
0
0
0
0
0
0
0
0
0
0
0
0
0
0
0
0
0
0
0
0
0
1
1
1
1
1
1
1
1
1
1
1
1
1
1
1
1
1
1
1
1
1
1
1
1
1
1
1
1
1
1
2
2
2
2
2
2
2
2
2
2
2
2
2
2
2
2
2
2
2
2
2
2
2
2
2
2
2
2
2
2
3
3
3
3
3
3
3
3
3
3
3
3
3
3
3
3
3
3
3
3
3
3
3
3
3
3
3
3
3
3
4
4
4
4
4
4
4
4
4
4
4
4
4
4
4
4
4
4
4
4
4
4
4
4
4
4
4
4
4
4

LOOKUP_TABLE FreeFempp_table 5
1.00000000 0.00000000 0.00000000 1.00000000
1.00000000 1.00000000 0.00000000 1.00000000
1.00000000 0.00000000 1.00000000 1.00000000
0.00000000 1.00000000 0.00000000 1.00000000
0.00000000 1.00000000 1.00000000 1.00000000

POINT_DATA 961
FIELD FieldData 1
Density 1 961 float
4.85891998e-01 4.67740536e-01 4.66376483e-01 4.66359824e-01 4.66366053e-01 4.66379941e-01 4.66486603e-01 4.69614595e-01 4.34009939e-01 2.08687991e-01 2.78769843e-02 6.86370432e-02 3.46959382e-01 4.47493076e-01 2.69248813e-01 2.21378297e-01 5.50165832e-01 5.76137304e-01 5.90804636e-01 5.68933189e-01 5.57796001e-01 5.49540043e-01 5.23814201e-01 5.07333457e-01 4.96585727e-01 4.89486277e-01 4.84071761e-01 4.80178028e-01 4.77193654e-01 4.78332549e-01 4.86641228e-01 4.00654495e-01 3.87762696e-01 3.85106206e-01 3.85229528e-01 3.85248810e-01 3.85270298e-01 3.85292113e-01 3.85013223e-01 3.65200669e-01 2.08731353e-01 3.35710160e-02 3.44693400e-02 2.52534807e-01 3.49037945e-01 4.97655571e-01 1.79965138e-01 1.20352067e-01 1.70904890e-01 4.17456806e-01 4.90274042e-01 4.90971982e-01 4.90300119e-01 4.96775746e-01 5.12498915e-01 4.93030816e-01 4.81532097e-01 4.73601103e-01 4.67838347e-01 4.63866711e-01 4.64555413e-01 4.77236062e-01 4.54587862e-02 5.15491664e-02 4.95795347e-02 4.97647338e-02 4.96990532e-02 4.96487245e-02 4.96108979e-02 4.95870449e-02 4.91380170e-02 3.08693964e-02 3.40577215e-03 -2.82217370e-04 5.88215180e-02 2.45415717e-01 4.82687354e-01 6.15803123e-01 2.25206912e-01 6.38709962e-02 4.74266596e-02 7.10249692e-02 6.73953667e-02 6.97194412e-02 1.15224212e-01 4.09969300e-01 4.78819251e-01 4.70484763e-01 4.64324534e-01 4.59851593e-01 4.56521899e-01 4.58129913e-01 4.72257882e-01 5.73783778e-02 4.26638946e-02 4.18843254e-02 4.29254435e-02 4.38757241e-02 4.49427553e-02 4.60394844e-02 4.70946990e-02 4.80523892e-02 4.87854294e-02 5.08799069e-02 5.91040291e-02 4.18196805e-02 2.14004051e-02 6.33770153e-02 1.89837530e-01 6.33943379e-01 4.59670871e-01 1.59710437e-01 7.06287324e-02 8.55513886e-02 9.58173499e-02 6.13252819e-02 8.55104402e-02 3.80393475e-01 4.54701543e-01 4.53999221e-01 4.52407837e-01 4.50950891e-01 4.54123318e-01 4.70309138e-01 3.75523925e-01 3.34448189e-01 3.28988254e-01 3.34522069e-01 3.41432482e-01 3.48937780e-01 3.56589854e-01 3.63881469e-01 3.70367795e-01 3.75703722e-01 3.79635692e-01 3.84045333e-01 3.57205391e-01 9.82958749e-02 5.77811450e-02 3.50354537e-02 8.16654190e-02 1.72602877e-01 5.90272367e-01 4.95752811e-01 5.69764674e-01 5.83321512e-01 5.11712074e-01 1.35637432e-01 8.27740878e-02 3.67080063e-01 4.43307906e-01 4.45607513e-01 4.46079105e-01 4.50813532e-01 4.68504488e-01 4.43088710e-01 4.10325199e-01 3.99949968e-01 4.05234516e-01 4.12437856e-01 4.20132488e-01 4.27783251e-01 4.34872955e-01 4.41007912e-01 4.45949256e-01 4.49558794e-01 4.51652616e-01 4.53852266e-01 4.12494183e-01 3.90881658e-01 3.49661887e-01 1.02881521e-01 3.73909287e-02 1.42179668e-01 5.33478677e-01 5.45616329e-01 4.92161036e-01 2.54263192e-01 5.07774174e-01 1.44818202e-01 8.10657144e-02 3.63212705e-01 4.41074014e-01 4.44006562e-01 4.50277776e-01 4.68909770e-01 4.74371642e-01 4.52280164e-01 4.45447743e-01 4.48352098e-01 4.52159613e-01 4.56366658e-01 4.60460097e-01 4.64100569e-01 4.67150509e-01 4.69594359e-01 4.71421570e-01 4.72497463e-01 4.72585410e-01 4.71794277e-01 4.75714475e-01 4.73947167e-01 4.27198201e-01 3.61942738e-01 8.86833146e-02 6.00993000e-02 8.99600312e-02 8.63057002e-02 5.10177948e-02 1.75173625e-01 5.88984251e-01 1.64701417e-01 8.09034929e-02 3.69047225e-01 4.50006247e-01 4.59413290e-01 4.73136842e-01 5.03364265e-01 4.96851742e-01 4.94676381e-01 4.95346069e-01 4.95708734e-01 4.96367157e-01 4.97082680e-01 4.97719705e-01 4.98277575e-01 4.98807728e-01 4.99261409e-01 4.99478012e-01 4.99396861e-01 4.99417871e-01 5.00250876e-01 5.00484645e-01 4.99444306e-01 4.99792010e-01 4.15262222e-01 1.21101573e-01 5.51879480e-02 5.58235636e-03 1.83364116e-02 3.67889814e-02 2.36675099e-01 6.20597601e-01 8.49570110e-02 8.25229585e-02 3.45827907e-01 4.13664252e-01 4.39930022e-01 5.21036029e-01 5.26632309e-01 5.26240945e-01 5.25158525e-01 5.23438632e-01 5.21747053e-01 5.20223856e-01 5.18916190e-01 5.17823875e-01 5.16964197e-01 5.16283333e-01 5.15640974e-01 5.15134215e-01 5.15270174e-01 5.16499281e-01 5.18667698e-01 5.21604717e-01 5.25711417e-01 5.34904361e-01 5.12068152e-01 4.70728487e-01 1.70233130e-01 1.14427015e-01 7.85657689e-02 1.54756993e-01 5.69487214e-01 1.30704999e-01 4.28170851e-03 4.46129739e-02 8.10217559e-02 1.10553272e-01 5.18816888e-01 5.29219866e-01 5.29985905e-01 5.28513491e-01 5.26547492e-01 5.24364889e-01 5.22299826e-01 5.20427227e-01 5.18681586e-01 5.17040253e-01 5.15426934e-01 5.13821959e-01 5.12410581e-01 5.11651397e-01 5.11864722e-01 5.12931705e-01 5.14663577e-01 5.17225504e-01 5.23535728e-01 5.38532734e-01 5.70007741e-01 5.46082377e-01 5.20759702e-01 3.75172853e-01 2.77929395e-01 6.58859789e-01 1.28801227e-01 8.34043324e-03 6.42090617e-03 4.07555792e-03 9.33348294e-03 4.95071977e-01 5.00191629e-01 5.02669454e-01 5.03039181e-01 5.03111124e-01 5.02731323e-01 5.02300024e-01 5.01727581e-01 5.00809431e-01 4.99415725e-01 4.97512937e-01 4.95228112e-01 4.92864370e-01 4.90869462e-01 4.89548504e-01 4.88909364e-01 4.88856316e-01 4.89301354e-01 4.90749806e-01 4.94115025e-01 4.99570012e-01 5.04466116e-01 5.09566605e-01 4.64944661e-01 4.51471120e-01 6.96333408e-01 1.26790881e-01 4.70976252e-03 2.76839770e-02 6.09051846e-02 6.84356019e-02 4.56149578e-01 4.44936752e-01 4.47739005e-01 4.53019768e-01 4.58306223e-01 4.63024884e-01 4.67178643e-01 4.70308065e-01 4.72029328e-01 4.72233653e-01 4.71031159e-01 4.68753427e-01 4.65912849e-01 4.63104039e-01 4.60841537e-01 4.59519833e-01 4.59505886e-01 4.61027890e-01 4.64017957e-01 4.67765629e-01 4.70634699e-01 4.72596854e-01 4.80504513e-01 5.08615911e-01 5.96116006e-01 6.92590952e-01 1.14133671e-01 7.32960645e-03 9.28355977e-02 3.02315593e-01 4.11729634e-01 4.12464559e-01 3.75617951e-01 3.72357994e-01 3.85180980e-01 4.00909632e-01 4.15872872e-01 4.28445399e-01 4.37744409e-01 4.43587631e-01 4.46383297e-01 4.46606100e-01 4.44884628e-01 4.41990793e-01 4.38747287e-01 4.35975820e-01 4.34551001e-01 4.35424507e-01 4.39327717e-01 4.46276397e-01 4.55295414e-01 4.65167314e-01 4.77861434e-01 5.04986286e-01 5.69192708e-01 6.69280350e-01 6.48539305e-01 1.00385942e-01 2.59803850e-02 1.96856514e-01 4.02393699e-01 4.89503533e-01 3.72677863e-01 3.06005508e-01 2.90183187e-01 3.10929835e-01 3.41852784e-01 3.72503310e-01 3.97087008e-01 4.14057851e-01 4.24475819e-01 4.29944158e-01 4.31634098e-01 4.30553943e-01 4.27705348e-01 4.24099445e-01 4.20823395e-01 4.19176549e-01 4.20674920e-01 4.26657021e-01 4.37630624e-01 4.52973485e-01 4.72089648e-01 4.98283207e-01 5.43601274e-01 6.20097518e-01 6.78428531e-01 5.55831909e-01 8.45197141e-02 4.62093577e-02 3.13995272e-01 4.39997435e-01 4.82654274e-01 3.39258790e-01 2.43823603e-01 2.16481686e-01 2.45065540e-01 2.93668658e-01 3.42800051e-01 3.80436450e-01 4.04413372e-01 4.18386400e-01 4.25668508e-01 4.28265840e-01 4.27559972e-01 4.24697071e-01 4.20772731e-01 4.17021781e-01 4.15016472e-01 4.16685313e-01 4.23968375e-01 4.38261598e-01 4.60113168e-01 4.89911586e-01 5.30243695e-01 5.87832451e-01 6.52526140e-01 6.34787142e-01 4.08960879e-01 6.35119379e-02 5.47125973e-02 3.63397121e-01 4.48002577e-01 4.70222533e-01 3.08752269e-01 1.90400958e-01 1.58807248e-01 1.95981443e-01 2.64803469e-01 3.32824290e-01 3.80678087e-01 4.08586830e-01 4.23921496e-01 4.31666672e-01 4.34433371e-01 4.33810055e-01 4.30974156e-01 4.27022129e-01 4.23247367e-01 4.21367407e-01 4.23552215e-01 4.32185948e-01 4.49585587e-01 4.78085369e-01 5.19607365e-01 5.72910130e-01 6.28153205e-01 6.39720261e-01 5.16728222e-01 2.04036638e-01 3.21697183e-02 5.78510985e-02 3.66020411e-01 4.42812204e-01 4.61327165e-01 2.71388263e-01 1.47018492e-01 1.19138055e-01 1.66807860e-01 2.58403063e-01 3.42768133e-01 3.94748449e-01 4.22211736e-01 4.36578214e-01 4.43669856e-01 4.46156800e-01 4.45577025e-01 4.43057120e-01 4.39704061e-01 4.36936915e-01 4.36737478e-01 4.41670835e-01 4.54603195e-01 4.78229403e-01 5.15454710e-01 5.67927599e-01 6.21356606e-01 6.32652044e-01 5.49735487e-01 3.05994183e-01 9.62258428e-02 2.02185325e-02 6.41022176e-02 3.54506522e-01 4.36485291e-01 4.57639605e-01 2.13447183e-01 1.12223774e-01 9.43424404e-02 1.58382758e-01 2.74642348e-01 3.67589414e-01 4.16010141e-01 4.39285606e-01 4.51275826e-01 4.57293004e-01 4.59527582e-01 4.59296733e-01 4.57690716e-01 4.55964535e-01 4.55929488e-01 4.60257053e-01 4.72380728e-01 4.95598286e-01 5.30980110e-01 5.75481653e-01 6.16118133e-01 6.16232991e-01 5.33537209e-01 3.30837518e-01 1.29934534e-01 4.52541672e-02 2.92436555e-02 8.07541907e-02 3.51062447e-01 4.34017032e-01 4.57189649e-01 1.40849456e-01 8.41224194e-02 8.18617791e-02 1.70841098e-01 3.09741259e-01 3.98836851e-01 4.37440097e-01 4.54845339e-01 4.64224339e-01 4.69320685e-01 4.71642464e-01 4.72285032e-01 4.72405612e-01 4.73591208e-01 4.78280187e-01 4.90026027e-01 5.12896061e-01 5.48882604e-01 5.92386723e-01 6.21130884e-01 5.89231193e-01 4.59296584e-01 2.55007416e-01 1.18913025e-01 5.34298941e-02 3.64109837e-02 5.40580042e-02 1.32976949e-01 3.70267481e-01 4.40884084e-01 4.60336477e-01 8.30584094e-02 6.46811947e-02 8.26262236e-02 2.05119252e-01 3.54563564e-01 4.28148270e-01 4.54412937e-01 4.66280222e-01 4.73474562e-01 4.77982938e-01 4.80745286e-01 4.82722133e-01 4.85214144e-01 4.90174055e-01 5.00524580e-01 5.20110667e-01 5.52236915e-01 5.95171452e-01 6.33953035e-01 6.26830459e-01 4.99642819e-01 2.43026227e-01 1.05481215e-01 5.72321005e-02 4.81996052e-02 6.87869862e-02 1.30992696e-01 2.67635673e-01 4.25512493e-01 4.65477139e-01 4.72311497e-01 4.99941520e-02 5.22312708e-02 9.84150842e-02 2.59725183e-01 3.98754567e-01 4.50417191e-01 4.65367496e-01 4.72987473e-01 4.78537023e-01 4.82714504e-01 4.86089468e-01 4.89545912e-01 4.94482279e-01 5.03014803e-01 5.18053710e-01 5.42783976e-01 5.78558981e-01 6.20055556e-01 6.47957027e-01 6.18842244e-01 4.67544645e-01 2.17978016e-01 9.64704901e-02 8.56369287e-02 1.22030780e-01 2.03286424e-01 3.30629855e-01 4.47520047e-01 5.03820062e-01 5.08850753e-01 4.98442352e-01 3.13027389e-02 4.53016087e-02 1.34028643e-01 3.24900448e-01 4.34585005e-01 4.64092076e-01 4.70791221e-01 4.75490034e-01 4.79823351e-01 4.83791023e-01 4.87728566e-01 4.92429942e-01 4.99246120e-01 5.10143757e-01 5.27517140e-01 5.53320885e-01 5.86923122e-01 6.21381998e-01 6.39106333e-01 6.07803464e-01 4.86499429e-01 2.97346145e-01 2.02639922e-01 2.34479040e-01 3.48768890e-01 4.68136281e-01 5.38425386e-01 5.57066143e-01 5.55094600e-01 5.47473371e-01 5.28045416e-01 2.07197089e-02 4.88320589e-02 2.00086519e-01 3.85793746e-01 4.57875907e-01 4.70060974e-01 4.72031891e-01 4.74795610e-01 4.78196025e-01 4.81961489e-01 4.86253411e-01 4.91710275e-01 4.99476403e-01 5.11128604e-01 5.28306544e-01 5.51768064e-01 5.79681456e-01 6.05452836e-01 6.16080880e-01 5.92650175e-01 5.19724190e-01 4.23033267e-01 3.91315728e-01 4.42115963e-01 5.20234168e-01 5.65082312e-01 5.70385337e-01 5.59273243e-01 5.55136442e-01 5.57376623e-01 5.41248560e-01 1.54391229e-02 5.91117144e-02 2.87281543e-01 4.30874258e-01 4.68847096e-01 4.70757127e-01 4.70499605e-01 4.71917003e-01 4.74565595e-01 4.78098363e-01 4.82502282e-01 4.88186657e-01 4.95985091e-01 5.07003963e-01 5.22188783e-01 5.41505337e-01 5.62805057e-01 5.80804050e-01 5.86917818e-01 5.71291625e-01 5.30703485e-01 4.85332668e-01 4.74313021e-01 4.98633564e-01 5.23196101e-01 5.28915823e-01 5.22966564e-01 5.21629989e-01 5.31409860e-01 5.42495131e-01 5.34348130e-01 1.26635339e-02 6.60267845e-02 3.50358665e-01 4.55331653e-01 4.71018165e-01 4.68769968e-01 4.67167020e-01 4.67537493e-01 4.69612956e-01 4.72944826e-01 4.77309138e-01 4.82842296e-01 4.90037143e-01 4.99575555e-01 5.11930108e-01 5.26741505e-01 5.42138159e-01 5.54320574e-01 5.57794571e-01 5.47051370e-01 5.21463156e-01 4.92088795e-01 4.76159632e-01 4.75362927e-01 4.78364050e-01 4.80493128e-01 4.83840466e-01 4.92260724e-01 5.06126106e-01 5.18902659e-01 5.18298686e-01 1.06489798e-02 6.85909241e-02 3.80580336e-01 4.65655565e-01 4.68859911e-01 4.64834809e-01 4.62112874e-01 4.61861968e-01 4.63710636e-01 4.67017233e-01 4.71355408e-01 4.76609349e-01 4.82957244e-01 4.90742326e-01 5.00181377e-01 5.10934472e-01 5.21687865e-01 5.29953539e-01 5.32231331e-01 5.24929643e-01 5.07026970e-01 4.83648777e-01 4.64111209e-01 4.53710139e-01 4.51880157e-01 4.56733137e-01 4.65212226e-01 4.75314885e-01 4.86322045e-01 4.97148186e-01 5.02479315e-01 8.90923943e-03 6.99941218e-02 3.97604614e-01 4.69924748e-01 4.63958502e-01 4.58138108e-01 4.55038905e-01 4.54968959e-01 4.57108021e-01 4.60672230e-01 4.65146959e-01 4.70252573e-01 4.75906789e-01 4.82168555e-01 4.89102423e-01 4.96537387e-01 5.03788531e-01 5.09461105e-01 5.11417210e-01 5.07131040e-01 4.95083600e-01 4.77167308e-01 4.59200919e-01 4.47345555e-01 4.44411397e-01 4.48884904e-01 4.56659377e-01 4.64410394e-01 4.71038342e-01 4.79441792e-01 4.89573210e-01 7.28558842e-03 7.11746886e-02 4.10624892e-01 4.70024318e-01 4.55873668e-01 4.48981762e-01 4.46668684e-01 4.47508782e-01 4.50283110e-01 4.54280078e-01 4.59066123e-01 4.64314878e-01 4.69751388e-01 4.75165725e-01 4.80432302e-01 4.85464752e-01 4.90067989e-01 4.93712723e-01 4.95312333e-01 4.93213505e-01 4.85880226e-01 4.73531872e-01 4.59446490e-01 4.48684305e-01 4.44592148e-01 4.46504414e-01 4.50980157e-01 4.55013543e-01 4.57546026e-01 4.64116573e-01 4.78672743e-01 4.40752087e-03 7.19314665e-02 4.21290964e-01 4.64332342e-01 4.45018232e-01 4.39127415e-01 4.38361496e-01 4.40162241e-01 4.43425775e-01 4.47768509e-01 4.52972591e-01 4.58768427e-01 4.64771092e-01 4.70511645e-01 4.75533068e-01 4.79498267e-01 4.82233167e-01 4.83639926e-01 4.83488619e-01 4.81230527e-01 4.76142019e-01 4.68074441e-01 4.58419949e-01 4.50004816e-01 4.45226490e-01 4.44094032e-01 4.44595724e-01 4.44834441e-01 4.44373697e-01 4.50122923e-01 4.68950182e-01 4.08424577e-03 7.68392235e-02 4.41831887e-01 4.63042438e-01 4.41798568e-01 4.38019127e-01 4.37934548e-01 4.39572930e-01 4.42404002e-01 4.46398586e-01 4.51542884e-01 4.57675934e-01 4.64417368e-01 4.71151739e-01 4.77083772e-01 4.81372356e-01 4.83325481e-01 4.82603997e-01 4.79360461e-01 4.74237025e-01 4.68174636e-01 4.62089539e-01 4.56631362e-01 4.52173591e-01 4.48801935e-01 4.46148545e-01 4.43579048e-01 4.40811396e-01 4.38354075e-01 4.41983819e-01 4.62039918e-01 2.03000251e-02 7.75309503e-02 4.76465523e-01 4.89795685e-01 4.60402578e-01 4.58585441e-01 4.57872003e-01 4.58472252e-01 4.60069209e-01 4.62648779e-01 4.66218531e-01 4.70691115e-01 4.75815356e-01 4.81137037e-01 4.86004472e-01 4.89638209e-01 4.91280317e-01 4.90421534e-01 4.87065166e-01 4.81915057e-01 4.76294518e-01 4.71638590e-01 4.68729049e-01 4.67268795e-01 4.66221690e-01 4.64594662e-01 4.62052912e-01 4.59034115e-01 4.56454903e-01 4.56999779e-01 4.69395548e-01 
