# vtk DataFile Version 2.0
results/5_density.vtk, Created by Freefem++ 
ASCII
DATASET UNSTRUCTURED_GRID
POINTS 961 float
0 0 0
0.033333333 0 0
0.066666667 0 0
0.1 0 0
0.13333333 0 0
0.16666667 0 0
0.2 0 0
0.23333333 0 0
0.26666667 0 0
0.3 0 0
0.33333333 0 0
0.36666667 0 0
0.4 0 0
0.43333333 0 0
0.46666667 0 0
0.5 0 0
0.53333333 0 0
0.56666667 0 0
0.6 0 0
0.63333333 0 0
0.66666667 0 0
0.7 0 0
0.73333333 0 0
0.76666667 0 0
0.8 0 0
0.83333333 0 0
0.86666667 0 0
0.9 0 0
0.93333333 0 0
0.96666667 0 0
1 0 0
0 0.033333333 0
0.033333333 0.033333333 0
0.066666667 0.033333333 0
0.1 0.033333333 0
0.13333333 0.033333333 0
0.16666667 0.033333333 0
0.2 0.033333333 0
0.23333333 0.033333333 0
0.26666667 0.033333333 0
0.3 0.033333333 0
0.33333333 0.033333333 0
0.36666667 0.033333333 0
0.4 0.033333333 0
0.43333333 0.033333333 0
0.46666667 0.033333333 0
0.5 0.033333333 0
0.53333333 0.033333333 0
0.56666667 0.033333333 0
0.6 0.033333333 0
0.63333333 0.033333333 0
0.66666667 0.033333333 0
0.7 0.033333333 0
0.73333333 0.033333333 0
0.76666667 0.033333333 0
0.8 0.033333333 0
0.83333333 0.033333333 0
0.86666667 0.033333333 0
0.9 0.033333333 0
0.93333333 0.033333333 0
0.96666667 0.033333333 0
1 0.033333333 0
0 0.066666667 0
0.033333333 0.066666667 0
0.066666667 0.066666667 0
0.1 0.066666667 0
0.13333333 0.066666667 0
0.16666667 0.066666667 0
0.2 0.066666667 0
0.23333333 0.066666667 0
0.26666667 0.066666667 0
0.3 0.066666667 0
0.33333333 0.066666667 0
0.36666667 0.066666667 0
0.4 0.066666667 0
0.43333333 0.066666667 0
0.46666667 0.066666667 0
0.5 0.066666667 0
0.53333333 0.066666667 0
0.56666667 0.066666667 0
0.6 0.066666667 0
0.63333333 0.066666667 0
0.66666667 0.066666667 0
0.7 0.066666667 0
0.73333333 0.066666667 0
0.76666667 0.066666667 0
0.8 0.066666667 0
0.83333333 0.066666667 0
0.86666667 0.066666667 0
0.9 0.066666667 0
0.93333333 0.066666667 0
0.96666667 0.066666667 0
1 0.066666667 0
0 0.1 0
0.033333333 0.1 0
0.066666667 0.1 0
0.1 0.1 0
0.13333333 0.1 0
0.16666667 0.1 0
0.2 0.1 0
0.23333333 0.1 0
0.26666667 0.1 0
0.3 0.1 0
0.33333333 0.1 0
0.36666667 0.1 0
0.4 0.1 0
0.43333333 0.1 0
0.46666667 0.1 0
0.5 0.1 0
0.53333333 0.1 0
0.56666667 0.1 0
0.6 0.1 0
0.63333333 0.1 0
0.66666667 0.1 0
0.7 0.1 0
0.73333333 0.1 0
0.76666667 0.1 0
0.8 0.1 0
0.83333333 0.1 0
0.86666667 0.1 0
0.9 0.1 0
0.93333333 0.1 0
0.96666667 0.1 0
1 0.1 0
0 0.13333333 0
0.033333333 0.13333333 0
0.066666667 0.13333333 0
0.1 0.13333333 0
0.13333333 0.13333333 0
0.16666667 0.13333333 0
0.2 0.13333333 0
0.23333333 0.13333333 0
0.26666667 0.13333333 0
0.3 0.13333333 0
0.33333333 0.13333333 0
0.36666667 0.13333333 0
0.4 0.13333333 0
0.43333333 0.13333333 0
0.46666667 0.13333333 0
0.5 0.13333333 0
0.53333333 0.13333333 0
0.56666667 0.13333333 0
0.6 0.13333333 0
0.63333333 0.13333333 0
0.66666667 0.13333333 0
0.7 0.13333333 0
0.73333333 0.13333333 0
0.76666667 0.13333333 0
0.8 0.13333333 0
0.83333333 0.13333333 0
0.86666667 0.13333333 0
0.9 0.13333333 0
0.93333333 0.13333333 0
0.96666667 0.13333333 0
1 0.13333333 0
0 0.16666667 0
0.033333333 0.16666667 0
0.066666667 0.16666667 0
0.1 0.16666667 0
0.13333333 0.16666667 0
0.16666667 0.16666667 0
0.2 0.16666667 0
0.23333333 0.16666667 0
0.26666667 0.16666667 0
0.3 0.16666667 0
0.33333333 0.16666667 0
0.36666667 0.16666667 0
0.4 0.16666667 0
0.43333333 0.16666667 0
0.46666667 0.16666667 0
0.5 0.16666667 0
0.53333333 0.16666667 0
0.56666667 0.16666667 0
0.6 0.16666667 0
0.63333333 0.16666667 0
0.66666667 0.16666667 0
0.7 0.16666667 0
0.73333333 0.16666667 0
0.76666667 0.16666667 0
0.8 0.16666667 0
0.83333333 0.16666667 0
0.86666667 0.16666667 0
0.9 0.16666667 0
0.93333333 0.16666667 0
0.96666667 0.16666667 0
1 0.16666667 0
0 0.2 0
0.033333333 0.2 0
0.066666667 0.2 0
0.1 0.2 0
0.13333333 0.2 0
0.16666667 0.2 0
0.2 0.2 0
0.23333333 0.2 0
0.26666667 0.2 0
0.3 0.2 0
0.33333333 0.2 0
0.36666667 0.2 0
0.4 0.2 0
0.43333333 0.2 0
0.46666667 0.2 0
0.5 0.2 0
0.53333333 0.2 0
0.56666667 0.2 0
0.6 0.2 0
0.63333333 0.2 0
0.66666667 0.2 0
0.7 0.2 0
0.73333333 0.2 0
0.76666667 0.2 0
0.8 0.2 0
0.83333333 0.2 0
0.86666667 0.2 0
0.9 0.2 0
0.93333333 0.2 0
0.96666667 0.2 0
1 0.2 0
0 0.23333333 0
0.033333333 0.23333333 0
0.066666667 0.23333333 0
0.1 0.23333333 0
0.13333333 0.23333333 0
0.16666667 0.23333333 0
0.2 0.23333333 0
0.23333333 0.23333333 0
0.26666667 0.23333333 0
0.3 0.23333333 0
0.33333333 0.23333333 0
0.36666667 0.23333333 0
0.4 0.23333333 0
0.43333333 0.23333333 0
0.46666667 0.23333333 0
0.5 0.23333333 0
0.53333333 0.23333333 0
0.56666667 0.23333333 0
0.6 0.23333333 0
0.63333333 0.23333333 0
0.66666667 0.23333333 0
0.7 0.23333333 0
0.73333333 0.23333333 0
0.76666667 0.23333333 0
0.8 0.23333333 0
0.83333333 0.23333333 0
0.86666667 0.23333333 0
0.9 0.23333333 0
0.93333333 0.23333333 0
0.96666667 0.23333333 0
1 0.23333333 0
0 0.26666667 0
0.033333333 0.26666667 0
0.066666667 0.26666667 0
0.1 0.26666667 0
0.13333333 0.26666667 0
0.16666667 0.26666667 0
0.2 0.26666667 0
0.23333333 0.26666667 0
0.26666667 0.26666667 0
0.3 0.26666667 0
0.33333333 0.26666667 0
0.36666667 0.26666667 0
0.4 0.26666667 0
0.43333333 0.26666667 0
0.46666667 0.26666667 0
0.5 0.26666667 0
0.53333333 0.26666667 0
0.56666667 0.26666667 0
0.6 0.26666667 0
0.63333333 0.26666667 0
0.66666667 0.26666667 0
0.7 0.26666667 0
0.73333333 0.26666667 0
0.76666667 0.26666667 0
0.8 0.26666667 0
0.83333333 0.26666667 0
0.86666667 0.26666667 0
0.9 0.26666667 0
0.93333333 0.26666667 0
0.96666667 0.26666667 0
1 0.26666667 0
0 0.3 0
0.033333333 0.3 0
0.066666667 0.3 0
0.1 0.3 0
0.13333333 0.3 0
0.16666667 0.3 0
0.2 0.3 0
0.23333333 0.3 0
0.26666667 0.3 0
0.3 0.3 0
0.33333333 0.3 0
0.36666667 0.3 0
0.4 0.3 0
0.43333333 0.3 0
0.46666667 0.3 0
0.5 0.3 0
0.53333333 0.3 0
0.56666667 0.3 0
0.6 0.3 0
0.63333333 0.3 0
0.66666667 0.3 0
0.7 0.3 0
0.73333333 0.3 0
0.76666667 0.3 0
0.8 0.3 0
0.83333333 0.3 0
0.86666667 0.3 0
0.9 0.3 0
0.93333333 0.3 0
0.96666667 0.3 0
1 0.3 0
0 0.33333333 0
0.033333333 0.33333333 0
0.066666667 0.33333333 0
0.1 0.33333333 0
0.13333333 0.33333333 0
0.16666667 0.33333333 0
0.2 0.33333333 0
0.23333333 0.33333333 0
0.26666667 0.33333333 0
0.3 0.33333333 0
0.33333333 0.33333333 0
0.36666667 0.33333333 0
0.4 0.33333333 0
0.43333333 0.33333333 0
0.46666667 0.33333333 0
0.5 0.33333333 0
0.53333333 0.33333333 0
0.56666667 0.33333333 0
0.6 0.33333333 0
0.63333333 0.33333333 0
0.66666667 0.33333333 0
0.7 0.33333333 0
0.73333333 0.33333333 0
0.76666667 0.33333333 0
0.8 0.33333333 0
0.83333333 0.33333333 0
0.86666667 0.33333333 0
0.9 0.33333333 0
0.93333333 0.33333333 0
0.96666667 0.33333333 0
1 0.33333333 0
0 0.36666667 0
0.033333333 0.36666667 0
0.066666667 0.36666667 0
0.1 0.36666667 0
0.13333333 0.36666667 0
0.16666667 0.36666667 0
0.2 0.36666667 0
0.23333333 0.36666667 0
0.26666667 0.36666667 0
0.3 0.36666667 0
0.33333333 0.36666667 0
0.36666667 0.36666667 0
0.4 0.36666667 0
0.43333333 0.36666667 0
0.46666667 0.36666667 0
0.5 0.36666667 0
0.53333333 0.36666667 0
0.56666667 0.36666667 0
0.6 0.36666667 0
0.63333333 0.36666667 0
0.66666667 0.36666667 0
0.7 0.36666667 0
0.73333333 0.36666667 0
0.76666667 0.36666667 0
0.8 0.36666667 0
0.83333333 0.36666667 0
0.86666667 0.36666667 0
0.9 0.36666667 0
0.93333333 0.36666667 0
0.96666667 0.36666667 0
1 0.36666667 0
0 0.4 0
0.033333333 0.4 0
0.066666667 0.4 0
0.1 0.4 0
0.13333333 0.4 0
0.16666667 0.4 0
0.2 0.4 0
0.23333333 0.4 0
0.26666667 0.4 0
0.3 0.4 0
0.33333333 0.4 0
0.36666667 0.4 0
0.4 0.4 0
0.43333333 0.4 0
0.46666667 0.4 0
0.5 0.4 0
0.53333333 0.4 0
0.56666667 0.4 0
0.6 0.4 0
0.63333333 0.4 0
0.66666667 0.4 0
0.7 0.4 0
0.73333333 0.4 0
0.76666667 0.4 0
0.8 0.4 0
0.83333333 0.4 0
0.86666667 0.4 0
0.9 0.4 0
0.93333333 0.4 0
0.96666667 0.4 0
1 0.4 0
0 0.43333333 0
0.033333333 0.43333333 0
0.066666667 0.43333333 0
0.1 0.43333333 0
0.13333333 0.43333333 0
0.16666667 0.43333333 0
0.2 0.43333333 0
0.23333333 0.43333333 0
0.26666667 0.43333333 0
0.3 0.43333333 0
0.33333333 0.43333333 0
0.36666667 0.43333333 0
0.4 0.43333333 0
0.43333333 0.43333333 0
0.46666667 0.43333333 0
0.5 0.43333333 0
0.53333333 0.43333333 0
0.56666667 0.43333333 0
0.6 0.43333333 0
0.63333333 0.43333333 0
0.66666667 0.43333333 0
0.7 0.43333333 0
0.73333333 0.43333333 0
0.76666667 0.43333333 0
0.8 0.43333333 0
0.83333333 0.43333333 0
0.86666667 0.43333333 0
0.9 0.43333333 0
0.93333333 0.43333333 0
0.96666667 0.43333333 0
1 0.43333333 0
0 0.46666667 0
0.033333333 0.46666667 0
0.066666667 0.46666667 0
0.1 0.46666667 0
0.13333333 0.46666667 0
0.16666667 0.46666667 0
0.2 0.46666667 0
0.23333333 0.46666667 0
0.26666667 0.46666667 0
0.3 0.46666667 0
0.33333333 0.46666667 0
0.36666667 0.46666667 0
0.4 0.46666667 0
0.43333333 0.46666667 0
0.46666667 0.46666667 0
0.5 0.46666667 0
0.53333333 0.46666667 0
0.56666667 0.46666667 0
0.6 0.46666667 0
0.63333333 0.46666667 0
0.66666667 0.46666667 0
0.7 0.46666667 0
0.73333333 0.46666667 0
0.76666667 0.46666667 0
0.8 0.46666667 0
0.83333333 0.46666667 0
0.86666667 0.46666667 0
0.9 0.46666667 0
0.93333333 0.46666667 0
0.96666667 0.46666667 0
1 0.46666667 0
0 0.5 0
0.033333333 0.5 0
0.066666667 0.5 0
0.1 0.5 0
0.13333333 0.5 0
0.16666667 0.5 0
0.2 0.5 0
0.23333333 0.5 0
0.26666667 0.5 0
0.3 0.5 0
0.33333333 0.5 0
0.36666667 0.5 0
0.4 0.5 0
0.43333333 0.5 0
0.46666667 0.5 0
0.5 0.5 0
0.53333333 0.5 0
0.56666667 0.5 0
0.6 0.5 0
0.63333333 0.5 0
0.66666667 0.5 0
0.7 0.5 0
0.73333333 0.5 0
0.76666667 0.5 0
0.8 0.5 0
0.83333333 0.5 0
0.86666667 0.5 0
0.9 0.5 0
0.93333333 0.5 0
0.96666667 0.5 0
1 0.5 0
0 0.53333333 0
0.033333333 0.53333333 0
0.066666667 0.53333333 0
0.1 0.53333333 0
0.13333333 0.53333333 0
0.16666667 0.53333333 0
0.2 0.53333333 0
0.23333333 0.53333333 0
0.26666667 0.53333333 0
0.3 0.53333333 0
0.33333333 0.53333333 0
0.36666667 0.53333333 0
0.4 0.53333333 0
0.43333333 0.53333333 0
0.46666667 0.53333333 0
0.5 0.53333333 0
0.53333333 0.53333333 0
0.56666667 0.53333333 0
0.6 0.53333333 0
0.63333333 0.53333333 0
0.66666667 0.53333333 0
0.7 0.53333333 0
0.73333333 0.53333333 0
0.76666667 0.53333333 0
0.8 0.53333333 0
[...]
CELL_DATA 1920
Scalars  Label int 1
LOOKUP_TABLE FreeFempp_table
0
0
0
0
0
0
0
0
0
0
0
0
0
0
0
0
0
0
0
0
0
0
0
0
0
0
0
0
0
0
0
0
0
0
0
0
0
0
0
0
0
0
0
0
0
0
0
0
0
0
0
0
0
0
0
0
0
0
0
0
0
0
0
0
0
0
0
0
0
0
0
0
0
0
0
0
0
0
0
0
0
0
0
0
0
0
0
0
0
0
0
0
0
0
0
0
0
0
0
0
0
0
0
0
0
0
0
0
0
0
0
0
0
0
0
0
0
0
0
0
0
0
0
0
0
0
0
0
0
0
0
0
0
0
0
0
0
0
0
0
0
0
0
0
0
0
0
0
0
0
0
0
0
0
0
0
0
0
0
0
0
0
0
0
0
0
0
0
0
0
0
0
0
0
0
0
0
0
0
0
0
0
0
0
0
0
0
0
0
0
0
0
0
0
0
0
0
0
0
0
0
0
0
0
0
0
0
0
0
0
0
0
0
0
0
0
0
0
0
0
0
0
0
0
0
0
0
0
0
0
0
0
0
0
0
0
0
0
0
0
0
0
0
0
0
0
0
0
0
0
0
0
0
0
0
0
0
0
0
0
0
0
0
0
0
0
0
0
0
0
0
0
0
0
0
0
0
0
0
0
0
0
0
0
0
0
0
0
0
0
0
0
0
0
0
0
0
0
0
0
0
0
0
0
0
0
0
0
0
0
0
0
0
0
0
0
0
0
0
0
0
0
0
0
0
0
0
0
0
0
0
0
0
0
0
0
0
0
0
0
0
0
0
0
0
0
0
0
0
0
0
0
0
0
0
0
0
0
0
0
0
0
0
0
0
0
0
0
0
0
0
0
0
0
0
0
0
0
0
0
0
0
0
0
0
0
0
0
0
0
0
0
0
0
0
0
0
0
0
0
0
0
0
0
0
0
0
0
0
0
0
0
0
0
0
0
0
0
0
0
0
0
0
0
0
0
0
0
0
0
0
0
0
0
0
0
0
0
0
0
0
0
0
0
0
0
0
0
0
0
0
0
0
0
0
0
0
0
0
0
0
0
0
0
0
0
0
0
0
0
0
0
0
0
0
0
0
0
0
0
0
0
0
0
0
0
0
0
0
0
0
0
0
0
0
0
0
0
0
0
0
0
0
0
0
0
0
0
0
0
0
0
0
0
0
0
0
0
0
0
0
0
0
0
0
0
0
0
0
0
0
0
0
0
0
0
0
0
0
0
0
0
0
0
0
0
0
0
0
0
0
0
0
0
0
0
0
0
0
0
0
0
0
0
0
0
0
0
0
0
0
0
0
0
0
0
0
0
0
0
0
0
0
0
0
0
0
0
0
0
0
0
0
0
0
0
0
0
0
0
0
0
0
0
0
0
0
0
0
0
0
0
0
0
0
0
0
0
0
0
0
0
0
0
0
0
0
0
0
0
0
0
0
0
0
0
0
0
0
0
0
0
0
0
0
0
0
0
0
0
0
0
0
0
0
0
0
0
0
0
0
0
0
0
0
0
0
0
0
0
0
0
0
0
0
0
0
0
0
0
0
0
0
0
0
0
0
0
0
0
0
0
0
0
0
0
0
0
0
0
0
0
0
0
0
0
0
0
0
0
0
0
0
0
0
0
0
0
0
0
0
0
0
0
0
0
0
0
0
0
0
0
0
0
0
0
0
0
0
0
0
0
0
0
0
0
0
0
0
0
0
0
0
0
0
0
0
0
0
0
0
0
0
0
0
0
0
0
0
0
0
0
0
0
0
0
0
0
0
0
0
0
0
0
0
0
0
0
0
0
0
0
0
0
0
0
0
0
0
0
0
0
0
0
0
0
0
0
0
0
0
0
0
0
0
0
0
0
0
0
0
0
0
0
0
0
0
0
0
0
0
0
0
0
0
0
0
0
0
0
0
0
0
0
0
0
0
0
0
0
0
0
0
0
0
0
0
0
0
0
0
0
0
0
0
0
0
0
0
0
0
0
0
0
0
0
0
0
0
0
0
0
0
0
0
0
0
0
0
0
0
0
0
0
0
0
0
0
0
0
0
0
0
0
0
0
0
0
0
0
0
0
0
0
0
0
0
0
0
0
0
0
0
0
0
0
0
0
0
0
0
0
0
0
0
0
0
0
0
0
0
0
0
0
0
0
0
0
0
0
0
0
0
0
0
0
0
0
0
0
0
0
0
0
0
0
0
0
0
0
0
0
0
0
0
0
0
0
0
0
0
0
0
0
0
0
0
0
0
0
0
0
0
0
0
0
0
0
0
0
0
0
0
0
0
0
0
0
0
0
0
0
0
0
0
0
0
0
0
0
0
0
0
0
0
0
0
0
0
0
0
0
0
0
0
0
0
0
0
0
0
0
0
0
0
0
0
0
0
0
0
0
0
0
0
0
0
0
0
0
0
0
0
0
0
0
0
0
0
0
0
0
0
0
0
0
0
0
0
0
0
0
0
0
0
0
0
0
0
0
0
0
0
0
0
0
0
0
0
0
0
0
0
0
0
0
0
0
0
0
0
0
0
0
0
0
0
0
0
0
0
0
0
0
0
0
0
0
0
0
0
0
0
0
0
0
0
0
0
0
0
0
0
0
0
0
0
0
0
0
0
0
0
0
0
0
0
0
0
0
0
0
0
0
0
0
0
0
0
0
0
0
0
0
0
0
0
0
0
0
0
0
0
0
0
0
0
0
0
0
0
0
0
0
0
0
0
0
0
0
0
0
0
0
0
0
0
0
0
0
0
0
0
0
0
0
0
0
0
0
0
0
0
0
0
0
0
0
0
0
0
0
0
0
0
0
0
0
0
0
0
0
0
0
0
0
0
0
0
0
0
0
0
0
0
0
0
0
0
0
0
0
0
0
0
0
0
0
0
0
0
0
0
0
0
0
0
0
0
0
0
0
0
0
0
0
0
0
0
0
0
0
0
0
0
0
0
0
0
0
0
0
0
0
0
0
0
0
0
0
0
0
0
0
0
0
0
0
0
0
0
0
0
0
0
0
0
0
0
0
0
0
0
0
0
0
0
0
0
0
0
0
0
0
0
0
0
0
0
0
0
0
0
0
0
0
0
0
0
0
0
0
0
0
0
0
0
0
0
0
0
0
0
0
0
0
0
0
0
0
0
0
0
0
0
0
0
0
0
0
0
0
0
0
0
0
0
0
0
0
0
0
0
0
0
0
0
0
0
0
0
0
0
0
0
0
0
0
0
0
0
0
0
0
0
0
0
0
0
0
0
0
0
0
0
0
0
0
0
0
0
0
0
0
0
0
0
0
0
0
0
0
0
0
0
0
0
0
0
0
0
0
0
0
0
0
0
0
0
0
0
0
0
0
0
0
0
0
0
0
0
0
0
0
0
0
0
0
0
0
0
0
0
0
0
0
0
0
0
0
0
0
0
0
0
0
0
0
0
0
0
0
0
0
0
0
0
0
0
0
0
0
0
0
0
0
0
0
0
0
0
0
0
0
0
0
0
0
0
0
0
0
0
0
0
0
0
0
0
0
0
0
0
0
0
0
0
0
0
0
0
0
0
0
0
0
0
0
0
0
0
0
0
0
0
0
0
0
0
0
0
0
0
0
0
0
0
0
0
0
0
0
0
0
0
0
0
0
0
0
0
0
0
0
0
0
0
0
0
0
0
0
0
0
0
0
0
0
0
0
0
0
0
0
0
0
0
0
0
0
0
0
0
0
0
0
0
0
0
0
0
0
0
0
0
0
0
0
0
0
0
0
0
0
0
0
0
0
0
0
0
0
0
0
0
0
0
0
0
0
0
0
0
0
0
0
0
0
0
0
0
0
0
0
0
0
0
0
0
0
0
0
0
0
0
0
0
0
0
0
0
0
0
0
0
0
0
0
0
0
0
0
0
0
0
0
0
0
0
0
0
0
0
0
0
0
0
0
0
0
0
0
0
0
0
0
0
0
0
0
0
0
0
0
0
0
0
0
0
0
0
0
0
0
0
0
0
0
0
0
0
0
0
0
0
0
0
0
0
0
0
0
0
0
0
0
0
0
0
0
0
0
0
0
0
0
0
0
0
0
0
0
0
0
0
0
0
0
0
0
1
1
1
1
1
1
1
1
1
1
1
1
1
1
1
1
1
1
1
1
1
1
1
1
1
1
1
1
1
1
2
2
2
2
2
2
2
2
2
2
2
2
2
2
2
2
2
2
2
2
2
2
2
2
2
2
2
2
2
2
3
3
3
3
3
3
3
3
3
3
3
3
3
3
3
3
3
3
3
3
3
3
3
3
3
3
3
3
3
3
4
4
4
4
4
4
4
4
4
4
4
4
4
4
4
4
4
4
4
4
4
4
4
4
4
4
4
4
4
4

LOOKUP_TABLE FreeFempp_table 5
1.00000000 0.00000000 0.00000000 1.00000000
1.00000000 1.00000000 0.00000000 1.00000000
1.00000000 0.00000000 1.00000000 1.00000000
0.00000000 1.00000000 0.00000000 1.00000000
0.00000000 1.00000000 1.00000000 1.00000000

POINT_DATA 961
FIELD FieldData 1
Density 1 961 float
2.39176765e-01 2.79022366e-01 3.17938656e-01 3.29496473e-01 3.26686025e-01 3.16192657e-01 2.90054560e-01 2.05736265e-01 7.60661066e-02 5.61120957e-02 1.30823195e-01 2.73174524e-01 3.51834923e-01 3.88032973e-01 4.20909673e-01 4.87342119e-01 5.66421330e-01 5.90229809e-01 5.86009324e-01 5.93888342e-01 5.88483930e-01 5.77591836e-01 5.75847149e-01 5.77739358e-01 5.75257003e-01 5.69432139e-01 5.63157976e-01 5.59008777e-01 5.56967854e-01 5.51900744e-01 5.44766784e-01 7.09650666e-02 1.79823667e-01 2.45898500e-01 2.61766076e-01 2.60076761e-01 2.52052397e-01 2.33771428e-01 1.79349035e-01 6.93256706e-02 3.62381153e-02 8.60127807e-02 2.39119843e-01 3.32460970e-01 3.70129645e-01 4.03605193e-01 4.85809118e-01 5.75725138e-01 5.50006151e-01 4.85674828e-01 5.00826359e-01 5.20333946e-01 5.19521415e-01 5.17446160e-01 5.19669831e-01 5.19506633e-01 5.18192589e-01 5.22080302e-01 5.30860066e-01 5.39708793e-01 5.43107808e-01 5.39786637e-01 1.90455299e-02 1.56453717e-02 3.26727666e-02 3.46173160e-02 3.41864489e-02 3.30793858e-02 3.13200168e-02 2.55965684e-02 9.92933102e-03 4.67640022e-03 2.99133901e-02 1.74127221e-01 2.60040045e-01 2.89200991e-01 3.27882111e-01 4.27312583e-01 5.36541939e-01 3.52703691e-01 1.48186833e-01 1.80128157e-01 2.59028107e-01 3.06695729e-01 3.15682799e-01 3.18399698e-01 3.20918292e-01 3.37484121e-01 3.78122747e-01 4.19902414e-01 4.61322159e-01 4.92094904e-01 5.03916562e-01 2.05025032e-01 6.35385290e-02 2.48399395e-02 2.67163999e-02 3.67424414e-02 3.93803120e-02 4.03086804e-02 4.08355556e-02 4.09997255e-02 4.25510071e-02 2.67757997e-02 1.88069083e-02 3.52233797e-02 4.05689180e-02 6.92848116e-02 2.41749480e-01 4.33021694e-01 5.53228199e-01 1.65825292e-01 4.77033071e-02 4.53228243e-02 4.98084798e-02 4.89091426e-02 4.73231263e-02 4.83818427e-02 6.75836131e-02 2.06170529e-01 3.01839441e-01 3.62722248e-01 4.18066204e-01 4.47192907e-01 3.63734186e-01 2.90546566e-01 1.85383305e-01 1.91839203e-01 2.66847610e-01 2.96778560e-01 3.05305541e-01 3.08024526e-01 3.07820410e-01 2.98673540e-01 2.46285617e-01 7.12786987e-02 4.07739393e-02 3.46390866e-02 1.60407759e-02 2.26393584e-02 1.03535198e-01 4.75033402e-01 5.72034359e-01 2.18822673e-01 1.04971327e-01 7.93094784e-02 6.11894131e-02 4.83539626e-02 3.68386991e-02 1.81108210e-02 4.19004485e-02 1.85551956e-01 2.81337053e-01 3.44010264e-01 3.84334773e-01 3.91430080e-01 3.42167586e-01 2.35250637e-01 2.11647004e-01 3.13094974e-01 3.75085175e-01 3.95271748e-01 4.01614219e-01 4.03880417e-01 4.00506467e-01 3.82966071e-01 3.30539107e-01 3.01973432e-01 2.76184767e-01 1.95269212e-01 6.26728982e-02 2.72599068e-02 8.44499618e-02 3.55665147e-01 6.23638034e-01 5.67130804e-01 4.89181310e-01 4.06606555e-01 3.26808423e-01 2.54344463e-01 1.59110099e-01 4.58901748e-02 4.11176607e-02 1.79915160e-01 2.74418205e-01 3.21134359e-01 3.92886311e-01 3.53373289e-01 2.77552128e-01 2.41121039e-01 3.10324341e-01 3.79346550e-01 4.09138620e-01 4.19984639e-01 4.24534172e-01 4.25814241e-01 4.22293484e-01 4.14406806e-01 4.11577970e-01 4.01157379e-01 3.67076367e-01 3.15237582e-01 2.49087229e-01 6.05193824e-02 3.03115565e-02 1.43987939e-01 5.21378219e-01 6.30440295e-01 6.18099272e-01 5.55301428e-01 4.61856514e-01 3.62875283e-01 2.43987948e-01 4.95218709e-02 3.86448056e-02 1.85402334e-01 2.66301036e-01 4.16567206e-01 3.84435654e-01 3.36742818e-01 3.08922231e-01 3.43148500e-01 3.96533787e-01 4.26928222e-01 4.39821422e-01 4.45429921e-01 4.47901905e-01 4.47999269e-01 4.46594656e-01 4.45815951e-01 4.43021327e-01 4.34312612e-01 4.23493385e-01 4.02803391e-01 3.06338489e-01 8.30828920e-02 3.04866061e-02 8.29143897e-02 3.15644443e-01 4.58534300e-01 5.47652781e-01 5.84306717e-01 5.39218307e-01 4.17279929e-01 1.98937044e-01 2.09808759e-02 5.67536689e-02 2.02736586e-01 4.80954736e-01 4.58364904e-01 4.29701179e-01 4.11965519e-01 4.22870278e-01 4.49267507e-01 4.67167318e-01 4.74797547e-01 4.77521867e-01 4.77982491e-01 4.76903856e-01 4.74792838e-01 4.72390115e-01 4.69555765e-01 4.65806246e-01 4.62008387e-01 4.55372751e-01 4.37167704e-01 3.76172543e-01 2.77534217e-01 6.55328929e-02 4.57239337e-02 1.71813354e-01 2.98018932e-01 4.27371800e-01 5.46587050e-01 5.84687233e-01 3.72343093e-01 5.22491150e-02 2.66233850e-02 1.48919329e-01 5.61087668e-01 5.54872513e-01 5.40342093e-01 5.27645528e-01 5.22877574e-01 5.23791432e-01 5.23486018e-01 5.20725369e-01 5.17076492e-01 5.13136268e-01 5.08920908e-01 5.04519463e-01 5.00137389e-01 4.95819896e-01 4.91555423e-01 4.87546653e-01 4.83331531e-01 4.77418184e-01 4.65072215e-01 4.28357005e-01 3.01144421e-01 6.50557801e-02 2.45186035e-02 6.93353713e-02 1.59149989e-01 2.48904049e-01 4.72626567e-01 5.81783235e-01 1.58046499e-01 8.97057820e-03 2.78713107e-02 5.93741477e-01 6.06682599e-01 6.04614556e-01 5.97375751e-01 5.89202166e-01 5.79996586e-01 5.69941938e-01 5.60212791e-01 5.51538289e-01 5.43854713e-01 5.36934674e-01 5.30681789e-01 5.25062919e-01 5.19999683e-01 5.15408576e-01 5.11258125e-01 5.07436097e-01 5.03760338e-01 4.99267608e-01 4.87206995e-01 4.44381684e-01 3.09985518e-01 7.17923120e-02 1.71513297e-02 3.43911611e-02 5.68163916e-02 1.66106507e-01 5.59098721e-01 5.01663327e-01 6.04322441e-02 1.11030266e-02 5.40351927e-01 5.61694562e-01 5.72646618e-01 5.80313504e-01 5.86365819e-01 5.87043822e-01 5.82486987e-01 5.75250983e-01 5.67326248e-01 5.59619665e-01 5.52512586e-01 5.46191752e-01 5.40719450e-01 5.36056340e-01 5.32119095e-01 5.28816879e-01 5.26046932e-01 5.23754537e-01 5.21938682e-01 5.19899428e-01 5.11587441e-01 4.72395271e-01 3.35123092e-01 1.00444496e-01 4.97740135e-02 4.31627370e-02 6.36328980e-02 3.31471294e-01 6.67605281e-01 1.07387796e-01 2.43442133e-03 4.35274959e-01 4.45266604e-01 4.61071521e-01 4.86715078e-01 5.17681420e-01 5.42448342e-01 5.55987716e-01 5.60410976e-01 5.59523463e-01 5.56064725e-01 5.51645398e-01 5.47178209e-01 5.43156266e-01 5.39810300e-01 5.37209332e-01 5.35315990e-01 5.34028530e-01 5.33261538e-01 5.33074915e-01 5.33883989e-01 5.35994947e-01 5.34623027e-01 5.06132841e-01 3.99244934e-01 2.57086784e-01 1.66036040e-01 1.31150931e-01 2.45865196e-01 6.85953498e-01 1.20355263e-01 -6.61591347e-03 3.44556153e-01 3.38013142e-01 3.48129362e-01 3.78763467e-01 4.25009429e-01 4.71607596e-01 5.05724490e-01 5.25426090e-01 5.34719408e-01 5.37813425e-01 5.37594438e-01 5.35856545e-01 5.33693969e-01 5.31759262e-01 5.30408025e-01 5.29773891e-01 5.29821634e-01 5.30410945e-01 5.31386793e-01 5.32782733e-01 5.35166264e-01 5.39354622e-01 5.42757094e-01 5.30083776e-01 4.77234751e-01 3.74962658e-01 2.62411326e-01 3.57747376e-01 7.13909507e-01 1.25011206e-01 -8.64401553e-03 2.81577259e-01 2.67107219e-01 2.75267035e-01 3.04897964e-01 3.53816301e-01 4.09786642e-01 4.56525594e-01 4.87727344e-01 5.05706608e-01 5.14789939e-01 5.18449962e-01 5.19053876e-01 5.18183410e-01 5.16907871e-01 5.15940785e-01 5.15711010e-01 5.16394198e-01 5.17928183e-01 5.20016611e-01 5.22152364e-01 5.23729444e-01 5.24264872e-01 5.23422301e-01 5.19490302e-01 5.02801657e-01 4.47336286e-01 3.71859133e-01 4.87156808e-01 7.32264042e-01 1.25124142e-01 -8.50515440e-03 2.28737861e-01 2.12722972e-01 2.26043940e-01 2.62148291e-01 3.15727890e-01 3.74961048e-01 4.25280750e-01 4.60811645e-01 4.83089596e-01 4.95739400e-01 5.01907766e-01 5.03915131e-01 5.03467798e-01 5.01871288e-01 5.00157237e-01 4.99125749e-01 4.99325752e-01 5.00994980e-01 5.03977597e-01 5.07649720e-01 5.10865271e-01 5.11836529e-01 5.07683337e-01 4.94500309e-01 4.71205086e-01 4.40665692e-01 4.34611768e-01 5.81968367e-01 7.14843571e-01 1.19133390e-01 -7.79556483e-03 1.80407971e-01 1.67006463e-01 1.86565593e-01 2.37554878e-01 3.03626984e-01 3.66260201e-01 4.14794087e-01 4.48631942e-01 4.70845640e-01 4.84472215e-01 4.91777867e-01 4.94484931e-01 4.94006813e-01 4.91592348e-01 4.88414645e-01 4.85591441e-01 4.84112412e-01 4.84668255e-01 4.87446934e-01 4.92037535e-01 4.97506231e-01 5.02436638e-01 5.04223406e-01 4.97220784e-01 4.77486908e-01 4.62749273e-01 5.00549257e-01 6.39094830e-01 6.52197540e-01 1.07284710e-01 -5.81447082e-03 1.40384406e-01 1.36229351e-01 1.61860779e-01 2.31395707e-01 3.12264144e-01 3.76242697e-01 4.19315964e-01 4.47984695e-01 4.67522353e-01 4.80469555e-01 4.88081425e-01 4.91269916e-01 4.90907162e-01 4.87917274e-01 4.83348161e-01 4.78415966e-01 4.74431574e-01 4.72534984e-01 4.73353773e-01 4.76894647e-01 4.82760787e-01 4.90381837e-01 4.98968244e-01 5.06168425e-01 5.08379459e-01 5.18185258e-01 5.72922051e-01 6.58814907e-01 5.64507723e-01 9.23813060e-02 -1.47324684e-03 9.03297216e-02 1.01916023e-01 1.51112571e-01 2.46226951e-01 3.36917400e-01 3.96104664e-01 4.30856228e-01 4.53346908e-01 4.69585240e-01 4.81316954e-01 4.88942534e-01 4.92703348e-01 4.92940128e-01 4.90131557e-01 4.84958500e-01 4.78398740e-01 4.71720994e-01 4.66257870e-01 4.63150620e-01 4.63410228e-01 4.68002588e-01 4.77384061e-01 4.91610646e-01 5.11480033e-01 5.37425816e-01 5.72927475e-01 6.23417437e-01 6.37213051e-01 4.66951638e-01 7.81819895e-02 4.32913750e-03 5.02154380e-02 6.68919981e-02 1.50476918e-01 2.78522611e-01 3.69527102e-01 4.17714983e-01 4.43286270e-01 4.60427672e-01 4.73943174e-01 4.84571606e-01 4.92176861e-01 4.96637017e-01 4.97943997e-01 4.96176958e-01 4.91528392e-01 4.84396964e-01 4.75458086e-01 4.65722412e-01 4.56959307e-01 4.52386618e-01 4.56019849e-01 4.69917327e-01 4.93352950e-01 5.26219428e-01 5.67823231e-01 6.12041116e-01 6.35880589e-01 5.70740521e-01 3.48587394e-01 6.30139038e-02 1.02403117e-02 3.47130895e-02 5.55946715e-02 1.73888013e-01 3.20708990e-01 4.01398987e-01 4.35972720e-01 4.53758538e-01 4.67101961e-01 4.78677869e-01 4.88409519e-01 4.95958835e-01 5.01111448e-01 5.03717899e-01 5.03600299e-01 5.00485420e-01 4.93998230e-01 4.83792365e-01 4.70213085e-01 4.56059933e-01 4.48119760e-01 4.54669297e-01 4.78725880e-01 5.16086459e-01 5.61333299e-01 6.05254829e-01 6.29576683e-01 5.96316814e-01 4.53698575e-01 2.08907619e-01 4.51495498e-02 1.67315509e-02 2.58091111e-02 5.74373938e-02 2.24788606e-01 3.65111351e-01 4.27119881e-01 4.49384719e-01 4.61744666e-01 4.72564965e-01 4.82655436e-01 4.91542101e-01 4.98905510e-01 5.04573643e-01 5.08394003e-01 5.10100245e-01 5.09141505e-01 5.04552782e-01 4.95204002e-01 4.81268823e-01 4.67277735e-01 4.63534206e-01 4.80820954e-01 5.19458234e-01 5.67659974e-01 6.10254824e-01 6.25770569e-01 5.91401875e-01 4.77562249e-01 2.73092389e-01 1.02996215e-01 3.50046940e-02 2.75602415e-02 1.95786804e-02 5.83988503e-02 2.71795928e-01 4.01253968e-01 4.44872051e-01 4.58515733e-01 4.67443585e-01 4.76368099e-01 4.85068113e-01 4.93030578e-01 5.00021458e-01 5.05922198e-01 5.10639012e-01 5.14003873e-01 5.15600264e-01 5.14628589e-01 5.10305822e-01 5.03754199e-01 5.00961065e-01 5.11911988e-01 5.42633116e-01 5.83973706e-01 6.13434315e-01 6.04413807e-01 5.36805868e-01 4.30874437e-01 2.62389332e-01 1.05259404e-01 4.37548198e-02 3.63824815e-02 4.56871279e-02 1.64556410e-02 5.86641841e-02 2.98419088e-01 4.23912197e-01 4.55843896e-01 4.64329898e-01 4.70860839e-01 4.78016257e-01 4.85270530e-01 4.92226243e-01 4.98693794e-01 5.04564047e-01 5.09821773e-01 5.14574587e-01 5.19040525e-01 5.23537457e-01 5.28789818e-01 5.37086666e-01 5.53137004e-01 5.79016566e-01 6.00777566e-01 5.86469710e-01 5.29811859e-01 4.43825364e-01 2.57248312e-01 1.35936096e-01 6.90656006e-02 3.86031158e-02 3.84602509e-02 6.93573505e-02 1.06588624e-01 1.42884301e-02 5.86227551e-02 3.12665701e-01 4.37067032e-01 4.62503016e-01 4.67379332e-01 4.71683651e-01 4.77018863e-01 4.82834667e-01 4.88802522e-01 4.94703710e-01 5.00399411e-01 5.05934775e-01 5.11720300e-01 5.18752158e-01 5.28728247e-01 5.43886125e-01 5.66456735e-01 5.96813679e-01 6.26457334e-01 6.21649325e-01 5.14916778e-01 2.96477497e-01 1.64286345e-01 1.17401876e-01 8.46351013e-02 6.22308105e-02 8.61940384e-02 1.23250775e-01 2.13661298e-01 2.95211405e-01 1.23344511e-02 5.83118238e-02 3.22217107e-01 4.45811331e-01 4.66327935e-01 4.67675239e-01 4.69602406e-01 4.73172516e-01 4.77709591e-01 4.82815057e-01 4.88202155e-01 4.93702084e-01 4.99368638e-01 5.05719125e-01 5.14103532e-01 5.26920557e-01 5.47087312e-01 5.76278448e-01 6.12064660e-01 6.43728793e-01 6.44458294e-01 5.64825118e-01 3.83220762e-01 2.13092119e-01 1.65028483e-01 1.72182664e-01 2.17433527e-01 3.90142709e-01 4.77555931e-01 5.18362343e-01 5.30820489e-01 1.06109781e-02 5.81649691e-02 3.30421567e-01 4.52074260e-01 4.67332274e-01 4.64979470e-01 4.64669228e-01 4.66794759e-01 4.70322758e-01 4.74703908e-01 4.79626238e-01 4.84951764e-01 4.90718842e-01 4.97295737e-01 5.05728245e-01 5.18050313e-01 5.36905050e-01 5.63851893e-01 5.96926391e-01 6.29178464e-01 6.48101151e-01 6.35707498e-01 5.88597119e-01 5.53473115e-01 5.58986366e-01 5.82092583e-01 6.05692446e-01 6.49367809e-01 6.70692205e-01 6.65794969e-01 6.50134325e-01 8.92433058e-03 5.83336875e-02 3.38824481e-01 4.55884069e-01 4.65073526e-01 4.59494382e-01 4.57674146e-01 4.58884001e-01 4.61631656e-01 4.65296984e-01 4.69673693e-01 4.74772394e-01 4.80684012e-01 4.87556040e-01 4.95760351e-01 5.06198704e-01 5.20357072e-01 5.39525032e-01 5.63306808e-01 5.88860571e-01 6.11740112e-01 6.27445817e-01 6.36667669e-01 6.50429785e-01 6.67286873e-01 6.77090943e-01 6.78440034e-01 6.73124015e-01 6.58161044e-01 6.42338753e-01 6.28203988e-01 6.14764402e-03 5.88749535e-02 3.49687546e-01 4.58078444e-01 4.60864425e-01 4.53380972e-01 4.51050550e-01 4.51717317e-01 4.53647017e-01 4.56374735e-01 4.59948778e-01 4.64636207e-01 4.70702797e-01 4.78235900e-01 4.87072408e-01 4.96907085e-01 5.07525623e-01 5.18857002e-01 5.30566752e-01 5.41608036e-01 5.50731480e-01 5.57895839e-01 5.65028012e-01 5.73698461e-01 5.79572856e-01 5.79482257e-01 5.75622797e-01 5.70235014e-01 5.63967586e-01 5.60119748e-01 5.57790518e-01 5.67242876e-03 6.39512017e-02 3.71911258e-01 4.65346187e-01 4.61470753e-01 4.53125805e-01 4.50703830e-01 4.50705737e-01 4.51521128e-01 4.52987283e-01 4.55400795e-01 4.59245205e-01 4.64983702e-01 4.72824901e-01 4.82485443e-01 4.93034631e-01 5.02919972e-01 5.10189652e-01 5.12818396e-01 5.09227157e-01 4.99655038e-01 4.88335580e-01 4.82543588e-01 4.85375285e-01 4.91717041e-01 4.95879859e-01 4.96851027e-01 4.96188164e-01 4.95669544e-01 4.97809142e-01 5.02425313e-01 1.94247756e-02 6.62266463e-02 4.02324021e-01 4.85517830e-01 4.70665842e-01 4.60920125e-01 4.58382845e-01 4.58025992e-01 4.58181649e-01 4.58842397e-01 4.60340172e-01 4.63159144e-01 4.67781365e-01 4.74476367e-01 4.83047873e-01 4.92599428e-01 5.01420557e-01 5.07092297e-01 5.06887674e-01 4.98659492e-01 4.82721448e-01 4.64446217e-01 4.53399867e-01 4.55029845e-01 4.64613467e-01 4.73811656e-01 4.78747070e-01 4.80139583e-01 4.80356902e-01 4.81775314e-01 4.84632969e-01 
