# vtk DataFile Version 2.0
results_case1_non_linear/iter5.vtk, Created by Freefem++ 
ASCII
DATASET UNSTRUCTURED_GRID
POINTS 961 float
0 0 0
0.033333333 0 0
0.066666667 0 0
0.1 0 0
0.13333333 0 0
0.16666667 0 0
0.2 0 0
0.23333333 0 0
0.26666667 0 0
0.3 0 0
0.33333333 0 0
0.36666667 0 0
0.4 0 0
0.43333333 0 0
0.46666667 0 0
0.5 0 0
0.53333333 0 0
0.56666667 0 0
0.6 0 0
0.63333333 0 0
0.66666667 0 0
0.7 0 0
0.73333333 0 0
0.76666667 0 0
0.8 0 0
0.83333333 0 0
0.86666667 0 0
0.9 0 0
0.93333333 0 0
0.96666667 0 0
1 0 0
0 0.033333333 0
0.033333333 0.033333333 0
0.066666667 0.033333333 0
0.1 0.033333333 0
0.13333333 0.033333333 0
0.16666667 0.033333333 0
0.2 0.033333333 0
0.23333333 0.033333333 0
0.26666667 0.033333333 0
0.3 0.033333333 0
0.33333333 0.033333333 0
0.36666667 0.033333333 0
0.4 0.033333333 0
0.43333333 0.033333333 0
0.46666667 0.033333333 0
0.5 0.033333333 0
0.53333333 0.033333333 0
0.56666667 0.033333333 0
0.6 0.033333333 0
0.63333333 0.033333333 0
0.66666667 0.033333333 0
0.7 0.033333333 0
0.73333333 0.033333333 0
0.76666667 0.033333333 0
0.8 0.033333333 0
0.83333333 0.033333333 0
0.86666667 0.033333333 0
0.9 0.033333333 0
0.93333333 0.033333333 0
0.96666667 0.033333333 0
1 0.033333333 0
0 0.066666667 0
0.033333333 0.066666667 0
0.066666667 0.066666667 0
0.1 0.066666667 0
0.13333333 0.066666667 0
0.16666667 0.066666667 0
0.2 0.066666667 0
0.23333333 0.066666667 0
0.26666667 0.066666667 0
0.3 0.066666667 0
0.33333333 0.066666667 0
0.36666667 0.066666667 0
0.4 0.066666667 0
0.43333333 0.066666667 0
0.46666667 0.066666667 0
0.5 0.066666667 0
0.53333333 0.066666667 0
0.56666667 0.066666667 0
0.6 0.066666667 0
0.63333333 0.066666667 0
0.66666667 0.066666667 0
0.7 0.066666667 0
0.73333333 0.066666667 0
0.76666667 0.066666667 0
0.8 0.066666667 0
0.83333333 0.066666667 0
0.86666667 0.066666667 0
0.9 0.066666667 0
0.93333333 0.066666667 0
0.96666667 0.066666667 0
1 0.066666667 0
0 0.1 0
0.033333333 0.1 0
0.066666667 0.1 0
0.1 0.1 0
0.13333333 0.1 0
0.16666667 0.1 0
0.2 0.1 0
0.23333333 0.1 0
0.26666667 0.1 0
0.3 0.1 0
0.33333333 0.1 0
0.36666667 0.1 0
0.4 0.1 0
0.43333333 0.1 0
0.46666667 0.1 0
0.5 0.1 0
0.53333333 0.1 0
0.56666667 0.1 0
0.6 0.1 0
0.63333333 0.1 0
0.66666667 0.1 0
0.7 0.1 0
0.73333333 0.1 0
0.76666667 0.1 0
0.8 0.1 0
0.83333333 0.1 0
0.86666667 0.1 0
0.9 0.1 0
0.93333333 0.1 0
0.96666667 0.1 0
1 0.1 0
0 0.13333333 0
0.033333333 0.13333333 0
0.066666667 0.13333333 0
0.1 0.13333333 0
0.13333333 0.13333333 0
0.16666667 0.13333333 0
0.2 0.13333333 0
0.23333333 0.13333333 0
0.26666667 0.13333333 0
0.3 0.13333333 0
0.33333333 0.13333333 0
0.36666667 0.13333333 0
0.4 0.13333333 0
0.43333333 0.13333333 0
0.46666667 0.13333333 0
0.5 0.13333333 0
0.53333333 0.13333333 0
0.56666667 0.13333333 0
0.6 0.13333333 0
0.63333333 0.13333333 0
0.66666667 0.13333333 0
0.7 0.13333333 0
0.73333333 0.13333333 0
0.76666667 0.13333333 0
0.8 0.13333333 0
0.83333333 0.13333333 0
0.86666667 0.13333333 0
0.9 0.13333333 0
0.93333333 0.13333333 0
0.96666667 0.13333333 0
1 0.13333333 0
0 0.16666667 0
0.033333333 0.16666667 0
0.066666667 0.16666667 0
0.1 0.16666667 0
0.13333333 0.16666667 0
0.16666667 0.16666667 0
0.2 0.16666667 0
0.23333333 0.16666667 0
0.26666667 0.16666667 0
0.3 0.16666667 0
0.33333333 0.16666667 0
0.36666667 0.16666667 0
0.4 0.16666667 0
0.43333333 0.16666667 0
0.46666667 0.16666667 0
0.5 0.16666667 0
0.53333333 0.16666667 0
0.56666667 0.16666667 0
0.6 0.16666667 0
0.63333333 0.16666667 0
0.66666667 0.16666667 0
0.7 0.16666667 0
0.73333333 0.16666667 0
0.76666667 0.16666667 0
0.8 0.16666667 0
0.83333333 0.16666667 0
0.86666667 0.16666667 0
0.9 0.16666667 0
0.93333333 0.16666667 0
0.96666667 0.16666667 0
1 0.16666667 0
0 0.2 0
0.033333333 0.2 0
0.066666667 0.2 0
0.1 0.2 0
0.13333333 0.2 0
0.16666667 0.2 0
0.2 0.2 0
0.23333333 0.2 0
0.26666667 0.2 0
0.3 0.2 0
0.33333333 0.2 0
0.36666667 0.2 0
0.4 0.2 0
0.43333333 0.2 0
0.46666667 0.2 0
0.5 0.2 0
0.53333333 0.2 0
0.56666667 0.2 0
0.6 0.2 0
0.63333333 0.2 0
0.66666667 0.2 0
0.7 0.2 0
0.73333333 0.2 0
0.76666667 0.2 0
0.8 0.2 0
0.83333333 0.2 0
0.86666667 0.2 0
0.9 0.2 0
0.93333333 0.2 0
0.96666667 0.2 0
1 0.2 0
0 0.23333333 0
0.033333333 0.23333333 0
0.066666667 0.23333333 0
0.1 0.23333333 0
0.13333333 0.23333333 0
0.16666667 0.23333333 0
0.2 0.23333333 0
0.23333333 0.23333333 0
0.26666667 0.23333333 0
0.3 0.23333333 0
0.33333333 0.23333333 0
0.36666667 0.23333333 0
0.4 0.23333333 0
0.43333333 0.23333333 0
0.46666667 0.23333333 0
0.5 0.23333333 0
0.53333333 0.23333333 0
0.56666667 0.23333333 0
0.6 0.23333333 0
0.63333333 0.23333333 0
0.66666667 0.23333333 0
0.7 0.23333333 0
0.73333333 0.23333333 0
0.76666667 0.23333333 0
0.8 0.23333333 0
0.83333333 0.23333333 0
0.86666667 0.23333333 0
0.9 0.23333333 0
0.93333333 0.23333333 0
0.96666667 0.23333333 0
1 0.23333333 0
0 0.26666667 0
0.033333333 0.26666667 0
0.066666667 0.26666667 0
0.1 0.26666667 0
0.13333333 0.26666667 0
0.16666667 0.26666667 0
0.2 0.26666667 0
0.23333333 0.26666667 0
0.26666667 0.26666667 0
0.3 0.26666667 0
0.33333333 0.26666667 0
0.36666667 0.26666667 0
0.4 0.26666667 0
0.43333333 0.26666667 0
0.46666667 0.26666667 0
0.5 0.26666667 0
0.53333333 0.26666667 0
0.56666667 0.26666667 0
0.6 0.26666667 0
0.63333333 0.26666667 0
0.66666667 0.26666667 0
0.7 0.26666667 0
0.73333333 0.26666667 0
0.76666667 0.26666667 0
0.8 0.26666667 0
0.83333333 0.26666667 0
0.86666667 0.26666667 0
0.9 0.26666667 0
0.93333333 0.26666667 0
0.96666667 0.26666667 0
1 0.26666667 0
0 0.3 0
0.033333333 0.3 0
0.066666667 0.3 0
0.1 0.3 0
0.13333333 0.3 0
0.16666667 0.3 0
0.2 0.3 0
0.23333333 0.3 0
0.26666667 0.3 0
0.3 0.3 0
0.33333333 0.3 0
0.36666667 0.3 0
0.4 0.3 0
0.43333333 0.3 0
0.46666667 0.3 0
0.5 0.3 0
0.53333333 0.3 0
0.56666667 0.3 0
0.6 0.3 0
0.63333333 0.3 0
0.66666667 0.3 0
0.7 0.3 0
0.73333333 0.3 0
0.76666667 0.3 0
0.8 0.3 0
0.83333333 0.3 0
0.86666667 0.3 0
0.9 0.3 0
0.93333333 0.3 0
0.96666667 0.3 0
1 0.3 0
0 0.33333333 0
0.033333333 0.33333333 0
0.066666667 0.33333333 0
0.1 0.33333333 0
0.13333333 0.33333333 0
0.16666667 0.33333333 0
0.2 0.33333333 0
0.23333333 0.33333333 0
0.26666667 0.33333333 0
0.3 0.33333333 0
0.33333333 0.33333333 0
0.36666667 0.33333333 0
0.4 0.33333333 0
0.43333333 0.33333333 0
0.46666667 0.33333333 0
0.5 0.33333333 0
0.53333333 0.33333333 0
0.56666667 0.33333333 0
0.6 0.33333333 0
0.63333333 0.33333333 0
0.66666667 0.33333333 0
0.7 0.33333333 0
0.73333333 0.33333333 0
0.76666667 0.33333333 0
0.8 0.33333333 0
0.83333333 0.33333333 0
0.86666667 0.33333333 0
0.9 0.33333333 0
0.93333333 0.33333333 0
0.96666667 0.33333333 0
1 0.33333333 0
0 0.36666667 0
0.033333333 0.36666667 0
0.066666667 0.36666667 0
0.1 0.36666667 0
0.13333333 0.36666667 0
0.16666667 0.36666667 0
0.2 0.36666667 0
0.23333333 0.36666667 0
0.26666667 0.36666667 0
0.3 0.36666667 0
0.33333333 0.36666667 0
0.36666667 0.36666667 0
0.4 0.36666667 0
0.43333333 0.36666667 0
0.46666667 0.36666667 0
0.5 0.36666667 0
0.53333333 0.36666667 0
0.56666667 0.36666667 0
0.6 0.36666667 0
0.63333333 0.36666667 0
0.66666667 0.36666667 0
0.7 0.36666667 0
0.73333333 0.36666667 0
0.76666667 0.36666667 0
0.8 0.36666667 0
0.83333333 0.36666667 0
0.86666667 0.36666667 0
0.9 0.36666667 0
0.93333333 0.36666667 0
0.96666667 0.36666667 0
1 0.36666667 0
0 0.4 0
0.033333333 0.4 0
0.066666667 0.4 0
0.1 0.4 0
0.13333333 0.4 0
0.16666667 0.4 0
0.2 0.4 0
0.23333333 0.4 0
0.26666667 0.4 0
0.3 0.4 0
0.33333333 0.4 0
0.36666667 0.4 0
0.4 0.4 0
0.43333333 0.4 0
0.46666667 0.4 0
0.5 0.4 0
0.53333333 0.4 0
0.56666667 0.4 0
0.6 0.4 0
0.63333333 0.4 0
0.66666667 0.4 0
0.7 0.4 0
0.73333333 0.4 0
0.76666667 0.4 0
0.8 0.4 0
0.83333333 0.4 0
0.86666667 0.4 0
0.9 0.4 0
0.93333333 0.4 0
0.96666667 0.4 0
1 0.4 0
0 0.43333333 0
0.033333333 0.43333333 0
0.066666667 0.43333333 0
0.1 0.43333333 0
0.13333333 0.43333333 0
0.16666667 0.43333333 0
0.2 0.43333333 0
0.23333333 0.43333333 0
0.26666667 0.43333333 0
0.3 0.43333333 0
0.33333333 0.43333333 0
0.36666667 0.43333333 0
0.4 0.43333333 0
0.43333333 0.43333333 0
0.46666667 0.43333333 0
0.5 0.43333333 0
0.53333333 0.43333333 0
0.56666667 0.43333333 0
0.6 0.43333333 0
0.63333333 0.43333333 0
0.66666667 0.43333333 0
0.7 0.43333333 0
0.73333333 0.43333333 0
0.76666667 0.43333333 0
0.8 0.43333333 0
0.83333333 0.43333333 0
0.86666667 0.43333333 0
0.9 0.43333333 0
0.93333333 0.43333333 0
0.96666667 0.43333333 0
1 0.43333333 0
0 0.46666667 0
0.033333333 0.46666667 0
0.066666667 0.46666667 0
0.1 0.46666667 0
0.13333333 0.46666667 0
0.16666667 0.46666667 0
0.2 0.46666667 0
0.23333333 0.46666667 0
0.26666667 0.46666667 0
0.3 0.46666667 0
0.33333333 0.46666667 0
0.36666667 0.46666667 0
0.4 0.46666667 0
0.43333333 0.46666667 0
0.46666667 0.46666667 0
0.5 0.46666667 0
0.53333333 0.46666667 0
0.56666667 0.46666667 0
0.6 0.46666667 0
0.63333333 0.46666667 0
0.66666667 0.46666667 0
0.7 0.46666667 0
0.73333333 0.46666667 0
0.76666667 0.46666667 0
0.8 0.46666667 0
0.83333333 0.46666667 0
0.86666667 0.46666667 0
0.9 0.46666667 0
0.93333333 0.46666667 0
0.96666667 0.46666667 0
1 0.46666667 0
0 0.5 0
0.033333333 0.5 0
0.066666667 0.5 0
0.1 0.5 0
0.13333333 0.5 0
0.16666667 0.5 0
0.2 0.5 0
0.23333333 0.5 0
0.26666667 0.5 0
0.3 0.5 0
0.33333333 0.5 0
0.36666667 0.5 0
0.4 0.5 0
0.43333333 0.5 0
0.46666667 0.5 0
0.5 0.5 0
0.53333333 0.5 0
0.56666667 0.5 0
0.6 0.5 0
0.63333333 0.5 0
0.66666667 0.5 0
0.7 0.5 0
0.73333333 0.5 0
0.76666667 0.5 0
0.8 0.5 0
0.83333333 0.5 0
0.86666667 0.5 0
0.9 0.5 0
0.93333333 0.5 0
0.96666667 0.5 0
1 0.5 0
0 0.53333333 0
0.033333333 0.53333333 0
0.066666667 0.53333333 0
0.1 0.53333333 0
0.13333333 0.53333333 0
0.16666667 0.53333333 0
0.2 0.53333333 0
0.23333333 0.53333333 0
0.26666667 0.53333333 0
0.3 0.53333333 0
0.33333333 0.53333333 0
0.36666667 0.53333333 0
0.4 0.53333333 0
0.43333333 0.53333333 0
0.46666667 0.53333333 0
0.5 0.53333333 0
0.53333333 0.53333333 0
0.56666667 0.53333333 0
0.6 0.53333333 0
0.63333333 0.53333333 0
0.66666667 0.53333333 0
0.7 0.53333333 0
0.73333333 0.53333333 0
0.76666667 0.53333333 0
[...]
CELL_DATA 1920
Scalars  Label int 1
LOOKUP_TABLE FreeFempp_table
0
0
0
0
0
0
0
0
0
0
0
0
0
0
0
0
0
0
0
0
0
0
0
0
0
0
0
0
0
0
0
0
0
0
0
0
0
0
0
0
0
0
0
0
0
0
0
0
0
0
0
0
0
0
0
0
0
0
0
0
0
0
0
0
0
0
0
0
0
0
0
0
0
0
0
0
0
0
0
0
0
0
0
0
0
0
0
0
0
0
0
0
0
0
0
0
0
0
0
0
0
0
0
0
0
0
0
0
0
0
0
0
0
0
0
0
0
0
0
0
0
0
0
0
0
0
0
0
0
0
0
0
0
0
0
0
0
0
0
0
0
0
0
0
0
0
0
0
0
0
0
0
0
0
0
0
0
0
0
0
0
0
0
0
0
0
0
0
0
0
0
0
0
0
0
0
0
0
0
0
0
0
0
0
0
0
0
0
0
0
0
0
0
0
0
0
0
0
0
0
0
0
0
0
0
0
0
0
0
0
0
0
0
0
0
0
0
0
0
0
0
0
0
0
0
0
0
0
0
0
0
0
0
0
0
0
0
0
0
0
0
0
0
0
0
0
0
0
0
0
0
0
0
0
0
0
0
0
0
0
0
0
0
0
0
0
0
0
0
0
0
0
0
0
0
0
0
0
0
0
0
0
0
0
0
0
0
0
0
0
0
0
0
0
0
0
0
0
0
0
0
0
0
0
0
0
0
0
0
0
0
0
0
0
0
0
0
0
0
0
0
0
0
0
0
0
0
0
0
0
0
0
0
0
0
0
0
0
0
0
0
0
0
0
0
0
0
0
0
0
0
0
0
0
0
0
0
0
0
0
0
0
0
0
0
0
0
0
0
0
0
0
0
0
0
0
0
0
0
0
0
0
0
0
0
0
0
0
0
0
0
0
0
0
0
0
0
0
0
0
0
0
0
0
0
0
0
0
0
0
0
0
0
0
0
0
0
0
0
0
0
0
0
0
0
0
0
0
0
0
0
0
0
0
0
0
0
0
0
0
0
0
0
0
0
0
0
0
0
0
0
0
0
0
0
0
0
0
0
0
0
0
0
0
0
0
0
0
0
0
0
0
0
0
0
0
0
0
0
0
0
0
0
0
0
0
0
0
0
0
0
0
0
0
0
0
0
0
0
0
0
0
0
0
0
0
0
0
0
0
0
0
0
0
0
0
0
0
0
0
0
0
0
0
0
0
0
0
0
0
0
0
0
0
0
0
0
0
0
0
0
0
0
0
0
0
0
0
0
0
0
0
0
0
0
0
0
0
0
0
0
0
0
0
0
0
0
0
0
0
0
0
0
0
0
0
0
0
0
0
0
0
0
0
0
0
0
0
0
0
0
0
0
0
0
0
0
0
0
0
0
0
0
0
0
0
0
0
0
0
0
0
0
0
0
0
0
0
0
0
0
0
0
0
0
0
0
0
0
0
0
0
0
0
0
0
0
0
0
0
0
0
0
0
0
0
0
0
0
0
0
0
0
0
0
0
0
0
0
0
0
0
0
0
0
0
0
0
0
0
0
0
0
0
0
0
0
0
0
0
0
0
0
0
0
0
0
0
0
0
0
0
0
0
0
0
0
0
0
0
0
0
0
0
0
0
0
0
0
0
0
0
0
0
0
0
0
0
0
0
0
0
0
0
0
0
0
0
0
0
0
0
0
0
0
0
0
0
0
0
0
0
0
0
0
0
0
0
0
0
0
0
0
0
0
0
0
0
0
0
0
0
0
0
0
0
0
0
0
0
0
0
0
0
0
0
0
0
0
0
0
0
0
0
0
0
0
0
0
0
0
0
0
0
0
0
0
0
0
0
0
0
0
0
0
0
0
0
0
0
0
0
0
0
0
0
0
0
0
0
0
0
0
0
0
0
0
0
0
0
0
0
0
0
0
0
0
0
0
0
0
0
0
0
0
0
0
0
0
0
0
0
0
0
0
0
0
0
0
0
0
0
0
0
0
0
0
0
0
0
0
0
0
0
0
0
0
0
0
0
0
0
0
0
0
0
0
0
0
0
0
0
0
0
0
0
0
0
0
0
0
0
0
0
0
0
0
0
0
0
0
0
0
0
0
0
0
0
0
0
0
0
0
0
0
0
0
0
0
0
0
0
0
0
0
0
0
0
0
0
0
0
0
0
0
0
0
0
0
0
0
0
0
0
0
0
0
0
0
0
0
0
0
0
0
0
0
0
0
0
0
0
0
0
0
0
0
0
0
0
0
0
0
0
0
0
0
0
0
0
0
0
0
0
0
0
0
0
0
0
0
0
0
0
0
0
0
0
0
0
0
0
0
0
0
0
0
0
0
0
0
0
0
0
0
0
0
0
0
0
0
0
0
0
0
0
0
0
0
0
0
0
0
0
0
0
0
0
0
0
0
0
0
0
0
0
0
0
0
0
0
0
0
0
0
0
0
0
0
0
0
0
0
0
0
0
0
0
0
0
0
0
0
0
0
0
0
0
0
0
0
0
0
0
0
0
0
0
0
0
0
0
0
0
0
0
0
0
0
0
0
0
0
0
0
0
0
0
0
0
0
0
0
0
0
0
0
0
0
0
0
0
0
0
0
0
0
0
0
0
0
0
0
0
0
0
0
0
0
0
0
0
0
0
0
0
0
0
0
0
0
0
0
0
0
0
0
0
0
0
0
0
0
0
0
0
0
0
0
0
0
0
0
0
0
0
0
0
0
0
0
0
0
0
0
0
0
0
0
0
0
0
0
0
0
0
0
0
0
0
0
0
0
0
0
0
0
0
0
0
0
0
0
0
0
0
0
0
0
0
0
0
0
0
0
0
0
0
0
0
0
0
0
0
0
0
0
0
0
0
0
0
0
0
0
0
0
0
0
0
0
0
0
0
0
0
0
0
0
0
0
0
0
0
0
0
0
0
0
0
0
0
0
0
0
0
0
0
0
0
0
0
0
0
0
0
0
0
0
0
0
0
0
0
0
0
0
0
0
0
0
0
0
0
0
0
0
0
0
0
0
0
0
0
0
0
0
0
0
0
0
0
0
0
0
0
0
0
0
0
0
0
0
0
0
0
0
0
0
0
0
0
0
0
0
0
0
0
0
0
0
0
0
0
0
0
0
0
0
0
0
0
0
0
0
0
0
0
0
0
0
0
0
0
0
0
0
0
0
0
0
0
0
0
0
0
0
0
0
0
0
0
0
0
0
0
0
0
0
0
0
0
0
0
0
0
0
0
0
0
0
0
0
0
0
0
0
0
0
0
0
0
0
0
0
0
0
0
0
0
0
0
0
0
0
0
0
0
0
0
0
0
0
0
0
0
0
0
0
0
0
0
0
0
0
0
0
0
0
0
0
0
0
0
0
0
0
0
0
0
0
0
0
0
0
0
0
0
0
0
0
0
0
0
0
0
0
0
0
0
0
0
0
0
0
0
0
0
0
0
0
0
0
0
0
0
0
0
0
0
0
0
0
0
0
0
0
0
0
0
0
0
0
0
0
0
0
0
0
0
0
0
0
0
0
0
0
0
0
0
0
0
0
0
0
0
0
0
0
0
0
0
0
0
0
0
0
0
0
0
0
0
0
0
0
0
0
0
0
0
0
0
0
0
0
0
0
0
0
0
0
0
0
0
0
0
0
0
0
0
0
0
0
0
0
0
0
0
0
0
0
0
0
0
0
0
0
0
0
0
0
0
0
0
0
0
0
0
0
0
0
0
0
0
0
0
0
0
0
0
0
0
0
0
0
0
0
0
0
0
0
0
0
0
0
0
0
0
0
0
0
0
0
0
0
0
0
0
0
0
0
0
0
0
0
0
0
0
0
0
0
0
0
0
0
0
0
0
0
0
0
0
0
0
0
0
0
0
0
0
0
0
0
0
0
0
0
0
0
0
0
0
0
0
0
0
0
0
0
0
0
0
0
0
0
0
0
0
0
0
0
0
0
0
0
0
0
0
0
0
0
0
0
0
0
0
0
0
0
0
0
0
0
0
0
0
0
0
0
0
0
0
0
0
0
0
0
0
0
0
0
0
0
0
0
0
0
0
0
0
0
0
0
0
0
0
0
0
0
0
0
0
0
0
0
0
0
0
0
0
1
1
1
1
1
1
1
1
1
1
1
1
1
1
1
1
1
1
1
1
1
1
1
1
1
1
1
1
1
1
2
2
2
2
2
2
2
2
2
2
2
2
2
2
2
2
2
2
2
2
2
2
2
2
2
2
2
2
2
2
3
3
3
3
3
3
3
3
3
3
3
3
3
3
3
3
3
3
3
3
3
3
3
3
3
3
3
3
3
3
4
4
4
4
4
4
4
4
4
4
4
4
4
4
4
4
4
4
4
4
4
4
4
4
4
4
4
4
4
4

LOOKUP_TABLE FreeFempp_table 5
1.00000000 0.00000000 0.00000000 1.00000000
1.00000000 1.00000000 0.00000000 1.00000000
1.00000000 0.00000000 1.00000000 1.00000000
0.00000000 1.00000000 0.00000000 1.00000000
0.00000000 1.00000000 1.00000000 1.00000000

POINT_DATA 961
FIELD FieldData 1
Density 1 961 float
1.39062345e-01 1.09965213e-01 1.04867250e-01 1.05595790e-01 1.06896415e-01 1.06855549e-01 9.72733423e-02 5.21033667e-02 7.63226021e-03 1.90209947e-03 2.68078363e-03 2.82292627e-02 3.23329061e-01 4.97358471e-01 5.77676117e-01 7.67919183e-01 9.04915214e-01 8.59768927e-01 8.40502739e-01 9.19389904e-01 8.51011693e-01 8.01319957e-01 8.00439417e-01 8.18055212e-01 8.48047495e-01 8.64361048e-01 8.10766459e-01 7.69307017e-01 7.45075583e-01 7.28260338e-01 7.09055543e-01 2.81034922e-03 3.30710737e-03 3.34994053e-03 3.56337661e-03 3.88444797e-03 4.36616130e-03 5.04210126e-03 5.17328409e-03 2.91832327e-03 1.22732250e-03 1.42599980e-03 8.53998121e-03 1.61714330e-01 4.29964632e-01 5.14815569e-01 7.29057074e-01 9.12980676e-01 7.95627415e-01 1.69782966e-01 1.60232052e-01 5.26352227e-02 2.63471585e-02 2.27325391e-02 2.83114463e-02 9.82020572e-02 6.51285470e-01 7.96647310e-01 7.70502746e-01 7.43885696e-01 7.29193270e-01 7.14620173e-01 1.87696179e-03 6.64858962e-04 2.92683428e-04 2.40522058e-04 2.44903204e-04 2.63846508e-04 3.02984758e-04 3.55639233e-04 3.47679743e-04 3.21487518e-04 3.97714874e-04 8.76956154e-04 6.18229248e-03 1.81180358e-01 4.20632392e-01 6.13395333e-01 8.83821785e-01 7.97478080e-01 4.43146825e-02 9.31860320e-03 4.41451883e-03 2.24136910e-03 1.48679584e-03 1.15936133e-03 1.83218112e-03 1.06758047e-02 3.44271839e-01 6.37632787e-01 6.48311913e-01 6.51218593e-01 6.66346729e-01 8.12318698e-02 1.52417440e-02 4.69492702e-03 3.24962754e-03 2.95174983e-03 2.88481428e-03 2.89527280e-03 2.93927151e-03 2.99855671e-03 3.10462667e-03 2.58413586e-03 1.11907371e-03 5.69769240e-04 5.07004885e-03 1.03142798e-01 2.89134681e-01 7.72265255e-01 9.09489989e-01 1.85576946e-01 9.18924902e-03 2.31244904e-03 2.01762165e-03 1.64611242e-03 1.14701362e-03 8.10954662e-04 8.13371211e-04 6.67274743e-03 2.57391840e-01 5.19470394e-01 5.56037128e-01 5.97987235e-01 3.73416066e-01 2.34786719e-01 1.51889339e-01 1.40400916e-01 1.45225227e-01 1.55295536e-01 1.68536454e-01 1.83227137e-01 1.97314948e-01 2.05606952e-01 1.65568709e-01 3.92351486e-02 5.44063793e-03 2.31869123e-03 2.16610800e-03 7.20719295e-03 2.12568551e-01 8.69407833e-01 8.26739669e-01 3.21741030e-02 4.47119353e-03 4.00803564e-03 4.17723553e-03 3.98829440e-03 3.52849136e-03 2.88045872e-03 1.86274876e-03 6.45649526e-03 2.26105332e-01 4.85360503e-01 5.54111481e-01 4.53064531e-01 3.54718864e-01 3.00275356e-01 2.95179248e-01 3.04027766e-01 3.20740551e-01 3.42255026e-01 3.65085393e-01 3.86144191e-01 4.02367175e-01 4.02642846e-01 3.33924383e-01 2.34897181e-01 1.26154453e-01 5.65179484e-03 8.94778292e-04 3.09456885e-03 4.06510271e-02 8.25655818e-01 7.07237840e-01 4.83359471e-02 2.42709890e-02 2.46325154e-02 2.57865805e-02 3.17312516e-02 4.40470204e-02 3.82887907e-02 3.78336641e-03 5.93077485e-03 2.20710382e-01 4.96377230e-01 5.04622996e-01 4.22928303e-01 3.82597059e-01 3.75428110e-01 3.76608282e-01 3.84190112e-01 3.95882487e-01 4.09098625e-01 4.21842456e-01 4.32897121e-01 4.39458042e-01 4.36353326e-01 4.31544095e-01 4.15782720e-01 1.99715540e-01 1.62385087e-02 2.89372331e-03 1.17891410e-03 1.61547158e-02 6.94828689e-01 8.54887962e-01 7.14455843e-01 5.35697401e-01 3.80027294e-01 3.61482888e-01 4.56827700e-01 4.04807240e-01 6.01795129e-02 1.85715652e-03 9.12303757e-03 2.16258034e-01 5.71968079e-01 5.15033126e-01 4.89693344e-01 4.84958589e-01 4.81705397e-01 4.81483728e-01 4.84319299e-01 4.89363223e-01 4.95656312e-01 5.02278924e-01 5.07507861e-01 5.08936405e-01 5.06757379e-01 5.01029372e-01 4.75963145e-01 3.56968701e-01 1.70155600e-01 8.68390501e-03 2.95735570e-03 4.90481872e-03 2.85234954e-02 7.99982488e-01 9.18956101e-01 9.21341777e-01 9.42923546e-01 9.46278811e-01 9.29759800e-01 2.46403188e-01 3.42406216e-03 2.49355985e-03 6.39530495e-02 6.53615892e-01 6.28215492e-01 6.14009261e-01 6.08597279e-01 6.02069676e-01 5.96849501e-01 5.93755364e-01 5.92943072e-01 5.94083905e-01 5.96371830e-01 5.98467350e-01 5.98945439e-01 5.97311318e-01 5.93744814e-01 5.87731481e-01 5.78301191e-01 5.63425779e-01 4.01635289e-01 1.94154590e-01 7.11681228e-03 8.78888823e-04 4.63223131e-03 1.14200786e-02 2.93639842e-02 6.22025132e-01 6.78378105e-01 6.95208758e-02 2.75101751e-01 1.92904472e-02 7.76432455e-04 2.17814115e-03 7.30005205e-01 7.35451877e-01 7.28397071e-01 7.21731424e-01 7.13992834e-01 7.06796885e-01 7.00688362e-01 6.96045220e-01 6.92864716e-01 6.90667152e-01 6.88673973e-01 6.86245978e-01 6.83227599e-01 6.79835856e-01 6.76569164e-01 6.74562991e-01 6.74904227e-01 6.70592904e-01 6.56532526e-01 3.64536554e-01 1.68926269e-02 5.92727726e-03 2.78012361e-03 7.47690676e-04 4.00861353e-03 7.13858334e-03 2.70443014e-03 4.01953906e-02 8.81225944e-01 7.09669199e-03 7.36414280e-04 7.73294926e-01 7.98653007e-01 7.96020806e-01 7.90205717e-01 7.84025788e-01 7.77689815e-01 7.71347046e-01 7.65295386e-01 7.59707332e-01 7.54450500e-01 7.49248624e-01 7.44002461e-01 7.38935530e-01 7.34516501e-01 7.31444895e-01 7.30667472e-01 7.33096898e-01 7.39311814e-01 7.50429332e-01 7.57725716e-01 6.65104032e-01 5.50923049e-01 3.21130782e-01 1.57813467e-02 4.90228459e-03 1.79861870e-03 3.05787590e-03 4.54321131e-02 9.30615783e-01 1.45233553e-02 4.00051242e-04 7.69456148e-01 8.03347409e-01 8.04080963e-01 8.00386012e-01 7.97265828e-01 7.93665648e-01 7.89550304e-01 7.84975529e-01 7.79949844e-01 7.74312735e-01 7.67964959e-01 7.61117101e-01 7.54305661e-01 7.48253644e-01 7.43745267e-01 7.41466641e-01 7.41819501e-01 7.45103359e-01 7.52204418e-01 7.66039014e-01 7.88738370e-01 8.18651795e-01 8.21320593e-01 7.24784851e-01 5.63035369e-01 8.21759626e-02 1.19571656e-01 7.45916605e-01 9.72949862e-01 1.45556619e-02 2.25686061e-04 7.18188167e-01 7.47137368e-01 7.49904573e-01 7.48078704e-01 7.48295307e-01 7.49082863e-01 7.50876069e-01 7.53030419e-01 7.54020095e-01 7.52489388e-01 7.48089015e-01 7.41418421e-01 7.33573794e-01 7.25749433e-01 7.18974352e-01 7.13894486e-01 7.10669577e-01 7.09233940e-01 7.09897876e-01 7.14284778e-01 7.25482464e-01 7.45164216e-01 7.66402364e-01 7.90160835e-01 8.31640601e-01 8.18820179e-01 8.87855530e-01 9.80079710e-01 9.83237922e-01 1.41528975e-02 2.39393456e-04 6.31349921e-01 6.29404068e-01 6.24398410e-01 6.20784760e-01 6.23159230e-01 6.31673992e-01 6.48042858e-01 6.68893039e-01 6.87092602e-01 6.97694361e-01 7.00070143e-01 6.96110427e-01 6.88326359e-01 6.78975880e-01 6.69783533e-01 6.61830604e-01 6.55568540e-01 6.51069105e-01 6.48401856e-01 6.47875011e-01 6.49489880e-01 6.51797771e-01 6.52031004e-01 6.48785353e-01 6.44182742e-01 6.47731125e-01 7.39367247e-01 9.32427049e-01 9.66056883e-01 1.17928274e-02 2.46704032e-04 5.35940528e-01 4.74233866e-01 4.34979886e-01 4.20114249e-01 4.23277169e-01 4.46485609e-01 4.91350502e-01 5.47768652e-01 5.97215414e-01 6.28538549e-01 6.42064989e-01 6.42876923e-01 6.36061132e-01 6.25489354e-01 6.13938093e-01 6.03346407e-01 5.94995141e-01 5.89663506e-01 5.87680697e-01 5.88708401e-01 5.91158390e-01 5.92050076e-01 5.88525891e-01 5.79956710e-01 5.71356416e-01 5.86238563e-01 6.93659127e-01 9.04640079e-01 9.31407630e-01 1.04138972e-02 3.05771420e-04 4.52145785e-01 3.22821409e-01 2.39123002e-01 2.15273872e-01 2.24263936e-01 2.65439570e-01 3.41289222e-01 4.36033010e-01 5.18863618e-01 5.70991516e-01 5.94880641e-01 5.99989891e-01 5.94150722e-01 5.82563937e-01 5.68792462e-01 5.55564880e-01 5.45134425e-01 5.39304137e-01 5.39133132e-01 5.44370055e-01 5.52987635e-01 5.61835051e-01 5.69249928e-01 5.78441978e-01 6.01469994e-01 6.66511357e-01 8.00046563e-01 9.26396310e-01 8.69685650e-01 8.79605953e-03 3.44063708e-04 3.77506822e-01 1.96936205e-01 1.07425340e-01 9.22458097e-02 1.08736485e-01 1.60149679e-01 2.56372720e-01 3.77313852e-01 4.79684651e-01 5.41440725e-01 5.69294930e-01 5.76084316e-01 5.70791662e-01 5.58748424e-01 5.43494523e-01 5.27988613e-01 5.15107334e-01 5.07618546e-01 5.07696748e-01 5.16101718e-01 5.31497896e-01 5.51109016e-01 5.74290574e-01 6.07192576e-01 6.63527191e-01 7.57506490e-01 8.69645894e-01 9.23684955e-01 7.26505041e-01 6.88874116e-03 3.92988004e-04 3.03968310e-01 1.04545332e-01 4.46979851e-02 4.07879241e-02 6.10471144e-02 1.21913075e-01 2.41121799e-01 3.79705101e-01 4.81876254e-01 5.38047671e-01 5.62605083e-01 5.68745136e-01 5.64102829e-01 5.52862704e-01 5.37795007e-01 5.21432817e-01 5.06630719e-01 4.96655911e-01 4.94853109e-01 5.03923893e-01 5.24820209e-01 5.56184053e-01 5.98020911e-01 6.56462252e-01 7.37371802e-01 8.31772506e-01 9.02510166e-01 8.85408580e-01 4.26642567e-01 5.17651299e-03 4.75789304e-04 2.35828742e-01 4.97479141e-02 1.95627920e-02 2.16301773e-02 4.56483550e-02 1.27644792e-01 2.83486396e-01 4.25730497e-01 5.08108735e-01 5.48443317e-01 5.66087902e-01 5.70974469e-01 5.67751944e-01 5.58918178e-01 5.46220124e-01 5.31392992e-01 5.16671836e-01 5.05123854e-01 5.00811458e-01 5.08783638e-01 5.33928454e-01 5.78061640e-01 6.41140997e-01 7.22465515e-01 8.09527695e-01 8.79183114e-01 8.97047997e-01 7.19222009e-01 6.68960959e-02 2.77480879e-03 5.71033044e-04 1.84214026e-01 2.38275677e-02 9.76681337e-03 1.46080172e-02 4.77611385e-02 1.75077513e-01 3.65807623e-01 4.84868288e-01 5.37497401e-01 5.61088622e-01 5.72356343e-01 5.76584101e-01 5.75587690e-01 5.70429265e-01 5.62011480e-01 5.51306307e-01 5.39715827e-01 5.29600859e-01 5.25018394e-01 5.32840192e-01 5.62510788e-01 6.20322347e-01 7.03273356e-01 7.94120491e-01 8.62779856e-01 8.88435662e-01 8.05310071e-01 2.83264279e-01 1.34233786e-02 1.67391519e-03 9.32652270e-04 1.52859226e-01 1.29016256e-02 5.69467526e-03 1.29581578e-02 6.86865523e-02 2.67458975e-01 4.54806149e-01 5.31991124e-01 5.58640778e-01 5.70369542e-01 5.77415884e-01 5.81674695e-01 5.83259523e-01 5.82337201e-01 5.79305887e-01 5.74710071e-01 5.69414675e-01 5.65222323e-01 5.66049755e-01 5.79931021e-01 6.20014071e-01 6.94490135e-01 7.85200596e-01 8.54889393e-01 8.77507806e-01 8.13773692e-01 4.34604138e-01 3.49337608e-02 4.22656815e-03 1.74648792e-03 1.83427124e-03 1.36401877e-01 8.25904030e-03 3.84061667e-03 1.54421432e-02 1.23998739e-01 3.83014202e-01 5.21690667e-01 5.59765697e-01 5.69892526e-01 5.74803114e-01 5.79475462e-01 5.84187388e-01 5.88324428e-01 5.91634989e-01 5.94404757e-01 5.97323656e-01 6.01578414e-01 6.09582126e-01 6.26422763e-01 6.60994053e-01 7.22680092e-01 8.04012299e-01 8.63267481e-01 8.61075580e-01 7.62133658e-01 4.41751242e-01 5.95618822e-02 7.92444777e-03 2.58285622e-03 3.01917107e-03 5.07693365e-03 1.22076556e-01 6.14483468e-03 3.12720728e-03 2.48509459e-02 2.27455214e-01 4.82758462e-01 5.59539557e-01 5.71622372e-01 5.72763145e-01 5.74087203e-01 5.77711165e-01 5.83250105e-01 5.89847326e-01 5.97185671e-01 6.05839849e-01 6.17275476e-01 6.33922160e-01 6.59701645e-01 7.00376511e-01 7.59913683e-01 8.28670382e-01 8.72842491e-01 8.44200909e-01 5.93284011e-01 1.56131402e-01 3.03695928e-02 8.24720226e-03 3.71069624e-03 3.87394591e-03 9.33770929e-03 2.76087616e-02 8.48083794e-02 4.83870227e-03 3.28400126e-03 5.42255081e-02 3.57654363e-01 5.46137989e-01 5.74175537e-01 5.71897089e-01 5.68331718e-01 5.68106294e-01 5.71810424e-01 5.78649461e-01 5.87683618e-01 5.98711669e-01 6.12767696e-01 6.32225335e-01 6.60598099e-01 7.01947927e-01 7.58570135e-01 8.24309409e-01 8.78084481e-01 8.84312510e-01 6.94811165e-01 1.56412095e-01 2.95401327e-02 1.12728942e-02 6.87020086e-03 7.82185886e-03 1.63060203e-02 5.76838627e-02 1.88341424e-01 2.93305684e-02 3.34132113e-03 3.94348614e-03 1.31663650e-01 4.76884931e-01 5.75977087e-01 5.72965920e-01 5.63000560e-01 5.57266235e-01 5.57066858e-01 5.61860621e-01 5.70466220e-01 5.81888616e-01 5.96004009e-01 6.14067256e-01 6.38821661e-01 6.73868954e-01 7.21856892e-01 7.80964971e-01 8.40720594e-01 8.82862568e-01 8.83614659e-01 7.49892175e-01 2.73030013e-01 6.51304722e-02 4.01610062e-02 5.08626178e-02 1.08972237e-01 2.96781778e-01 5.18316686e-01 5.92653036e-01 7.23931799e-03 2.06739549e-03 4.64019924e-03 2.27008358e-01 5.49667835e-01 5.80836058e-01 5.60907125e-01 5.46719730e-01 5.40677667e-01 5.41741669e-01 5.48327327e-01 5.58953404e-01 5.72604835e-01 5.89069426e-01 6.09321713e-01 6.35668397e-01 6.71040416e-01 7.16880739e-01 7.70089746e-01 8.21457267e-01 8.58184874e-01 8.66627038e-01 8.23964536e-01 7.04811811e-01 6.33020043e-01 6.73368633e-01 7.55759180e-01 8.19067001e-01 8.59092951e-01 8.67978096e-01 8.27515185e-01 2.57233321e-03 1.53859169e-03 5.61022526e-03 2.94500291e-01 5.79324186e-01 5.69193482e-01 5.40476859e-01 5.24968386e-01 5.20380735e-01 5.23515224e-01 5.32060087e-01 5.44561446e-01 5.60160577e-01 5.78476727e-01 5.99759221e-01 6.25132918e-01 6.56347811e-01 6.94364548e-01 7.37171769e-01 7.78925061e-01 8.11887860e-01 8.29381287e-01 8.29195917e-01 8.23521435e-01 8.38089943e-01 8.58904123e-01 8.70879173e-01 8.78179848e-01 8.80800128e-01 8.74880612e-01 8.39814603e-01 1.25956046e-03 1.34746614e-03 7.51673896e-03 3.51728290e-01 5.85354269e-01 5.45505702e-01 5.13622582e-01 5.00738859e-01 4.99235451e-01 5.04457593e-01 5.14264643e-01 5.27835727e-01 5.44823170e-01 5.64849913e-01 5.87375939e-01 6.11947775e-01 6.38555944e-01 6.67480052e-01 6.98285758e-01 7.28766501e-01 7.55170166e-01 7.73656666e-01 7.82616079e-01 7.86075234e-01 7.88084149e-01 7.82826483e-01 7.73309112e-01 7.70974636e-01 7.76334941e-01 7.82687724e-01 7.67912745e-01 5.89647505e-04 1.27783103e-03 1.31385224e-02 4.18235749e-01 5.75830102e-01 5.14880061e-01 4.87330914e-01 4.79797363e-01 4.80781525e-01 4.86240745e-01 4.95338202e-01 5.08393764e-01 5.25880158e-01 5.47787786e-01 5.73237419e-01 6.00492418e-01 6.27477825e-01 6.52532101e-01 6.74760640e-01 6.93596423e-01 7.07973480e-01 7.15944111e-01 7.15552986e-01 7.07205832e-01 6.93528771e-01 6.76933348e-01 6.63592100e-01 6.60151780e-01 6.65610552e-01 6.78385317e-01 6.86181545e-01 4.18430631e-04 3.01978970e-03 5.49689457e-02 5.34190238e-01 5.88152230e-01 5.14058530e-01 4.92879391e-01 4.87049848e-01 4.85934585e-01 4.87771302e-01 4.93075758e-01 5.02969623e-01 5.18530190e-01 5.40262282e-01 5.67574203e-01 5.98443866e-01 6.29565299e-01 6.57053709e-01 6.77352726e-01 6.87873721e-01 6.87292337e-01 6.75952613e-01 6.56857014e-01 6.36070967e-01 6.19636118e-01 6.09437168e-01 6.03925228e-01 6.01386607e-01 6.01623237e-01 6.11501455e-01 6.33430898e-01 1.08287123e-03 5.67376707e-03 4.58976984e-01 7.04056442e-01 6.51551723e-01 5.67191064e-01 5.49908042e-01 5.42443573e-01 5.38361669e-01 5.36997139e-01 5.38756192e-01 5.44462681e-01 5.54976881e-01 5.70788741e-01 5.91589689e-01 6.15958869e-01 6.41339481e-01 6.64353549e-01 6.81300581e-01 6.88754141e-01 6.84367359e-01 6.68184638e-01 6.44482970e-01 6.21899903e-01 6.08355463e-01 6.04739606e-01 6.05750144e-01 6.06286824e-01 6.05529845e-01 6.08732462e-01 6.24592662e-01 
