# vtk DataFile Version 2.0
results_case1_non_linear/iter5.vtk, Created by Freefem++ 
ASCII
DATASET UNSTRUCTURED_GRID
POINTS 961 float
0 0 0
0.033333333 0 0
0.066666667 0 0
0.1 0 0
0.13333333 0 0
0.16666667 0 0
0.2 0 0
0.23333333 0 0
0.26666667 0 0
0.3 0 0
0.33333333 0 0
0.36666667 0 0
0.4 0 0
0.43333333 0 0
0.46666667 0 0
0.5 0 0
0.53333333 0 0
0.56666667 0 0
0.6 0 0
0.63333333 0 0
0.66666667 0 0
0.7 0 0
0.73333333 0 0
0.76666667 0 0
0.8 0 0
0.83333333 0 0
0.86666667 0 0
0.9 0 0
0.93333333 0 0
0.96666667 0 0
1 0 0
0 0.033333333 0
0.033333333 0.033333333 0
0.066666667 0.033333333 0
0.1 0.033333333 0
0.13333333 0.033333333 0
0.16666667 0.033333333 0
0.2 0.033333333 0
0.23333333 0.033333333 0
0.26666667 0.033333333 0
0.3 0.033333333 0
0.33333333 0.033333333 0
0.36666667 0.033333333 0
0.4 0.033333333 0
0.43333333 0.033333333 0
0.46666667 0.033333333 0
0.5 0.033333333 0
0.53333333 0.033333333 0
0.56666667 0.033333333 0
0.6 0.033333333 0
0.63333333 0.033333333 0
0.66666667 0.033333333 0
0.7 0.033333333 0
0.73333333 0.033333333 0
0.76666667 0.033333333 0
0.8 0.033333333 0
0.83333333 0.033333333 0
0.86666667 0.033333333 0
0.9 0.033333333 0
0.93333333 0.033333333 0
0.96666667 0.033333333 0
1 0.033333333 0
0 0.066666667 0
0.033333333 0.066666667 0
0.066666667 0.066666667 0
0.1 0.066666667 0
0.13333333 0.066666667 0
0.16666667 0.066666667 0
0.2 0.066666667 0
0.23333333 0.066666667 0
0.26666667 0.066666667 0
0.3 0.066666667 0
0.33333333 0.066666667 0
0.36666667 0.066666667 0
0.4 0.066666667 0
0.43333333 0.066666667 0
0.46666667 0.066666667 0
0.5 0.066666667 0
0.53333333 0.066666667 0
0.56666667 0.066666667 0
0.6 0.066666667 0
0.63333333 0.066666667 0
0.66666667 0.066666667 0
0.7 0.066666667 0
0.73333333 0.066666667 0
0.76666667 0.066666667 0
0.8 0.066666667 0
0.83333333 0.066666667 0
0.86666667 0.066666667 0
0.9 0.066666667 0
0.93333333 0.066666667 0
0.96666667 0.066666667 0
1 0.066666667 0
0 0.1 0
0.033333333 0.1 0
0.066666667 0.1 0
0.1 0.1 0
0.13333333 0.1 0
0.16666667 0.1 0
0.2 0.1 0
0.23333333 0.1 0
0.26666667 0.1 0
0.3 0.1 0
0.33333333 0.1 0
0.36666667 0.1 0
0.4 0.1 0
0.43333333 0.1 0
0.46666667 0.1 0
0.5 0.1 0
0.53333333 0.1 0
0.56666667 0.1 0
0.6 0.1 0
0.63333333 0.1 0
0.66666667 0.1 0
0.7 0.1 0
0.73333333 0.1 0
0.76666667 0.1 0
0.8 0.1 0
0.83333333 0.1 0
0.86666667 0.1 0
0.9 0.1 0
0.93333333 0.1 0
0.96666667 0.1 0
1 0.1 0
0 0.13333333 0
0.033333333 0.13333333 0
0.066666667 0.13333333 0
0.1 0.13333333 0
0.13333333 0.13333333 0
0.16666667 0.13333333 0
0.2 0.13333333 0
0.23333333 0.13333333 0
0.26666667 0.13333333 0
0.3 0.13333333 0
0.33333333 0.13333333 0
0.36666667 0.13333333 0
0.4 0.13333333 0
0.43333333 0.13333333 0
0.46666667 0.13333333 0
0.5 0.13333333 0
0.53333333 0.13333333 0
0.56666667 0.13333333 0
0.6 0.13333333 0
0.63333333 0.13333333 0
0.66666667 0.13333333 0
0.7 0.13333333 0
0.73333333 0.13333333 0
0.76666667 0.13333333 0
0.8 0.13333333 0
0.83333333 0.13333333 0
0.86666667 0.13333333 0
0.9 0.13333333 0
0.93333333 0.13333333 0
0.96666667 0.13333333 0
1 0.13333333 0
0 0.16666667 0
0.033333333 0.16666667 0
0.066666667 0.16666667 0
0.1 0.16666667 0
0.13333333 0.16666667 0
0.16666667 0.16666667 0
0.2 0.16666667 0
0.23333333 0.16666667 0
0.26666667 0.16666667 0
0.3 0.16666667 0
0.33333333 0.16666667 0
0.36666667 0.16666667 0
0.4 0.16666667 0
0.43333333 0.16666667 0
0.46666667 0.16666667 0
0.5 0.16666667 0
0.53333333 0.16666667 0
0.56666667 0.16666667 0
0.6 0.16666667 0
0.63333333 0.16666667 0
0.66666667 0.16666667 0
0.7 0.16666667 0
0.73333333 0.16666667 0
0.76666667 0.16666667 0
0.8 0.16666667 0
0.83333333 0.16666667 0
0.86666667 0.16666667 0
0.9 0.16666667 0
0.93333333 0.16666667 0
0.96666667 0.16666667 0
1 0.16666667 0
0 0.2 0
0.033333333 0.2 0
0.066666667 0.2 0
0.1 0.2 0
0.13333333 0.2 0
0.16666667 0.2 0
0.2 0.2 0
0.23333333 0.2 0
0.26666667 0.2 0
0.3 0.2 0
0.33333333 0.2 0
0.36666667 0.2 0
0.4 0.2 0
0.43333333 0.2 0
0.46666667 0.2 0
0.5 0.2 0
0.53333333 0.2 0
0.56666667 0.2 0
0.6 0.2 0
0.63333333 0.2 0
0.66666667 0.2 0
0.7 0.2 0
0.73333333 0.2 0
0.76666667 0.2 0
0.8 0.2 0
0.83333333 0.2 0
0.86666667 0.2 0
0.9 0.2 0
0.93333333 0.2 0
0.96666667 0.2 0
1 0.2 0
0 0.23333333 0
0.033333333 0.23333333 0
0.066666667 0.23333333 0
0.1 0.23333333 0
0.13333333 0.23333333 0
0.16666667 0.23333333 0
0.2 0.23333333 0
0.23333333 0.23333333 0
0.26666667 0.23333333 0
0.3 0.23333333 0
0.33333333 0.23333333 0
0.36666667 0.23333333 0
0.4 0.23333333 0
0.43333333 0.23333333 0
0.46666667 0.23333333 0
0.5 0.23333333 0
0.53333333 0.23333333 0
0.56666667 0.23333333 0
0.6 0.23333333 0
0.63333333 0.23333333 0
0.66666667 0.23333333 0
0.7 0.23333333 0
0.73333333 0.23333333 0
0.76666667 0.23333333 0
0.8 0.23333333 0
0.83333333 0.23333333 0
0.86666667 0.23333333 0
0.9 0.23333333 0
0.93333333 0.23333333 0
0.96666667 0.23333333 0
1 0.23333333 0
0 0.26666667 0
0.033333333 0.26666667 0
0.066666667 0.26666667 0
0.1 0.26666667 0
0.13333333 0.26666667 0
0.16666667 0.26666667 0
0.2 0.26666667 0
0.23333333 0.26666667 0
0.26666667 0.26666667 0
0.3 0.26666667 0
0.33333333 0.26666667 0
0.36666667 0.26666667 0
0.4 0.26666667 0
0.43333333 0.26666667 0
0.46666667 0.26666667 0
0.5 0.26666667 0
0.53333333 0.26666667 0
0.56666667 0.26666667 0
0.6 0.26666667 0
0.63333333 0.26666667 0
0.66666667 0.26666667 0
0.7 0.26666667 0
0.73333333 0.26666667 0
0.76666667 0.26666667 0
0.8 0.26666667 0
0.83333333 0.26666667 0
0.86666667 0.26666667 0
0.9 0.26666667 0
0.93333333 0.26666667 0
0.96666667 0.26666667 0
1 0.26666667 0
0 0.3 0
0.033333333 0.3 0
0.066666667 0.3 0
0.1 0.3 0
0.13333333 0.3 0
0.16666667 0.3 0
0.2 0.3 0
0.23333333 0.3 0
0.26666667 0.3 0
0.3 0.3 0
0.33333333 0.3 0
0.36666667 0.3 0
0.4 0.3 0
0.43333333 0.3 0
0.46666667 0.3 0
0.5 0.3 0
0.53333333 0.3 0
0.56666667 0.3 0
0.6 0.3 0
0.63333333 0.3 0
0.66666667 0.3 0
0.7 0.3 0
0.73333333 0.3 0
0.76666667 0.3 0
0.8 0.3 0
0.83333333 0.3 0
0.86666667 0.3 0
0.9 0.3 0
0.93333333 0.3 0
0.96666667 0.3 0
1 0.3 0
0 0.33333333 0
0.033333333 0.33333333 0
0.066666667 0.33333333 0
0.1 0.33333333 0
0.13333333 0.33333333 0
0.16666667 0.33333333 0
0.2 0.33333333 0
0.23333333 0.33333333 0
0.26666667 0.33333333 0
0.3 0.33333333 0
0.33333333 0.33333333 0
0.36666667 0.33333333 0
0.4 0.33333333 0
0.43333333 0.33333333 0
0.46666667 0.33333333 0
0.5 0.33333333 0
0.53333333 0.33333333 0
0.56666667 0.33333333 0
0.6 0.33333333 0
0.63333333 0.33333333 0
0.66666667 0.33333333 0
0.7 0.33333333 0
0.73333333 0.33333333 0
0.76666667 0.33333333 0
0.8 0.33333333 0
0.83333333 0.33333333 0
0.86666667 0.33333333 0
0.9 0.33333333 0
0.93333333 0.33333333 0
0.96666667 0.33333333 0
1 0.33333333 0
0 0.36666667 0
0.033333333 0.36666667 0
0.066666667 0.36666667 0
0.1 0.36666667 0
0.13333333 0.36666667 0
0.16666667 0.36666667 0
0.2 0.36666667 0
0.23333333 0.36666667 0
0.26666667 0.36666667 0
0.3 0.36666667 0
0.33333333 0.36666667 0
0.36666667 0.36666667 0
0.4 0.36666667 0
0.43333333 0.36666667 0
0.46666667 0.36666667 0
0.5 0.36666667 0
0.53333333 0.36666667 0
0.56666667 0.36666667 0
0.6 0.36666667 0
0.63333333 0.36666667 0
0.66666667 0.36666667 0
0.7 0.36666667 0
0.73333333 0.36666667 0
0.76666667 0.36666667 0
0.8 0.36666667 0
0.83333333 0.36666667 0
0.86666667 0.36666667 0
0.9 0.36666667 0
0.93333333 0.36666667 0
0.96666667 0.36666667 0
1 0.36666667 0
0 0.4 0
0.033333333 0.4 0
0.066666667 0.4 0
0.1 0.4 0
0.13333333 0.4 0
0.16666667 0.4 0
0.2 0.4 0
0.23333333 0.4 0
0.26666667 0.4 0
0.3 0.4 0
0.33333333 0.4 0
0.36666667 0.4 0
0.4 0.4 0
0.43333333 0.4 0
0.46666667 0.4 0
0.5 0.4 0
0.53333333 0.4 0
0.56666667 0.4 0
0.6 0.4 0
0.63333333 0.4 0
0.66666667 0.4 0
0.7 0.4 0
0.73333333 0.4 0
0.76666667 0.4 0
0.8 0.4 0
0.83333333 0.4 0
0.86666667 0.4 0
0.9 0.4 0
0.93333333 0.4 0
0.96666667 0.4 0
1 0.4 0
0 0.43333333 0
0.033333333 0.43333333 0
0.066666667 0.43333333 0
0.1 0.43333333 0
0.13333333 0.43333333 0
0.16666667 0.43333333 0
0.2 0.43333333 0
0.23333333 0.43333333 0
0.26666667 0.43333333 0
0.3 0.43333333 0
0.33333333 0.43333333 0
0.36666667 0.43333333 0
0.4 0.43333333 0
0.43333333 0.43333333 0
0.46666667 0.43333333 0
0.5 0.43333333 0
0.53333333 0.43333333 0
0.56666667 0.43333333 0
0.6 0.43333333 0
0.63333333 0.43333333 0
0.66666667 0.43333333 0
0.7 0.43333333 0
0.73333333 0.43333333 0
0.76666667 0.43333333 0
0.8 0.43333333 0
0.83333333 0.43333333 0
0.86666667 0.43333333 0
0.9 0.43333333 0
0.93333333 0.43333333 0
0.96666667 0.43333333 0
1 0.43333333 0
0 0.46666667 0
0.033333333 0.46666667 0
0.066666667 0.46666667 0
0.1 0.46666667 0
0.13333333 0.46666667 0
0.16666667 0.46666667 0
0.2 0.46666667 0
0.23333333 0.46666667 0
0.26666667 0.46666667 0
0.3 0.46666667 0
0.33333333 0.46666667 0
0.36666667 0.46666667 0
0.4 0.46666667 0
0.43333333 0.46666667 0
0.46666667 0.46666667 0
0.5 0.46666667 0
0.53333333 0.46666667 0
0.56666667 0.46666667 0
0.6 0.46666667 0
0.63333333 0.46666667 0
0.66666667 0.46666667 0
0.7 0.46666667 0
0.73333333 0.46666667 0
0.76666667 0.46666667 0
0.8 0.46666667 0
0.83333333 0.46666667 0
0.86666667 0.46666667 0
0.9 0.46666667 0
0.93333333 0.46666667 0
0.96666667 0.46666667 0
1 0.46666667 0
0 0.5 0
0.033333333 0.5 0
0.066666667 0.5 0
0.1 0.5 0
0.13333333 0.5 0
0.16666667 0.5 0
0.2 0.5 0
0.23333333 0.5 0
0.26666667 0.5 0
0.3 0.5 0
0.33333333 0.5 0
0.36666667 0.5 0
0.4 0.5 0
0.43333333 0.5 0
0.46666667 0.5 0
0.5 0.5 0
0.53333333 0.5 0
0.56666667 0.5 0
0.6 0.5 0
0.63333333 0.5 0
0.66666667 0.5 0
0.7 0.5 0
0.73333333 0.5 0
0.76666667 0.5 0
0.8 0.5 0
0.83333333 0.5 0
0.86666667 0.5 0
0.9 0.5 0
0.93333333 0.5 0
0.96666667 0.5 0
1 0.5 0
0 0.53333333 0
0.033333333 0.53333333 0
0.066666667 0.53333333 0
0.1 0.53333333 0
0.13333333 0.53333333 0
0.16666667 0.53333333 0
0.2 0.53333333 0
0.23333333 0.53333333 0
0.26666667 0.53333333 0
0.3 0.53333333 0
0.33333333 0.53333333 0
0.36666667 0.53333333 0
0.4 0.53333333 0
0.43333333 0.53333333 0
0.46666667 0.53333333 0
0.5 0.53333333 0
0.53333333 0.53333333 0
0.56666667 0.53333333 0
0.6 0.53333333 0
0.63333333 0.53333333 0
0.66666667 0.53333333 0
0.7 0.53333333 0
0.73333333 0.53333333 0
0.76666667 0.53333333 0
[...]
CELL_DATA 1920
Scalars  Label int 1
LOOKUP_TABLE FreeFempp_table
0
0
0
0
0
0
0
0
0
0
0
0
0
0
0
0
0
0
0
0
0
0
0
0
0
0
0
0
0
0
0
0
0
0
0
0
0
0
0
0
0
0
0
0
0
0
0
0
0
0
0
0
0
0
0
0
0
0
0
0
0
0
0
0
0
0
0
0
0
0
0
0
0
0
0
0
0
0
0
0
0
0
0
0
0
0
0
0
0
0
0
0
0
0
0
0
0
0
0
0
0
0
0
0
0
0
0
0
0
0
0
0
0
0
0
0
0
0
0
0
0
0
0
0
0
0
0
0
0
0
0
0
0
0
0
0
0
0
0
0
0
0
0
0
0
0
0
0
0
0
0
0
0
0
0
0
0
0
0
0
0
0
0
0
0
0
0
0
0
0
0
0
0
0
0
0
0
0
0
0
0
0
0
0
0
0
0
0
0
0
0
0
0
0
0
0
0
0
0
0
0
0
0
0
0
0
0
0
0
0
0
0
0
0
0
0
0
0
0
0
0
0
0
0
0
0
0
0
0
0
0
0
0
0
0
0
0
0
0
0
0
0
0
0
0
0
0
0
0
0
0
0
0
0
0
0
0
0
0
0
0
0
0
0
0
0
0
0
0
0
0
0
0
0
0
0
0
0
0
0
0
0
0
0
0
0
0
0
0
0
0
0
0
0
0
0
0
0
0
0
0
0
0
0
0
0
0
0
0
0
0
0
0
0
0
0
0
0
0
0
0
0
0
0
0
0
0
0
0
0
0
0
0
0
0
0
0
0
0
0
0
0
0
0
0
0
0
0
0
0
0
0
0
0
0
0
0
0
0
0
0
0
0
0
0
0
0
0
0
0
0
0
0
0
0
0
0
0
0
0
0
0
0
0
0
0
0
0
0
0
0
0
0
0
0
0
0
0
0
0
0
0
0
0
0
0
0
0
0
0
0
0
0
0
0
0
0
0
0
0
0
0
0
0
0
0
0
0
0
0
0
0
0
0
0
0
0
0
0
0
0
0
0
0
0
0
0
0
0
0
0
0
0
0
0
0
0
0
0
0
0
0
0
0
0
0
0
0
0
0
0
0
0
0
0
0
0
0
0
0
0
0
0
0
0
0
0
0
0
0
0
0
0
0
0
0
0
0
0
0
0
0
0
0
0
0
0
0
0
0
0
0
0
0
0
0
0
0
0
0
0
0
0
0
0
0
0
0
0
0
0
0
0
0
0
0
0
0
0
0
0
0
0
0
0
0
0
0
0
0
0
0
0
0
0
0
0
0
0
0
0
0
0
0
0
0
0
0
0
0
0
0
0
0
0
0
0
0
0
0
0
0
0
0
0
0
0
0
0
0
0
0
0
0
0
0
0
0
0
0
0
0
0
0
0
0
0
0
0
0
0
0
0
0
0
0
0
0
0
0
0
0
0
0
0
0
0
0
0
0
0
0
0
0
0
0
0
0
0
0
0
0
0
0
0
0
0
0
0
0
0
0
0
0
0
0
0
0
0
0
0
0
0
0
0
0
0
0
0
0
0
0
0
0
0
0
0
0
0
0
0
0
0
0
0
0
0
0
0
0
0
0
0
0
0
0
0
0
0
0
0
0
0
0
0
0
0
0
0
0
0
0
0
0
0
0
0
0
0
0
0
0
0
0
0
0
0
0
0
0
0
0
0
0
0
0
0
0
0
0
0
0
0
0
0
0
0
0
0
0
0
0
0
0
0
0
0
0
0
0
0
0
0
0
0
0
0
0
0
0
0
0
0
0
0
0
0
0
0
0
0
0
0
0
0
0
0
0
0
0
0
0
0
0
0
0
0
0
0
0
0
0
0
0
0
0
0
0
0
0
0
0
0
0
0
0
0
0
0
0
0
0
0
0
0
0
0
0
0
0
0
0
0
0
0
0
0
0
0
0
0
0
0
0
0
0
0
0
0
0
0
0
0
0
0
0
0
0
0
0
0
0
0
0
0
0
0
0
0
0
0
0
0
0
0
0
0
0
0
0
0
0
0
0
0
0
0
0
0
0
0
0
0
0
0
0
0
0
0
0
0
0
0
0
0
0
0
0
0
0
0
0
0
0
0
0
0
0
0
0
0
0
0
0
0
0
0
0
0
0
0
0
0
0
0
0
0
0
0
0
0
0
0
0
0
0
0
0
0
0
0
0
0
0
0
0
0
0
0
0
0
0
0
0
0
0
0
0
0
0
0
0
0
0
0
0
0
0
0
0
0
0
0
0
0
0
0
0
0
0
0
0
0
0
0
0
0
0
0
0
0
0
0
0
0
0
0
0
0
0
0
0
0
0
0
0
0
0
0
0
0
0
0
0
0
0
0
0
0
0
0
0
0
0
0
0
0
0
0
0
0
0
0
0
0
0
0
0
0
0
0
0
0
0
0
0
0
0
0
0
0
0
0
0
0
0
0
0
0
0
0
0
0
0
0
0
0
0
0
0
0
0
0
0
0
0
0
0
0
0
0
0
0
0
0
0
0
0
0
0
0
0
0
0
0
0
0
0
0
0
0
0
0
0
0
0
0
0
0
0
0
0
0
0
0
0
0
0
0
0
0
0
0
0
0
0
0
0
0
0
0
0
0
0
0
0
0
0
0
0
0
0
0
0
0
0
0
0
0
0
0
0
0
0
0
0
0
0
0
0
0
0
0
0
0
0
0
0
0
0
0
0
0
0
0
0
0
0
0
0
0
0
0
0
0
0
0
0
0
0
0
0
0
0
0
0
0
0
0
0
0
0
0
0
0
0
0
0
0
0
0
0
0
0
0
0
0
0
0
0
0
0
0
0
0
0
0
0
0
0
0
0
0
0
0
0
0
0
0
0
0
0
0
0
0
0
0
0
0
0
0
0
0
0
0
0
0
0
0
0
0
0
0
0
0
0
0
0
0
0
0
0
0
0
0
0
0
0
0
0
0
0
0
0
0
0
0
0
0
0
0
0
0
0
0
0
0
0
0
0
0
0
0
0
0
0
0
0
0
0
0
0
0
0
0
0
0
0
0
0
0
0
0
0
0
0
0
0
0
0
0
0
0
0
0
0
0
0
0
0
0
0
0
0
0
0
0
0
0
0
0
0
0
0
0
0
0
0
0
0
0
0
0
0
0
0
0
0
0
0
0
0
0
0
0
0
0
0
0
0
0
0
0
0
0
0
0
0
0
0
0
0
0
0
0
0
0
0
0
0
0
0
0
0
0
0
0
0
0
0
0
0
0
0
0
0
0
0
0
0
0
0
0
0
0
0
0
0
0
0
0
0
0
0
0
0
0
0
0
0
0
0
0
0
0
0
0
0
0
0
0
0
0
0
0
0
0
0
0
0
0
0
0
0
0
0
0
0
0
0
0
0
0
0
0
0
0
0
0
0
0
0
0
0
0
0
0
0
0
0
0
0
0
0
0
0
0
0
0
0
0
0
0
0
0
0
0
0
0
0
0
0
0
0
0
0
0
0
0
0
0
0
0
0
0
0
0
0
0
0
0
0
0
0
0
0
0
0
0
0
0
0
0
0
0
0
0
0
0
0
0
0
0
0
0
0
0
0
0
0
0
0
0
0
0
0
0
0
0
0
0
0
0
0
0
0
0
0
0
0
0
0
0
0
0
0
0
0
0
0
0
0
0
0
0
0
0
0
0
0
0
0
0
0
0
0
0
0
0
0
0
0
0
0
0
0
0
0
0
0
0
0
0
0
0
0
0
0
0
0
0
0
0
0
0
0
0
0
0
0
0
0
0
0
0
0
0
0
0
0
0
0
0
0
0
0
0
0
0
0
0
0
0
0
0
0
0
0
0
0
0
0
0
0
0
0
0
0
0
0
0
0
0
0
0
0
0
0
0
0
0
0
0
0
0
0
0
0
0
0
0
0
0
0
0
0
0
0
0
0
0
0
0
0
0
0
0
0
0
0
0
0
0
0
0
0
0
0
0
0
0
0
0
0
0
0
0
0
0
0
0
0
0
0
0
0
0
0
0
0
0
0
0
0
0
0
0
0
0
0
0
0
0
0
0
0
0
0
0
0
0
0
0
0
0
0
0
0
0
0
0
0
0
0
0
0
0
0
0
0
1
1
1
1
1
1
1
1
1
1
1
1
1
1
1
1
1
1
1
1
1
1
1
1
1
1
1
1
1
1
2
2
2
2
2
2
2
2
2
2
2
2
2
2
2
2
2
2
2
2
2
2
2
2
2
2
2
2
2
2
3
3
3
3
3
3
3
3
3
3
3
3
3
3
3
3
3
3
3
3
3
3
3
3
3
3
3
3
3
3
4
4
4
4
4
4
4
4
4
4
4
4
4
4
4
4
4
4
4
4
4
4
4
4
4
4
4
4
4
4

LOOKUP_TABLE FreeFempp_table 5
1.00000000 0.00000000 0.00000000 1.00000000
1.00000000 1.00000000 0.00000000 1.00000000
1.00000000 0.00000000 1.00000000 1.00000000
0.00000000 1.00000000 0.00000000 1.00000000
0.00000000 1.00000000 1.00000000 1.00000000

POINT_DATA 961
FIELD FieldData 1
Density 1 961 float
8.29490647e-02 7.56253153e-02 7.55239353e-02 7.63049796e-02 7.76566863e-02 7.85056725e-02 7.64889121e-02 7.46384636e-02 7.38680065e-02 1.30071133e-01 5.24750710e-01 7.08245039e-01 7.35699236e-01 7.33676970e-01 7.29230940e-01 7.22440958e-01 7.10748076e-01 6.82489395e-01 6.15047157e-01 4.95222986e-01 3.70532781e-01 3.06745499e-01 3.26965898e-01 4.95834082e-01 8.06525350e-01 8.97620797e-01 8.97934616e-01 8.96958888e-01 7.98188522e-02 7.85463154e-02 8.28745484e-01 7.52640218e-02 6.37520924e-02 6.20342381e-02 6.20873906e-02 6.23254441e-02 6.26254603e-02 6.28732666e-02 6.28753453e-02 6.32442459e-02 6.38387129e-02 6.26721159e-02 6.19961806e-02 1.26922697e-01 2.28108481e-01 2.67952055e-01 2.88709581e-01 2.91290641e-01 2.41814926e-01 1.33124456e-01 7.60249421e-02 6.57040402e-02 6.33910820e-02 6.31466806e-02 6.51433244e-02 1.09321840e-01 8.46373677e-01 8.81871819e-01 8.78247797e-01 6.35049418e-02 7.01695308e-02 8.82875398e-02 7.62142986e-02 6.25470802e-02 6.22663088e-02 6.24034517e-02 6.27469197e-02 6.30909801e-02 6.33049756e-02 6.33628517e-02 6.37545586e-02 6.56128079e-02 6.51520714e-02 6.52900413e-02 6.42900914e-02 6.23132847e-02 7.25964159e-02 8.66216645e-02 9.21656042e-02 8.51069540e-02 7.44661242e-02 6.71890900e-02 6.39516264e-02 6.28604218e-02 6.27659261e-02 6.46496788e-02 1.18703298e-01 8.58934879e-01 8.82934690e-01 8.79140496e-01 7.31893852e-02 7.00169429e-02 7.67722726e-02 7.61093199e-02 6.25815466e-02 6.21551350e-02 6.22432530e-02 6.27619624e-02 6.36444017e-02 6.46236464e-02 6.58328608e-02 6.68460131e-02 6.72315955e-02 6.53084964e-02 6.40293956e-02 6.56779855e-02 6.53712824e-02 6.42947331e-02 6.25604168e-02 6.36881366e-02 6.37284368e-02 6.29158914e-02 6.22199960e-02 6.17737211e-02 6.16661794e-02 6.18616790e-02 6.31783679e-02 8.96109194e-02 8.36784184e-01 8.83434057e-01 8.80348682e-01 5.60230494e-01 7.23422393e-02 8.42594877e-02 7.81631768e-02 6.22501932e-02 6.19411469e-02 6.23556748e-02 6.38327822e-02 6.55383095e-02 6.76800832e-02 7.02978075e-02 7.25585222e-02 7.37386495e-02 7.53279924e-02 7.46962205e-02 6.83490559e-02 6.29841164e-02 6.38555214e-02 6.37385771e-02 6.27868921e-02 6.17392398e-02 6.12189993e-02 6.09139390e-02 6.07829057e-02 6.07663207e-02 6.08220585e-02 6.15460686e-02 7.24105090e-02 8.10040653e-01 8.83916855e-01 8.81155372e-01 7.41235614e-01 7.09809437e-02 8.74685869e-02 8.95209908e-02 6.20107241e-02 6.23645484e-02 6.35876283e-02 6.69679642e-02 7.17256367e-02 7.75781274e-02 8.50693285e-02 9.31087881e-02 9.96128395e-02 1.05173387e-01 1.07561208e-01 1.06396094e-01 1.00714751e-01 8.30147639e-02 6.15875199e-02 6.19790517e-02 6.17325380e-02 6.12531565e-02 6.09349087e-02 6.07854873e-02 6.07083775e-02 6.06607981e-02 6.07117042e-02 6.44171536e-02 7.27600157e-01 8.84405673e-01 8.81626308e-01 7.95725942e-01 7.04441741e-02 8.71232599e-02 2.02265114e-01 6.33620769e-02 6.60480708e-02 7.26289079e-02 8.53530318e-02 1.07101932e-01 1.36979938e-01 1.69806972e-01 1.99653909e-01 2.23833188e-01 2.44322628e-01 2.59905815e-01 2.73742676e-01 2.95780659e-01 3.24257612e-01 2.64907986e-01 1.09361410e-01 6.09533451e-02 6.09726273e-02 6.08867519e-02 6.07848652e-02 6.07227795e-02 6.06598072e-02 6.06404804e-02 6.23649210e-02 5.86871386e-01 8.85118067e-01 8.82024884e-01 8.31514955e-01 6.96055442e-02 8.62483606e-02 6.06620371e-01 9.03301388e-02 1.57192916e-01 2.13170484e-01 2.69606054e-01 3.42985094e-01 4.09815401e-01 4.59353626e-01 4.91954803e-01 5.12917042e-01 5.27906537e-01 5.39332151e-01 5.52784801e-01 5.76946199e-01 6.17273629e-01 6.64017558e-01 6.74999893e-01 5.06888211e-01 1.02102928e-01 6.12713024e-02 6.06737472e-02 6.06649853e-02 6.06457479e-02 6.06267713e-02 6.21716194e-02 5.63652039e-01 8.85499060e-01 8.82264555e-01 8.57626796e-01 6.84835613e-02 8.49434137e-02 8.54849219e-01 5.71412683e-01 7.42327034e-01 7.41500914e-01 7.39390612e-01 7.50730693e-01 7.56274879e-01 7.55773365e-01 7.50561595e-01 7.42413044e-01 7.32876778e-01 7.23042667e-01 7.15585709e-01 7.14646280e-01 7.23674238e-01 7.43211925e-01 7.69383967e-01 7.85051942e-01 7.66328454e-01 6.51505709e-01 3.85695070e-01 1.40902758e-01 6.34253025e-02 6.17135018e-02 6.89625666e-02 7.37438977e-01 8.83976400e-01 8.82185221e-01 8.71955276e-01 6.71574101e-02 8.33102018e-02 8.94673407e-01 8.74548137e-01 8.77643168e-01 8.71706963e-01 8.65458250e-01 8.60246003e-01 8.53600383e-01 8.45349073e-01 8.34967077e-01 8.22197318e-01 8.06979477e-01 7.89542139e-01 7.71217644e-01 7.54728734e-01 7.43265390e-01 7.39328027e-01 7.44185150e-01 7.55032241e-01 7.63150156e-01 7.59579241e-01 7.48094141e-01 7.15414941e-01 5.26527882e-01 2.74659574e-01 4.54082578e-01 8.33111942e-01 8.81322503e-01 8.81865025e-01 8.77309442e-01 6.57724440e-02 8.15119147e-02 8.95039022e-01 8.76990616e-01 8.76456201e-01 8.75467062e-01 8.73540819e-01 8.71200681e-01 8.67316723e-01 8.61637950e-01 8.53501558e-01 8.42224538e-01 8.27096999e-01 8.07614267e-01 7.84187436e-01 7.58840501e-01 7.35061526e-01 7.16565490e-01 7.05491662e-01 7.01136231e-01 7.00998962e-01 7.01340973e-01 7.01198339e-01 7.01518536e-01 6.91358864e-01 6.90217793e-01 7.69626379e-01 8.53210807e-01 8.78596485e-01 8.81502986e-01 8.78824055e-01 6.44846857e-02 7.97351226e-02 8.79115462e-01 8.61076117e-01 8.60730231e-01 8.65501225e-01 8.66517007e-01 8.66122127e-01 8.63514304e-01 8.58810306e-01 8.51397812e-01 8.40533614e-01 8.25316250e-01 8.04892778e-01 7.79014885e-01 7.49138772e-01 7.19351768e-01 6.95256829e-01 6.80105686e-01 6.72372341e-01 6.69068277e-01 6.68763578e-01 6.72963142e-01 6.87910199e-01 7.18141317e-01 7.65739024e-01 8.20820630e-01 8.59515011e-01 8.76487911e-01 8.80957007e-01 8.78673732e-01 6.33949414e-02 7.81271309e-02 5.17480731e-01 3.08036208e-01 5.64115822e-01 7.62972176e-01 8.19115698e-01 8.36314440e-01 8.40106666e-01 8.38061869e-01 8.31707537e-01 8.21291029e-01 8.06532264e-01 7.86898017e-01 7.61948287e-01 7.33322799e-01 7.06305325e-01 6.85237885e-01 6.74083471e-01 6.72445595e-01 6.76632881e-01 6.84310019e-01 6.96220219e-01 7.17107415e-01 7.51927197e-01 7.96828628e-01 8.37445498e-01 8.63110185e-01 8.75090361e-01 8.79775286e-01 8.75963807e-01 6.25257716e-02 7.67617226e-02 9.90969464e-02 6.48494810e-02 8.26120898e-02 2.77496099e-01 5.75472474e-01 7.11611450e-01 7.59299874e-01 7.75868833e-01 7.78714716e-01 7.73844242e-01 7.63572991e-01 7.48534143e-01 7.29249358e-01 7.10796535e-01 6.99248075e-01 6.91967010e-01 6.89438403e-01 6.95030034e-01 7.08582580e-01 7.26652622e-01 7.45158732e-01 7.64190018e-01 7.87341177e-01 8.16389918e-01 8.45525444e-01 8.65650475e-01 8.74605238e-01 8.77225101e-01 8.59374225e-01 6.18520305e-02 7.56515488e-02 7.47960433e-02 6.12832457e-02 6.34261668e-02 9.29491818e-02 2.72606492e-01 4.78976935e-01 5.93772888e-01 6.49020433e-01 6.74678743e-01 6.84896648e-01 6.86152220e-01 6.81383073e-01 6.74358964e-01 6.75217867e-01 6.85555339e-01 6.92228913e-01 7.10650384e-01 7.26851761e-01 7.48684883e-01 7.73858845e-01 7.94692695e-01 8.09098303e-01 8.19521427e-01 8.31357718e-01 8.48840892e-01 8.66308808e-01 8.74598742e-01 8.72667193e-01 6.55183077e-01 6.13390766e-02 7.47819170e-02 7.38039687e-02 6.13553300e-02 6.16517179e-02 7.10870549e-02 1.52956933e-01 3.07908356e-01 4.26827282e-01 4.98719066e-01 5.41036963e-01 5.65986931e-01 5.80269039e-01 5.88280916e-01 5.97697556e-01 6.20519638e-01 6.46070600e-01 6.72253609e-01 7.11371422e-01 7.47789741e-01 7.80119538e-01 8.10257435e-01 8.30863118e-01 8.42403471e-01 8.47384155e-01 8.49124670e-01 8.53768528e-01 8.65235329e-01 8.72545302e-01 8.54096770e-01 6.62563518e-02 6.09622151e-02 7.41383061e-02 7.38623217e-02 6.15804531e-02 6.14726059e-02 6.71275854e-02 1.10839128e-01 2.16615215e-01 3.15012366e-01 3.81778657e-01 4.25258845e-01 4.54668462e-01 4.75349277e-01 4.91473228e-01 5.11505425e-01 5.48142433e-01 5.97949028e-01 6.44650936e-01 7.02346623e-01 7.49897063e-01 7.95519888e-01 8.30567002e-01 8.50971043e-01 8.61484230e-01 8.66066515e-01 8.66947234e-01 8.66012752e-01 8.66342068e-01 8.57778907e-01 3.19797397e-01 6.06030263e-02 6.07544631e-02 7.36125484e-02 7.40422085e-02 6.18859120e-02 6.15634695e-02 6.73815608e-02 9.74283963e-02 1.70027584e-01 2.47387350e-01 3.04927766e-01 3.44342619e-01 3.72631699e-01 3.94734174e-01 4.14447248e-01 4.37822193e-01 4.74594057e-01 5.28249741e-01 5.93415260e-01 6.62986994e-01 7.32390702e-01 7.94860780e-01 8.36788595e-01 8.59015584e-01 8.69767725e-01 8.74566734e-01 8.76290977e-01 8.76227617e-01 8.74055445e-01 8.40699077e-01 7.46969432e-02 6.07112236e-02 6.07482120e-02 7.33678788e-02 7.43702129e-02 6.22954443e-02 6.18431717e-02 7.06462339e-02 9.72133204e-02 1.50067806e-01 2.08846480e-01 2.56011814e-01 2.90340632e-01 3.16413611e-01 3.38483244e-01 3.60059172e-01 3.85229647e-01 4.19147313e-01 4.66245115e-01 5.29058754e-01 6.08179986e-01 6.96235359e-01 7.75924385e-01 8.29548180e-01 8.58153701e-01 8.71541381e-01 8.77170801e-01 8.79198194e-01 8.79628539e-01 8.79335046e-01 8.73761773e-01 2.85096437e-01 6.11438490e-02 6.03621565e-02 7.34774470e-02 7.50647336e-02 6.28695264e-02 6.27716333e-02 7.73901418e-02 1.04034878e-01 1.43958166e-01 1.87162250e-01 2.23544568e-01 2.52114177e-01 2.75696307e-01 2.97254235e-01 3.19496125e-01 3.45368534e-01 3.77992272e-01 4.20387775e-01 4.76596266e-01 5.51205933e-01 6.42020345e-01 7.33368397e-01 8.03976476e-01 8.46335053e-01 8.67350876e-01 8.76349688e-01 8.79646063e-01 8.80533218e-01 8.80464315e-01 8.80075753e-01 8.76535714e-01 8.47160101e-01 8.39102149e-01 7.83475757e-01 7.66220316e-02 6.37176931e-02 6.48793653e-02 8.99545550e-02 1.14061944e-01 1.42963409e-01 1.72903746e-01 1.99061930e-01 2.21743599e-01 2.42768392e-01 2.63677567e-01 2.85897702e-01 3.11173052e-01 3.41546148e-01 3.79289806e-01 4.27729130e-01 4.91500854e-01 5.72887301e-01 6.65156662e-01 7.50696719e-01 8.13421726e-01 8.50504637e-01 8.68959963e-01 8.76967788e-01 8.79962921e-01 8.80762219e-01 8.80582035e-01 8.79726708e-01 8.78745496e-01 8.78038466e-01 8.96319926e-01 7.98193365e-02 6.52301237e-02 7.03556687e-02 1.11046150e-01 1.25135526e-01 1.42146587e-01 1.60260081e-01 1.77448392e-01 1.94847822e-01 2.13540494e-01 2.33868361e-01 2.55976021e-01 2.80346423e-01 3.07969630e-01 3.40411901e-01 3.80267292e-01 4.31424320e-01 4.97570962e-01 5.78334272e-01 6.65183783e-01 7.43759692e-01 8.02819908e-01 8.40160608e-01 8.60726357e-01 8.70951533e-01 8.75404656e-01 8.76395166e-01 8.73535633e-01 8.74579191e-01 8.50467920e-01 8.91224265e-01 8.51641968e-02 6.81390986e-02 8.13903213e-02 1.39189020e-01 1.35368526e-01 1.39350146e-01 1.46986932e-01 1.56904191e-01 1.70066878e-01 1.86767280e-01 2.06486434e-01 2.28429109e-01 2.52039552e-01 2.77323097e-01 3.05036962e-01 3.36946100e-01 3.75930220e-01 4.25307155e-01 4.87033486e-01 5.59228659e-01 6.35162711e-01 7.05345631e-01 7.61653662e-01 8.00854683e-01 8.24466050e-01 8.34919095e-01 8.29714835e-01 7.89000750e-01 7.70951271e-01 7.13778317e-01 8.30889225e-01 9.21396092e-02 7.28623271e-02 1.00053251e-01 1.68407947e-01 1.42244071e-01 1.33866236e-01 1.33311599e-01 1.38000429e-01 1.48063004e-01 1.63035780e-01 1.81881949e-01 2.03286752e-01 2.26021767e-01 2.49322563e-01 2.73170084e-01 2.98470527e-01 3.27050179e-01 3.61257046e-01 4.03108209e-01 4.53182518e-01 5.09823799e-01 5.68989992e-01 6.24689460e-01 6.70449078e-01 7.01494396e-01 7.14038551e-01 6.95844352e-01 6.35355830e-01 5.91517448e-01 3.91235441e-01 7.89856434e-01 9.90276411e-02 7.94021040e-02 1.22630268e-01 1.92647606e-01 1.43943921e-01 1.25881165e-01 1.20364949e-01 1.22043312e-01 1.30087912e-01 1.43542677e-01 1.61141187e-01 1.81371599e-01 2.02688739e-01 2.23863319e-01 2.44285986e-01 2.64125645e-01 2.84293026e-01 3.06160092e-01 3.31075877e-01 3.59838128e-01 3.92336279e-01 4.27358031e-01 4.62213963e-01 4.92130280e-01 5.10961771e-01 5.13761103e-01 4.91911292e-01 4.83222425e-01 4.69035268e-01 2.95540094e-01 7.14303195e-01 1.05218962e-01 8.95446613e-02 1.41068518e-01 2.07734764e-01 1.39018789e-01 1.15805931e-01 1.09016813e-01 1.09892160e-01 1.16968915e-01 1.29160792e-01 1.45178288e-01 1.63511544e-01 1.82583377e-01 2.01024458e-01 2.17917770e-01 2.32925937e-01 2.46268123e-01 2.58527756e-01 2.70329922e-01 2.82005608e-01 2.93377370e-01 3.03684473e-01 3.11444044e-01 3.13777596e-01 3.05730045e-01 2.84253776e-01 2.48811349e-01 2.47904375e-01 2.39999056e-01 1.46844208e-01 6.69308245e-01 1.12145305e-01 1.16269141e-01 1.27259776e-01 2.05650240e-01 1.25201344e-01 1.04108997e-01 9.97966453e-02 1.01871565e-01 1.08941890e-01 1.20072812e-01 1.34117708e-01 1.49755299e-01 1.65628046e-01 1.80509552e-01 1.93442121e-01 2.03823939e-01 2.11422011e-01 2.16269150e-01 2.18444675e-01 2.17834055e-01 2.14008674e-01 2.06297666e-01 1.94043249e-01 1.76879004e-01 1.54606968e-01 1.28947020e-01 1.05161197e-01 8.79245475e-02 6.83107823e-02 6.69403151e-02 4.04530317e-01 1.31021753e-01 1.08269110e-01 9.39740166e-02 1.71674579e-01 1.04137160e-01 9.32168961e-02 9.38895494e-02 9.83217806e-02 1.05725624e-01 1.15448423e-01 1.26735330e-01 1.38740748e-01 1.50544629e-01 1.61203071e-01 1.69823617e-01 1.75667182e-01 1.78255662e-01 1.77397534e-01 1.73044413e-01 1.65078864e-01 1.53356448e-01 1.38159707e-01 1.20764233e-01 1.03613019e-01 8.96133184e-02 8.09701756e-02 7.74402097e-02 7.06262961e-02 5.49891889e-02 5.66343926e-02 1.00271031e-01 1.39260292e-01 8.41566026e-02 7.69544616e-02 1.61156476e-01 9.23612788e-02 8.95331800e-02 9.41934139e-02 9.98699740e-02 1.06128685e-01 1.12971485e-01 1.20393723e-01 1.28134295e-01 1.35630280e-01 1.42082050e-01 1.46549448e-01 1.48089394e-01 1.46001175e-01 1.40171990e-01 1.31292671e-01 1.20595179e-01 1.09222665e-01 9.80090722e-02 8.78226534e-02 7.94454888e-02 7.32168928e-02 6.97746873e-02 7.01502711e-02 6.99436143e-02 5.23382537e-02 4.26858887e-02 6.65231943e-02 1.43181071e-01 1.07294396e-01 6.58978969e-02 4.77702171e-01 1.27663523e-01 1.04042880e-01 1.04349777e-01 1.05062224e-01 1.06388986e-01 1.08583674e-01 1.11637704e-01 1.15381636e-01 1.19431213e-01 1.23138733e-01 1.25584617e-01 1.25640213e-01 1.22201480e-01 1.14705116e-01 1.03829704e-01 9.18164477e-02 8.15709978e-02 7.46037960e-02 7.02067912e-02 6.75477609e-02 6.63570017e-02 6.61353841e-02 6.63384944e-02 6.59724176e-02 6.16848022e-02 4.53963466e-02 6.54045939e-02 1.03018418e-01 1.03369057e-01 8.98779094e-01 8.84706676e-01 8.41898859e-01 7.30377257e-01 6.77906573e-01 6.56038940e-01 6.49300873e-01 6.49533927e-01 6.52963340e-01 6.57946289e-01 6.63567841e-01 6.68982446e-01 6.73132420e-01 6.74616396e-01 6.71573400e-01 6.61495626e-01 6.40940905e-01 6.05278373e-01 5.49105346e-01 4.68999416e-01 3.70096892e-01 2.71168292e-01 1.95034310e-01 1.49888411e-01 1.27133518e-01 1.16757371e-01 9.72357392e-02 6.35853037e-02 6.50061592e-02 
