# vtk DataFile Version 2.0
results/iter7.vtk, Created by Freefem++ 
ASCII
DATASET UNSTRUCTURED_GRID
POINTS 961 float
0 0 0
0.033333333 0 0
0.066666667 0 0
0.1 0 0
0.13333333 0 0
0.16666667 0 0
0.2 0 0
0.23333333 0 0
0.26666667 0 0
0.3 0 0
0.33333333 0 0
0.36666667 0 0
0.4 0 0
0.43333333 0 0
0.46666667 0 0
0.5 0 0
0.53333333 0 0
0.56666667 0 0
0.6 0 0
0.63333333 0 0
0.66666667 0 0
0.7 0 0
0.73333333 0 0
0.76666667 0 0
0.8 0 0
0.83333333 0 0
0.86666667 0 0
0.9 0 0
0.93333333 0 0
0.96666667 0 0
1 0 0
0 0.033333333 0
0.033333333 0.033333333 0
0.066666667 0.033333333 0
0.1 0.033333333 0
0.13333333 0.033333333 0
0.16666667 0.033333333 0
0.2 0.033333333 0
0.23333333 0.033333333 0
0.26666667 0.033333333 0
0.3 0.033333333 0
0.33333333 0.033333333 0
0.36666667 0.033333333 0
0.4 0.033333333 0
0.43333333 0.033333333 0
0.46666667 0.033333333 0
0.5 0.033333333 0
0.53333333 0.033333333 0
0.56666667 0.033333333 0
0.6 0.033333333 0
0.63333333 0.033333333 0
0.66666667 0.033333333 0
0.7 0.033333333 0
0.73333333 0.033333333 0
0.76666667 0.033333333 0
0.8 0.033333333 0
0.83333333 0.033333333 0
0.86666667 0.033333333 0
0.9 0.033333333 0
0.93333333 0.033333333 0
0.96666667 0.033333333 0
1 0.033333333 0
0 0.066666667 0
0.033333333 0.066666667 0
0.066666667 0.066666667 0
0.1 0.066666667 0
0.13333333 0.066666667 0
0.16666667 0.066666667 0
0.2 0.066666667 0
0.23333333 0.066666667 0
0.26666667 0.066666667 0
0.3 0.066666667 0
0.33333333 0.066666667 0
0.36666667 0.066666667 0
0.4 0.066666667 0
0.43333333 0.066666667 0
0.46666667 0.066666667 0
0.5 0.066666667 0
0.53333333 0.066666667 0
0.56666667 0.066666667 0
0.6 0.066666667 0
0.63333333 0.066666667 0
0.66666667 0.066666667 0
0.7 0.066666667 0
0.73333333 0.066666667 0
0.76666667 0.066666667 0
0.8 0.066666667 0
0.83333333 0.066666667 0
0.86666667 0.066666667 0
0.9 0.066666667 0
0.93333333 0.066666667 0
0.96666667 0.066666667 0
1 0.066666667 0
0 0.1 0
0.033333333 0.1 0
0.066666667 0.1 0
0.1 0.1 0
0.13333333 0.1 0
0.16666667 0.1 0
0.2 0.1 0
0.23333333 0.1 0
0.26666667 0.1 0
0.3 0.1 0
0.33333333 0.1 0
0.36666667 0.1 0
0.4 0.1 0
0.43333333 0.1 0
0.46666667 0.1 0
0.5 0.1 0
0.53333333 0.1 0
0.56666667 0.1 0
0.6 0.1 0
0.63333333 0.1 0
0.66666667 0.1 0
0.7 0.1 0
0.73333333 0.1 0
0.76666667 0.1 0
0.8 0.1 0
0.83333333 0.1 0
0.86666667 0.1 0
0.9 0.1 0
0.93333333 0.1 0
0.96666667 0.1 0
1 0.1 0
0 0.13333333 0
0.033333333 0.13333333 0
0.066666667 0.13333333 0
0.1 0.13333333 0
0.13333333 0.13333333 0
0.16666667 0.13333333 0
0.2 0.13333333 0
0.23333333 0.13333333 0
0.26666667 0.13333333 0
0.3 0.13333333 0
0.33333333 0.13333333 0
0.36666667 0.13333333 0
0.4 0.13333333 0
0.43333333 0.13333333 0
0.46666667 0.13333333 0
0.5 0.13333333 0
0.53333333 0.13333333 0
0.56666667 0.13333333 0
0.6 0.13333333 0
0.63333333 0.13333333 0
0.66666667 0.13333333 0
0.7 0.13333333 0
0.73333333 0.13333333 0
0.76666667 0.13333333 0
0.8 0.13333333 0
0.83333333 0.13333333 0
0.86666667 0.13333333 0
0.9 0.13333333 0
0.93333333 0.13333333 0
0.96666667 0.13333333 0
1 0.13333333 0
0 0.16666667 0
0.033333333 0.16666667 0
0.066666667 0.16666667 0
0.1 0.16666667 0
0.13333333 0.16666667 0
0.16666667 0.16666667 0
0.2 0.16666667 0
0.23333333 0.16666667 0
0.26666667 0.16666667 0
0.3 0.16666667 0
0.33333333 0.16666667 0
0.36666667 0.16666667 0
0.4 0.16666667 0
0.43333333 0.16666667 0
0.46666667 0.16666667 0
0.5 0.16666667 0
0.53333333 0.16666667 0
0.56666667 0.16666667 0
0.6 0.16666667 0
0.63333333 0.16666667 0
0.66666667 0.16666667 0
0.7 0.16666667 0
0.73333333 0.16666667 0
0.76666667 0.16666667 0
0.8 0.16666667 0
0.83333333 0.16666667 0
0.86666667 0.16666667 0
0.9 0.16666667 0
0.93333333 0.16666667 0
0.96666667 0.16666667 0
1 0.16666667 0
0 0.2 0
0.033333333 0.2 0
0.066666667 0.2 0
0.1 0.2 0
0.13333333 0.2 0
0.16666667 0.2 0
0.2 0.2 0
0.23333333 0.2 0
0.26666667 0.2 0
0.3 0.2 0
0.33333333 0.2 0
0.36666667 0.2 0
0.4 0.2 0
0.43333333 0.2 0
0.46666667 0.2 0
0.5 0.2 0
0.53333333 0.2 0
0.56666667 0.2 0
0.6 0.2 0
0.63333333 0.2 0
0.66666667 0.2 0
0.7 0.2 0
0.73333333 0.2 0
0.76666667 0.2 0
0.8 0.2 0
0.83333333 0.2 0
0.86666667 0.2 0
0.9 0.2 0
0.93333333 0.2 0
0.96666667 0.2 0
1 0.2 0
0 0.23333333 0
0.033333333 0.23333333 0
0.066666667 0.23333333 0
0.1 0.23333333 0
0.13333333 0.23333333 0
0.16666667 0.23333333 0
0.2 0.23333333 0
0.23333333 0.23333333 0
0.26666667 0.23333333 0
0.3 0.23333333 0
0.33333333 0.23333333 0
0.36666667 0.23333333 0
0.4 0.23333333 0
0.43333333 0.23333333 0
0.46666667 0.23333333 0
0.5 0.23333333 0
0.53333333 0.23333333 0
0.56666667 0.23333333 0
0.6 0.23333333 0
0.63333333 0.23333333 0
0.66666667 0.23333333 0
0.7 0.23333333 0
0.73333333 0.23333333 0
0.76666667 0.23333333 0
0.8 0.23333333 0
0.83333333 0.23333333 0
0.86666667 0.23333333 0
0.9 0.23333333 0
0.93333333 0.23333333 0
0.96666667 0.23333333 0
1 0.23333333 0
0 0.26666667 0
0.033333333 0.26666667 0
0.066666667 0.26666667 0
0.1 0.26666667 0
0.13333333 0.26666667 0
0.16666667 0.26666667 0
0.2 0.26666667 0
0.23333333 0.26666667 0
0.26666667 0.26666667 0
0.3 0.26666667 0
0.33333333 0.26666667 0
0.36666667 0.26666667 0
0.4 0.26666667 0
0.43333333 0.26666667 0
0.46666667 0.26666667 0
0.5 0.26666667 0
0.53333333 0.26666667 0
0.56666667 0.26666667 0
0.6 0.26666667 0
0.63333333 0.26666667 0
0.66666667 0.26666667 0
0.7 0.26666667 0
0.73333333 0.26666667 0
0.76666667 0.26666667 0
0.8 0.26666667 0
0.83333333 0.26666667 0
0.86666667 0.26666667 0
0.9 0.26666667 0
0.93333333 0.26666667 0
0.96666667 0.26666667 0
1 0.26666667 0
0 0.3 0
0.033333333 0.3 0
0.066666667 0.3 0
0.1 0.3 0
0.13333333 0.3 0
0.16666667 0.3 0
0.2 0.3 0
0.23333333 0.3 0
0.26666667 0.3 0
0.3 0.3 0
0.33333333 0.3 0
0.36666667 0.3 0
0.4 0.3 0
0.43333333 0.3 0
0.46666667 0.3 0
0.5 0.3 0
0.53333333 0.3 0
0.56666667 0.3 0
0.6 0.3 0
0.63333333 0.3 0
0.66666667 0.3 0
0.7 0.3 0
0.73333333 0.3 0
0.76666667 0.3 0
0.8 0.3 0
0.83333333 0.3 0
0.86666667 0.3 0
0.9 0.3 0
0.93333333 0.3 0
0.96666667 0.3 0
1 0.3 0
0 0.33333333 0
0.033333333 0.33333333 0
0.066666667 0.33333333 0
0.1 0.33333333 0
0.13333333 0.33333333 0
0.16666667 0.33333333 0
0.2 0.33333333 0
0.23333333 0.33333333 0
0.26666667 0.33333333 0
0.3 0.33333333 0
0.33333333 0.33333333 0
0.36666667 0.33333333 0
0.4 0.33333333 0
0.43333333 0.33333333 0
0.46666667 0.33333333 0
0.5 0.33333333 0
0.53333333 0.33333333 0
0.56666667 0.33333333 0
0.6 0.33333333 0
0.63333333 0.33333333 0
0.66666667 0.33333333 0
0.7 0.33333333 0
0.73333333 0.33333333 0
0.76666667 0.33333333 0
0.8 0.33333333 0
0.83333333 0.33333333 0
0.86666667 0.33333333 0
0.9 0.33333333 0
0.93333333 0.33333333 0
0.96666667 0.33333333 0
1 0.33333333 0
0 0.36666667 0
0.033333333 0.36666667 0
0.066666667 0.36666667 0
0.1 0.36666667 0
0.13333333 0.36666667 0
0.16666667 0.36666667 0
0.2 0.36666667 0
0.23333333 0.36666667 0
0.26666667 0.36666667 0
0.3 0.36666667 0
0.33333333 0.36666667 0
0.36666667 0.36666667 0
0.4 0.36666667 0
0.43333333 0.36666667 0
0.46666667 0.36666667 0
0.5 0.36666667 0
0.53333333 0.36666667 0
0.56666667 0.36666667 0
0.6 0.36666667 0
0.63333333 0.36666667 0
0.66666667 0.36666667 0
0.7 0.36666667 0
0.73333333 0.36666667 0
0.76666667 0.36666667 0
0.8 0.36666667 0
0.83333333 0.36666667 0
0.86666667 0.36666667 0
0.9 0.36666667 0
0.93333333 0.36666667 0
0.96666667 0.36666667 0
1 0.36666667 0
0 0.4 0
0.033333333 0.4 0
0.066666667 0.4 0
0.1 0.4 0
0.13333333 0.4 0
0.16666667 0.4 0
0.2 0.4 0
0.23333333 0.4 0
0.26666667 0.4 0
0.3 0.4 0
0.33333333 0.4 0
0.36666667 0.4 0
0.4 0.4 0
0.43333333 0.4 0
0.46666667 0.4 0
0.5 0.4 0
0.53333333 0.4 0
0.56666667 0.4 0
0.6 0.4 0
0.63333333 0.4 0
0.66666667 0.4 0
0.7 0.4 0
0.73333333 0.4 0
0.76666667 0.4 0
0.8 0.4 0
0.83333333 0.4 0
0.86666667 0.4 0
0.9 0.4 0
0.93333333 0.4 0
0.96666667 0.4 0
1 0.4 0
0 0.43333333 0
0.033333333 0.43333333 0
0.066666667 0.43333333 0
0.1 0.43333333 0
0.13333333 0.43333333 0
0.16666667 0.43333333 0
0.2 0.43333333 0
0.23333333 0.43333333 0
0.26666667 0.43333333 0
0.3 0.43333333 0
0.33333333 0.43333333 0
0.36666667 0.43333333 0
0.4 0.43333333 0
0.43333333 0.43333333 0
0.46666667 0.43333333 0
0.5 0.43333333 0
0.53333333 0.43333333 0
0.56666667 0.43333333 0
0.6 0.43333333 0
0.63333333 0.43333333 0
0.66666667 0.43333333 0
0.7 0.43333333 0
0.73333333 0.43333333 0
0.76666667 0.43333333 0
0.8 0.43333333 0
0.83333333 0.43333333 0
0.86666667 0.43333333 0
0.9 0.43333333 0
0.93333333 0.43333333 0
0.96666667 0.43333333 0
1 0.43333333 0
0 0.46666667 0
0.033333333 0.46666667 0
0.066666667 0.46666667 0
0.1 0.46666667 0
0.13333333 0.46666667 0
0.16666667 0.46666667 0
0.2 0.46666667 0
0.23333333 0.46666667 0
0.26666667 0.46666667 0
0.3 0.46666667 0
0.33333333 0.46666667 0
0.36666667 0.46666667 0
0.4 0.46666667 0
0.43333333 0.46666667 0
0.46666667 0.46666667 0
0.5 0.46666667 0
0.53333333 0.46666667 0
0.56666667 0.46666667 0
0.6 0.46666667 0
0.63333333 0.46666667 0
0.66666667 0.46666667 0
0.7 0.46666667 0
0.73333333 0.46666667 0
0.76666667 0.46666667 0
0.8 0.46666667 0
0.83333333 0.46666667 0
0.86666667 0.46666667 0
0.9 0.46666667 0
0.93333333 0.46666667 0
0.96666667 0.46666667 0
1 0.46666667 0
0 0.5 0
0.033333333 0.5 0
0.066666667 0.5 0
0.1 0.5 0
0.13333333 0.5 0
0.16666667 0.5 0
0.2 0.5 0
0.23333333 0.5 0
0.26666667 0.5 0
0.3 0.5 0
0.33333333 0.5 0
0.36666667 0.5 0
0.4 0.5 0
0.43333333 0.5 0
0.46666667 0.5 0
0.5 0.5 0
0.53333333 0.5 0
0.56666667 0.5 0
0.6 0.5 0
0.63333333 0.5 0
0.66666667 0.5 0
0.7 0.5 0
0.73333333 0.5 0
0.76666667 0.5 0
0.8 0.5 0
0.83333333 0.5 0
0.86666667 0.5 0
0.9 0.5 0
0.93333333 0.5 0
0.96666667 0.5 0
1 0.5 0
0 0.53333333 0
0.033333333 0.53333333 0
0.066666667 0.53333333 0
0.1 0.53333333 0
0.13333333 0.53333333 0
0.16666667 0.53333333 0
0.2 0.53333333 0
0.23333333 0.53333333 0
0.26666667 0.53333333 0
0.3 0.53333333 0
0.33333333 0.53333333 0
0.36666667 0.53333333 0
0.4 0.53333333 0
0.43333333 0.53333333 0
0.46666667 0.53333333 0
0.5 0.53333333 0
0.53333333 0.53333333 0
0.56666667 0.53333333 0
0.6 0.53333333 0
0.63333333 0.53333333 0
0.66666667 0.53333333 0
0.7 0.53333333 0
0.73333333 0.53333333 0
0.76666667 0.53333333 0
0.8 0.53333333 0
[...]
CELL_DATA 1920
Scalars  Label int 1
LOOKUP_TABLE FreeFempp_table
0
0
0
0
0
0
0
0
0
0
0
0
0
0
0
0
0
0
0
0
0
0
0
0
0
0
0
0
0
0
0
0
0
0
0
0
0
0
0
0
0
0
0
0
0
0
0
0
0
0
0
0
0
0
0
0
0
0
0
0
0
0
0
0
0
0
0
0
0
0
0
0
0
0
0
0
0
0
0
0
0
0
0
0
0
0
0
0
0
0
0
0
0
0
0
0
0
0
0
0
0
0
0
0
0
0
0
0
0
0
0
0
0
0
0
0
0
0
0
0
0
0
0
0
0
0
0
0
0
0
0
0
0
0
0
0
0
0
0
0
0
0
0
0
0
0
0
0
0
0
0
0
0
0
0
0
0
0
0
0
0
0
0
0
0
0
0
0
0
0
0
0
0
0
0
0
0
0
0
0
0
0
0
0
0
0
0
0
0
0
0
0
0
0
0
0
0
0
0
0
0
0
0
0
0
0
0
0
0
0
0
0
0
0
0
0
0
0
0
0
0
0
0
0
0
0
0
0
0
0
0
0
0
0
0
0
0
0
0
0
0
0
0
0
0
0
0
0
0
0
0
0
0
0
0
0
0
0
0
0
0
0
0
0
0
0
0
0
0
0
0
0
0
0
0
0
0
0
0
0
0
0
0
0
0
0
0
0
0
0
0
0
0
0
0
0
0
0
0
0
0
0
0
0
0
0
0
0
0
0
0
0
0
0
0
0
0
0
0
0
0
0
0
0
0
0
0
0
0
0
0
0
0
0
0
0
0
0
0
0
0
0
0
0
0
0
0
0
0
0
0
0
0
0
0
0
0
0
0
0
0
0
0
0
0
0
0
0
0
0
0
0
0
0
0
0
0
0
0
0
0
0
0
0
0
0
0
0
0
0
0
0
0
0
0
0
0
0
0
0
0
0
0
0
0
0
0
0
0
0
0
0
0
0
0
0
0
0
0
0
0
0
0
0
0
0
0
0
0
0
0
0
0
0
0
0
0
0
0
0
0
0
0
0
0
0
0
0
0
0
0
0
0
0
0
0
0
0
0
0
0
0
0
0
0
0
0
0
0
0
0
0
0
0
0
0
0
0
0
0
0
0
0
0
0
0
0
0
0
0
0
0
0
0
0
0
0
0
0
0
0
0
0
0
0
0
0
0
0
0
0
0
0
0
0
0
0
0
0
0
0
0
0
0
0
0
0
0
0
0
0
0
0
0
0
0
0
0
0
0
0
0
0
0
0
0
0
0
0
0
0
0
0
0
0
0
0
0
0
0
0
0
0
0
0
0
0
0
0
0
0
0
0
0
0
0
0
0
0
0
0
0
0
0
0
0
0
0
0
0
0
0
0
0
0
0
0
0
0
0
0
0
0
0
0
0
0
0
0
0
0
0
0
0
0
0
0
0
0
0
0
0
0
0
0
0
0
0
0
0
0
0
0
0
0
0
0
0
0
0
0
0
0
0
0
0
0
0
0
0
0
0
0
0
0
0
0
0
0
0
0
0
0
0
0
0
0
0
0
0
0
0
0
0
0
0
0
0
0
0
0
0
0
0
0
0
0
0
0
0
0
0
0
0
0
0
0
0
0
0
0
0
0
0
0
0
0
0
0
0
0
0
0
0
0
0
0
0
0
0
0
0
0
0
0
0
0
0
0
0
0
0
0
0
0
0
0
0
0
0
0
0
0
0
0
0
0
0
0
0
0
0
0
0
0
0
0
0
0
0
0
0
0
0
0
0
0
0
0
0
0
0
0
0
0
0
0
0
0
0
0
0
0
0
0
0
0
0
0
0
0
0
0
0
0
0
0
0
0
0
0
0
0
0
0
0
0
0
0
0
0
0
0
0
0
0
0
0
0
0
0
0
0
0
0
0
0
0
0
0
0
0
0
0
0
0
0
0
0
0
0
0
0
0
0
0
0
0
0
0
0
0
0
0
0
0
0
0
0
0
0
0
0
0
0
0
0
0
0
0
0
0
0
0
0
0
0
0
0
0
0
0
0
0
0
0
0
0
0
0
0
0
0
0
0
0
0
0
0
0
0
0
0
0
0
0
0
0
0
0
0
0
0
0
0
0
0
0
0
0
0
0
0
0
0
0
0
0
0
0
0
0
0
0
0
0
0
0
0
0
0
0
0
0
0
0
0
0
0
0
0
0
0
0
0
0
0
0
0
0
0
0
0
0
0
0
0
0
0
0
0
0
0
0
0
0
0
0
0
0
0
0
0
0
0
0
0
0
0
0
0
0
0
0
0
0
0
0
0
0
0
0
0
0
0
0
0
0
0
0
0
0
0
0
0
0
0
0
0
0
0
0
0
0
0
0
0
0
0
0
0
0
0
0
0
0
0
0
0
0
0
0
0
0
0
0
0
0
0
0
0
0
0
0
0
0
0
0
0
0
0
0
0
0
0
0
0
0
0
0
0
0
0
0
0
0
0
0
0
0
0
0
0
0
0
0
0
0
0
0
0
0
0
0
0
0
0
0
0
0
0
0
0
0
0
0
0
0
0
0
0
0
0
0
0
0
0
0
0
0
0
0
0
0
0
0
0
0
0
0
0
0
0
0
0
0
0
0
0
0
0
0
0
0
0
0
0
0
0
0
0
0
0
0
0
0
0
0
0
0
0
0
0
0
0
0
0
0
0
0
0
0
0
0
0
0
0
0
0
0
0
0
0
0
0
0
0
0
0
0
0
0
0
0
0
0
0
0
0
0
0
0
0
0
0
0
0
0
0
0
0
0
0
0
0
0
0
0
0
0
0
0
0
0
0
0
0
0
0
0
0
0
0
0
0
0
0
0
0
0
0
0
0
0
0
0
0
0
0
0
0
0
0
0
0
0
0
0
0
0
0
0
0
0
0
0
0
0
0
0
0
0
0
0
0
0
0
0
0
0
0
0
0
0
0
0
0
0
0
0
0
0
0
0
0
0
0
0
0
0
0
0
0
0
0
0
0
0
0
0
0
0
0
0
0
0
0
0
0
0
0
0
0
0
0
0
0
0
0
0
0
0
0
0
0
0
0
0
0
0
0
0
0
0
0
0
0
0
0
0
0
0
0
0
0
0
0
0
0
0
0
0
0
0
0
0
0
0
0
0
0
0
0
0
0
0
0
0
0
0
0
0
0
0
0
0
0
0
0
0
0
0
0
0
0
0
0
0
0
0
0
0
0
0
0
0
0
0
0
0
0
0
0
0
0
0
0
0
0
0
0
0
0
0
0
0
0
0
0
0
0
0
0
0
0
0
0
0
0
0
0
0
0
0
0
0
0
0
0
0
0
0
0
0
0
0
0
0
0
0
0
0
0
0
0
0
0
0
0
0
0
0
0
0
0
0
0
0
0
0
0
0
0
0
0
0
0
0
0
0
0
0
0
0
0
0
0
0
0
0
0
0
0
0
0
0
0
0
0
0
0
0
0
0
0
0
0
0
0
0
0
0
0
0
0
0
0
0
0
0
0
0
0
0
0
0
0
0
0
0
0
0
0
0
0
0
0
0
0
0
0
0
0
0
0
0
0
0
0
0
0
0
0
0
0
0
0
0
0
0
0
0
0
0
0
0
0
0
0
0
0
0
0
0
0
0
0
0
0
0
0
0
0
0
0
0
0
0
0
0
0
0
0
0
0
0
0
0
0
0
0
0
0
0
0
0
0
0
0
0
0
0
0
0
0
0
0
0
0
0
0
0
0
0
0
0
0
0
0
0
0
0
0
0
0
0
0
0
0
0
0
0
0
0
0
0
0
0
0
0
0
0
0
0
0
0
0
0
0
0
0
0
0
0
0
0
0
0
0
0
0
0
0
0
0
0
0
0
0
0
0
0
0
0
0
0
0
0
0
0
0
0
0
0
0
0
0
0
0
0
0
0
0
0
0
0
0
0
0
0
0
0
0
0
0
0
0
0
0
0
0
0
0
0
0
0
0
0
0
0
0
0
0
0
0
0
0
0
0
0
0
0
0
0
0
0
0
0
0
0
0
0
0
0
0
0
0
0
0
0
0
0
0
0
0
0
0
0
0
0
0
0
0
0
0
0
0
0
0
0
0
0
0
0
0
0
0
0
0
0
1
1
1
1
1
1
1
1
1
1
1
1
1
1
1
1
1
1
1
1
1
1
1
1
1
1
1
1
1
1
2
2
2
2
2
2
2
2
2
2
2
2
2
2
2
2
2
2
2
2
2
2
2
2
2
2
2
2
2
2
3
3
3
3
3
3
3
3
3
3
3
3
3
3
3
3
3
3
3
3
3
3
3
3
3
3
3
3
3
3
4
4
4
4
4
4
4
4
4
4
4
4
4
4
4
4
4
4
4
4
4
4
4
4
4
4
4
4
4
4

LOOKUP_TABLE FreeFempp_table 5
1.00000000 0.00000000 0.00000000 1.00000000
1.00000000 1.00000000 0.00000000 1.00000000
1.00000000 0.00000000 1.00000000 1.00000000
0.00000000 1.00000000 0.00000000 1.00000000
0.00000000 1.00000000 1.00000000 1.00000000

POINT_DATA 961
FIELD FieldData 1
Density 1 961 float
7.80979693e-02 5.99737577e-02 6.03802651e-02 6.08357452e-02 6.09588623e-02 6.08736388e-02 6.07263222e-02 6.05560318e-02 6.03436194e-02 6.00778908e-02 5.97767383e-02 5.93238287e-02 5.85971177e-02 5.10430187e-02 4.21188399e-03 1.01147874e-04 1.01657904e-04 1.28786206e-01 1.51514061e-04 1.20672659e-04 6.60044551e-01 9.78456378e-01 8.64187539e-01 3.67947400e-01 2.09423065e-01 1.58649534e-01 1.37594029e-01 1.26224145e-01 1.20269924e-01 1.17486209e-01 1.25982881e-01 5.15115447e-02 2.66855210e-02 2.75541376e-02 2.84071136e-02 2.86934096e-02 2.86832526e-02 2.85989661e-02 2.85118576e-02 2.84158681e-02 2.82625221e-02 2.79417764e-02 2.69687828e-02 2.33864617e-02 9.10221413e-03 2.23827970e-04 1.01044840e-04 1.00700177e-04 1.93124497e-03 4.93743569e-01 1.06255131e-04 1.09614695e-04 1.07297237e-04 1.12752467e-04 4.61673439e-01 2.91568637e-01 1.82852179e-01 1.34561226e-01 1.15961932e-01 1.06021404e-01 1.00118496e-01 1.14512973e-01 1.00428420e-04 1.00330901e-04 1.03770732e-03 2.05627792e-02 2.60588266e-02 2.67092548e-02 2.67747752e-02 2.67419461e-02 2.67037284e-02 2.66190451e-02 2.59942152e-02 2.16619410e-02 3.46796680e-03 1.09246874e-04 1.01508595e-04 1.00760692e-04 1.00432655e-04 1.00349098e-04 9.26921248e-01 7.63113976e-01 1.15765972e-04 1.04732972e-04 1.02000988e-04 1.01409416e-04 2.26554606e-04 9.49816927e-02 8.34656730e-02 7.46919736e-02 7.11762309e-02 6.74638376e-02 9.91265923e-02 1.00613724e-04 1.00195262e-04 1.00211488e-04 1.00367695e-04 1.00355006e-04 1.00346355e-04 1.00344558e-04 1.00353565e-04 1.00370504e-04 1.00391429e-04 1.00410791e-04 1.00425481e-04 1.00441139e-04 1.00483747e-04 1.00651087e-04 1.00829420e-04 1.00773570e-04 1.00253725e-04 1.00239180e-04 8.36800694e-01 9.99257982e-01 1.33794383e-04 1.07362968e-04 1.00919613e-04 1.00814112e-04 1.00895471e-04 3.99491154e-02 4.51616310e-02 4.51114550e-02 4.46122997e-02 8.05524364e-02 3.77989151e-02 1.96640566e-03 1.00344107e-04 1.00382007e-04 1.00354424e-04 1.00349280e-04 1.00342513e-04 1.00345984e-04 1.00359219e-04 1.00378311e-04 1.00398858e-04 1.00415251e-04 1.00429927e-04 1.00435282e-04 1.00516081e-04 1.00893034e-04 1.03380778e-04 1.79491704e-04 1.00239275e-04 1.00266574e-04 1.00516503e-04 9.95722950e-01 8.33439641e-03 1.45574495e-01 1.01350728e-04 1.00582984e-04 1.00505458e-04 2.96725985e-02 3.29476371e-02 3.33658271e-02 6.81658536e-02 4.70580086e-02 1.31623242e-02 8.75655655e-03 8.83872062e-03 1.18852202e-02 1.48141580e-02 1.79961007e-02 2.15713531e-02 2.54196040e-02 2.92469896e-02 3.26011740e-02 3.48960944e-02 3.54438350e-02 3.36699747e-02 3.06135472e-02 2.81789638e-02 2.74212323e-02 2.70063765e-02 2.31928658e-02 1.00402263e-04 1.00342790e-04 1.00365629e-04 9.62641060e-01 9.51692879e-01 9.80448306e-01 9.91104066e-01 1.00480989e-04 1.00439676e-04 2.54948307e-02 2.89519541e-02 6.20450377e-02 7.27743655e-02 2.85719316e-02 2.42993031e-02 2.29632650e-02 2.64074653e-02 3.12119499e-02 3.68039459e-02 4.29962985e-02 4.94501293e-02 5.56243807e-02 6.08881898e-02 6.47504330e-02 6.69890866e-02 6.73732609e-02 6.51851967e-02 5.99186122e-02 5.30346818e-02 4.66710217e-02 4.07248475e-02 3.35670672e-02 1.70538612e-02 1.00470133e-04 1.00545891e-04 3.18232342e-04 5.42426074e-04 1.80771400e-04 9.67885017e-01 1.00412661e-04 1.00389370e-04 2.36295983e-02 5.91224767e-02 1.19666688e-01 7.99309760e-02 7.80512244e-02 7.80107155e-02 7.95411542e-02 8.29243287e-02 8.73692334e-02 9.20214504e-02 9.63086113e-02 9.97787938e-02 1.02098294e-01 1.03087239e-01 1.02726623e-01 1.01156436e-01 9.83404890e-02 9.36869159e-02 8.69733542e-02 7.88185000e-02 6.96627274e-02 5.99882789e-02 4.73961569e-02 2.81477813e-02 1.00512058e-04 1.00488396e-04 1.05783314e-04 1.23495207e-04 1.25125705e-04 9.97125387e-01 1.00389050e-04 1.00372294e-04 3.78060341e-02 1.68083116e-01 1.75398916e-01 1.70232296e-01 1.66716039e-01 1.62650064e-01 1.58630669e-01 1.55103952e-01 1.51879862e-01 1.48829564e-01 1.45807832e-01 1.42692804e-01 1.39454424e-01 1.36171088e-01 1.33050680e-01 1.30352795e-01 1.28128394e-01 1.26002833e-01 1.23282097e-01 1.19160675e-01 1.13458738e-01 1.03587940e-01 8.55512694e-02 4.01459588e-03 1.01318903e-04 1.00011574e-04 1.04820254e-04 1.15510680e-04 1.05213796e-04 9.98132467e-01 1.00383120e-04 1.00548430e-04 1.86747774e-01 2.46097669e-01 2.34814167e-01 2.27507696e-01 2.19152108e-01 2.09561735e-01 1.99242353e-01 1.88975334e-01 1.79485470e-01 1.71117917e-01 1.63923278e-01 1.57862455e-01 1.52954981e-01 1.49309307e-01 1.47047907e-01 1.46260783e-01 1.47122949e-01 1.50045648e-01 1.55852050e-01 1.66281477e-01 1.83001280e-01 2.14849070e-01 3.06937218e-01 4.25073970e-03 1.01223784e-04 1.04587394e-04 1.08148837e-04 1.45942075e-04 9.80278492e-01 1.00997648e-04 1.00722871e-04 1.60421044e-01 2.18269080e-01 2.10917920e-01 2.07137927e-01 2.03050151e-01 1.97300628e-01 1.89719617e-01 1.81047007e-01 1.72336444e-01 1.64325491e-01 1.57314450e-01 1.51344538e-01 1.46397725e-01 1.42466769e-01 1.39526486e-01 1.37575030e-01 1.36857927e-01 1.38110936e-01 1.42658710e-01 1.52724296e-01 1.72778890e-01 2.12291256e-01 3.71935517e-01 7.47267663e-01 3.86971384e-01 1.94630725e-03 2.18166038e-04 1.68217870e-04 9.99302447e-01 1.01092162e-04 1.00947596e-04 1.04717515e-01 1.14900649e-01 1.18039213e-01 1.22765243e-01 1.28905013e-01 1.34289339e-01 1.37556389e-01 1.38413548e-01 1.37397781e-01 1.35202587e-01 1.32295638e-01 1.28927469e-01 1.25263259e-01 1.21425480e-01 1.17473871e-01 1.13470674e-01 1.09669156e-01 1.06643058e-01 1.05200060e-01 1.06210433e-01 1.10642731e-01 1.20048843e-01 1.43910557e-01 2.65575141e-01 5.93483269e-01 3.56947005e-01 1.28941576e-03 6.26129215e-04 9.98278558e-01 1.01231592e-04 1.01072466e-04 5.25665060e-02 3.37890275e-02 3.81985046e-02 4.50840816e-02 5.47387265e-02 6.62433207e-02 7.80173168e-02 8.84475261e-02 9.65133011e-02 1.01834483e-01 1.04424998e-01 1.04545787e-01 1.02629155e-01 9.91464034e-02 9.44915637e-02 8.90197530e-02 8.32091644e-02 7.77359605e-02 7.33259395e-02 7.04724193e-02 6.91056475e-02 6.81193620e-02 6.49978817e-02 5.91391139e-02 5.53619638e-02 4.77625988e-02 2.20557842e-02 3.24339390e-01 9.96779084e-01 1.01360507e-04 1.01209756e-04 2.23019551e-02 6.65687863e-03 7.77423056e-03 1.10061225e-02 1.65051743e-02 2.50358339e-02 3.67969647e-02 5.07269166e-02 6.46338835e-02 7.61590078e-02 8.37473199e-02 8.70183632e-02 8.65143090e-02 8.31505358e-02 7.78047442e-02 7.12519065e-02 6.43003508e-02 5.78358807e-02 5.26528098e-02 4.91990224e-02 4.73335050e-02 4.60250638e-02 4.31343280e-02 3.66567783e-02 2.79952697e-02 2.57399101e-02 9.82848704e-02 8.76931667e-01 9.88007247e-01 1.01519887e-04 1.01372927e-04 9.50155873e-03 1.37154781e-03 1.40544632e-03 2.27957545e-03 4.20858944e-03 8.22450221e-03 1.59651358e-02 2.86316816e-02 4.50395904e-02 6.12793192e-02 7.32557923e-02 7.91312680e-02 7.93832392e-02 7.55032301e-02 6.89952224e-02 6.11367226e-02 5.31038046e-02 4.59904447e-02 4.06211689e-02 3.73755433e-02 3.61545123e-02 3.63712795e-02 3.69772725e-02 3.73527855e-02 4.03332300e-02 7.38366246e-02 4.79502231e-01 9.61804807e-01 9.46869552e-01 1.01715756e-04 1.01555124e-04 4.68135811e-03 4.52355511e-04 3.83993844e-04 5.89723059e-04 1.18708878e-03 2.82677007e-03 7.27689173e-03 1.76159237e-02 3.53647731e-02 5.61978035e-02 7.26400241e-02 8.06597918e-02 8.08064863e-02 7.54896626e-02 6.70319200e-02 5.72922938e-02 4.78493273e-02 3.99966538e-02 3.45410742e-02 3.17710713e-02 3.17145139e-02 3.45255584e-02 4.12646420e-02 5.65035529e-02 1.02758326e-01 3.19969922e-01 8.16852331e-01 9.66721952e-01 1.65615473e-02 1.01986741e-04 1.01763013e-04 2.74844444e-03 2.44711322e-04 1.97955931e-04 2.55682913e-04 4.71462030e-04 1.23246235e-03 4.04752837e-03 1.31475637e-02 3.32958773e-02 6.00183010e-02 8.11368898e-02 9.03368220e-02 8.91138539e-02 8.12934116e-02 7.01151043e-02 5.80161624e-02 4.69651408e-02 3.84217054e-02 3.31521705e-02 3.14532779e-02 3.38099934e-02 4.21574414e-02 6.32044151e-02 1.20896071e-01 2.96690196e-01 6.56904519e-01 8.93100441e-01 8.29974234e-01 1.77926529e-04 1.02472113e-04 1.02056001e-04 1.77325949e-03 1.70932166e-04 1.46485560e-04 1.71501088e-04 2.80139648e-04 7.58724287e-04 3.09302285e-03 1.29587976e-02 3.85750942e-02 7.28818700e-02 9.73155722e-02 1.05478220e-01 1.01427786e-01 9.04463530e-02 7.63728097e-02 6.20491281e-02 4.97559197e-02 4.10849079e-02 3.68975513e-02 3.79617326e-02 4.65108603e-02 6.97892010e-02 1.30519807e-01 2.89220035e-01 5.74464381e-01 7.93040395e-01 8.47379863e-01 5.78075200e-02 1.15112096e-04 1.03718849e-04 1.02844147e-04 1.11646298e-03 1.36711722e-04 1.25604041e-04 1.41076714e-04 2.22157512e-04 6.72564376e-04 3.47102107e-03 1.73543692e-02 5.29448278e-02 9.36367139e-02 1.16683505e-01 1.21007375e-01 1.13689192e-01 1.00239955e-01 8.43316242e-02 6.89498708e-02 5.66470958e-02 4.93153632e-02 4.85112853e-02 5.71786948e-02 8.33804086e-02 1.48609057e-01 2.97081470e-01 5.30367792e-01 7.18847394e-01 7.64839351e-01 3.45914841e-01 3.28368827e-04 1.07373387e-04 1.05205108e-04 1.05341729e-04 6.35096978e-04 1.20868601e-04 1.16240022e-04 1.28003128e-04 2.11987572e-04 8.65705661e-04 5.83490869e-03 2.98525579e-02 7.73017630e-02 1.15721002e-01 1.31134838e-01 1.30916744e-01 1.22167714e-01 1.08672671e-01 9.33141187e-02 7.91168287e-02 6.90801591e-02 6.60984814e-02 7.43240565e-02 1.03397585e-01 1.76236272e-01 3.27550352e-01 5.32539487e-01 6.72907829e-01 6.71403468e-01 3.40850979e-01 3.48295784e-03 1.31042238e-04 1.06607426e-04 1.06148771e-04 1.15297604e-04 3.26311216e-04 1.12849564e-04 1.11549067e-04 1.23296602e-04 2.46493466e-04 1.71712157e-03 1.37851974e-02 5.60930297e-02 1.04611866e-01 1.27955899e-01 1.33892074e-01 1.32018372e-01 1.25337511e-01 1.15020581e-01 1.03201963e-01 9.31522325e-02 8.88704062e-02 9.57956091e-02 1.24416791e-01 1.97840080e-01 3.48941892e-01 5.50035238e-01 6.82128787e-01 6.47289097e-01 2.84987599e-01 7.55734881e-03 1.73076478e-04 1.15020230e-04 1.08715329e-04 1.09556138e-04 2.25010241e-04 1.73893757e-04 1.08201806e-04 1.08637090e-04 1.24530110e-04 4.05956263e-04 5.29425684e-03 3.65663134e-02 9.20342505e-02 1.19295798e-01 1.24163337e-01 1.25217333e-01 1.25775784e-01 1.24073260e-01 1.19442523e-01 1.13759317e-01 1.10921860e-01 1.16732508e-01 1.41056851e-01 2.03294843e-01 3.33589762e-01 5.26065350e-01 6.84922695e-01 7.19404340e-01 4.66809094e-01 3.00931986e-02 2.87473958e-04 1.27640349e-04 1.14585622e-04 1.14182360e-04 1.27944455e-04 2.77401740e-03 1.23380029e-04 1.05803076e-04 1.06688771e-04 1.35142793e-04 1.22007378e-03 1.99056026e-02 7.79832602e-02 1.14450134e-01 1.13430224e-01 1.09045573e-01 1.11053765e-01 1.16097063e-01 1.20205581e-01 1.22222461e-01 1.24151662e-01 1.30701751e-01 1.49863362e-01 1.95843518e-01 2.91636556e-01 4.50974792e-01 6.25786841e-01 7.31136441e-01 6.98471785e-01 3.12894702e-01 7.09461840e-03 1.93788263e-04 1.27925494e-04 1.24098195e-04 1.39765383e-04 3.40723695e-04 1.83329396e-02 1.09406996e-04 1.04803061e-04 1.05836909e-04 1.81928423e-04 6.33765850e-03 5.89129589e-02 1.09724618e-01 1.08626567e-01 9.50208828e-02 9.15172026e-02 9.69451889e-02 1.05944395e-01 1.14964500e-01 1.23287834e-01 1.33002877e-01 1.49201363e-01 1.81144878e-01 2.44006112e-01 3.54893059e-01 5.07024467e-01 6.47950888e-01 7.19152629e-01 6.55799806e-01 2.71426052e-01 9.82642919e-03 3.31095915e-04 1.86638339e-04 2.33469211e-04 7.77593814e-04 6.32803096e-03 5.86023703e-02 1.04649160e-04 1.04214589e-04 1.06331558e-04 5.09453181e-04 3.19025330e-02 1.02799430e-01 1.05943419e-01 8.63440260e-02 7.56965652e-02 7.67766312e-02 8.49190876e-02 9.60834250e-02 1.08470157e-01 1.22162133e-01 1.38906017e-01 1.63052410e-01 2.02981889e-01 2.70826817e-01 3.74869257e-01 5.01353085e-01 6.11850023e-01 6.64509773e-01 6.02036476e-01 3.08596581e-01 3.78364883e-02 3.44259734e-03 2.31864047e-03 7.49517279e-03 3.76978032e-02 1.12466611e-01 1.45134702e-01 1.02706719e-04 1.03285602e-04 1.09419962e-04 3.69403115e-03 8.83014575e-02 1.08806320e-01 8.07795227e-02 6.39922395e-02 6.06146492e-02 6.54121041e-02 7.43971467e-02 8.58678892e-02 1.00118324e-01 1.18082881e-01 1.40785098e-01 1.70510828e-01 2.12436572e-01 2.73721933e-01 3.57002914e-01 4.51622516e-01 5.35040438e-01 5.78441560e-01 5.39880514e-01 3.67040008e-01 1.41259387e-01 5.22734821e-02 5.42897955e-02 1.27468243e-01 2.65660495e-01 4.03300226e-01 2.54167140e-01 1.01887388e-04 1.02313774e-04 1.21837576e-04 2.52813529e-02 1.23235941e-01 8.24984312e-02 5.55797368e-02 4.77705672e-02 4.97311465e-02 5.60420416e-02 6.40923455e-02 7.44105726e-02 8.90751779e-02 1.09909683e-01 1.37506425e-01 1.71560079e-01 2.12456718e-01 2.61836559e-01 3.19753408e-01 3.81451309e-01 4.37866658e-01 4.74309236e-01 4.67386693e-01 3.95027280e-01 2.79575616e-01 2.03069225e-01 2.13116616e-01 3.02579671e-01 4.22609985e-01 5.40472090e-01 3.15497756e-01 1.01554775e-04 1.01776968e-04 2.31399434e-04 9.10355598e-02 9.89703387e-02 5.31749167e-02 3.87624949e-02 3.75224911e-02 4.17821147e-02 4.75123972e-02 5.34748510e-02 6.16481379e-02 7.50810131e-02 9.65102389e-02 1.27220213e-01 1.65566653e-01 2.07093135e-01 2.47214004e-01 2.83582956e-01 3.16326559e-01 3.46849382e-01 3.74004483e-01 3.89826506e-01 3.82946968e-01 3.53007495e-01 3.22500139e-01 3.22030067e-01 3.61271381e-01 4.26441729e-01 5.12481332e-01 3.13493162e-01 1.01335361e-04 1.01558711e-04 4.04710509e-03 1.42999902e-01 5.99928014e-02 3.60617600e-02 3.08502745e-02 3.23817730e-02 3.63097191e-02 3.99298109e-02 4.31876406e-02 4.83359136e-02 5.82356155e-02 7.59218782e-02 1.04177974e-01 1.43432349e-01 1.89122617e-01 2.32758701e-01 2.67470628e-01 2.92332888e-01 3.11639935e-01 3.30323517e-01 3.48775685e-01 3.60810220e-01 3.57742965e-01 3.38057965e-01 3.14218223e-01 3.03713769e-01 3.14826131e-01 3.57986927e-01 2.57829189e-01 1.01140089e-04 1.01322788e-04 7.81350136e-02 9.35391784e-02 4.64633256e-02 3.42490748e-02 3.12668830e-02 3.12213749e-02 3.19448635e-02 3.22146416e-02 3.24321985e-02 3.41100134e-02 3.91751863e-02 5.02381474e-02 7.13457167e-02 1.07881323e-01 1.63546130e-01 2.34402478e-01 3.06681842e-01 3.63957494e-01 3.95903885e-01 4.00176406e-01 3.80211532e-01 3.43172342e-01 2.97618717e-01 2.50807285e-01 2.08484292e-01 1.75991386e-01 1.56524867e-01 1.64311826e-01 1.78209871e-01 1.02358543e-04 1.01588252e-04 3.87783706e-01 1.06346145e-01 9.58505347e-02 8.08823183e-02 7.09915161e-02 6.51364252e-02 6.20423891e-02 6.00299463e-02 5.84776178e-02 5.82773052e-02 6.11251183e-02 6.89507052e-02 8.37539062e-02 1.07268371e-01 1.40021816e-01 1.80180177e-01 2.22825021e-01 2.59978116e-01 2.82156646e-01 2.82029718e-01 2.58984536e-01 2.21512571e-01 1.83185875e-01 1.53617099e-01 1.34071648e-01 1.21021718e-01 1.11682191e-01 1.05744779e-01 1.23430759e-01 
