# vtk DataFile Version 2.0
results/iter5.vtk, Created by Freefem++ 
ASCII
DATASET UNSTRUCTURED_GRID
POINTS 961 float
0 0 0
0.033333333 0 0
0.066666667 0 0
0.1 0 0
0.13333333 0 0
0.16666667 0 0
0.2 0 0
0.23333333 0 0
0.26666667 0 0
0.3 0 0
0.33333333 0 0
0.36666667 0 0
0.4 0 0
0.43333333 0 0
0.46666667 0 0
0.5 0 0
0.53333333 0 0
0.56666667 0 0
0.6 0 0
0.63333333 0 0
0.66666667 0 0
0.7 0 0
0.73333333 0 0
0.76666667 0 0
0.8 0 0
0.83333333 0 0
0.86666667 0 0
0.9 0 0
0.93333333 0 0
0.96666667 0 0
1 0 0
0 0.033333333 0
0.033333333 0.033333333 0
0.066666667 0.033333333 0
0.1 0.033333333 0
0.13333333 0.033333333 0
0.16666667 0.033333333 0
0.2 0.033333333 0
0.23333333 0.033333333 0
0.26666667 0.033333333 0
0.3 0.033333333 0
0.33333333 0.033333333 0
0.36666667 0.033333333 0
0.4 0.033333333 0
0.43333333 0.033333333 0
0.46666667 0.033333333 0
0.5 0.033333333 0
0.53333333 0.033333333 0
0.56666667 0.033333333 0
0.6 0.033333333 0
0.63333333 0.033333333 0
0.66666667 0.033333333 0
0.7 0.033333333 0
0.73333333 0.033333333 0
0.76666667 0.033333333 0
0.8 0.033333333 0
0.83333333 0.033333333 0
0.86666667 0.033333333 0
0.9 0.033333333 0
0.93333333 0.033333333 0
0.96666667 0.033333333 0
1 0.033333333 0
0 0.066666667 0
0.033333333 0.066666667 0
0.066666667 0.066666667 0
0.1 0.066666667 0
0.13333333 0.066666667 0
0.16666667 0.066666667 0
0.2 0.066666667 0
0.23333333 0.066666667 0
0.26666667 0.066666667 0
0.3 0.066666667 0
0.33333333 0.066666667 0
0.36666667 0.066666667 0
0.4 0.066666667 0
0.43333333 0.066666667 0
0.46666667 0.066666667 0
0.5 0.066666667 0
0.53333333 0.066666667 0
0.56666667 0.066666667 0
0.6 0.066666667 0
0.63333333 0.066666667 0
0.66666667 0.066666667 0
0.7 0.066666667 0
0.73333333 0.066666667 0
0.76666667 0.066666667 0
0.8 0.066666667 0
0.83333333 0.066666667 0
0.86666667 0.066666667 0
0.9 0.066666667 0
0.93333333 0.066666667 0
0.96666667 0.066666667 0
1 0.066666667 0
0 0.1 0
0.033333333 0.1 0
0.066666667 0.1 0
0.1 0.1 0
0.13333333 0.1 0
0.16666667 0.1 0
0.2 0.1 0
0.23333333 0.1 0
0.26666667 0.1 0
0.3 0.1 0
0.33333333 0.1 0
0.36666667 0.1 0
0.4 0.1 0
0.43333333 0.1 0
0.46666667 0.1 0
0.5 0.1 0
0.53333333 0.1 0
0.56666667 0.1 0
0.6 0.1 0
0.63333333 0.1 0
0.66666667 0.1 0
0.7 0.1 0
0.73333333 0.1 0
0.76666667 0.1 0
0.8 0.1 0
0.83333333 0.1 0
0.86666667 0.1 0
0.9 0.1 0
0.93333333 0.1 0
0.96666667 0.1 0
1 0.1 0
0 0.13333333 0
0.033333333 0.13333333 0
0.066666667 0.13333333 0
0.1 0.13333333 0
0.13333333 0.13333333 0
0.16666667 0.13333333 0
0.2 0.13333333 0
0.23333333 0.13333333 0
0.26666667 0.13333333 0
0.3 0.13333333 0
0.33333333 0.13333333 0
0.36666667 0.13333333 0
0.4 0.13333333 0
0.43333333 0.13333333 0
0.46666667 0.13333333 0
0.5 0.13333333 0
0.53333333 0.13333333 0
0.56666667 0.13333333 0
0.6 0.13333333 0
0.63333333 0.13333333 0
0.66666667 0.13333333 0
0.7 0.13333333 0
0.73333333 0.13333333 0
0.76666667 0.13333333 0
0.8 0.13333333 0
0.83333333 0.13333333 0
0.86666667 0.13333333 0
0.9 0.13333333 0
0.93333333 0.13333333 0
0.96666667 0.13333333 0
1 0.13333333 0
0 0.16666667 0
0.033333333 0.16666667 0
0.066666667 0.16666667 0
0.1 0.16666667 0
0.13333333 0.16666667 0
0.16666667 0.16666667 0
0.2 0.16666667 0
0.23333333 0.16666667 0
0.26666667 0.16666667 0
0.3 0.16666667 0
0.33333333 0.16666667 0
0.36666667 0.16666667 0
0.4 0.16666667 0
0.43333333 0.16666667 0
0.46666667 0.16666667 0
0.5 0.16666667 0
0.53333333 0.16666667 0
0.56666667 0.16666667 0
0.6 0.16666667 0
0.63333333 0.16666667 0
0.66666667 0.16666667 0
0.7 0.16666667 0
0.73333333 0.16666667 0
0.76666667 0.16666667 0
0.8 0.16666667 0
0.83333333 0.16666667 0
0.86666667 0.16666667 0
0.9 0.16666667 0
0.93333333 0.16666667 0
0.96666667 0.16666667 0
1 0.16666667 0
0 0.2 0
0.033333333 0.2 0
0.066666667 0.2 0
0.1 0.2 0
0.13333333 0.2 0
0.16666667 0.2 0
0.2 0.2 0
0.23333333 0.2 0
0.26666667 0.2 0
0.3 0.2 0
0.33333333 0.2 0
0.36666667 0.2 0
0.4 0.2 0
0.43333333 0.2 0
0.46666667 0.2 0
0.5 0.2 0
0.53333333 0.2 0
0.56666667 0.2 0
0.6 0.2 0
0.63333333 0.2 0
0.66666667 0.2 0
0.7 0.2 0
0.73333333 0.2 0
0.76666667 0.2 0
0.8 0.2 0
0.83333333 0.2 0
0.86666667 0.2 0
0.9 0.2 0
0.93333333 0.2 0
0.96666667 0.2 0
1 0.2 0
0 0.23333333 0
0.033333333 0.23333333 0
0.066666667 0.23333333 0
0.1 0.23333333 0
0.13333333 0.23333333 0
0.16666667 0.23333333 0
0.2 0.23333333 0
0.23333333 0.23333333 0
0.26666667 0.23333333 0
0.3 0.23333333 0
0.33333333 0.23333333 0
0.36666667 0.23333333 0
0.4 0.23333333 0
0.43333333 0.23333333 0
0.46666667 0.23333333 0
0.5 0.23333333 0
0.53333333 0.23333333 0
0.56666667 0.23333333 0
0.6 0.23333333 0
0.63333333 0.23333333 0
0.66666667 0.23333333 0
0.7 0.23333333 0
0.73333333 0.23333333 0
0.76666667 0.23333333 0
0.8 0.23333333 0
0.83333333 0.23333333 0
0.86666667 0.23333333 0
0.9 0.23333333 0
0.93333333 0.23333333 0
0.96666667 0.23333333 0
1 0.23333333 0
0 0.26666667 0
0.033333333 0.26666667 0
0.066666667 0.26666667 0
0.1 0.26666667 0
0.13333333 0.26666667 0
0.16666667 0.26666667 0
0.2 0.26666667 0
0.23333333 0.26666667 0
0.26666667 0.26666667 0
0.3 0.26666667 0
0.33333333 0.26666667 0
0.36666667 0.26666667 0
0.4 0.26666667 0
0.43333333 0.26666667 0
0.46666667 0.26666667 0
0.5 0.26666667 0
0.53333333 0.26666667 0
0.56666667 0.26666667 0
0.6 0.26666667 0
0.63333333 0.26666667 0
0.66666667 0.26666667 0
0.7 0.26666667 0
0.73333333 0.26666667 0
0.76666667 0.26666667 0
0.8 0.26666667 0
0.83333333 0.26666667 0
0.86666667 0.26666667 0
0.9 0.26666667 0
0.93333333 0.26666667 0
0.96666667 0.26666667 0
1 0.26666667 0
0 0.3 0
0.033333333 0.3 0
0.066666667 0.3 0
0.1 0.3 0
0.13333333 0.3 0
0.16666667 0.3 0
0.2 0.3 0
0.23333333 0.3 0
0.26666667 0.3 0
0.3 0.3 0
0.33333333 0.3 0
0.36666667 0.3 0
0.4 0.3 0
0.43333333 0.3 0
0.46666667 0.3 0
0.5 0.3 0
0.53333333 0.3 0
0.56666667 0.3 0
0.6 0.3 0
0.63333333 0.3 0
0.66666667 0.3 0
0.7 0.3 0
0.73333333 0.3 0
0.76666667 0.3 0
0.8 0.3 0
0.83333333 0.3 0
0.86666667 0.3 0
0.9 0.3 0
0.93333333 0.3 0
0.96666667 0.3 0
1 0.3 0
0 0.33333333 0
0.033333333 0.33333333 0
0.066666667 0.33333333 0
0.1 0.33333333 0
0.13333333 0.33333333 0
0.16666667 0.33333333 0
0.2 0.33333333 0
0.23333333 0.33333333 0
0.26666667 0.33333333 0
0.3 0.33333333 0
0.33333333 0.33333333 0
0.36666667 0.33333333 0
0.4 0.33333333 0
0.43333333 0.33333333 0
0.46666667 0.33333333 0
0.5 0.33333333 0
0.53333333 0.33333333 0
0.56666667 0.33333333 0
0.6 0.33333333 0
0.63333333 0.33333333 0
0.66666667 0.33333333 0
0.7 0.33333333 0
0.73333333 0.33333333 0
0.76666667 0.33333333 0
0.8 0.33333333 0
0.83333333 0.33333333 0
0.86666667 0.33333333 0
0.9 0.33333333 0
0.93333333 0.33333333 0
0.96666667 0.33333333 0
1 0.33333333 0
0 0.36666667 0
0.033333333 0.36666667 0
0.066666667 0.36666667 0
0.1 0.36666667 0
0.13333333 0.36666667 0
0.16666667 0.36666667 0
0.2 0.36666667 0
0.23333333 0.36666667 0
0.26666667 0.36666667 0
0.3 0.36666667 0
0.33333333 0.36666667 0
0.36666667 0.36666667 0
0.4 0.36666667 0
0.43333333 0.36666667 0
0.46666667 0.36666667 0
0.5 0.36666667 0
0.53333333 0.36666667 0
0.56666667 0.36666667 0
0.6 0.36666667 0
0.63333333 0.36666667 0
0.66666667 0.36666667 0
0.7 0.36666667 0
0.73333333 0.36666667 0
0.76666667 0.36666667 0
0.8 0.36666667 0
0.83333333 0.36666667 0
0.86666667 0.36666667 0
0.9 0.36666667 0
0.93333333 0.36666667 0
0.96666667 0.36666667 0
1 0.36666667 0
0 0.4 0
0.033333333 0.4 0
0.066666667 0.4 0
0.1 0.4 0
0.13333333 0.4 0
0.16666667 0.4 0
0.2 0.4 0
0.23333333 0.4 0
0.26666667 0.4 0
0.3 0.4 0
0.33333333 0.4 0
0.36666667 0.4 0
0.4 0.4 0
0.43333333 0.4 0
0.46666667 0.4 0
0.5 0.4 0
0.53333333 0.4 0
0.56666667 0.4 0
0.6 0.4 0
0.63333333 0.4 0
0.66666667 0.4 0
0.7 0.4 0
0.73333333 0.4 0
0.76666667 0.4 0
0.8 0.4 0
0.83333333 0.4 0
0.86666667 0.4 0
0.9 0.4 0
0.93333333 0.4 0
0.96666667 0.4 0
1 0.4 0
0 0.43333333 0
0.033333333 0.43333333 0
0.066666667 0.43333333 0
0.1 0.43333333 0
0.13333333 0.43333333 0
0.16666667 0.43333333 0
0.2 0.43333333 0
0.23333333 0.43333333 0
0.26666667 0.43333333 0
0.3 0.43333333 0
0.33333333 0.43333333 0
0.36666667 0.43333333 0
0.4 0.43333333 0
0.43333333 0.43333333 0
0.46666667 0.43333333 0
0.5 0.43333333 0
0.53333333 0.43333333 0
0.56666667 0.43333333 0
0.6 0.43333333 0
0.63333333 0.43333333 0
0.66666667 0.43333333 0
0.7 0.43333333 0
0.73333333 0.43333333 0
0.76666667 0.43333333 0
0.8 0.43333333 0
0.83333333 0.43333333 0
0.86666667 0.43333333 0
0.9 0.43333333 0
0.93333333 0.43333333 0
0.96666667 0.43333333 0
1 0.43333333 0
0 0.46666667 0
0.033333333 0.46666667 0
0.066666667 0.46666667 0
0.1 0.46666667 0
0.13333333 0.46666667 0
0.16666667 0.46666667 0
0.2 0.46666667 0
0.23333333 0.46666667 0
0.26666667 0.46666667 0
0.3 0.46666667 0
0.33333333 0.46666667 0
0.36666667 0.46666667 0
0.4 0.46666667 0
0.43333333 0.46666667 0
0.46666667 0.46666667 0
0.5 0.46666667 0
0.53333333 0.46666667 0
0.56666667 0.46666667 0
0.6 0.46666667 0
0.63333333 0.46666667 0
0.66666667 0.46666667 0
0.7 0.46666667 0
0.73333333 0.46666667 0
0.76666667 0.46666667 0
0.8 0.46666667 0
0.83333333 0.46666667 0
0.86666667 0.46666667 0
0.9 0.46666667 0
0.93333333 0.46666667 0
0.96666667 0.46666667 0
1 0.46666667 0
0 0.5 0
0.033333333 0.5 0
0.066666667 0.5 0
0.1 0.5 0
0.13333333 0.5 0
0.16666667 0.5 0
0.2 0.5 0
0.23333333 0.5 0
0.26666667 0.5 0
0.3 0.5 0
0.33333333 0.5 0
0.36666667 0.5 0
0.4 0.5 0
0.43333333 0.5 0
0.46666667 0.5 0
0.5 0.5 0
0.53333333 0.5 0
0.56666667 0.5 0
0.6 0.5 0
0.63333333 0.5 0
0.66666667 0.5 0
0.7 0.5 0
0.73333333 0.5 0
0.76666667 0.5 0
0.8 0.5 0
0.83333333 0.5 0
0.86666667 0.5 0
0.9 0.5 0
0.93333333 0.5 0
0.96666667 0.5 0
1 0.5 0
0 0.53333333 0
0.033333333 0.53333333 0
0.066666667 0.53333333 0
0.1 0.53333333 0
0.13333333 0.53333333 0
0.16666667 0.53333333 0
0.2 0.53333333 0
0.23333333 0.53333333 0
0.26666667 0.53333333 0
0.3 0.53333333 0
0.33333333 0.53333333 0
0.36666667 0.53333333 0
0.4 0.53333333 0
0.43333333 0.53333333 0
0.46666667 0.53333333 0
0.5 0.53333333 0
0.53333333 0.53333333 0
0.56666667 0.53333333 0
0.6 0.53333333 0
0.63333333 0.53333333 0
0.66666667 0.53333333 0
0.7 0.53333333 0
0.73333333 0.53333333 0
0.76666667 0.53333333 0
0.8 0.53333333 0
[...]
CELL_DATA 1920
Scalars  Label int 1
LOOKUP_TABLE FreeFempp_table
0
0
0
0
0
0
0
0
0
0
0
0
0
0
0
0
0
0
0
0
0
0
0
0
0
0
0
0
0
0
0
0
0
0
0
0
0
0
0
0
0
0
0
0
0
0
0
0
0
0
0
0
0
0
0
0
0
0
0
0
0
0
0
0
0
0
0
0
0
0
0
0
0
0
0
0
0
0
0
0
0
0
0
0
0
0
0
0
0
0
0
0
0
0
0
0
0
0
0
0
0
0
0
0
0
0
0
0
0
0
0
0
0
0
0
0
0
0
0
0
0
0
0
0
0
0
0
0
0
0
0
0
0
0
0
0
0
0
0
0
0
0
0
0
0
0
0
0
0
0
0
0
0
0
0
0
0
0
0
0
0
0
0
0
0
0
0
0
0
0
0
0
0
0
0
0
0
0
0
0
0
0
0
0
0
0
0
0
0
0
0
0
0
0
0
0
0
0
0
0
0
0
0
0
0
0
0
0
0
0
0
0
0
0
0
0
0
0
0
0
0
0
0
0
0
0
0
0
0
0
0
0
0
0
0
0
0
0
0
0
0
0
0
0
0
0
0
0
0
0
0
0
0
0
0
0
0
0
0
0
0
0
0
0
0
0
0
0
0
0
0
0
0
0
0
0
0
0
0
0
0
0
0
0
0
0
0
0
0
0
0
0
0
0
0
0
0
0
0
0
0
0
0
0
0
0
0
0
0
0
0
0
0
0
0
0
0
0
0
0
0
0
0
0
0
0
0
0
0
0
0
0
0
0
0
0
0
0
0
0
0
0
0
0
0
0
0
0
0
0
0
0
0
0
0
0
0
0
0
0
0
0
0
0
0
0
0
0
0
0
0
0
0
0
0
0
0
0
0
0
0
0
0
0
0
0
0
0
0
0
0
0
0
0
0
0
0
0
0
0
0
0
0
0
0
0
0
0
0
0
0
0
0
0
0
0
0
0
0
0
0
0
0
0
0
0
0
0
0
0
0
0
0
0
0
0
0
0
0
0
0
0
0
0
0
0
0
0
0
0
0
0
0
0
0
0
0
0
0
0
0
0
0
0
0
0
0
0
0
0
0
0
0
0
0
0
0
0
0
0
0
0
0
0
0
0
0
0
0
0
0
0
0
0
0
0
0
0
0
0
0
0
0
0
0
0
0
0
0
0
0
0
0
0
0
0
0
0
0
0
0
0
0
0
0
0
0
0
0
0
0
0
0
0
0
0
0
0
0
0
0
0
0
0
0
0
0
0
0
0
0
0
0
0
0
0
0
0
0
0
0
0
0
0
0
0
0
0
0
0
0
0
0
0
0
0
0
0
0
0
0
0
0
0
0
0
0
0
0
0
0
0
0
0
0
0
0
0
0
0
0
0
0
0
0
0
0
0
0
0
0
0
0
0
0
0
0
0
0
0
0
0
0
0
0
0
0
0
0
0
0
0
0
0
0
0
0
0
0
0
0
0
0
0
0
0
0
0
0
0
0
0
0
0
0
0
0
0
0
0
0
0
0
0
0
0
0
0
0
0
0
0
0
0
0
0
0
0
0
0
0
0
0
0
0
0
0
0
0
0
0
0
0
0
0
0
0
0
0
0
0
0
0
0
0
0
0
0
0
0
0
0
0
0
0
0
0
0
0
0
0
0
0
0
0
0
0
0
0
0
0
0
0
0
0
0
0
0
0
0
0
0
0
0
0
0
0
0
0
0
0
0
0
0
0
0
0
0
0
0
0
0
0
0
0
0
0
0
0
0
0
0
0
0
0
0
0
0
0
0
0
0
0
0
0
0
0
0
0
0
0
0
0
0
0
0
0
0
0
0
0
0
0
0
0
0
0
0
0
0
0
0
0
0
0
0
0
0
0
0
0
0
0
0
0
0
0
0
0
0
0
0
0
0
0
0
0
0
0
0
0
0
0
0
0
0
0
0
0
0
0
0
0
0
0
0
0
0
0
0
0
0
0
0
0
0
0
0
0
0
0
0
0
0
0
0
0
0
0
0
0
0
0
0
0
0
0
0
0
0
0
0
0
0
0
0
0
0
0
0
0
0
0
0
0
0
0
0
0
0
0
0
0
0
0
0
0
0
0
0
0
0
0
0
0
0
0
0
0
0
0
0
0
0
0
0
0
0
0
0
0
0
0
0
0
0
0
0
0
0
0
0
0
0
0
0
0
0
0
0
0
0
0
0
0
0
0
0
0
0
0
0
0
0
0
0
0
0
0
0
0
0
0
0
0
0
0
0
0
0
0
0
0
0
0
0
0
0
0
0
0
0
0
0
0
0
0
0
0
0
0
0
0
0
0
0
0
0
0
0
0
0
0
0
0
0
0
0
0
0
0
0
0
0
0
0
0
0
0
0
0
0
0
0
0
0
0
0
0
0
0
0
0
0
0
0
0
0
0
0
0
0
0
0
0
0
0
0
0
0
0
0
0
0
0
0
0
0
0
0
0
0
0
0
0
0
0
0
0
0
0
0
0
0
0
0
0
0
0
0
0
0
0
0
0
0
0
0
0
0
0
0
0
0
0
0
0
0
0
0
0
0
0
0
0
0
0
0
0
0
0
0
0
0
0
0
0
0
0
0
0
0
0
0
0
0
0
0
0
0
0
0
0
0
0
0
0
0
0
0
0
0
0
0
0
0
0
0
0
0
0
0
0
0
0
0
0
0
0
0
0
0
0
0
0
0
0
0
0
0
0
0
0
0
0
0
0
0
0
0
0
0
0
0
0
0
0
0
0
0
0
0
0
0
0
0
0
0
0
0
0
0
0
0
0
0
0
0
0
0
0
0
0
0
0
0
0
0
0
0
0
0
0
0
0
0
0
0
0
0
0
0
0
0
0
0
0
0
0
0
0
0
0
0
0
0
0
0
0
0
0
0
0
0
0
0
0
0
0
0
0
0
0
0
0
0
0
0
0
0
0
0
0
0
0
0
0
0
0
0
0
0
0
0
0
0
0
0
0
0
0
0
0
0
0
0
0
0
0
0
0
0
0
0
0
0
0
0
0
0
0
0
0
0
0
0
0
0
0
0
0
0
0
0
0
0
0
0
0
0
0
0
0
0
0
0
0
0
0
0
0
0
0
0
0
0
0
0
0
0
0
0
0
0
0
0
0
0
0
0
0
0
0
0
0
0
0
0
0
0
0
0
0
0
0
0
0
0
0
0
0
0
0
0
0
0
0
0
0
0
0
0
0
0
0
0
0
0
0
0
0
0
0
0
0
0
0
0
0
0
0
0
0
0
0
0
0
0
0
0
0
0
0
0
0
0
0
0
0
0
0
0
0
0
0
0
0
0
0
0
0
0
0
0
0
0
0
0
0
0
0
0
0
0
0
0
0
0
0
0
0
0
0
0
0
0
0
0
0
0
0
0
0
0
0
0
0
0
0
0
0
0
0
0
0
0
0
0
0
0
0
0
0
0
0
0
0
0
0
0
0
0
0
0
0
0
0
0
0
0
0
0
0
0
0
0
0
0
0
0
0
0
0
0
0
0
0
0
0
0
0
0
0
0
0
0
0
0
0
0
0
0
0
0
0
0
0
0
0
0
0
0
0
0
0
0
0
0
0
0
0
0
0
0
0
0
0
0
0
0
0
0
0
0
0
0
0
0
0
0
0
0
0
0
0
0
0
0
0
0
0
0
0
0
0
0
0
0
0
0
0
0
0
0
0
0
0
0
0
0
0
0
0
0
0
0
0
0
0
0
0
0
0
0
0
0
0
0
0
0
0
0
0
0
0
0
0
0
0
0
0
0
0
0
0
0
0
0
0
0
0
0
0
0
0
0
0
0
0
0
0
0
0
0
0
0
0
0
0
0
0
0
0
0
0
0
0
0
0
0
0
0
0
0
0
0
0
0
0
0
0
0
0
0
0
0
0
0
0
0
0
0
0
0
0
0
0
0
0
0
0
0
0
0
0
0
0
0
0
0
0
0
0
0
0
0
0
0
0
0
0
0
0
0
0
0
0
0
0
0
0
0
0
0
0
0
0
0
0
0
0
0
0
0
0
0
0
0
0
0
0
0
0
0
0
0
0
0
0
0
0
0
0
0
0
0
0
0
0
0
1
1
1
1
1
1
1
1
1
1
1
1
1
1
1
1
1
1
1
1
1
1
1
1
1
1
1
1
1
1
2
2
2
2
2
2
2
2
2
2
2
2
2
2
2
2
2
2
2
2
2
2
2
2
2
2
2
2
2
2
3
3
3
3
3
3
3
3
3
3
3
3
3
3
3
3
3
3
3
3
3
3
3
3
3
3
3
3
3
3
4
4
4
4
4
4
4
4
4
4
4
4
4
4
4
4
4
4
4
4
4
4
4
4
4
4
4
4
4
4

LOOKUP_TABLE FreeFempp_table 5
1.00000000 0.00000000 0.00000000 1.00000000
1.00000000 1.00000000 0.00000000 1.00000000
1.00000000 0.00000000 1.00000000 1.00000000
0.00000000 1.00000000 0.00000000 1.00000000
0.00000000 1.00000000 1.00000000 1.00000000

POINT_DATA 961
FIELD FieldData 1
Density 1 961 float
2.30337054e-01 1.99587271e-01 1.99611932e-01 2.00673386e-01 2.01930866e-01 2.02950969e-01 2.03484625e-01 2.03859717e-01 2.05843583e-01 2.06355706e-01 2.05260038e-01 2.04765201e-01 1.92123055e-01 4.01622467e-02 1.45207930e-04 1.28410844e-04 1.85279947e-04 1.16148494e-01 2.56884813e-01 1.00637376e-02 8.15220643e-03 9.48637784e-01 8.96299899e-01 6.13755286e-01 3.21880877e-01 4.38668936e-01 4.10562038e-01 3.73009712e-01 3.82738024e-01 3.62727255e-01 3.18557084e-01 1.96928754e-01 1.32452115e-01 1.33338854e-01 1.35258421e-01 1.37361720e-01 1.39238015e-01 1.40856698e-01 1.41717017e-01 1.41812027e-01 1.41088501e-01 1.38539359e-01 1.33898303e-01 1.13271080e-01 2.58603524e-02 1.52146196e-04 1.18963530e-04 1.23705671e-04 8.43424723e-03 7.03914821e-01 1.32316898e-04 1.15586823e-04 1.71165389e-04 1.81288968e-04 2.25922689e-01 2.40318969e-01 4.01769131e-01 4.30667162e-01 3.66139233e-01 3.17575932e-01 3.27080607e-01 3.31079185e-01 1.06824213e-04 1.08032582e-04 2.89368909e-04 1.16200149e-02 8.18489194e-02 1.35890484e-01 1.43735573e-01 1.29744560e-01 1.30429968e-01 1.41574860e-01 1.41183823e-01 1.20845534e-01 1.47971546e-03 1.16754512e-04 1.08215761e-04 1.06228101e-04 1.05393090e-04 1.05281215e-04 1.05183433e-04 9.98251557e-01 2.24876829e-04 1.47847953e-04 1.27581166e-04 1.28580286e-04 1.53387839e-04 4.18441719e-04 1.56774651e-02 1.47850081e-01 2.11991146e-01 2.02645153e-01 2.67470360e-01 1.07737986e-04 1.03816194e-04 1.04038292e-04 1.04936502e-04 1.04992410e-04 1.05000538e-04 1.05005733e-04 1.05391417e-04 1.05888881e-04 1.55108050e-04 4.96541790e-04 1.56136171e-04 1.14122333e-04 1.08203698e-04 1.08304150e-04 1.07224565e-04 1.06834865e-04 1.05553991e-04 1.03420527e-04 1.03527855e-04 9.99301195e-01 2.15614140e-02 3.98715667e-04 1.29208973e-04 1.19546719e-04 1.15856645e-04 1.15270355e-04 6.17554761e-04 6.09069504e-02 1.45868495e-01 2.19327226e-01 1.27809867e-03 1.38152755e-04 1.06056686e-04 1.05214349e-04 1.04936662e-04 1.04976039e-04 1.04993211e-04 1.05070962e-04 1.03911123e-04 1.04144994e-04 1.05676263e-04 1.06513296e-04 1.08914443e-04 1.08839857e-04 1.10579327e-04 1.32099260e-04 8.78166035e-02 1.16140351e-01 1.13967255e-01 1.03889499e-04 1.03952712e-04 9.97460663e-01 3.39745171e-02 1.28456822e-03 1.90025603e-04 1.21656405e-04 1.08231754e-04 1.05472442e-04 3.67967557e-04 6.44792616e-02 2.05117434e-01 1.34340793e-01 4.83966358e-02 4.43139113e-02 4.20925766e-02 4.16045822e-02 4.55266237e-02 5.57719655e-02 3.92544046e-02 4.41530836e-04 1.07741871e-04 1.06410414e-04 1.05746978e-04 1.07166838e-04 1.13236965e-04 1.55974514e-04 3.50493751e-02 1.19820923e-01 1.33783802e-01 1.32779330e-01 1.24625064e-01 1.03723927e-04 1.02666883e-04 9.93361890e-01 1.43805698e-01 2.92975698e-02 1.26643917e-02 3.30575014e-04 1.03542305e-04 1.02863793e-04 4.06536885e-04 1.34890318e-01 2.13256508e-01 9.61059555e-02 8.09339061e-02 7.43066743e-02 6.89476579e-02 6.55400455e-02 6.23585731e-02 5.30620813e-02 3.97739820e-02 4.38818559e-02 8.56631175e-02 8.26001167e-02 8.83474573e-02 1.13504037e-01 1.46819636e-01 1.46683946e-01 1.50741979e-01 1.51994571e-01 1.46053791e-01 1.32164791e-01 3.63677666e-02 1.03351602e-04 1.07836597e-04 9.68821347e-01 8.87531161e-01 7.95901656e-01 4.97800976e-01 1.55817333e-03 1.02912869e-04 1.03537393e-04 6.06022892e-04 3.56739253e-01 2.97014177e-01 2.70441353e-01 2.42845699e-01 2.16710791e-01 1.93777621e-01 1.76060364e-01 1.63202181e-01 1.50236934e-01 1.44160852e-01 1.82431623e-01 2.28153437e-01 2.42882386e-01 2.41612107e-01 2.29941279e-01 2.11323261e-01 2.06242308e-01 1.97712421e-01 1.82359561e-01 1.62071973e-01 1.36348903e-01 1.09407934e-04 1.05809879e-04 4.91909713e-01 7.51548350e-01 8.54851067e-01 4.52778906e-01 9.02190983e-01 1.68385523e-04 1.04045910e-04 1.07779932e-04 5.24765253e-01 6.34986103e-01 6.10115051e-01 5.81494093e-01 5.48207045e-01 5.13562977e-01 4.81792361e-01 4.57241476e-01 4.39419657e-01 4.25985485e-01 4.15466458e-01 4.08821613e-01 4.04634446e-01 3.92296016e-01 3.61370444e-01 3.27978194e-01 3.07679057e-01 2.88410932e-01 2.65660465e-01 2.37382367e-01 2.02762425e-01 1.52023554e-01 1.05914609e-04 1.07291577e-04 1.12279780e-01 7.55163208e-02 2.46092066e-04 1.78355738e-04 9.35097635e-01 1.07262727e-04 1.06857886e-04 6.04872346e-01 8.09518278e-01 7.89525688e-01 7.82857597e-01 7.71053731e-01 7.54137337e-01 7.31246650e-01 7.03315854e-01 6.72330081e-01 6.38770878e-01 6.01506829e-01 5.59236646e-01 5.19094646e-01 5.03503382e-01 4.91427571e-01 4.69661891e-01 4.43570793e-01 4.13667679e-01 3.86670560e-01 3.57919186e-01 3.25471252e-01 2.85925269e-01 2.23997116e-01 1.07996959e-04 1.09359935e-04 1.85897501e-04 1.70421728e-04 1.70887026e-04 8.05258393e-01 1.12410133e-04 1.09536028e-04 5.28292954e-01 7.82288313e-01 7.61882484e-01 7.69853652e-01 7.73497581e-01 7.72163868e-01 7.62905359e-01 7.43684292e-01 7.15725482e-01 6.82350814e-01 6.46039546e-01 6.08387649e-01 5.73728919e-01 5.51112354e-01 5.40914476e-01 5.31686962e-01 5.18419087e-01 4.94673133e-01 4.74784255e-01 4.60785598e-01 4.50959176e-01 4.39868897e-01 4.35498863e-01 2.75618136e-01 1.12634494e-04 1.18398166e-04 1.51239001e-04 2.26086326e-04 9.98056889e-01 1.15996765e-04 1.13453287e-04 3.29309046e-01 4.84990180e-01 4.65478867e-01 4.75003034e-01 4.89023864e-01 5.09515226e-01 5.37375629e-01 5.65515518e-01 5.80941916e-01 5.80549181e-01 5.69255948e-01 5.52494586e-01 5.34612596e-01 5.21971822e-01 5.16177356e-01 5.10114670e-01 4.98228490e-01 4.82507557e-01 4.70042616e-01 4.66512442e-01 4.74132001e-01 4.91156578e-01 5.27547657e-01 6.32085562e-01 5.31752706e-01 1.30767352e-04 1.44759615e-04 1.93553366e-04 9.99232650e-01 1.18764707e-04 1.15911113e-04 1.75227672e-01 1.30569488e-01 1.07543059e-01 9.17055160e-02 8.55963081e-02 9.36944485e-02 1.25566006e-01 1.96383581e-01 2.93680370e-01 3.73505056e-01 4.17050004e-01 4.34418410e-01 4.37307358e-01 4.34073716e-01 4.30145353e-01 4.24296468e-01 4.13530290e-01 3.99866611e-01 3.89226198e-01 3.87268871e-01 3.96253079e-01 4.14223492e-01 4.41269726e-01 5.28497875e-01 7.14354694e-01 7.71524727e-01 2.04147189e-03 7.16115488e-03 9.99152720e-01 1.19389253e-04 1.17300486e-04 1.15254357e-01 3.53117473e-02 1.81168951e-02 1.12018408e-02 8.84919427e-03 9.62947495e-03 1.60279255e-02 4.01907042e-02 1.06161326e-01 2.05265999e-01 2.86136270e-01 3.29610676e-01 3.45942825e-01 3.46560210e-01 3.39643806e-01 3.28948736e-01 3.15260172e-01 3.01241279e-01 2.92324394e-01 2.93147981e-01 3.04413170e-01 3.20749909e-01 3.31765264e-01 3.46398383e-01 4.32211012e-01 5.01724720e-01 1.98134012e-03 7.75023655e-04 9.98586953e-01 1.20497607e-04 1.18473334e-04 9.98611450e-02 1.55599369e-02 4.39601997e-03 2.43175961e-03 2.03562481e-03 2.40126904e-03 4.50019864e-03 1.46703143e-02 5.42822815e-02 1.38451234e-01 2.25339994e-01 2.77451664e-01 2.97275126e-01 2.96022594e-01 2.82847852e-01 2.64057219e-01 2.43567064e-01 2.25396454e-01 2.14838639e-01 2.16393068e-01 2.31058359e-01 2.53516674e-01 2.69295633e-01 2.63434678e-01 2.61149615e-01 3.23374689e-01 1.09699629e-01 1.13202818e-03 9.93990779e-01 1.21881712e-04 1.19838747e-04 9.79970694e-02 7.73876673e-03 1.40579045e-03 8.63510533e-04 8.83577042e-04 1.32504839e-03 3.17944889e-03 1.27945915e-02 5.38306609e-02 1.37802497e-01 2.20319480e-01 2.69580573e-01 2.87208438e-01 2.82271922e-01 2.62805462e-01 2.35589623e-01 2.06259176e-01 1.80147693e-01 1.62543893e-01 1.57487616e-01 1.66721538e-01 1.88174158e-01 2.11347669e-01 2.16828823e-01 1.92075163e-01 1.78729698e-01 3.31108063e-01 7.90502727e-01 9.92623091e-01 1.25138366e-04 1.22405836e-04 9.94596109e-02 2.47902423e-03 5.46224357e-04 4.45730315e-04 5.68398682e-04 1.22614007e-03 4.44027642e-03 2.39480156e-02 8.92913342e-02 1.77072510e-01 2.45569646e-01 2.85585046e-01 2.99796671e-01 2.92689949e-01 2.69310355e-01 2.35398144e-01 1.97236270e-01 1.61431342e-01 1.33934751e-01 1.18743584e-01 1.18377894e-01 1.35373533e-01 1.68221325e-01 2.05091476e-01 2.35176995e-01 3.30764741e-01 7.64006853e-01 9.72332001e-01 9.73055959e-01 1.26880026e-04 1.25266190e-04 1.06026322e-01 5.87950461e-04 3.03020293e-04 3.08865681e-04 5.23338735e-04 1.92862074e-03 1.28691699e-02 6.85524568e-02 1.57148227e-01 2.28184283e-01 2.76754797e-01 3.07917058e-01 3.21063101e-01 3.15375626e-01 2.92342365e-01 2.55536705e-01 2.10604146e-01 1.65146172e-01 1.27030671e-01 1.01953380e-01 9.38388705e-02 1.10049538e-01 1.64343551e-01 2.73218066e-01 4.40132588e-01 7.28122950e-01 9.32778180e-01 9.76718724e-01 5.17646363e-03 1.29359425e-04 1.26507177e-04 1.20339841e-01 2.32933729e-04 2.21704948e-04 2.65659706e-04 7.40466639e-04 6.27793558e-03 5.66108562e-02 1.49448588e-01 2.18485579e-01 2.64534324e-01 2.99836189e-01 3.26913774e-01 3.41816634e-01 3.41015458e-01 3.23410124e-01 2.89819568e-01 2.43602231e-01 1.92014202e-01 1.45621389e-01 1.14254571e-01 1.04767583e-01 1.31816074e-01 2.39303187e-01 5.05792677e-01 7.72767186e-01 9.14872825e-01 9.53113496e-01 7.87825227e-01 2.39241563e-04 1.33000533e-04 1.29253865e-04 1.41097054e-01 1.56151873e-04 1.74862551e-04 3.00518615e-04 2.01238785e-03 3.90226841e-02 1.43981501e-01 2.11022437e-01 2.50830382e-01 2.83066064e-01 3.13187838e-01 3.39062333e-01 3.56477529e-01 3.62290442e-01 3.54530931e-01 3.31884623e-01 2.94906914e-01 2.49007583e-01 2.07274795e-01 1.88090503e-01 2.11363718e-01 3.18497479e-01 5.48862875e-01 8.06746602e-01 9.04147565e-01 9.27783132e-01 7.92567134e-01 2.79090949e-04 1.48270512e-04 1.38885007e-04 1.42382327e-04 1.62392199e-01 1.34631511e-04 1.44623249e-04 5.41750051e-04 1.48164108e-02 1.30055115e-01 2.06520259e-01 2.39111334e-01 2.63561159e-01 2.90203363e-01 3.17608237e-01 3.42194796e-01 3.61423045e-01 3.74111444e-01 3.79300058e-01 3.76204133e-01 3.66058469e-01 3.56540531e-01 3.70363176e-01 4.53559607e-01 6.36697590e-01 8.09020877e-01 8.84960115e-01 9.17411149e-01 8.92448068e-01 6.41341150e-01 4.56859474e-04 1.71921027e-04 1.44291495e-04 1.46955805e-04 2.00916795e-04 1.72985137e-01 1.27544219e-04 1.31902285e-04 2.55806185e-03 8.95109624e-02 1.96851939e-01 2.32041433e-01 2.47866422e-01 2.65781403e-01 2.88005918e-01 3.11889082e-01 3.34434748e-01 3.54788870e-01 3.73687446e-01 3.92664760e-01 4.14714336e-01 4.46689755e-01 5.04041493e-01 6.13439322e-01 7.76414096e-01 8.95242393e-01 8.57160926e-01 6.04980737e-02 4.51785862e-04 2.05374788e-04 1.67149061e-04 1.56275390e-04 1.57345217e-04 1.64643963e-04 2.35059983e-04 2.58640219e-02 1.44530818e-01 1.24667262e-04 1.26893952e-04 3.03356759e-02 1.71639010e-01 2.22996637e-01 2.37902209e-01 2.46662274e-01 2.59480208e-01 2.76401669e-01 2.95865744e-01 3.16073686e-01 3.36773276e-01 3.59790742e-01 3.89518887e-01 4.33677405e-01 5.04456639e-01 6.15939319e-01 7.62982726e-01 8.89401615e-01 9.43459988e-01 8.89343798e-01 1.42281596e-02 3.60002392e-04 2.90031108e-04 1.94861263e-04 1.57513554e-04 1.67606457e-04 2.54146842e-04 7.58470129e-03 2.17196777e-01 1.73080806e-02 1.23260863e-04 1.24171522e-04 9.83151123e-02 2.04706609e-01 2.32763767e-01 2.36010849e-01 2.38294497e-01 2.45207846e-01 2.56855577e-01 2.72111952e-01 2.89676875e-01 3.09110045e-01 3.32620740e-01 3.66221219e-01 4.20374215e-01 5.09298503e-01 6.40993059e-01 7.89792836e-01 8.97673428e-01 9.42605734e-01 9.25631821e-01 4.15599138e-01 1.22668711e-03 6.52346527e-04 1.31958025e-03 9.53485258e-03 2.78072953e-01 8.13088894e-01 9.21295762e-01 5.98078012e-01 2.20771675e-04 1.24794460e-04 1.22456637e-04 1.45818144e-01 2.23883256e-01 2.34475777e-01 2.27506861e-01 2.22487599e-01 2.23957688e-01 2.31558278e-01 2.43617237e-01 2.58289903e-01 2.74897635e-01 2.95321316e-01 3.25004995e-01 3.73853803e-01 4.55612361e-01 5.78797281e-01 7.23760784e-01 8.41554582e-01 9.05371308e-01 9.20786560e-01 8.64569068e-01 7.09002495e-01 8.78444433e-01 9.81499970e-01 9.87993479e-01 9.86773551e-01 9.79758620e-01 9.76862192e-01 8.62134874e-01 1.30595916e-04 1.32717061e-04 1.31368361e-04 1.87055781e-01 2.40622029e-01 2.26481557e-01 2.09238276e-01 1.99543521e-01 1.98262408e-01 2.03757897e-01 2.13607401e-01 2.25621849e-01 2.38970548e-01 2.54561961e-01 2.75744647e-01 3.09218138e-01 3.65100235e-01 4.52892423e-01 5.69384336e-01 6.89252436e-01 7.82788813e-01 8.37797701e-01 8.56593847e-01 8.75334740e-01 9.31108713e-01 9.55879927e-01 9.50651586e-01 9.41568434e-01 9.34774637e-01 9.40321922e-01 8.19164574e-01 1.18665041e-04 1.22688420e-04 1.84823919e-04 2.46925235e-01 2.44925708e-01 2.05820248e-01 1.83300555e-01 1.73671350e-01 1.72791377e-01 1.77686289e-01 1.85930192e-01 1.95785463e-01 2.06397936e-01 2.17705905e-01 2.30846986e-01 2.48689711e-01 2.76120156e-01 3.18910003e-01 3.79867822e-01 4.54481542e-01 5.32237649e-01 5.99788368e-01 6.39680266e-01 6.50543451e-01 6.55824244e-01 6.45541310e-01 6.19426608e-01 6.27564609e-01 6.71772003e-01 7.28300452e-01 6.02884591e-01 1.16215117e-04 1.18127951e-04 1.96776143e-03 3.42790931e-01 2.24651217e-01 1.75539300e-01 1.56886786e-01 1.51220784e-01 1.52196780e-01 1.56848624e-01 1.63585171e-01 1.71740428e-01 1.80572778e-01 1.89483300e-01 1.98130131e-01 2.06524536e-01 2.15475976e-01 2.26882964e-01 2.42789358e-01 2.63535321e-01 2.87048459e-01 3.08462381e-01 3.16297859e-01 2.99529970e-01 2.70993024e-01 2.57840425e-01 2.73619801e-01 3.20253193e-01 3.84579033e-01 4.40877140e-01 4.05919641e-01 1.14347677e-04 1.16458257e-04 1.65770456e-01 2.90792555e-01 1.85431391e-01 1.48462608e-01 1.38726875e-01 1.37118623e-01 1.39084861e-01 1.42785832e-01 1.47976950e-01 1.54606894e-01 1.62436157e-01 1.70751274e-01 1.78563029e-01 1.84323967e-01 1.86126336e-01 1.82810023e-01 1.74897507e-01 1.63833424e-01 1.50552884e-01 1.36094198e-01 1.23284347e-01 1.15348779e-01 1.14305370e-01 1.23423383e-01 1.47234529e-01 1.85289398e-01 2.29784653e-01 2.68252313e-01 3.03460598e-01 1.13772941e-04 1.14674804e-04 2.91679949e-01 2.13568524e-01 1.61536977e-01 1.41665131e-01 1.34551436e-01 1.32664785e-01 1.32972956e-01 1.34949461e-01 1.38565481e-01 1.43810466e-01 1.51206493e-01 1.60380796e-01 1.70112118e-01 1.78075492e-01 1.80202201e-01 1.71382025e-01 1.48613393e-01 1.14820525e-01 7.92054385e-02 5.21109849e-02 3.84646244e-02 3.77332978e-02 4.88073602e-02 7.09626228e-02 1.01505645e-01 1.33941457e-01 1.60810545e-01 1.87087029e-01 2.52356946e-01 1.28935106e-04 1.19519405e-04 5.61503828e-01 2.45662510e-01 2.31836975e-01 2.16984659e-01 2.07667828e-01 2.03293264e-01 2.02140912e-01 2.02782571e-01 2.04949290e-01 2.08460972e-01 2.13494107e-01 2.20318645e-01 2.28016227e-01 2.34949663e-01 2.38234818e-01 2.33308122e-01 2.15081394e-01 1.81394160e-01 1.37513831e-01 9.66210067e-02 7.14125261e-02 6.64499700e-02 8.19135979e-02 1.15529381e-01 1.57369852e-01 1.93724111e-01 2.15287134e-01 2.25195542e-01 2.55749613e-01 
