# vtk DataFile Version 2.0
results/iter1.vtk, Created by Freefem++ 
ASCII
DATASET UNSTRUCTURED_GRID
POINTS 961 float
0 0 0
0.033333333 0 0
0.066666667 0 0
0.1 0 0
0.13333333 0 0
0.16666667 0 0
0.2 0 0
0.23333333 0 0
0.26666667 0 0
0.3 0 0
0.33333333 0 0
0.36666667 0 0
0.4 0 0
0.43333333 0 0
0.46666667 0 0
0.5 0 0
0.53333333 0 0
0.56666667 0 0
0.6 0 0
0.63333333 0 0
0.66666667 0 0
0.7 0 0
0.73333333 0 0
0.76666667 0 0
0.8 0 0
0.83333333 0 0
0.86666667 0 0
0.9 0 0
0.93333333 0 0
0.96666667 0 0
1 0 0
0 0.033333333 0
0.033333333 0.033333333 0
0.066666667 0.033333333 0
0.1 0.033333333 0
0.13333333 0.033333333 0
0.16666667 0.033333333 0
0.2 0.033333333 0
0.23333333 0.033333333 0
0.26666667 0.033333333 0
0.3 0.033333333 0
0.33333333 0.033333333 0
0.36666667 0.033333333 0
0.4 0.033333333 0
0.43333333 0.033333333 0
0.46666667 0.033333333 0
0.5 0.033333333 0
0.53333333 0.033333333 0
0.56666667 0.033333333 0
0.6 0.033333333 0
0.63333333 0.033333333 0
0.66666667 0.033333333 0
0.7 0.033333333 0
0.73333333 0.033333333 0
0.76666667 0.033333333 0
0.8 0.033333333 0
0.83333333 0.033333333 0
0.86666667 0.033333333 0
0.9 0.033333333 0
0.93333333 0.033333333 0
0.96666667 0.033333333 0
1 0.033333333 0
0 0.066666667 0
0.033333333 0.066666667 0
0.066666667 0.066666667 0
0.1 0.066666667 0
0.13333333 0.066666667 0
0.16666667 0.066666667 0
0.2 0.066666667 0
0.23333333 0.066666667 0
0.26666667 0.066666667 0
0.3 0.066666667 0
0.33333333 0.066666667 0
0.36666667 0.066666667 0
0.4 0.066666667 0
0.43333333 0.066666667 0
0.46666667 0.066666667 0
0.5 0.066666667 0
0.53333333 0.066666667 0
0.56666667 0.066666667 0
0.6 0.066666667 0
0.63333333 0.066666667 0
0.66666667 0.066666667 0
0.7 0.066666667 0
0.73333333 0.066666667 0
0.76666667 0.066666667 0
0.8 0.066666667 0
0.83333333 0.066666667 0
0.86666667 0.066666667 0
0.9 0.066666667 0
0.93333333 0.066666667 0
0.96666667 0.066666667 0
1 0.066666667 0
0 0.1 0
0.033333333 0.1 0
0.066666667 0.1 0
0.1 0.1 0
0.13333333 0.1 0
0.16666667 0.1 0
0.2 0.1 0
0.23333333 0.1 0
0.26666667 0.1 0
0.3 0.1 0
0.33333333 0.1 0
0.36666667 0.1 0
0.4 0.1 0
0.43333333 0.1 0
0.46666667 0.1 0
0.5 0.1 0
0.53333333 0.1 0
0.56666667 0.1 0
0.6 0.1 0
0.63333333 0.1 0
0.66666667 0.1 0
0.7 0.1 0
0.73333333 0.1 0
0.76666667 0.1 0
0.8 0.1 0
0.83333333 0.1 0
0.86666667 0.1 0
0.9 0.1 0
0.93333333 0.1 0
0.96666667 0.1 0
1 0.1 0
0 0.13333333 0
0.033333333 0.13333333 0
0.066666667 0.13333333 0
0.1 0.13333333 0
0.13333333 0.13333333 0
0.16666667 0.13333333 0
0.2 0.13333333 0
0.23333333 0.13333333 0
0.26666667 0.13333333 0
0.3 0.13333333 0
0.33333333 0.13333333 0
0.36666667 0.13333333 0
0.4 0.13333333 0
0.43333333 0.13333333 0
0.46666667 0.13333333 0
0.5 0.13333333 0
0.53333333 0.13333333 0
0.56666667 0.13333333 0
0.6 0.13333333 0
0.63333333 0.13333333 0
0.66666667 0.13333333 0
0.7 0.13333333 0
0.73333333 0.13333333 0
0.76666667 0.13333333 0
0.8 0.13333333 0
0.83333333 0.13333333 0
0.86666667 0.13333333 0
0.9 0.13333333 0
0.93333333 0.13333333 0
0.96666667 0.13333333 0
1 0.13333333 0
0 0.16666667 0
0.033333333 0.16666667 0
0.066666667 0.16666667 0
0.1 0.16666667 0
0.13333333 0.16666667 0
0.16666667 0.16666667 0
0.2 0.16666667 0
0.23333333 0.16666667 0
0.26666667 0.16666667 0
0.3 0.16666667 0
0.33333333 0.16666667 0
0.36666667 0.16666667 0
0.4 0.16666667 0
0.43333333 0.16666667 0
0.46666667 0.16666667 0
0.5 0.16666667 0
0.53333333 0.16666667 0
0.56666667 0.16666667 0
0.6 0.16666667 0
0.63333333 0.16666667 0
0.66666667 0.16666667 0
0.7 0.16666667 0
0.73333333 0.16666667 0
0.76666667 0.16666667 0
0.8 0.16666667 0
0.83333333 0.16666667 0
0.86666667 0.16666667 0
0.9 0.16666667 0
0.93333333 0.16666667 0
0.96666667 0.16666667 0
1 0.16666667 0
0 0.2 0
0.033333333 0.2 0
0.066666667 0.2 0
0.1 0.2 0
0.13333333 0.2 0
0.16666667 0.2 0
0.2 0.2 0
0.23333333 0.2 0
0.26666667 0.2 0
0.3 0.2 0
0.33333333 0.2 0
0.36666667 0.2 0
0.4 0.2 0
0.43333333 0.2 0
0.46666667 0.2 0
0.5 0.2 0
0.53333333 0.2 0
0.56666667 0.2 0
0.6 0.2 0
0.63333333 0.2 0
0.66666667 0.2 0
0.7 0.2 0
0.73333333 0.2 0
0.76666667 0.2 0
0.8 0.2 0
0.83333333 0.2 0
0.86666667 0.2 0
0.9 0.2 0
0.93333333 0.2 0
0.96666667 0.2 0
1 0.2 0
0 0.23333333 0
0.033333333 0.23333333 0
0.066666667 0.23333333 0
0.1 0.23333333 0
0.13333333 0.23333333 0
0.16666667 0.23333333 0
0.2 0.23333333 0
0.23333333 0.23333333 0
0.26666667 0.23333333 0
0.3 0.23333333 0
0.33333333 0.23333333 0
0.36666667 0.23333333 0
0.4 0.23333333 0
0.43333333 0.23333333 0
0.46666667 0.23333333 0
0.5 0.23333333 0
0.53333333 0.23333333 0
0.56666667 0.23333333 0
0.6 0.23333333 0
0.63333333 0.23333333 0
0.66666667 0.23333333 0
0.7 0.23333333 0
0.73333333 0.23333333 0
0.76666667 0.23333333 0
0.8 0.23333333 0
0.83333333 0.23333333 0
0.86666667 0.23333333 0
0.9 0.23333333 0
0.93333333 0.23333333 0
0.96666667 0.23333333 0
1 0.23333333 0
0 0.26666667 0
0.033333333 0.26666667 0
0.066666667 0.26666667 0
0.1 0.26666667 0
0.13333333 0.26666667 0
0.16666667 0.26666667 0
0.2 0.26666667 0
0.23333333 0.26666667 0
0.26666667 0.26666667 0
0.3 0.26666667 0
0.33333333 0.26666667 0
0.36666667 0.26666667 0
0.4 0.26666667 0
0.43333333 0.26666667 0
0.46666667 0.26666667 0
0.5 0.26666667 0
0.53333333 0.26666667 0
0.56666667 0.26666667 0
0.6 0.26666667 0
0.63333333 0.26666667 0
0.66666667 0.26666667 0
0.7 0.26666667 0
0.73333333 0.26666667 0
0.76666667 0.26666667 0
0.8 0.26666667 0
0.83333333 0.26666667 0
0.86666667 0.26666667 0
0.9 0.26666667 0
0.93333333 0.26666667 0
0.96666667 0.26666667 0
1 0.26666667 0
0 0.3 0
0.033333333 0.3 0
0.066666667 0.3 0
0.1 0.3 0
0.13333333 0.3 0
0.16666667 0.3 0
0.2 0.3 0
0.23333333 0.3 0
0.26666667 0.3 0
0.3 0.3 0
0.33333333 0.3 0
0.36666667 0.3 0
0.4 0.3 0
0.43333333 0.3 0
0.46666667 0.3 0
0.5 0.3 0
0.53333333 0.3 0
0.56666667 0.3 0
0.6 0.3 0
0.63333333 0.3 0
0.66666667 0.3 0
0.7 0.3 0
0.73333333 0.3 0
0.76666667 0.3 0
0.8 0.3 0
0.83333333 0.3 0
0.86666667 0.3 0
0.9 0.3 0
0.93333333 0.3 0
0.96666667 0.3 0
1 0.3 0
0 0.33333333 0
0.033333333 0.33333333 0
0.066666667 0.33333333 0
0.1 0.33333333 0
0.13333333 0.33333333 0
0.16666667 0.33333333 0
0.2 0.33333333 0
0.23333333 0.33333333 0
0.26666667 0.33333333 0
0.3 0.33333333 0
0.33333333 0.33333333 0
0.36666667 0.33333333 0
0.4 0.33333333 0
0.43333333 0.33333333 0
0.46666667 0.33333333 0
0.5 0.33333333 0
0.53333333 0.33333333 0
0.56666667 0.33333333 0
0.6 0.33333333 0
0.63333333 0.33333333 0
0.66666667 0.33333333 0
0.7 0.33333333 0
0.73333333 0.33333333 0
0.76666667 0.33333333 0
0.8 0.33333333 0
0.83333333 0.33333333 0
0.86666667 0.33333333 0
0.9 0.33333333 0
0.93333333 0.33333333 0
0.96666667 0.33333333 0
1 0.33333333 0
0 0.36666667 0
0.033333333 0.36666667 0
0.066666667 0.36666667 0
0.1 0.36666667 0
0.13333333 0.36666667 0
0.16666667 0.36666667 0
0.2 0.36666667 0
0.23333333 0.36666667 0
0.26666667 0.36666667 0
0.3 0.36666667 0
0.33333333 0.36666667 0
0.36666667 0.36666667 0
0.4 0.36666667 0
0.43333333 0.36666667 0
0.46666667 0.36666667 0
0.5 0.36666667 0
0.53333333 0.36666667 0
0.56666667 0.36666667 0
0.6 0.36666667 0
0.63333333 0.36666667 0
0.66666667 0.36666667 0
0.7 0.36666667 0
0.73333333 0.36666667 0
0.76666667 0.36666667 0
0.8 0.36666667 0
0.83333333 0.36666667 0
0.86666667 0.36666667 0
0.9 0.36666667 0
0.93333333 0.36666667 0
0.96666667 0.36666667 0
1 0.36666667 0
0 0.4 0
0.033333333 0.4 0
0.066666667 0.4 0
0.1 0.4 0
0.13333333 0.4 0
0.16666667 0.4 0
0.2 0.4 0
0.23333333 0.4 0
0.26666667 0.4 0
0.3 0.4 0
0.33333333 0.4 0
0.36666667 0.4 0
0.4 0.4 0
0.43333333 0.4 0
0.46666667 0.4 0
0.5 0.4 0
0.53333333 0.4 0
0.56666667 0.4 0
0.6 0.4 0
0.63333333 0.4 0
0.66666667 0.4 0
0.7 0.4 0
0.73333333 0.4 0
0.76666667 0.4 0
0.8 0.4 0
0.83333333 0.4 0
0.86666667 0.4 0
0.9 0.4 0
0.93333333 0.4 0
0.96666667 0.4 0
1 0.4 0
0 0.43333333 0
0.033333333 0.43333333 0
0.066666667 0.43333333 0
0.1 0.43333333 0
0.13333333 0.43333333 0
0.16666667 0.43333333 0
0.2 0.43333333 0
0.23333333 0.43333333 0
0.26666667 0.43333333 0
0.3 0.43333333 0
0.33333333 0.43333333 0
0.36666667 0.43333333 0
0.4 0.43333333 0
0.43333333 0.43333333 0
0.46666667 0.43333333 0
0.5 0.43333333 0
0.53333333 0.43333333 0
0.56666667 0.43333333 0
0.6 0.43333333 0
0.63333333 0.43333333 0
0.66666667 0.43333333 0
0.7 0.43333333 0
0.73333333 0.43333333 0
0.76666667 0.43333333 0
0.8 0.43333333 0
0.83333333 0.43333333 0
0.86666667 0.43333333 0
0.9 0.43333333 0
0.93333333 0.43333333 0
0.96666667 0.43333333 0
1 0.43333333 0
0 0.46666667 0
0.033333333 0.46666667 0
0.066666667 0.46666667 0
0.1 0.46666667 0
0.13333333 0.46666667 0
0.16666667 0.46666667 0
0.2 0.46666667 0
0.23333333 0.46666667 0
0.26666667 0.46666667 0
0.3 0.46666667 0
0.33333333 0.46666667 0
0.36666667 0.46666667 0
0.4 0.46666667 0
0.43333333 0.46666667 0
0.46666667 0.46666667 0
0.5 0.46666667 0
0.53333333 0.46666667 0
0.56666667 0.46666667 0
0.6 0.46666667 0
0.63333333 0.46666667 0
0.66666667 0.46666667 0
0.7 0.46666667 0
0.73333333 0.46666667 0
0.76666667 0.46666667 0
0.8 0.46666667 0
0.83333333 0.46666667 0
0.86666667 0.46666667 0
0.9 0.46666667 0
0.93333333 0.46666667 0
0.96666667 0.46666667 0
1 0.46666667 0
0 0.5 0
0.033333333 0.5 0
0.066666667 0.5 0
0.1 0.5 0
0.13333333 0.5 0
0.16666667 0.5 0
0.2 0.5 0
0.23333333 0.5 0
0.26666667 0.5 0
0.3 0.5 0
0.33333333 0.5 0
0.36666667 0.5 0
0.4 0.5 0
0.43333333 0.5 0
0.46666667 0.5 0
0.5 0.5 0
0.53333333 0.5 0
0.56666667 0.5 0
0.6 0.5 0
0.63333333 0.5 0
0.66666667 0.5 0
0.7 0.5 0
0.73333333 0.5 0
0.76666667 0.5 0
0.8 0.5 0
0.83333333 0.5 0
0.86666667 0.5 0
0.9 0.5 0
0.93333333 0.5 0
0.96666667 0.5 0
1 0.5 0
0 0.53333333 0
0.033333333 0.53333333 0
0.066666667 0.53333333 0
0.1 0.53333333 0
0.13333333 0.53333333 0
0.16666667 0.53333333 0
0.2 0.53333333 0
0.23333333 0.53333333 0
0.26666667 0.53333333 0
0.3 0.53333333 0
0.33333333 0.53333333 0
0.36666667 0.53333333 0
0.4 0.53333333 0
0.43333333 0.53333333 0
0.46666667 0.53333333 0
0.5 0.53333333 0
0.53333333 0.53333333 0
0.56666667 0.53333333 0
0.6 0.53333333 0
0.63333333 0.53333333 0
0.66666667 0.53333333 0
0.7 0.53333333 0
0.73333333 0.53333333 0
0.76666667 0.53333333 0
0.8 0.53333333 0
[...]
CELL_DATA 1920
Scalars  Label int 1
LOOKUP_TABLE FreeFempp_table
0
0
0
0
0
0
0
0
0
0
0
0
0
0
0
0
0
0
0
0
0
0
0
0
0
0
0
0
0
0
0
0
0
0
0
0
0
0
0
0
0
0
0
0
0
0
0
0
0
0
0
0
0
0
0
0
0
0
0
0
0
0
0
0
0
0
0
0
0
0
0
0
0
0
0
0
0
0
0
0
0
0
0
0
0
0
0
0
0
0
0
0
0
0
0
0
0
0
0
0
0
0
0
0
0
0
0
0
0
0
0
0
0
0
0
0
0
0
0
0
0
0
0
0
0
0
0
0
0
0
0
0
0
0
0
0
0
0
0
0
0
0
0
0
0
0
0
0
0
0
0
0
0
0
0
0
0
0
0
0
0
0
0
0
0
0
0
0
0
0
0
0
0
0
0
0
0
0
0
0
0
0
0
0
0
0
0
0
0
0
0
0
0
0
0
0
0
0
0
0
0
0
0
0
0
0
0
0
0
0
0
0
0
0
0
0
0
0
0
0
0
0
0
0
0
0
0
0
0
0
0
0
0
0
0
0
0
0
0
0
0
0
0
0
0
0
0
0
0
0
0
0
0
0
0
0
0
0
0
0
0
0
0
0
0
0
0
0
0
0
0
0
0
0
0
0
0
0
0
0
0
0
0
0
0
0
0
0
0
0
0
0
0
0
0
0
0
0
0
0
0
0
0
0
0
0
0
0
0
0
0
0
0
0
0
0
0
0
0
0
0
0
0
0
0
0
0
0
0
0
0
0
0
0
0
0
0
0
0
0
0
0
0
0
0
0
0
0
0
0
0
0
0
0
0
0
0
0
0
0
0
0
0
0
0
0
0
0
0
0
0
0
0
0
0
0
0
0
0
0
0
0
0
0
0
0
0
0
0
0
0
0
0
0
0
0
0
0
0
0
0
0
0
0
0
0
0
0
0
0
0
0
0
0
0
0
0
0
0
0
0
0
0
0
0
0
0
0
0
0
0
0
0
0
0
0
0
0
0
0
0
0
0
0
0
0
0
0
0
0
0
0
0
0
0
0
0
0
0
0
0
0
0
0
0
0
0
0
0
0
0
0
0
0
0
0
0
0
0
0
0
0
0
0
0
0
0
0
0
0
0
0
0
0
0
0
0
0
0
0
0
0
0
0
0
0
0
0
0
0
0
0
0
0
0
0
0
0
0
0
0
0
0
0
0
0
0
0
0
0
0
0
0
0
0
0
0
0
0
0
0
0
0
0
0
0
0
0
0
0
0
0
0
0
0
0
0
0
0
0
0
0
0
0
0
0
0
0
0
0
0
0
0
0
0
0
0
0
0
0
0
0
0
0
0
0
0
0
0
0
0
0
0
0
0
0
0
0
0
0
0
0
0
0
0
0
0
0
0
0
0
0
0
0
0
0
0
0
0
0
0
0
0
0
0
0
0
0
0
0
0
0
0
0
0
0
0
0
0
0
0
0
0
0
0
0
0
0
0
0
0
0
0
0
0
0
0
0
0
0
0
0
0
0
0
0
0
0
0
0
0
0
0
0
0
0
0
0
0
0
0
0
0
0
0
0
0
0
0
0
0
0
0
0
0
0
0
0
0
0
0
0
0
0
0
0
0
0
0
0
0
0
0
0
0
0
0
0
0
0
0
0
0
0
0
0
0
0
0
0
0
0
0
0
0
0
0
0
0
0
0
0
0
0
0
0
0
0
0
0
0
0
0
0
0
0
0
0
0
0
0
0
0
0
0
0
0
0
0
0
0
0
0
0
0
0
0
0
0
0
0
0
0
0
0
0
0
0
0
0
0
0
0
0
0
0
0
0
0
0
0
0
0
0
0
0
0
0
0
0
0
0
0
0
0
0
0
0
0
0
0
0
0
0
0
0
0
0
0
0
0
0
0
0
0
0
0
0
0
0
0
0
0
0
0
0
0
0
0
0
0
0
0
0
0
0
0
0
0
0
0
0
0
0
0
0
0
0
0
0
0
0
0
0
0
0
0
0
0
0
0
0
0
0
0
0
0
0
0
0
0
0
0
0
0
0
0
0
0
0
0
0
0
0
0
0
0
0
0
0
0
0
0
0
0
0
0
0
0
0
0
0
0
0
0
0
0
0
0
0
0
0
0
0
0
0
0
0
0
0
0
0
0
0
0
0
0
0
0
0
0
0
0
0
0
0
0
0
0
0
0
0
0
0
0
0
0
0
0
0
0
0
0
0
0
0
0
0
0
0
0
0
0
0
0
0
0
0
0
0
0
0
0
0
0
0
0
0
0
0
0
0
0
0
0
0
0
0
0
0
0
0
0
0
0
0
0
0
0
0
0
0
0
0
0
0
0
0
0
0
0
0
0
0
0
0
0
0
0
0
0
0
0
0
0
0
0
0
0
0
0
0
0
0
0
0
0
0
0
0
0
0
0
0
0
0
0
0
0
0
0
0
0
0
0
0
0
0
0
0
0
0
0
0
0
0
0
0
0
0
0
0
0
0
0
0
0
0
0
0
0
0
0
0
0
0
0
0
0
0
0
0
0
0
0
0
0
0
0
0
0
0
0
0
0
0
0
0
0
0
0
0
0
0
0
0
0
0
0
0
0
0
0
0
0
0
0
0
0
0
0
0
0
0
0
0
0
0
0
0
0
0
0
0
0
0
0
0
0
0
0
0
0
0
0
0
0
0
0
0
0
0
0
0
0
0
0
0
0
0
0
0
0
0
0
0
0
0
0
0
0
0
0
0
0
0
0
0
0
0
0
0
0
0
0
0
0
0
0
0
0
0
0
0
0
0
0
0
0
0
0
0
0
0
0
0
0
0
0
0
0
0
0
0
0
0
0
0
0
0
0
0
0
0
0
0
0
0
0
0
0
0
0
0
0
0
0
0
0
0
0
0
0
0
0
0
0
0
0
0
0
0
0
0
0
0
0
0
0
0
0
0
0
0
0
0
0
0
0
0
0
0
0
0
0
0
0
0
0
0
0
0
0
0
0
0
0
0
0
0
0
0
0
0
0
0
0
0
0
0
0
0
0
0
0
0
0
0
0
0
0
0
0
0
0
0
0
0
0
0
0
0
0
0
0
0
0
0
0
0
0
0
0
0
0
0
0
0
0
0
0
0
0
0
0
0
0
0
0
0
0
0
0
0
0
0
0
0
0
0
0
0
0
0
0
0
0
0
0
0
0
0
0
0
0
0
0
0
0
0
0
0
0
0
0
0
0
0
0
0
0
0
0
0
0
0
0
0
0
0
0
0
0
0
0
0
0
0
0
0
0
0
0
0
0
0
0
0
0
0
0
0
0
0
0
0
0
0
0
0
0
0
0
0
0
0
0
0
0
0
0
0
0
0
0
0
0
0
0
0
0
0
0
0
0
0
0
0
0
0
0
0
0
0
0
0
0
0
0
0
0
0
0
0
0
0
0
0
0
0
0
0
0
0
0
0
0
0
0
0
0
0
0
0
0
0
0
0
0
0
0
0
0
0
0
0
0
0
0
0
0
0
0
0
0
0
0
0
0
0
0
0
0
0
0
0
0
0
0
0
0
0
0
0
0
0
0
0
0
0
0
0
0
0
0
0
0
0
0
0
0
0
0
0
0
0
0
0
0
0
0
0
0
0
0
0
0
0
0
0
0
0
0
0
0
0
0
0
0
0
0
0
0
0
0
0
0
0
0
0
0
0
0
0
0
0
0
0
0
0
0
0
0
0
0
0
0
0
0
0
0
0
0
0
0
0
0
0
0
0
0
0
0
0
0
0
0
0
0
0
0
0
0
0
0
0
0
0
0
0
0
0
0
0
0
0
0
0
0
0
0
0
0
0
0
0
0
0
0
0
0
0
0
0
0
0
0
0
0
0
0
0
0
0
0
0
0
0
0
0
0
0
0
0
0
0
0
0
0
0
0
0
0
0
0
0
0
0
0
0
0
0
0
0
0
0
0
0
0
0
0
0
0
0
0
0
0
0
0
0
0
0
0
0
0
0
0
0
0
0
0
0
0
0
0
0
0
0
0
0
0
0
0
0
0
0
0
0
0
0
0
0
0
0
0
0
0
0
0
0
0
0
0
0
0
0
0
0
0
0
1
1
1
1
1
1
1
1
1
1
1
1
1
1
1
1
1
1
1
1
1
1
1
1
1
1
1
1
1
1
2
2
2
2
2
2
2
2
2
2
2
2
2
2
2
2
2
2
2
2
2
2
2
2
2
2
2
2
2
2
3
3
3
3
3
3
3
3
3
3
3
3
3
3
3
3
3
3
3
3
3
3
3
3
3
3
3
3
3
3
4
4
4
4
4
4
4
4
4
4
4
4
4
4
4
4
4
4
4
4
4
4
4
4
4
4
4
4
4
4

LOOKUP_TABLE FreeFempp_table 5
1.00000000 0.00000000 0.00000000 1.00000000
1.00000000 1.00000000 0.00000000 1.00000000
1.00000000 0.00000000 1.00000000 1.00000000
0.00000000 1.00000000 0.00000000 1.00000000
0.00000000 1.00000000 1.00000000 1.00000000

POINT_DATA 961
FIELD FieldData 1
Density 1 961 float
4.90704566e-01 4.42382753e-01 4.37735647e-01 4.37968969e-01 4.38528448e-01 4.35230613e-01 4.14773256e-01 2.48798862e-01 6.33276720e-03 4.77657607e-03 1.18022365e-02 3.48660499e-01 4.58824158e-01 5.03396213e-01 6.94106638e-01 7.83750176e-01 6.95427597e-01 8.51067364e-01 9.05179083e-01 8.38762701e-01 7.64880598e-01 7.25506008e-01 6.88933909e-01 6.57525897e-01 6.29926264e-01 6.10415280e-01 5.99575758e-01 5.94309986e-01 5.89674234e-01 5.88592529e-01 5.73022664e-01 7.87065015e-04 7.43006996e-04 1.03400112e-03 1.98202441e-03 4.04788228e-03 6.03598123e-03 5.86871803e-03 4.57981555e-03 3.00523988e-03 2.27200496e-03 3.24722612e-03 2.05498859e-01 3.77443373e-01 4.00764376e-01 6.65703058e-01 8.92476737e-01 4.49553579e-02 4.48951721e-02 3.65979820e-01 8.28798890e-01 8.19306791e-01 8.05624127e-01 7.87614405e-01 7.57618785e-01 7.20258832e-01 6.75875008e-01 6.39543295e-01 6.20335639e-01 6.10785007e-01 6.04090929e-01 5.87415695e-01 1.09281798e-03 6.22493681e-04 7.18929397e-04 8.23636539e-04 8.90811847e-04 8.96149024e-04 9.11548617e-04 9.62053542e-04 1.01775641e-03 9.03826556e-04 7.65799603e-04 6.40113431e-04 1.89146250e-01 3.36425036e-01 4.71587032e-01 9.41246867e-01 2.71185357e-02 8.19753669e-03 7.80462241e-03 8.45515821e-03 1.27263507e-02 3.81686389e-02 2.38309786e-01 5.14144897e-01 6.12525463e-01 6.40000761e-01 6.20729327e-01 5.85202932e-01 5.65343916e-01 5.55622399e-01 5.68502963e-01 4.25089031e-01 8.93790349e-02 6.08177623e-03 2.00301036e-03 1.22946256e-03 9.92900808e-04 9.29752190e-04 9.43607651e-04 1.03182218e-03 1.11586007e-03 9.79578355e-04 4.56381124e-04 4.52485634e-04 7.68144382e-04 1.93539436e-03 8.24385285e-01 9.78256345e-01 1.80084556e-02 9.19459388e-03 3.65044409e-03 3.54747637e-03 2.47232267e-03 2.19747494e-03 3.46147874e-03 2.57208161e-02 2.46841148e-01 4.68744040e-01 5.03953278e-01 4.99457985e-01 4.87467617e-01 5.35689712e-01 4.21867430e-01 2.78611422e-01 2.38904670e-01 2.39678472e-01 2.61408627e-01 2.85070151e-01 3.09511364e-01 3.31606448e-01 3.49625140e-01 3.60623181e-01 3.48559797e-01 5.14089614e-02 6.63166575e-04 6.14875229e-04 5.70984732e-04 6.43029460e-04 6.40638056e-04 9.95705605e-01 9.67517316e-01 2.76460256e-02 8.92057456e-03 3.82625125e-03 2.11562891e-03 1.62112794e-03 1.57385296e-03 3.58930207e-03 6.18287735e-02 3.71640623e-01 4.28485513e-01 4.34532404e-01 5.05581319e-01 4.56163019e-01 3.29792380e-01 3.11858058e-01 3.06197464e-01 3.09467256e-01 3.21678132e-01 3.41271251e-01 3.60223889e-01 3.76342863e-01 3.88989121e-01 3.96084875e-01 3.96361411e-01 3.99196506e-01 3.86981964e-01 1.67439412e-03 7.91228435e-04 4.47189435e-04 4.67164937e-04 5.60946530e-04 9.80673552e-01 9.38966513e-01 9.58918571e-01 9.70484972e-01 1.03239575e-02 1.70441018e-03 1.43472303e-03 1.70005590e-03 4.15517613e-02 3.58123064e-01 4.04420435e-01 4.89039272e-01 5.15840113e-01 4.30195332e-01 4.31861520e-01 4.34161752e-01 4.26921457e-01 4.20341730e-01 4.25286621e-01 4.33244884e-01 4.40707028e-01 4.47361052e-01 4.52152818e-01 4.53866035e-01 4.55293447e-01 4.56070691e-01 4.55996394e-01 4.43762779e-01 3.85745287e-01 7.09559536e-04 5.15509571e-04 1.06086947e-04 5.04230857e-01 3.53334785e-01 5.87641716e-01 9.77237165e-01 9.85070646e-01 3.04166367e-03 1.27117499e-03 1.24082644e-03 6.15276322e-02 3.80662799e-01 4.80894536e-01 5.73495209e-01 5.46302319e-01 5.47789991e-01 5.43565392e-01 5.33766925e-01 5.18339097e-01 5.11744738e-01 5.10236919e-01 5.09765029e-01 5.09516239e-01 5.08580685e-01 5.06337285e-01 5.04361153e-01 5.04088581e-01 5.05705953e-01 5.09772897e-01 4.99465138e-01 4.81666833e-01 3.29542220e-01 1.05269079e-03 4.23150341e-04 2.19679391e-03 5.89380693e-03 1.37953609e-02 8.66613209e-01 9.87231493e-01 2.75086472e-03 8.43553105e-04 6.29485876e-04 2.45310202e-01 4.70446229e-01 6.10986173e-01 6.32176459e-01 6.29134476e-01 6.20874345e-01 6.07639909e-01 5.91054082e-01 5.79476118e-01 5.71609974e-01 5.64970672e-01 5.58661819e-01 5.52099586e-01 5.45250177e-01 5.38969517e-01 5.34281135e-01 5.32262683e-01 5.34000576e-01 5.37993670e-01 5.42626321e-01 5.33620775e-01 4.81653094e-01 7.77935260e-04 1.69118471e-03 2.42066523e-03 5.18819923e-03 1.22951576e-02 4.84466523e-01 9.84891832e-01 1.15777680e-03 7.01610406e-04 4.98516532e-03 4.51888263e-01 6.15893424e-01 6.63065553e-01 6.59120917e-01 6.50348365e-01 6.38643920e-01 6.25402629e-01 6.13900781e-01 6.04496539e-01 5.95906675e-01 5.87310314e-01 5.78355014e-01 5.69299817e-01 5.60853481e-01 5.53708375e-01 5.48792243e-01 5.47009110e-01 5.48622131e-01 5.55949092e-01 5.71737170e-01 6.02250159e-01 5.33067942e-01 5.66775091e-02 1.04951104e-02 7.24030472e-03 7.29739480e-03 7.68854283e-03 6.86925769e-01 9.67349112e-01 8.15468549e-04 1.03505724e-03 3.73758018e-01 5.85738122e-01 6.29565060e-01 6.31515741e-01 6.29011035e-01 6.23954356e-01 6.17766917e-01 6.12354457e-01 6.07733428e-01 6.02758944e-01 5.96651137e-01 5.89316130e-01 5.81320703e-01 5.73508859e-01 5.66657543e-01 5.61550677e-01 5.58750331e-01 5.58485031e-01 5.62189937e-01 5.74170709e-01 6.08009517e-01 6.92236125e-01 7.10153878e-01 1.88896060e-01 5.37531190e-02 2.04432737e-02 7.96010252e-03 3.57852969e-03 9.67866004e-01 1.84872071e-03 9.62588296e-04 4.54642158e-03 5.29147685e-01 5.28735936e-01 5.38392842e-01 5.47400177e-01 5.57546020e-01 5.67774355e-01 5.77748656e-01 5.85790575e-01 5.90226889e-01 5.90599477e-01 5.87597966e-01 5.82524776e-01 5.76706707e-01 5.71207225e-01 5.66845298e-01 5.64061880e-01 5.62940657e-01 5.63720226e-01 5.66778839e-01 5.74169338e-01 5.99083483e-01 7.08468914e-01 7.46477365e-01 3.21412683e-01 5.08790165e-02 1.17461476e-02 2.33269855e-02 8.38383377e-01 8.35959613e-01 1.07404601e-03 1.48118532e-03 4.62752491e-01 3.91212672e-01 3.92863363e-01 4.10318822e-01 4.40413296e-01 4.77812976e-01 5.14732957e-01 5.44184029e-01 5.63209653e-01 5.72648883e-01 5.75071335e-01 5.73232174e-01 5.69336593e-01 5.64908683e-01 5.60909450e-01 5.57767808e-01 5.55503011e-01 5.53974330e-01 5.52567303e-01 5.49220741e-01 5.37897587e-01 5.11131108e-01 5.18639147e-01 5.12279153e-01 3.69882643e-01 2.38585442e-01 5.03412962e-01 9.09616768e-01 8.87841463e-01 1.43617706e-03 1.68102584e-03 3.97567332e-01 2.47610822e-01 2.30654061e-01 2.52551824e-01 2.98939466e-01 3.65423113e-01 4.36184227e-01 4.92486566e-01 5.28573811e-01 5.47693491e-01 5.55377722e-01 5.56342423e-01 5.53862035e-01 5.50013542e-01 5.46015739e-01 5.42407036e-01 5.39192915e-01 5.35988629e-01 5.31952202e-01 5.25546312e-01 5.13234735e-01 4.85388666e-01 4.33454573e-01 3.98970604e-01 4.21698362e-01 5.21252632e-01 7.39419401e-01 9.11967695e-01 8.86503339e-01 5.24863775e-04 1.28590665e-03 3.38811934e-01 1.38901442e-01 1.14050709e-01 1.31305829e-01 1.80058703e-01 2.65201718e-01 3.64688575e-01 4.45221096e-01 4.95861709e-01 5.22669852e-01 5.34343660e-01 5.37312746e-01 5.35660625e-01 5.31896174e-01 5.27526915e-01 5.23345351e-01 5.19570708e-01 5.15888929e-01 5.11396885e-01 5.04776180e-01 4.94798720e-01 4.81382698e-01 4.63518381e-01 4.46778208e-01 4.89623159e-01 6.20009303e-01 7.89138138e-01 8.95748496e-01 8.53515506e-01 1.95891690e-03 1.60681317e-03 2.84373641e-01 7.55675361e-02 5.76683320e-02 7.00229034e-02 1.12040199e-01 2.02802256e-01 3.19722176e-01 4.14815158e-01 4.73035991e-01 5.03554881e-01 5.17269373e-01 5.21327794e-01 5.20018160e-01 5.15991151e-01 5.10951519e-01 5.05990386e-01 5.01739621e-01 4.98404145e-01 4.95752871e-01 4.93392497e-01 4.91567880e-01 4.92445767e-01 5.01608551e-01 5.23507237e-01 5.77400923e-01 6.86154187e-01 8.14334631e-01 8.77807796e-01 7.75447309e-01 2.39770580e-03 2.27673445e-03 2.25563064e-01 4.27325964e-02 3.33949700e-02 4.34257761e-02 8.32745433e-02 1.81788161e-01 3.08064669e-01 4.05358315e-01 4.62783486e-01 4.92778212e-01 5.06644726e-01 5.11088789e-01 5.09997487e-01 5.05845845e-01 5.00378132e-01 4.94936258e-01 4.90625501e-01 4.88359123e-01 4.88887489e-01 4.93072808e-01 5.02497554e-01 5.19766092e-01 5.47667444e-01 5.88285506e-01 6.43119216e-01 7.24346936e-01 8.22217405e-01 8.61899436e-01 6.07191384e-01 2.71289353e-03 2.45773885e-03 1.52165651e-01 2.54082959e-02 2.17695385e-02 3.20179127e-02 7.87470117e-02 1.96287498e-01 3.25424194e-01 4.13167924e-01 4.62993473e-01 4.89371687e-01 5.02137721e-01 5.06717503e-01 5.06217360e-01 5.02695084e-01 4.97756958e-01 4.92868215e-01 4.89539534e-01 4.89359647e-01 4.93928641e-01 5.04942417e-01 5.24478972e-01 5.54636538e-01 5.93534470e-01 6.37584925e-01 6.89557850e-01 7.58309722e-01 8.29837978e-01 8.25378478e-01 2.51987010e-01 3.17468005e-03 2.82879942e-03 7.76426271e-02 1.57537851e-02 1.53697496e-02 2.81881187e-02 9.51566473e-02 2.40978107e-01 3.60259920e-01 4.30241197e-01 4.69036877e-01 4.90457147e-01 5.01793027e-01 5.06824195e-01 5.07729530e-01 5.06046772e-01 5.03126442e-01 5.00377119e-01 4.99474227e-01 5.02421916e-01 5.11315048e-01 5.28056204e-01 5.54393411e-01 5.91210842e-01 6.32964551e-01 6.73523009e-01 7.21806943e-01 7.83604562e-01 8.24741125e-01 6.73457742e-01 4.53474149e-02 3.85601632e-03 3.30292014e-03 3.41197886e-02 1.09000178e-02 1.17443316e-02 3.06303110e-02 1.39139295e-01 3.04318994e-01 3.98912877e-01 4.48424995e-01 4.76130724e-01 4.92873192e-01 5.03291011e-01 5.09533286e-01 5.12854934e-01 5.14300048e-01 5.14970601e-01 5.16103625e-01 5.19210100e-01 5.26210010e-01 5.39140940e-01 5.59511542e-01 5.88249028e-01 6.25258446e-01 6.63200021e-01 6.98576689e-01 7.44252145e-01 7.90751219e-01 7.73407936e-01 2.81697750e-01 1.75508074e-02 5.22376038e-03 4.27177176e-03 1.56389866e-02 8.78178049e-03 1.01425732e-02 4.20626998e-02 2.15942681e-01 3.68007392e-01 4.31219995e-01 4.62312043e-01 4.81019944e-01 4.94378477e-01 5.04786432e-01 5.13024807e-01 5.19544661e-01 5.24988532e-01 5.30307055e-01 5.36614001e-01 5.45070648e-01 5.56991279e-01 5.73733509e-01 5.96160233e-01 6.23800635e-01 6.54919088e-01 6.82904422e-01 7.12080896e-01 7.54348993e-01 7.68929601e-01 5.69866776e-01 5.01395129e-02 1.00911278e-02 7.00889435e-03 6.85251551e-03 8.13166238e-03 7.52981892e-03 1.05843889e-02 7.39701241e-02 3.10803503e-01 4.17837203e-01 4.52620625e-01 4.69803303e-01 4.82380986e-01 4.93903548e-01 5.05069375e-01 5.15672743e-01 5.25580525e-01 5.35159111e-01 5.45322239e-01 5.57228804e-01 5.71800172e-01 5.89573145e-01 6.10831678e-01 6.35331690e-01 6.61410570e-01 6.84399426e-01 6.96961641e-01 7.16542840e-01 7.42883623e-01 6.64900243e-01 1.62244186e-01 2.09036246e-02 8.98457598e-03 8.64203647e-03 1.53492186e-02 4.94454568e-03 5.88345481e-03 1.42508820e-02 1.52279988e-01 3.92724246e-01 4.49369013e-01 4.63047683e-01 4.71149087e-01 4.80220437e-01 4.91144836e-01 5.03431737e-01 5.16278028e-01 5.29226661e-01 5.42503357e-01 5.57049215e-01 5.74193418e-01 5.94912529e-01 6.19162083e-01 6.46051168e-01 6.73742890e-01 7.00579882e-01 7.23957598e-01 7.27109373e-01 6.99879944e-01 6.03925705e-01 2.18350649e-01 2.88245492e-02 1.27603458e-02 1.08804014e-02 1.35644078e-02 5.25140129e-02 3.58811836e-03 4.26863460e-03 2.54162084e-02 2.76101679e-01 4.43927199e-01 4.64320749e-01 4.64619070e-01 4.67573166e-01 4.75041926e-01 4.86105859e-01 4.99521047e-01 5.14209270e-01 5.29597402e-01 5.45813978e-01 5.63696027e-01 5.84522486e-01 6.09378695e-01 6.38335705e-01 6.70522928e-01 7.03704655e-01 7.33481228e-01 7.59252667e-01 7.61290491e-01 6.40242636e-01 1.56936198e-01 2.68505830e-02 1.72297638e-02 1.41625013e-02 1.63702946e-02 3.68316881e-02 2.20667824e-01 3.01500782e-03 3.37219471e-03 5.99457137e-02 3.92000705e-01 4.67526287e-01 4.65713322e-01 4.59323674e-01 4.60142612e-01 4.67259288e-01 4.78770107e-01 4.93086964e-01 5.09099960e-01 5.26230514e-01 5.44452488e-01 5.64259410e-01 5.86547375e-01 6.12407088e-01 6.42720938e-01 6.77713871e-01 7.16435134e-01 7.52206743e-01 7.81117558e-01 7.67228425e-01 6.20915592e-01 1.74085066e-01 3.37355882e-02 2.12051887e-02 2.54465286e-02 5.77735230e-02 2.14790970e-01 4.45891559e-01 2.71887146e-03 2.93039344e-03 1.79566488e-01 4.60841894e-01 4.72023100e-01 4.57308024e-01 4.49053705e-01 4.49775517e-01 4.57158178e-01 4.69016612e-01 4.83799160e-01 5.00540555e-01 5.18709540e-01 5.38084805e-01 5.58704019e-01 5.80905318e-01 6.05468273e-01 6.33692563e-01 6.66675568e-01 7.04645157e-01 7.44609475e-01 7.74639368e-01 7.71880269e-01 6.79229379e-01 3.66776168e-01 1.51975945e-01 1.80106312e-01 4.02547568e-01 6.36072814e-01 7.06678092e-01 6.19570255e-01 2.50871340e-03 2.65747705e-03 3.48180801e-01 4.77492630e-01 4.63608891e-01 4.44135010e-01 4.36353654e-01 4.37613845e-01 4.45082277e-01 4.56724912e-01 4.71285492e-01 4.88068193e-01 5.06650805e-01 5.26659250e-01 5.47697425e-01 5.69470227e-01 5.92101157e-01 6.16475463e-01 6.44146323e-01 6.76014781e-01 7.11170495e-01 7.43980527e-01 7.58859038e-01 7.34018505e-01 6.53977334e-01 6.22185588e-01 7.04517663e-01 7.68090487e-01 7.60598600e-01 7.48173118e-01 6.68683231e-01 2.33792746e-03 2.47959583e-03 4.31729317e-01 4.68637735e-01 4.46214885e-01 4.28734481e-01 4.22693253e-01 4.24459368e-01 4.31372344e-01 4.41897929e-01 4.55297977e-01 4.71297234e-01 4.89730090e-01 5.10237157e-01 5.32118738e-01 5.54435611e-01 5.76377273e-01 5.97771704e-01 6.19384170e-01 6.42658353e-01 6.68436885e-01 6.95727944e-01 7.18028724e-01 7.22609699e-01 7.08234906e-01 6.99084163e-01 6.96285963e-01 6.80819571e-01 6.62646770e-01 6.61439359e-01 6.29683673e-01 2.04969686e-03 2.33843201e-03 4.73965168e-01 4.49241489e-01 4.23159570e-01 4.11692619e-01 4.08885598e-01 4.11039054e-01 4.16506857e-01 4.24709320e-01 4.35661703e-01 4.49675620e-01 4.67059612e-01 4.87801373e-01 5.11303484e-01 5.36309063e-01 5.61150193e-01 5.84294260e-01 6.04913294e-01 6.23218238e-01 6.40566766e-01 6.58186615e-01 6.73988044e-01 6.79604769e-01 6.66670799e-01 6.39016569e-01 6.06504917e-01 5.79239786e-01 5.65736234e-01 5.74061394e-01 5.85527897e-01 1.75127375e-03 1.99779845e-03 5.30416191e-01 4.29835498e-01 4.04934078e-01 3.99034113e-01 3.97471070e-01 3.97729546e-01 3.99712563e-01 4.03908432e-01 4.11089301e-01 4.22177732e-01 4.38066930e-01 4.59367007e-01 4.86088306e-01 5.17328501e-01 5.51117003e-01 5.84587157e-01 6.14454865e-01 6.37591541e-01 6.51750088e-01 6.56290531e-01 6.50791407e-01 6.34284019e-01 6.07898235e-01 5.75448751e-01 5.41930854e-01 5.13580084e-01 4.94732291e-01 4.97603506e-01 5.48915267e-01 3.27924616e-03 2.32874695e-03 7.23894477e-01 4.99298513e-01 4.86645073e-01 4.81269628e-01 4.78346169e-01 4.76580203e-01 4.75779980e-01 4.76236224e-01 4.78493005e-01 4.83191401e-01 4.90926892e-01 5.02109647e-01 5.16830742e-01 5.34744203e-01 5.54980457e-01 5.76100707e-01 5.96078396e-01 6.12313807e-01 6.21856272e-01 6.22205257e-01 6.12137318e-01 5.92859209e-01 5.70373952e-01 5.52116752e-01 5.39250731e-01 5.27473927e-01 5.15408933e-01 5.07598937e-01 5.33582628e-01 
