# vtk DataFile Version 2.0
results_case1_non_linear/4_density.vtk, Created by Freefem++ 
ASCII
DATASET UNSTRUCTURED_GRID
POINTS 961 float
0 0 0
0.033333333 0 0
0.066666667 0 0
0.1 0 0
0.13333333 0 0
0.16666667 0 0
0.2 0 0
0.23333333 0 0
0.26666667 0 0
0.3 0 0
0.33333333 0 0
0.36666667 0 0
0.4 0 0
0.43333333 0 0
0.46666667 0 0
0.5 0 0
0.53333333 0 0
0.56666667 0 0
0.6 0 0
0.63333333 0 0
0.66666667 0 0
0.7 0 0
0.73333333 0 0
0.76666667 0 0
0.8 0 0
0.83333333 0 0
0.86666667 0 0
0.9 0 0
0.93333333 0 0
0.96666667 0 0
1 0 0
0 0.033333333 0
0.033333333 0.033333333 0
0.066666667 0.033333333 0
0.1 0.033333333 0
0.13333333 0.033333333 0
0.16666667 0.033333333 0
0.2 0.033333333 0
0.23333333 0.033333333 0
0.26666667 0.033333333 0
0.3 0.033333333 0
0.33333333 0.033333333 0
0.36666667 0.033333333 0
0.4 0.033333333 0
0.43333333 0.033333333 0
0.46666667 0.033333333 0
0.5 0.033333333 0
0.53333333 0.033333333 0
0.56666667 0.033333333 0
0.6 0.033333333 0
0.63333333 0.033333333 0
0.66666667 0.033333333 0
0.7 0.033333333 0
0.73333333 0.033333333 0
0.76666667 0.033333333 0
0.8 0.033333333 0
0.83333333 0.033333333 0
0.86666667 0.033333333 0
0.9 0.033333333 0
0.93333333 0.033333333 0
0.96666667 0.033333333 0
1 0.033333333 0
0 0.066666667 0
0.033333333 0.066666667 0
0.066666667 0.066666667 0
0.1 0.066666667 0
0.13333333 0.066666667 0
0.16666667 0.066666667 0
0.2 0.066666667 0
0.23333333 0.066666667 0
0.26666667 0.066666667 0
0.3 0.066666667 0
0.33333333 0.066666667 0
0.36666667 0.066666667 0
0.4 0.066666667 0
0.43333333 0.066666667 0
0.46666667 0.066666667 0
0.5 0.066666667 0
0.53333333 0.066666667 0
0.56666667 0.066666667 0
0.6 0.066666667 0
0.63333333 0.066666667 0
0.66666667 0.066666667 0
0.7 0.066666667 0
0.73333333 0.066666667 0
0.76666667 0.066666667 0
0.8 0.066666667 0
0.83333333 0.066666667 0
0.86666667 0.066666667 0
0.9 0.066666667 0
0.93333333 0.066666667 0
0.96666667 0.066666667 0
1 0.066666667 0
0 0.1 0
0.033333333 0.1 0
0.066666667 0.1 0
0.1 0.1 0
0.13333333 0.1 0
0.16666667 0.1 0
0.2 0.1 0
0.23333333 0.1 0
0.26666667 0.1 0
0.3 0.1 0
0.33333333 0.1 0
0.36666667 0.1 0
0.4 0.1 0
0.43333333 0.1 0
0.46666667 0.1 0
0.5 0.1 0
0.53333333 0.1 0
0.56666667 0.1 0
0.6 0.1 0
0.63333333 0.1 0
0.66666667 0.1 0
0.7 0.1 0
0.73333333 0.1 0
0.76666667 0.1 0
0.8 0.1 0
0.83333333 0.1 0
0.86666667 0.1 0
0.9 0.1 0
0.93333333 0.1 0
0.96666667 0.1 0
1 0.1 0
0 0.13333333 0
0.033333333 0.13333333 0
0.066666667 0.13333333 0
0.1 0.13333333 0
0.13333333 0.13333333 0
0.16666667 0.13333333 0
0.2 0.13333333 0
0.23333333 0.13333333 0
0.26666667 0.13333333 0
0.3 0.13333333 0
0.33333333 0.13333333 0
0.36666667 0.13333333 0
0.4 0.13333333 0
0.43333333 0.13333333 0
0.46666667 0.13333333 0
0.5 0.13333333 0
0.53333333 0.13333333 0
0.56666667 0.13333333 0
0.6 0.13333333 0
0.63333333 0.13333333 0
0.66666667 0.13333333 0
0.7 0.13333333 0
0.73333333 0.13333333 0
0.76666667 0.13333333 0
0.8 0.13333333 0
0.83333333 0.13333333 0
0.86666667 0.13333333 0
0.9 0.13333333 0
0.93333333 0.13333333 0
0.96666667 0.13333333 0
1 0.13333333 0
0 0.16666667 0
0.033333333 0.16666667 0
0.066666667 0.16666667 0
0.1 0.16666667 0
0.13333333 0.16666667 0
0.16666667 0.16666667 0
0.2 0.16666667 0
0.23333333 0.16666667 0
0.26666667 0.16666667 0
0.3 0.16666667 0
0.33333333 0.16666667 0
0.36666667 0.16666667 0
0.4 0.16666667 0
0.43333333 0.16666667 0
0.46666667 0.16666667 0
0.5 0.16666667 0
0.53333333 0.16666667 0
0.56666667 0.16666667 0
0.6 0.16666667 0
0.63333333 0.16666667 0
0.66666667 0.16666667 0
0.7 0.16666667 0
0.73333333 0.16666667 0
0.76666667 0.16666667 0
0.8 0.16666667 0
0.83333333 0.16666667 0
0.86666667 0.16666667 0
0.9 0.16666667 0
0.93333333 0.16666667 0
0.96666667 0.16666667 0
1 0.16666667 0
0 0.2 0
0.033333333 0.2 0
0.066666667 0.2 0
0.1 0.2 0
0.13333333 0.2 0
0.16666667 0.2 0
0.2 0.2 0
0.23333333 0.2 0
0.26666667 0.2 0
0.3 0.2 0
0.33333333 0.2 0
0.36666667 0.2 0
0.4 0.2 0
0.43333333 0.2 0
0.46666667 0.2 0
0.5 0.2 0
0.53333333 0.2 0
0.56666667 0.2 0
0.6 0.2 0
0.63333333 0.2 0
0.66666667 0.2 0
0.7 0.2 0
0.73333333 0.2 0
0.76666667 0.2 0
0.8 0.2 0
0.83333333 0.2 0
0.86666667 0.2 0
0.9 0.2 0
0.93333333 0.2 0
0.96666667 0.2 0
1 0.2 0
0 0.23333333 0
0.033333333 0.23333333 0
0.066666667 0.23333333 0
0.1 0.23333333 0
0.13333333 0.23333333 0
0.16666667 0.23333333 0
0.2 0.23333333 0
0.23333333 0.23333333 0
0.26666667 0.23333333 0
0.3 0.23333333 0
0.33333333 0.23333333 0
0.36666667 0.23333333 0
0.4 0.23333333 0
0.43333333 0.23333333 0
0.46666667 0.23333333 0
0.5 0.23333333 0
0.53333333 0.23333333 0
0.56666667 0.23333333 0
0.6 0.23333333 0
0.63333333 0.23333333 0
0.66666667 0.23333333 0
0.7 0.23333333 0
0.73333333 0.23333333 0
0.76666667 0.23333333 0
0.8 0.23333333 0
0.83333333 0.23333333 0
0.86666667 0.23333333 0
0.9 0.23333333 0
0.93333333 0.23333333 0
0.96666667 0.23333333 0
1 0.23333333 0
0 0.26666667 0
0.033333333 0.26666667 0
0.066666667 0.26666667 0
0.1 0.26666667 0
0.13333333 0.26666667 0
0.16666667 0.26666667 0
0.2 0.26666667 0
0.23333333 0.26666667 0
0.26666667 0.26666667 0
0.3 0.26666667 0
0.33333333 0.26666667 0
0.36666667 0.26666667 0
0.4 0.26666667 0
0.43333333 0.26666667 0
0.46666667 0.26666667 0
0.5 0.26666667 0
0.53333333 0.26666667 0
0.56666667 0.26666667 0
0.6 0.26666667 0
0.63333333 0.26666667 0
0.66666667 0.26666667 0
0.7 0.26666667 0
0.73333333 0.26666667 0
0.76666667 0.26666667 0
0.8 0.26666667 0
0.83333333 0.26666667 0
0.86666667 0.26666667 0
0.9 0.26666667 0
0.93333333 0.26666667 0
0.96666667 0.26666667 0
1 0.26666667 0
0 0.3 0
0.033333333 0.3 0
0.066666667 0.3 0
0.1 0.3 0
0.13333333 0.3 0
0.16666667 0.3 0
0.2 0.3 0
0.23333333 0.3 0
0.26666667 0.3 0
0.3 0.3 0
0.33333333 0.3 0
0.36666667 0.3 0
0.4 0.3 0
0.43333333 0.3 0
0.46666667 0.3 0
0.5 0.3 0
0.53333333 0.3 0
0.56666667 0.3 0
0.6 0.3 0
0.63333333 0.3 0
0.66666667 0.3 0
0.7 0.3 0
0.73333333 0.3 0
0.76666667 0.3 0
0.8 0.3 0
0.83333333 0.3 0
0.86666667 0.3 0
0.9 0.3 0
0.93333333 0.3 0
0.96666667 0.3 0
1 0.3 0
0 0.33333333 0
0.033333333 0.33333333 0
0.066666667 0.33333333 0
0.1 0.33333333 0
0.13333333 0.33333333 0
0.16666667 0.33333333 0
0.2 0.33333333 0
0.23333333 0.33333333 0
0.26666667 0.33333333 0
0.3 0.33333333 0
0.33333333 0.33333333 0
0.36666667 0.33333333 0
0.4 0.33333333 0
0.43333333 0.33333333 0
0.46666667 0.33333333 0
0.5 0.33333333 0
0.53333333 0.33333333 0
0.56666667 0.33333333 0
0.6 0.33333333 0
0.63333333 0.33333333 0
0.66666667 0.33333333 0
0.7 0.33333333 0
0.73333333 0.33333333 0
0.76666667 0.33333333 0
0.8 0.33333333 0
0.83333333 0.33333333 0
0.86666667 0.33333333 0
0.9 0.33333333 0
0.93333333 0.33333333 0
0.96666667 0.33333333 0
1 0.33333333 0
0 0.36666667 0
0.033333333 0.36666667 0
0.066666667 0.36666667 0
0.1 0.36666667 0
0.13333333 0.36666667 0
0.16666667 0.36666667 0
0.2 0.36666667 0
0.23333333 0.36666667 0
0.26666667 0.36666667 0
0.3 0.36666667 0
0.33333333 0.36666667 0
0.36666667 0.36666667 0
0.4 0.36666667 0
0.43333333 0.36666667 0
0.46666667 0.36666667 0
0.5 0.36666667 0
0.53333333 0.36666667 0
0.56666667 0.36666667 0
0.6 0.36666667 0
0.63333333 0.36666667 0
0.66666667 0.36666667 0
0.7 0.36666667 0
0.73333333 0.36666667 0
0.76666667 0.36666667 0
0.8 0.36666667 0
0.83333333 0.36666667 0
0.86666667 0.36666667 0
0.9 0.36666667 0
0.93333333 0.36666667 0
0.96666667 0.36666667 0
1 0.36666667 0
0 0.4 0
0.033333333 0.4 0
0.066666667 0.4 0
0.1 0.4 0
0.13333333 0.4 0
0.16666667 0.4 0
0.2 0.4 0
0.23333333 0.4 0
0.26666667 0.4 0
0.3 0.4 0
0.33333333 0.4 0
0.36666667 0.4 0
0.4 0.4 0
0.43333333 0.4 0
0.46666667 0.4 0
0.5 0.4 0
0.53333333 0.4 0
0.56666667 0.4 0
0.6 0.4 0
0.63333333 0.4 0
0.66666667 0.4 0
0.7 0.4 0
0.73333333 0.4 0
0.76666667 0.4 0
0.8 0.4 0
0.83333333 0.4 0
0.86666667 0.4 0
0.9 0.4 0
0.93333333 0.4 0
0.96666667 0.4 0
1 0.4 0
0 0.43333333 0
0.033333333 0.43333333 0
0.066666667 0.43333333 0
0.1 0.43333333 0
0.13333333 0.43333333 0
0.16666667 0.43333333 0
0.2 0.43333333 0
0.23333333 0.43333333 0
0.26666667 0.43333333 0
0.3 0.43333333 0
0.33333333 0.43333333 0
0.36666667 0.43333333 0
0.4 0.43333333 0
0.43333333 0.43333333 0
0.46666667 0.43333333 0
0.5 0.43333333 0
0.53333333 0.43333333 0
0.56666667 0.43333333 0
0.6 0.43333333 0
0.63333333 0.43333333 0
0.66666667 0.43333333 0
0.7 0.43333333 0
0.73333333 0.43333333 0
0.76666667 0.43333333 0
0.8 0.43333333 0
0.83333333 0.43333333 0
0.86666667 0.43333333 0
0.9 0.43333333 0
0.93333333 0.43333333 0
0.96666667 0.43333333 0
1 0.43333333 0
0 0.46666667 0
0.033333333 0.46666667 0
0.066666667 0.46666667 0
0.1 0.46666667 0
0.13333333 0.46666667 0
0.16666667 0.46666667 0
0.2 0.46666667 0
0.23333333 0.46666667 0
0.26666667 0.46666667 0
0.3 0.46666667 0
0.33333333 0.46666667 0
0.36666667 0.46666667 0
0.4 0.46666667 0
0.43333333 0.46666667 0
0.46666667 0.46666667 0
0.5 0.46666667 0
0.53333333 0.46666667 0
0.56666667 0.46666667 0
0.6 0.46666667 0
0.63333333 0.46666667 0
0.66666667 0.46666667 0
0.7 0.46666667 0
0.73333333 0.46666667 0
0.76666667 0.46666667 0
0.8 0.46666667 0
0.83333333 0.46666667 0
0.86666667 0.46666667 0
0.9 0.46666667 0
0.93333333 0.46666667 0
0.96666667 0.46666667 0
1 0.46666667 0
0 0.5 0
0.033333333 0.5 0
0.066666667 0.5 0
0.1 0.5 0
0.13333333 0.5 0
0.16666667 0.5 0
0.2 0.5 0
0.23333333 0.5 0
0.26666667 0.5 0
0.3 0.5 0
0.33333333 0.5 0
0.36666667 0.5 0
0.4 0.5 0
0.43333333 0.5 0
0.46666667 0.5 0
0.5 0.5 0
0.53333333 0.5 0
0.56666667 0.5 0
0.6 0.5 0
0.63333333 0.5 0
0.66666667 0.5 0
0.7 0.5 0
0.73333333 0.5 0
0.76666667 0.5 0
0.8 0.5 0
0.83333333 0.5 0
0.86666667 0.5 0
0.9 0.5 0
0.93333333 0.5 0
0.96666667 0.5 0
1 0.5 0
0 0.53333333 0
0.033333333 0.53333333 0
0.066666667 0.53333333 0
0.1 0.53333333 0
0.13333333 0.53333333 0
0.16666667 0.53333333 0
0.2 0.53333333 0
0.23333333 0.53333333 0
0.26666667 0.53333333 0
0.3 0.53333333 0
0.33333333 0.53333333 0
0.36666667 0.53333333 0
0.4 0.53333333 0
0.43333333 0.53333333 0
0.46666667 0.53333333 0
0.5 0.53333333 0
0.53333333 0.53333333 0
0.56666667 0.53333333 0
0.6 0.53333333 0
0.63333333 0.53333333 0
0.66666667 0.53333333 0
0.7 0.53333333 0
0.73333333 0.53333333 0
0.76666667 0.53333333 0
[...]
CELL_DATA 1920
Scalars  Label int 1
LOOKUP_TABLE FreeFempp_table
0
0
0
0
0
0
0
0
0
0
0
0
0
0
0
0
0
0
0
0
0
0
0
0
0
0
0
0
0
0
0
0
0
0
0
0
0
0
0
0
0
0
0
0
0
0
0
0
0
0
0
0
0
0
0
0
0
0
0
0
0
0
0
0
0
0
0
0
0
0
0
0
0
0
0
0
0
0
0
0
0
0
0
0
0
0
0
0
0
0
0
0
0
0
0
0
0
0
0
0
0
0
0
0
0
0
0
0
0
0
0
0
0
0
0
0
0
0
0
0
0
0
0
0
0
0
0
0
0
0
0
0
0
0
0
0
0
0
0
0
0
0
0
0
0
0
0
0
0
0
0
0
0
0
0
0
0
0
0
0
0
0
0
0
0
0
0
0
0
0
0
0
0
0
0
0
0
0
0
0
0
0
0
0
0
0
0
0
0
0
0
0
0
0
0
0
0
0
0
0
0
0
0
0
0
0
0
0
0
0
0
0
0
0
0
0
0
0
0
0
0
0
0
0
0
0
0
0
0
0
0
0
0
0
0
0
0
0
0
0
0
0
0
0
0
0
0
0
0
0
0
0
0
0
0
0
0
0
0
0
0
0
0
0
0
0
0
0
0
0
0
0
0
0
0
0
0
0
0
0
0
0
0
0
0
0
0
0
0
0
0
0
0
0
0
0
0
0
0
0
0
0
0
0
0
0
0
0
0
0
0
0
0
0
0
0
0
0
0
0
0
0
0
0
0
0
0
0
0
0
0
0
0
0
0
0
0
0
0
0
0
0
0
0
0
0
0
0
0
0
0
0
0
0
0
0
0
0
0
0
0
0
0
0
0
0
0
0
0
0
0
0
0
0
0
0
0
0
0
0
0
0
0
0
0
0
0
0
0
0
0
0
0
0
0
0
0
0
0
0
0
0
0
0
0
0
0
0
0
0
0
0
0
0
0
0
0
0
0
0
0
0
0
0
0
0
0
0
0
0
0
0
0
0
0
0
0
0
0
0
0
0
0
0
0
0
0
0
0
0
0
0
0
0
0
0
0
0
0
0
0
0
0
0
0
0
0
0
0
0
0
0
0
0
0
0
0
0
0
0
0
0
0
0
0
0
0
0
0
0
0
0
0
0
0
0
0
0
0
0
0
0
0
0
0
0
0
0
0
0
0
0
0
0
0
0
0
0
0
0
0
0
0
0
0
0
0
0
0
0
0
0
0
0
0
0
0
0
0
0
0
0
0
0
0
0
0
0
0
0
0
0
0
0
0
0
0
0
0
0
0
0
0
0
0
0
0
0
0
0
0
0
0
0
0
0
0
0
0
0
0
0
0
0
0
0
0
0
0
0
0
0
0
0
0
0
0
0
0
0
0
0
0
0
0
0
0
0
0
0
0
0
0
0
0
0
0
0
0
0
0
0
0
0
0
0
0
0
0
0
0
0
0
0
0
0
0
0
0
0
0
0
0
0
0
0
0
0
0
0
0
0
0
0
0
0
0
0
0
0
0
0
0
0
0
0
0
0
0
0
0
0
0
0
0
0
0
0
0
0
0
0
0
0
0
0
0
0
0
0
0
0
0
0
0
0
0
0
0
0
0
0
0
0
0
0
0
0
0
0
0
0
0
0
0
0
0
0
0
0
0
0
0
0
0
0
0
0
0
0
0
0
0
0
0
0
0
0
0
0
0
0
0
0
0
0
0
0
0
0
0
0
0
0
0
0
0
0
0
0
0
0
0
0
0
0
0
0
0
0
0
0
0
0
0
0
0
0
0
0
0
0
0
0
0
0
0
0
0
0
0
0
0
0
0
0
0
0
0
0
0
0
0
0
0
0
0
0
0
0
0
0
0
0
0
0
0
0
0
0
0
0
0
0
0
0
0
0
0
0
0
0
0
0
0
0
0
0
0
0
0
0
0
0
0
0
0
0
0
0
0
0
0
0
0
0
0
0
0
0
0
0
0
0
0
0
0
0
0
0
0
0
0
0
0
0
0
0
0
0
0
0
0
0
0
0
0
0
0
0
0
0
0
0
0
0
0
0
0
0
0
0
0
0
0
0
0
0
0
0
0
0
0
0
0
0
0
0
0
0
0
0
0
0
0
0
0
0
0
0
0
0
0
0
0
0
0
0
0
0
0
0
0
0
0
0
0
0
0
0
0
0
0
0
0
0
0
0
0
0
0
0
0
0
0
0
0
0
0
0
0
0
0
0
0
0
0
0
0
0
0
0
0
0
0
0
0
0
0
0
0
0
0
0
0
0
0
0
0
0
0
0
0
0
0
0
0
0
0
0
0
0
0
0
0
0
0
0
0
0
0
0
0
0
0
0
0
0
0
0
0
0
0
0
0
0
0
0
0
0
0
0
0
0
0
0
0
0
0
0
0
0
0
0
0
0
0
0
0
0
0
0
0
0
0
0
0
0
0
0
0
0
0
0
0
0
0
0
0
0
0
0
0
0
0
0
0
0
0
0
0
0
0
0
0
0
0
0
0
0
0
0
0
0
0
0
0
0
0
0
0
0
0
0
0
0
0
0
0
0
0
0
0
0
0
0
0
0
0
0
0
0
0
0
0
0
0
0
0
0
0
0
0
0
0
0
0
0
0
0
0
0
0
0
0
0
0
0
0
0
0
0
0
0
0
0
0
0
0
0
0
0
0
0
0
0
0
0
0
0
0
0
0
0
0
0
0
0
0
0
0
0
0
0
0
0
0
0
0
0
0
0
0
0
0
0
0
0
0
0
0
0
0
0
0
0
0
0
0
0
0
0
0
0
0
0
0
0
0
0
0
0
0
0
0
0
0
0
0
0
0
0
0
0
0
0
0
0
0
0
0
0
0
0
0
0
0
0
0
0
0
0
0
0
0
0
0
0
0
0
0
0
0
0
0
0
0
0
0
0
0
0
0
0
0
0
0
0
0
0
0
0
0
0
0
0
0
0
0
0
0
0
0
0
0
0
0
0
0
0
0
0
0
0
0
0
0
0
0
0
0
0
0
0
0
0
0
0
0
0
0
0
0
0
0
0
0
0
0
0
0
0
0
0
0
0
0
0
0
0
0
0
0
0
0
0
0
0
0
0
0
0
0
0
0
0
0
0
0
0
0
0
0
0
0
0
0
0
0
0
0
0
0
0
0
0
0
0
0
0
0
0
0
0
0
0
0
0
0
0
0
0
0
0
0
0
0
0
0
0
0
0
0
0
0
0
0
0
0
0
0
0
0
0
0
0
0
0
0
0
0
0
0
0
0
0
0
0
0
0
0
0
0
0
0
0
0
0
0
0
0
0
0
0
0
0
0
0
0
0
0
0
0
0
0
0
0
0
0
0
0
0
0
0
0
0
0
0
0
0
0
0
0
0
0
0
0
0
0
0
0
0
0
0
0
0
0
0
0
0
0
0
0
0
0
0
0
0
0
0
0
0
0
0
0
0
0
0
0
0
0
0
0
0
0
0
0
0
0
0
0
0
0
0
0
0
0
0
0
0
0
0
0
0
0
0
0
0
0
0
0
0
0
0
0
0
0
0
0
0
0
0
0
0
0
0
0
0
0
0
0
0
0
0
0
0
0
0
0
0
0
0
0
0
0
0
0
0
0
0
0
0
0
0
0
0
0
0
0
0
0
0
0
0
0
0
0
0
0
0
0
0
0
0
0
0
0
0
0
0
0
0
0
0
0
0
0
0
0
0
0
0
0
0
0
0
0
0
0
0
0
0
0
0
0
0
0
0
0
0
0
0
0
0
0
0
0
0
0
0
0
0
0
0
0
0
0
0
0
0
0
0
0
0
0
0
0
0
0
0
0
0
0
0
0
0
0
0
0
0
0
0
0
0
0
0
0
0
0
0
0
0
0
0
0
0
0
0
0
0
0
0
0
0
0
0
0
0
0
0
0
0
0
0
0
0
0
0
0
0
0
0
0
0
0
0
0
0
0
0
0
0
0
0
0
0
0
0
0
0
0
0
0
0
0
0
0
0
0
0
0
0
0
0
0
0
0
0
0
0
0
0
0
0
0
0
0
0
0
0
0
0
0
0
0
0
0
0
0
0
0
0
0
0
0
0
0
0
0
0
1
1
1
1
1
1
1
1
1
1
1
1
1
1
1
1
1
1
1
1
1
1
1
1
1
1
1
1
1
1
2
2
2
2
2
2
2
2
2
2
2
2
2
2
2
2
2
2
2
2
2
2
2
2
2
2
2
2
2
2
3
3
3
3
3
3
3
3
3
3
3
3
3
3
3
3
3
3
3
3
3
3
3
3
3
3
3
3
3
3
4
4
4
4
4
4
4
4
4
4
4
4
4
4
4
4
4
4
4
4
4
4
4
4
4
4
4
4
4
4

LOOKUP_TABLE FreeFempp_table 5
1.00000000 0.00000000 0.00000000 1.00000000
1.00000000 1.00000000 0.00000000 1.00000000
1.00000000 0.00000000 1.00000000 1.00000000
0.00000000 1.00000000 0.00000000 1.00000000
0.00000000 1.00000000 1.00000000 1.00000000

POINT_DATA 961
FIELD FieldData 1
Density 1 961 float
2.41990834e-01 2.31136605e-01 2.91079968e-01 3.20661008e-01 3.15959573e-01 2.85676241e-01 2.18874186e-01 1.17178515e-01 6.83990195e-02 9.39869136e-02 2.39580780e-01 3.93512905e-01 4.38673615e-01 4.56254333e-01 4.81162161e-01 5.38266480e-01 6.34912312e-01 6.98702931e-01 6.73565269e-01 6.30889535e-01 6.28203511e-01 6.21057868e-01 6.16242468e-01 6.15075052e-01 6.04095519e-01 5.90472162e-01 5.79594970e-01 5.68823576e-01 5.69975436e-01 5.74776411e-01 5.61100483e-01 7.11639354e-04 1.57172546e-01 2.32979596e-01 2.60112733e-01 2.56008089e-01 2.30704680e-01 1.81088135e-01 1.05467394e-01 5.43518327e-02 5.15295714e-02 1.24796756e-01 3.08593690e-01 3.69778335e-01 3.85728389e-01 4.08186346e-01 4.69923586e-01 6.39786065e-01 7.97746122e-01 7.78414726e-01 6.80303812e-01 6.72446728e-01 6.78080499e-01 6.62042975e-01 6.63061917e-01 6.54985964e-01 6.37300491e-01 6.16915584e-01 5.87710738e-01 5.80129981e-01 5.86826205e-01 5.75871885e-01 4.45225858e-04 4.48310369e-04 2.64006085e-03 1.53376511e-03 7.81165319e-04 1.00251148e-03 1.83892064e-03 3.21893347e-03 5.48710581e-03 5.93701517e-03 2.77921977e-03 3.81444365e-01 4.16690409e-01 4.19460326e-01 4.23824310e-01 4.38518822e-01 5.56681812e-01 7.51548827e-01 3.67080480e-01 1.29430711e-01 2.78459936e-01 3.96390408e-01 4.54226971e-01 5.21134913e-01 5.42901635e-01 5.59183359e-01 5.76870024e-01 5.68352163e-01 5.44768810e-01 5.43366492e-01 5.57990909e-01 4.99367326e-01 4.64723213e-04 1.77161465e-03 2.63932417e-03 1.05474330e-03 8.10268335e-04 1.34101114e-03 2.42760382e-03 4.20555705e-03 6.33419398e-03 1.83098321e-03 1.70832837e-03 4.81924741e-03 2.91143823e-03 1.45890669e-03 4.43270117e-01 4.68002856e-01 7.68470943e-01 2.92878836e-01 3.25458199e-02 1.82285514e-02 1.58256777e-02 1.22152008e-02 1.00428034e-02 9.49793216e-03 1.17380498e-02 1.87413674e-02 1.30530462e-01 4.87339318e-01 4.87764686e-01 5.29101849e-01 5.03275692e-01 4.62309301e-01 1.06074937e-01 1.13742009e-01 4.51133549e-01 4.49653387e-01 4.44541126e-01 4.40555006e-01 4.38942343e-01 4.39489365e-01 4.32749748e-01 2.94653745e-03 5.01827616e-03 3.99731286e-03 1.34179846e-03 1.43389532e-03 3.39955278e-03 1.53467595e-03 9.17925596e-01 1.64534505e-02 4.18703966e-02 1.96117759e-02 1.44515745e-02 1.07384669e-02 8.66643991e-03 7.01551698e-03 5.48422849e-03 4.31832904e-03 8.56353194e-02 4.51140732e-01 5.07534862e-01 4.89019275e-01 4.33213979e-01 1.17286272e-01 8.72359499e-02 4.31083798e-01 4.41416085e-01 4.39012229e-01 4.36911434e-01 4.35468525e-01 4.34964985e-01 4.32966590e-01 4.23407257e-01 4.23100442e-01 4.36937749e-01 4.36618060e-01 1.66272849e-03 3.30111291e-03 1.09219854e-03 8.23959650e-04 9.43013549e-01 1.31442949e-01 9.20589343e-02 7.21524134e-02 6.06141128e-02 4.52211872e-02 2.42150612e-02 1.04323989e-02 2.95082200e-03 1.62993127e-03 1.11134730e-01 4.91577119e-01 4.67020541e-01 3.87249589e-01 2.29661673e-01 1.09899677e-01 2.59812295e-01 4.26170319e-01 4.37759042e-01 4.40766662e-01 4.42296684e-01 4.43264991e-01 4.43770707e-01 4.40985262e-01 4.35605347e-01 4.40514684e-01 4.43366557e-01 4.40910041e-01 4.42259133e-01 4.41941619e-01 7.49592378e-04 5.32312144e-04 9.28823590e-01 6.45354688e-01 4.31019038e-01 3.78169000e-01 3.89099538e-01 3.82462412e-01 3.73457789e-01 1.69099614e-01 1.45216263e-03 3.24654230e-03 4.78346974e-01 4.59085852e-01 3.67302030e-01 3.13265115e-01 2.17108324e-01 2.56449461e-01 4.13792253e-01 4.44207966e-01 4.52275664e-01 4.56555456e-01 4.59098011e-01 4.60426033e-01 4.59740490e-01 4.57169354e-01 4.55526233e-01 4.55169141e-01 4.52831835e-01 4.50739920e-01 4.51626033e-01 4.48036939e-01 5.16477099e-04 1.66637311e-03 8.72578800e-01 8.61841023e-01 7.08783329e-01 5.95969498e-01 5.01189232e-01 4.32487339e-01 3.48710358e-01 2.87709665e-03 3.41049465e-03 4.86181080e-01 4.79622811e-01 3.91698450e-01 3.73532623e-01 3.47583234e-01 3.58110517e-01 4.38668698e-01 4.66485500e-01 4.75613832e-01 4.80172724e-01 4.82298523e-01 4.82718825e-01 4.81466144e-01 4.78822857e-01 4.75893050e-01 4.73127007e-01 4.69773620e-01 4.66150671e-01 4.63080585e-01 4.57198441e-01 4.49878067e-01 4.43645520e-03 7.03476323e-03 5.49967587e-02 7.57327616e-01 7.34867156e-01 6.92477286e-01 5.46656251e-01 3.26153606e-01 2.42770021e-03 2.80028582e-03 4.93433565e-01 5.33393383e-01 4.76897269e-01 4.73872691e-01 4.73645985e-01 4.82554942e-01 4.99552876e-01 5.08837521e-01 5.12354553e-01 5.13293505e-01 5.12431979e-01 5.10341525e-01 5.07326603e-01 5.03711522e-01 4.99909133e-01 4.96047348e-01 4.91989076e-01 4.87831622e-01 4.83599722e-01 4.78076696e-01 4.70075190e-01 4.61025476e-01 8.35499540e-03 8.16186704e-03 8.16212315e-03 5.33512533e-01 6.59089983e-01 7.20473945e-01 9.62501705e-01 1.97364180e-03 2.26830575e-03 4.97623116e-01 5.98002076e-01 5.99815488e-01 5.92274725e-01 5.84271908e-01 5.75198472e-01 5.67299306e-01 5.60702443e-01 5.55714190e-01 5.50575852e-01 5.45230389e-01 5.39862573e-01 5.34638762e-01 5.29692471e-01 5.25054753e-01 5.20634055e-01 5.16337335e-01 5.12136281e-01 5.07932425e-01 5.03396213e-01 4.98339146e-01 4.93296564e-01 4.83788282e-01 6.67356048e-03 7.66641507e-03 7.77435442e-03 6.30292520e-02 6.81598261e-02 2.44872600e-01 7.55745568e-04 2.54714047e-04 4.88751411e-01 6.19382918e-01 6.66494370e-01 6.49239719e-01 6.37486279e-01 6.21979773e-01 6.07436001e-01 5.96474826e-01 5.87644577e-01 5.79114556e-01 5.71024179e-01 5.63601136e-01 5.56988001e-01 5.51208198e-01 5.46136141e-01 5.41574419e-01 5.37353039e-01 5.33342183e-01 5.29480994e-01 5.25886357e-01 5.23074806e-01 5.22364676e-01 5.27028739e-01 5.31254530e-01 6.62685558e-02 7.48022087e-03 8.69837869e-03 2.99300998e-02 6.02681562e-02 9.41362917e-01 9.90266562e-04 7.58820586e-03 5.79015613e-01 6.29555225e-01 6.20232821e-01 6.19541407e-01 6.14639044e-01 6.08486593e-01 6.01857007e-01 5.95061123e-01 5.87803781e-01 5.80464900e-01 5.73497474e-01 5.67249775e-01 5.61857402e-01 5.57250917e-01 5.53248823e-01 5.49632132e-01 5.46171546e-01 5.42707026e-01 5.39268315e-01 5.36227465e-01 5.34802020e-01 5.38377404e-01 5.56199193e-01 5.87940156e-01 5.42455256e-01 1.63214542e-02 2.19659582e-02 3.92665043e-02 8.88009250e-01 5.17255068e-03 8.33950378e-03 4.91574764e-01 4.94656920e-01 5.16747057e-01 5.43264270e-01 5.62671363e-01 5.73710144e-01 5.78270912e-01 5.78458488e-01 5.75851262e-01 5.71731091e-01 5.67041993e-01 5.62474847e-01 5.58427870e-01 5.55038631e-01 5.52264869e-01 5.49940526e-01 5.47802031e-01 5.45534551e-01 5.42791843e-01 5.39154708e-01 5.34203768e-01 5.27899146e-01 5.21905363e-01 5.23384929e-01 5.42109609e-01 4.04722959e-01 2.11924523e-01 2.32893422e-01 9.48510230e-01 5.70687559e-03 7.74244592e-03 3.77641082e-01 3.24690282e-01 3.70911092e-01 4.34070677e-01 4.86825645e-01 5.19782066e-01 5.38361549e-01 5.47696292e-01 5.51086605e-01 5.50913692e-01 5.48827887e-01 5.45989692e-01 5.43170571e-01 5.40833771e-01 5.39210558e-01 5.38343787e-01 5.38102925e-01 5.38192272e-01 5.38121343e-01 5.37090361e-01 5.33789098e-01 5.25959611e-01 5.09355783e-01 4.73986000e-01 4.07410502e-01 2.89395601e-01 2.15286419e-01 3.28259259e-01 9.37101841e-01 6.02602772e-03 7.98987225e-03 2.51793504e-01 1.91867605e-01 2.39548579e-01 3.29584301e-01 4.14676070e-01 4.67485011e-01 4.98068869e-01 5.15443921e-01 5.24227917e-01 5.27479768e-01 5.27351201e-01 5.25403082e-01 5.22790909e-01 5.20374060e-01 5.18779457e-01 5.18415809e-01 5.19444942e-01 5.21743536e-01 5.24893820e-01 5.28200805e-01 5.30667245e-01 5.30778110e-01 5.26276410e-01 5.11940360e-01 4.71137285e-01 3.72466415e-01 3.01226169e-01 4.37683672e-01 9.06325340e-01 6.28626393e-03 8.17946717e-03 1.40664473e-01 1.13842636e-01 1.55244514e-01 2.60067314e-01 3.67449015e-01 4.31284964e-01 4.68446821e-01 4.90786552e-01 5.03312886e-01 5.09070039e-01 5.10224700e-01 5.08433640e-01 5.05055726e-01 5.01273215e-01 4.98139918e-01 4.96542782e-01 4.97063309e-01 4.99803841e-01 5.04384279e-01 5.10177672e-01 5.16536832e-01 5.22718072e-01 5.28509796e-01 5.33966064e-01 5.38950324e-01 5.27441919e-01 5.00351727e-01 6.76992178e-01 8.65304470e-01 6.64248504e-03 8.39372445e-03 6.89344257e-02 6.89678043e-02 1.13966435e-01 2.36178219e-01 3.51795882e-01 4.15390760e-01 4.52836871e-01 4.76767600e-01 4.91311044e-01 4.98825639e-01 5.01058638e-01 4.99420464e-01 4.95170981e-01 4.89561200e-01 4.83911484e-01 4.79564011e-01 4.77613121e-01 4.78489548e-01 4.81925696e-01 4.87533718e-01 4.95214492e-01 5.04453778e-01 5.15311718e-01 5.29214263e-01 5.50192118e-01 5.92702568e-01 6.45294845e-01 7.73501337e-01 7.97665119e-01 7.15362420e-03 8.83045048e-03 3.77907455e-02 4.33631204e-02 1.04221679e-01 2.53353298e-01 3.62595618e-01 4.15902108e-01 4.49022502e-01 4.72058564e-01 4.87296611e-01 4.96056676e-01 4.99483436e-01 4.98569727e-01 4.94243652e-01 4.87513334e-01 4.79611427e-01 4.72014397e-01 4.66109753e-01 4.62595105e-01 4.61738944e-01 4.64648753e-01 4.73502040e-01 4.88253623e-01 5.07266700e-01 5.29224992e-01 5.59258997e-01 6.09630346e-01 6.69816434e-01 7.66244173e-01 6.88181281e-01 7.93312676e-03 9.43906140e-03 2.56186128e-02 2.87816823e-02 1.25877947e-01 3.02340120e-01 3.86373788e-01 4.25358295e-01 4.52632517e-01 4.73649174e-01 4.88747478e-01 4.98339593e-01 5.03053725e-01 5.03508031e-01 5.00260293e-01 4.93890017e-01 4.85144466e-01 4.74977612e-01 4.64129716e-01 4.52717483e-01 4.42362994e-01 4.39016372e-01 4.51152533e-01 4.79367197e-01 5.16533017e-01 5.54017127e-01 5.97649574e-01 6.49744034e-01 6.99907422e-01 7.38311052e-01 5.50843239e-01 9.38578881e-03 1.04067661e-02 2.03020386e-02 2.12295093e-02 1.93442792e-01 3.59808624e-01 4.10428613e-01 4.37459677e-01 4.59807038e-01 4.78612900e-01 4.93070096e-01 5.03086150e-01 5.08985281e-01 5.11156261e-01 5.09889007e-01 5.05311310e-01 4.97365564e-01 4.85667616e-01 4.68940288e-01 4.45684463e-01 4.20222580e-01 4.09037203e-01 4.30165797e-01 4.83769298e-01 5.47703922e-01 5.99215388e-01 6.51236176e-01 6.85644031e-01 6.94754541e-01 6.45661533e-01 5.29227145e-02 1.13031054e-02 1.19264079e-02 1.74801014e-02 1.72287896e-02 2.87177384e-01 4.00878161e-01 4.29568231e-01 4.49270606e-01 4.68037248e-01 4.84667510e-01 4.98103023e-01 5.08119166e-01 5.14900208e-01 5.18704236e-01 5.19644737e-01 5.17446518e-01 5.11109233e-01 4.98453945e-01 4.75817919e-01 4.41514611e-01 4.06602234e-01 3.94358575e-01 4.33169276e-01 5.24051785e-01 6.13135636e-01 6.58441961e-01 6.93643451e-01 6.87616706e-01 6.46186590e-01 3.98742050e-01 1.87580995e-02 1.36544313e-02 1.53745515e-02 1.56399589e-02 1.47827407e-02 3.53831023e-01 4.25842136e-01 4.44142967e-01 4.59869832e-01 4.75667596e-01 4.90007609e-01 5.02068996e-01 5.11664748e-01 5.18863082e-01 5.23750186e-01 5.26226878e-01 5.25668979e-01 5.20405352e-01 5.07245243e-01 4.82465804e-01 4.49333787e-01 4.26205277e-01 4.35837150e-01 5.19232035e-01 6.32555962e-01 7.11554945e-01 7.22805977e-01 7.15540469e-01 6.46822989e-01 4.40171987e-01 3.02122049e-02 1.26022724e-02 1.27784982e-02 2.61155441e-02 1.43270399e-02 1.31126000e-02 3.93296659e-01 4.43627596e-01 4.56010073e-01 4.68549728e-01 4.81265366e-01 4.93085474e-01 5.03508031e-01 5.12360811e-01 5.19535244e-01 5.24876773e-01 5.28112710e-01 5.28733015e-01 5.25886178e-01 5.18698633e-01 5.08768797e-01 5.08964181e-01 5.48133612e-01 6.40166998e-01 7.54913688e-01 8.35511982e-01 7.76891708e-01 6.81197107e-01 4.34993505e-01 2.57670972e-02 1.54579505e-02 1.44862672e-02 1.62226111e-02 1.82667766e-02 1.89896181e-01 1.33303069e-02 1.18891150e-02 4.20431882e-01 4.58597481e-01 4.65808898e-01 4.74403679e-01 4.83611703e-01 4.92733657e-01 5.01421452e-01 5.09408593e-01 5.16380370e-01 5.21980882e-01 5.25943398e-01 5.28415740e-01 5.30619681e-01 5.36005616e-01 5.52131951e-01 5.92735410e-01 6.69310927e-01 7.50632823e-01 7.43023932e-01 2.14695990e-01 5.55435009e-02 3.50432619e-02 2.74522360e-02 2.16346439e-02 1.72582380e-02 1.46279614e-02 2.03272402e-02 6.89118132e-02 4.73240763e-01 1.25150122e-02 1.09239938e-02 4.41965461e-01 4.71215487e-01 4.72673476e-01 4.76489007e-01 4.81933504e-01 4.88401324e-01 4.95442659e-01 5.02619207e-01 5.09477317e-01 5.15597463e-01 5.20820200e-01 5.25840104e-01 5.33257246e-01 5.48596621e-01 5.79616010e-01 6.31485224e-01 6.96912646e-01 7.46782124e-01 7.55637169e-01 5.35780251e-01 1.10992528e-01 4.87691872e-02 3.31227891e-02 2.56542414e-02 3.45908329e-02 6.02361500e-01 6.61405087e-01 7.06863880e-01 6.11317933e-01 1.17720375e-02 1.00977663e-02 4.61378813e-01 4.80531663e-01 4.75139618e-01 4.74007666e-01 4.76059407e-01 4.80272323e-01 4.85880554e-01 4.92315680e-01 4.99167413e-01 5.06150305e-01 5.13211489e-01 5.20989954e-01 5.31707346e-01 5.49844980e-01 5.80602586e-01 6.24453366e-01 6.72010422e-01 7.08458722e-01 7.22470105e-01 7.14180648e-01 7.62058258e-01 8.09856057e-01 8.25888455e-01 8.34959924e-01 8.48329067e-01 8.19795251e-01 7.70420909e-01 7.69219816e-01 6.80728614e-01 1.11502167e-02 9.32845566e-03 4.80482608e-01 4.84477252e-01 4.71780032e-01 4.66859132e-01 4.66701418e-01 4.69327420e-01 4.73659605e-01 4.79210764e-01 4.85878080e-01 4.93744820e-01 5.02943158e-01 5.13714314e-01 5.26805997e-01 5.44020474e-01 5.67747593e-01 5.98133504e-01 6.30644500e-01 6.59359932e-01 6.81737840e-01 7.01863289e-01 7.25970209e-01 7.42218971e-01 7.50239074e-01 7.52659619e-01 7.44064033e-01 7.34150708e-01 7.08391249e-01 7.07861781e-01 6.51016116e-01 1.08828945e-02 8.88835825e-03 4.98978049e-01 4.80324715e-01 4.62607652e-01 4.56646174e-01 4.55799311e-01 4.57288772e-01 4.60133821e-01 4.64249343e-01 4.70057338e-01 4.78188545e-01 4.89180654e-01 5.03180385e-01 5.19766510e-01 5.38138688e-01 5.57700634e-01 5.78249335e-01 5.99209368e-01 6.19145751e-01 6.34630740e-01 6.40043318e-01 6.33754849e-01 6.16904616e-01 6.03391707e-01 5.94788969e-01 5.87948859e-01 5.84912598e-01 5.90178847e-01 5.96434653e-01 5.90843618e-01 1.04554482e-02 8.46710242e-03 5.26500702e-01 4.70304757e-01 4.51883674e-01 4.46728498e-01 4.45029497e-01 4.44514155e-01 4.44910914e-01 4.46746677e-01 4.51000333e-01 4.58871543e-01 4.71492946e-01 4.89497215e-01 5.12433171e-01 5.38245320e-01 5.63326001e-01 5.83525658e-01 5.95599473e-01 5.98284483e-01 5.92202783e-01 5.80120444e-01 5.67115247e-01 5.54101825e-01 5.41898251e-01 5.31362355e-01 5.22375405e-01 5.17231941e-01 5.15451610e-01 5.15946209e-01 5.45086384e-01 1.57216657e-02 1.13169607e-02 6.35368466e-01 5.12429953e-01 5.01585722e-01 4.97509509e-01 4.95467931e-01 4.94082659e-01 4.93157715e-01 4.93077040e-01 4.94517446e-01 4.98288929e-01 5.05169034e-01 5.15655816e-01 5.29637933e-01 5.46054363e-01 5.62670767e-01 5.76148093e-01 5.82650423e-01 5.79340696e-01 5.66949546e-01 5.51394761e-01 5.41406453e-01 5.37982285e-01 5.37370086e-01 5.34259260e-01 5.28869987e-01 5.23519635e-01 5.19654453e-01 5.17125487e-01 5.31347871e-01 
