# vtk DataFile Version 2.0
results_case1_non_linear/5_density.vtk, Created by Freefem++ 
ASCII
DATASET UNSTRUCTURED_GRID
POINTS 961 float
0 0 0
0.033333333 0 0
0.066666667 0 0
0.1 0 0
0.13333333 0 0
0.16666667 0 0
0.2 0 0
0.23333333 0 0
0.26666667 0 0
0.3 0 0
0.33333333 0 0
0.36666667 0 0
0.4 0 0
0.43333333 0 0
0.46666667 0 0
0.5 0 0
0.53333333 0 0
0.56666667 0 0
0.6 0 0
0.63333333 0 0
0.66666667 0 0
0.7 0 0
0.73333333 0 0
0.76666667 0 0
0.8 0 0
0.83333333 0 0
0.86666667 0 0
0.9 0 0
0.93333333 0 0
0.96666667 0 0
1 0 0
0 0.033333333 0
0.033333333 0.033333333 0
0.066666667 0.033333333 0
0.1 0.033333333 0
0.13333333 0.033333333 0
0.16666667 0.033333333 0
0.2 0.033333333 0
0.23333333 0.033333333 0
0.26666667 0.033333333 0
0.3 0.033333333 0
0.33333333 0.033333333 0
0.36666667 0.033333333 0
0.4 0.033333333 0
0.43333333 0.033333333 0
0.46666667 0.033333333 0
0.5 0.033333333 0
0.53333333 0.033333333 0
0.56666667 0.033333333 0
0.6 0.033333333 0
0.63333333 0.033333333 0
0.66666667 0.033333333 0
0.7 0.033333333 0
0.73333333 0.033333333 0
0.76666667 0.033333333 0
0.8 0.033333333 0
0.83333333 0.033333333 0
0.86666667 0.033333333 0
0.9 0.033333333 0
0.93333333 0.033333333 0
0.96666667 0.033333333 0
1 0.033333333 0
0 0.066666667 0
0.033333333 0.066666667 0
0.066666667 0.066666667 0
0.1 0.066666667 0
0.13333333 0.066666667 0
0.16666667 0.066666667 0
0.2 0.066666667 0
0.23333333 0.066666667 0
0.26666667 0.066666667 0
0.3 0.066666667 0
0.33333333 0.066666667 0
0.36666667 0.066666667 0
0.4 0.066666667 0
0.43333333 0.066666667 0
0.46666667 0.066666667 0
0.5 0.066666667 0
0.53333333 0.066666667 0
0.56666667 0.066666667 0
0.6 0.066666667 0
0.63333333 0.066666667 0
0.66666667 0.066666667 0
0.7 0.066666667 0
0.73333333 0.066666667 0
0.76666667 0.066666667 0
0.8 0.066666667 0
0.83333333 0.066666667 0
0.86666667 0.066666667 0
0.9 0.066666667 0
0.93333333 0.066666667 0
0.96666667 0.066666667 0
1 0.066666667 0
0 0.1 0
0.033333333 0.1 0
0.066666667 0.1 0
0.1 0.1 0
0.13333333 0.1 0
0.16666667 0.1 0
0.2 0.1 0
0.23333333 0.1 0
0.26666667 0.1 0
0.3 0.1 0
0.33333333 0.1 0
0.36666667 0.1 0
0.4 0.1 0
0.43333333 0.1 0
0.46666667 0.1 0
0.5 0.1 0
0.53333333 0.1 0
0.56666667 0.1 0
0.6 0.1 0
0.63333333 0.1 0
0.66666667 0.1 0
0.7 0.1 0
0.73333333 0.1 0
0.76666667 0.1 0
0.8 0.1 0
0.83333333 0.1 0
0.86666667 0.1 0
0.9 0.1 0
0.93333333 0.1 0
0.96666667 0.1 0
1 0.1 0
0 0.13333333 0
0.033333333 0.13333333 0
0.066666667 0.13333333 0
0.1 0.13333333 0
0.13333333 0.13333333 0
0.16666667 0.13333333 0
0.2 0.13333333 0
0.23333333 0.13333333 0
0.26666667 0.13333333 0
0.3 0.13333333 0
0.33333333 0.13333333 0
0.36666667 0.13333333 0
0.4 0.13333333 0
0.43333333 0.13333333 0
0.46666667 0.13333333 0
0.5 0.13333333 0
0.53333333 0.13333333 0
0.56666667 0.13333333 0
0.6 0.13333333 0
0.63333333 0.13333333 0
0.66666667 0.13333333 0
0.7 0.13333333 0
0.73333333 0.13333333 0
0.76666667 0.13333333 0
0.8 0.13333333 0
0.83333333 0.13333333 0
0.86666667 0.13333333 0
0.9 0.13333333 0
0.93333333 0.13333333 0
0.96666667 0.13333333 0
1 0.13333333 0
0 0.16666667 0
0.033333333 0.16666667 0
0.066666667 0.16666667 0
0.1 0.16666667 0
0.13333333 0.16666667 0
0.16666667 0.16666667 0
0.2 0.16666667 0
0.23333333 0.16666667 0
0.26666667 0.16666667 0
0.3 0.16666667 0
0.33333333 0.16666667 0
0.36666667 0.16666667 0
0.4 0.16666667 0
0.43333333 0.16666667 0
0.46666667 0.16666667 0
0.5 0.16666667 0
0.53333333 0.16666667 0
0.56666667 0.16666667 0
0.6 0.16666667 0
0.63333333 0.16666667 0
0.66666667 0.16666667 0
0.7 0.16666667 0
0.73333333 0.16666667 0
0.76666667 0.16666667 0
0.8 0.16666667 0
0.83333333 0.16666667 0
0.86666667 0.16666667 0
0.9 0.16666667 0
0.93333333 0.16666667 0
0.96666667 0.16666667 0
1 0.16666667 0
0 0.2 0
0.033333333 0.2 0
0.066666667 0.2 0
0.1 0.2 0
0.13333333 0.2 0
0.16666667 0.2 0
0.2 0.2 0
0.23333333 0.2 0
0.26666667 0.2 0
0.3 0.2 0
0.33333333 0.2 0
0.36666667 0.2 0
0.4 0.2 0
0.43333333 0.2 0
0.46666667 0.2 0
0.5 0.2 0
0.53333333 0.2 0
0.56666667 0.2 0
0.6 0.2 0
0.63333333 0.2 0
0.66666667 0.2 0
0.7 0.2 0
0.73333333 0.2 0
0.76666667 0.2 0
0.8 0.2 0
0.83333333 0.2 0
0.86666667 0.2 0
0.9 0.2 0
0.93333333 0.2 0
0.96666667 0.2 0
1 0.2 0
0 0.23333333 0
0.033333333 0.23333333 0
0.066666667 0.23333333 0
0.1 0.23333333 0
0.13333333 0.23333333 0
0.16666667 0.23333333 0
0.2 0.23333333 0
0.23333333 0.23333333 0
0.26666667 0.23333333 0
0.3 0.23333333 0
0.33333333 0.23333333 0
0.36666667 0.23333333 0
0.4 0.23333333 0
0.43333333 0.23333333 0
0.46666667 0.23333333 0
0.5 0.23333333 0
0.53333333 0.23333333 0
0.56666667 0.23333333 0
0.6 0.23333333 0
0.63333333 0.23333333 0
0.66666667 0.23333333 0
0.7 0.23333333 0
0.73333333 0.23333333 0
0.76666667 0.23333333 0
0.8 0.23333333 0
0.83333333 0.23333333 0
0.86666667 0.23333333 0
0.9 0.23333333 0
0.93333333 0.23333333 0
0.96666667 0.23333333 0
1 0.23333333 0
0 0.26666667 0
0.033333333 0.26666667 0
0.066666667 0.26666667 0
0.1 0.26666667 0
0.13333333 0.26666667 0
0.16666667 0.26666667 0
0.2 0.26666667 0
0.23333333 0.26666667 0
0.26666667 0.26666667 0
0.3 0.26666667 0
0.33333333 0.26666667 0
0.36666667 0.26666667 0
0.4 0.26666667 0
0.43333333 0.26666667 0
0.46666667 0.26666667 0
0.5 0.26666667 0
0.53333333 0.26666667 0
0.56666667 0.26666667 0
0.6 0.26666667 0
0.63333333 0.26666667 0
0.66666667 0.26666667 0
0.7 0.26666667 0
0.73333333 0.26666667 0
0.76666667 0.26666667 0
0.8 0.26666667 0
0.83333333 0.26666667 0
0.86666667 0.26666667 0
0.9 0.26666667 0
0.93333333 0.26666667 0
0.96666667 0.26666667 0
1 0.26666667 0
0 0.3 0
0.033333333 0.3 0
0.066666667 0.3 0
0.1 0.3 0
0.13333333 0.3 0
0.16666667 0.3 0
0.2 0.3 0
0.23333333 0.3 0
0.26666667 0.3 0
0.3 0.3 0
0.33333333 0.3 0
0.36666667 0.3 0
0.4 0.3 0
0.43333333 0.3 0
0.46666667 0.3 0
0.5 0.3 0
0.53333333 0.3 0
0.56666667 0.3 0
0.6 0.3 0
0.63333333 0.3 0
0.66666667 0.3 0
0.7 0.3 0
0.73333333 0.3 0
0.76666667 0.3 0
0.8 0.3 0
0.83333333 0.3 0
0.86666667 0.3 0
0.9 0.3 0
0.93333333 0.3 0
0.96666667 0.3 0
1 0.3 0
0 0.33333333 0
0.033333333 0.33333333 0
0.066666667 0.33333333 0
0.1 0.33333333 0
0.13333333 0.33333333 0
0.16666667 0.33333333 0
0.2 0.33333333 0
0.23333333 0.33333333 0
0.26666667 0.33333333 0
0.3 0.33333333 0
0.33333333 0.33333333 0
0.36666667 0.33333333 0
0.4 0.33333333 0
0.43333333 0.33333333 0
0.46666667 0.33333333 0
0.5 0.33333333 0
0.53333333 0.33333333 0
0.56666667 0.33333333 0
0.6 0.33333333 0
0.63333333 0.33333333 0
0.66666667 0.33333333 0
0.7 0.33333333 0
0.73333333 0.33333333 0
0.76666667 0.33333333 0
0.8 0.33333333 0
0.83333333 0.33333333 0
0.86666667 0.33333333 0
0.9 0.33333333 0
0.93333333 0.33333333 0
0.96666667 0.33333333 0
1 0.33333333 0
0 0.36666667 0
0.033333333 0.36666667 0
0.066666667 0.36666667 0
0.1 0.36666667 0
0.13333333 0.36666667 0
0.16666667 0.36666667 0
0.2 0.36666667 0
0.23333333 0.36666667 0
0.26666667 0.36666667 0
0.3 0.36666667 0
0.33333333 0.36666667 0
0.36666667 0.36666667 0
0.4 0.36666667 0
0.43333333 0.36666667 0
0.46666667 0.36666667 0
0.5 0.36666667 0
0.53333333 0.36666667 0
0.56666667 0.36666667 0
0.6 0.36666667 0
0.63333333 0.36666667 0
0.66666667 0.36666667 0
0.7 0.36666667 0
0.73333333 0.36666667 0
0.76666667 0.36666667 0
0.8 0.36666667 0
0.83333333 0.36666667 0
0.86666667 0.36666667 0
0.9 0.36666667 0
0.93333333 0.36666667 0
0.96666667 0.36666667 0
1 0.36666667 0
0 0.4 0
0.033333333 0.4 0
0.066666667 0.4 0
0.1 0.4 0
0.13333333 0.4 0
0.16666667 0.4 0
0.2 0.4 0
0.23333333 0.4 0
0.26666667 0.4 0
0.3 0.4 0
0.33333333 0.4 0
0.36666667 0.4 0
0.4 0.4 0
0.43333333 0.4 0
0.46666667 0.4 0
0.5 0.4 0
0.53333333 0.4 0
0.56666667 0.4 0
0.6 0.4 0
0.63333333 0.4 0
0.66666667 0.4 0
0.7 0.4 0
0.73333333 0.4 0
0.76666667 0.4 0
0.8 0.4 0
0.83333333 0.4 0
0.86666667 0.4 0
0.9 0.4 0
0.93333333 0.4 0
0.96666667 0.4 0
1 0.4 0
0 0.43333333 0
0.033333333 0.43333333 0
0.066666667 0.43333333 0
0.1 0.43333333 0
0.13333333 0.43333333 0
0.16666667 0.43333333 0
0.2 0.43333333 0
0.23333333 0.43333333 0
0.26666667 0.43333333 0
0.3 0.43333333 0
0.33333333 0.43333333 0
0.36666667 0.43333333 0
0.4 0.43333333 0
0.43333333 0.43333333 0
0.46666667 0.43333333 0
0.5 0.43333333 0
0.53333333 0.43333333 0
0.56666667 0.43333333 0
0.6 0.43333333 0
0.63333333 0.43333333 0
0.66666667 0.43333333 0
0.7 0.43333333 0
0.73333333 0.43333333 0
0.76666667 0.43333333 0
0.8 0.43333333 0
0.83333333 0.43333333 0
0.86666667 0.43333333 0
0.9 0.43333333 0
0.93333333 0.43333333 0
0.96666667 0.43333333 0
1 0.43333333 0
0 0.46666667 0
0.033333333 0.46666667 0
0.066666667 0.46666667 0
0.1 0.46666667 0
0.13333333 0.46666667 0
0.16666667 0.46666667 0
0.2 0.46666667 0
0.23333333 0.46666667 0
0.26666667 0.46666667 0
0.3 0.46666667 0
0.33333333 0.46666667 0
0.36666667 0.46666667 0
0.4 0.46666667 0
0.43333333 0.46666667 0
0.46666667 0.46666667 0
0.5 0.46666667 0
0.53333333 0.46666667 0
0.56666667 0.46666667 0
0.6 0.46666667 0
0.63333333 0.46666667 0
0.66666667 0.46666667 0
0.7 0.46666667 0
0.73333333 0.46666667 0
0.76666667 0.46666667 0
0.8 0.46666667 0
0.83333333 0.46666667 0
0.86666667 0.46666667 0
0.9 0.46666667 0
0.93333333 0.46666667 0
0.96666667 0.46666667 0
1 0.46666667 0
0 0.5 0
0.033333333 0.5 0
0.066666667 0.5 0
0.1 0.5 0
0.13333333 0.5 0
0.16666667 0.5 0
0.2 0.5 0
0.23333333 0.5 0
0.26666667 0.5 0
0.3 0.5 0
0.33333333 0.5 0
0.36666667 0.5 0
0.4 0.5 0
0.43333333 0.5 0
0.46666667 0.5 0
0.5 0.5 0
0.53333333 0.5 0
0.56666667 0.5 0
0.6 0.5 0
0.63333333 0.5 0
0.66666667 0.5 0
0.7 0.5 0
0.73333333 0.5 0
0.76666667 0.5 0
0.8 0.5 0
0.83333333 0.5 0
0.86666667 0.5 0
0.9 0.5 0
0.93333333 0.5 0
0.96666667 0.5 0
1 0.5 0
0 0.53333333 0
0.033333333 0.53333333 0
0.066666667 0.53333333 0
0.1 0.53333333 0
0.13333333 0.53333333 0
0.16666667 0.53333333 0
0.2 0.53333333 0
0.23333333 0.53333333 0
0.26666667 0.53333333 0
0.3 0.53333333 0
0.33333333 0.53333333 0
0.36666667 0.53333333 0
0.4 0.53333333 0
0.43333333 0.53333333 0
0.46666667 0.53333333 0
0.5 0.53333333 0
0.53333333 0.53333333 0
0.56666667 0.53333333 0
0.6 0.53333333 0
0.63333333 0.53333333 0
0.66666667 0.53333333 0
0.7 0.53333333 0
0.73333333 0.53333333 0
0.76666667 0.53333333 0
[...]
CELL_DATA 1920
Scalars  Label int 1
LOOKUP_TABLE FreeFempp_table
0
0
0
0
0
0
0
0
0
0
0
0
0
0
0
0
0
0
0
0
0
0
0
0
0
0
0
0
0
0
0
0
0
0
0
0
0
0
0
0
0
0
0
0
0
0
0
0
0
0
0
0
0
0
0
0
0
0
0
0
0
0
0
0
0
0
0
0
0
0
0
0
0
0
0
0
0
0
0
0
0
0
0
0
0
0
0
0
0
0
0
0
0
0
0
0
0
0
0
0
0
0
0
0
0
0
0
0
0
0
0
0
0
0
0
0
0
0
0
0
0
0
0
0
0
0
0
0
0
0
0
0
0
0
0
0
0
0
0
0
0
0
0
0
0
0
0
0
0
0
0
0
0
0
0
0
0
0
0
0
0
0
0
0
0
0
0
0
0
0
0
0
0
0
0
0
0
0
0
0
0
0
0
0
0
0
0
0
0
0
0
0
0
0
0
0
0
0
0
0
0
0
0
0
0
0
0
0
0
0
0
0
0
0
0
0
0
0
0
0
0
0
0
0
0
0
0
0
0
0
0
0
0
0
0
0
0
0
0
0
0
0
0
0
0
0
0
0
0
0
0
0
0
0
0
0
0
0
0
0
0
0
0
0
0
0
0
0
0
0
0
0
0
0
0
0
0
0
0
0
0
0
0
0
0
0
0
0
0
0
0
0
0
0
0
0
0
0
0
0
0
0
0
0
0
0
0
0
0
0
0
0
0
0
0
0
0
0
0
0
0
0
0
0
0
0
0
0
0
0
0
0
0
0
0
0
0
0
0
0
0
0
0
0
0
0
0
0
0
0
0
0
0
0
0
0
0
0
0
0
0
0
0
0
0
0
0
0
0
0
0
0
0
0
0
0
0
0
0
0
0
0
0
0
0
0
0
0
0
0
0
0
0
0
0
0
0
0
0
0
0
0
0
0
0
0
0
0
0
0
0
0
0
0
0
0
0
0
0
0
0
0
0
0
0
0
0
0
0
0
0
0
0
0
0
0
0
0
0
0
0
0
0
0
0
0
0
0
0
0
0
0
0
0
0
0
0
0
0
0
0
0
0
0
0
0
0
0
0
0
0
0
0
0
0
0
0
0
0
0
0
0
0
0
0
0
0
0
0
0
0
0
0
0
0
0
0
0
0
0
0
0
0
0
0
0
0
0
0
0
0
0
0
0
0
0
0
0
0
0
0
0
0
0
0
0
0
0
0
0
0
0
0
0
0
0
0
0
0
0
0
0
0
0
0
0
0
0
0
0
0
0
0
0
0
0
0
0
0
0
0
0
0
0
0
0
0
0
0
0
0
0
0
0
0
0
0
0
0
0
0
0
0
0
0
0
0
0
0
0
0
0
0
0
0
0
0
0
0
0
0
0
0
0
0
0
0
0
0
0
0
0
0
0
0
0
0
0
0
0
0
0
0
0
0
0
0
0
0
0
0
0
0
0
0
0
0
0
0
0
0
0
0
0
0
0
0
0
0
0
0
0
0
0
0
0
0
0
0
0
0
0
0
0
0
0
0
0
0
0
0
0
0
0
0
0
0
0
0
0
0
0
0
0
0
0
0
0
0
0
0
0
0
0
0
0
0
0
0
0
0
0
0
0
0
0
0
0
0
0
0
0
0
0
0
0
0
0
0
0
0
0
0
0
0
0
0
0
0
0
0
0
0
0
0
0
0
0
0
0
0
0
0
0
0
0
0
0
0
0
0
0
0
0
0
0
0
0
0
0
0
0
0
0
0
0
0
0
0
0
0
0
0
0
0
0
0
0
0
0
0
0
0
0
0
0
0
0
0
0
0
0
0
0
0
0
0
0
0
0
0
0
0
0
0
0
0
0
0
0
0
0
0
0
0
0
0
0
0
0
0
0
0
0
0
0
0
0
0
0
0
0
0
0
0
0
0
0
0
0
0
0
0
0
0
0
0
0
0
0
0
0
0
0
0
0
0
0
0
0
0
0
0
0
0
0
0
0
0
0
0
0
0
0
0
0
0
0
0
0
0
0
0
0
0
0
0
0
0
0
0
0
0
0
0
0
0
0
0
0
0
0
0
0
0
0
0
0
0
0
0
0
0
0
0
0
0
0
0
0
0
0
0
0
0
0
0
0
0
0
0
0
0
0
0
0
0
0
0
0
0
0
0
0
0
0
0
0
0
0
0
0
0
0
0
0
0
0
0
0
0
0
0
0
0
0
0
0
0
0
0
0
0
0
0
0
0
0
0
0
0
0
0
0
0
0
0
0
0
0
0
0
0
0
0
0
0
0
0
0
0
0
0
0
0
0
0
0
0
0
0
0
0
0
0
0
0
0
0
0
0
0
0
0
0
0
0
0
0
0
0
0
0
0
0
0
0
0
0
0
0
0
0
0
0
0
0
0
0
0
0
0
0
0
0
0
0
0
0
0
0
0
0
0
0
0
0
0
0
0
0
0
0
0
0
0
0
0
0
0
0
0
0
0
0
0
0
0
0
0
0
0
0
0
0
0
0
0
0
0
0
0
0
0
0
0
0
0
0
0
0
0
0
0
0
0
0
0
0
0
0
0
0
0
0
0
0
0
0
0
0
0
0
0
0
0
0
0
0
0
0
0
0
0
0
0
0
0
0
0
0
0
0
0
0
0
0
0
0
0
0
0
0
0
0
0
0
0
0
0
0
0
0
0
0
0
0
0
0
0
0
0
0
0
0
0
0
0
0
0
0
0
0
0
0
0
0
0
0
0
0
0
0
0
0
0
0
0
0
0
0
0
0
0
0
0
0
0
0
0
0
0
0
0
0
0
0
0
0
0
0
0
0
0
0
0
0
0
0
0
0
0
0
0
0
0
0
0
0
0
0
0
0
0
0
0
0
0
0
0
0
0
0
0
0
0
0
0
0
0
0
0
0
0
0
0
0
0
0
0
0
0
0
0
0
0
0
0
0
0
0
0
0
0
0
0
0
0
0
0
0
0
0
0
0
0
0
0
0
0
0
0
0
0
0
0
0
0
0
0
0
0
0
0
0
0
0
0
0
0
0
0
0
0
0
0
0
0
0
0
0
0
0
0
0
0
0
0
0
0
0
0
0
0
0
0
0
0
0
0
0
0
0
0
0
0
0
0
0
0
0
0
0
0
0
0
0
0
0
0
0
0
0
0
0
0
0
0
0
0
0
0
0
0
0
0
0
0
0
0
0
0
0
0
0
0
0
0
0
0
0
0
0
0
0
0
0
0
0
0
0
0
0
0
0
0
0
0
0
0
0
0
0
0
0
0
0
0
0
0
0
0
0
0
0
0
0
0
0
0
0
0
0
0
0
0
0
0
0
0
0
0
0
0
0
0
0
0
0
0
0
0
0
0
0
0
0
0
0
0
0
0
0
0
0
0
0
0
0
0
0
0
0
0
0
0
0
0
0
0
0
0
0
0
0
0
0
0
0
0
0
0
0
0
0
0
0
0
0
0
0
0
0
0
0
0
0
0
0
0
0
0
0
0
0
0
0
0
0
0
0
0
0
0
0
0
0
0
0
0
0
0
0
0
0
0
0
0
0
0
0
0
0
0
0
0
0
0
0
0
0
0
0
0
0
0
0
0
0
0
0
0
0
0
0
0
0
0
0
0
0
0
0
0
0
0
0
0
0
0
0
0
0
0
0
0
0
0
0
0
0
0
0
0
0
0
0
0
0
0
0
0
0
0
0
0
0
0
0
0
0
0
0
0
0
0
0
0
0
0
0
0
0
0
0
0
0
0
0
0
0
0
0
0
0
0
0
0
0
0
0
0
0
0
0
0
0
0
0
0
0
0
0
0
0
0
0
0
0
0
0
0
0
0
0
0
0
0
0
0
0
0
0
0
0
0
0
0
0
0
0
0
0
0
0
0
0
0
0
0
0
0
0
0
0
0
0
0
0
0
0
0
0
0
0
0
0
0
0
0
0
0
0
0
0
0
0
0
0
0
0
0
0
0
0
0
0
0
0
0
0
0
0
0
0
0
0
0
0
0
0
0
0
0
0
0
0
0
0
0
0
0
0
0
0
0
0
0
0
0
0
0
0
0
0
0
0
0
0
0
0
0
0
0
0
0
0
0
0
0
1
1
1
1
1
1
1
1
1
1
1
1
1
1
1
1
1
1
1
1
1
1
1
1
1
1
1
1
1
1
2
2
2
2
2
2
2
2
2
2
2
2
2
2
2
2
2
2
2
2
2
2
2
2
2
2
2
2
2
2
3
3
3
3
3
3
3
3
3
3
3
3
3
3
3
3
3
3
3
3
3
3
3
3
3
3
3
3
3
3
4
4
4
4
4
4
4
4
4
4
4
4
4
4
4
4
4
4
4
4
4
4
4
4
4
4
4
4
4
4

LOOKUP_TABLE FreeFempp_table 5
1.00000000 0.00000000 0.00000000 1.00000000
1.00000000 1.00000000 0.00000000 1.00000000
1.00000000 0.00000000 1.00000000 1.00000000
0.00000000 1.00000000 0.00000000 1.00000000
0.00000000 1.00000000 1.00000000 1.00000000

POINT_DATA 961
FIELD FieldData 1
Density 1 961 float
1.76433697e-01 1.58611417e-01 2.24897176e-01 2.62324095e-01 2.56038666e-01 2.17912242e-01 1.44977614e-01 6.31410927e-02 3.51152718e-02 4.78740260e-02 1.62590221e-01 3.64726484e-01 4.35779363e-01 4.64226186e-01 5.04889369e-01 5.96301973e-01 7.34024286e-01 8.06998789e-01 7.79071033e-01 7.27702618e-01 7.24381804e-01 7.15066135e-01 7.08627939e-01 7.06999183e-01 6.92047477e-01 6.73007607e-01 6.57454967e-01 6.41778290e-01 6.43489480e-01 6.50510728e-01 6.49991870e-01 1.72959792e-03 7.18140528e-02 1.38458028e-01 1.65451944e-01 1.61223695e-01 1.36201337e-01 9.31088105e-02 4.28656377e-02 2.14166511e-02 2.00997926e-02 5.67853823e-02 2.18589202e-01 2.99305081e-01 3.22828352e-01 3.57274801e-01 4.56311554e-01 7.16599524e-01 8.79395962e-01 8.62899065e-01 7.64762640e-01 7.55074799e-01 7.61791229e-01 7.42137969e-01 7.43311524e-01 7.33089030e-01 7.10021496e-01 6.82174802e-01 6.40081048e-01 6.28823221e-01 6.38735592e-01 6.52075529e-01 1.14946289e-03 1.01210678e-03 1.72758754e-03 1.57454540e-03 1.59735396e-03 1.62912405e-03 1.68230396e-03 1.73306733e-03 1.65153830e-03 1.60660909e-03 1.42513239e-03 2.96380550e-01 3.64440203e-01 3.72257262e-01 3.80611569e-01 4.06085700e-01 5.99772036e-01 8.42282891e-01 2.99672306e-01 6.55818060e-02 1.87398523e-01 3.40690821e-01 4.29738253e-01 5.36644936e-01 5.71104050e-01 5.96586943e-01 6.23782158e-01 6.10784471e-01 5.74141443e-01 5.71857154e-01 6.25411868e-01 5.32229662e-01 1.64607074e-03 1.87365513e-03 1.60238123e-03 1.58077339e-03 1.60357577e-03 1.64390274e-03 1.70373463e-03 1.72128004e-03 1.65246765e-03 9.85878753e-04 1.84904551e-03 1.68388069e-03 1.85428734e-03 1.47564081e-03 4.11354572e-01 4.65189785e-01 8.69409680e-01 2.06744000e-01 2.48090494e-02 1.94706209e-02 1.63647886e-02 1.33570209e-02 1.13856029e-02 1.09071210e-02 1.26135834e-02 1.70574542e-02 6.38344139e-02 4.81980443e-01 4.82537627e-01 5.80814362e-01 5.39699733e-01 4.40870076e-01 4.99333255e-02 5.45137562e-02 4.22134280e-01 4.20368075e-01 4.12274778e-01 4.05857980e-01 4.02785569e-01 4.01841909e-01 3.80830050e-01 1.55064254e-03 1.80767535e-03 1.74648070e-03 8.11348436e-04 1.36879017e-03 1.96244777e-03 1.74446474e-03 9.57759202e-01 2.16759592e-02 2.62226257e-02 1.79643445e-02 1.39001105e-02 1.08534545e-02 8.67664721e-03 6.53662952e-03 4.68960684e-03 3.85608920e-03 4.06524278e-02 4.23510998e-01 5.46538770e-01 5.16943991e-01 3.95376116e-01 5.75787351e-02 4.37116735e-02 3.91475201e-01 4.07955050e-01 4.04100806e-01 4.00558531e-01 3.97980601e-01 3.96855652e-01 3.93668979e-01 3.78821552e-01 3.78393054e-01 3.99726123e-01 3.99008483e-01 1.70256104e-03 2.00428697e-03 1.17892982e-03 1.22636580e-03 9.63056862e-01 7.19663054e-02 4.65043522e-02 3.50561328e-02 2.90196799e-02 2.27920860e-02 1.56229632e-02 9.00050439e-03 2.77838856e-03 2.25788704e-03 5.20991720e-02 5.20684898e-01 4.81587678e-01 3.25908095e-01 1.36461318e-01 5.36125414e-02 1.65886432e-01 3.84002775e-01 4.02150303e-01 4.06706035e-01 4.08910483e-01 4.10337120e-01 4.11247790e-01 4.07061338e-01 3.98633063e-01 4.06446487e-01 4.10988152e-01 4.07019973e-01 4.08881962e-01 4.07830000e-01 1.42401026e-03 1.59987167e-03 9.61354196e-01 7.54394472e-01 4.07195240e-01 3.17726105e-01 3.29587370e-01 3.18773687e-01 3.05253297e-01 7.98119456e-02 2.11760006e-03 3.55466455e-03 4.99014974e-01 4.68762100e-01 2.97112465e-01 2.25960672e-01 1.25058815e-01 1.62019342e-01 3.64608735e-01 4.12070096e-01 4.24895048e-01 4.31680650e-01 4.35777396e-01 4.38040376e-01 4.37091321e-01 4.33032602e-01 4.30443108e-01 4.29876775e-01 4.26094621e-01 4.22733009e-01 4.24204856e-01 4.18350518e-01 1.68345880e-03 1.72470009e-03 9.28892136e-01 9.24034119e-01 8.00888538e-01 6.54024065e-01 5.04923284e-01 3.94326687e-01 2.69271106e-01 2.91659543e-03 3.38957133e-03 5.11691749e-01 5.01724362e-01 3.32049310e-01 3.05804521e-01 2.69641668e-01 2.83530623e-01 4.03161436e-01 4.47470546e-01 4.62279558e-01 4.69720840e-01 4.73265678e-01 4.74086970e-01 4.72183198e-01 4.67971921e-01 4.63266045e-01 4.58800673e-01 4.53366995e-01 4.47512001e-01 4.42582011e-01 4.33100402e-01 4.21206623e-01 1.79860229e-03 2.01077992e-03 2.47859247e-02 8.44828665e-01 8.25176895e-01 7.81504810e-01 5.78634799e-01 2.43682265e-01 3.27820983e-03 2.94111506e-03 5.23570299e-01 5.87139606e-01 4.64484960e-01 4.59672689e-01 4.59302694e-01 4.73499835e-01 5.00873506e-01 5.15917838e-01 5.21694899e-01 5.23332238e-01 5.22081792e-01 5.18847704e-01 5.14088094e-01 5.08309424e-01 5.02191663e-01 4.95952964e-01 4.89379227e-01 4.82639670e-01 4.75779027e-01 4.66803163e-01 4.53805298e-01 4.39090729e-01 2.50750408e-03 3.50022269e-03 8.53588805e-03 5.55705667e-01 7.42422938e-01 8.23338389e-01 9.66995835e-01 2.99309497e-03 3.01458710e-03 5.30438721e-01 6.83402479e-01 6.56884611e-01 6.45924270e-01 6.34131312e-01 6.20561838e-01 6.08587027e-01 5.98500848e-01 5.90835273e-01 5.82906604e-01 5.74617147e-01 5.66241503e-01 5.58030963e-01 5.50200105e-01 5.42814553e-01 5.35742223e-01 5.28843343e-01 5.22077858e-01 5.15288234e-01 5.07933438e-01 4.99700129e-01 4.91444081e-01 4.75961804e-01 6.22600783e-03 4.90833679e-03 5.08369738e-03 2.84751412e-02 3.58331762e-02 1.70240745e-01 2.89722625e-03 1.77664321e-03 5.15713751e-01 7.13329494e-01 7.48039365e-01 7.26067066e-01 7.10509181e-01 6.89357221e-01 6.68851912e-01 6.52976632e-01 6.39943480e-01 6.27183557e-01 6.14941955e-01 6.03593528e-01 5.93388379e-01 5.84396541e-01 5.76453626e-01 5.69272101e-01 5.62597573e-01 5.56231320e-01 5.50080538e-01 5.44334292e-01 5.39821029e-01 5.38647473e-01 5.46020389e-01 5.52750885e-01 2.89064571e-02 6.57327054e-03 8.93142261e-03 2.21236516e-02 3.49302366e-02 9.67507720e-01 1.78751233e-03 2.63120350e-03 6.57860279e-01 7.01257706e-01 6.87972724e-01 6.86713994e-01 6.79661334e-01 6.70833290e-01 6.61226451e-01 6.51256800e-01 6.40492797e-01 6.29493058e-01 6.18944645e-01 6.09399676e-01 6.01097882e-01 5.93962491e-01 5.87733865e-01 5.82083464e-01 5.76658547e-01 5.71211398e-01 5.65793693e-01 5.61002135e-01 5.58781922e-01 5.64510286e-01 5.92619538e-01 6.41231775e-01 5.73916137e-01 2.03891210e-02 2.38955747e-02 3.15482616e-02 9.48844850e-01 4.82180668e-03 3.54262092e-03 5.23453593e-01 4.97215420e-01 5.31767130e-01 5.73122680e-01 6.02897942e-01 6.19585931e-01 6.26391828e-01 6.26608908e-01 6.22616231e-01 6.16317928e-01 6.09122157e-01 6.02078140e-01 5.95807016e-01 5.90535223e-01 5.86209536e-01 5.82578659e-01 5.79234183e-01 5.75685024e-01 5.71389437e-01 5.65688729e-01 5.57921171e-01 5.48035204e-01 5.38758755e-01 5.41799724e-01 5.74520469e-01 3.83446813e-01 1.65728539e-01 2.01169148e-01 9.73609149e-01 4.87472583e-03 4.49258415e-03 3.43889177e-01 2.43032694e-01 3.04634005e-01 3.98345619e-01 4.81856048e-01 5.34696221e-01 5.64253330e-01 5.78959107e-01 5.84263265e-01 5.83982229e-01 5.80705225e-01 5.76241434e-01 5.71798921e-01 5.68110406e-01 5.65546811e-01 5.64180434e-01 5.63807726e-01 5.63963652e-01 5.63877046e-01 5.62289715e-01 5.57131886e-01 5.44802368e-01 5.18453419e-01 4.62081462e-01 3.59047383e-01 2.04096779e-01 1.34892985e-01 2.81383544e-01 9.65451062e-01 5.17761940e-03 4.84983949e-03 1.80355430e-01 1.06158741e-01 1.46800146e-01 2.46717334e-01 3.66701245e-01 4.49741423e-01 4.99150395e-01 5.27238131e-01 5.41379333e-01 5.46605527e-01 5.46413720e-01 5.43308079e-01 5.39133430e-01 5.35265386e-01 5.32712042e-01 5.32132745e-01 5.33789456e-01 5.37483990e-01 5.42546153e-01 5.47865868e-01 5.51858604e-01 5.52124619e-01 5.45082748e-01 5.22376895e-01 4.57338661e-01 3.07072878e-01 2.14915201e-01 4.11111891e-01 9.50284779e-01 5.48997568e-03 5.17449342e-03 8.39698836e-02 5.59020452e-02 7.93158337e-02 1.65635809e-01 2.96370685e-01 3.91647488e-01 4.50884402e-01 4.87077415e-01 5.07403672e-01 5.16737163e-01 5.18619895e-01 5.15743077e-01 5.10299027e-01 5.04194558e-01 4.99133289e-01 4.96551126e-01 4.97390479e-01 5.01819789e-01 5.09227872e-01 5.18600762e-01 5.28880239e-01 5.38838506e-01 5.48101664e-01 5.56755364e-01 5.64629495e-01 5.46495140e-01 5.03451705e-01 7.61470079e-01 9.27284062e-01 5.88708743e-03 5.54091623e-03 4.48658466e-02 3.64680700e-02 5.54487891e-02 1.42045021e-01 2.74474382e-01 3.66813570e-01 4.25674677e-01 4.64221746e-01 4.87787008e-01 4.99963611e-01 5.03576815e-01 5.00922441e-01 4.94040906e-01 4.84956563e-01 4.75809753e-01 4.68774080e-01 4.65615153e-01 4.67027932e-01 4.72592950e-01 4.81702656e-01 4.94193524e-01 5.09175837e-01 5.26640475e-01 5.48770130e-01 5.81759155e-01 6.46382630e-01 7.20219970e-01 8.60022068e-01 8.81013632e-01 6.43461524e-03 6.04954176e-03 3.22175249e-02 2.86438819e-02 5.05579971e-02 1.58743441e-01 2.89595783e-01 3.67794871e-01 4.19674307e-01 4.56607610e-01 4.81212527e-01 4.95360047e-01 5.00868320e-01 4.99351501e-01 4.92313772e-01 4.81388032e-01 4.68579948e-01 4.56292480e-01 4.46767211e-01 4.41115052e-01 4.39761519e-01 4.44501668e-01 4.58872110e-01 4.82806712e-01 5.13539732e-01 5.48711181e-01 5.95954716e-01 6.71298862e-01 7.51988709e-01 8.53878081e-01 7.74666786e-01 7.22161122e-03 6.86933426e-03 2.59081088e-02 2.41990127e-02 6.13337941e-02 2.12525010e-01 3.24043751e-01 3.82764876e-01 4.25632209e-01 4.59263206e-01 4.83573586e-01 4.99013186e-01 5.06558120e-01 5.07214010e-01 5.01886010e-01 4.91508335e-01 4.77295965e-01 4.60818499e-01 4.43313718e-01 4.25023317e-01 4.08584982e-01 4.03377146e-01 4.22777683e-01 4.68238950e-01 5.28302848e-01 5.87842882e-01 6.54116571e-01 7.26603568e-01 7.87821174e-01 8.28156888e-01 5.83512664e-01 8.41592345e-03 8.08349345e-03 2.12554112e-02 2.03528721e-02 1.05362795e-01 2.86720395e-01 3.60329241e-01 4.01991338e-01 4.37298506e-01 4.67389554e-01 4.90622371e-01 5.06698430e-01 5.16112208e-01 5.19501090e-01 5.17340779e-01 5.09834468e-01 4.96880829e-01 4.77863431e-01 4.50788856e-01 4.13550645e-01 3.73659790e-01 3.56611282e-01 3.89399171e-01 4.75118667e-01 5.77796161e-01 6.56395435e-01 7.28576422e-01 7.71423101e-01 7.82128036e-01 7.21556067e-01 2.85766367e-02 9.67199821e-03 9.24856309e-03 1.77239850e-02 1.70525666e-02 1.94192275e-01 3.46098244e-01 3.89996499e-01 4.20841634e-01 4.50642228e-01 4.77265477e-01 4.98821199e-01 5.14856696e-01 5.25652528e-01 5.31635284e-01 5.33000052e-01 5.29307723e-01 5.18934488e-01 4.98324901e-01 4.61572558e-01 4.06603068e-01 3.52575660e-01 3.34457785e-01 3.94049793e-01 5.39903760e-01 6.76274776e-01 7.37911701e-01 7.80732155e-01 7.73834884e-01 7.22308576e-01 3.42440188e-01 1.68206338e-02 1.29814232e-02 1.31227514e-02 1.51115861e-02 1.45053109e-02 2.77534574e-01 3.84208202e-01 4.12937939e-01 4.37814683e-01 4.62996989e-01 4.85954642e-01 5.05273163e-01 5.20603240e-01 5.32044590e-01 5.39743006e-01 5.43550014e-01 5.42471707e-01 5.33814728e-01 5.12376428e-01 4.72089738e-01 4.18826610e-01 3.82741123e-01 3.98432553e-01 5.32738626e-01 7.03129530e-01 8.00322473e-01 8.12758327e-01 8.05204630e-01 7.23011672e-01 4.06280369e-01 2.36917380e-02 1.26033723e-02 1.26540875e-02 2.37215199e-02 1.31285423e-02 1.25916675e-02 3.33865345e-01 4.12067056e-01 4.31781203e-01 4.51737612e-01 4.72039938e-01 4.90947723e-01 5.07616103e-01 5.21743178e-01 5.33144593e-01 5.41572988e-01 5.46596587e-01 5.47402322e-01 5.42618752e-01 5.30816436e-01 5.14573216e-01 5.14838636e-01 5.77720106e-01 7.13482738e-01 8.43415022e-01 9.06018913e-01 8.63067865e-01 7.66225159e-01 3.99390042e-01 1.99461151e-02 1.34536065e-02 1.31528648e-02 1.53057612e-02 1.60431173e-02 1.16604693e-01 1.15911216e-02 1.11229010e-02 3.74987960e-01 4.35859203e-01 4.47414786e-01 4.61108118e-01 4.75793988e-01 4.90362406e-01 5.04244089e-01 5.16994774e-01 5.28095603e-01 5.36968470e-01 5.43184221e-01 5.46977222e-01 5.50294638e-01 5.58635533e-01 5.83872199e-01 6.45755351e-01 7.50467956e-01 8.39074075e-01 8.29303265e-01 1.17580950e-01 3.04395556e-02 2.44279578e-02 2.10579187e-02 1.84697527e-02 1.49972355e-02 1.28561771e-02 1.68465506e-02 3.43017615e-02 4.91547912e-01 1.04015246e-02 9.97403264e-03 4.08700109e-01 4.56082582e-01 4.58369672e-01 4.64379519e-01 4.73014474e-01 4.83318985e-01 4.94568527e-01 5.06046593e-01 5.17008364e-01 5.26766181e-01 5.35055101e-01 5.42979777e-01 5.54674506e-01 5.78783035e-01 6.26504779e-01 7.01272607e-01 7.83368230e-01 8.35332692e-01 8.42525959e-01 5.49412489e-01 5.13203554e-02 2.87193544e-02 2.34465636e-02 2.03750804e-02 2.41917912e-02 6.62011504e-01 7.41715431e-01 7.95394957e-01 7.02300131e-01 9.48442612e-03 9.05315485e-03 4.39683408e-01 4.71061289e-01 4.62231874e-01 4.60261047e-01 4.63443369e-01 4.70132470e-01 4.79094893e-01 4.89410877e-01 5.00409842e-01 5.11617720e-01 5.22932351e-01 5.35359383e-01 5.52410841e-01 5.81008434e-01 6.28302276e-01 6.91875041e-01 7.54109085e-01 7.96285570e-01 8.10691237e-01 8.00381184e-01 8.47436011e-01 8.87833416e-01 8.99842083e-01 9.06161666e-01 9.14803743e-01 8.96050334e-01 8.57418537e-01 8.56303036e-01 7.88499236e-01 8.73176381e-03 8.29646457e-03 4.70495850e-01 4.77361321e-01 4.56676543e-01 4.48617727e-01 4.48274016e-01 4.52430934e-01 4.59353507e-01 4.68262225e-01 4.78993922e-01 4.91678178e-01 5.06510735e-01 5.23842752e-01 5.44802189e-01 5.72094381e-01 6.08995974e-01 6.54563487e-01 7.00588167e-01 7.38434196e-01 7.65813887e-01 7.88668871e-01 8.14184904e-01 8.30414772e-01 8.38280678e-01 8.40698600e-01 8.32650721e-01 8.22955489e-01 7.95988977e-01 7.95377672e-01 7.53214240e-01 8.01364053e-03 7.71380262e-03 5.00409842e-01 4.70524073e-01 4.41760957e-01 4.32102948e-01 4.30704057e-01 4.33063895e-01 4.37607706e-01 4.44205642e-01 4.53546643e-01 4.66660231e-01 4.84421551e-01 5.07038593e-01 5.33725619e-01 5.63002169e-01 5.93669355e-01 6.25131726e-01 6.56243205e-01 6.84756875e-01 7.06060171e-01 7.13201046e-01 7.04461753e-01 6.80884898e-01 6.61447108e-01 6.48800194e-01 6.38576686e-01 6.33954883e-01 6.41713798e-01 6.50936604e-01 6.72833920e-01 6.32765796e-03 6.72762329e-03 5.44333518e-01 4.54139322e-01 4.24402505e-01 4.16145831e-01 4.13451046e-01 4.12655890e-01 4.13317710e-01 4.16270494e-01 4.23080117e-01 4.35696900e-01 4.56008852e-01 4.85093385e-01 5.22112608e-01 5.63343227e-01 6.02538943e-01 6.33197725e-01 6.51019275e-01 6.54861867e-01 6.45867884e-01 6.27809048e-01 6.07949197e-01 5.87671280e-01 5.68356872e-01 5.51441491e-01 5.36849618e-01 5.28368890e-01 5.25324345e-01 5.26074767e-01 6.04756951e-01 1.36066545e-02 8.45769979e-03 7.33117938e-01 5.54309547e-01 5.36844730e-01 5.30262828e-01 5.26980400e-01 5.24772227e-01 5.23316503e-01 5.23227096e-01 5.25589645e-01 5.31697869e-01 5.42770267e-01 5.59522867e-01 5.81608713e-01 6.07101679e-01 6.32323265e-01 6.52268410e-01 6.61668718e-01 6.56764328e-01 6.38421178e-01 6.14958286e-01 5.99681675e-01 5.94431996e-01 5.93437731e-01 5.88464439e-01 5.79856217e-01 5.71258783e-01 5.65007925e-01 5.60938001e-01 5.94129741e-01 
