# vtk DataFile Version 2.0
results_case1_non_linear/2_density.vtk, Created by Freefem++ 
ASCII
DATASET UNSTRUCTURED_GRID
POINTS 961 float
0 0 0
0.033333333 0 0
0.066666667 0 0
0.1 0 0
0.13333333 0 0
0.16666667 0 0
0.2 0 0
0.23333333 0 0
0.26666667 0 0
0.3 0 0
0.33333333 0 0
0.36666667 0 0
0.4 0 0
0.43333333 0 0
0.46666667 0 0
0.5 0 0
0.53333333 0 0
0.56666667 0 0
0.6 0 0
0.63333333 0 0
0.66666667 0 0
0.7 0 0
0.73333333 0 0
0.76666667 0 0
0.8 0 0
0.83333333 0 0
0.86666667 0 0
0.9 0 0
0.93333333 0 0
0.96666667 0 0
1 0 0
0 0.033333333 0
0.033333333 0.033333333 0
0.066666667 0.033333333 0
0.1 0.033333333 0
0.13333333 0.033333333 0
0.16666667 0.033333333 0
0.2 0.033333333 0
0.23333333 0.033333333 0
0.26666667 0.033333333 0
0.3 0.033333333 0
0.33333333 0.033333333 0
0.36666667 0.033333333 0
0.4 0.033333333 0
0.43333333 0.033333333 0
0.46666667 0.033333333 0
0.5 0.033333333 0
0.53333333 0.033333333 0
0.56666667 0.033333333 0
0.6 0.033333333 0
0.63333333 0.033333333 0
0.66666667 0.033333333 0
0.7 0.033333333 0
0.73333333 0.033333333 0
0.76666667 0.033333333 0
0.8 0.033333333 0
0.83333333 0.033333333 0
0.86666667 0.033333333 0
0.9 0.033333333 0
0.93333333 0.033333333 0
0.96666667 0.033333333 0
1 0.033333333 0
0 0.066666667 0
0.033333333 0.066666667 0
0.066666667 0.066666667 0
0.1 0.066666667 0
0.13333333 0.066666667 0
0.16666667 0.066666667 0
0.2 0.066666667 0
0.23333333 0.066666667 0
0.26666667 0.066666667 0
0.3 0.066666667 0
0.33333333 0.066666667 0
0.36666667 0.066666667 0
0.4 0.066666667 0
0.43333333 0.066666667 0
0.46666667 0.066666667 0
0.5 0.066666667 0
0.53333333 0.066666667 0
0.56666667 0.066666667 0
0.6 0.066666667 0
0.63333333 0.066666667 0
0.66666667 0.066666667 0
0.7 0.066666667 0
0.73333333 0.066666667 0
0.76666667 0.066666667 0
0.8 0.066666667 0
0.83333333 0.066666667 0
0.86666667 0.066666667 0
0.9 0.066666667 0
0.93333333 0.066666667 0
0.96666667 0.066666667 0
1 0.066666667 0
0 0.1 0
0.033333333 0.1 0
0.066666667 0.1 0
0.1 0.1 0
0.13333333 0.1 0
0.16666667 0.1 0
0.2 0.1 0
0.23333333 0.1 0
0.26666667 0.1 0
0.3 0.1 0
0.33333333 0.1 0
0.36666667 0.1 0
0.4 0.1 0
0.43333333 0.1 0
0.46666667 0.1 0
0.5 0.1 0
0.53333333 0.1 0
0.56666667 0.1 0
0.6 0.1 0
0.63333333 0.1 0
0.66666667 0.1 0
0.7 0.1 0
0.73333333 0.1 0
0.76666667 0.1 0
0.8 0.1 0
0.83333333 0.1 0
0.86666667 0.1 0
0.9 0.1 0
0.93333333 0.1 0
0.96666667 0.1 0
1 0.1 0
0 0.13333333 0
0.033333333 0.13333333 0
0.066666667 0.13333333 0
0.1 0.13333333 0
0.13333333 0.13333333 0
0.16666667 0.13333333 0
0.2 0.13333333 0
0.23333333 0.13333333 0
0.26666667 0.13333333 0
0.3 0.13333333 0
0.33333333 0.13333333 0
0.36666667 0.13333333 0
0.4 0.13333333 0
0.43333333 0.13333333 0
0.46666667 0.13333333 0
0.5 0.13333333 0
0.53333333 0.13333333 0
0.56666667 0.13333333 0
0.6 0.13333333 0
0.63333333 0.13333333 0
0.66666667 0.13333333 0
0.7 0.13333333 0
0.73333333 0.13333333 0
0.76666667 0.13333333 0
0.8 0.13333333 0
0.83333333 0.13333333 0
0.86666667 0.13333333 0
0.9 0.13333333 0
0.93333333 0.13333333 0
0.96666667 0.13333333 0
1 0.13333333 0
0 0.16666667 0
0.033333333 0.16666667 0
0.066666667 0.16666667 0
0.1 0.16666667 0
0.13333333 0.16666667 0
0.16666667 0.16666667 0
0.2 0.16666667 0
0.23333333 0.16666667 0
0.26666667 0.16666667 0
0.3 0.16666667 0
0.33333333 0.16666667 0
0.36666667 0.16666667 0
0.4 0.16666667 0
0.43333333 0.16666667 0
0.46666667 0.16666667 0
0.5 0.16666667 0
0.53333333 0.16666667 0
0.56666667 0.16666667 0
0.6 0.16666667 0
0.63333333 0.16666667 0
0.66666667 0.16666667 0
0.7 0.16666667 0
0.73333333 0.16666667 0
0.76666667 0.16666667 0
0.8 0.16666667 0
0.83333333 0.16666667 0
0.86666667 0.16666667 0
0.9 0.16666667 0
0.93333333 0.16666667 0
0.96666667 0.16666667 0
1 0.16666667 0
0 0.2 0
0.033333333 0.2 0
0.066666667 0.2 0
0.1 0.2 0
0.13333333 0.2 0
0.16666667 0.2 0
0.2 0.2 0
0.23333333 0.2 0
0.26666667 0.2 0
0.3 0.2 0
0.33333333 0.2 0
0.36666667 0.2 0
0.4 0.2 0
0.43333333 0.2 0
0.46666667 0.2 0
0.5 0.2 0
0.53333333 0.2 0
0.56666667 0.2 0
0.6 0.2 0
0.63333333 0.2 0
0.66666667 0.2 0
0.7 0.2 0
0.73333333 0.2 0
0.76666667 0.2 0
0.8 0.2 0
0.83333333 0.2 0
0.86666667 0.2 0
0.9 0.2 0
0.93333333 0.2 0
0.96666667 0.2 0
1 0.2 0
0 0.23333333 0
0.033333333 0.23333333 0
0.066666667 0.23333333 0
0.1 0.23333333 0
0.13333333 0.23333333 0
0.16666667 0.23333333 0
0.2 0.23333333 0
0.23333333 0.23333333 0
0.26666667 0.23333333 0
0.3 0.23333333 0
0.33333333 0.23333333 0
0.36666667 0.23333333 0
0.4 0.23333333 0
0.43333333 0.23333333 0
0.46666667 0.23333333 0
0.5 0.23333333 0
0.53333333 0.23333333 0
0.56666667 0.23333333 0
0.6 0.23333333 0
0.63333333 0.23333333 0
0.66666667 0.23333333 0
0.7 0.23333333 0
0.73333333 0.23333333 0
0.76666667 0.23333333 0
0.8 0.23333333 0
0.83333333 0.23333333 0
0.86666667 0.23333333 0
0.9 0.23333333 0
0.93333333 0.23333333 0
0.96666667 0.23333333 0
1 0.23333333 0
0 0.26666667 0
0.033333333 0.26666667 0
0.066666667 0.26666667 0
0.1 0.26666667 0
0.13333333 0.26666667 0
0.16666667 0.26666667 0
0.2 0.26666667 0
0.23333333 0.26666667 0
0.26666667 0.26666667 0
0.3 0.26666667 0
0.33333333 0.26666667 0
0.36666667 0.26666667 0
0.4 0.26666667 0
0.43333333 0.26666667 0
0.46666667 0.26666667 0
0.5 0.26666667 0
0.53333333 0.26666667 0
0.56666667 0.26666667 0
0.6 0.26666667 0
0.63333333 0.26666667 0
0.66666667 0.26666667 0
0.7 0.26666667 0
0.73333333 0.26666667 0
0.76666667 0.26666667 0
0.8 0.26666667 0
0.83333333 0.26666667 0
0.86666667 0.26666667 0
0.9 0.26666667 0
0.93333333 0.26666667 0
0.96666667 0.26666667 0
1 0.26666667 0
0 0.3 0
0.033333333 0.3 0
0.066666667 0.3 0
0.1 0.3 0
0.13333333 0.3 0
0.16666667 0.3 0
0.2 0.3 0
0.23333333 0.3 0
0.26666667 0.3 0
0.3 0.3 0
0.33333333 0.3 0
0.36666667 0.3 0
0.4 0.3 0
0.43333333 0.3 0
0.46666667 0.3 0
0.5 0.3 0
0.53333333 0.3 0
0.56666667 0.3 0
0.6 0.3 0
0.63333333 0.3 0
0.66666667 0.3 0
0.7 0.3 0
0.73333333 0.3 0
0.76666667 0.3 0
0.8 0.3 0
0.83333333 0.3 0
0.86666667 0.3 0
0.9 0.3 0
0.93333333 0.3 0
0.96666667 0.3 0
1 0.3 0
0 0.33333333 0
0.033333333 0.33333333 0
0.066666667 0.33333333 0
0.1 0.33333333 0
0.13333333 0.33333333 0
0.16666667 0.33333333 0
0.2 0.33333333 0
0.23333333 0.33333333 0
0.26666667 0.33333333 0
0.3 0.33333333 0
0.33333333 0.33333333 0
0.36666667 0.33333333 0
0.4 0.33333333 0
0.43333333 0.33333333 0
0.46666667 0.33333333 0
0.5 0.33333333 0
0.53333333 0.33333333 0
0.56666667 0.33333333 0
0.6 0.33333333 0
0.63333333 0.33333333 0
0.66666667 0.33333333 0
0.7 0.33333333 0
0.73333333 0.33333333 0
0.76666667 0.33333333 0
0.8 0.33333333 0
0.83333333 0.33333333 0
0.86666667 0.33333333 0
0.9 0.33333333 0
0.93333333 0.33333333 0
0.96666667 0.33333333 0
1 0.33333333 0
0 0.36666667 0
0.033333333 0.36666667 0
0.066666667 0.36666667 0
0.1 0.36666667 0
0.13333333 0.36666667 0
0.16666667 0.36666667 0
0.2 0.36666667 0
0.23333333 0.36666667 0
0.26666667 0.36666667 0
0.3 0.36666667 0
0.33333333 0.36666667 0
0.36666667 0.36666667 0
0.4 0.36666667 0
0.43333333 0.36666667 0
0.46666667 0.36666667 0
0.5 0.36666667 0
0.53333333 0.36666667 0
0.56666667 0.36666667 0
0.6 0.36666667 0
0.63333333 0.36666667 0
0.66666667 0.36666667 0
0.7 0.36666667 0
0.73333333 0.36666667 0
0.76666667 0.36666667 0
0.8 0.36666667 0
0.83333333 0.36666667 0
0.86666667 0.36666667 0
0.9 0.36666667 0
0.93333333 0.36666667 0
0.96666667 0.36666667 0
1 0.36666667 0
0 0.4 0
0.033333333 0.4 0
0.066666667 0.4 0
0.1 0.4 0
0.13333333 0.4 0
0.16666667 0.4 0
0.2 0.4 0
0.23333333 0.4 0
0.26666667 0.4 0
0.3 0.4 0
0.33333333 0.4 0
0.36666667 0.4 0
0.4 0.4 0
0.43333333 0.4 0
0.46666667 0.4 0
0.5 0.4 0
0.53333333 0.4 0
0.56666667 0.4 0
0.6 0.4 0
0.63333333 0.4 0
0.66666667 0.4 0
0.7 0.4 0
0.73333333 0.4 0
0.76666667 0.4 0
0.8 0.4 0
0.83333333 0.4 0
0.86666667 0.4 0
0.9 0.4 0
0.93333333 0.4 0
0.96666667 0.4 0
1 0.4 0
0 0.43333333 0
0.033333333 0.43333333 0
0.066666667 0.43333333 0
0.1 0.43333333 0
0.13333333 0.43333333 0
0.16666667 0.43333333 0
0.2 0.43333333 0
0.23333333 0.43333333 0
0.26666667 0.43333333 0
0.3 0.43333333 0
0.33333333 0.43333333 0
0.36666667 0.43333333 0
0.4 0.43333333 0
0.43333333 0.43333333 0
0.46666667 0.43333333 0
0.5 0.43333333 0
0.53333333 0.43333333 0
0.56666667 0.43333333 0
0.6 0.43333333 0
0.63333333 0.43333333 0
0.66666667 0.43333333 0
0.7 0.43333333 0
0.73333333 0.43333333 0
0.76666667 0.43333333 0
0.8 0.43333333 0
0.83333333 0.43333333 0
0.86666667 0.43333333 0
0.9 0.43333333 0
0.93333333 0.43333333 0
0.96666667 0.43333333 0
1 0.43333333 0
0 0.46666667 0
0.033333333 0.46666667 0
0.066666667 0.46666667 0
0.1 0.46666667 0
0.13333333 0.46666667 0
0.16666667 0.46666667 0
0.2 0.46666667 0
0.23333333 0.46666667 0
0.26666667 0.46666667 0
0.3 0.46666667 0
0.33333333 0.46666667 0
0.36666667 0.46666667 0
0.4 0.46666667 0
0.43333333 0.46666667 0
0.46666667 0.46666667 0
0.5 0.46666667 0
0.53333333 0.46666667 0
0.56666667 0.46666667 0
0.6 0.46666667 0
0.63333333 0.46666667 0
0.66666667 0.46666667 0
0.7 0.46666667 0
0.73333333 0.46666667 0
0.76666667 0.46666667 0
0.8 0.46666667 0
0.83333333 0.46666667 0
0.86666667 0.46666667 0
0.9 0.46666667 0
0.93333333 0.46666667 0
0.96666667 0.46666667 0
1 0.46666667 0
0 0.5 0
0.033333333 0.5 0
0.066666667 0.5 0
0.1 0.5 0
0.13333333 0.5 0
0.16666667 0.5 0
0.2 0.5 0
0.23333333 0.5 0
0.26666667 0.5 0
0.3 0.5 0
0.33333333 0.5 0
0.36666667 0.5 0
0.4 0.5 0
0.43333333 0.5 0
0.46666667 0.5 0
0.5 0.5 0
0.53333333 0.5 0
0.56666667 0.5 0
0.6 0.5 0
0.63333333 0.5 0
0.66666667 0.5 0
0.7 0.5 0
0.73333333 0.5 0
0.76666667 0.5 0
0.8 0.5 0
0.83333333 0.5 0
0.86666667 0.5 0
0.9 0.5 0
0.93333333 0.5 0
0.96666667 0.5 0
1 0.5 0
0 0.53333333 0
0.033333333 0.53333333 0
0.066666667 0.53333333 0
0.1 0.53333333 0
0.13333333 0.53333333 0
0.16666667 0.53333333 0
0.2 0.53333333 0
0.23333333 0.53333333 0
0.26666667 0.53333333 0
0.3 0.53333333 0
0.33333333 0.53333333 0
0.36666667 0.53333333 0
0.4 0.53333333 0
0.43333333 0.53333333 0
0.46666667 0.53333333 0
0.5 0.53333333 0
0.53333333 0.53333333 0
0.56666667 0.53333333 0
0.6 0.53333333 0
0.63333333 0.53333333 0
0.66666667 0.53333333 0
0.7 0.53333333 0
0.73333333 0.53333333 0
0.76666667 0.53333333 0
[...]
CELL_DATA 1920
Scalars  Label int 1
LOOKUP_TABLE FreeFempp_table
0
0
0
0
0
0
0
0
0
0
0
0
0
0
0
0
0
0
0
0
0
0
0
0
0
0
0
0
0
0
0
0
0
0
0
0
0
0
0
0
0
0
0
0
0
0
0
0
0
0
0
0
0
0
0
0
0
0
0
0
0
0
0
0
0
0
0
0
0
0
0
0
0
0
0
0
0
0
0
0
0
0
0
0
0
0
0
0
0
0
0
0
0
0
0
0
0
0
0
0
0
0
0
0
0
0
0
0
0
0
0
0
0
0
0
0
0
0
0
0
0
0
0
0
0
0
0
0
0
0
0
0
0
0
0
0
0
0
0
0
0
0
0
0
0
0
0
0
0
0
0
0
0
0
0
0
0
0
0
0
0
0
0
0
0
0
0
0
0
0
0
0
0
0
0
0
0
0
0
0
0
0
0
0
0
0
0
0
0
0
0
0
0
0
0
0
0
0
0
0
0
0
0
0
0
0
0
0
0
0
0
0
0
0
0
0
0
0
0
0
0
0
0
0
0
0
0
0
0
0
0
0
0
0
0
0
0
0
0
0
0
0
0
0
0
0
0
0
0
0
0
0
0
0
0
0
0
0
0
0
0
0
0
0
0
0
0
0
0
0
0
0
0
0
0
0
0
0
0
0
0
0
0
0
0
0
0
0
0
0
0
0
0
0
0
0
0
0
0
0
0
0
0
0
0
0
0
0
0
0
0
0
0
0
0
0
0
0
0
0
0
0
0
0
0
0
0
0
0
0
0
0
0
0
0
0
0
0
0
0
0
0
0
0
0
0
0
0
0
0
0
0
0
0
0
0
0
0
0
0
0
0
0
0
0
0
0
0
0
0
0
0
0
0
0
0
0
0
0
0
0
0
0
0
0
0
0
0
0
0
0
0
0
0
0
0
0
0
0
0
0
0
0
0
0
0
0
0
0
0
0
0
0
0
0
0
0
0
0
0
0
0
0
0
0
0
0
0
0
0
0
0
0
0
0
0
0
0
0
0
0
0
0
0
0
0
0
0
0
0
0
0
0
0
0
0
0
0
0
0
0
0
0
0
0
0
0
0
0
0
0
0
0
0
0
0
0
0
0
0
0
0
0
0
0
0
0
0
0
0
0
0
0
0
0
0
0
0
0
0
0
0
0
0
0
0
0
0
0
0
0
0
0
0
0
0
0
0
0
0
0
0
0
0
0
0
0
0
0
0
0
0
0
0
0
0
0
0
0
0
0
0
0
0
0
0
0
0
0
0
0
0
0
0
0
0
0
0
0
0
0
0
0
0
0
0
0
0
0
0
0
0
0
0
0
0
0
0
0
0
0
0
0
0
0
0
0
0
0
0
0
0
0
0
0
0
0
0
0
0
0
0
0
0
0
0
0
0
0
0
0
0
0
0
0
0
0
0
0
0
0
0
0
0
0
0
0
0
0
0
0
0
0
0
0
0
0
0
0
0
0
0
0
0
0
0
0
0
0
0
0
0
0
0
0
0
0
0
0
0
0
0
0
0
0
0
0
0
0
0
0
0
0
0
0
0
0
0
0
0
0
0
0
0
0
0
0
0
0
0
0
0
0
0
0
0
0
0
0
0
0
0
0
0
0
0
0
0
0
0
0
0
0
0
0
0
0
0
0
0
0
0
0
0
0
0
0
0
0
0
0
0
0
0
0
0
0
0
0
0
0
0
0
0
0
0
0
0
0
0
0
0
0
0
0
0
0
0
0
0
0
0
0
0
0
0
0
0
0
0
0
0
0
0
0
0
0
0
0
0
0
0
0
0
0
0
0
0
0
0
0
0
0
0
0
0
0
0
0
0
0
0
0
0
0
0
0
0
0
0
0
0
0
0
0
0
0
0
0
0
0
0
0
0
0
0
0
0
0
0
0
0
0
0
0
0
0
0
0
0
0
0
0
0
0
0
0
0
0
0
0
0
0
0
0
0
0
0
0
0
0
0
0
0
0
0
0
0
0
0
0
0
0
0
0
0
0
0
0
0
0
0
0
0
0
0
0
0
0
0
0
0
0
0
0
0
0
0
0
0
0
0
0
0
0
0
0
0
0
0
0
0
0
0
0
0
0
0
0
0
0
0
0
0
0
0
0
0
0
0
0
0
0
0
0
0
0
0
0
0
0
0
0
0
0
0
0
0
0
0
0
0
0
0
0
0
0
0
0
0
0
0
0
0
0
0
0
0
0
0
0
0
0
0
0
0
0
0
0
0
0
0
0
0
0
0
0
0
0
0
0
0
0
0
0
0
0
0
0
0
0
0
0
0
0
0
0
0
0
0
0
0
0
0
0
0
0
0
0
0
0
0
0
0
0
0
0
0
0
0
0
0
0
0
0
0
0
0
0
0
0
0
0
0
0
0
0
0
0
0
0
0
0
0
0
0
0
0
0
0
0
0
0
0
0
0
0
0
0
0
0
0
0
0
0
0
0
0
0
0
0
0
0
0
0
0
0
0
0
0
0
0
0
0
0
0
0
0
0
0
0
0
0
0
0
0
0
0
0
0
0
0
0
0
0
0
0
0
0
0
0
0
0
0
0
0
0
0
0
0
0
0
0
0
0
0
0
0
0
0
0
0
0
0
0
0
0
0
0
0
0
0
0
0
0
0
0
0
0
0
0
0
0
0
0
0
0
0
0
0
0
0
0
0
0
0
0
0
0
0
0
0
0
0
0
0
0
0
0
0
0
0
0
0
0
0
0
0
0
0
0
0
0
0
0
0
0
0
0
0
0
0
0
0
0
0
0
0
0
0
0
0
0
0
0
0
0
0
0
0
0
0
0
0
0
0
0
0
0
0
0
0
0
0
0
0
0
0
0
0
0
0
0
0
0
0
0
0
0
0
0
0
0
0
0
0
0
0
0
0
0
0
0
0
0
0
0
0
0
0
0
0
0
0
0
0
0
0
0
0
0
0
0
0
0
0
0
0
0
0
0
0
0
0
0
0
0
0
0
0
0
0
0
0
0
0
0
0
0
0
0
0
0
0
0
0
0
0
0
0
0
0
0
0
0
0
0
0
0
0
0
0
0
0
0
0
0
0
0
0
0
0
0
0
0
0
0
0
0
0
0
0
0
0
0
0
0
0
0
0
0
0
0
0
0
0
0
0
0
0
0
0
0
0
0
0
0
0
0
0
0
0
0
0
0
0
0
0
0
0
0
0
0
0
0
0
0
0
0
0
0
0
0
0
0
0
0
0
0
0
0
0
0
0
0
0
0
0
0
0
0
0
0
0
0
0
0
0
0
0
0
0
0
0
0
0
0
0
0
0
0
0
0
0
0
0
0
0
0
0
0
0
0
0
0
0
0
0
0
0
0
0
0
0
0
0
0
0
0
0
0
0
0
0
0
0
0
0
0
0
0
0
0
0
0
0
0
0
0
0
0
0
0
0
0
0
0
0
0
0
0
0
0
0
0
0
0
0
0
0
0
0
0
0
0
0
0
0
0
0
0
0
0
0
0
0
0
0
0
0
0
0
0
0
0
0
0
0
0
0
0
0
0
0
0
0
0
0
0
0
0
0
0
0
0
0
0
0
0
0
0
0
0
0
0
0
0
0
0
0
0
0
0
0
0
0
0
0
0
0
0
0
0
0
0
0
0
0
0
0
0
0
0
0
0
0
0
0
0
0
0
0
0
0
0
0
0
0
0
0
0
0
0
0
0
0
0
0
0
0
0
0
0
0
0
0
0
0
0
0
0
0
0
0
0
0
0
0
0
0
0
0
0
0
0
0
0
0
0
0
0
0
0
0
0
0
0
0
0
0
0
0
0
0
0
0
0
0
0
0
0
0
0
0
0
0
0
0
0
0
0
0
0
0
0
0
0
0
0
0
0
0
0
0
0
0
0
0
0
0
0
0
0
0
0
0
0
0
0
0
0
0
0
0
0
0
0
0
0
0
0
0
0
0
0
0
0
0
0
0
0
0
0
0
0
0
0
0
0
0
0
0
0
0
0
0
0
0
0
0
0
0
0
0
0
0
0
0
0
0
0
0
0
0
0
0
0
0
0
0
0
0
0
0
0
0
0
0
0
0
0
0
0
0
0
0
0
0
0
0
1
1
1
1
1
1
1
1
1
1
1
1
1
1
1
1
1
1
1
1
1
1
1
1
1
1
1
1
1
1
2
2
2
2
2
2
2
2
2
2
2
2
2
2
2
2
2
2
2
2
2
2
2
2
2
2
2
2
2
2
3
3
3
3
3
3
3
3
3
3
3
3
3
3
3
3
3
3
3
3
3
3
3
3
3
3
3
3
3
3
4
4
4
4
4
4
4
4
4
4
4
4
4
4
4
4
4
4
4
4
4
4
4
4
4
4
4
4
4
4

LOOKUP_TABLE FreeFempp_table 5
1.00000000 0.00000000 0.00000000 1.00000000
1.00000000 1.00000000 0.00000000 1.00000000
1.00000000 0.00000000 1.00000000 1.00000000
0.00000000 1.00000000 0.00000000 1.00000000
0.00000000 1.00000000 1.00000000 1.00000000

POINT_DATA 961
FIELD FieldData 1
Density 1 961 float
1.84614941e-01 1.82719603e-01 1.78122938e-01 1.73981413e-01 1.72990575e-01 1.77801028e-01 1.92252651e-01 2.15924993e-01 2.38453254e-01 2.57483453e-01 2.75021225e-01 2.91236579e-01 3.04603934e-01 3.15326542e-01 3.24603051e-01 3.33752722e-01 3.40546191e-01 3.36485118e-01 3.18175524e-01 2.99399048e-01 2.91750491e-01 2.89549828e-01 2.87269741e-01 2.86788374e-01 2.91599870e-01 3.01841229e-01 3.15245152e-01 3.29930931e-01 3.43106180e-01 3.51435840e-01 3.52671862e-01 1.89457595e-01 1.88539296e-01 1.85269997e-01 1.82052344e-01 1.80814654e-01 1.83778048e-01 1.94292217e-01 2.14316308e-01 2.34497666e-01 2.51893908e-01 2.69268215e-01 2.86522627e-01 3.00457209e-01 3.11432630e-01 3.20349008e-01 3.28796387e-01 3.35183144e-01 3.30256164e-01 3.08455616e-01 2.84452081e-01 2.72420257e-01 2.69229144e-01 2.68026918e-01 2.68371224e-01 2.74017662e-01 2.86541283e-01 3.03110123e-01 3.19888741e-01 3.34709167e-01 3.44554961e-01 3.47498655e-01 2.22388044e-01 2.20379040e-01 2.17463672e-01 2.14245319e-01 2.11117998e-01 2.09178343e-01 2.11764008e-01 2.20911577e-01 2.32238874e-01 2.43037954e-01 2.56228268e-01 2.74241656e-01 2.89409459e-01 3.01816344e-01 3.10453713e-01 3.17692488e-01 3.23159963e-01 3.18683952e-01 2.92827606e-01 2.64834046e-01 2.44993106e-01 2.33665496e-01 2.27700382e-01 2.26079941e-01 2.30660766e-01 2.44210079e-01 2.67055541e-01 2.90604055e-01 3.09995294e-01 3.23105097e-01 3.27791572e-01 2.87613392e-01 2.84738988e-01 2.81311214e-01 2.77282804e-01 2.71779478e-01 2.63647527e-01 2.57115215e-01 2.57241696e-01 2.59728462e-01 2.60407209e-01 2.60811210e-01 2.65973061e-01 2.74597377e-01 2.87244320e-01 2.95792609e-01 3.02445263e-01 3.07402760e-01 3.08972925e-01 2.94781417e-01 2.64356971e-01 2.37500057e-01 2.18447730e-01 2.06200093e-01 1.99767411e-01 1.99345574e-01 2.06359655e-01 2.23343804e-01 2.50267476e-01 2.75386900e-01 2.92565078e-01 2.98914969e-01 3.58032495e-01 3.56089771e-01 3.52872640e-01 3.48983645e-01 3.43913674e-01 3.37144703e-01 3.30568492e-01 3.26884419e-01 3.23705077e-01 3.15920860e-01 3.00637066e-01 2.89309710e-01 2.81397700e-01 2.79621333e-01 2.81301677e-01 2.87026793e-01 2.90905297e-01 2.95565277e-01 2.99206793e-01 2.85885513e-01 2.53269017e-01 2.25321308e-01 2.07194179e-01 1.95641980e-01 1.89343497e-01 1.88314170e-01 1.94626734e-01 2.11657241e-01 2.38193527e-01 2.59463429e-01 2.67323911e-01 4.20144528e-01 4.19592470e-01 4.17735994e-01 4.15204078e-01 4.11996424e-01 4.08073783e-01 4.04059082e-01 4.00494009e-01 3.95793825e-01 3.86985630e-01 3.71449769e-01 3.51170778e-01 3.25548083e-01 3.05849105e-01 2.90802866e-01 2.83503860e-01 2.81830817e-01 2.82924533e-01 2.90288985e-01 2.97513485e-01 2.83000648e-01 2.50767350e-01 2.27245748e-01 2.11429298e-01 1.99512005e-01 1.89700454e-01 1.84238359e-01 1.88376769e-01 2.05409169e-01 2.28333950e-01 2.37453640e-01 4.61597860e-01 4.62819248e-01 4.63166326e-01 4.63052392e-01 4.62846488e-01 4.62534696e-01 4.62033927e-01 4.60980594e-01 4.58155602e-01 4.51801717e-01 4.40485984e-01 4.23766822e-01 4.00023609e-01 3.71440709e-01 3.37756187e-01 3.11955720e-01 2.92892098e-01 2.81904459e-01 2.79399663e-01 2.86396146e-01 2.89471656e-01 2.77041703e-01 2.57978439e-01 2.41019025e-01 2.25632846e-01 2.07926333e-01 1.89545095e-01 1.79863796e-01 1.85386747e-01 2.03091457e-01 2.11798981e-01 4.73292083e-01 4.75946933e-01 4.78511691e-01 4.81353223e-01 4.85057473e-01 4.89491880e-01 4.94071931e-01 4.97838259e-01 4.99514431e-01 4.97822970e-01 4.91857529e-01 4.81119066e-01 4.64907765e-01 4.42794174e-01 4.13029045e-01 3.78509313e-01 3.40088964e-01 3.11189294e-01 2.91056752e-01 2.81013936e-01 2.75325447e-01 2.71350145e-01 2.71868259e-01 2.63681650e-01 2.49323204e-01 2.28509560e-01 2.03545719e-01 1.81230336e-01 1.74626216e-01 1.82935596e-01 1.89533576e-01 4.54037726e-01 4.56923902e-01 4.60871547e-01 4.66577888e-01 4.74826008e-01 4.85261708e-01 4.96608526e-01 5.07061064e-01 5.14909923e-01 5.18989205e-01 5.18754840e-01 5.14059365e-01 5.04797757e-01 4.90764678e-01 4.71245766e-01 4.45907384e-01 4.13307279e-01 3.76382619e-01 3.38146925e-01 3.10450584e-01 2.88580447e-01 2.73118168e-01 2.64413267e-01 2.57300258e-01 2.49878600e-01 2.32126430e-01 2.18083709e-01 1.90770537e-01 1.71323642e-01 1.66936547e-01 1.69602498e-01 4.11597997e-01 4.13056165e-01 4.16956067e-01 4.24921006e-01 4.37879115e-01 4.55138236e-01 4.74454224e-01 4.92745340e-01 5.07500827e-01 5.17501950e-01 5.22517860e-01 5.22798836e-01 5.18719792e-01 5.10619879e-01 4.98644590e-01 4.82784629e-01 4.62599128e-01 4.37749237e-01 4.07479942e-01 3.75027359e-01 3.39154869e-01 3.09480727e-01 2.85718352e-01 2.65171498e-01 2.49768734e-01 2.34400243e-01 2.24498406e-01 2.09213421e-01 1.77768126e-01 1.62019849e-01 1.58869013e-01 3.59160036e-01 3.58485758e-01 3.61628175e-01 3.71717811e-01 3.89309525e-01 4.13107067e-01 4.39921677e-01 4.65487421e-01 4.86466110e-01 5.01493156e-01 5.10575056e-01 5.14263570e-01 5.13247252e-01 5.08246899e-01 4.99986768e-01 4.89161551e-01 4.76355404e-01 4.61874425e-01 4.45190281e-01 4.25728142e-01 4.01610553e-01 3.74573231e-01 3.43900949e-01 3.08600724e-01 2.81302094e-01 2.58312643e-01 2.44538262e-01 2.32752189e-01 1.91842109e-01 1.67271197e-01 1.60723701e-01 3.08633178e-01 3.06233168e-01 3.09435904e-01 3.22362810e-01 3.44755948e-01 3.74261111e-01 4.06748056e-01 4.37384903e-01 4.62585360e-01 4.80950087e-01 4.92599189e-01 4.98215497e-01 4.98604029e-01 4.94626790e-01 4.87250298e-01 4.77562279e-01 4.66751963e-01 4.56005275e-01 4.46098685e-01 4.37122911e-01 4.27926809e-01 4.16425049e-01 3.98931742e-01 3.72995228e-01 3.43279898e-01 3.09145212e-01 2.80754954e-01 2.58656383e-01 2.09106609e-01 1.79180086e-01 1.71276838e-01 2.67062575e-01 2.63637096e-01 2.68035144e-01 2.84641653e-01 3.12132627e-01 3.46697360e-01 3.83072048e-01 4.16373044e-01 4.43508387e-01 4.63422894e-01 4.76320863e-01 4.82864112e-01 4.83822256e-01 4.80037272e-01 4.72491682e-01 4.62356567e-01 4.51001585e-01 4.39981669e-01 4.30894852e-01 4.25111681e-01 4.23148960e-01 4.23612654e-01 4.21709508e-01 4.11434114e-01 3.91479731e-01 3.62136990e-01 3.24565679e-01 2.85668850e-01 2.27075472e-01 1.95041016e-01 1.88332662e-01 2.36738786e-01 2.32949078e-01 2.39248171e-01 2.60167390e-01 2.92966038e-01 3.31924796e-01 3.70663702e-01 4.04760897e-01 4.32123870e-01 4.52280819e-01 4.65547085e-01 4.72503483e-01 4.73818988e-01 4.70252782e-01 4.62716222e-01 4.52331632e-01 4.40484107e-01 4.28908646e-01 4.19655085e-01 4.14694756e-01 4.15301323e-01 4.21278715e-01 4.29412961e-01 4.31895375e-01 4.21997815e-01 3.98670673e-01 3.58323306e-01 3.02962154e-01 2.41728589e-01 2.11504504e-01 2.07723945e-01 2.16653079e-01 2.13069230e-01 2.21746817e-01 2.47604102e-01 2.85694212e-01 3.27934474e-01 3.67537767e-01 4.01175886e-01 4.27833557e-01 4.47549254e-01 4.60735977e-01 4.67920423e-01 4.69702065e-01 4.66788530e-01 4.60057318e-01 4.50633079e-01 4.39991236e-01 4.30099428e-01 4.23316419e-01 4.21505719e-01 4.25063998e-01 4.33307141e-01 4.44252133e-01 4.51440334e-01 4.44765598e-01 4.17939007e-01 3.67420286e-01 2.99542964e-01 2.49639660e-01 2.27596566e-01 2.27472067e-01 2.04300448e-01 2.01413289e-01 2.13043645e-01 2.44446263e-01 2.87276953e-01 3.31234932e-01 3.70459676e-01 4.02967572e-01 4.28553551e-01 4.47568864e-01 4.60508943e-01 4.67923343e-01 4.70442176e-01 4.68836367e-01 4.64098930e-01 4.57554042e-01 4.50978726e-01 4.46612895e-01 4.46536124e-01 4.50904548e-01 4.57136869e-01 4.63426292e-01 4.69088316e-01 4.68982875e-01 4.54175621e-01 4.17850047e-01 3.59864026e-01 2.98850805e-01 2.61012793e-01 2.48916462e-01 2.52339274e-01 1.96835563e-01 1.95071235e-01 2.10185722e-01 2.47604162e-01 2.93898016e-01 3.38283718e-01 3.76462460e-01 4.07613605e-01 4.32025224e-01 4.50246543e-01 4.62886602e-01 4.70611960e-01 4.74205911e-01 4.74652737e-01 4.73242879e-01 4.71678197e-01 4.72068578e-01 4.76518214e-01 4.85636860e-01 4.95825827e-01 4.98300076e-01 4.90075558e-01 4.80282724e-01 4.66450185e-01 4.42519993e-01 4.02706593e-01 3.49988759e-01 3.07706118e-01 2.86095947e-01 2.84213066e-01 2.90281594e-01 1.91402748e-01 1.91341415e-01 2.10158631e-01 2.53303498e-01 3.02116990e-01 3.46376330e-01 3.83383751e-01 4.13159400e-01 4.36343908e-01 4.53690559e-01 4.65980947e-01 4.74074721e-01 4.78996545e-01 4.82038200e-01 4.84852523e-01 4.89452034e-01 4.97885317e-01 5.11159778e-01 5.26966929e-01 5.36939621e-01 5.27327836e-01 4.94058222e-01 4.65110272e-01 4.42725718e-01 4.19959307e-01 3.91963363e-01 3.60533178e-01 3.37501943e-01 3.31951708e-01 3.41925949e-01 3.48482549e-01 1.85465842e-01 1.88255146e-01 2.10995272e-01 2.58935809e-01 3.09905201e-01 3.53987634e-01 3.89882803e-01 4.18258011e-01 4.40120786e-01 4.56475526e-01 4.68316942e-01 4.76723969e-01 4.82972234e-01 4.88632709e-01 4.95595813e-01 5.05869269e-01 5.20882368e-01 5.40019989e-01 5.58646441e-01 5.67382157e-01 5.55251777e-01 5.18821180e-01 4.80981708e-01 4.57918495e-01 4.41783965e-01 4.25342351e-01 4.09272790e-01 3.99784297e-01 4.03170377e-01 4.18622673e-01 4.23825085e-01 1.79113850e-01 1.85550436e-01 2.12415650e-01 2.64165580e-01 3.16829473e-01 3.60612452e-01 3.95289063e-01 4.22127217e-01 4.42518383e-01 4.57730621e-01 4.68963087e-01 4.77479488e-01 4.84735042e-01 4.92447287e-01 5.02519310e-01 5.16644955e-01 5.35411239e-01 5.56955159e-01 5.75981915e-01 5.84774315e-01 5.76789379e-01 5.51801682e-01 5.24068534e-01 5.10519564e-01 5.05795538e-01 4.99655485e-01 4.92725372e-01 4.89136726e-01 4.91396368e-01 4.97591048e-01 4.98976439e-01 1.76449731e-01 1.85202017e-01 2.15483636e-01 2.69855171e-01 3.23336184e-01 3.66304249e-01 3.99405390e-01 4.24464583e-01 4.43209857e-01 4.57123667e-01 4.67551351e-01 4.75861549e-01 4.83573377e-01 4.92389441e-01 5.04036486e-01 5.19773901e-01 5.39517403e-01 5.60888886e-01 5.79097927e-01 5.88616550e-01 5.86154461e-01 5.73503017e-01 5.59564471e-01 5.53686500e-01 5.52502871e-01 5.50197482e-01 5.47334731e-01 5.46322823e-01 5.47735929e-01 5.49776435e-01 5.49486697e-01 1.78215787e-01 1.88482657e-01 2.21420854e-01 2.77033776e-01 3.29989493e-01 3.71280313e-01 4.02306348e-01 4.25323159e-01 4.42279130e-01 4.54774737e-01 4.64214563e-01 4.71977443e-01 4.79532033e-01 4.88438517e-01 5.00152588e-01 5.15542626e-01 5.34166038e-01 5.53694606e-01 5.70224226e-01 5.79882622e-01 5.80976188e-01 5.75434923e-01 5.68706214e-01 5.65680444e-01 5.65251529e-01 5.64733505e-01 5.64476848e-01 5.65517128e-01 5.67649186e-01 5.69497406e-01 5.69713652e-01 1.83714449e-01 1.95506424e-01 2.31223136e-01 2.86341220e-01 3.37064534e-01 3.75687957e-01 4.04177308e-01 4.24976945e-01 4.40091610e-01 4.51127738e-01 4.59462076e-01 4.66401994e-01 4.73282278e-01 4.81450140e-01 4.92076397e-01 5.05748749e-01 5.21933258e-01 5.38652480e-01 5.52891254e-01 5.61866701e-01 5.64498901e-01 5.62180996e-01 5.58314741e-01 5.56088090e-01 5.56116283e-01 5.57576418e-01 5.60085833e-01 5.63429415e-01 5.66968679e-01 5.69574893e-01 5.70328534e-01 1.91716477e-01 2.05369055e-01 2.44977310e-01 2.97510982e-01 3.44272465e-01 3.79487664e-01 4.05220687e-01 4.23812032e-01 4.37168270e-01 4.46810901e-01 4.54024613e-01 4.59992081e-01 4.65870917e-01 4.72775102e-01 4.81621265e-01 4.92823780e-01 5.05924106e-01 5.19414544e-01 5.31085551e-01 5.38931906e-01 5.42148471e-01 5.41617870e-01 5.39585710e-01 5.38467109e-01 5.39521515e-01 5.42702079e-01 5.47294021e-01 5.52400231e-01 5.57108641e-01 5.60446858e-01 5.61594009e-01 2.00239271e-01 2.15452343e-01 2.58756220e-01 3.08335662e-01 3.50664347e-01 3.82476628e-01 4.05633539e-01 4.22253311e-01 4.34080064e-01 4.42508578e-01 4.48700249e-01 4.53690946e-01 4.58451778e-01 4.63876188e-01 4.70671773e-01 4.79155213e-01 4.89017576e-01 4.99230862e-01 5.08296132e-01 5.14842033e-01 5.18281341e-01 5.19152284e-01 5.18951476e-01 5.19462705e-01 5.21887481e-01 5.26374459e-01 5.32198727e-01 5.38304448e-01 5.43705583e-01 5.47551215e-01 5.49023926e-01 2.07712784e-01 2.23764449e-01 2.68891335e-01 3.16557974e-01 3.55440617e-01 3.84534389e-01 4.05637503e-01 4.20713276e-01 4.31362867e-01 4.38854456e-01 4.44223404e-01 4.48360831e-01 4.52064484e-01 4.56036389e-01 4.60818172e-01 4.66670066e-01 4.73439455e-01 4.80520129e-01 4.87014145e-01 4.92097169e-01 4.95420247e-01 4.97332245e-01 4.98797894e-01 5.01008332e-01 5.04821718e-01 5.10339379e-01 5.16922057e-01 5.23590207e-01 5.29404402e-01 5.33610821e-01 5.35360992e-01 2.13668361e-01 2.30124012e-01 2.75881022e-01 3.22085321e-01 3.58621836e-01 3.85803193e-01 4.05500442e-01 4.19558287e-01 4.29456055e-01 4.36350107e-01 4.41162497e-01 4.44655687e-01 4.47478205e-01 4.50174212e-01 4.53155011e-01 4.56641614e-01 4.60607827e-01 4.64778215e-01 4.68735129e-01 4.72126991e-01 4.74881053e-01 4.77305263e-01 4.80016917e-01 4.83703643e-01 4.88801628e-01 4.95246053e-01 5.02457440e-01 5.09573460e-01 5.15729308e-01 5.20244598e-01 5.22234499e-01 2.18211621e-01 2.34879553e-01 2.80861348e-01 3.25813890e-01 3.60695302e-01 3.86643827e-01 4.05544251e-01 4.19098049e-01 4.28665042e-01 4.35304016e-01 4.39840525e-01 4.42928135e-01 4.45092112e-01 4.46750104e-01 4.48211789e-01 4.49666411e-01 4.51177239e-01 4.52709466e-01 4.54211503e-01 4.55731392e-01 4.57500517e-01 4.59915608e-01 4.63414937e-01 4.68299925e-01 4.74580675e-01 4.81922895e-01 4.89722699e-01 4.97242808e-01 5.03730834e-01 5.08553147e-01 5.10762870e-01 2.21652403e-01 2.38401651e-01 2.84496605e-01 3.28449458e-01 3.62229466e-01 3.87508273e-01 4.06095654e-01 4.19544727e-01 4.29109275e-01 4.35766578e-01 4.40261781e-01 4.43158597e-01 4.44882989e-01 4.45754230e-01 4.46005493e-01 4.45801973e-01 4.45269704e-01 4.44545537e-01 4.43849444e-01 4.43551749e-01 4.44173902e-01 4.46269065e-01 4.50213760e-01 4.56034243e-01 4.63368088e-01 4.71567363e-01 4.79892313e-01 4.87677306e-01 4.94356513e-01 4.99422908e-01 5.01835704e-01 2.24436194e-01 2.40903899e-01 2.87247330e-01 3.30594659e-01 3.63776237e-01 3.88795018e-01 4.07353908e-01 4.20900822e-01 4.30618793e-01 4.37427580e-01 4.42013979e-01 4.44877118e-01 4.46373761e-01 4.46757019e-01 4.46210355e-01 4.44884509e-01 4.42945898e-01 4.40640926e-01 4.38365966e-01 4.36708897e-01 4.36401635e-01 4.38134730e-01 4.42281038e-01 4.48701769e-01 4.56777185e-01 4.65618879e-01 4.74333644e-01 4.82222140e-01 4.88818407e-01 4.93798822e-01 4.96267676e-01 2.27408677e-01 2.41373315e-01 2.88107425e-01 3.32054049e-01 3.65056366e-01 3.90004665e-01 4.08574522e-01 4.22180772e-01 4.31980848e-01 4.38873410e-01 4.43524688e-01 4.46412086e-01 4.47869539e-01 4.48128849e-01 4.47357893e-01 4.45702970e-01 4.43342179e-01 4.40552771e-01 4.37779456e-01 4.35669124e-01 4.35013115e-01 4.36550766e-01 4.40675795e-01 4.47219551e-01 4.55484807e-01 4.64501441e-01 4.73322600e-01 4.81215715e-01 4.87696052e-01 4.92422521e-01 4.94744509e-01 
