# vtk DataFile Version 2.0
results_case1_non_linear/iter3.vtk, Created by Freefem++ 
ASCII
DATASET UNSTRUCTURED_GRID
POINTS 961 float
0 0 0
0.033333333 0 0
0.066666667 0 0
0.1 0 0
0.13333333 0 0
0.16666667 0 0
0.2 0 0
0.23333333 0 0
0.26666667 0 0
0.3 0 0
0.33333333 0 0
0.36666667 0 0
0.4 0 0
0.43333333 0 0
0.46666667 0 0
0.5 0 0
0.53333333 0 0
0.56666667 0 0
0.6 0 0
0.63333333 0 0
0.66666667 0 0
0.7 0 0
0.73333333 0 0
0.76666667 0 0
0.8 0 0
0.83333333 0 0
0.86666667 0 0
0.9 0 0
0.93333333 0 0
0.96666667 0 0
1 0 0
0 0.033333333 0
0.033333333 0.033333333 0
0.066666667 0.033333333 0
0.1 0.033333333 0
0.13333333 0.033333333 0
0.16666667 0.033333333 0
0.2 0.033333333 0
0.23333333 0.033333333 0
0.26666667 0.033333333 0
0.3 0.033333333 0
0.33333333 0.033333333 0
0.36666667 0.033333333 0
0.4 0.033333333 0
0.43333333 0.033333333 0
0.46666667 0.033333333 0
0.5 0.033333333 0
0.53333333 0.033333333 0
0.56666667 0.033333333 0
0.6 0.033333333 0
0.63333333 0.033333333 0
0.66666667 0.033333333 0
0.7 0.033333333 0
0.73333333 0.033333333 0
0.76666667 0.033333333 0
0.8 0.033333333 0
0.83333333 0.033333333 0
0.86666667 0.033333333 0
0.9 0.033333333 0
0.93333333 0.033333333 0
0.96666667 0.033333333 0
1 0.033333333 0
0 0.066666667 0
0.033333333 0.066666667 0
0.066666667 0.066666667 0
0.1 0.066666667 0
0.13333333 0.066666667 0
0.16666667 0.066666667 0
0.2 0.066666667 0
0.23333333 0.066666667 0
0.26666667 0.066666667 0
0.3 0.066666667 0
0.33333333 0.066666667 0
0.36666667 0.066666667 0
0.4 0.066666667 0
0.43333333 0.066666667 0
0.46666667 0.066666667 0
0.5 0.066666667 0
0.53333333 0.066666667 0
0.56666667 0.066666667 0
0.6 0.066666667 0
0.63333333 0.066666667 0
0.66666667 0.066666667 0
0.7 0.066666667 0
0.73333333 0.066666667 0
0.76666667 0.066666667 0
0.8 0.066666667 0
0.83333333 0.066666667 0
0.86666667 0.066666667 0
0.9 0.066666667 0
0.93333333 0.066666667 0
0.96666667 0.066666667 0
1 0.066666667 0
0 0.1 0
0.033333333 0.1 0
0.066666667 0.1 0
0.1 0.1 0
0.13333333 0.1 0
0.16666667 0.1 0
0.2 0.1 0
0.23333333 0.1 0
0.26666667 0.1 0
0.3 0.1 0
0.33333333 0.1 0
0.36666667 0.1 0
0.4 0.1 0
0.43333333 0.1 0
0.46666667 0.1 0
0.5 0.1 0
0.53333333 0.1 0
0.56666667 0.1 0
0.6 0.1 0
0.63333333 0.1 0
0.66666667 0.1 0
0.7 0.1 0
0.73333333 0.1 0
0.76666667 0.1 0
0.8 0.1 0
0.83333333 0.1 0
0.86666667 0.1 0
0.9 0.1 0
0.93333333 0.1 0
0.96666667 0.1 0
1 0.1 0
0 0.13333333 0
0.033333333 0.13333333 0
0.066666667 0.13333333 0
0.1 0.13333333 0
0.13333333 0.13333333 0
0.16666667 0.13333333 0
0.2 0.13333333 0
0.23333333 0.13333333 0
0.26666667 0.13333333 0
0.3 0.13333333 0
0.33333333 0.13333333 0
0.36666667 0.13333333 0
0.4 0.13333333 0
0.43333333 0.13333333 0
0.46666667 0.13333333 0
0.5 0.13333333 0
0.53333333 0.13333333 0
0.56666667 0.13333333 0
0.6 0.13333333 0
0.63333333 0.13333333 0
0.66666667 0.13333333 0
0.7 0.13333333 0
0.73333333 0.13333333 0
0.76666667 0.13333333 0
0.8 0.13333333 0
0.83333333 0.13333333 0
0.86666667 0.13333333 0
0.9 0.13333333 0
0.93333333 0.13333333 0
0.96666667 0.13333333 0
1 0.13333333 0
0 0.16666667 0
0.033333333 0.16666667 0
0.066666667 0.16666667 0
0.1 0.16666667 0
0.13333333 0.16666667 0
0.16666667 0.16666667 0
0.2 0.16666667 0
0.23333333 0.16666667 0
0.26666667 0.16666667 0
0.3 0.16666667 0
0.33333333 0.16666667 0
0.36666667 0.16666667 0
0.4 0.16666667 0
0.43333333 0.16666667 0
0.46666667 0.16666667 0
0.5 0.16666667 0
0.53333333 0.16666667 0
0.56666667 0.16666667 0
0.6 0.16666667 0
0.63333333 0.16666667 0
0.66666667 0.16666667 0
0.7 0.16666667 0
0.73333333 0.16666667 0
0.76666667 0.16666667 0
0.8 0.16666667 0
0.83333333 0.16666667 0
0.86666667 0.16666667 0
0.9 0.16666667 0
0.93333333 0.16666667 0
0.96666667 0.16666667 0
1 0.16666667 0
0 0.2 0
0.033333333 0.2 0
0.066666667 0.2 0
0.1 0.2 0
0.13333333 0.2 0
0.16666667 0.2 0
0.2 0.2 0
0.23333333 0.2 0
0.26666667 0.2 0
0.3 0.2 0
0.33333333 0.2 0
0.36666667 0.2 0
0.4 0.2 0
0.43333333 0.2 0
0.46666667 0.2 0
0.5 0.2 0
0.53333333 0.2 0
0.56666667 0.2 0
0.6 0.2 0
0.63333333 0.2 0
0.66666667 0.2 0
0.7 0.2 0
0.73333333 0.2 0
0.76666667 0.2 0
0.8 0.2 0
0.83333333 0.2 0
0.86666667 0.2 0
0.9 0.2 0
0.93333333 0.2 0
0.96666667 0.2 0
1 0.2 0
0 0.23333333 0
0.033333333 0.23333333 0
0.066666667 0.23333333 0
0.1 0.23333333 0
0.13333333 0.23333333 0
0.16666667 0.23333333 0
0.2 0.23333333 0
0.23333333 0.23333333 0
0.26666667 0.23333333 0
0.3 0.23333333 0
0.33333333 0.23333333 0
0.36666667 0.23333333 0
0.4 0.23333333 0
0.43333333 0.23333333 0
0.46666667 0.23333333 0
0.5 0.23333333 0
0.53333333 0.23333333 0
0.56666667 0.23333333 0
0.6 0.23333333 0
0.63333333 0.23333333 0
0.66666667 0.23333333 0
0.7 0.23333333 0
0.73333333 0.23333333 0
0.76666667 0.23333333 0
0.8 0.23333333 0
0.83333333 0.23333333 0
0.86666667 0.23333333 0
0.9 0.23333333 0
0.93333333 0.23333333 0
0.96666667 0.23333333 0
1 0.23333333 0
0 0.26666667 0
0.033333333 0.26666667 0
0.066666667 0.26666667 0
0.1 0.26666667 0
0.13333333 0.26666667 0
0.16666667 0.26666667 0
0.2 0.26666667 0
0.23333333 0.26666667 0
0.26666667 0.26666667 0
0.3 0.26666667 0
0.33333333 0.26666667 0
0.36666667 0.26666667 0
0.4 0.26666667 0
0.43333333 0.26666667 0
0.46666667 0.26666667 0
0.5 0.26666667 0
0.53333333 0.26666667 0
0.56666667 0.26666667 0
0.6 0.26666667 0
0.63333333 0.26666667 0
0.66666667 0.26666667 0
0.7 0.26666667 0
0.73333333 0.26666667 0
0.76666667 0.26666667 0
0.8 0.26666667 0
0.83333333 0.26666667 0
0.86666667 0.26666667 0
0.9 0.26666667 0
0.93333333 0.26666667 0
0.96666667 0.26666667 0
1 0.26666667 0
0 0.3 0
0.033333333 0.3 0
0.066666667 0.3 0
0.1 0.3 0
0.13333333 0.3 0
0.16666667 0.3 0
0.2 0.3 0
0.23333333 0.3 0
0.26666667 0.3 0
0.3 0.3 0
0.33333333 0.3 0
0.36666667 0.3 0
0.4 0.3 0
0.43333333 0.3 0
0.46666667 0.3 0
0.5 0.3 0
0.53333333 0.3 0
0.56666667 0.3 0
0.6 0.3 0
0.63333333 0.3 0
0.66666667 0.3 0
0.7 0.3 0
0.73333333 0.3 0
0.76666667 0.3 0
0.8 0.3 0
0.83333333 0.3 0
0.86666667 0.3 0
0.9 0.3 0
0.93333333 0.3 0
0.96666667 0.3 0
1 0.3 0
0 0.33333333 0
0.033333333 0.33333333 0
0.066666667 0.33333333 0
0.1 0.33333333 0
0.13333333 0.33333333 0
0.16666667 0.33333333 0
0.2 0.33333333 0
0.23333333 0.33333333 0
0.26666667 0.33333333 0
0.3 0.33333333 0
0.33333333 0.33333333 0
0.36666667 0.33333333 0
0.4 0.33333333 0
0.43333333 0.33333333 0
0.46666667 0.33333333 0
0.5 0.33333333 0
0.53333333 0.33333333 0
0.56666667 0.33333333 0
0.6 0.33333333 0
0.63333333 0.33333333 0
0.66666667 0.33333333 0
0.7 0.33333333 0
0.73333333 0.33333333 0
0.76666667 0.33333333 0
0.8 0.33333333 0
0.83333333 0.33333333 0
0.86666667 0.33333333 0
0.9 0.33333333 0
0.93333333 0.33333333 0
0.96666667 0.33333333 0
1 0.33333333 0
0 0.36666667 0
0.033333333 0.36666667 0
0.066666667 0.36666667 0
0.1 0.36666667 0
0.13333333 0.36666667 0
0.16666667 0.36666667 0
0.2 0.36666667 0
0.23333333 0.36666667 0
0.26666667 0.36666667 0
0.3 0.36666667 0
0.33333333 0.36666667 0
0.36666667 0.36666667 0
0.4 0.36666667 0
0.43333333 0.36666667 0
0.46666667 0.36666667 0
0.5 0.36666667 0
0.53333333 0.36666667 0
0.56666667 0.36666667 0
0.6 0.36666667 0
0.63333333 0.36666667 0
0.66666667 0.36666667 0
0.7 0.36666667 0
0.73333333 0.36666667 0
0.76666667 0.36666667 0
0.8 0.36666667 0
0.83333333 0.36666667 0
0.86666667 0.36666667 0
0.9 0.36666667 0
0.93333333 0.36666667 0
0.96666667 0.36666667 0
1 0.36666667 0
0 0.4 0
0.033333333 0.4 0
0.066666667 0.4 0
0.1 0.4 0
0.13333333 0.4 0
0.16666667 0.4 0
0.2 0.4 0
0.23333333 0.4 0
0.26666667 0.4 0
0.3 0.4 0
0.33333333 0.4 0
0.36666667 0.4 0
0.4 0.4 0
0.43333333 0.4 0
0.46666667 0.4 0
0.5 0.4 0
0.53333333 0.4 0
0.56666667 0.4 0
0.6 0.4 0
0.63333333 0.4 0
0.66666667 0.4 0
0.7 0.4 0
0.73333333 0.4 0
0.76666667 0.4 0
0.8 0.4 0
0.83333333 0.4 0
0.86666667 0.4 0
0.9 0.4 0
0.93333333 0.4 0
0.96666667 0.4 0
1 0.4 0
0 0.43333333 0
0.033333333 0.43333333 0
0.066666667 0.43333333 0
0.1 0.43333333 0
0.13333333 0.43333333 0
0.16666667 0.43333333 0
0.2 0.43333333 0
0.23333333 0.43333333 0
0.26666667 0.43333333 0
0.3 0.43333333 0
0.33333333 0.43333333 0
0.36666667 0.43333333 0
0.4 0.43333333 0
0.43333333 0.43333333 0
0.46666667 0.43333333 0
0.5 0.43333333 0
0.53333333 0.43333333 0
0.56666667 0.43333333 0
0.6 0.43333333 0
0.63333333 0.43333333 0
0.66666667 0.43333333 0
0.7 0.43333333 0
0.73333333 0.43333333 0
0.76666667 0.43333333 0
0.8 0.43333333 0
0.83333333 0.43333333 0
0.86666667 0.43333333 0
0.9 0.43333333 0
0.93333333 0.43333333 0
0.96666667 0.43333333 0
1 0.43333333 0
0 0.46666667 0
0.033333333 0.46666667 0
0.066666667 0.46666667 0
0.1 0.46666667 0
0.13333333 0.46666667 0
0.16666667 0.46666667 0
0.2 0.46666667 0
0.23333333 0.46666667 0
0.26666667 0.46666667 0
0.3 0.46666667 0
0.33333333 0.46666667 0
0.36666667 0.46666667 0
0.4 0.46666667 0
0.43333333 0.46666667 0
0.46666667 0.46666667 0
0.5 0.46666667 0
0.53333333 0.46666667 0
0.56666667 0.46666667 0
0.6 0.46666667 0
0.63333333 0.46666667 0
0.66666667 0.46666667 0
0.7 0.46666667 0
0.73333333 0.46666667 0
0.76666667 0.46666667 0
0.8 0.46666667 0
0.83333333 0.46666667 0
0.86666667 0.46666667 0
0.9 0.46666667 0
0.93333333 0.46666667 0
0.96666667 0.46666667 0
1 0.46666667 0
0 0.5 0
0.033333333 0.5 0
0.066666667 0.5 0
0.1 0.5 0
0.13333333 0.5 0
0.16666667 0.5 0
0.2 0.5 0
0.23333333 0.5 0
0.26666667 0.5 0
0.3 0.5 0
0.33333333 0.5 0
0.36666667 0.5 0
0.4 0.5 0
0.43333333 0.5 0
0.46666667 0.5 0
0.5 0.5 0
0.53333333 0.5 0
0.56666667 0.5 0
0.6 0.5 0
0.63333333 0.5 0
0.66666667 0.5 0
0.7 0.5 0
0.73333333 0.5 0
0.76666667 0.5 0
0.8 0.5 0
0.83333333 0.5 0
0.86666667 0.5 0
0.9 0.5 0
0.93333333 0.5 0
0.96666667 0.5 0
1 0.5 0
0 0.53333333 0
0.033333333 0.53333333 0
0.066666667 0.53333333 0
0.1 0.53333333 0
0.13333333 0.53333333 0
0.16666667 0.53333333 0
0.2 0.53333333 0
0.23333333 0.53333333 0
0.26666667 0.53333333 0
0.3 0.53333333 0
0.33333333 0.53333333 0
0.36666667 0.53333333 0
0.4 0.53333333 0
0.43333333 0.53333333 0
0.46666667 0.53333333 0
0.5 0.53333333 0
0.53333333 0.53333333 0
0.56666667 0.53333333 0
0.6 0.53333333 0
0.63333333 0.53333333 0
0.66666667 0.53333333 0
0.7 0.53333333 0
0.73333333 0.53333333 0
0.76666667 0.53333333 0
[...]
CELL_DATA 1920
Scalars  Label int 1
LOOKUP_TABLE FreeFempp_table
0
0
0
0
0
0
0
0
0
0
0
0
0
0
0
0
0
0
0
0
0
0
0
0
0
0
0
0
0
0
0
0
0
0
0
0
0
0
0
0
0
0
0
0
0
0
0
0
0
0
0
0
0
0
0
0
0
0
0
0
0
0
0
0
0
0
0
0
0
0
0
0
0
0
0
0
0
0
0
0
0
0
0
0
0
0
0
0
0
0
0
0
0
0
0
0
0
0
0
0
0
0
0
0
0
0
0
0
0
0
0
0
0
0
0
0
0
0
0
0
0
0
0
0
0
0
0
0
0
0
0
0
0
0
0
0
0
0
0
0
0
0
0
0
0
0
0
0
0
0
0
0
0
0
0
0
0
0
0
0
0
0
0
0
0
0
0
0
0
0
0
0
0
0
0
0
0
0
0
0
0
0
0
0
0
0
0
0
0
0
0
0
0
0
0
0
0
0
0
0
0
0
0
0
0
0
0
0
0
0
0
0
0
0
0
0
0
0
0
0
0
0
0
0
0
0
0
0
0
0
0
0
0
0
0
0
0
0
0
0
0
0
0
0
0
0
0
0
0
0
0
0
0
0
0
0
0
0
0
0
0
0
0
0
0
0
0
0
0
0
0
0
0
0
0
0
0
0
0
0
0
0
0
0
0
0
0
0
0
0
0
0
0
0
0
0
0
0
0
0
0
0
0
0
0
0
0
0
0
0
0
0
0
0
0
0
0
0
0
0
0
0
0
0
0
0
0
0
0
0
0
0
0
0
0
0
0
0
0
0
0
0
0
0
0
0
0
0
0
0
0
0
0
0
0
0
0
0
0
0
0
0
0
0
0
0
0
0
0
0
0
0
0
0
0
0
0
0
0
0
0
0
0
0
0
0
0
0
0
0
0
0
0
0
0
0
0
0
0
0
0
0
0
0
0
0
0
0
0
0
0
0
0
0
0
0
0
0
0
0
0
0
0
0
0
0
0
0
0
0
0
0
0
0
0
0
0
0
0
0
0
0
0
0
0
0
0
0
0
0
0
0
0
0
0
0
0
0
0
0
0
0
0
0
0
0
0
0
0
0
0
0
0
0
0
0
0
0
0
0
0
0
0
0
0
0
0
0
0
0
0
0
0
0
0
0
0
0
0
0
0
0
0
0
0
0
0
0
0
0
0
0
0
0
0
0
0
0
0
0
0
0
0
0
0
0
0
0
0
0
0
0
0
0
0
0
0
0
0
0
0
0
0
0
0
0
0
0
0
0
0
0
0
0
0
0
0
0
0
0
0
0
0
0
0
0
0
0
0
0
0
0
0
0
0
0
0
0
0
0
0
0
0
0
0
0
0
0
0
0
0
0
0
0
0
0
0
0
0
0
0
0
0
0
0
0
0
0
0
0
0
0
0
0
0
0
0
0
0
0
0
0
0
0
0
0
0
0
0
0
0
0
0
0
0
0
0
0
0
0
0
0
0
0
0
0
0
0
0
0
0
0
0
0
0
0
0
0
0
0
0
0
0
0
0
0
0
0
0
0
0
0
0
0
0
0
0
0
0
0
0
0
0
0
0
0
0
0
0
0
0
0
0
0
0
0
0
0
0
0
0
0
0
0
0
0
0
0
0
0
0
0
0
0
0
0
0
0
0
0
0
0
0
0
0
0
0
0
0
0
0
0
0
0
0
0
0
0
0
0
0
0
0
0
0
0
0
0
0
0
0
0
0
0
0
0
0
0
0
0
0
0
0
0
0
0
0
0
0
0
0
0
0
0
0
0
0
0
0
0
0
0
0
0
0
0
0
0
0
0
0
0
0
0
0
0
0
0
0
0
0
0
0
0
0
0
0
0
0
0
0
0
0
0
0
0
0
0
0
0
0
0
0
0
0
0
0
0
0
0
0
0
0
0
0
0
0
0
0
0
0
0
0
0
0
0
0
0
0
0
0
0
0
0
0
0
0
0
0
0
0
0
0
0
0
0
0
0
0
0
0
0
0
0
0
0
0
0
0
0
0
0
0
0
0
0
0
0
0
0
0
0
0
0
0
0
0
0
0
0
0
0
0
0
0
0
0
0
0
0
0
0
0
0
0
0
0
0
0
0
0
0
0
0
0
0
0
0
0
0
0
0
0
0
0
0
0
0
0
0
0
0
0
0
0
0
0
0
0
0
0
0
0
0
0
0
0
0
0
0
0
0
0
0
0
0
0
0
0
0
0
0
0
0
0
0
0
0
0
0
0
0
0
0
0
0
0
0
0
0
0
0
0
0
0
0
0
0
0
0
0
0
0
0
0
0
0
0
0
0
0
0
0
0
0
0
0
0
0
0
0
0
0
0
0
0
0
0
0
0
0
0
0
0
0
0
0
0
0
0
0
0
0
0
0
0
0
0
0
0
0
0
0
0
0
0
0
0
0
0
0
0
0
0
0
0
0
0
0
0
0
0
0
0
0
0
0
0
0
0
0
0
0
0
0
0
0
0
0
0
0
0
0
0
0
0
0
0
0
0
0
0
0
0
0
0
0
0
0
0
0
0
0
0
0
0
0
0
0
0
0
0
0
0
0
0
0
0
0
0
0
0
0
0
0
0
0
0
0
0
0
0
0
0
0
0
0
0
0
0
0
0
0
0
0
0
0
0
0
0
0
0
0
0
0
0
0
0
0
0
0
0
0
0
0
0
0
0
0
0
0
0
0
0
0
0
0
0
0
0
0
0
0
0
0
0
0
0
0
0
0
0
0
0
0
0
0
0
0
0
0
0
0
0
0
0
0
0
0
0
0
0
0
0
0
0
0
0
0
0
0
0
0
0
0
0
0
0
0
0
0
0
0
0
0
0
0
0
0
0
0
0
0
0
0
0
0
0
0
0
0
0
0
0
0
0
0
0
0
0
0
0
0
0
0
0
0
0
0
0
0
0
0
0
0
0
0
0
0
0
0
0
0
0
0
0
0
0
0
0
0
0
0
0
0
0
0
0
0
0
0
0
0
0
0
0
0
0
0
0
0
0
0
0
0
0
0
0
0
0
0
0
0
0
0
0
0
0
0
0
0
0
0
0
0
0
0
0
0
0
0
0
0
0
0
0
0
0
0
0
0
0
0
0
0
0
0
0
0
0
0
0
0
0
0
0
0
0
0
0
0
0
0
0
0
0
0
0
0
0
0
0
0
0
0
0
0
0
0
0
0
0
0
0
0
0
0
0
0
0
0
0
0
0
0
0
0
0
0
0
0
0
0
0
0
0
0
0
0
0
0
0
0
0
0
0
0
0
0
0
0
0
0
0
0
0
0
0
0
0
0
0
0
0
0
0
0
0
0
0
0
0
0
0
0
0
0
0
0
0
0
0
0
0
0
0
0
0
0
0
0
0
0
0
0
0
0
0
0
0
0
0
0
0
0
0
0
0
0
0
0
0
0
0
0
0
0
0
0
0
0
0
0
0
0
0
0
0
0
0
0
0
0
0
0
0
0
0
0
0
0
0
0
0
0
0
0
0
0
0
0
0
0
0
0
0
0
0
0
0
0
0
0
0
0
0
0
0
0
0
0
0
0
0
0
0
0
0
0
0
0
0
0
0
0
0
0
0
0
0
0
0
0
0
0
0
0
0
0
0
0
0
0
0
0
0
0
0
0
0
0
0
0
0
0
0
0
0
0
0
0
0
0
0
0
0
0
0
0
0
0
0
0
0
0
0
0
0
0
0
0
0
0
0
0
0
0
0
0
0
0
0
0
0
0
0
0
0
0
0
0
0
0
0
0
0
0
0
0
0
0
0
0
0
0
0
0
0
0
0
0
0
0
0
0
0
0
0
0
0
0
0
0
0
0
0
0
0
0
0
0
0
0
0
0
0
0
0
0
0
0
0
0
0
0
0
0
0
0
0
0
0
0
0
0
0
0
0
0
0
0
0
0
0
0
0
0
0
0
0
0
0
0
0
0
0
0
0
0
0
0
0
0
0
0
0
0
0
0
0
0
0
0
0
0
0
0
0
0
0
0
0
0
0
0
0
0
0
0
0
0
0
0
0
0
0
0
0
0
0
0
0
0
0
0
0
0
0
0
0
0
0
0
0
0
0
0
0
0
0
1
1
1
1
1
1
1
1
1
1
1
1
1
1
1
1
1
1
1
1
1
1
1
1
1
1
1
1
1
1
2
2
2
2
2
2
2
2
2
2
2
2
2
2
2
2
2
2
2
2
2
2
2
2
2
2
2
2
2
2
3
3
3
3
3
3
3
3
3
3
3
3
3
3
3
3
3
3
3
3
3
3
3
3
3
3
3
3
3
3
4
4
4
4
4
4
4
4
4
4
4
4
4
4
4
4
4
4
4
4
4
4
4
4
4
4
4
4
4
4

LOOKUP_TABLE FreeFempp_table 5
1.00000000 0.00000000 0.00000000 1.00000000
1.00000000 1.00000000 0.00000000 1.00000000
1.00000000 0.00000000 1.00000000 1.00000000
0.00000000 1.00000000 0.00000000 1.00000000
0.00000000 1.00000000 1.00000000 1.00000000

POINT_DATA 961
FIELD FieldData 1
Density 1 961 float
7.37580732e-02 5.51374070e-02 5.52039035e-02 6.34882972e-02 7.49492198e-02 8.02624375e-02 6.13064617e-02 3.75877470e-02 2.43555140e-02 2.17669070e-01 5.00746608e-01 6.17843449e-01 6.39246464e-01 6.37604296e-01 6.34036779e-01 6.28685296e-01 6.19721293e-01 5.99174261e-01 5.54689467e-01 4.83749360e-01 4.11465853e-01 3.71757835e-01 3.84705037e-01 4.83966768e-01 7.05143392e-01 9.09356892e-01 9.69246149e-01 9.63929176e-01 2.19005961e-02 2.32039057e-02 7.03857183e-01 4.13673483e-02 5.41504882e-02 3.00457254e-02 2.73375195e-02 2.47622170e-02 2.22201794e-02 1.90160032e-02 2.30627470e-02 1.98795106e-02 1.47377932e-02 1.72212813e-02 3.50379869e-02 2.57898390e-01 3.51623654e-01 3.79816741e-01 3.93580526e-01 3.95256251e-01 3.61585617e-01 2.65231639e-01 1.54383644e-01 9.29463059e-02 6.85159415e-02 6.52940646e-02 8.78448486e-02 2.31386378e-01 8.06763589e-01 9.65286791e-01 9.68780100e-01 1.89102199e-02 1.40298577e-02 1.26481399e-01 4.73413914e-02 2.16906946e-02 2.23141108e-02 2.11470351e-02 1.98775157e-02 2.05406882e-02 2.16681696e-02 1.96688157e-02 1.62600484e-02 1.26926145e-02 1.65320691e-02 1.44241536e-02 1.56387631e-02 2.08133124e-02 1.33579090e-01 1.87980101e-01 2.01709047e-01 1.84612468e-01 1.47058174e-01 1.04404606e-01 7.49951750e-02 6.05042391e-02 5.92867732e-02 8.28213096e-02 2.44646922e-01 8.30115497e-01 9.62087452e-01 9.60623145e-01 1.37436807e-01 1.44678280e-02 2.15723179e-02 4.60001677e-02 1.89659260e-02 2.16556191e-02 2.49026716e-02 3.47839780e-02 4.71723378e-02 6.18302487e-02 7.79730231e-02 8.73467401e-02 8.61139894e-02 5.90908453e-02 2.00623870e-02 1.63697358e-02 1.73491817e-02 1.84531603e-02 2.16821637e-02 5.86763620e-02 6.64383024e-02 5.75953759e-02 4.88368869e-02 4.33887616e-02 4.24162671e-02 4.55360413e-02 6.52303994e-02 1.93959638e-01 7.86001742e-01 9.57534909e-01 9.55921590e-01 5.56252599e-01 1.74731594e-02 1.99568924e-02 7.06123114e-02 2.38405783e-02 2.79239006e-02 3.62163819e-02 5.85538447e-02 8.10703933e-02 1.01020902e-01 1.19713269e-01 1.33073047e-01 1.38910592e-01 1.46142468e-01 1.42106518e-01 9.95070413e-02 2.08464265e-02 1.85126644e-02 1.91526972e-02 2.10996307e-02 2.18702853e-02 2.14411076e-02 2.24347617e-02 2.47705225e-02 2.70227529e-02 2.94554122e-02 4.11864035e-02 1.34375677e-01 7.46341467e-01 9.55729604e-01 9.55596507e-01 6.83210075e-01 1.75926108e-02 1.97239202e-02 1.32883221e-01 3.49198990e-02 4.33470123e-02 6.22960627e-02 9.85649079e-02 1.30598649e-01 1.58778116e-01 1.83821931e-01 2.03521490e-01 2.16513872e-01 2.26263657e-01 2.30147481e-01 2.28208110e-01 2.18336746e-01 1.77372545e-01 2.40507890e-02 2.07215920e-02 2.14317590e-02 2.19808966e-02 2.19523627e-02 2.23594382e-02 2.28419993e-02 2.34655272e-02 2.71607675e-02 7.49905482e-02 6.61982179e-01 9.52329338e-01 9.55204725e-01 7.38439262e-01 1.77102908e-02 1.97512601e-02 2.93798774e-01 6.41629323e-02 9.19790715e-02 1.35743603e-01 1.83938563e-01 2.28683174e-01 2.68916011e-01 3.02765906e-01 3.28832954e-01 3.47899467e-01 3.63017261e-01 3.74020398e-01 3.83488476e-01 3.98019969e-01 4.16039884e-01 3.77709836e-01 2.33377606e-01 2.77225096e-02 2.12450270e-02 2.17130911e-02 2.22054031e-02 2.29378957e-02 2.28563454e-02 2.37741824e-02 4.38726842e-02 5.62674284e-01 9.49316859e-01 9.56413627e-01 7.87699521e-01 1.79557763e-02 1.99783351e-02 5.46774209e-01 1.92372143e-01 2.86054641e-01 3.36448610e-01 3.77891004e-01 4.25202161e-01 4.65123385e-01 4.93985236e-01 5.13024807e-01 5.25412321e-01 5.34373939e-01 5.41274786e-01 5.49408972e-01 5.64112246e-01 5.89469552e-01 6.20923042e-01 6.28772318e-01 5.22756338e-01 2.21455038e-01 3.72925438e-02 2.46301088e-02 2.31665801e-02 2.32613403e-02 2.28331257e-02 3.95677872e-02 5.48337162e-01 9.45103288e-01 9.57834065e-01 8.39919508e-01 1.83116570e-02 2.03410145e-02 7.68335938e-01 5.53866148e-01 6.71500325e-01 6.74031794e-01 6.73843205e-01 6.85598075e-01 6.92135155e-01 6.92667842e-01 6.88511014e-01 6.81616306e-01 6.73625708e-01 6.65586591e-01 6.59674168e-01 6.59059763e-01 6.66552365e-01 6.83463633e-01 7.08377361e-01 7.24987984e-01 7.05396175e-01 6.12572193e-01 4.53164220e-01 2.74385124e-01 6.99657053e-02 4.26595770e-02 1.10479988e-01 6.69804633e-01 9.37368512e-01 9.58098352e-01 8.85484755e-01 1.87726729e-02 2.08672099e-02 8.91252160e-01 8.83566499e-01 8.92694771e-01 8.72374058e-01 8.53770673e-01 8.41097772e-01 8.26409996e-01 8.09946835e-01 7.91549802e-01 7.71681905e-01 7.50935614e-01 7.29994774e-01 7.10366607e-01 6.94277704e-01 6.83797002e-01 6.80319548e-01 6.84653640e-01 6.94664538e-01 7.02544808e-01 6.99198604e-01 6.88525975e-01 6.60509229e-01 5.34990966e-01 3.84708166e-01 4.90498424e-01 7.81050861e-01 9.24736559e-01 9.55981195e-01 9.13290322e-01 1.93040315e-02 2.15386823e-02 9.14413691e-01 9.26121712e-01 9.15221393e-01 9.05890107e-01 8.94178212e-01 8.83067906e-01 8.68320942e-01 8.50671172e-01 8.29905808e-01 8.06292176e-01 7.80261815e-01 7.52528846e-01 7.24539697e-01 6.98500931e-01 6.76807523e-01 6.61272943e-01 6.52406991e-01 6.48979247e-01 6.48862422e-01 6.49164319e-01 6.49129927e-01 6.49461627e-01 6.41722322e-01 6.40590608e-01 7.07298577e-01 8.23615849e-01 9.12331343e-01 9.51183915e-01 9.24708247e-01 1.98561866e-02 2.22918447e-02 8.39691758e-01 8.67935836e-01 8.61218989e-01 8.71790946e-01 8.72084975e-01 8.68718147e-01 8.59109938e-01 8.44989836e-01 8.26494217e-01 8.04057002e-01 7.78163254e-01 7.49504268e-01 7.19279706e-01 6.89649940e-01 6.63768888e-01 6.44698501e-01 6.33339167e-01 6.27665877e-01 6.25235438e-01 6.24972045e-01 6.27948105e-01 6.38856292e-01 6.62333012e-01 7.04697549e-01 7.69111753e-01 8.41225266e-01 9.02877569e-01 9.42935824e-01 9.22947884e-01 2.03722473e-02 2.30350830e-02 4.97951686e-01 4.09380853e-01 5.59802473e-01 7.05318093e-01 7.71124005e-01 7.98241496e-01 8.04728031e-01 8.00596118e-01 7.89267242e-01 7.72705793e-01 7.52140105e-01 7.28383303e-01 7.02194035e-01 6.75863028e-01 6.53540790e-01 6.37371182e-01 6.29118085e-01 6.27823353e-01 6.30724728e-01 6.36240304e-01 6.45099044e-01 6.61465526e-01 6.91560924e-01 7.38304377e-01 7.95859277e-01 8.51971328e-01 8.96876216e-01 9.29908693e-01 9.04291809e-01 2.07807776e-02 2.36565322e-02 1.62083089e-01 8.57302770e-02 1.78292394e-01 3.86268228e-01 5.63722074e-01 6.57476187e-01 6.99618816e-01 7.16528893e-01 7.19619215e-01 7.14486241e-01 7.04080284e-01 6.89768910e-01 6.72705650e-01 6.57446682e-01 6.48300469e-01 6.42614186e-01 6.40546501e-01 6.44595683e-01 6.54947758e-01 6.69549227e-01 6.85567856e-01 7.03432024e-01 7.27639616e-01 7.63650000e-01 8.11211944e-01 8.60013485e-01 8.95087183e-01 9.11266029e-01 8.44043851e-01 2.10494678e-02 2.40642689e-02 4.92787398e-02 3.17572504e-02 6.50006756e-02 2.02665642e-01 3.82037133e-01 5.06340384e-01 5.74992716e-01 6.11388445e-01 6.29661560e-01 6.37307346e-01 6.38372958e-01 6.34965479e-01 6.29922867e-01 6.30545437e-01 6.38056695e-01 6.42901957e-01 6.57009602e-01 6.70072496e-01 6.89059913e-01 7.13434935e-01 7.36345947e-01 7.54221022e-01 7.68532217e-01 7.86530852e-01 8.18284571e-01 8.62297177e-01 8.95358920e-01 8.88314068e-01 6.15165353e-01 2.12286431e-02 2.42977105e-02 3.01359519e-02 2.42653862e-02 3.46870646e-02 1.27960742e-01 2.85497159e-01 4.04913783e-01 4.76531386e-01 5.18366039e-01 5.43404937e-01 5.58526397e-01 5.67390144e-01 5.72484970e-01 5.78475356e-01 5.93070209e-01 6.09959960e-01 6.28089607e-01 6.57492161e-01 6.88369453e-01 7.20171869e-01 7.55918920e-01 7.86083639e-01 8.06400001e-01 8.16343307e-01 8.19932103e-01 8.29642355e-01 8.58944893e-01 8.85913551e-01 8.31100225e-01 9.83004421e-02 2.13922970e-02 2.44797356e-02 2.70173792e-02 2.28699502e-02 2.84355953e-02 1.02033004e-01 2.34201416e-01 3.41667712e-01 4.09874946e-01 4.50762659e-01 4.76325005e-01 4.93393362e-01 5.05391300e-01 5.14792383e-01 5.26486754e-01 5.48048973e-01 5.78385353e-01 6.08648241e-01 6.50184393e-01 6.90138280e-01 7.37439275e-01 7.85602033e-01 8.23849201e-01 8.49881589e-01 8.63950253e-01 8.67202461e-01 8.63712728e-01 8.62149715e-01 8.36431324e-01 4.12782550e-01 2.47828104e-02 2.16738768e-02 2.48194244e-02 2.59493627e-02 2.22879965e-02 2.87946444e-02 1.05936304e-01 2.13315487e-01 3.03276658e-01 3.65299821e-01 4.04101282e-01 4.28746521e-01 4.45782781e-01 4.58837092e-01 4.70355123e-01 4.83878642e-01 5.04987359e-01 5.36007822e-01 5.75191140e-01 6.20905757e-01 6.74336076e-01 7.36464500e-01 7.95939267e-01 8.42907071e-01 8.76259923e-01 8.97386491e-01 9.07916248e-01 9.08350468e-01 8.93124700e-01 7.95407236e-01 1.44262612e-01 2.43424848e-02 2.19996087e-02 2.57327016e-02 2.55236588e-02 2.19465196e-02 3.39140035e-02 1.30945086e-01 2.16293409e-01 2.85739988e-01 3.37353945e-01 3.71931106e-01 3.94977182e-01 4.11641359e-01 4.25318331e-01 4.38385367e-01 4.53305423e-01 4.72999185e-01 4.99976158e-01 5.36199868e-01 5.84170818e-01 6.44896984e-01 7.15170979e-01 7.83506811e-01 8.40317249e-01 8.82613063e-01 9.11104739e-01 9.28206325e-01 9.35937703e-01 9.32452977e-01 8.87832105e-01 3.88420850e-01 3.70928533e-02 2.49898043e-02 3.45011838e-02 2.54869070e-02 2.18196157e-02 4.69703339e-02 1.66193008e-01 2.31212661e-01 2.81244606e-01 3.20421726e-01 3.48740518e-01 3.69271994e-01 3.85368705e-01 3.99524719e-01 4.13648129e-01 4.29552227e-01 4.48983938e-01 4.73566204e-01 5.05708814e-01 5.49050689e-01 6.06021702e-01 6.74668193e-01 7.47000098e-01 8.13141227e-01 8.66393864e-01 9.04517233e-01 9.29104388e-01 9.43206787e-01 9.48938370e-01 9.45176363e-01 9.16158974e-01 8.23255956e-01 8.10146511e-01 6.85200810e-01 2.53892429e-02 2.17333976e-02 7.42935389e-02 2.03467086e-01 2.47099966e-01 2.80495524e-01 3.07971567e-01 3.29606444e-01 3.47233295e-01 3.62714469e-01 3.77372801e-01 3.92264098e-01 4.08495009e-01 4.27222311e-01 4.49653149e-01 4.77634192e-01 5.14085233e-01 5.61887562e-01 6.21703744e-01 6.89814448e-01 7.58910537e-01 8.21114957e-01 8.70742917e-01 9.06156957e-01 9.29069877e-01 9.42199349e-01 9.47872460e-01 9.47121084e-01 9.50769603e-01 9.53450680e-01 9.38535511e-01 2.51986682e-02 2.15311851e-02 1.16327375e-01 2.40435213e-01 2.59896368e-01 2.78006405e-01 2.95349628e-01 3.11076522e-01 3.26110601e-01 3.41187179e-01 3.56540382e-01 3.72280985e-01 3.88732612e-01 4.06497896e-01 4.26469505e-01 4.50096011e-01 4.79585528e-01 5.17391741e-01 5.64992964e-01 6.21447563e-01 6.83096528e-01 7.44468927e-01 7.99574375e-01 8.43887687e-01 8.75596106e-01 8.94534051e-01 8.99843931e-01 8.86942387e-01 8.91778111e-01 8.22589397e-01 8.78046691e-01 2.51720659e-02 2.12846287e-02 1.64944321e-01 2.74571985e-01 2.69204855e-01 2.72440821e-01 2.80964613e-01 2.91894406e-01 3.04963917e-01 3.19924593e-01 3.36116999e-01 3.52836013e-01 3.69694829e-01 3.86760622e-01 4.04574454e-01 4.24228847e-01 4.47377056e-01 4.75883543e-01 5.11119306e-01 5.53183496e-01 6.00615859e-01 6.50532603e-01 6.98755920e-01 7.40484774e-01 7.71379590e-01 7.86776066e-01 7.76811421e-01 7.21992731e-01 6.99624002e-01 6.51563168e-01 7.33736575e-01 2.52276007e-02 2.09293440e-02 2.10173994e-01 3.02963465e-01 2.74998903e-01 2.64426678e-01 2.65453309e-01 2.72707582e-01 2.84436226e-01 2.99441367e-01 3.16369742e-01 3.33926320e-01 3.51193041e-01 3.67788464e-01 3.83892030e-01 4.00228590e-01 4.17978823e-01 4.38499868e-01 4.62878942e-01 4.91495460e-01 5.23838937e-01 5.58486521e-01 5.92891157e-01 6.23254597e-01 6.45150781e-01 6.53483927e-01 6.37573838e-01 5.93205512e-01 5.60681701e-01 4.47680980e-01 6.83057845e-01 2.54952479e-02 2.00790577e-02 2.44807422e-01 3.23987007e-01 2.76784599e-01 2.54620194e-01 2.50064671e-01 2.54975826e-01 2.65993983e-01 2.81061083e-01 2.98346162e-01 3.16228688e-01 3.33498895e-01 3.49481493e-01 3.64048898e-01 3.77573639e-01 3.90817136e-01 4.04712975e-01 4.20066386e-01 4.37277257e-01 4.56214130e-01 4.76189703e-01 4.95764881e-01 5.12291253e-01 5.22121191e-01 5.22075057e-01 5.07366598e-01 5.00135064e-01 4.86669689e-01 3.87803346e-01 6.17165625e-01 3.03648934e-02 1.74559057e-02 2.64356792e-01 3.36855769e-01 2.72908539e-01 2.42684990e-01 2.35538140e-01 2.39974231e-01 2.51074642e-01 2.66158074e-01 2.83205628e-01 3.00576508e-01 3.17046613e-01 3.31848234e-01 3.44656646e-01 3.55541617e-01 3.64882410e-01 3.73220980e-01 3.81059408e-01 3.88657510e-01 3.95911574e-01 4.02331769e-01 4.06975895e-01 4.07999068e-01 4.02083308e-01 3.86648864e-01 3.60423952e-01 3.58339250e-01 3.49873066e-01 2.71801531e-01 5.86052418e-01 6.44042045e-02 9.27893724e-03 2.34261051e-01 3.36946905e-01 2.59524494e-01 2.27440402e-01 2.22209677e-01 2.28609964e-01 2.40621492e-01 2.55470634e-01 2.71408916e-01 2.87148565e-01 3.01736951e-01 3.14509213e-01 3.25053096e-01 3.33182335e-01 3.38903695e-01 3.42350394e-01 3.43666524e-01 3.42856705e-01 3.39648485e-01 3.33438903e-01 3.23375225e-01 3.08390558e-01 2.86547780e-01 2.55574733e-01 2.16952682e-01 1.82574302e-01 1.21461086e-01 9.95113701e-02 4.29734111e-01 1.71123862e-01 1.52760120e-02 8.87835845e-02 3.11888397e-01 2.34084338e-01 2.10012764e-01 2.11949915e-01 2.22129524e-01 2.34879792e-01 2.48368606e-01 2.61771202e-01 2.74513781e-01 2.86092877e-01 2.96022803e-01 3.03824574e-01 3.09041172e-01 3.11265588e-01 3.10161620e-01 3.05456698e-01 2.96896905e-01 2.84181952e-01 2.66961753e-01 2.45053321e-01 2.18950137e-01 1.89979166e-01 1.58715606e-01 1.25443310e-01 8.89085457e-02 3.49540934e-02 3.45231481e-02 1.62243024e-01 8.17096531e-02 1.62674077e-02 1.44961923e-02 3.00201565e-01 2.12529689e-01 2.02123240e-01 2.11514875e-01 2.22683355e-01 2.32768357e-01 2.42052272e-01 2.50905335e-01 2.59372324e-01 2.67219126e-01 2.73985714e-01 2.79018521e-01 2.81508863e-01 2.80558676e-01 2.75283962e-01 2.64958173e-01 2.49188289e-01 2.28105888e-01 2.02551454e-01 1.74228862e-01 1.45753860e-01 1.20421402e-01 1.01046786e-01 8.69169757e-02 6.80746883e-02 1.87467169e-02 1.66650768e-02 4.40832339e-02 1.20125581e-02 1.11514078e-02 3.64464223e-02 5.06829202e-01 2.59554446e-01 2.26622269e-01 2.28085518e-01 2.29430094e-01 2.31128499e-01 2.33847812e-01 2.37584278e-01 2.42080554e-01 2.46902019e-01 2.51395315e-01 2.54635125e-01 2.55406797e-01 2.52264977e-01 2.43714377e-01 2.28559405e-01 2.06432104e-01 1.78377524e-01 1.47139892e-01 1.16668992e-01 9.07713026e-02 7.17282742e-02 5.99611104e-02 5.41793071e-02 4.88489941e-02 2.95779277e-02 1.71169527e-02 2.12846044e-02 2.09548920e-02 2.61257030e-02 9.31921244e-01 8.45396399e-01 7.52584219e-01 6.35565341e-01 5.96793056e-01 5.81897140e-01 5.77362418e-01 5.77465951e-01 5.79719305e-01 5.83039165e-01 5.86806536e-01 5.90440869e-01 5.93206763e-01 5.94120622e-01 5.91898143e-01 5.84920585e-01 5.71223259e-01 5.48564792e-01 5.14732838e-01 4.68368024e-01 4.10524011e-01 3.46401840e-01 2.85100043e-01 2.35554069e-01 2.01799855e-01 1.82940066e-01 1.42360583e-01 2.33722944e-02 1.93688944e-02 
