# vtk DataFile Version 2.0
results/iter2.vtk, Created by Freefem++ 
ASCII
DATASET UNSTRUCTURED_GRID
POINTS 961 float
0 0 0
0.033333333 0 0
0.066666667 0 0
0.1 0 0
0.13333333 0 0
0.16666667 0 0
0.2 0 0
0.23333333 0 0
0.26666667 0 0
0.3 0 0
0.33333333 0 0
0.36666667 0 0
0.4 0 0
0.43333333 0 0
0.46666667 0 0
0.5 0 0
0.53333333 0 0
0.56666667 0 0
0.6 0 0
0.63333333 0 0
0.66666667 0 0
0.7 0 0
0.73333333 0 0
0.76666667 0 0
0.8 0 0
0.83333333 0 0
0.86666667 0 0
0.9 0 0
0.93333333 0 0
0.96666667 0 0
1 0 0
0 0.033333333 0
0.033333333 0.033333333 0
0.066666667 0.033333333 0
0.1 0.033333333 0
0.13333333 0.033333333 0
0.16666667 0.033333333 0
0.2 0.033333333 0
0.23333333 0.033333333 0
0.26666667 0.033333333 0
0.3 0.033333333 0
0.33333333 0.033333333 0
0.36666667 0.033333333 0
0.4 0.033333333 0
0.43333333 0.033333333 0
0.46666667 0.033333333 0
0.5 0.033333333 0
0.53333333 0.033333333 0
0.56666667 0.033333333 0
0.6 0.033333333 0
0.63333333 0.033333333 0
0.66666667 0.033333333 0
0.7 0.033333333 0
0.73333333 0.033333333 0
0.76666667 0.033333333 0
0.8 0.033333333 0
0.83333333 0.033333333 0
0.86666667 0.033333333 0
0.9 0.033333333 0
0.93333333 0.033333333 0
0.96666667 0.033333333 0
1 0.033333333 0
0 0.066666667 0
0.033333333 0.066666667 0
0.066666667 0.066666667 0
0.1 0.066666667 0
0.13333333 0.066666667 0
0.16666667 0.066666667 0
0.2 0.066666667 0
0.23333333 0.066666667 0
0.26666667 0.066666667 0
0.3 0.066666667 0
0.33333333 0.066666667 0
0.36666667 0.066666667 0
0.4 0.066666667 0
0.43333333 0.066666667 0
0.46666667 0.066666667 0
0.5 0.066666667 0
0.53333333 0.066666667 0
0.56666667 0.066666667 0
0.6 0.066666667 0
0.63333333 0.066666667 0
0.66666667 0.066666667 0
0.7 0.066666667 0
0.73333333 0.066666667 0
0.76666667 0.066666667 0
0.8 0.066666667 0
0.83333333 0.066666667 0
0.86666667 0.066666667 0
0.9 0.066666667 0
0.93333333 0.066666667 0
0.96666667 0.066666667 0
1 0.066666667 0
0 0.1 0
0.033333333 0.1 0
0.066666667 0.1 0
0.1 0.1 0
0.13333333 0.1 0
0.16666667 0.1 0
0.2 0.1 0
0.23333333 0.1 0
0.26666667 0.1 0
0.3 0.1 0
0.33333333 0.1 0
0.36666667 0.1 0
0.4 0.1 0
0.43333333 0.1 0
0.46666667 0.1 0
0.5 0.1 0
0.53333333 0.1 0
0.56666667 0.1 0
0.6 0.1 0
0.63333333 0.1 0
0.66666667 0.1 0
0.7 0.1 0
0.73333333 0.1 0
0.76666667 0.1 0
0.8 0.1 0
0.83333333 0.1 0
0.86666667 0.1 0
0.9 0.1 0
0.93333333 0.1 0
0.96666667 0.1 0
1 0.1 0
0 0.13333333 0
0.033333333 0.13333333 0
0.066666667 0.13333333 0
0.1 0.13333333 0
0.13333333 0.13333333 0
0.16666667 0.13333333 0
0.2 0.13333333 0
0.23333333 0.13333333 0
0.26666667 0.13333333 0
0.3 0.13333333 0
0.33333333 0.13333333 0
0.36666667 0.13333333 0
0.4 0.13333333 0
0.43333333 0.13333333 0
0.46666667 0.13333333 0
0.5 0.13333333 0
0.53333333 0.13333333 0
0.56666667 0.13333333 0
0.6 0.13333333 0
0.63333333 0.13333333 0
0.66666667 0.13333333 0
0.7 0.13333333 0
0.73333333 0.13333333 0
0.76666667 0.13333333 0
0.8 0.13333333 0
0.83333333 0.13333333 0
0.86666667 0.13333333 0
0.9 0.13333333 0
0.93333333 0.13333333 0
0.96666667 0.13333333 0
1 0.13333333 0
0 0.16666667 0
0.033333333 0.16666667 0
0.066666667 0.16666667 0
0.1 0.16666667 0
0.13333333 0.16666667 0
0.16666667 0.16666667 0
0.2 0.16666667 0
0.23333333 0.16666667 0
0.26666667 0.16666667 0
0.3 0.16666667 0
0.33333333 0.16666667 0
0.36666667 0.16666667 0
0.4 0.16666667 0
0.43333333 0.16666667 0
0.46666667 0.16666667 0
0.5 0.16666667 0
0.53333333 0.16666667 0
0.56666667 0.16666667 0
0.6 0.16666667 0
0.63333333 0.16666667 0
0.66666667 0.16666667 0
0.7 0.16666667 0
0.73333333 0.16666667 0
0.76666667 0.16666667 0
0.8 0.16666667 0
0.83333333 0.16666667 0
0.86666667 0.16666667 0
0.9 0.16666667 0
0.93333333 0.16666667 0
0.96666667 0.16666667 0
1 0.16666667 0
0 0.2 0
0.033333333 0.2 0
0.066666667 0.2 0
0.1 0.2 0
0.13333333 0.2 0
0.16666667 0.2 0
0.2 0.2 0
0.23333333 0.2 0
0.26666667 0.2 0
0.3 0.2 0
0.33333333 0.2 0
0.36666667 0.2 0
0.4 0.2 0
0.43333333 0.2 0
0.46666667 0.2 0
0.5 0.2 0
0.53333333 0.2 0
0.56666667 0.2 0
0.6 0.2 0
0.63333333 0.2 0
0.66666667 0.2 0
0.7 0.2 0
0.73333333 0.2 0
0.76666667 0.2 0
0.8 0.2 0
0.83333333 0.2 0
0.86666667 0.2 0
0.9 0.2 0
0.93333333 0.2 0
0.96666667 0.2 0
1 0.2 0
0 0.23333333 0
0.033333333 0.23333333 0
0.066666667 0.23333333 0
0.1 0.23333333 0
0.13333333 0.23333333 0
0.16666667 0.23333333 0
0.2 0.23333333 0
0.23333333 0.23333333 0
0.26666667 0.23333333 0
0.3 0.23333333 0
0.33333333 0.23333333 0
0.36666667 0.23333333 0
0.4 0.23333333 0
0.43333333 0.23333333 0
0.46666667 0.23333333 0
0.5 0.23333333 0
0.53333333 0.23333333 0
0.56666667 0.23333333 0
0.6 0.23333333 0
0.63333333 0.23333333 0
0.66666667 0.23333333 0
0.7 0.23333333 0
0.73333333 0.23333333 0
0.76666667 0.23333333 0
0.8 0.23333333 0
0.83333333 0.23333333 0
0.86666667 0.23333333 0
0.9 0.23333333 0
0.93333333 0.23333333 0
0.96666667 0.23333333 0
1 0.23333333 0
0 0.26666667 0
0.033333333 0.26666667 0
0.066666667 0.26666667 0
0.1 0.26666667 0
0.13333333 0.26666667 0
0.16666667 0.26666667 0
0.2 0.26666667 0
0.23333333 0.26666667 0
0.26666667 0.26666667 0
0.3 0.26666667 0
0.33333333 0.26666667 0
0.36666667 0.26666667 0
0.4 0.26666667 0
0.43333333 0.26666667 0
0.46666667 0.26666667 0
0.5 0.26666667 0
0.53333333 0.26666667 0
0.56666667 0.26666667 0
0.6 0.26666667 0
0.63333333 0.26666667 0
0.66666667 0.26666667 0
0.7 0.26666667 0
0.73333333 0.26666667 0
0.76666667 0.26666667 0
0.8 0.26666667 0
0.83333333 0.26666667 0
0.86666667 0.26666667 0
0.9 0.26666667 0
0.93333333 0.26666667 0
0.96666667 0.26666667 0
1 0.26666667 0
0 0.3 0
0.033333333 0.3 0
0.066666667 0.3 0
0.1 0.3 0
0.13333333 0.3 0
0.16666667 0.3 0
0.2 0.3 0
0.23333333 0.3 0
0.26666667 0.3 0
0.3 0.3 0
0.33333333 0.3 0
0.36666667 0.3 0
0.4 0.3 0
0.43333333 0.3 0
0.46666667 0.3 0
0.5 0.3 0
0.53333333 0.3 0
0.56666667 0.3 0
0.6 0.3 0
0.63333333 0.3 0
0.66666667 0.3 0
0.7 0.3 0
0.73333333 0.3 0
0.76666667 0.3 0
0.8 0.3 0
0.83333333 0.3 0
0.86666667 0.3 0
0.9 0.3 0
0.93333333 0.3 0
0.96666667 0.3 0
1 0.3 0
0 0.33333333 0
0.033333333 0.33333333 0
0.066666667 0.33333333 0
0.1 0.33333333 0
0.13333333 0.33333333 0
0.16666667 0.33333333 0
0.2 0.33333333 0
0.23333333 0.33333333 0
0.26666667 0.33333333 0
0.3 0.33333333 0
0.33333333 0.33333333 0
0.36666667 0.33333333 0
0.4 0.33333333 0
0.43333333 0.33333333 0
0.46666667 0.33333333 0
0.5 0.33333333 0
0.53333333 0.33333333 0
0.56666667 0.33333333 0
0.6 0.33333333 0
0.63333333 0.33333333 0
0.66666667 0.33333333 0
0.7 0.33333333 0
0.73333333 0.33333333 0
0.76666667 0.33333333 0
0.8 0.33333333 0
0.83333333 0.33333333 0
0.86666667 0.33333333 0
0.9 0.33333333 0
0.93333333 0.33333333 0
0.96666667 0.33333333 0
1 0.33333333 0
0 0.36666667 0
0.033333333 0.36666667 0
0.066666667 0.36666667 0
0.1 0.36666667 0
0.13333333 0.36666667 0
0.16666667 0.36666667 0
0.2 0.36666667 0
0.23333333 0.36666667 0
0.26666667 0.36666667 0
0.3 0.36666667 0
0.33333333 0.36666667 0
0.36666667 0.36666667 0
0.4 0.36666667 0
0.43333333 0.36666667 0
0.46666667 0.36666667 0
0.5 0.36666667 0
0.53333333 0.36666667 0
0.56666667 0.36666667 0
0.6 0.36666667 0
0.63333333 0.36666667 0
0.66666667 0.36666667 0
0.7 0.36666667 0
0.73333333 0.36666667 0
0.76666667 0.36666667 0
0.8 0.36666667 0
0.83333333 0.36666667 0
0.86666667 0.36666667 0
0.9 0.36666667 0
0.93333333 0.36666667 0
0.96666667 0.36666667 0
1 0.36666667 0
0 0.4 0
0.033333333 0.4 0
0.066666667 0.4 0
0.1 0.4 0
0.13333333 0.4 0
0.16666667 0.4 0
0.2 0.4 0
0.23333333 0.4 0
0.26666667 0.4 0
0.3 0.4 0
0.33333333 0.4 0
0.36666667 0.4 0
0.4 0.4 0
0.43333333 0.4 0
0.46666667 0.4 0
0.5 0.4 0
0.53333333 0.4 0
0.56666667 0.4 0
0.6 0.4 0
0.63333333 0.4 0
0.66666667 0.4 0
0.7 0.4 0
0.73333333 0.4 0
0.76666667 0.4 0
0.8 0.4 0
0.83333333 0.4 0
0.86666667 0.4 0
0.9 0.4 0
0.93333333 0.4 0
0.96666667 0.4 0
1 0.4 0
0 0.43333333 0
0.033333333 0.43333333 0
0.066666667 0.43333333 0
0.1 0.43333333 0
0.13333333 0.43333333 0
0.16666667 0.43333333 0
0.2 0.43333333 0
0.23333333 0.43333333 0
0.26666667 0.43333333 0
0.3 0.43333333 0
0.33333333 0.43333333 0
0.36666667 0.43333333 0
0.4 0.43333333 0
0.43333333 0.43333333 0
0.46666667 0.43333333 0
0.5 0.43333333 0
0.53333333 0.43333333 0
0.56666667 0.43333333 0
0.6 0.43333333 0
0.63333333 0.43333333 0
0.66666667 0.43333333 0
0.7 0.43333333 0
0.73333333 0.43333333 0
0.76666667 0.43333333 0
0.8 0.43333333 0
0.83333333 0.43333333 0
0.86666667 0.43333333 0
0.9 0.43333333 0
0.93333333 0.43333333 0
0.96666667 0.43333333 0
1 0.43333333 0
0 0.46666667 0
0.033333333 0.46666667 0
0.066666667 0.46666667 0
0.1 0.46666667 0
0.13333333 0.46666667 0
0.16666667 0.46666667 0
0.2 0.46666667 0
0.23333333 0.46666667 0
0.26666667 0.46666667 0
0.3 0.46666667 0
0.33333333 0.46666667 0
0.36666667 0.46666667 0
0.4 0.46666667 0
0.43333333 0.46666667 0
0.46666667 0.46666667 0
0.5 0.46666667 0
0.53333333 0.46666667 0
0.56666667 0.46666667 0
0.6 0.46666667 0
0.63333333 0.46666667 0
0.66666667 0.46666667 0
0.7 0.46666667 0
0.73333333 0.46666667 0
0.76666667 0.46666667 0
0.8 0.46666667 0
0.83333333 0.46666667 0
0.86666667 0.46666667 0
0.9 0.46666667 0
0.93333333 0.46666667 0
0.96666667 0.46666667 0
1 0.46666667 0
0 0.5 0
0.033333333 0.5 0
0.066666667 0.5 0
0.1 0.5 0
0.13333333 0.5 0
0.16666667 0.5 0
0.2 0.5 0
0.23333333 0.5 0
0.26666667 0.5 0
0.3 0.5 0
0.33333333 0.5 0
0.36666667 0.5 0
0.4 0.5 0
0.43333333 0.5 0
0.46666667 0.5 0
0.5 0.5 0
0.53333333 0.5 0
0.56666667 0.5 0
0.6 0.5 0
0.63333333 0.5 0
0.66666667 0.5 0
0.7 0.5 0
0.73333333 0.5 0
0.76666667 0.5 0
0.8 0.5 0
0.83333333 0.5 0
0.86666667 0.5 0
0.9 0.5 0
0.93333333 0.5 0
0.96666667 0.5 0
1 0.5 0
0 0.53333333 0
0.033333333 0.53333333 0
0.066666667 0.53333333 0
0.1 0.53333333 0
0.13333333 0.53333333 0
0.16666667 0.53333333 0
0.2 0.53333333 0
0.23333333 0.53333333 0
0.26666667 0.53333333 0
0.3 0.53333333 0
0.33333333 0.53333333 0
0.36666667 0.53333333 0
0.4 0.53333333 0
0.43333333 0.53333333 0
0.46666667 0.53333333 0
0.5 0.53333333 0
0.53333333 0.53333333 0
0.56666667 0.53333333 0
0.6 0.53333333 0
0.63333333 0.53333333 0
0.66666667 0.53333333 0
0.7 0.53333333 0
0.73333333 0.53333333 0
0.76666667 0.53333333 0
0.8 0.53333333 0
[...]
CELL_DATA 1920
Scalars  Label int 1
LOOKUP_TABLE FreeFempp_table
0
0
0
0
0
0
0
0
0
0
0
0
0
0
0
0
0
0
0
0
0
0
0
0
0
0
0
0
0
0
0
0
0
0
0
0
0
0
0
0
0
0
0
0
0
0
0
0
0
0
0
0
0
0
0
0
0
0
0
0
0
0
0
0
0
0
0
0
0
0
0
0
0
0
0
0
0
0
0
0
0
0
0
0
0
0
0
0
0
0
0
0
0
0
0
0
0
0
0
0
0
0
0
0
0
0
0
0
0
0
0
0
0
0
0
0
0
0
0
0
0
0
0
0
0
0
0
0
0
0
0
0
0
0
0
0
0
0
0
0
0
0
0
0
0
0
0
0
0
0
0
0
0
0
0
0
0
0
0
0
0
0
0
0
0
0
0
0
0
0
0
0
0
0
0
0
0
0
0
0
0
0
0
0
0
0
0
0
0
0
0
0
0
0
0
0
0
0
0
0
0
0
0
0
0
0
0
0
0
0
0
0
0
0
0
0
0
0
0
0
0
0
0
0
0
0
0
0
0
0
0
0
0
0
0
0
0
0
0
0
0
0
0
0
0
0
0
0
0
0
0
0
0
0
0
0
0
0
0
0
0
0
0
0
0
0
0
0
0
0
0
0
0
0
0
0
0
0
0
0
0
0
0
0
0
0
0
0
0
0
0
0
0
0
0
0
0
0
0
0
0
0
0
0
0
0
0
0
0
0
0
0
0
0
0
0
0
0
0
0
0
0
0
0
0
0
0
0
0
0
0
0
0
0
0
0
0
0
0
0
0
0
0
0
0
0
0
0
0
0
0
0
0
0
0
0
0
0
0
0
0
0
0
0
0
0
0
0
0
0
0
0
0
0
0
0
0
0
0
0
0
0
0
0
0
0
0
0
0
0
0
0
0
0
0
0
0
0
0
0
0
0
0
0
0
0
0
0
0
0
0
0
0
0
0
0
0
0
0
0
0
0
0
0
0
0
0
0
0
0
0
0
0
0
0
0
0
0
0
0
0
0
0
0
0
0
0
0
0
0
0
0
0
0
0
0
0
0
0
0
0
0
0
0
0
0
0
0
0
0
0
0
0
0
0
0
0
0
0
0
0
0
0
0
0
0
0
0
0
0
0
0
0
0
0
0
0
0
0
0
0
0
0
0
0
0
0
0
0
0
0
0
0
0
0
0
0
0
0
0
0
0
0
0
0
0
0
0
0
0
0
0
0
0
0
0
0
0
0
0
0
0
0
0
0
0
0
0
0
0
0
0
0
0
0
0
0
0
0
0
0
0
0
0
0
0
0
0
0
0
0
0
0
0
0
0
0
0
0
0
0
0
0
0
0
0
0
0
0
0
0
0
0
0
0
0
0
0
0
0
0
0
0
0
0
0
0
0
0
0
0
0
0
0
0
0
0
0
0
0
0
0
0
0
0
0
0
0
0
0
0
0
0
0
0
0
0
0
0
0
0
0
0
0
0
0
0
0
0
0
0
0
0
0
0
0
0
0
0
0
0
0
0
0
0
0
0
0
0
0
0
0
0
0
0
0
0
0
0
0
0
0
0
0
0
0
0
0
0
0
0
0
0
0
0
0
0
0
0
0
0
0
0
0
0
0
0
0
0
0
0
0
0
0
0
0
0
0
0
0
0
0
0
0
0
0
0
0
0
0
0
0
0
0
0
0
0
0
0
0
0
0
0
0
0
0
0
0
0
0
0
0
0
0
0
0
0
0
0
0
0
0
0
0
0
0
0
0
0
0
0
0
0
0
0
0
0
0
0
0
0
0
0
0
0
0
0
0
0
0
0
0
0
0
0
0
0
0
0
0
0
0
0
0
0
0
0
0
0
0
0
0
0
0
0
0
0
0
0
0
0
0
0
0
0
0
0
0
0
0
0
0
0
0
0
0
0
0
0
0
0
0
0
0
0
0
0
0
0
0
0
0
0
0
0
0
0
0
0
0
0
0
0
0
0
0
0
0
0
0
0
0
0
0
0
0
0
0
0
0
0
0
0
0
0
0
0
0
0
0
0
0
0
0
0
0
0
0
0
0
0
0
0
0
0
0
0
0
0
0
0
0
0
0
0
0
0
0
0
0
0
0
0
0
0
0
0
0
0
0
0
0
0
0
0
0
0
0
0
0
0
0
0
0
0
0
0
0
0
0
0
0
0
0
0
0
0
0
0
0
0
0
0
0
0
0
0
0
0
0
0
0
0
0
0
0
0
0
0
0
0
0
0
0
0
0
0
0
0
0
0
0
0
0
0
0
0
0
0
0
0
0
0
0
0
0
0
0
0
0
0
0
0
0
0
0
0
0
0
0
0
0
0
0
0
0
0
0
0
0
0
0
0
0
0
0
0
0
0
0
0
0
0
0
0
0
0
0
0
0
0
0
0
0
0
0
0
0
0
0
0
0
0
0
0
0
0
0
0
0
0
0
0
0
0
0
0
0
0
0
0
0
0
0
0
0
0
0
0
0
0
0
0
0
0
0
0
0
0
0
0
0
0
0
0
0
0
0
0
0
0
0
0
0
0
0
0
0
0
0
0
0
0
0
0
0
0
0
0
0
0
0
0
0
0
0
0
0
0
0
0
0
0
0
0
0
0
0
0
0
0
0
0
0
0
0
0
0
0
0
0
0
0
0
0
0
0
0
0
0
0
0
0
0
0
0
0
0
0
0
0
0
0
0
0
0
0
0
0
0
0
0
0
0
0
0
0
0
0
0
0
0
0
0
0
0
0
0
0
0
0
0
0
0
0
0
0
0
0
0
0
0
0
0
0
0
0
0
0
0
0
0
0
0
0
0
0
0
0
0
0
0
0
0
0
0
0
0
0
0
0
0
0
0
0
0
0
0
0
0
0
0
0
0
0
0
0
0
0
0
0
0
0
0
0
0
0
0
0
0
0
0
0
0
0
0
0
0
0
0
0
0
0
0
0
0
0
0
0
0
0
0
0
0
0
0
0
0
0
0
0
0
0
0
0
0
0
0
0
0
0
0
0
0
0
0
0
0
0
0
0
0
0
0
0
0
0
0
0
0
0
0
0
0
0
0
0
0
0
0
0
0
0
0
0
0
0
0
0
0
0
0
0
0
0
0
0
0
0
0
0
0
0
0
0
0
0
0
0
0
0
0
0
0
0
0
0
0
0
0
0
0
0
0
0
0
0
0
0
0
0
0
0
0
0
0
0
0
0
0
0
0
0
0
0
0
0
0
0
0
0
0
0
0
0
0
0
0
0
0
0
0
0
0
0
0
0
0
0
0
0
0
0
0
0
0
0
0
0
0
0
0
0
0
0
0
0
0
0
0
0
0
0
0
0
0
0
0
0
0
0
0
0
0
0
0
0
0
0
0
0
0
0
0
0
0
0
0
0
0
0
0
0
0
0
0
0
0
0
0
0
0
0
0
0
0
0
0
0
0
0
0
0
0
0
0
0
0
0
0
0
0
0
0
0
0
0
0
0
0
0
0
0
0
0
0
0
0
0
0
0
0
0
0
0
0
0
0
0
0
0
0
0
0
0
0
0
0
0
0
0
0
0
0
0
0
0
0
0
0
0
0
0
0
0
0
0
0
0
0
0
0
0
0
0
0
0
0
0
0
0
0
0
0
0
0
0
0
0
0
0
0
0
0
0
0
0
0
0
0
0
0
0
0
0
0
0
0
0
0
0
0
0
0
0
0
0
0
0
0
0
0
0
0
0
0
0
0
0
0
0
0
0
0
0
0
0
0
0
0
0
0
0
0
0
0
0
0
0
0
0
0
0
0
0
0
0
0
0
0
0
0
0
0
0
0
0
0
0
0
0
0
0
0
0
0
0
0
0
0
0
0
0
0
0
0
0
0
0
0
0
0
0
0
0
0
0
0
0
0
0
0
0
0
0
0
0
0
0
0
0
0
0
0
0
0
0
0
0
0
0
0
0
0
0
0
0
0
0
0
0
0
0
0
0
0
0
0
0
0
0
0
0
0
0
0
0
0
0
0
0
0
0
0
0
0
0
0
0
0
0
0
0
0
0
0
0
0
0
0
0
0
0
0
0
0
0
0
0
0
0
0
0
0
0
0
0
0
0
0
1
1
1
1
1
1
1
1
1
1
1
1
1
1
1
1
1
1
1
1
1
1
1
1
1
1
1
1
1
1
2
2
2
2
2
2
2
2
2
2
2
2
2
2
2
2
2
2
2
2
2
2
2
2
2
2
2
2
2
2
3
3
3
3
3
3
3
3
3
3
3
3
3
3
3
3
3
3
3
3
3
3
3
3
3
3
3
3
3
3
4
4
4
4
4
4
4
4
4
4
4
4
4
4
4
4
4
4
4
4
4
4
4
4
4
4
4
4
4
4

LOOKUP_TABLE FreeFempp_table 5
1.00000000 0.00000000 0.00000000 1.00000000
1.00000000 1.00000000 0.00000000 1.00000000
1.00000000 0.00000000 1.00000000 1.00000000
0.00000000 1.00000000 0.00000000 1.00000000
0.00000000 1.00000000 1.00000000 1.00000000

POINT_DATA 961
FIELD FieldData 1
Density 1 961 float
1.86810583e-01 1.79804787e-01 1.88217774e-01 1.90519020e-01 2.00537622e-01 1.60350412e-01 4.75641042e-02 1.95256770e-02 1.25648472e-02 1.11743771e-02 1.42414002e-02 2.51677483e-02 1.88926429e-01 2.01677084e-01 2.18717068e-01 3.05745155e-01 4.61881548e-01 5.72468877e-01 6.28943503e-01 6.54403389e-01 6.77828193e-01 7.34416962e-01 8.01357269e-01 8.43015671e-01 8.74770164e-01 8.96890461e-01 9.02975738e-01 7.68985212e-01 2.43724231e-02 3.65298167e-02 2.99004674e-01 1.47563778e-02 5.59790526e-03 2.71857763e-03 2.74356664e-03 3.13929725e-03 6.77713333e-03 1.43325441e-02 1.81825124e-02 1.53952902e-02 1.15932822e-02 1.13915838e-02 1.04623167e-02 1.27752423e-02 1.83828305e-02 2.08874512e-02 3.70462500e-02 1.28157884e-01 1.98090538e-01 4.24839407e-01 5.05220950e-01 4.88201886e-01 4.99192357e-01 6.27596915e-01 7.42291987e-01 8.22101414e-01 8.81116569e-01 9.06205118e-01 8.35618913e-01 2.72923280e-02 1.41630676e-02 1.44677758e-01 2.12210603e-02 8.75437073e-03 3.53642600e-03 2.81244703e-03 3.03729135e-03 4.35910420e-03 1.08632110e-02 1.78511292e-02 4.25368287e-02 1.44057840e-01 1.50457218e-01 5.53259365e-02 1.94276124e-02 1.80068556e-02 1.57994665e-02 1.37483189e-02 1.70946307e-02 3.01593635e-02 1.28119051e-01 1.62932172e-01 2.28248060e-01 2.96208739e-01 4.11756396e-01 6.14684224e-01 7.97115266e-01 8.81236434e-01 9.03575182e-01 8.09636891e-01 1.13110729e-01 1.53590087e-02 2.64984276e-02 1.14860490e-01 5.59694469e-02 6.84261993e-02 9.62446481e-02 1.30076587e-01 1.43032297e-01 1.26534119e-01 1.05925418e-01 1.11368813e-01 1.43957973e-01 1.82479396e-01 1.99730411e-01 1.74860001e-01 1.28587291e-01 1.19322062e-01 5.96677288e-02 2.48992816e-02 1.56558417e-02 1.74336806e-02 4.11266834e-02 1.23578593e-01 1.39545664e-01 2.50031441e-01 5.35168111e-01 7.87136853e-01 8.86424839e-01 9.06740189e-01 7.89071083e-01 1.15545608e-01 1.99183188e-02 2.07378399e-02 1.69318512e-01 9.75180566e-02 1.09425806e-01 1.21849045e-01 1.27681911e-01 1.31448746e-01 1.33585870e-01 1.46971732e-01 1.70916066e-01 2.00229764e-01 2.37992138e-01 2.76925117e-01 2.96180308e-01 2.79124171e-01 2.39367291e-01 1.94101706e-01 1.47787824e-01 1.25524357e-01 3.21908444e-02 2.25914679e-02 2.73354053e-02 7.07582906e-02 1.11731552e-01 1.91613182e-01 7.00604975e-01 8.85934055e-01 9.04104829e-01 7.60964990e-01 1.22411028e-01 1.96001120e-02 1.97694562e-02 1.84939459e-01 1.17209107e-01 1.18354656e-01 1.23198733e-01 1.21844761e-01 1.25817493e-01 1.38593972e-01 1.77203029e-01 2.31121108e-01 2.84308851e-01 3.33126158e-01 3.74092937e-01 3.98599476e-01 4.01926190e-01 3.89431417e-01 3.70563418e-01 3.38141769e-01 2.66866356e-01 1.67313635e-01 1.14534736e-01 4.10800092e-02 3.35964262e-02 5.57351597e-02 1.10196009e-01 3.69505823e-01 8.84877324e-01 9.01627958e-01 7.36078322e-01 1.35440394e-01 1.95369404e-02 1.97007358e-02 1.83875889e-01 1.28491923e-01 1.25725225e-01 1.26108646e-01 1.25656351e-01 1.31207198e-01 1.55337855e-01 2.29063004e-01 3.23419392e-01 4.00667131e-01 4.56936687e-01 4.96181607e-01 5.19486964e-01 5.28561831e-01 5.27834475e-01 5.21097839e-01 5.05067348e-01 4.69348013e-01 3.98697615e-01 2.42639750e-01 1.31084919e-01 9.48363245e-02 7.67314658e-02 9.27724093e-02 1.33823544e-01 8.83600831e-01 8.99823010e-01 7.34667361e-01 1.63348526e-01 1.95195600e-02 1.94134526e-02 1.85490564e-01 1.26229241e-01 1.27965897e-01 1.29508823e-01 1.34581879e-01 1.51896700e-01 2.07930431e-01 3.50740373e-01 4.86242115e-01 5.65055907e-01 6.08475924e-01 6.32685363e-01 6.44609869e-01 6.47965372e-01 6.45677090e-01 6.39156997e-01 6.26785755e-01 6.04316294e-01 5.63602328e-01 4.73146588e-01 3.00371498e-01 1.61835477e-01 1.19770274e-01 1.23586170e-01 1.59972146e-01 8.20974529e-01 9.08204675e-01 7.57339954e-01 2.27690831e-01 1.94530133e-02 1.87708773e-02 2.91365683e-01 1.28570497e-01 1.31654039e-01 1.42720446e-01 1.69826910e-01 2.55656570e-01 4.73181546e-01 6.56080961e-01 7.21701145e-01 7.43941367e-01 7.50743449e-01 7.50840664e-01 7.47234285e-01 7.41250694e-01 7.33765543e-01 7.25033402e-01 7.14241385e-01 6.99617326e-01 6.78062499e-01 6.42956793e-01 5.80906153e-01 4.63567019e-01 2.51498610e-01 1.70246929e-01 5.27789295e-01 8.85027885e-01 9.04557109e-01 8.03212225e-01 3.32277656e-01 1.99201796e-02 1.81225110e-02 7.57494628e-01 3.18946838e-01 2.78954476e-01 2.86100328e-01 4.93174225e-01 8.16726387e-01 8.62896025e-01 8.64300430e-01 8.56608808e-01 8.46185625e-01 8.34972203e-01 8.23657990e-01 8.12566757e-01 8.01804721e-01 7.91381836e-01 7.81108797e-01 7.70440817e-01 7.58563459e-01 7.44660318e-01 7.28598595e-01 7.11243272e-01 6.87376082e-01 6.06957138e-01 4.46472138e-01 7.18469560e-01 8.78606796e-01 8.91964614e-01 8.33558917e-01 4.47023541e-01 2.13438347e-02 1.82544570e-02 9.30875778e-01 9.06679749e-01 9.00048614e-01 9.12854135e-01 9.31964755e-01 9.39394653e-01 9.25952911e-01 9.09397662e-01 8.95010412e-01 8.82030487e-01 8.69709373e-01 8.57813656e-01 8.46372724e-01 8.35391760e-01 8.24746132e-01 8.14148962e-01 8.03129435e-01 7.91105628e-01 7.77665615e-01 7.63132453e-01 7.48842001e-01 7.35778034e-01 7.22262323e-01 7.27108002e-01 8.23460817e-01 8.83503377e-01 8.91146958e-01 8.49413514e-01 5.25233865e-01 2.38852128e-02 1.95714943e-02 9.53315020e-01 9.75064337e-01 9.67745602e-01 9.59920883e-01 9.52093661e-01 9.42828894e-01 9.29869115e-01 9.17301893e-01 9.04751182e-01 8.92817676e-01 8.81636322e-01 8.71177673e-01 8.61303449e-01 8.51790905e-01 8.42318714e-01 8.32494974e-01 8.21860671e-01 8.09897184e-01 7.96229124e-01 7.81089962e-01 7.65745521e-01 7.53449857e-01 7.53985167e-01 7.86392093e-01 8.45738173e-01 8.81812215e-01 8.87811959e-01 8.50537419e-01 5.40048420e-01 2.76655778e-02 2.22170129e-02 8.39557946e-01 9.21548843e-01 8.83222520e-01 8.99652421e-01 9.01521504e-01 9.04561102e-01 9.04271007e-01 9.01010990e-01 8.94902945e-01 8.87624204e-01 8.79974067e-01 8.72415721e-01 8.65087509e-01 8.57834458e-01 8.50334346e-01 8.42245042e-01 8.33259583e-01 8.23012531e-01 8.11211228e-01 7.98081875e-01 7.84849584e-01 7.74910688e-01 7.77586281e-01 8.05505633e-01 8.48403454e-01 8.77083540e-01 8.84188831e-01 8.45387936e-01 4.67900693e-01 3.29815038e-02 2.63519604e-02 2.90291727e-01 1.93601653e-01 2.19581947e-01 5.40174961e-01 8.07598531e-01 8.52919638e-01 8.67358506e-01 8.71684253e-01 8.71911824e-01 8.70322466e-01 8.67726922e-01 8.64530563e-01 8.60896707e-01 8.56771171e-01 8.52021039e-01 8.46589863e-01 8.40473413e-01 8.33576262e-01 8.25777292e-01 8.17345321e-01 8.09179366e-01 8.03046644e-01 8.03292632e-01 8.17824066e-01 8.47004235e-01 8.73811424e-01 8.82402539e-01 8.32303226e-01 2.77812570e-01 4.18948494e-02 3.33784334e-02 1.94595307e-01 1.18348710e-01 1.28093153e-01 2.05886632e-01 6.06037796e-01 7.73353696e-01 8.12891126e-01 8.28761816e-01 8.37408125e-01 8.43130469e-01 8.47014010e-01 8.49401295e-01 8.50423336e-01 8.50177705e-01 8.48843038e-01 8.46757650e-01 8.44448388e-01 8.41831505e-01 8.38969231e-01 8.36220205e-01 8.34158778e-01 8.33168030e-01 8.33536923e-01 8.36918473e-01 8.48302662e-01 8.71925712e-01 8.83954704e-01 7.85011232e-01 1.29419059e-01 5.47419079e-02 4.83881682e-02 1.52125761e-01 9.04374048e-02 1.05150990e-01 2.09033206e-01 5.96565485e-01 7.08688140e-01 7.39189863e-01 7.65956342e-01 7.87870586e-01 8.05175781e-01 8.18385243e-01 8.28043103e-01 8.34697723e-01 8.38967502e-01 8.41532767e-01 8.43432724e-01 8.45161855e-01 8.47004473e-01 8.48974586e-01 8.51568043e-01 8.55138361e-01 8.59463751e-01 8.63517761e-01 8.65799844e-01 8.65102053e-01 8.61588001e-01 8.43427539e-01 5.09452760e-01 1.02654457e-01 7.20343888e-02 8.00094381e-02 8.51474553e-02 6.55186549e-02 8.97731036e-02 3.23523521e-01 6.86804950e-01 7.12739825e-01 6.88822448e-01 7.01625288e-01 7.30764449e-01 7.59820223e-01 7.83618271e-01 8.01539421e-01 8.14452708e-01 8.23672295e-01 8.30618083e-01 8.36532652e-01 8.42349470e-01 8.48164558e-01 8.54366541e-01 8.61480534e-01 8.69792283e-01 8.78988862e-01 8.87956560e-01 8.94494534e-01 8.94332588e-01 8.77563000e-01 7.82805204e-01 2.93066472e-01 1.14072107e-01 9.82179865e-02 1.48626685e-01 4.96596321e-02 5.08104227e-02 9.89513546e-02 4.88202363e-01 7.17094541e-01 7.03202248e-01 6.58792078e-01 6.55226231e-01 6.82134390e-01 7.16767013e-01 7.47895539e-01 7.72447228e-01 7.90842772e-01 8.04683149e-01 8.15793753e-01 8.25648367e-01 8.35040331e-01 8.44368875e-01 8.54082823e-01 8.64720702e-01 8.76639366e-01 8.89802277e-01 9.03525591e-01 9.15843248e-01 9.22736049e-01 9.16370630e-01 8.75416815e-01 6.95474446e-01 2.04926804e-01 1.33884877e-01 1.95992738e-01 3.54548730e-02 4.08349633e-02 1.60933807e-01 6.10576391e-01 7.17652261e-01 6.75353110e-01 6.24273002e-01 6.18030250e-01 6.44959509e-01 6.81760430e-01 7.15902150e-01 7.43650675e-01 7.65232027e-01 7.82249510e-01 7.96532393e-01 8.09530795e-01 8.22049975e-01 8.34470093e-01 8.47145677e-01 8.60449970e-01 8.74734819e-01 8.90345454e-01 9.07173872e-01 9.23692822e-01 9.37133431e-01 9.45393384e-01 9.47404146e-01 9.40003335e-01 9.34696436e-01 9.29301918e-01 6.31835639e-01 2.73572598e-02 3.29662263e-02 2.82920867e-01 6.89524055e-01 7.05491900e-01 6.30065084e-01 5.76286495e-01 5.78185499e-01 6.12188160e-01 6.52484119e-01 6.87693417e-01 7.15781629e-01 7.37941027e-01 7.56062329e-01 7.71924555e-01 7.86862969e-01 8.01644325e-01 8.16606045e-01 8.31884861e-01 8.47506046e-01 8.63546252e-01 8.80459845e-01 8.98639441e-01 9.16875422e-01 9.32992339e-01 9.47085261e-01 9.60235715e-01 9.70055461e-01 9.80947316e-01 9.85128999e-01 9.73151147e-01 2.30904073e-02 2.81008948e-02 4.17455941e-01 7.35220909e-01 6.67682230e-01 5.55596471e-01 5.09901047e-01 5.30686140e-01 5.78443885e-01 6.24453247e-01 6.60158098e-01 6.86874151e-01 7.07665443e-01 7.25027919e-01 7.40745544e-01 7.56037354e-01 7.71630645e-01 7.87856579e-01 8.04768085e-01 8.22223961e-01 8.40106428e-01 8.58685136e-01 8.78188550e-01 8.96949112e-01 9.12086666e-01 9.23917949e-01 9.33144271e-01 9.27528501e-01 9.10822988e-01 5.49914539e-01 9.24808025e-01 2.04195119e-02 2.52591595e-02 5.35423994e-01 7.47953236e-01 5.67205906e-01 4.32375908e-01 4.19448555e-01 4.72211212e-01 5.40873528e-01 5.94513416e-01 6.30021155e-01 6.54057920e-01 6.72209859e-01 6.87579036e-01 7.01791286e-01 7.15790391e-01 7.30134308e-01 7.45070755e-01 7.60618448e-01 7.76778400e-01 7.93947339e-01 8.13187301e-01 8.35142851e-01 8.56521845e-01 8.67640793e-01 8.58340323e-01 8.01531911e-01 4.86871064e-01 1.83508381e-01 1.26674801e-01 2.26103216e-01 1.86346509e-02 2.30947398e-02 6.35291159e-01 6.98029578e-01 3.27546388e-01 2.59374231e-01 3.04010183e-01 4.01086956e-01 4.98838603e-01 5.61612070e-01 5.95492065e-01 6.15375578e-01 6.29955113e-01 6.42644286e-01 6.54512048e-01 6.65893495e-01 6.76858783e-01 6.87181532e-01 6.96298659e-01 7.03754246e-01 7.10457087e-01 7.19627380e-01 7.34150887e-01 7.49429703e-01 7.12913096e-01 4.50591654e-01 1.82231814e-01 1.39364854e-01 1.24408737e-01 1.04667120e-01 1.70541719e-01 1.78284831e-02 2.10399292e-02 6.63976610e-01 4.21916664e-01 1.31092027e-01 1.44815832e-01 1.90625265e-01 3.21057290e-01 4.55521017e-01 5.27552128e-01 5.57165146e-01 5.71141005e-01 5.81398845e-01 5.91040492e-01 6.00103974e-01 6.08022749e-01 6.14116788e-01 6.17272973e-01 6.15490198e-01 6.06366575e-01 5.90201199e-01 5.74138641e-01 5.67013085e-01 5.71699321e-01 5.51442742e-01 2.52261311e-01 1.29745007e-01 1.10822469e-01 1.13268040e-01 9.96787325e-02 1.59532890e-01 1.85091235e-02 1.97919272e-02 6.59819841e-01 9.42366645e-02 8.63676444e-02 1.46027356e-01 1.40675411e-01 2.39113748e-01 4.16224003e-01 4.96751815e-01 5.18147945e-01 5.24393797e-01 5.29806972e-01 5.36167026e-01 5.42089701e-01 5.46054363e-01 5.46685219e-01 5.42041779e-01 5.28496444e-01 5.00768185e-01 4.57652628e-01 4.11177725e-01 3.78249794e-01 3.72144729e-01 4.15618032e-01 3.62771541e-01 1.31451473e-01 7.87547156e-02 7.76990056e-02 9.75983515e-02 1.62768066e-01 2.13676691e-02 2.05437969e-02 6.93104267e-01 4.38972786e-02 3.10805012e-02 9.51295942e-02 1.46653861e-01 1.99373782e-01 3.91157329e-01 4.72937435e-01 4.81563926e-01 4.79038864e-01 4.79662031e-01 4.82687801e-01 4.85171765e-01 4.84895140e-01 4.80182022e-01 4.68910784e-01 4.46882337e-01 4.06619489e-01 3.44716966e-01 2.77437866e-01 2.24373922e-01 1.99203074e-01 2.02130318e-01 3.13172191e-01 2.17196018e-01 1.12564653e-01 7.41529018e-02 6.98212683e-02 1.57688305e-01 2.84266695e-02 2.21729092e-02 6.34017348e-01 1.62453488e-01 2.24048290e-02 2.42285617e-02 1.46597371e-01 1.87638924e-01 3.72375578e-01 4.48414922e-01 4.44957078e-01 4.36123431e-01 4.33634490e-01 4.33898658e-01 4.32940125e-01 4.28463101e-01 4.19070780e-01 4.03264910e-01 3.78034979e-01 3.36249322e-01 2.69604206e-01 1.95242628e-01 1.62787929e-01 1.58563778e-01 1.11358128e-01 1.51275322e-01 2.37977728e-01 2.10446611e-01 1.17796682e-01 8.30103159e-02 1.49850562e-01 3.68644893e-02 1.96817033e-02 2.13478148e-01 6.11757874e-01 3.77438739e-02 1.29824076e-02 4.55121212e-02 1.76603034e-01 3.45049530e-01 4.11064059e-01 4.03256744e-01 3.94609630e-01 3.92191827e-01 3.90798897e-01 3.86767805e-01 3.78607243e-01 3.65702361e-01 3.47470939e-01 3.22754294e-01 2.87600130e-01 2.31245533e-01 1.58163384e-01 1.35934159e-01 1.61478922e-01 1.21976160e-01 1.06026448e-01 2.19380572e-01 3.02606940e-01 3.19534302e-01 1.20544925e-01 1.69140607e-01 8.66619587e-01 2.47032139e-02 3.12452260e-02 8.29280674e-01 1.27788097e-01 1.08360033e-02 1.79530010e-02 1.69181094e-01 2.87492543e-01 3.53141338e-01 3.56990814e-01 3.56318116e-01 3.56361061e-01 3.53686512e-01 3.46713066e-01 3.35379958e-01 3.19978654e-01 3.00637931e-01 2.77295977e-01 2.49255314e-01 2.10861355e-01 1.51005074e-01 1.12924159e-01 1.86105967e-01 2.42174834e-01 9.44261104e-02 2.03586116e-01 4.05751556e-01 2.48736784e-01 1.98324263e-01 2.03896314e-01 8.17956686e-01 6.83515966e-01 4.67679091e-02 1.98953852e-01 3.70739907e-01 3.66615667e-03 8.06995109e-03 2.03241408e-01 2.45710254e-01 3.16105038e-01 3.37278575e-01 3.42109561e-01 3.41125309e-01 3.34920108e-01 3.23744655e-01 3.07763875e-01 2.86912918e-01 2.61173040e-01 2.31176347e-01 1.99112758e-01 1.68111593e-01 1.35597453e-01 1.01238370e-01 9.04570296e-02 7.95210153e-02 2.22156644e-01 1.24941289e-01 4.05457258e-01 3.29650968e-01 4.21238154e-01 7.00506926e-01 5.50137997e-01 3.40424567e-01 7.54077315e-01 6.25014842e-01 6.97491705e-01 8.24492145e-03 8.64509679e-03 2.45137841e-01 5.51677883e-01 5.98265171e-01 6.02158904e-01 5.91931343e-01 5.81255138e-01 5.70365727e-01 5.57947099e-01 5.42074561e-01 5.20320356e-01 4.89809990e-01 4.47746903e-01 3.93572509e-01 3.33489656e-01 2.78031647e-01 2.21948311e-01 1.70631647e-01 2.37681851e-01 3.21895927e-01 1.94593981e-01 3.84207904e-01 5.11216581e-01 8.07353795e-01 8.11339319e-01 
