# vtk DataFile Version 2.0
results/1_density.vtk, Created by Freefem++ 
ASCII
DATASET UNSTRUCTURED_GRID
POINTS 961 float
0 0 0
0.033333333 0 0
0.066666667 0 0
0.1 0 0
0.13333333 0 0
0.16666667 0 0
0.2 0 0
0.23333333 0 0
0.26666667 0 0
0.3 0 0
0.33333333 0 0
0.36666667 0 0
0.4 0 0
0.43333333 0 0
0.46666667 0 0
0.5 0 0
0.53333333 0 0
0.56666667 0 0
0.6 0 0
0.63333333 0 0
0.66666667 0 0
0.7 0 0
0.73333333 0 0
0.76666667 0 0
0.8 0 0
0.83333333 0 0
0.86666667 0 0
0.9 0 0
0.93333333 0 0
0.96666667 0 0
1 0 0
0 0.033333333 0
0.033333333 0.033333333 0
0.066666667 0.033333333 0
0.1 0.033333333 0
0.13333333 0.033333333 0
0.16666667 0.033333333 0
0.2 0.033333333 0
0.23333333 0.033333333 0
0.26666667 0.033333333 0
0.3 0.033333333 0
0.33333333 0.033333333 0
0.36666667 0.033333333 0
0.4 0.033333333 0
0.43333333 0.033333333 0
0.46666667 0.033333333 0
0.5 0.033333333 0
0.53333333 0.033333333 0
0.56666667 0.033333333 0
0.6 0.033333333 0
0.63333333 0.033333333 0
0.66666667 0.033333333 0
0.7 0.033333333 0
0.73333333 0.033333333 0
0.76666667 0.033333333 0
0.8 0.033333333 0
0.83333333 0.033333333 0
0.86666667 0.033333333 0
0.9 0.033333333 0
0.93333333 0.033333333 0
0.96666667 0.033333333 0
1 0.033333333 0
0 0.066666667 0
0.033333333 0.066666667 0
0.066666667 0.066666667 0
0.1 0.066666667 0
0.13333333 0.066666667 0
0.16666667 0.066666667 0
0.2 0.066666667 0
0.23333333 0.066666667 0
0.26666667 0.066666667 0
0.3 0.066666667 0
0.33333333 0.066666667 0
0.36666667 0.066666667 0
0.4 0.066666667 0
0.43333333 0.066666667 0
0.46666667 0.066666667 0
0.5 0.066666667 0
0.53333333 0.066666667 0
0.56666667 0.066666667 0
0.6 0.066666667 0
0.63333333 0.066666667 0
0.66666667 0.066666667 0
0.7 0.066666667 0
0.73333333 0.066666667 0
0.76666667 0.066666667 0
0.8 0.066666667 0
0.83333333 0.066666667 0
0.86666667 0.066666667 0
0.9 0.066666667 0
0.93333333 0.066666667 0
0.96666667 0.066666667 0
1 0.066666667 0
0 0.1 0
0.033333333 0.1 0
0.066666667 0.1 0
0.1 0.1 0
0.13333333 0.1 0
0.16666667 0.1 0
0.2 0.1 0
0.23333333 0.1 0
0.26666667 0.1 0
0.3 0.1 0
0.33333333 0.1 0
0.36666667 0.1 0
0.4 0.1 0
0.43333333 0.1 0
0.46666667 0.1 0
0.5 0.1 0
0.53333333 0.1 0
0.56666667 0.1 0
0.6 0.1 0
0.63333333 0.1 0
0.66666667 0.1 0
0.7 0.1 0
0.73333333 0.1 0
0.76666667 0.1 0
0.8 0.1 0
0.83333333 0.1 0
0.86666667 0.1 0
0.9 0.1 0
0.93333333 0.1 0
0.96666667 0.1 0
1 0.1 0
0 0.13333333 0
0.033333333 0.13333333 0
0.066666667 0.13333333 0
0.1 0.13333333 0
0.13333333 0.13333333 0
0.16666667 0.13333333 0
0.2 0.13333333 0
0.23333333 0.13333333 0
0.26666667 0.13333333 0
0.3 0.13333333 0
0.33333333 0.13333333 0
0.36666667 0.13333333 0
0.4 0.13333333 0
0.43333333 0.13333333 0
0.46666667 0.13333333 0
0.5 0.13333333 0
0.53333333 0.13333333 0
0.56666667 0.13333333 0
0.6 0.13333333 0
0.63333333 0.13333333 0
0.66666667 0.13333333 0
0.7 0.13333333 0
0.73333333 0.13333333 0
0.76666667 0.13333333 0
0.8 0.13333333 0
0.83333333 0.13333333 0
0.86666667 0.13333333 0
0.9 0.13333333 0
0.93333333 0.13333333 0
0.96666667 0.13333333 0
1 0.13333333 0
0 0.16666667 0
0.033333333 0.16666667 0
0.066666667 0.16666667 0
0.1 0.16666667 0
0.13333333 0.16666667 0
0.16666667 0.16666667 0
0.2 0.16666667 0
0.23333333 0.16666667 0
0.26666667 0.16666667 0
0.3 0.16666667 0
0.33333333 0.16666667 0
0.36666667 0.16666667 0
0.4 0.16666667 0
0.43333333 0.16666667 0
0.46666667 0.16666667 0
0.5 0.16666667 0
0.53333333 0.16666667 0
0.56666667 0.16666667 0
0.6 0.16666667 0
0.63333333 0.16666667 0
0.66666667 0.16666667 0
0.7 0.16666667 0
0.73333333 0.16666667 0
0.76666667 0.16666667 0
0.8 0.16666667 0
0.83333333 0.16666667 0
0.86666667 0.16666667 0
0.9 0.16666667 0
0.93333333 0.16666667 0
0.96666667 0.16666667 0
1 0.16666667 0
0 0.2 0
0.033333333 0.2 0
0.066666667 0.2 0
0.1 0.2 0
0.13333333 0.2 0
0.16666667 0.2 0
0.2 0.2 0
0.23333333 0.2 0
0.26666667 0.2 0
0.3 0.2 0
0.33333333 0.2 0
0.36666667 0.2 0
0.4 0.2 0
0.43333333 0.2 0
0.46666667 0.2 0
0.5 0.2 0
0.53333333 0.2 0
0.56666667 0.2 0
0.6 0.2 0
0.63333333 0.2 0
0.66666667 0.2 0
0.7 0.2 0
0.73333333 0.2 0
0.76666667 0.2 0
0.8 0.2 0
0.83333333 0.2 0
0.86666667 0.2 0
0.9 0.2 0
0.93333333 0.2 0
0.96666667 0.2 0
1 0.2 0
0 0.23333333 0
0.033333333 0.23333333 0
0.066666667 0.23333333 0
0.1 0.23333333 0
0.13333333 0.23333333 0
0.16666667 0.23333333 0
0.2 0.23333333 0
0.23333333 0.23333333 0
0.26666667 0.23333333 0
0.3 0.23333333 0
0.33333333 0.23333333 0
0.36666667 0.23333333 0
0.4 0.23333333 0
0.43333333 0.23333333 0
0.46666667 0.23333333 0
0.5 0.23333333 0
0.53333333 0.23333333 0
0.56666667 0.23333333 0
0.6 0.23333333 0
0.63333333 0.23333333 0
0.66666667 0.23333333 0
0.7 0.23333333 0
0.73333333 0.23333333 0
0.76666667 0.23333333 0
0.8 0.23333333 0
0.83333333 0.23333333 0
0.86666667 0.23333333 0
0.9 0.23333333 0
0.93333333 0.23333333 0
0.96666667 0.23333333 0
1 0.23333333 0
0 0.26666667 0
0.033333333 0.26666667 0
0.066666667 0.26666667 0
0.1 0.26666667 0
0.13333333 0.26666667 0
0.16666667 0.26666667 0
0.2 0.26666667 0
0.23333333 0.26666667 0
0.26666667 0.26666667 0
0.3 0.26666667 0
0.33333333 0.26666667 0
0.36666667 0.26666667 0
0.4 0.26666667 0
0.43333333 0.26666667 0
0.46666667 0.26666667 0
0.5 0.26666667 0
0.53333333 0.26666667 0
0.56666667 0.26666667 0
0.6 0.26666667 0
0.63333333 0.26666667 0
0.66666667 0.26666667 0
0.7 0.26666667 0
0.73333333 0.26666667 0
0.76666667 0.26666667 0
0.8 0.26666667 0
0.83333333 0.26666667 0
0.86666667 0.26666667 0
0.9 0.26666667 0
0.93333333 0.26666667 0
0.96666667 0.26666667 0
1 0.26666667 0
0 0.3 0
0.033333333 0.3 0
0.066666667 0.3 0
0.1 0.3 0
0.13333333 0.3 0
0.16666667 0.3 0
0.2 0.3 0
0.23333333 0.3 0
0.26666667 0.3 0
0.3 0.3 0
0.33333333 0.3 0
0.36666667 0.3 0
0.4 0.3 0
0.43333333 0.3 0
0.46666667 0.3 0
0.5 0.3 0
0.53333333 0.3 0
0.56666667 0.3 0
0.6 0.3 0
0.63333333 0.3 0
0.66666667 0.3 0
0.7 0.3 0
0.73333333 0.3 0
0.76666667 0.3 0
0.8 0.3 0
0.83333333 0.3 0
0.86666667 0.3 0
0.9 0.3 0
0.93333333 0.3 0
0.96666667 0.3 0
1 0.3 0
0 0.33333333 0
0.033333333 0.33333333 0
0.066666667 0.33333333 0
0.1 0.33333333 0
0.13333333 0.33333333 0
0.16666667 0.33333333 0
0.2 0.33333333 0
0.23333333 0.33333333 0
0.26666667 0.33333333 0
0.3 0.33333333 0
0.33333333 0.33333333 0
0.36666667 0.33333333 0
0.4 0.33333333 0
0.43333333 0.33333333 0
0.46666667 0.33333333 0
0.5 0.33333333 0
0.53333333 0.33333333 0
0.56666667 0.33333333 0
0.6 0.33333333 0
0.63333333 0.33333333 0
0.66666667 0.33333333 0
0.7 0.33333333 0
0.73333333 0.33333333 0
0.76666667 0.33333333 0
0.8 0.33333333 0
0.83333333 0.33333333 0
0.86666667 0.33333333 0
0.9 0.33333333 0
0.93333333 0.33333333 0
0.96666667 0.33333333 0
1 0.33333333 0
0 0.36666667 0
0.033333333 0.36666667 0
0.066666667 0.36666667 0
0.1 0.36666667 0
0.13333333 0.36666667 0
0.16666667 0.36666667 0
0.2 0.36666667 0
0.23333333 0.36666667 0
0.26666667 0.36666667 0
0.3 0.36666667 0
0.33333333 0.36666667 0
0.36666667 0.36666667 0
0.4 0.36666667 0
0.43333333 0.36666667 0
0.46666667 0.36666667 0
0.5 0.36666667 0
0.53333333 0.36666667 0
0.56666667 0.36666667 0
0.6 0.36666667 0
0.63333333 0.36666667 0
0.66666667 0.36666667 0
0.7 0.36666667 0
0.73333333 0.36666667 0
0.76666667 0.36666667 0
0.8 0.36666667 0
0.83333333 0.36666667 0
0.86666667 0.36666667 0
0.9 0.36666667 0
0.93333333 0.36666667 0
0.96666667 0.36666667 0
1 0.36666667 0
0 0.4 0
0.033333333 0.4 0
0.066666667 0.4 0
0.1 0.4 0
0.13333333 0.4 0
0.16666667 0.4 0
0.2 0.4 0
0.23333333 0.4 0
0.26666667 0.4 0
0.3 0.4 0
0.33333333 0.4 0
0.36666667 0.4 0
0.4 0.4 0
0.43333333 0.4 0
0.46666667 0.4 0
0.5 0.4 0
0.53333333 0.4 0
0.56666667 0.4 0
0.6 0.4 0
0.63333333 0.4 0
0.66666667 0.4 0
0.7 0.4 0
0.73333333 0.4 0
0.76666667 0.4 0
0.8 0.4 0
0.83333333 0.4 0
0.86666667 0.4 0
0.9 0.4 0
0.93333333 0.4 0
0.96666667 0.4 0
1 0.4 0
0 0.43333333 0
0.033333333 0.43333333 0
0.066666667 0.43333333 0
0.1 0.43333333 0
0.13333333 0.43333333 0
0.16666667 0.43333333 0
0.2 0.43333333 0
0.23333333 0.43333333 0
0.26666667 0.43333333 0
0.3 0.43333333 0
0.33333333 0.43333333 0
0.36666667 0.43333333 0
0.4 0.43333333 0
0.43333333 0.43333333 0
0.46666667 0.43333333 0
0.5 0.43333333 0
0.53333333 0.43333333 0
0.56666667 0.43333333 0
0.6 0.43333333 0
0.63333333 0.43333333 0
0.66666667 0.43333333 0
0.7 0.43333333 0
0.73333333 0.43333333 0
0.76666667 0.43333333 0
0.8 0.43333333 0
0.83333333 0.43333333 0
0.86666667 0.43333333 0
0.9 0.43333333 0
0.93333333 0.43333333 0
0.96666667 0.43333333 0
1 0.43333333 0
0 0.46666667 0
0.033333333 0.46666667 0
0.066666667 0.46666667 0
0.1 0.46666667 0
0.13333333 0.46666667 0
0.16666667 0.46666667 0
0.2 0.46666667 0
0.23333333 0.46666667 0
0.26666667 0.46666667 0
0.3 0.46666667 0
0.33333333 0.46666667 0
0.36666667 0.46666667 0
0.4 0.46666667 0
0.43333333 0.46666667 0
0.46666667 0.46666667 0
0.5 0.46666667 0
0.53333333 0.46666667 0
0.56666667 0.46666667 0
0.6 0.46666667 0
0.63333333 0.46666667 0
0.66666667 0.46666667 0
0.7 0.46666667 0
0.73333333 0.46666667 0
0.76666667 0.46666667 0
0.8 0.46666667 0
0.83333333 0.46666667 0
0.86666667 0.46666667 0
0.9 0.46666667 0
0.93333333 0.46666667 0
0.96666667 0.46666667 0
1 0.46666667 0
0 0.5 0
0.033333333 0.5 0
0.066666667 0.5 0
0.1 0.5 0
0.13333333 0.5 0
0.16666667 0.5 0
0.2 0.5 0
0.23333333 0.5 0
0.26666667 0.5 0
0.3 0.5 0
0.33333333 0.5 0
0.36666667 0.5 0
0.4 0.5 0
0.43333333 0.5 0
0.46666667 0.5 0
0.5 0.5 0
0.53333333 0.5 0
0.56666667 0.5 0
0.6 0.5 0
0.63333333 0.5 0
0.66666667 0.5 0
0.7 0.5 0
0.73333333 0.5 0
0.76666667 0.5 0
0.8 0.5 0
0.83333333 0.5 0
0.86666667 0.5 0
0.9 0.5 0
0.93333333 0.5 0
0.96666667 0.5 0
1 0.5 0
0 0.53333333 0
0.033333333 0.53333333 0
0.066666667 0.53333333 0
0.1 0.53333333 0
0.13333333 0.53333333 0
0.16666667 0.53333333 0
0.2 0.53333333 0
0.23333333 0.53333333 0
0.26666667 0.53333333 0
0.3 0.53333333 0
0.33333333 0.53333333 0
0.36666667 0.53333333 0
0.4 0.53333333 0
0.43333333 0.53333333 0
0.46666667 0.53333333 0
0.5 0.53333333 0
0.53333333 0.53333333 0
0.56666667 0.53333333 0
0.6 0.53333333 0
0.63333333 0.53333333 0
0.66666667 0.53333333 0
0.7 0.53333333 0
0.73333333 0.53333333 0
0.76666667 0.53333333 0
0.8 0.53333333 0
[...]
CELL_DATA 1920
Scalars  Label int 1
LOOKUP_TABLE FreeFempp_table
0
0
0
0
0
0
0
0
0
0
0
0
0
0
0
0
0
0
0
0
0
0
0
0
0
0
0
0
0
0
0
0
0
0
0
0
0
0
0
0
0
0
0
0
0
0
0
0
0
0
0
0
0
0
0
0
0
0
0
0
0
0
0
0
0
0
0
0
0
0
0
0
0
0
0
0
0
0
0
0
0
0
0
0
0
0
0
0
0
0
0
0
0
0
0
0
0
0
0
0
0
0
0
0
0
0
0
0
0
0
0
0
0
0
0
0
0
0
0
0
0
0
0
0
0
0
0
0
0
0
0
0
0
0
0
0
0
0
0
0
0
0
0
0
0
0
0
0
0
0
0
0
0
0
0
0
0
0
0
0
0
0
0
0
0
0
0
0
0
0
0
0
0
0
0
0
0
0
0
0
0
0
0
0
0
0
0
0
0
0
0
0
0
0
0
0
0
0
0
0
0
0
0
0
0
0
0
0
0
0
0
0
0
0
0
0
0
0
0
0
0
0
0
0
0
0
0
0
0
0
0
0
0
0
0
0
0
0
0
0
0
0
0
0
0
0
0
0
0
0
0
0
0
0
0
0
0
0
0
0
0
0
0
0
0
0
0
0
0
0
0
0
0
0
0
0
0
0
0
0
0
0
0
0
0
0
0
0
0
0
0
0
0
0
0
0
0
0
0
0
0
0
0
0
0
0
0
0
0
0
0
0
0
0
0
0
0
0
0
0
0
0
0
0
0
0
0
0
0
0
0
0
0
0
0
0
0
0
0
0
0
0
0
0
0
0
0
0
0
0
0
0
0
0
0
0
0
0
0
0
0
0
0
0
0
0
0
0
0
0
0
0
0
0
0
0
0
0
0
0
0
0
0
0
0
0
0
0
0
0
0
0
0
0
0
0
0
0
0
0
0
0
0
0
0
0
0
0
0
0
0
0
0
0
0
0
0
0
0
0
0
0
0
0
0
0
0
0
0
0
0
0
0
0
0
0
0
0
0
0
0
0
0
0
0
0
0
0
0
0
0
0
0
0
0
0
0
0
0
0
0
0
0
0
0
0
0
0
0
0
0
0
0
0
0
0
0
0
0
0
0
0
0
0
0
0
0
0
0
0
0
0
0
0
0
0
0
0
0
0
0
0
0
0
0
0
0
0
0
0
0
0
0
0
0
0
0
0
0
0
0
0
0
0
0
0
0
0
0
0
0
0
0
0
0
0
0
0
0
0
0
0
0
0
0
0
0
0
0
0
0
0
0
0
0
0
0
0
0
0
0
0
0
0
0
0
0
0
0
0
0
0
0
0
0
0
0
0
0
0
0
0
0
0
0
0
0
0
0
0
0
0
0
0
0
0
0
0
0
0
0
0
0
0
0
0
0
0
0
0
0
0
0
0
0
0
0
0
0
0
0
0
0
0
0
0
0
0
0
0
0
0
0
0
0
0
0
0
0
0
0
0
0
0
0
0
0
0
0
0
0
0
0
0
0
0
0
0
0
0
0
0
0
0
0
0
0
0
0
0
0
0
0
0
0
0
0
0
0
0
0
0
0
0
0
0
0
0
0
0
0
0
0
0
0
0
0
0
0
0
0
0
0
0
0
0
0
0
0
0
0
0
0
0
0
0
0
0
0
0
0
0
0
0
0
0
0
0
0
0
0
0
0
0
0
0
0
0
0
0
0
0
0
0
0
0
0
0
0
0
0
0
0
0
0
0
0
0
0
0
0
0
0
0
0
0
0
0
0
0
0
0
0
0
0
0
0
0
0
0
0
0
0
0
0
0
0
0
0
0
0
0
0
0
0
0
0
0
0
0
0
0
0
0
0
0
0
0
0
0
0
0
0
0
0
0
0
0
0
0
0
0
0
0
0
0
0
0
0
0
0
0
0
0
0
0
0
0
0
0
0
0
0
0
0
0
0
0
0
0
0
0
0
0
0
0
0
0
0
0
0
0
0
0
0
0
0
0
0
0
0
0
0
0
0
0
0
0
0
0
0
0
0
0
0
0
0
0
0
0
0
0
0
0
0
0
0
0
0
0
0
0
0
0
0
0
0
0
0
0
0
0
0
0
0
0
0
0
0
0
0
0
0
0
0
0
0
0
0
0
0
0
0
0
0
0
0
0
0
0
0
0
0
0
0
0
0
0
0
0
0
0
0
0
0
0
0
0
0
0
0
0
0
0
0
0
0
0
0
0
0
0
0
0
0
0
0
0
0
0
0
0
0
0
0
0
0
0
0
0
0
0
0
0
0
0
0
0
0
0
0
0
0
0
0
0
0
0
0
0
0
0
0
0
0
0
0
0
0
0
0
0
0
0
0
0
0
0
0
0
0
0
0
0
0
0
0
0
0
0
0
0
0
0
0
0
0
0
0
0
0
0
0
0
0
0
0
0
0
0
0
0
0
0
0
0
0
0
0
0
0
0
0
0
0
0
0
0
0
0
0
0
0
0
0
0
0
0
0
0
0
0
0
0
0
0
0
0
0
0
0
0
0
0
0
0
0
0
0
0
0
0
0
0
0
0
0
0
0
0
0
0
0
0
0
0
0
0
0
0
0
0
0
0
0
0
0
0
0
0
0
0
0
0
0
0
0
0
0
0
0
0
0
0
0
0
0
0
0
0
0
0
0
0
0
0
0
0
0
0
0
0
0
0
0
0
0
0
0
0
0
0
0
0
0
0
0
0
0
0
0
0
0
0
0
0
0
0
0
0
0
0
0
0
0
0
0
0
0
0
0
0
0
0
0
0
0
0
0
0
0
0
0
0
0
0
0
0
0
0
0
0
0
0
0
0
0
0
0
0
0
0
0
0
0
0
0
0
0
0
0
0
0
0
0
0
0
0
0
0
0
0
0
0
0
0
0
0
0
0
0
0
0
0
0
0
0
0
0
0
0
0
0
0
0
0
0
0
0
0
0
0
0
0
0
0
0
0
0
0
0
0
0
0
0
0
0
0
0
0
0
0
0
0
0
0
0
0
0
0
0
0
0
0
0
0
0
0
0
0
0
0
0
0
0
0
0
0
0
0
0
0
0
0
0
0
0
0
0
0
0
0
0
0
0
0
0
0
0
0
0
0
0
0
0
0
0
0
0
0
0
0
0
0
0
0
0
0
0
0
0
0
0
0
0
0
0
0
0
0
0
0
0
0
0
0
0
0
0
0
0
0
0
0
0
0
0
0
0
0
0
0
0
0
0
0
0
0
0
0
0
0
0
0
0
0
0
0
0
0
0
0
0
0
0
0
0
0
0
0
0
0
0
0
0
0
0
0
0
0
0
0
0
0
0
0
0
0
0
0
0
0
0
0
0
0
0
0
0
0
0
0
0
0
0
0
0
0
0
0
0
0
0
0
0
0
0
0
0
0
0
0
0
0
0
0
0
0
0
0
0
0
0
0
0
0
0
0
0
0
0
0
0
0
0
0
0
0
0
0
0
0
0
0
0
0
0
0
0
0
0
0
0
0
0
0
0
0
0
0
0
0
0
0
0
0
0
0
0
0
0
0
0
0
0
0
0
0
0
0
0
0
0
0
0
0
0
0
0
0
0
0
0
0
0
0
0
0
0
0
0
0
0
0
0
0
0
0
0
0
0
0
0
0
0
0
0
0
0
0
0
0
0
0
0
0
0
0
0
0
0
0
0
0
0
0
0
0
0
0
0
0
0
0
0
0
0
0
0
0
0
0
0
0
0
0
0
0
0
0
0
0
0
0
0
0
0
0
0
0
0
0
0
0
0
0
0
0
0
0
0
0
0
0
0
0
0
0
0
0
0
0
0
0
0
0
0
0
0
0
0
0
0
0
0
0
0
0
0
0
0
0
0
0
0
0
0
0
0
0
0
0
0
0
0
0
0
0
0
0
0
0
0
0
0
0
0
0
0
0
0
0
0
0
0
0
0
0
0
0
0
0
0
0
0
0
0
0
0
0
0
0
0
0
0
0
0
0
0
0
0
0
0
0
0
0
0
0
0
0
0
0
0
0
0
0
0
0
0
0
0
0
0
0
0
0
0
0
0
0
0
0
0
0
0
0
0
0
0
0
0
0
0
0
0
0
0
0
0
0
1
1
1
1
1
1
1
1
1
1
1
1
1
1
1
1
1
1
1
1
1
1
1
1
1
1
1
1
1
1
2
2
2
2
2
2
2
2
2
2
2
2
2
2
2
2
2
2
2
2
2
2
2
2
2
2
2
2
2
2
3
3
3
3
3
3
3
3
3
3
3
3
3
3
3
3
3
3
3
3
3
3
3
3
3
3
3
3
3
3
4
4
4
4
4
4
4
4
4
4
4
4
4
4
4
4
4
4
4
4
4
4
4
4
4
4
4
4
4
4

LOOKUP_TABLE FreeFempp_table 5
1.00000000 0.00000000 0.00000000 1.00000000
1.00000000 1.00000000 0.00000000 1.00000000
1.00000000 0.00000000 1.00000000 1.00000000
0.00000000 1.00000000 0.00000000 1.00000000
0.00000000 1.00000000 1.00000000 1.00000000

POINT_DATA 961
FIELD FieldData 1
Density 1 961 float
2.31385946e-01 2.53849268e-01 2.82866657e-01 2.91762710e-01 2.84783125e-01 2.69519687e-01 2.45004162e-01 2.05167145e-01 1.54054090e-01 1.27180487e-01 1.56933710e-01 2.46910855e-01 3.30713362e-01 3.66630137e-01 3.84327888e-01 4.04238671e-01 4.44284648e-01 5.29049754e-01 6.35659754e-01 6.78319156e-01 6.44995809e-01 6.14362836e-01 6.38723969e-01 6.52379572e-01 6.36184275e-01 6.28278732e-01 6.12245679e-01 5.83417237e-01 5.80247283e-01 5.69315910e-01 5.44791162e-01 6.94770887e-02 1.72313228e-01 2.20911264e-01 2.30563968e-01 2.23913804e-01 2.11074173e-01 1.92246154e-01 1.63356900e-01 1.24188028e-01 9.45566446e-02 1.11708231e-01 1.98383033e-01 3.01753789e-01 3.39369863e-01 3.53644580e-01 3.71965259e-01 4.11773175e-01 5.16919255e-01 6.61857545e-01 6.91235125e-01 6.13532722e-01 5.32242000e-01 5.20464480e-01 5.48335433e-01 5.48573256e-01 5.49490929e-01 5.62438250e-01 5.71671665e-01 5.87223828e-01 5.78047693e-01 5.58100641e-01 3.37365195e-02 1.60998106e-02 2.97129937e-02 2.85020433e-02 2.73217224e-02 2.55778600e-02 2.32122391e-02 1.95688047e-02 1.46937016e-02 1.25960885e-02 2.86413264e-02 1.36718661e-01 2.86157846e-01 3.20228934e-01 3.44223350e-01 3.89535129e-01 4.08094615e-01 4.80204016e-01 5.79015732e-01 4.74781007e-01 2.73109198e-01 1.90942734e-01 1.53169587e-01 1.41425073e-01 1.39097720e-01 1.56238690e-01 2.15073928e-01 3.57479483e-01 4.70737100e-01 5.09278655e-01 5.17082334e-01 3.28526229e-01 8.73834938e-02 1.79898310e-02 2.43126955e-02 4.57408130e-02 4.75553758e-02 4.77919206e-02 4.84178141e-02 5.01219630e-02 4.91871424e-02 2.66303997e-02 1.06197279e-02 3.81142274e-02 5.07418700e-02 8.45927447e-02 3.02319169e-01 3.65455449e-01 4.00787890e-01 4.91889209e-01 2.11570442e-01 7.88005367e-02 5.60540594e-02 4.13060337e-02 3.25970836e-02 2.49932818e-02 2.41195261e-02 3.39793302e-02 9.07844901e-02 2.78625011e-01 4.21580315e-01 4.67671871e-01 4.41323757e-01 3.40649605e-01 1.51415154e-01 1.63234919e-01 3.16904336e-01 3.52450818e-01 3.54957640e-01 3.57099384e-01 3.60375226e-01 3.51422250e-01 2.65087008e-01 7.86535069e-02 5.41463755e-02 3.50701958e-02 -3.24536790e-03 3.12458090e-02 5.86571135e-02 1.02824613e-01 3.54942143e-01 4.77617323e-01 1.52309552e-01 5.79225793e-02 4.65118140e-02 3.84702981e-02 3.20498496e-02 2.53033657e-02 1.79350022e-02 1.75331552e-02 7.29007497e-02 2.95060575e-01 4.26795632e-01 4.18179810e-01 3.49493712e-01 1.82671502e-01 1.57171741e-01 3.16531330e-01 3.90560627e-01 4.01917815e-01 4.05632973e-01 4.08929020e-01 4.09343570e-01 3.94822329e-01 3.61283064e-01 3.59530985e-01 3.29441667e-01 1.02841057e-01 5.83006218e-02 3.31065990e-02 -1.78982096e-04 8.85104313e-02 4.75705892e-01 6.31100714e-01 2.65954673e-01 1.25468716e-01 9.71620008e-02 8.94762948e-02 8.07942003e-02 5.78655601e-02 2.24190820e-02 1.01312036e-02 1.13429479e-01 3.60679030e-01 3.99169743e-01 3.32829952e-01 2.16388732e-01 1.64778903e-01 2.67987341e-01 3.68418932e-01 3.99339944e-01 4.09938157e-01 4.15697783e-01 4.18928057e-01 4.18080896e-01 4.16382015e-01 4.23058510e-01 4.27644193e-01 3.90803009e-01 3.71982515e-01 3.23274076e-01 9.47578996e-02 3.84476185e-02 7.23153800e-02 2.83778161e-01 6.51081324e-01 4.05920714e-01 2.43977994e-01 2.20402032e-01 2.08263531e-01 1.84700876e-01 8.80568102e-02 1.01555549e-02 6.89947084e-02 3.34726781e-01 4.20670152e-01 3.60323042e-01 2.95453638e-01 2.44249463e-01 2.94753671e-01 3.79997849e-01 4.18410867e-01 4.33277190e-01 4.41067189e-01 4.45360184e-01 4.46559072e-01 4.45332587e-01 4.44261998e-01 4.43415016e-01 4.41101909e-01 4.43230778e-01 4.42510873e-01 3.99571925e-01 3.23387533e-01 7.89553449e-02 2.06310526e-02 1.78042442e-01 6.60182953e-01 5.65364599e-01 3.82419616e-01 3.22726756e-01 2.70816296e-01 1.65838197e-01 1.99807566e-02 6.60586506e-02 3.45157892e-01 5.01156032e-01 4.65235323e-01 4.30736989e-01 4.06884402e-01 4.15632576e-01 4.50343370e-01 4.69960034e-01 4.77630734e-01 4.81237471e-01 4.82207954e-01 4.80979651e-01 4.78078216e-01 4.74553794e-01 4.70909029e-01 4.66842115e-01 4.62821603e-01 4.59113955e-01 4.55562025e-01 4.50594813e-01 3.71323377e-01 8.16819519e-02 9.58498754e-03 1.59107417e-01 6.60636902e-01 6.64643526e-01 5.11378109e-01 3.81122798e-01 2.31696278e-01 2.99708080e-02 6.71394616e-02 3.47908914e-01 5.96971095e-01 6.06503308e-01 5.87683082e-01 5.70512414e-01 5.58015645e-01 5.51145434e-01 5.44439971e-01 5.37745893e-01 5.31791866e-01 5.25899827e-01 5.19770384e-01 5.13466001e-01 5.07247329e-01 5.01190662e-01 4.95215923e-01 4.89439636e-01 4.83911246e-01 4.78495091e-01 4.73104805e-01 4.66016203e-01 3.83779168e-01 8.64896998e-02 1.13586886e-02 1.47469550e-01 6.13964081e-01 6.62481844e-01 5.73637664e-01 3.69120985e-01 4.67617214e-02 4.61219177e-02 2.89176226e-01 6.20156288e-01 6.65934205e-01 6.60637736e-01 6.50208354e-01 6.37031853e-01 6.20720446e-01 6.03582621e-01 5.88219464e-01 5.75107217e-01 5.63735425e-01 5.53664684e-01 5.44656217e-01 5.36557555e-01 5.29173374e-01 5.22338927e-01 5.15957773e-01 5.09865224e-01 5.03909171e-01 4.98198628e-01 4.92813349e-01 4.86511946e-01 4.00924146e-01 9.57828611e-02 1.43077346e-02 1.22820288e-01 4.34045941e-01 4.20806527e-01 6.00163758e-01 1.49419710e-01 7.21006887e-03 5.91346845e-02 5.35478294e-01 5.79261243e-01 5.94992518e-01 6.10140204e-01 6.21922433e-01 6.23190522e-01 6.15946174e-01 6.04821980e-01 5.92965066e-01 5.81707001e-01 5.71483374e-01 5.62404335e-01 5.54425657e-01 5.47404170e-01 5.41174412e-01 5.35539210e-01 5.30253410e-01 5.25139630e-01 5.20236313e-01 5.16074955e-01 5.14129460e-01 5.13057113e-01 4.26148444e-01 1.11682162e-01 1.85440592e-02 5.99359833e-02 8.50046724e-02 2.31908157e-01 4.63085204e-01 5.46697341e-02 1.09620318e-02 4.03744876e-01 3.93448144e-01 4.20969188e-01 4.70716685e-01 5.24559259e-01 5.61964810e-01 5.79310656e-01 5.83388805e-01 5.80730736e-01 5.75136423e-01 5.68561196e-01 5.62017441e-01 5.56009650e-01 5.50744355e-01 5.46245039e-01 5.42374134e-01 5.38879633e-01 5.35512745e-01 5.32137990e-01 5.29047072e-01 5.28035998e-01 5.32760084e-01 5.41548610e-01 4.63064641e-01 1.62638381e-01 5.16099967e-02 1.74666792e-02 1.61580786e-01 6.53657973e-01 1.14298508e-01 5.47866395e-04 3.03932518e-01 2.49106437e-01 2.59701461e-01 3.17929149e-01 3.98790777e-01 4.71006155e-01 5.16296208e-01 5.39338827e-01 5.49039602e-01 5.51463962e-01 5.50126672e-01 5.47064126e-01 5.43489099e-01 5.40121675e-01 5.37344575e-01 5.35256386e-01 5.33727586e-01 5.32475591e-01 5.31111360e-01 5.29248178e-01 5.27210057e-01 5.27361751e-01 5.34846723e-01 5.57772219e-01 5.34513056e-01 3.06755692e-01 7.71411881e-02 1.76589549e-01 7.03907371e-01 1.28540158e-01 -9.71068349e-03 2.31067479e-01 1.70193195e-01 1.68599278e-01 2.20468313e-01 3.05793524e-01 3.94119948e-01 4.57062185e-01 4.94297802e-01 5.14277995e-01 5.23749828e-01 5.27022302e-01 5.26788116e-01 5.24805427e-01 5.22282243e-01 5.20048499e-01 5.18607378e-01 5.18162072e-01 5.18623590e-01 5.19580126e-01 5.20191312e-01 5.19143224e-01 5.14828146e-01 5.05614877e-01 4.95120525e-01 5.09324312e-01 5.06794930e-01 1.87277049e-01 2.08671287e-01 7.23415375e-01 1.29901081e-01 -1.11869909e-02 1.62203357e-01 1.18405178e-01 1.19234711e-01 1.73277467e-01 2.62629986e-01 3.53193909e-01 4.19854522e-01 4.62382972e-01 4.87797320e-01 5.01803160e-01 5.08287609e-01 5.09898484e-01 5.08536577e-01 5.05679667e-01 5.02544343e-01 5.00123560e-01 4.99148756e-01 5.00007212e-01 5.02628982e-01 5.06335855e-01 5.09639561e-01 5.09823620e-01 5.01026034e-01 4.68424320e-01 3.99439842e-01 3.69547457e-01 2.59761095e-01 2.48647884e-01 7.12316811e-01 1.27898842e-01 -1.10551463e-02 1.02571741e-01 8.17748979e-02 9.22371373e-02 1.59321263e-01 2.59396046e-01 3.46454173e-01 4.06773716e-01 4.46836740e-01 4.72968727e-01 4.88988340e-01 4.97497499e-01 5.00464261e-01 4.99479711e-01 4.95946527e-01 4.91221249e-01 4.86667961e-01 4.83586520e-01 4.83000189e-01 4.85360712e-01 4.90310639e-01 4.96741861e-01 5.03298640e-01 5.08273661e-01 5.03289282e-01 4.45336044e-01 3.50514352e-01 3.20711434e-01 3.96954954e-01 7.00427592e-01 1.22024938e-01 -1.19680353e-02 6.12358786e-02 5.78725450e-02 8.24857205e-02 1.73327014e-01 2.85677940e-01 3.62560183e-01 4.10668880e-01 4.44040537e-01 4.68002826e-01 4.84279186e-01 4.94010717e-01 4.98262376e-01 4.98055905e-01 4.94415760e-01 4.88489509e-01 4.81671393e-01 4.75603431e-01 4.71919626e-01 4.71696287e-01 4.74910676e-01 4.80556399e-01 4.87851888e-01 4.97665346e-01 5.12747884e-01 5.14703035e-01 4.47394252e-01 4.44391459e-01 6.30097270e-01 6.99603438e-01 1.15274295e-01 -1.04030184e-02 3.64586487e-02 4.25354317e-02 9.01027769e-02 2.14949250e-01 3.28524172e-01 3.87628585e-01 4.22093689e-01 4.48371351e-01 4.69346583e-01 4.85027403e-01 4.95476693e-01 5.01030385e-01 5.02160370e-01 4.99401242e-01 4.93423700e-01 4.85219896e-01 4.76267010e-01 4.68416959e-01 4.63331193e-01 4.61810350e-01 4.63888258e-01 4.69825268e-01 4.80135918e-01 4.98175830e-01 5.28780580e-01 5.50481141e-01 5.85477293e-01 7.25770295e-01 6.25709713e-01 1.03291199e-01 -7.26117706e-03 2.20338255e-02 3.49532664e-02 1.18453652e-01 2.78915495e-01 3.72229487e-01 4.10901576e-01 4.34494704e-01 4.55431014e-01 4.73759443e-01 4.88568246e-01 4.99390215e-01 5.06155312e-01 5.08977830e-01 5.07992923e-01 5.03333688e-01 4.95282978e-01 4.84526336e-01 4.72240150e-01 4.59970951e-01 4.50065643e-01 4.46477652e-01 4.53895211e-01 4.72596258e-01 5.01674414e-01 5.47405064e-01 6.13091707e-01 6.91467583e-01 6.88328803e-01 3.10068339e-01 5.15664257e-02 -3.45399114e-03 1.33366985e-02 3.82796563e-02 1.75314248e-01 3.44049603e-01 4.06801701e-01 4.28358674e-01 4.45364833e-01 4.62743282e-01 4.78930831e-01 4.92775261e-01 5.03666699e-01 5.11394858e-01 5.15933633e-01 5.17220080e-01 5.14992118e-01 5.08767366e-01 4.97971117e-01 4.82094884e-01 4.61488903e-01 4.40484703e-01 4.31155115e-01 4.46533054e-01 4.85102713e-01 5.37693262e-01 6.04325831e-01 6.71925306e-01 6.97456479e-01 5.71292460e-01 1.43889070e-01 1.60310380e-02 9.27378424e-03 8.56754091e-03 4.96730059e-02 2.61970550e-01 3.96035165e-01 4.29860771e-01 4.40785706e-01 4.54221785e-01 4.69007194e-01 4.83321130e-01 4.96088445e-01 5.06732702e-01 5.15039563e-01 5.20982563e-01 5.24495244e-01 5.25171041e-01 5.21954834e-01 5.12958586e-01 4.95828658e-01 4.70305443e-01 4.45011765e-01 4.40558791e-01 4.73318934e-01 5.35933614e-01 6.08136475e-01 6.72470748e-01 6.89103365e-01 6.11397207e-01 2.87546724e-01 6.24325424e-02 1.40741626e-02 2.40649246e-02 6.03507692e-03 5.85967414e-02 3.34131181e-01 4.29294348e-01 4.43313539e-01 4.49927419e-01 4.60974336e-01 4.73447025e-01 4.85887945e-01 4.97391313e-01 5.07448852e-01 5.15846729e-01 5.22572696e-01 5.27661145e-01 5.30866563e-01 5.31170249e-01 5.26436031e-01 5.14532983e-01 4.98415291e-01 4.93249565e-01 5.17195284e-01 5.73252439e-01 6.31800532e-01 6.85432553e-01 6.74166262e-01 5.85289001e-01 4.18434560e-01 1.14816636e-01 1.86765604e-02 2.38800254e-02 5.21702953e-02 4.39142855e-03 6.20288625e-02 3.70470375e-01 4.46250141e-01 4.50942010e-01 4.56498921e-01 4.65312093e-01 4.75434721e-01 4.85882163e-01 4.95928705e-01 5.05099356e-01 5.13123512e-01 5.19958377e-01 5.25820434e-01 5.31114757e-01 5.36199808e-01 5.41295171e-01 5.47953784e-01 5.63622296e-01 6.01345420e-01 6.32253885e-01 6.15063012e-01 5.99028051e-01 6.01705015e-01 4.77467746e-01 1.59831598e-01 7.41881728e-02 2.33834125e-02 1.18860034e-02 6.04868345e-02 1.58780724e-01 3.08231055e-03 6.29603416e-02 3.86050940e-01 4.55259502e-01 4.55818832e-01 4.60210949e-01 4.66631502e-01 4.74386573e-01 4.82813329e-01 4.91322249e-01 4.99438912e-01 5.06813824e-01 5.13340712e-01 5.19413292e-01 5.26293516e-01 5.36407769e-01 5.53296506e-01 5.81266761e-01 6.24374032e-01 6.77893698e-01 6.76812530e-01 4.16417241e-01 1.78192392e-01 1.27744943e-01 9.81115773e-02 2.98831426e-02 2.93621346e-02 9.09208581e-02 1.16607957e-01 1.86238721e-01 3.59993368e-01 1.93625852e-03 6.34424686e-02 3.95496249e-01 4.61770803e-01 4.58677590e-01 4.60652143e-01 4.64546591e-01 4.70071167e-01 4.76614565e-01 4.83634412e-01 4.90668952e-01 4.97346163e-01 5.03495216e-01 5.09483755e-01 5.16869128e-01 5.29099226e-01 5.51315427e-01 5.88031888e-01 6.38694346e-01 6.92563474e-01 7.18533218e-01 6.01979256e-01 2.50002116e-01 1.57827333e-01 1.39668047e-01 1.31868452e-01 1.97819129e-01 5.42176068e-01 6.37818515e-01 6.55297875e-01 6.15740240e-01 8.70291085e-04 6.40575588e-02 4.03893113e-01 4.66420084e-01 4.58746403e-01 4.57698226e-01 4.59264547e-01 4.62881416e-01 4.67769831e-01 4.73383248e-01 4.79345053e-01 4.85388488e-01 4.91346359e-01 4.97340173e-01 5.04343987e-01 5.15011191e-01 5.33797145e-01 5.64760566e-01 6.07275665e-01 6.53996885e-01 6.92767620e-01 7.03882277e-01 6.60118163e-01 6.76470637e-01 7.22591043e-01 7.37549007e-01 7.45365560e-01 7.83248961e-01 7.86106229e-01 7.67883420e-01 7.15377867e-01 -1.88224207e-04 6.48988560e-02 4.12431359e-01 4.68054205e-01 4.55231011e-01 4.51718807e-01 4.51698333e-01 4.53906804e-01 4.57358718e-01 4.61568415e-01 4.66365129e-01 4.71741378e-01 4.77694333e-01 4.84152824e-01 4.91170883e-01 4.99525100e-01 5.11346579e-01 5.29541731e-01 5.55354595e-01 5.86710989e-01 6.19901240e-01 6.49796247e-01 6.74042225e-01 7.05965698e-01 7.30197489e-01 7.37745047e-01 7.37291336e-01 7.28370786e-01 7.04062164e-01 6.88385487e-01 6.49668336e-01 -2.46693962e-03 6.56768754e-02 4.21382248e-01 4.64956105e-01 4.47778195e-01 4.43413019e-01 4.42767113e-01 4.43957925e-01 4.46015537e-01 4.48682070e-01 4.52106327e-01 4.56649005e-01 4.62651610e-01 4.70173478e-01 4.78793949e-01 4.87694860e-01 4.96203780e-01 5.04473627e-01 5.13312876e-01 5.22887945e-01 5.31961977e-01 5.39244890e-01 5.45969427e-01 5.53187609e-01 5.54413438e-01 5.52998126e-01 5.52671432e-01 5.54634273e-01 5.59280694e-01 5.65473497e-01 5.58659911e-01 -3.47701367e-03 7.05739856e-02 4.41375881e-01 4.64923918e-01 4.44483072e-01 4.40836549e-01 4.39945072e-01 4.40038413e-01 4.40498412e-01 4.41394985e-01 4.43171144e-01 4.46487635e-01 4.52025861e-01 4.60194319e-01 4.70743597e-01 4.82397944e-01 4.92736220e-01 4.98555839e-01 4.96650755e-01 4.84651685e-01 4.62573379e-01 4.37723666e-01 4.27224129e-01 4.38246578e-01 4.57076252e-01 4.71232235e-01 4.78431493e-01 4.82087195e-01 4.85490918e-01 4.90953743e-01 4.99505103e-01 9.44775622e-03 6.92415014e-02 4.75712091e-01 4.90631491e-01 4.60279286e-01 4.58841056e-01 4.58056271e-01 4.57734853e-01 4.57483053e-01 4.57445771e-01 4.58036274e-01 4.59827870e-01 4.63426232e-01 4.69267190e-01 4.77322489e-01 4.86756742e-01 4.95638430e-01 5.00848591e-01 4.98370022e-01 4.84281689e-01 4.57362205e-01 4.24971879e-01 4.06988084e-01 4.16844964e-01 4.42875296e-01 4.64952230e-01 4.76452619e-01 4.79770303e-01 4.79420334e-01 4.79025543e-01 4.84608382e-01 
