# vtk DataFile Version 2.0
results/8_density.vtk, Created by Freefem++ 
ASCII
DATASET UNSTRUCTURED_GRID
POINTS 961 float
0 0 0
0.033333333 0 0
0.066666667 0 0
0.1 0 0
0.13333333 0 0
0.16666667 0 0
0.2 0 0
0.23333333 0 0
0.26666667 0 0
0.3 0 0
0.33333333 0 0
0.36666667 0 0
0.4 0 0
0.43333333 0 0
0.46666667 0 0
0.5 0 0
0.53333333 0 0
0.56666667 0 0
0.6 0 0
0.63333333 0 0
0.66666667 0 0
0.7 0 0
0.73333333 0 0
0.76666667 0 0
0.8 0 0
0.83333333 0 0
0.86666667 0 0
0.9 0 0
0.93333333 0 0
0.96666667 0 0
1 0 0
0 0.033333333 0
0.033333333 0.033333333 0
0.066666667 0.033333333 0
0.1 0.033333333 0
0.13333333 0.033333333 0
0.16666667 0.033333333 0
0.2 0.033333333 0
0.23333333 0.033333333 0
0.26666667 0.033333333 0
0.3 0.033333333 0
0.33333333 0.033333333 0
0.36666667 0.033333333 0
0.4 0.033333333 0
0.43333333 0.033333333 0
0.46666667 0.033333333 0
0.5 0.033333333 0
0.53333333 0.033333333 0
0.56666667 0.033333333 0
0.6 0.033333333 0
0.63333333 0.033333333 0
0.66666667 0.033333333 0
0.7 0.033333333 0
0.73333333 0.033333333 0
0.76666667 0.033333333 0
0.8 0.033333333 0
0.83333333 0.033333333 0
0.86666667 0.033333333 0
0.9 0.033333333 0
0.93333333 0.033333333 0
0.96666667 0.033333333 0
1 0.033333333 0
0 0.066666667 0
0.033333333 0.066666667 0
0.066666667 0.066666667 0
0.1 0.066666667 0
0.13333333 0.066666667 0
0.16666667 0.066666667 0
0.2 0.066666667 0
0.23333333 0.066666667 0
0.26666667 0.066666667 0
0.3 0.066666667 0
0.33333333 0.066666667 0
0.36666667 0.066666667 0
0.4 0.066666667 0
0.43333333 0.066666667 0
0.46666667 0.066666667 0
0.5 0.066666667 0
0.53333333 0.066666667 0
0.56666667 0.066666667 0
0.6 0.066666667 0
0.63333333 0.066666667 0
0.66666667 0.066666667 0
0.7 0.066666667 0
0.73333333 0.066666667 0
0.76666667 0.066666667 0
0.8 0.066666667 0
0.83333333 0.066666667 0
0.86666667 0.066666667 0
0.9 0.066666667 0
0.93333333 0.066666667 0
0.96666667 0.066666667 0
1 0.066666667 0
0 0.1 0
0.033333333 0.1 0
0.066666667 0.1 0
0.1 0.1 0
0.13333333 0.1 0
0.16666667 0.1 0
0.2 0.1 0
0.23333333 0.1 0
0.26666667 0.1 0
0.3 0.1 0
0.33333333 0.1 0
0.36666667 0.1 0
0.4 0.1 0
0.43333333 0.1 0
0.46666667 0.1 0
0.5 0.1 0
0.53333333 0.1 0
0.56666667 0.1 0
0.6 0.1 0
0.63333333 0.1 0
0.66666667 0.1 0
0.7 0.1 0
0.73333333 0.1 0
0.76666667 0.1 0
0.8 0.1 0
0.83333333 0.1 0
0.86666667 0.1 0
0.9 0.1 0
0.93333333 0.1 0
0.96666667 0.1 0
1 0.1 0
0 0.13333333 0
0.033333333 0.13333333 0
0.066666667 0.13333333 0
0.1 0.13333333 0
0.13333333 0.13333333 0
0.16666667 0.13333333 0
0.2 0.13333333 0
0.23333333 0.13333333 0
0.26666667 0.13333333 0
0.3 0.13333333 0
0.33333333 0.13333333 0
0.36666667 0.13333333 0
0.4 0.13333333 0
0.43333333 0.13333333 0
0.46666667 0.13333333 0
0.5 0.13333333 0
0.53333333 0.13333333 0
0.56666667 0.13333333 0
0.6 0.13333333 0
0.63333333 0.13333333 0
0.66666667 0.13333333 0
0.7 0.13333333 0
0.73333333 0.13333333 0
0.76666667 0.13333333 0
0.8 0.13333333 0
0.83333333 0.13333333 0
0.86666667 0.13333333 0
0.9 0.13333333 0
0.93333333 0.13333333 0
0.96666667 0.13333333 0
1 0.13333333 0
0 0.16666667 0
0.033333333 0.16666667 0
0.066666667 0.16666667 0
0.1 0.16666667 0
0.13333333 0.16666667 0
0.16666667 0.16666667 0
0.2 0.16666667 0
0.23333333 0.16666667 0
0.26666667 0.16666667 0
0.3 0.16666667 0
0.33333333 0.16666667 0
0.36666667 0.16666667 0
0.4 0.16666667 0
0.43333333 0.16666667 0
0.46666667 0.16666667 0
0.5 0.16666667 0
0.53333333 0.16666667 0
0.56666667 0.16666667 0
0.6 0.16666667 0
0.63333333 0.16666667 0
0.66666667 0.16666667 0
0.7 0.16666667 0
0.73333333 0.16666667 0
0.76666667 0.16666667 0
0.8 0.16666667 0
0.83333333 0.16666667 0
0.86666667 0.16666667 0
0.9 0.16666667 0
0.93333333 0.16666667 0
0.96666667 0.16666667 0
1 0.16666667 0
0 0.2 0
0.033333333 0.2 0
0.066666667 0.2 0
0.1 0.2 0
0.13333333 0.2 0
0.16666667 0.2 0
0.2 0.2 0
0.23333333 0.2 0
0.26666667 0.2 0
0.3 0.2 0
0.33333333 0.2 0
0.36666667 0.2 0
0.4 0.2 0
0.43333333 0.2 0
0.46666667 0.2 0
0.5 0.2 0
0.53333333 0.2 0
0.56666667 0.2 0
0.6 0.2 0
0.63333333 0.2 0
0.66666667 0.2 0
0.7 0.2 0
0.73333333 0.2 0
0.76666667 0.2 0
0.8 0.2 0
0.83333333 0.2 0
0.86666667 0.2 0
0.9 0.2 0
0.93333333 0.2 0
0.96666667 0.2 0
1 0.2 0
0 0.23333333 0
0.033333333 0.23333333 0
0.066666667 0.23333333 0
0.1 0.23333333 0
0.13333333 0.23333333 0
0.16666667 0.23333333 0
0.2 0.23333333 0
0.23333333 0.23333333 0
0.26666667 0.23333333 0
0.3 0.23333333 0
0.33333333 0.23333333 0
0.36666667 0.23333333 0
0.4 0.23333333 0
0.43333333 0.23333333 0
0.46666667 0.23333333 0
0.5 0.23333333 0
0.53333333 0.23333333 0
0.56666667 0.23333333 0
0.6 0.23333333 0
0.63333333 0.23333333 0
0.66666667 0.23333333 0
0.7 0.23333333 0
0.73333333 0.23333333 0
0.76666667 0.23333333 0
0.8 0.23333333 0
0.83333333 0.23333333 0
0.86666667 0.23333333 0
0.9 0.23333333 0
0.93333333 0.23333333 0
0.96666667 0.23333333 0
1 0.23333333 0
0 0.26666667 0
0.033333333 0.26666667 0
0.066666667 0.26666667 0
0.1 0.26666667 0
0.13333333 0.26666667 0
0.16666667 0.26666667 0
0.2 0.26666667 0
0.23333333 0.26666667 0
0.26666667 0.26666667 0
0.3 0.26666667 0
0.33333333 0.26666667 0
0.36666667 0.26666667 0
0.4 0.26666667 0
0.43333333 0.26666667 0
0.46666667 0.26666667 0
0.5 0.26666667 0
0.53333333 0.26666667 0
0.56666667 0.26666667 0
0.6 0.26666667 0
0.63333333 0.26666667 0
0.66666667 0.26666667 0
0.7 0.26666667 0
0.73333333 0.26666667 0
0.76666667 0.26666667 0
0.8 0.26666667 0
0.83333333 0.26666667 0
0.86666667 0.26666667 0
0.9 0.26666667 0
0.93333333 0.26666667 0
0.96666667 0.26666667 0
1 0.26666667 0
0 0.3 0
0.033333333 0.3 0
0.066666667 0.3 0
0.1 0.3 0
0.13333333 0.3 0
0.16666667 0.3 0
0.2 0.3 0
0.23333333 0.3 0
0.26666667 0.3 0
0.3 0.3 0
0.33333333 0.3 0
0.36666667 0.3 0
0.4 0.3 0
0.43333333 0.3 0
0.46666667 0.3 0
0.5 0.3 0
0.53333333 0.3 0
0.56666667 0.3 0
0.6 0.3 0
0.63333333 0.3 0
0.66666667 0.3 0
0.7 0.3 0
0.73333333 0.3 0
0.76666667 0.3 0
0.8 0.3 0
0.83333333 0.3 0
0.86666667 0.3 0
0.9 0.3 0
0.93333333 0.3 0
0.96666667 0.3 0
1 0.3 0
0 0.33333333 0
0.033333333 0.33333333 0
0.066666667 0.33333333 0
0.1 0.33333333 0
0.13333333 0.33333333 0
0.16666667 0.33333333 0
0.2 0.33333333 0
0.23333333 0.33333333 0
0.26666667 0.33333333 0
0.3 0.33333333 0
0.33333333 0.33333333 0
0.36666667 0.33333333 0
0.4 0.33333333 0
0.43333333 0.33333333 0
0.46666667 0.33333333 0
0.5 0.33333333 0
0.53333333 0.33333333 0
0.56666667 0.33333333 0
0.6 0.33333333 0
0.63333333 0.33333333 0
0.66666667 0.33333333 0
0.7 0.33333333 0
0.73333333 0.33333333 0
0.76666667 0.33333333 0
0.8 0.33333333 0
0.83333333 0.33333333 0
0.86666667 0.33333333 0
0.9 0.33333333 0
0.93333333 0.33333333 0
0.96666667 0.33333333 0
1 0.33333333 0
0 0.36666667 0
0.033333333 0.36666667 0
0.066666667 0.36666667 0
0.1 0.36666667 0
0.13333333 0.36666667 0
0.16666667 0.36666667 0
0.2 0.36666667 0
0.23333333 0.36666667 0
0.26666667 0.36666667 0
0.3 0.36666667 0
0.33333333 0.36666667 0
0.36666667 0.36666667 0
0.4 0.36666667 0
0.43333333 0.36666667 0
0.46666667 0.36666667 0
0.5 0.36666667 0
0.53333333 0.36666667 0
0.56666667 0.36666667 0
0.6 0.36666667 0
0.63333333 0.36666667 0
0.66666667 0.36666667 0
0.7 0.36666667 0
0.73333333 0.36666667 0
0.76666667 0.36666667 0
0.8 0.36666667 0
0.83333333 0.36666667 0
0.86666667 0.36666667 0
0.9 0.36666667 0
0.93333333 0.36666667 0
0.96666667 0.36666667 0
1 0.36666667 0
0 0.4 0
0.033333333 0.4 0
0.066666667 0.4 0
0.1 0.4 0
0.13333333 0.4 0
0.16666667 0.4 0
0.2 0.4 0
0.23333333 0.4 0
0.26666667 0.4 0
0.3 0.4 0
0.33333333 0.4 0
0.36666667 0.4 0
0.4 0.4 0
0.43333333 0.4 0
0.46666667 0.4 0
0.5 0.4 0
0.53333333 0.4 0
0.56666667 0.4 0
0.6 0.4 0
0.63333333 0.4 0
0.66666667 0.4 0
0.7 0.4 0
0.73333333 0.4 0
0.76666667 0.4 0
0.8 0.4 0
0.83333333 0.4 0
0.86666667 0.4 0
0.9 0.4 0
0.93333333 0.4 0
0.96666667 0.4 0
1 0.4 0
0 0.43333333 0
0.033333333 0.43333333 0
0.066666667 0.43333333 0
0.1 0.43333333 0
0.13333333 0.43333333 0
0.16666667 0.43333333 0
0.2 0.43333333 0
0.23333333 0.43333333 0
0.26666667 0.43333333 0
0.3 0.43333333 0
0.33333333 0.43333333 0
0.36666667 0.43333333 0
0.4 0.43333333 0
0.43333333 0.43333333 0
0.46666667 0.43333333 0
0.5 0.43333333 0
0.53333333 0.43333333 0
0.56666667 0.43333333 0
0.6 0.43333333 0
0.63333333 0.43333333 0
0.66666667 0.43333333 0
0.7 0.43333333 0
0.73333333 0.43333333 0
0.76666667 0.43333333 0
0.8 0.43333333 0
0.83333333 0.43333333 0
0.86666667 0.43333333 0
0.9 0.43333333 0
0.93333333 0.43333333 0
0.96666667 0.43333333 0
1 0.43333333 0
0 0.46666667 0
0.033333333 0.46666667 0
0.066666667 0.46666667 0
0.1 0.46666667 0
0.13333333 0.46666667 0
0.16666667 0.46666667 0
0.2 0.46666667 0
0.23333333 0.46666667 0
0.26666667 0.46666667 0
0.3 0.46666667 0
0.33333333 0.46666667 0
0.36666667 0.46666667 0
0.4 0.46666667 0
0.43333333 0.46666667 0
0.46666667 0.46666667 0
0.5 0.46666667 0
0.53333333 0.46666667 0
0.56666667 0.46666667 0
0.6 0.46666667 0
0.63333333 0.46666667 0
0.66666667 0.46666667 0
0.7 0.46666667 0
0.73333333 0.46666667 0
0.76666667 0.46666667 0
0.8 0.46666667 0
0.83333333 0.46666667 0
0.86666667 0.46666667 0
0.9 0.46666667 0
0.93333333 0.46666667 0
0.96666667 0.46666667 0
1 0.46666667 0
0 0.5 0
0.033333333 0.5 0
0.066666667 0.5 0
0.1 0.5 0
0.13333333 0.5 0
0.16666667 0.5 0
0.2 0.5 0
0.23333333 0.5 0
0.26666667 0.5 0
0.3 0.5 0
0.33333333 0.5 0
0.36666667 0.5 0
0.4 0.5 0
0.43333333 0.5 0
0.46666667 0.5 0
0.5 0.5 0
0.53333333 0.5 0
0.56666667 0.5 0
0.6 0.5 0
0.63333333 0.5 0
0.66666667 0.5 0
0.7 0.5 0
0.73333333 0.5 0
0.76666667 0.5 0
0.8 0.5 0
0.83333333 0.5 0
0.86666667 0.5 0
0.9 0.5 0
0.93333333 0.5 0
0.96666667 0.5 0
1 0.5 0
0 0.53333333 0
0.033333333 0.53333333 0
0.066666667 0.53333333 0
0.1 0.53333333 0
0.13333333 0.53333333 0
0.16666667 0.53333333 0
0.2 0.53333333 0
0.23333333 0.53333333 0
0.26666667 0.53333333 0
0.3 0.53333333 0
0.33333333 0.53333333 0
0.36666667 0.53333333 0
0.4 0.53333333 0
0.43333333 0.53333333 0
0.46666667 0.53333333 0
0.5 0.53333333 0
0.53333333 0.53333333 0
0.56666667 0.53333333 0
0.6 0.53333333 0
0.63333333 0.53333333 0
0.66666667 0.53333333 0
0.7 0.53333333 0
0.73333333 0.53333333 0
0.76666667 0.53333333 0
0.8 0.53333333 0
[...]
CELL_DATA 1920
Scalars  Label int 1
LOOKUP_TABLE FreeFempp_table
0
0
0
0
0
0
0
0
0
0
0
0
0
0
0
0
0
0
0
0
0
0
0
0
0
0
0
0
0
0
0
0
0
0
0
0
0
0
0
0
0
0
0
0
0
0
0
0
0
0
0
0
0
0
0
0
0
0
0
0
0
0
0
0
0
0
0
0
0
0
0
0
0
0
0
0
0
0
0
0
0
0
0
0
0
0
0
0
0
0
0
0
0
0
0
0
0
0
0
0
0
0
0
0
0
0
0
0
0
0
0
0
0
0
0
0
0
0
0
0
0
0
0
0
0
0
0
0
0
0
0
0
0
0
0
0
0
0
0
0
0
0
0
0
0
0
0
0
0
0
0
0
0
0
0
0
0
0
0
0
0
0
0
0
0
0
0
0
0
0
0
0
0
0
0
0
0
0
0
0
0
0
0
0
0
0
0
0
0
0
0
0
0
0
0
0
0
0
0
0
0
0
0
0
0
0
0
0
0
0
0
0
0
0
0
0
0
0
0
0
0
0
0
0
0
0
0
0
0
0
0
0
0
0
0
0
0
0
0
0
0
0
0
0
0
0
0
0
0
0
0
0
0
0
0
0
0
0
0
0
0
0
0
0
0
0
0
0
0
0
0
0
0
0
0
0
0
0
0
0
0
0
0
0
0
0
0
0
0
0
0
0
0
0
0
0
0
0
0
0
0
0
0
0
0
0
0
0
0
0
0
0
0
0
0
0
0
0
0
0
0
0
0
0
0
0
0
0
0
0
0
0
0
0
0
0
0
0
0
0
0
0
0
0
0
0
0
0
0
0
0
0
0
0
0
0
0
0
0
0
0
0
0
0
0
0
0
0
0
0
0
0
0
0
0
0
0
0
0
0
0
0
0
0
0
0
0
0
0
0
0
0
0
0
0
0
0
0
0
0
0
0
0
0
0
0
0
0
0
0
0
0
0
0
0
0
0
0
0
0
0
0
0
0
0
0
0
0
0
0
0
0
0
0
0
0
0
0
0
0
0
0
0
0
0
0
0
0
0
0
0
0
0
0
0
0
0
0
0
0
0
0
0
0
0
0
0
0
0
0
0
0
0
0
0
0
0
0
0
0
0
0
0
0
0
0
0
0
0
0
0
0
0
0
0
0
0
0
0
0
0
0
0
0
0
0
0
0
0
0
0
0
0
0
0
0
0
0
0
0
0
0
0
0
0
0
0
0
0
0
0
0
0
0
0
0
0
0
0
0
0
0
0
0
0
0
0
0
0
0
0
0
0
0
0
0
0
0
0
0
0
0
0
0
0
0
0
0
0
0
0
0
0
0
0
0
0
0
0
0
0
0
0
0
0
0
0
0
0
0
0
0
0
0
0
0
0
0
0
0
0
0
0
0
0
0
0
0
0
0
0
0
0
0
0
0
0
0
0
0
0
0
0
0
0
0
0
0
0
0
0
0
0
0
0
0
0
0
0
0
0
0
0
0
0
0
0
0
0
0
0
0
0
0
0
0
0
0
0
0
0
0
0
0
0
0
0
0
0
0
0
0
0
0
0
0
0
0
0
0
0
0
0
0
0
0
0
0
0
0
0
0
0
0
0
0
0
0
0
0
0
0
0
0
0
0
0
0
0
0
0
0
0
0
0
0
0
0
0
0
0
0
0
0
0
0
0
0
0
0
0
0
0
0
0
0
0
0
0
0
0
0
0
0
0
0
0
0
0
0
0
0
0
0
0
0
0
0
0
0
0
0
0
0
0
0
0
0
0
0
0
0
0
0
0
0
0
0
0
0
0
0
0
0
0
0
0
0
0
0
0
0
0
0
0
0
0
0
0
0
0
0
0
0
0
0
0
0
0
0
0
0
0
0
0
0
0
0
0
0
0
0
0
0
0
0
0
0
0
0
0
0
0
0
0
0
0
0
0
0
0
0
0
0
0
0
0
0
0
0
0
0
0
0
0
0
0
0
0
0
0
0
0
0
0
0
0
0
0
0
0
0
0
0
0
0
0
0
0
0
0
0
0
0
0
0
0
0
0
0
0
0
0
0
0
0
0
0
0
0
0
0
0
0
0
0
0
0
0
0
0
0
0
0
0
0
0
0
0
0
0
0
0
0
0
0
0
0
0
0
0
0
0
0
0
0
0
0
0
0
0
0
0
0
0
0
0
0
0
0
0
0
0
0
0
0
0
0
0
0
0
0
0
0
0
0
0
0
0
0
0
0
0
0
0
0
0
0
0
0
0
0
0
0
0
0
0
0
0
0
0
0
0
0
0
0
0
0
0
0
0
0
0
0
0
0
0
0
0
0
0
0
0
0
0
0
0
0
0
0
0
0
0
0
0
0
0
0
0
0
0
0
0
0
0
0
0
0
0
0
0
0
0
0
0
0
0
0
0
0
0
0
0
0
0
0
0
0
0
0
0
0
0
0
0
0
0
0
0
0
0
0
0
0
0
0
0
0
0
0
0
0
0
0
0
0
0
0
0
0
0
0
0
0
0
0
0
0
0
0
0
0
0
0
0
0
0
0
0
0
0
0
0
0
0
0
0
0
0
0
0
0
0
0
0
0
0
0
0
0
0
0
0
0
0
0
0
0
0
0
0
0
0
0
0
0
0
0
0
0
0
0
0
0
0
0
0
0
0
0
0
0
0
0
0
0
0
0
0
0
0
0
0
0
0
0
0
0
0
0
0
0
0
0
0
0
0
0
0
0
0
0
0
0
0
0
0
0
0
0
0
0
0
0
0
0
0
0
0
0
0
0
0
0
0
0
0
0
0
0
0
0
0
0
0
0
0
0
0
0
0
0
0
0
0
0
0
0
0
0
0
0
0
0
0
0
0
0
0
0
0
0
0
0
0
0
0
0
0
0
0
0
0
0
0
0
0
0
0
0
0
0
0
0
0
0
0
0
0
0
0
0
0
0
0
0
0
0
0
0
0
0
0
0
0
0
0
0
0
0
0
0
0
0
0
0
0
0
0
0
0
0
0
0
0
0
0
0
0
0
0
0
0
0
0
0
0
0
0
0
0
0
0
0
0
0
0
0
0
0
0
0
0
0
0
0
0
0
0
0
0
0
0
0
0
0
0
0
0
0
0
0
0
0
0
0
0
0
0
0
0
0
0
0
0
0
0
0
0
0
0
0
0
0
0
0
0
0
0
0
0
0
0
0
0
0
0
0
0
0
0
0
0
0
0
0
0
0
0
0
0
0
0
0
0
0
0
0
0
0
0
0
0
0
0
0
0
0
0
0
0
0
0
0
0
0
0
0
0
0
0
0
0
0
0
0
0
0
0
0
0
0
0
0
0
0
0
0
0
0
0
0
0
0
0
0
0
0
0
0
0
0
0
0
0
0
0
0
0
0
0
0
0
0
0
0
0
0
0
0
0
0
0
0
0
0
0
0
0
0
0
0
0
0
0
0
0
0
0
0
0
0
0
0
0
0
0
0
0
0
0
0
0
0
0
0
0
0
0
0
0
0
0
0
0
0
0
0
0
0
0
0
0
0
0
0
0
0
0
0
0
0
0
0
0
0
0
0
0
0
0
0
0
0
0
0
0
0
0
0
0
0
0
0
0
0
0
0
0
0
0
0
0
0
0
0
0
0
0
0
0
0
0
0
0
0
0
0
0
0
0
0
0
0
0
0
0
0
0
0
0
0
0
0
0
0
0
0
0
0
0
0
0
0
0
0
0
0
0
0
0
0
0
0
0
0
0
0
0
0
0
0
0
0
0
0
0
0
0
0
0
0
0
0
0
0
0
0
0
0
0
0
0
0
0
0
0
0
0
0
0
0
0
0
0
0
0
0
0
0
0
0
0
0
0
0
0
0
0
0
0
0
0
0
0
0
0
0
0
0
0
0
0
0
0
0
0
0
0
0
0
0
0
0
0
0
0
0
0
0
0
0
0
0
0
0
0
0
0
0
0
0
0
0
0
0
0
0
0
0
0
0
0
0
0
0
0
0
0
0
0
0
0
0
0
0
0
0
0
0
0
0
0
0
0
0
0
0
0
0
0
0
0
0
0
0
0
0
0
0
0
0
0
0
0
0
0
0
0
0
0
0
0
0
0
0
0
0
0
0
1
1
1
1
1
1
1
1
1
1
1
1
1
1
1
1
1
1
1
1
1
1
1
1
1
1
1
1
1
1
2
2
2
2
2
2
2
2
2
2
2
2
2
2
2
2
2
2
2
2
2
2
2
2
2
2
2
2
2
2
3
3
3
3
3
3
3
3
3
3
3
3
3
3
3
3
3
3
3
3
3
3
3
3
3
3
3
3
3
3
4
4
4
4
4
4
4
4
4
4
4
4
4
4
4
4
4
4
4
4
4
4
4
4
4
4
4
4
4
4

LOOKUP_TABLE FreeFempp_table 5
1.00000000 0.00000000 0.00000000 1.00000000
1.00000000 1.00000000 0.00000000 1.00000000
1.00000000 0.00000000 1.00000000 1.00000000
0.00000000 1.00000000 0.00000000 1.00000000
0.00000000 1.00000000 1.00000000 1.00000000

POINT_DATA 961
FIELD FieldData 1
Density 1 961 float
2.81497568e-01 3.56765121e-01 3.97755057e-01 4.05931383e-01 4.06962812e-01 4.05707449e-01 3.78618002e-01 2.45990917e-01 3.48018818e-02 4.96313423e-02 2.68701255e-01 4.14972723e-01 4.81858134e-01 5.31501472e-01 5.51732540e-01 5.27935445e-01 4.95287389e-01 4.93497878e-01 5.06116390e-01 5.19060373e-01 5.23133099e-01 5.19989908e-01 5.16122043e-01 5.11845946e-01 5.05069673e-01 4.98766840e-01 4.97525990e-01 4.97223645e-01 4.97281432e-01 4.97656524e-01 4.97103721e-01 8.04525539e-02 2.10613549e-01 2.78029472e-01 2.90216953e-01 2.91065812e-01 2.89439201e-01 2.73137987e-01 1.94773167e-01 3.45996283e-02 2.42292378e-02 2.03372762e-01 3.72718602e-01 4.43784863e-01 4.91550177e-01 5.21992087e-01 4.77486312e-01 3.84243667e-01 3.61607879e-01 3.93574268e-01 4.46910679e-01 4.82627183e-01 4.88624126e-01 4.87398148e-01 4.84758377e-01 4.80026066e-01 4.80098188e-01 4.88890052e-01 4.92496997e-01 4.93420929e-01 4.94658530e-01 4.94958550e-01 7.32937921e-03 1.62234996e-02 3.37860510e-02 3.48556265e-02 3.45867351e-02 3.44325192e-02 3.31523344e-02 2.54557524e-02 3.76608735e-03 -4.88235528e-04 4.49839458e-02 2.04228893e-01 2.80653685e-01 3.15980941e-01 4.02524322e-01 4.47212219e-01 2.37063974e-01 1.06201269e-01 1.02480866e-01 1.84340879e-01 2.86914945e-01 3.19987267e-01 3.25277358e-01 3.25785756e-01 3.25650454e-01 3.60465080e-01 4.35805589e-01 4.70566094e-01 4.79532331e-01 4.83550042e-01 4.85658050e-01 1.21294796e-01 5.00981472e-02 3.25732641e-02 3.07682287e-02 3.10993660e-02 3.15656140e-02 3.19696367e-02 3.24442871e-02 3.34978700e-02 3.44585106e-02 1.97738223e-02 1.81925483e-02 3.36359143e-02 3.90664898e-02 9.37271193e-02 3.70417804e-01 3.72928232e-01 2.20857114e-01 8.32483023e-02 2.56555621e-02 3.24316174e-02 3.96349542e-02 3.90379205e-02 3.86492014e-02 4.06179987e-02 7.09513128e-02 2.69250304e-01 4.07919914e-01 4.53761995e-01 4.67878789e-01 4.72579002e-01 3.37406546e-01 2.97087908e-01 2.63553321e-01 2.62042552e-01 2.65438318e-01 2.68837035e-01 2.71791935e-01 2.74191588e-01 2.74615824e-01 2.62936413e-01 1.99732468e-01 5.90019077e-02 3.40717137e-02 2.90350448e-02 1.33962082e-02 4.28641699e-02 1.18428878e-01 4.23746526e-01 3.79219472e-01 1.70404688e-01 8.00831243e-02 6.24306612e-02 5.79195879e-02 5.40559888e-02 5.03903925e-02 3.01821437e-02 5.21632656e-02 2.64132619e-01 3.99171501e-01 4.47991222e-01 4.59457397e-01 4.19699430e-01 4.07172859e-01 3.90544623e-01 3.88581604e-01 3.92288655e-01 3.96511823e-01 4.00309324e-01 4.03459489e-01 4.05418545e-01 4.02097404e-01 3.76837760e-01 3.09708208e-01 2.73213148e-01 2.53578335e-01 1.76686853e-01 5.11451811e-02 9.46512260e-03 5.28108887e-02 1.16189599e-01 3.65586996e-01 4.38284695e-01 4.41261858e-01 4.32565957e-01 4.11085337e-01 3.82949948e-01 3.03135216e-01 7.03922361e-02 5.33468351e-02 2.60243982e-01 3.99083108e-01 4.36274052e-01 4.41811919e-01 4.34041619e-01 4.24285799e-01 4.22717303e-01 4.24856663e-01 4.27646518e-01 4.30302620e-01 4.32542473e-01 4.34225887e-01 4.34652597e-01 4.30351287e-01 4.17243838e-01 4.09885526e-01 4.04359132e-01 3.72786850e-01 2.88392901e-01 1.58096790e-01 5.03258891e-02 1.25234220e-02 7.66347647e-02 3.47116321e-01 4.63455081e-01 4.75615680e-01 4.46314245e-01 4.24999028e-01 4.41752881e-01 3.43249977e-01 7.57276937e-02 5.16779758e-02 2.58019209e-01 3.61764699e-01 4.54127520e-01 4.47960049e-01 4.41029817e-01 4.39648956e-01 4.40568268e-01 4.41952318e-01 4.43390757e-01 4.44663823e-01 4.45666671e-01 4.46297675e-01 4.46096331e-01 4.44608688e-01 4.44387823e-01 4.44564730e-01 4.39696133e-01 4.22125310e-01 3.79551739e-01 2.98584044e-01 1.71734527e-01 4.53221425e-02 5.86071685e-02 2.14084595e-01 2.56836623e-01 2.23709017e-01 1.84985608e-01 2.48146921e-01 4.20202553e-01 3.45504671e-01 3.79805528e-02 5.59590980e-02 2.03058079e-01 4.65292633e-01 4.60770130e-01 4.55889910e-01 4.54996556e-01 4.55540150e-01 4.56297755e-01 4.57141131e-01 4.57953036e-01 4.58625555e-01 4.59085107e-01 4.59261268e-01 4.59189534e-01 4.59397227e-01 4.59846079e-01 4.59828645e-01 4.58141387e-01 4.52730238e-01 4.36208755e-01 3.88030648e-01 2.64620453e-01 5.53207174e-02 2.04064883e-02 3.30921747e-02 3.16600017e-02 3.62039171e-02 8.42816383e-02 2.95880973e-01 4.83285367e-01 9.89717245e-02 1.07039204e-02 8.16288739e-02 4.75273997e-01 4.72196460e-01 4.68928695e-01 4.68501806e-01 4.69022572e-01 4.69651878e-01 4.70367461e-01 4.71091658e-01 4.71721172e-01 4.72196907e-01 4.72535461e-01 4.72867250e-01 4.73434865e-01 4.74318385e-01 4.75375414e-01 4.76400405e-01 4.77293730e-01 4.76873368e-01 4.69228834e-01 4.25323874e-01 2.78125644e-01 6.70823157e-02 2.92314049e-02 2.39401218e-02 2.46065389e-02 4.60169874e-02 1.81559876e-01 4.83960539e-01 2.88204819e-01 2.46009473e-02 1.29674869e-02 4.83198911e-01 4.81227905e-01 4.79214191e-01 4.79191780e-01 4.79842633e-01 4.80587721e-01 4.81409073e-01 4.82221931e-01 4.82933193e-01 4.83515114e-01 4.84039843e-01 4.84682471e-01 4.85653251e-01 4.87058371e-01 4.88878995e-01 4.91123199e-01 4.93952394e-01 4.97396588e-01 5.00289083e-01 4.94149208e-01 4.50607359e-01 3.40103030e-01 2.47063071e-01 2.06453428e-01 1.76438719e-01 1.52258113e-01 2.22335935e-01 4.75772023e-01 4.43316162e-01 6.12700842e-02 1.93796610e-03 4.87916112e-01 4.86617804e-01 4.85497236e-01 4.85842228e-01 4.86731261e-01 4.87724364e-01 4.88754928e-01 4.89711046e-01 4.90506053e-01 4.91138190e-01 4.91708964e-01 4.92403150e-01 4.93414909e-01 4.94862765e-01 4.96796966e-01 4.99301821e-01 5.02537370e-01 5.06604075e-01 5.11326373e-01 5.15474021e-01 5.13214886e-01 4.91251141e-01 4.55138147e-01 4.25901860e-01 3.99919331e-01 3.73391956e-01 4.02955234e-01 5.44387102e-01 4.90744680e-01 7.31467903e-02 -1.88724964e-03 4.88114983e-01 4.86940086e-01 4.86329406e-01 4.87081140e-01 4.88385588e-01 4.89801943e-01 4.91170526e-01 4.92331684e-01 4.93191540e-01 4.93760288e-01 4.94148940e-01 4.94532645e-01 4.95081961e-01 4.95906383e-01 4.97062624e-01 4.98606443e-01 5.00594318e-01 5.03009379e-01 5.05712986e-01 5.08551300e-01 5.11307418e-01 5.12323618e-01 5.10022104e-01 5.06159186e-01 4.97330517e-01 4.89727765e-01 5.20762801e-01 6.00124717e-01 4.92236137e-01 7.17087761e-02 -3.73999239e-03 4.82601464e-01 4.80878085e-01 4.80404794e-01 4.81790572e-01 4.83918279e-01 4.86157686e-01 4.88193125e-01 4.89783525e-01 4.90811616e-01 4.91295248e-01 4.91356492e-01 4.91166800e-01 4.90882486e-01 4.90602612e-01 4.90372777e-01 4.90211636e-01 4.90111589e-01 4.90017146e-01 4.89834219e-01 4.89522010e-01 4.89257693e-01 4.89353031e-01 4.89919752e-01 4.91086423e-01 4.92449880e-01 5.03508568e-01 5.48221290e-01 6.05351090e-01 4.70481426e-01 6.83952793e-02 -3.19959130e-03 4.70506430e-01 4.67446208e-01 4.66781378e-01 4.69337612e-01 4.73105431e-01 4.76971984e-01 4.80354935e-01 4.82882619e-01 4.84409451e-01 4.84984636e-01 4.84775305e-01 4.83985573e-01 4.82791036e-01 4.81308043e-01 4.79601979e-01 4.77714658e-01 4.75688457e-01 4.73592341e-01 4.71565425e-01 4.69860464e-01 4.68840212e-01 4.68894094e-01 4.70409274e-01 4.74380612e-01 4.83997256e-01 5.08921564e-01 5.59739769e-01 5.96070588e-01 4.42526966e-01 6.58427477e-02 -2.01272755e-03 4.51226413e-01 4.45938587e-01 4.44825083e-01 4.49525923e-01 4.56349641e-01 4.63205665e-01 4.69047219e-01 4.73318815e-01 4.75884289e-01 4.76901263e-01 4.76660013e-01 4.75460708e-01 4.73546296e-01 4.71087694e-01 4.68208969e-01 4.65032786e-01 4.61733788e-01 4.58598614e-01 4.56078321e-01 4.54784483e-01 4.55378681e-01 4.58413601e-01 4.64428455e-01 4.74846214e-01 4.93638307e-01 5.27377665e-01 5.73755383e-01 5.81814647e-01 4.11182314e-01 6.42075837e-02 -3.70145222e-04 4.24199015e-01 4.15694237e-01 4.13974285e-01 4.22386795e-01 4.34496760e-01 4.46376324e-01 4.56179857e-01 4.63161021e-01 4.67341542e-01 4.69159812e-01 4.69161004e-01 4.67823058e-01 4.65500981e-01 4.62443799e-01 4.58849907e-01 4.54938918e-01 4.51031715e-01 4.47629333e-01 4.45459008e-01 4.45424080e-01 4.48425651e-01 4.55181718e-01 4.66429204e-01 4.83846486e-01 5.10721684e-01 5.48379838e-01 5.82048893e-01 5.56784630e-01 3.73116314e-01 6.30909652e-02 2.14956934e-03 3.88780415e-01 3.76079142e-01 3.73824567e-01 3.88264507e-01 4.08853918e-01 4.28427517e-01 4.43857491e-01 4.54364479e-01 4.60488468e-01 4.63252783e-01 4.63634431e-01 4.62366223e-01 4.59936708e-01 4.56669569e-01 4.52823460e-01 4.48693186e-01 4.44710672e-01 4.41535175e-01 4.40092415e-01 4.41495389e-01 4.46833313e-01 4.57015097e-01 4.73080188e-01 4.96864200e-01 5.29809177e-01 5.65831065e-01 5.78176677e-01 5.14582098e-01 3.23409110e-01 6.16899058e-02 6.30198093e-03 3.44094306e-01 3.26755613e-01 3.24851364e-01 3.48568857e-01 3.81673425e-01 4.11823839e-01 4.34159517e-01 4.48401183e-01 4.56256449e-01 4.59738284e-01 4.60417628e-01 4.59308743e-01 4.57010090e-01 4.53886569e-01 4.50224102e-01 4.46356237e-01 4.42776740e-01 4.40235853e-01 4.39779788e-01 4.42670196e-01 4.50193107e-01 4.63582367e-01 4.84325469e-01 5.13884425e-01 5.49585521e-01 5.75114369e-01 5.54262280e-01 4.47770298e-01 2.57009625e-01 5.82894534e-02 1.29935816e-02 2.89044112e-01 2.68216759e-01 2.69495219e-01 3.06863576e-01 3.56741041e-01 3.99566561e-01 4.28853512e-01 4.45966452e-01 4.54655528e-01 4.58271056e-01 4.59005892e-01 4.58076477e-01 4.56109494e-01 4.53454882e-01 4.50391382e-01 4.47264791e-01 4.44598436e-01 4.43187356e-01 4.44145799e-01 4.48860228e-01 4.58876610e-01 4.75880951e-01 5.01542687e-01 5.35135806e-01 5.66173911e-01 5.66759706e-01 4.99643564e-01 3.54240298e-01 1.78852409e-01 5.24948537e-02 2.30965372e-02 2.23934427e-01 2.03450844e-01 2.13310897e-01 2.69560069e-01 3.39264154e-01 3.94592106e-01 4.28833753e-01 4.46727246e-01 4.54835564e-01 4.57874060e-01 4.58437353e-01 4.57740247e-01 4.56313729e-01 4.54433709e-01 4.52351063e-01 4.50421989e-01 4.49202806e-01 4.49535698e-01 4.52611685e-01 4.59977716e-01 4.73472923e-01 4.94960040e-01 5.24840653e-01 5.56806505e-01 5.69469452e-01 5.27774930e-01 4.09814894e-01 2.45477229e-01 1.10389084e-01 4.89784069e-02 3.84132564e-02 1.54400468e-01 1.40951276e-01 1.65664241e-01 2.45237619e-01 3.34395498e-01 3.98441702e-01 4.33462828e-01 4.49281514e-01 4.55385774e-01 4.57350314e-01 4.57705349e-01 4.57397789e-01 4.56746697e-01 4.55916047e-01 4.55127329e-01 4.54766214e-01 4.55459446e-01 4.58152980e-01 4.64186132e-01 4.75305647e-01 4.93432313e-01 5.19538283e-01 5.50091445e-01 5.69934011e-01 5.48227906e-01 4.55513567e-01 3.01790774e-01 1.51490688e-01 7.36625865e-02 5.94040900e-02 6.65005520e-02 9.43482518e-02 9.39695984e-02 1.38158724e-01 2.41597906e-01 3.44565243e-01 4.09923434e-01 4.40417498e-01 4.51578438e-01 4.54858124e-01 4.55710769e-01 4.56064135e-01 4.56392795e-01 4.56752419e-01 4.57191736e-01 4.57910776e-01 4.59343404e-01 4.62228656e-01 4.67683673e-01 4.77246761e-01 4.92750525e-01 5.15609443e-01 5.44470668e-01 5.69933653e-01 5.68385184e-01 5.07136047e-01 3.75430465e-01 2.18293384e-01 1.10112347e-01 7.97340423e-02 1.01292454e-01 1.28500730e-01 5.82300387e-02 7.00500831e-02 1.37855366e-01 2.60746032e-01 3.67244691e-01 4.24996763e-01 4.46496546e-01 4.51753855e-01 4.52315211e-01 4.52454746e-01 4.53146696e-01 4.54355359e-01 4.55911011e-01 4.57773417e-01 4.60120738e-01 4.63422358e-01 4.68523204e-01 4.76705611e-01 4.89627600e-01 5.08892894e-01 5.34744143e-01 5.62933326e-01 5.79407573e-01 5.57637036e-01 4.72186089e-01 3.33509386e-01 2.01632559e-01 1.35556698e-01 1.42607301e-01 1.95028692e-01 2.33458027e-01 3.88730392e-02 6.15907945e-02 1.61277175e-01 2.96931654e-01 3.95376116e-01 4.38438088e-01 4.49063718e-01 4.48906541e-01 4.47601110e-01 4.47593659e-01 4.48902160e-01 4.51120734e-01 4.53961730e-01 4.57337916e-01 4.61386263e-01 4.66544360e-01 4.73660886e-01 4.84040052e-01 4.99237835e-01 5.20315170e-01 5.46167254e-01 5.70587516e-01 5.78710914e-01 5.48137009e-01 4.64951396e-01 3.50836992e-01 2.60516465e-01 2.32184380e-01 2.59156913e-01 3.13278913e-01 3.46843362e-01 2.60778852e-02 5.85194081e-02 1.98127583e-01 3.39483708e-01 4.20733929e-01 4.46265101e-01 4.47137088e-01 4.43314493e-01 4.41217780e-01 4.41472024e-01 4.43447113e-01 4.46610332e-01 4.50692743e-01 4.55609828e-01 4.61428195e-01 4.68443036e-01 4.77313638e-01 4.89106923e-01 5.05013764e-01 5.25471568e-01 5.48547924e-01 5.67858517e-01 5.71254432e-01 5.44112802e-01 4.82463896e-01 4.08381015e-01 3.59599590e-01 3.53332430e-01 3.77402216e-01 4.10945237e-01 4.30577368e-01 1.76195893e-02 5.70464656e-02 2.35795557e-01 3.77580166e-01 4.37565446e-01 4.47174191e-01 4.41449046e-01 4.36046094e-01 4.33944464e-01 4.34494317e-01 4.36870754e-01 4.40668523e-01 4.45769221e-01 4.52149361e-01 4.59796995e-01 4.68769461e-01 4.79335845e-01 4.92051899e-01 5.07535100e-01 5.25728762e-01 5.44672132e-01 5.59294283e-01 5.61478078e-01 5.43514192e-01 5.06317317e-01 4.65721905e-01 4.42270875e-01 4.41346049e-01 4.53346759e-01 4.67461944e-01 4.75328356e-01 1.21190203e-02 5.58148436e-02 2.66557157e-01 4.04792815e-01 4.44544166e-01 4.42704320e-01 4.34020907e-01 4.28571612e-01 4.26605195e-01 4.26993310e-01 4.29152727e-01 4.33006823e-01 4.38688278e-01 4.46298182e-01 4.55786496e-01 4.66970026e-01 4.79647487e-01 4.93706167e-01 5.09054244e-01 5.25222063e-01 5.40655613e-01 5.52101493e-01 5.54940462e-01 5.45529068e-01 5.25448084e-01 5.03468633e-01 4.89320368e-01 4.85110819e-01 4.86948669e-01 4.90852326e-01 4.93286878e-01 7.43045192e-03 5.44428006e-02 2.89979637e-01 4.22542930e-01 4.46351618e-01 4.38226312e-01 4.29254800e-01 4.24140126e-01 4.21659142e-01 4.20960516e-01 4.21992958e-01 4.25098628e-01 4.30692583e-01 4.39036489e-01 4.50112253e-01 4.63601798e-01 4.78947848e-01 4.95442569e-01 5.12271821e-01 5.28438687e-01 5.42550623e-01 5.52621424e-01 5.56270838e-01 5.51805377e-01 5.40063143e-01 5.25136769e-01 5.11820138e-01 5.02470016e-01 4.97569174e-01 4.96931642e-01 4.97900695e-01 5.55521296e-03 5.38703166e-02 3.11426550e-01 4.39631611e-01 4.52092469e-01 4.41188514e-01 4.32928950e-01 4.27742422e-01 4.24037963e-01 4.21602666e-01 4.20902342e-01 4.22595620e-01 4.27287906e-01 4.35356766e-01 4.46843386e-01 4.61419016e-01 4.78404790e-01 4.96811688e-01 5.15383124e-01 5.32645643e-01 5.46981037e-01 5.56748331e-01 5.60521007e-01 5.57541668e-01 5.48354268e-01 5.35067737e-01 5.20606577e-01 5.07678986e-01 4.98653620e-01 4.95338082e-01 4.96143848e-01 1.68779511e-02 5.39574027e-02 3.20983380e-01 4.56452578e-01 4.60610151e-01 4.46518093e-01 4.38435107e-01 4.33302104e-01 4.29056108e-01 4.25817519e-01 4.24255520e-01 4.25103962e-01 4.28994983e-01 4.36321765e-01 4.47144866e-01 4.61160153e-01 4.77710903e-01 4.95810956e-01 5.14168203e-01 5.31234264e-01 5.45323610e-01 5.54828167e-01 5.58522522e-01 5.55924416e-01 5.47613382e-01 5.35272300e-01 5.21272719e-01 5.08146286e-01 4.98349160e-01 4.93893534e-01 4.93980765e-01 
